FOO
138240
    1MOL0     O    1   1.990   8.260   6.405  0.0577 -0.7935 -0.8672
    1MOL0     C    2   1.871   8.242   6.425 -0.9547 -0.4202  0.7616
    1MOL0     O    3   1.806   8.255   6.544 -0.7960 -0.4737  0.5612
    1MOL0     C    4   1.882   8.287   6.651  0.0881 -0.5087  0.3375
    1MOL0     C    5   1.896   8.416   6.707 -0.3700 -0.8780  0.1594
    1MOL0     C    6   1.982   8.453   6.812 -0.7555 -0.8696  0.7049
    1MOL0     C    7   2.059   8.347   6.858  0.1396 -0.0168 -0.5691
    1MOL0     O    8   2.156   8.362   6.962  0.6825  0.1705  0.4652
    1MOL0     C    9   2.174   8.486   7.023  0.9768 -0.0892  0.3875
    1MOL0     C   10   2.291   8.492   7.117  0.1578 -0.9651 -0.6660
    1MOL0     C   11   2.335   8.636   7.153  0.7404  0.0128 -0.8409
    1MOL0     C   12   2.486   8.641   7.174 -1.0041 -0.1765 -0.2496
    1MOL0     C   13   2.549   8.771   7.216 -0.6287 -0.4724 -0.2466
    1MOL0     C   14   2.703   8.756   7.261  0.3185  0.1729  0.6174
    1MOL0     C   15   2.801   8.763   7.141  0.5239 -0.7287 -0.2176
    1MOL0     C   16   2.794   8.906   7.073  0.3875  0.3188  0.3227
    1MOL0     N   17   2.882   8.895   6.958  0.4801  0.2544 -0.3214
    1MOL0     C   18   3.003   8.828   6.955 -0.1293  0.1829 -0.0724
    1MOL0     C   19   3.036   8.808   6.825  0.2659 -0.1747 -0.6037
    1MOL0     C   20   3.153   8.749   6.760  0.1152 -0.3603 -1.2964
    1MOL0     C   21   3.273   8.841   6.774 -1.0732 -0.1939 -0.7349
    1MOL0     C   22   3.398   8.767   6.732  0.3469  0.6370  0.4907
    1MOL0     C   23   3.502   8.857   6.670  0.7374 -0.2738 -1.4734
    1MOL0     O   24   3.619   8.783   6.648 -0.2576  0.6969 -0.3495
    1MOL0     C   25   3.711   8.753   6.746  0.4137 -0.3543  0.6006
    1MOL0     C   26   3.697   8.791   6.881 -0.8448  0.3672 -0.1812
    1MOL0     C   27   3.800   8.762   6.968 -0.3707  0.0241 -0.1598
    1MOL0     C   28   3.790   8.815   7.109  0.9792  0.1593 -0.5523
    1MOL0     C   29   3.924   8.700   6.927 -0.1582  0.3312  0.4500
    1MOL0     C   30   4.044   8.671   7.011  0.3116 -0.9341 -0.7532
    1MOL0     O   31   4.127   8.573   6.970  0.3168 -0.2596 -0.4897
    1MOL0     C   32   4.242   8.561   7.058  0.7504 -0.4809  0.5612
    1MOL0     C   33   4.257   8.443   7.139  0.1009 -0.6246  0.4551
    1MOL0     C   34   4.383   8.428   7.205 -0.3463  0.2889 -0.1748
    1MOL0     C   35   4.481   8.529   7.202  0.4863  0.8069 -0.4975
    1MOL0     O   36   4.578   8.510   7.291 -0.3069  0.3071 -0.1350
    1MOL0     C   37   4.710   8.502   7.220  0.1473 -0.5589 -0.6642
    1MOL0     C   38   4.818   8.480   7.325 -1.0272 -0.0406 -0.3292
    1MOL0     C   39   4.963   8.453   7.263 -0.5416 -0.1463  0.0735
    1MOL0     C   40   5.035   8.351   7.345 -0.4246 -0.2910 -0.9534
    1MOL0     C   41   5.186   8.333   7.347  0.0988  0.5362  0.2368
    1MOL0     C   42   5.250   8.329   7.207 -0.3409  0.0577  0.7302
    1MOL0     C   43   5.216   8.197   7.135 -0.1635 -0.4483 -0.8876
    1MOL0     C   44   5.274   8.181   6.997 -0.5894 -0.1395  0.1095
    1MOL0    Cl   45   5.454   8.149   6.995  0.4450 -0.0595  0.3332
    1MOL0     C   46   4.455   8.641   7.137 -0.0278  0.9008 -0.5801
    1MOL0     C   47   4.343   8.661   7.059  0.4494 -1.2869  0.8170
    1MOL0     O   48   4.063   8.740   7.107 -0.3198  0.3166  0.7026
    1MOL0     C   49   3.932   8.660   6.798  0.5308  0.4417 -0.6918
    1MOL0     C   50   3.825   8.681   6.709 -0.3785 -0.1107 -0.1828
    1MOL0     N   51   2.931   8.865   6.748  0.7269 -0.4197 -0.4515
    1MOL0     N   52   2.848   8.924   6.833  0.2540  0.5477  0.0907
    1MOL0     C   53   2.048   8.218   6.811  0.1678  1.1971 -0.7045
    1MOL0     C   54   1.961   8.197   6.705  0.5686  0.2078  0.1679
    1MOL0     C   55   1.785   8.198   6.313  0.3389  0.7198  0.5265
    1MOL0     C   56   1.838   8.185   6.186  0.1480 -0.5366  0.1134
    1MOL0     C   57   1.759   8.146   6.077 -0.8255 -0.6059 -0.3736
    1MOL0     C   58   1.631   8.113   6.096  0.9714  1.1647  0.2654
    1MOL0     O   59   1.570   8.068   5.977  0.5373  0.2763  0.7129
    1MOL0     C   60   1.431   8.098   5.949 -0.2559  0.5480  0.4160
    1MOL0     C   61   1.387   8.072   5.812 -0.3387  0.2285  0.3776
    1MOL0     C   62   1.411   7.924   5.784  0.0983  0.6944  1.1467
    1MOL0     C   63   1.396   7.885   5.638  0.2157  0.4848  0.8148
    1MOL0     C   64   1.278   7.922   5.558 -0.5158 -0.5030  0.4654
    1MOL0     C   65   1.190   7.960   5.479  0.4159 -0.9952 -1.2404
    1MOL0     C   66   1.569   8.121   6.220 -0.3590 -0.7623  0.5089
    1MOL0     C   67   1.652   8.166   6.331  0.6559 -0.0445 -0.3490
    1MOL0     H   68   1.832   8.497   6.675  2.0840  1.1420  0.0768
    1MOL0     H   69   1.985   8.555   6.851  1.7747 -0.2888 -0.7448
    1MOL0     H   70   2.184   8.564   6.947 -0.5408 -0.0934  0.1608
    1MOL0     H   71   2.087   8.513   7.083 -0.0798 -1.6641 -0.3743
    1MOL0     H   72   2.271   8.438   7.210  0.6951 -0.8224 -0.4656
    1MOL0     H   73   2.371   8.440   7.064  0.7546 -0.8237  0.0879
    1MOL0     H   74   2.320   8.718   7.081  3.5424  1.9841  0.6021
    1MOL0     H   75   2.279   8.657   7.245  0.1669 -1.6706 -0.7828
    1MOL0     H   76   2.508   8.561   7.246 -3.0176  0.1961  0.8359
    1MOL0     H   77   2.530   8.606   7.080 -0.9730 -1.0139  0.0655
    1MOL0     H   78   2.524   8.852   7.147  0.0495 -1.0606 -1.2099
    1MOL0     H   79   2.499   8.797   7.310  0.3333 -2.3452  0.8374
    1MOL0     H   80   2.724   8.829   7.340 -0.1553  2.5092 -1.3012
    1MOL0     H   81   2.723   8.656   7.299  1.3216 -1.3674 -3.4724
    1MOL0     H   82   2.900   8.750   7.185  1.4355  1.0977 -1.5913
    1MOL0     H   83   2.783   8.684   7.068 -0.6666 -0.4609 -0.2348
    1MOL0     H   84   2.832   8.988   7.135  1.8150  0.2400 -0.4104
    1MOL0     H   85   2.694   8.927   7.034 -0.8586 -2.3980  1.7733
    1MOL0     H   86   3.053   8.783   7.040  0.1887 -1.5213 -1.1127
    1MOL0     H   87   3.166   8.653   6.810  1.8045  0.7690  0.6135
    1MOL0     H   88   3.136   8.728   6.654  1.0882 -0.0995 -1.5141
    1MOL0     H   89   3.288   8.866   6.879 -0.5089  0.1960 -0.9069
    1MOL0     H   90   3.272   8.935   6.718 -1.5808 -0.5606 -1.3700
    1MOL0     H   91   3.378   8.682   6.667  0.5624 -0.1922  1.4795
    1MOL0     H   92   3.422   8.728   6.832 -2.5999  0.2121  1.1225
    1MOL0     H   93   3.516   8.949   6.727  1.4695 -1.2975  0.0752
    1MOL0     H   94   3.456   8.886   6.575 -1.7381 -2.7346 -1.1487
    1MOL0     H   95   3.603   8.836   6.912  0.7124  2.5707  1.6781
    1MOL0     H   96   3.691   8.859   7.125 -1.7322 -4.8875 -1.0092
    1MOL0     H   97   3.796   8.730   7.178 -0.6648 -0.8914 -1.6241
    1MOL0     H   98   3.871   8.886   7.127 -1.9041  3.7708 -0.6750
    1MOL0     H   99   4.180   8.366   7.136 -0.9505  0.3936  0.6111
    1MOL0     H  100   4.392   8.338   7.265  2.0863  0.4922 -0.1249
    1MOL0     H  101   4.714   8.429   7.139  2.0239  0.3042 -1.4014
    1MOL0     H  102   4.731   8.596   7.167 -2.4612 -0.9131 -2.5497
    1MOL0     H  103   4.820   8.552   7.408 -1.5040 -2.1563  1.6408
    1MOL0     H  104   4.788   8.392   7.384 -2.2990  0.5620 -0.0636
    1MOL0     H  105   5.018   8.547   7.264  0.6907 -0.8559  0.8295
    1MOL0     H  106   4.952   8.419   7.159 -2.4574 -0.8797  0.4746
    1MOL0     H  107   5.006   8.375   7.448  0.1534  1.7551 -1.2304
    1MOL0     H  108   4.995   8.249   7.339  4.0356 -2.4118  1.0877
    1MOL0     H  109   5.214   8.246   7.408  1.1814 -0.5931 -1.7613
    1MOL0     H  110   5.228   8.411   7.410  1.5914  0.5964 -0.8045
    1MOL0     H  111   5.211   8.418   7.157 -0.3698 -0.7496 -0.7780
    1MOL0     H  112   5.359   8.339   7.216 -0.4475  2.6334 -0.1622
    1MOL0     H  113   5.109   8.209   7.118 -0.0540  1.4650 -0.4711
    1MOL0     H  114   5.250   8.116   7.200 -1.7346 -3.2289 -3.2860
    1MOL0     H  115   5.251   8.280   6.959 -1.7942  0.4290  2.1781
    1MOL0     H  116   5.234   8.095   6.942  1.9087 -0.5894 -1.1841
    1MOL0     H  117   4.527   8.720   7.156  0.1895  0.6084 -0.1601
    1MOL0     H  118   4.324   8.756   7.010 -3.8870 -0.6568  3.2349
    1MOL0     H  119   4.014   8.615   6.744 -0.4357  1.8237 -3.5004
    1MOL0     H  120   3.834   8.651   6.606 -1.8967  2.0160 -1.0259
    1MOL0     H  121   2.105   8.133   6.850 -0.2649  1.4362  0.5071
    1MOL0     H  122   1.945   8.098   6.663 -2.1545  0.4119  0.5317
    1MOL0     H  123   1.940   8.218   6.170 -0.5684  2.4376  1.0400
    1MOL0     H  124   1.809   8.149   5.981  1.3243  0.6546  0.6827
    1MOL0     H  125   1.364   8.049   6.021 -1.7322  5.8062  3.1382
    1MOL0     H  126   1.407   8.204   5.960  1.8264  1.0482  0.5644
    1MOL0     H  127   1.439   8.126   5.733  0.4161 -0.4268  0.4152
    1MOL0     H  128   1.280   8.097   5.805 -0.3297  0.3742  0.7142
    1MOL0     H  129   1.343   7.864   5.846  0.7646 -1.0334  0.2894
    1MOL0     H  130   1.511   7.890   5.813 -1.0158 -1.6561  2.5235
    1MOL0     H  131   1.398   7.776   5.651  1.6448  0.1637 -1.4895
    1MOL0     H  132   1.481   7.918   5.578 -1.3616  2.6704 -0.3587
    1MOL0     H  133   1.120   7.994   5.406  0.4648  1.5931 -0.1749
    1MOL0     H  134   1.465   8.090   6.218  0.4869 -3.8154 -0.8018
    1MOL0     H  135   1.617   8.173   6.434  0.3693  0.3601 -0.4665
    2MOL0     O  136   5.038   3.348   5.508 -0.1413  0.6725  0.0732
    2MOL0     C  137   5.084   3.253   5.573 -0.0956  0.2893  0.0956
    2MOL0     O  138   5.117   3.244   5.705 -0.3909 -0.5206  0.2349
    2MOL0     C  139   5.111   3.352   5.787  0.0151 -0.0447 -0.2750
    2MOL0     C  140   5.111   3.314   5.925  0.1320  0.0073 -0.5866
    2MOL0     C  141   5.127   3.406   6.030  1.4346  0.0105  0.2510
    2MOL0     C  142   5.128   3.546   5.992  0.2382 -0.4475  0.4418
    2MOL0     O  143   5.138   3.649   6.081 -0.1090  0.3379 -0.0650
    2MOL0     C  144   5.027   3.659   6.165  1.0925  0.2274 -0.2995
    2MOL0     C  145   4.923   3.770   6.134 -0.3672  0.8767  0.1459
    2MOL0     C  146   4.977   3.917   6.159  0.7830  0.8727  0.0659
    2MOL0     C  147   4.886   4.017   6.085 -0.9745 -1.8688 -0.9450
    2MOL0     C  148   4.934   4.158   6.106 -0.1473 -0.0043 -0.3650
    2MOL0     C  149   4.838   4.269   6.053 -0.0003  1.1500  0.5094
    2MOL0     C  150   4.717   4.280   6.151 -0.7786 -0.0989  0.1901
    2MOL0     C  151   4.587   4.343   6.095 -0.1101  0.2518 -0.4179
    2MOL0     N  152   4.483   4.333   6.200 -0.4220  0.5294 -0.2463
    2MOL0     C  153   4.346   4.354   6.189  0.7896 -0.2801  0.4704
    2MOL0     C  154   4.293   4.304   6.302  0.3004 -0.8691  0.6374
    2MOL0     C  155   4.149   4.292   6.344  0.0985  0.4802 -1.0024
    2MOL0     C  156   4.096   4.147   6.351 -0.6738 -0.2323  0.5738
    2MOL0     C  157   3.972   4.126   6.433 -0.0421 -0.2810 -0.6921
    2MOL0     C  158   3.839   4.140   6.352 -0.8583 -0.6556 -0.5139
    2MOL0     O  159   3.733   4.092   6.437  0.6085 -0.4734  0.2137
    2MOL0     C  160   3.614   4.099   6.369 -0.7821 -1.2567 -0.3638
    2MOL0     C  161   3.540   4.220   6.374  0.5678 -0.1807  0.3215
    2MOL0     C  162   3.435   4.248   6.286  0.3145  0.2023  1.1610
    2MOL0     C  163   3.379   4.388   6.295  0.9191  0.9256  0.5725
    2MOL0     C  164   3.392   4.147   6.201 -0.0203  0.1904 -0.6096
    2MOL0     C  165   3.280   4.148   6.110 -0.6478 -0.7994 -0.1568
    2MOL0     O  166   3.272   4.047   6.015 -0.6089 -0.1784  0.2147
    2MOL0     C  167   3.183   4.071   5.912  1.0285  0.5210 -0.7685
    2MOL0     C  168   3.204   4.161   5.803  0.0781 -0.3601 -0.3888
    2MOL0     C  169   3.120   4.177   5.691 -0.7560  0.1935  0.2033
    2MOL0     C  170   3.003   4.102   5.693 -0.0035  0.6979  0.3128
    2MOL0     O  171   2.929   4.121   5.587  0.1523 -0.9527  0.8534
    2MOL0     C  172   2.794   4.086   5.579  0.2318 -0.2621  0.4387
    2MOL0     C  173   2.746   4.140   5.438 -0.6635  0.5530  0.6921
    2MOL0     C  174   2.590   4.124   5.421  0.4185  0.1375  0.6377
    2MOL0     C  175   2.523   4.001   5.470  0.3334 -0.6265 -0.6401
    2MOL0     C  176   2.536   3.877   5.372 -0.0642  0.8446  0.1975
    2MOL0     C  177   2.415   3.886   5.273 -0.1461 -0.2513 -1.1526
    2MOL0     C  178   2.433   3.770   5.165 -0.0869  0.0421  0.4530
    2MOL0     C  179   2.304   3.772   5.071 -0.9052 -0.2227 -0.2363
    2MOL0    Cl  180   2.174   3.681   5.137 -0.0033  0.0278 -0.1351
    2MOL0     C  181   2.983   4.001   5.784 -0.0132 -0.3856  0.1305
    2MOL0     C  182   3.066   3.988   5.903 -0.3497  0.8865  0.4531
    2MOL0     O  183   3.196   4.236   6.116 -0.4186 -0.3943  1.2909
    2MOL0     C  184   3.456   4.024   6.198  0.4647  0.3316  0.7342
    2MOL0     C  185   3.571   3.997   6.279 -0.2425  0.4640  0.7133
    2MOL0     N  186   4.395   4.259   6.387 -0.5248  0.3168 -0.6858
    2MOL0     N  187   4.506   4.277   6.328 -0.7639 -0.1308  0.4934
    2MOL0     C  188   5.113   3.583   5.854  0.1129  0.2401  0.1070
    2MOL0     C  189   5.121   3.487   5.753  0.2974 -0.3664 -0.4745
    2MOL0     C  190   5.090   3.128   5.499 -0.4850  0.6144 -0.1087
    2MOL0     C  191   5.028   3.103   5.372  0.6030  0.0297  0.4186
    2MOL0     C  192   5.041   2.973   5.310  0.2587 -0.7822 -0.3001
    2MOL0     C  193   5.109   2.868   5.378  0.5778 -0.8421 -0.6305
    2MOL0     O  194   5.111   2.742   5.320 -0.2312 -0.1339 -0.7899
    2MOL0     C  195   5.119   2.620   5.396 -0.2520 -0.6176  0.2753
    2MOL0     C  196   5.156   2.497   5.317 -0.5841  0.1729 -0.1408
    2MOL0     C  197   5.196   2.383   5.406  0.4098 -1.2164 -0.7673
    2MOL0     C  198   5.179   2.259   5.326  0.0891 -0.0835 -0.9187
    2MOL0     C  199   5.193   2.131   5.406  0.5915 -0.1787  0.4466
    2MOL0     C  200   5.216   2.029   5.471  0.6506 -0.8094  0.3564
    2MOL0     C  201   5.154   2.892   5.505 -0.3896  0.0175 -0.9002
    2MOL0     C  202   5.147   3.017   5.568  0.5663  0.2520 -0.3751
    2MOL0     H  203   5.113   3.207   5.941  1.1059  0.2053  0.7300
    2MOL0     H  204   5.144   3.382   6.134  1.6615  1.2167  0.5110
    2MOL0     H  205   4.973   3.564   6.172  2.4983 -0.6950 -1.4229
    2MOL0     H  206   5.056   3.673   6.269 -1.6653  2.7249  0.2629
    2MOL0     H  207   4.875   3.757   6.036 -2.7189 -1.1992  1.4658
    2MOL0     H  208   4.842   3.741   6.202  0.5329 -3.2328 -0.2540
    2MOL0     H  209   4.980   3.936   6.267 -0.0093  0.2602  0.2035
    2MOL0     H  210   5.085   3.923   6.140  1.6266 -4.9971  1.0912
    2MOL0     H  211   4.899   4.006   5.977  3.9478  2.1137 -1.1562
    2MOL0     H  212   4.781   4.001   6.113 -1.0941  0.4801  0.1834
    2MOL0     H  213   4.963   4.170   6.211  3.1836 -3.4225 -0.6640
    2MOL0     H  214   5.033   4.168   6.061  0.7891  0.6796  1.7222
    2MOL0     H  215   4.892   4.364   6.047  1.5157  0.3632  1.1442
    2MOL0     H  216   4.803   4.247   5.952  3.7573  3.8750 -1.6201
    2MOL0     H  217   4.691   4.177   6.178 -2.0171 -0.1669 -1.1411
    2MOL0     H  218   4.749   4.345   6.232  1.7707 -0.1107 -0.7200
    2MOL0     H  219   4.565   4.293   5.999 -2.1729 -0.5389  0.4039
    2MOL0     H  220   4.607   4.447   6.070  0.1714  0.0105 -1.2447
    2MOL0     H  221   4.292   4.405   6.110  0.1252  1.2688  1.8609
    2MOL0     H  222   4.144   4.336   6.444 -0.9439  1.2995 -1.3982
    2MOL0     H  223   4.083   4.355   6.283 -0.1871  0.7817 -0.3887
    2MOL0     H  224   4.167   4.081   6.402 -0.9716 -1.9010 -1.0437
    2MOL0     H  225   4.081   4.107   6.250 -0.8637 -0.2595  0.6127
    2MOL0     H  226   3.954   4.189   6.520 -0.3203 -0.1505 -0.8426
    2MOL0     H  227   3.992   4.030   6.480  4.4210  1.0528  0.6017
    2MOL0     H  228   3.841   4.083   6.259  0.8299  0.1848 -1.0208
    2MOL0     H  229   3.816   4.240   6.316  0.2942 -0.7921 -1.6923
    2MOL0     H  230   3.581   4.304   6.429 -2.3047  1.4977  0.0947
    2MOL0     H  231   3.369   4.425   6.192  0.8202  3.4440  1.4127
    2MOL0     H  232   3.279   4.386   6.340  0.8289  4.7560  0.9141
    2MOL0     H  233   3.440   4.462   6.347 -0.8838  0.6495  3.2918
    2MOL0     H  234   3.297   4.216   5.809 -0.9872  1.4102  1.0080
    2MOL0     H  235   3.137   4.256   5.618  1.4217 -0.2133  0.1808
    2MOL0     H  236   2.779   3.977   5.583  0.1561 -0.2779 -0.2817
    2MOL0     H  237   2.745   4.135   5.664 -0.6225 -0.0301 -0.1789
    2MOL0     H  238   2.780   4.242   5.419  0.4142 -0.4390 -4.0635
    2MOL0     H  239   2.791   4.085   5.354 -0.0469  3.7239 -1.2212
    2MOL0     H  240   2.560   4.145   5.318 -1.7683 -0.3191  1.1248
    2MOL0     H  241   2.554   4.201   5.490 -4.2449 -0.7173 -0.5382
    2MOL0     H  242   2.560   3.969   5.568  0.6586 -0.9744 -0.8698
    2MOL0     H  243   2.417   4.026   5.478  0.9376  1.4589  2.8268
    2MOL0     H  244   2.534   3.780   5.422 -2.9154 -0.4825 -2.1579
    2MOL0     H  245   2.631   3.891   5.319 -0.9428  0.2451 -1.6140
    2MOL0     H  246   2.324   3.864   5.329  0.0411 -2.4568 -1.6220
    2MOL0     H  247   2.412   3.989   5.237 -0.7397  0.1975  0.1394
    2MOL0     H  248   2.452   3.667   5.194  2.3215  0.8102  1.9256
    2MOL0     H  249   2.517   3.804   5.103  1.8151 -0.0533  2.8350
    2MOL0     H  250   2.322   3.732   4.970  0.7891  0.3278 -0.1787
    2MOL0     H  251   2.283   3.877   5.052  2.9404  0.6288 -0.5534
    2MOL0     H  252   2.912   3.922   5.759  1.9275 -1.8160 -1.2116
    2MOL0     H  253   3.052   3.912   5.979  0.9267 -1.9734 -1.9817
    2MOL0     H  254   3.427   3.945   6.131  0.3066 -0.8962  2.1882
    2MOL0     H  255   3.628   3.910   6.250  1.4378  1.9407 -0.6788
    2MOL0     H  256   5.105   3.688   5.832  1.2502  1.1171  3.3112
    2MOL0     H  257   5.130   3.526   5.652 -0.4896  0.6821 -0.1641
    2MOL0     H  258   4.968   3.187   5.336  1.3889  0.4455  0.0591
    2MOL0     H  259   5.005   2.959   5.208  0.9014 -1.7777 -0.4146
    2MOL0     H  260   5.201   2.624   5.468 -0.8093 -1.5688  0.9984
    2MOL0     H  261   5.024   2.605   5.449  0.6471  0.7603  2.4060
    2MOL0     H  262   5.242   2.514   5.251  0.4697 -2.3352  0.4774
    2MOL0     H  263   5.071   2.485   5.249 -0.5187 -1.6146  0.0538
    2MOL0     H  264   5.126   2.366   5.489  1.0549  0.5233  0.1900
    2MOL0     H  265   5.292   2.404   5.454  0.0074  1.2057 -0.8786
    2MOL0     H  266   5.252   2.248   5.245 -0.7816 -3.2087 -1.4015
    2MOL0     H  267   5.088   2.272   5.267  0.8348 -0.9717 -2.3306
    2MOL0     H  268   5.229   1.938   5.527 -1.5440 -2.3642 -1.4453
    2MOL0     H  269   5.203   2.820   5.569  1.2553  2.0007  0.1969
    2MOL0     H  270   5.193   3.026   5.666 -0.8661  1.4599  0.2282
    3MOL0     O  271   6.982   0.104   4.451 -0.0791 -0.4179  0.6796
    3MOL0     C  272   6.903   0.027   4.394  0.4201 -0.5260 -0.4308
    3MOL0     O  273   6.779   0.064   4.351 -0.1401 -0.2509  0.1121
    3MOL0     C  274   6.761   0.201   4.322 -0.1936 -0.2027 -0.0296
    3MOL0     C  275   6.783   0.299   4.418 -0.5341 -0.4118 -0.8271
    3MOL0     C  276   6.749   0.430   4.391  0.2763  0.2043  0.1228
    3MOL0     C  277   6.705   0.481   4.269  0.0255 -0.6844 -0.1412
    3MOL0     O  278   6.711   0.611   4.231  0.1218  0.7375 -0.2993
    3MOL0     C  279   6.715   0.710   4.337  0.4037 -0.6874  0.5418
    3MOL0     C  280   6.697   0.851   4.276 -0.1393  0.3178  0.3540
    3MOL0     C  281   6.826   0.902   4.203  0.5607  0.1434 -0.7039
    3MOL0     C  282   6.794   1.005   4.085  0.5414  0.6514  0.7842
    3MOL0     C  283   6.914   1.018   3.990  0.1649 -0.2752  0.6529
    3MOL0     C  284   7.030   1.091   4.055 -0.5723  0.7032 -0.6195
    3MOL0     C  285   7.149   1.089   3.960  0.2646  0.4352 -0.3153
    3MOL0     C  286   7.260   1.189   4.008  0.6799  0.1559 -0.6300
    3MOL0     N  287   7.385   1.136   3.970 -1.8699 -0.3561  0.1976
    3MOL0     C  288   7.469   1.185   3.868  0.1146  0.3555  0.1420
    3MOL0     C  289   7.592   1.133   3.897  0.1322  0.6388 -0.2377
    3MOL0     C  290   7.718   1.178   3.819  0.9838 -0.9503 -0.5369
    3MOL0     C  291   7.731   1.107   3.677  0.1672  0.1532 -1.0016
    3MOL0     C  292   7.741   0.956   3.689 -0.2763 -0.3850 -0.1531
    3MOL0     C  293   7.835   0.898   3.800  0.7933 -0.0290 -0.4834
    3MOL0     O  294   7.870   0.763   3.761  0.0371 -0.1202 -0.6711
    3MOL0     C  295   7.983   0.712   3.822  0.1803  0.7196 -0.0166
    3MOL0     C  296   8.046   0.616   3.760  0.2450 -0.0586 -0.3680
    3MOL0     C  297   8.170   0.563   3.802  0.0615  0.3764  0.1729
    3MOL0     C  298   8.220   0.445   3.716  0.8357 -0.2175  0.1914
    3MOL0     C  299   8.233   0.613   3.921 -0.3056  1.1740 -0.4193
    3MOL0     C  300   8.360   0.552   3.956  0.2643 -0.1195 -0.2941
    3MOL0     O  301   8.468   0.566   3.872 -0.2446 -0.5100  0.4916
    3MOL0     C  302   8.595   0.544   3.911 -0.9197  1.0471  0.3370
    3MOL0     C  303   8.650   0.457   4.003 -0.0877  0.5231 -0.5404
    3MOL0     C  304   8.792   0.448   4.033  0.8398  0.6819 -0.5016
    3MOL0     C  305   8.883   0.523   3.954 -0.1039 -0.0032  0.0804
    3MOL0     O  306   9.018   0.508   3.974  0.2038  0.7267 -0.6005
    3MOL0     C  307   9.106   0.567   3.874  0.6854 -0.2458 -1.0553
    3MOL0     C  308   9.252   0.549   3.904 -0.4913  0.7401  0.2111
    3MOL0     C  309   9.300   0.398   3.915 -0.0393 -0.1373 -0.0387
    3MOL0     C  310   9.449   0.393   3.927 -0.7057 -0.3098 -0.0922
    3MOL0     C  311   9.499   0.247   3.952 -0.0343 -0.6795  0.7128
    3MOL0     C  312   9.647   0.254   3.945  0.8552  0.0871  0.5017
    3MOL0     C  313   9.697   0.121   4.001 -0.1268  1.1763 -0.5703
    3MOL0     C  314   9.680   0.098   4.154 -0.2377 -0.0886  0.1490
    3MOL0    Cl  315   9.752   0.240   4.241 -0.3127 -0.3147 -0.6994
    3MOL0     C  316   8.825   0.605   3.853 -0.4227 -0.1313 -0.0615
    3MOL0     C  317   8.683   0.614   3.840 -1.3106 -0.9667 -0.2386
    3MOL0     O  318   8.366   0.523   4.072 -0.3590 -0.2329 -0.0547
    3MOL0     C  319   8.171   0.715   3.986 -0.2652 -0.0032  0.0185
    3MOL0     C  320   8.043   0.769   3.940 -0.0584  0.0271 -0.1490
    3MOL0     N  321   7.584   1.071   4.019 -0.5757  0.7694 -0.1946
    3MOL0     N  322   7.460   1.073   4.064 -0.2940  0.2160  0.4036
    3MOL0     C  323   6.687   0.380   4.177  0.2663 -0.3377  0.1111
    3MOL0     C  324   6.706   0.241   4.201  0.6847 -0.6187  0.4949
    3MOL0     C  325   6.937  -0.115   4.376 -0.2780 -0.3302 -0.0604
    3MOL0     C  326   6.844  -0.211   4.331  0.0162 -0.1025  0.1647
    3MOL0     C  327   6.884  -0.348   4.322 -0.6647  0.4310  0.4062
    3MOL0     C  328   7.007  -0.390   4.359 -0.8029  0.5620 -0.9189
    3MOL0     O  329   7.041  -0.529   4.334  0.9312 -1.2570 -0.3719
    3MOL0     C  330   7.176  -0.574   4.360 -0.0311 -0.4928  0.8328
    3MOL0     C  331   7.176  -0.724   4.372 -0.0159 -0.4028  0.5649
    3MOL0     C  332   7.311  -0.782   4.344  0.3054  0.5720 -1.1540
    3MOL0     C  333   7.359  -0.755   4.206 -0.8368  0.2298  0.4597
    3MOL0     C  334   7.474  -0.664   4.208  0.0827 -0.2566 -1.0958
    3MOL0     C  335   7.546  -0.569   4.218  0.2055 -0.0507 -0.4729
    3MOL0     C  336   7.101  -0.295   4.408  0.8609 -0.7511 -0.3174
    3MOL0     C  337   7.066  -0.157   4.427  0.7027  0.1397 -0.4141
    3MOL0     H  338   6.828   0.274   4.513 -1.0655  0.2386 -0.3945
    3MOL0     H  339   6.769   0.503   4.469 -1.1959  1.3202 -0.4792
    3MOL0     H  340   6.629   0.689   4.401 -2.5656  2.3216 -2.0502
    3MOL0     H  341   6.816   0.704   4.378  0.8008 -3.3706 -0.6117
    3MOL0     H  342   6.610   0.850   4.209  1.3715  1.5370 -1.7664
    3MOL0     H  343   6.678   0.920   4.359 -1.1427  0.7103 -0.1782
    3MOL0     H  344   6.898   0.926   4.281  1.2953  0.3265 -1.4143
    3MOL0     H  345   6.875   0.813   4.161 -1.2818 -2.1883  1.7737
    3MOL0     H  346   6.701   0.969   4.041 -0.0966  2.6418  0.4301
    3MOL0     H  347   6.772   1.103   4.129  1.7173  1.9121 -1.2376
    3MOL0     H  348   6.947   0.919   3.960 -2.6504 -0.7659 -1.1896
    3MOL0     H  349   6.881   1.079   3.906  1.4672  0.2107  0.4666
    3MOL0     H  350   7.004   1.192   4.087  1.2722  0.4936  1.8197
    3MOL0     H  351   7.050   1.025   4.140  0.3870 -3.3003 -3.6173
    3MOL0     H  352   7.188   0.989   3.940 -2.3119 -0.9950  1.2987
    3MOL0     H  353   7.109   1.113   3.861 -1.2500 -2.4778 -0.4982
    3MOL0     H  354   7.257   1.199   4.117  1.9383 -0.4888 -0.5163
    3MOL0     H  355   7.251   1.291   3.970  0.3341 -0.5575 -2.5875
    3MOL0     H  356   7.445   1.256   3.790  0.4894  2.3027  1.7171
    3MOL0     H  357   7.706   1.287   3.820  0.7401 -0.9787  0.4071
    3MOL0     H  358   7.804   1.162   3.884  1.4081  0.0550 -0.8370
    3MOL0     H  359   7.828   1.130   3.631  2.1279 -2.6112  1.3189
    3MOL0     H  360   7.644   1.130   3.616 -1.2681 -1.9049  0.1284
    3MOL0     H  361   7.788   0.907   3.603  1.3904  2.6175 -1.1207
    3MOL0     H  362   7.637   0.923   3.697 -1.4492  2.3980 -2.0711
    3MOL0     H  363   7.787   0.906   3.897  1.1184  0.6920 -0.3774
    3MOL0     H  364   7.934   0.942   3.814 -0.1548  1.3625  2.6470
    3MOL0     H  365   8.017   0.564   3.670 -0.8311  0.9969 -0.6498
    3MOL0     H  366   8.259   0.476   3.618 -0.3021  0.2787 -0.1262
    3MOL0     H  367   8.297   0.388   3.768  0.7576 -0.3613  0.1531
    3MOL0     H  368   8.142   0.368   3.702 -0.2093  0.9004 -0.3249
    3MOL0     H  369   8.579   0.400   4.061  0.1952  1.3015  0.5876
    3MOL0     H  370   8.815   0.387   4.119  0.9344  1.4107 -0.0031
    3MOL0     H  371   9.093   0.516   3.778  3.0355 -0.2555 -1.4336
    3MOL0     H  372   9.090   0.675   3.875  2.5702  0.2075  3.6533
    3MOL0     H  373   9.305   0.581   3.814  1.5139  0.5373  1.2449
    3MOL0     H  374   9.283   0.599   3.996  1.5536 -1.3541  0.7540
    3MOL0     H  375   9.270   0.344   3.825 -0.1999 -2.4839  1.3350
    3MOL0     H  376   9.255   0.349   4.002 -1.2404  0.8535 -0.0639
    3MOL0     H  377   9.484   0.421   3.827 -1.4145  0.3953 -0.1491
    3MOL0     H  378   9.481   0.461   4.007 -2.1940  0.7470 -0.3635
    3MOL0     H  379   9.466   0.185   3.868 -1.9827  0.6872  0.4007
    3MOL0     H  380   9.460   0.201   4.043  0.0321  2.3124  2.4068
    3MOL0     H  381   9.691   0.273   3.847  2.5814  0.6102  1.3416
    3MOL0     H  382   9.680   0.335   4.011  0.9678  3.5125 -3.3669
    3MOL0     H  383   9.802   0.114   3.970 -0.3446  2.0868 -1.5667
    3MOL0     H  384   9.635   0.046   3.952  0.1121 -0.6992  1.8431
    3MOL0     H  385   9.736   0.010   4.189  0.0281  1.4802  4.1991
    3MOL0     H  386   9.573   0.089   4.176 -0.3345  1.5389  0.4444
    3MOL0     H  387   8.874   0.688   3.803  0.2147  2.1118  3.8851
    3MOL0     H  388   8.642   0.684   3.769  1.6075  0.6217 -0.5205
    3MOL0     H  389   8.206   0.747   4.084  0.7843  0.6599 -0.5559
    3MOL0     H  390   7.986   0.837   4.002 -1.9594 -0.2722 -1.4463
    3MOL0     H  391   6.684   0.401   4.070  0.6770 -1.0839 -0.0572
    3MOL0     H  392   6.688   0.160   4.132 -2.7079  1.7410 -1.7280
    3MOL0     H  393   6.744  -0.180   4.302  0.0077  2.5645  2.6370
    3MOL0     H  394   6.811  -0.418   4.283 -0.6988 -0.7644  2.4527
    3MOL0     H  395   7.244  -0.543   4.280 -0.2762  1.7786  1.4258
    3MOL0     H  396   7.218  -0.533   4.453 -2.7714 -0.9120  2.3453
    3MOL0     H  397   7.115  -0.774   4.296  1.6530 -1.6885  0.0309
    3MOL0     H  398   7.141  -0.757   4.471 -1.2114  2.0272  1.0237
    3MOL0     H  399   7.291  -0.888   4.362  2.1396  0.5166  1.0940
    3MOL0     H  400   7.388  -0.755   4.417 -0.7214 -2.5915  1.2835
    3MOL0     H  401   7.285  -0.699   4.148 -0.8775  2.2699  2.3651
    3MOL0     H  402   7.383  -0.854   4.166  0.8826 -0.5063  3.0849
    3MOL0     H  403   7.603  -0.478   4.216 -2.2054  1.5697  0.0961
    3MOL0     H  404   7.198  -0.330   4.440 -0.0988 -0.8069  2.8366
    3MOL0     H  405   7.133  -0.088   4.476  0.0195  0.1991  0.4487
    4MOL0     O  406   1.870   2.988  10.089 -1.1992 -0.0736 -0.1810
    4MOL0     C  407   1.886   3.103  10.118 -0.5109  0.2118  0.5051
    4MOL0     O  408   1.854   3.151  10.239  0.4244 -0.3530  0.0021
    4MOL0     C  409   1.843   3.059  10.345  0.2156 -0.0560  0.4824
    4MOL0     C  410   1.733   3.055  10.420  0.6188 -0.2422  0.1126
    4MOL0     C  411   1.728   2.978  10.541  0.4999  0.3508  0.3885
    4MOL0     C  412   1.837   2.916  10.591 -0.1037  0.2857 -0.7896
    4MOL0     O  413   1.840   2.848  10.710 -0.1621 -0.7029 -0.0662
    4MOL0     C  414   1.732   2.743  10.728  0.0743  0.1254  0.1688
    4MOL0     C  415   1.795   2.659  10.836 -0.7114  0.6099 -0.1914
    4MOL0     C  416   1.923   2.585  10.788 -0.5273 -1.0324 -0.6404
    4MOL0     C  417   1.889   2.473  10.679 -0.3927 -0.1705 -0.1513
    4MOL0     C  418   2.017   2.385  10.681 -0.3415 -0.8030  0.4063
    4MOL0     C  419   2.032   2.310  10.556  0.3809  0.6756  0.0561
    4MOL0     C  420   2.068   2.393  10.431 -0.0069  0.8892 -0.8426
    4MOL0     C  421   2.172   2.502  10.444 -0.0653  0.2179 -0.6622
    4MOL0     N  422   2.296   2.443  10.475  0.0529 -0.4044  0.2872
    4MOL0     C  423   2.400   2.456  10.381  0.5566 -1.0640  0.2703
    4MOL0     C  424   2.514   2.436  10.458  0.9496  0.4834  0.4090
    4MOL0     C  425   2.658   2.438  10.396 -0.5499 -0.6449  0.1705
    4MOL0     C  426   2.678   2.526  10.269  0.6318 -0.5296  0.1821
    4MOL0     C  427   2.836   2.558  10.244 -0.1133 -0.7835  0.4232
    4MOL0     C  428   2.909   2.681  10.294  0.2658  0.2238 -0.9136
    4MOL0     O  429   2.945   2.690  10.434  0.4377 -0.1743  0.5008
    4MOL0     C  430   2.994   2.805  10.489 -0.3644  0.6338  0.2025
    4MOL0     C  431   3.022   2.800  10.624  0.2110 -1.1961  0.4326
    4MOL0     C  432   3.068   2.909  10.697  0.3517  0.2410  0.1240
    4MOL0     C  433   3.105   2.883  10.843 -0.4853  0.0613 -0.0948
    4MOL0     C  434   3.082   3.042  10.639  0.9598 -0.0703  0.7714
    4MOL0     C  435   3.118   3.170  10.708 -1.5611 -1.3418 -0.0092
    4MOL0     O  436   3.115   3.283  10.621 -0.6354  0.2846  0.2139
    4MOL0     C  437   3.184   3.397  10.673  0.2792  0.9380  0.4753
    4MOL0     C  438   3.326   3.425  10.675  0.6864 -1.0464  0.1607
    4MOL0     C  439   3.368   3.545  10.734  0.6593 -0.3551  0.4526
    4MOL0     C  440   3.278   3.634  10.791 -0.3597 -0.0562 -0.0771
    4MOL0     O  441   3.330   3.753  10.845  0.3310  0.4516 -0.2391
    4MOL0     C  442   3.244   3.868  10.837  0.3010  0.9989  0.5300
    4MOL0     C  443   3.317   3.987  10.885 -0.0362 -0.1751  0.2041
    4MOL0     C  444   3.236   4.113  10.867  0.1509 -0.4731  0.3902
    4MOL0     C  445   3.309   4.232  10.933 -0.0854  0.5930 -0.6471
    4MOL0     C  446   3.278   4.357  10.849  0.0340 -1.4918  0.8875
    4MOL0     C  447   3.345   4.480  10.917 -0.1418 -0.3712 -0.1236
    4MOL0     C  448   3.298   4.547  11.059 -0.3579  0.2532 -0.6413
    4MOL0     C  449   3.406   4.625  11.129 -0.5040  0.5976 -0.2660
    4MOL0    Cl  450   3.555   4.526  11.129  0.1006 -0.7960  0.1777
    4MOL0     C  451   3.140   3.606  10.804  0.1348  0.5345 -0.1826
    4MOL0     C  452   3.099   3.485  10.744 -0.5510 -0.2149 -0.2017
    4MOL0     O  453   3.139   3.177  10.830 -0.2693 -0.2713 -0.8017
    4MOL0     C  454   3.051   3.049  10.498 -0.3295 -0.3609 -0.5695
    4MOL0     C  455   3.011   2.935  10.431  0.9896  0.6428 -0.1518
    4MOL0     N  456   2.473   2.391  10.583 -0.2182  0.1277  0.0377
    4MOL0     N  457   2.345   2.414  10.596  0.3145  0.9148 -0.1577
    4MOL0     C  458   1.960   2.929  10.517 -0.9190 -0.0548  0.7536
    4MOL0     C  459   1.961   2.999  10.391  0.9467 -0.2497  0.2473
    4MOL0     C  460   1.909   3.192  10.010 -0.4501 -0.8596 -0.6094
    4MOL0     C  461   1.953   3.148   9.883 -0.4211 -0.1982  0.6503
    4MOL0     C  462   1.991   3.241   9.775  0.5905  0.5676 -0.4888
    4MOL0     C  463   1.983   3.380   9.798 -0.1509  0.7322  0.4661
    4MOL0     O  464   2.011   3.467   9.693 -0.6535 -0.7901 -0.2102
    4MOL0     C  465   1.933   3.586   9.678 -0.1644 -1.1209  0.9038
    4MOL0     C  466   1.794   3.540   9.635  1.1934 -0.3681 -0.3892
    4MOL0     C  467   1.682   3.649   9.617 -0.3113 -0.0119 -0.7044
    4MOL0     C  468   1.645   3.730   9.739  0.0056  0.0951 -0.2920
    4MOL0     C  469   1.669   3.674   9.874 -0.8497 -0.6338 -0.5714
    4MOL0     C  470   1.661   3.622   9.979 -0.1160 -0.3797 -0.9071
    4MOL0     C  471   1.963   3.412   9.936  0.0834  0.5980  0.8030
    4MOL0     C  472   1.920   3.331  10.034 -0.4360 -0.8202  0.5673
    4MOL0     H  473   1.652   3.120  10.386  2.7397  2.5271 -0.0389
    4MOL0     H  474   1.640   2.982  10.603  0.5591 -0.3894  0.5311
    4MOL0     H  475   1.632   2.777  10.756 -0.6848 -0.9987 -1.0775
    4MOL0     H  476   1.719   2.685  10.636 -3.1048  0.6113  0.2254
    4MOL0     H  477   1.829   2.723  10.918 -0.0487 -1.5188  1.2806
    4MOL0     H  478   1.727   2.584  10.877 -1.1045 -0.7303 -3.0125
    4MOL0     H  479   1.998   2.656  10.752 -2.1806  0.2677 -1.6888
    4MOL0     H  480   1.963   2.541  10.880 -1.3363  0.2128  0.3363
    4MOL0     H  481   1.808   2.407  10.710 -0.1320 -0.8755 -0.9292
    4MOL0     H  482   1.862   2.519  10.584  1.1513  3.1875  0.8752
    4MOL0     H  483   2.105   2.447  10.700 -1.1678  1.2899 -2.0387
    4MOL0     H  484   1.995   2.306  10.755  0.2705 -1.3145  0.0522
    4MOL0     H  485   2.116   2.240  10.558  0.9067  1.1470 -2.2660
    4MOL0     H  486   1.935   2.263  10.539  1.7870 -2.4148 -0.1419
    4MOL0     H  487   2.095   2.327  10.348 -0.6594 -0.7334  0.1901
    4MOL0     H  488   1.970   2.430  10.397 -0.5582 -0.0736 -0.3331
    4MOL0     H  489   2.147   2.575  10.521 -0.9861 -2.7184  1.9990
    4MOL0     H  490   2.180   2.551  10.346  1.1790  0.5529 -0.4210
    4MOL0     H  491   2.388   2.488  10.278  1.6330 -0.8923  0.1825
    4MOL0     H  492   2.726   2.469  10.476 -0.6176  2.3353 -0.8002
    4MOL0     H  493   2.680   2.336  10.362 -2.2348 -0.9726 -0.0154
    4MOL0     H  494   2.614   2.614  10.259  2.5741  0.8139 -1.2002
    4MOL0     H  495   2.657   2.460  10.184 -0.4241 -0.3154  0.2708
    4MOL0     H  496   2.840   2.574  10.135 -2.0072  1.7847  0.6383
    4MOL0     H  497   2.900   2.471  10.262  1.1477 -0.0409 -0.3278
    4MOL0     H  498   2.834   2.759  10.276 -0.3362  0.2568  1.4097
    4MOL0     H  499   3.005   2.692  10.244  1.7465  1.2721  1.9322
    4MOL0     H  500   3.001   2.700  10.660 -3.8202 -0.3063  1.0823
    4MOL0     H  501   3.019   2.894  10.910  0.5299 -0.3509  1.3246
    4MOL0     H  502   3.134   2.779  10.854  0.5443  0.0346 -2.4647
    4MOL0     H  503   3.183   2.949  10.883 -2.2043 -0.2671  4.3853
    4MOL0     H  504   3.400   3.359  10.630  0.7414 -1.2787  0.5854
    4MOL0     H  505   3.470   3.578  10.721 -0.8103  4.4428 -1.1852
    4MOL0     H  506   3.223   3.885  10.731 -0.9565 -1.8744  0.2059
    4MOL0     H  507   3.151   3.848  10.892  1.0513 -0.4863  1.3394
    4MOL0     H  508   3.342   3.986  10.991 -2.9960  2.3091  1.0515
    4MOL0     H  509   3.408   3.997  10.825  0.4535 -2.8969  0.3453
    4MOL0     H  510   3.137   4.107  10.914 -0.0996  0.3983  0.0018
    4MOL0     H  511   3.226   4.141  10.762  0.8295  0.4230  0.5477
    4MOL0     H  512   3.283   4.244  11.038  3.1225  0.5749  0.2474
    4MOL0     H  513   3.415   4.208  10.935 -0.5742 -1.6954 -0.0222
    4MOL0     H  514   3.174   4.380  10.826  0.5432 -0.1973 -0.2154
    4MOL0     H  515   3.325   4.354  10.751 -0.0885  3.4142  0.4490
    4MOL0     H  516   3.445   4.439  10.926  0.0278 -0.0432 -0.5070
    4MOL0     H  517   3.355   4.556  10.839  0.5644 -1.6628 -1.3306
    4MOL0     H  518   3.280   4.461  11.123  1.1787 -0.9737 -1.7571
    4MOL0     H  519   3.218   4.617  11.034 -1.1068 -0.5151 -0.3927
    4MOL0     H  520   3.388   4.641  11.236 -3.5963 -0.6815 -0.4984
    4MOL0     H  521   3.422   4.722  11.080  0.3420  0.7031  0.1986
    4MOL0     H  522   3.058   3.659  10.852  0.9628  3.0051 -1.3303
    4MOL0     H  523   2.995   3.454  10.744 -1.8825  3.6954 -0.5951
    4MOL0     H  524   3.064   3.136  10.434 -1.8117  0.4682  0.2158
    4MOL0     H  525   3.000   2.938  10.323  2.7678  1.1729 -0.3383
    4MOL0     H  526   2.046   2.873  10.551  0.9813  1.3617 -1.4026
    4MOL0     H  527   2.055   3.007  10.337  2.1307 -1.9044  1.9501
    4MOL0     H  528   1.960   3.044   9.854  0.5649  0.1089 -0.2454
    4MOL0     H  529   2.026   3.188   9.687  1.3022 -0.2785  0.2804
    4MOL0     H  530   1.924   3.647   9.769 -0.4565  1.0275 -0.4769
    4MOL0     H  531   1.968   3.657   9.602 -3.9741 -1.8287 -1.8547
    4MOL0     H  532   1.741   3.461   9.688 -0.3309  0.5651 -0.4688
    4MOL0     H  533   1.826   3.514   9.534 -0.8797  2.1880 -1.8171
    4MOL0     H  534   1.591   3.591   9.600  0.2467 -1.5884  1.2377
    4MOL0     H  535   1.716   3.711   9.534  0.8887 -0.6725 -0.7303
    4MOL0     H  536   1.544   3.770   9.728 -0.4477 -0.0756  2.5184
    4MOL0     H  537   1.712   3.817   9.745 -0.0953  0.4635 -3.2150
    4MOL0     H  538   1.648   3.560  10.065  1.1594 -2.0949 -1.8981
    4MOL0     H  539   1.964   3.519   9.955  1.9731  1.1631 -1.8185
    4MOL0     H  540   1.888   3.369  10.131 -1.0288  1.1145 -0.3309
    5MOL0     O  541  10.791   8.958   9.292  0.9800 -0.2418 -0.3950
    5MOL0     C  542  10.691   8.932   9.226  0.4703  1.1147 -0.4776
    5MOL0     O  543  10.675   8.948   9.089 -0.2571 -0.0135  0.1098
    5MOL0     C  544  10.765   9.026   9.017 -0.0786 -0.6250 -0.0864
    5MOL0     C  545  10.848   9.139   9.069  0.7885  0.8115  0.1394
    5MOL0     C  546  10.939   9.202   8.982 -0.3695  0.0183 -0.8073
    5MOL0     C  547  10.939   9.176   8.847  0.1043  0.5562 -0.3210
    5MOL0     O  548  11.033   9.245   8.777  0.3602 -0.0102 -0.0858
    5MOL0     C  549  10.997   9.258   8.648  0.4879 -0.3072  0.4544
    5MOL0     C  550  11.076   9.356   8.556  0.0276  0.6254 -0.5076
    5MOL0     C  551  11.080   9.498   8.615  0.6355 -1.1416 -0.2085
    5MOL0     C  552  11.029   9.594   8.508  0.2738  0.1935  0.3790
    5MOL0     C  553  11.042   9.751   8.540 -0.7594  0.9037  0.3798
    5MOL0     C  554  10.963   9.786   8.667  0.0012  0.9029 -0.2558
    5MOL0     C  555  10.985   9.938   8.686 -0.2452  0.5398 -1.0081
    5MOL0     C  556  10.969   9.959   8.839  0.4297  0.2359  0.2445
    5MOL0     N  557  10.834   9.925   8.882 -0.0388 -0.4423  0.9671
    5MOL0     C  558  10.795   9.820   8.957  0.0830  0.1061  0.7582
    5MOL0     C  559  10.673   9.842   9.002 -0.4268  0.0027  0.9694
    5MOL0     C  560  10.604   9.771   9.116 -0.2719  0.1415 -0.4186
    5MOL0     C  561  10.695   9.738   9.241  0.0273  0.2743  0.2536
    5MOL0     C  562  10.736   9.875   9.314 -0.3412  0.3337 -0.7555
    5MOL0     C  563  10.871   9.865   9.376  0.0314  0.7429 -0.1474
    5MOL0     O  564  10.863   9.774   9.485  0.8052 -0.2923  1.5509
    5MOL0     C  565  10.838   9.813   9.614 -1.4666  0.4475  0.0099
    5MOL0     C  566  10.752   9.730   9.694  0.3874 -0.0756  0.5859
    5MOL0     C  567  10.763   9.720   9.830  0.0199 -0.5171  0.1751
    5MOL0     C  568  10.692   9.605   9.899 -0.8923 -0.8587  1.0652
    5MOL0     C  569  10.833   9.832   9.897  0.2679  0.1806 -0.5251
    5MOL0     C  570  10.849   9.842  10.047  0.2659 -0.1285  1.5642
    5MOL0     O  571  10.942   9.934  10.091  0.0523 -0.2528 -0.2118
    5MOL0     C  572  10.943   9.982  10.218 -0.1228  0.1191 -0.3307
    5MOL0     C  573  11.057  10.052  10.268 -0.1506  0.3087  0.3102
    5MOL0     C  574  11.075  10.068  10.406 -0.1787 -0.5864  0.4848
    5MOL0     C  575  10.975  10.030  10.492  0.4243  0.4317  0.9291
    5MOL0     O  576  10.984  10.054  10.625 -0.3757  0.5889  0.7187
    5MOL0     C  577  10.954   9.953  10.718 -0.0723  1.1360 -0.4485
    5MOL0     C  578  10.982   9.999  10.859  0.5613 -0.2033  0.2783
    5MOL0     C  579  10.911  10.134  10.894  0.4784  0.2528 -1.2235
    5MOL0     C  580  10.913  10.154  11.045 -0.1473  1.3002 -0.7309
    5MOL0     C  581  10.830  10.272  11.101 -0.5120  0.0200 -1.1978
    5MOL0     C  582  10.857  10.408  11.066 -0.3527  0.0430  0.1980
    5MOL0     C  583  11.005  10.444  11.105  0.3308  0.2239 -0.6966
    5MOL0     C  584  11.041  10.591  11.092  0.4383 -0.9187 -0.0859
    5MOL0    Cl  585  11.205  10.608  11.126  0.1390 -0.0173  0.1033
    5MOL0     C  586  10.847   9.991  10.438 -0.2349  0.2938  0.3298
    5MOL0     C  587  10.836   9.950  10.303 -0.1564 -0.8744  0.6098
    5MOL0     O  588  10.781   9.764  10.111 -0.0757 -0.3609 -0.1615
    5MOL0     C  589  10.893   9.930   9.818 -0.0710 -0.6508 -0.5268
    5MOL0     C  590  10.905   9.921   9.678  0.2572 -0.1163 -1.1502
    5MOL0     N  591  10.631   9.966   8.954 -0.4772 -0.0018 -0.1608
    5MOL0     N  592  10.723  10.011   8.871  0.0660 -0.1816  0.0153
    5MOL0     C  593  10.857   9.075   8.798  1.2829 -0.7226  0.2773
    5MOL0     C  594  10.763   9.003   8.880  0.0787  0.0461  0.4709
    5MOL0     C  595  10.574   8.873   9.297 -0.3457  0.0033  0.5634
    5MOL0     C  596  10.577   8.866   9.442  0.0667  1.0019 -0.5531
    5MOL0     C  597  10.471   8.793   9.506 -0.4211  0.5721 -0.2844
    5MOL0     C  598  10.364   8.741   9.437 -0.9072 -0.7627  0.5619
    5MOL0     O  599  10.270   8.673   9.508  0.9848  0.3968  0.3511
    5MOL0     C  600  10.136   8.719   9.482 -0.8881 -1.4613  0.1051
    5MOL0     C  601  10.043   8.671   9.588  0.2915  1.1656 -0.1455
    5MOL0     C  602  10.080   8.688   9.739 -0.3114 -0.3171  0.8064
    5MOL0     C  603   9.972   8.729   9.829  0.1791  0.7407 -0.3669
    5MOL0     C  604   9.888   8.617   9.877 -0.3064  0.7474 -1.1477
    5MOL0     C  605   9.811   8.534   9.919  0.1850 -0.7433  0.6810
    5MOL0     C  606  10.361   8.754   9.301 -0.2791 -0.2838 -0.1384
    5MOL0     C  607  10.457   8.818   9.232 -0.0572 -0.6505  0.7672
    5MOL0     H  608  10.831   9.146   9.176 -0.0776  2.7889 -0.0809
    5MOL0     H  609  11.016   9.266   9.024  1.7686 -1.2497 -2.5355
    5MOL0     H  610  11.025   9.157   8.616  1.6818 -1.0386  3.4464
    5MOL0     H  611  10.889   9.269   8.637  0.5086  0.7923  1.1997
    5MOL0     H  612  11.179   9.320   8.552  0.2027  1.0775 -0.2154
    5MOL0     H  613  11.043   9.348   8.452 -1.2244 -2.5839  0.0306
    5MOL0     H  614  11.007   9.494   8.696 -1.2014 -3.6485 -1.8255
    5MOL0     H  615  11.181   9.513   8.654  0.9599  2.1631 -1.9755
    5MOL0     H  616  11.063   9.573   8.406 -0.2032  0.8234  0.0813
    5MOL0     H  617  10.922   9.573   8.509  0.4387 -0.7579 -0.3329
    5MOL0     H  618  11.149   9.772   8.549 -0.6119 -0.0530  0.9809
    5MOL0     H  619  11.003   9.815   8.460 -0.5114  2.2651  1.3153
    5MOL0     H  620  10.859   9.760   8.647  0.4635  0.0442 -1.7312
    5MOL0     H  621  10.995   9.729   8.754  0.5828 -1.4601 -1.9140
    5MOL0     H  622  11.081   9.972   8.644  1.2391  0.5534  2.1063
    5MOL0     H  623  10.906   9.992   8.634 -1.9206  0.3655  1.2457
    5MOL0     H  624  10.997  10.060   8.870  3.2771  0.3446 -2.2385
    5MOL0     H  625  11.038   9.891   8.890  0.3750  0.3018  0.4073
    5MOL0     H  626  10.848   9.726   8.960  1.0955  0.6774  1.5693
    5MOL0     H  627  10.513   9.823   9.148 -1.1105 -2.7407  2.4393
    5MOL0     H  628  10.572   9.674   9.078 -0.3042 -0.3575  0.8190
    5MOL0     H  629  10.775   9.669   9.213  0.8541  1.3183 -0.0115
    5MOL0     H  630  10.634   9.692   9.320 -0.0757  2.2435  1.3919
    5MOL0     H  631  10.668   9.902   9.395  0.8325  1.7215 -0.1824
    5MOL0     H  632  10.733   9.960   9.245  0.0127  2.3077  1.5309
    5MOL0     H  633  10.903   9.963   9.412 -2.8818  0.9069  2.4845
    5MOL0     H  634  10.947   9.827   9.308  0.2126 -0.7274  0.8250
    5MOL0     H  635  10.697   9.664   9.628 -0.4369  1.6460 -0.5193
    5MOL0     H  636  10.624   9.660   9.964 -0.9512 -0.4496  0.6690
    5MOL0     H  637  10.633   9.549   9.826  1.1251 -3.0504  1.0049
    5MOL0     H  638  10.760   9.546   9.960  1.5953  0.0677 -0.6364
    5MOL0     H  639  11.133  10.083  10.196 -0.9855  1.7537  0.0129
    5MOL0     H  640  11.161  10.119  10.448 -0.8250  0.0018  1.1514
    5MOL0     H  641  10.847   9.933  10.705  0.2168 -0.9066  0.0030
    5MOL0     H  642  11.009   9.863  10.691  1.2420  1.6334  0.5094
    5MOL0     H  643  10.942   9.924  10.928 -1.4667 -0.2808 -0.9126
    5MOL0     H  644  11.090  10.014  10.870  0.8964 -1.0405 -1.4279
    5MOL0     H  645  10.807  10.126  10.863 -0.4843 -1.1076  1.9467
    5MOL0     H  646  10.961  10.216  10.842  0.5896 -0.1023 -1.6819
    5MOL0     H  647  10.871  10.059  11.080  0.6553  1.4365  0.6798
    5MOL0     H  648  11.016  10.158  11.083 -0.5659  1.6004  0.3994
    5MOL0     H  649  10.842  10.264  11.209 -0.1541  2.1296 -1.0502
    5MOL0     H  650  10.725  10.242  11.085 -2.1436  3.4338  1.6528
    5MOL0     H  651  10.853  10.413  10.957  1.4497 -1.4795 -0.0001
    5MOL0     H  652  10.780  10.477  11.103 -1.7351 -1.4799  0.2546
    5MOL0     H  653  11.075  10.394  11.037  0.7217  2.9078 -2.3760
    5MOL0     H  654  11.033  10.406  11.204 -2.4013  0.1291  0.1182
    5MOL0     H  655  10.977  10.650  11.158  0.7937 -0.3931 -0.2077
    5MOL0     H  656  11.042  10.633  10.991  2.8872  1.3062  0.7532
    5MOL0     H  657  10.767   9.973  10.509  2.1545 -0.9914  2.8960
    5MOL0     H  658  10.740   9.910  10.272 -0.0960  1.1836 -2.7837
    5MOL0     H  659  10.954  10.004   9.869 -0.9065  0.6887 -1.4077
    5MOL0     H  660  10.960   9.984   9.610 -1.4026  1.4057 -1.1521
    5MOL0     H  661  10.866   9.054   8.692  1.5453  1.9380 -0.2914
    5MOL0     H  662  10.707   8.918   8.842  0.6413 -0.4379  0.7155
    5MOL0     H  663  10.657   8.892   9.511  0.9128 -1.7099 -0.4320
    5MOL0     H  664  10.475   8.768   9.611  0.6114  2.3502  0.1273
    5MOL0     H  665  10.138   8.828   9.466  0.4007 -1.7187 -1.7944
    5MOL0     H  666  10.096   8.669   9.393 -4.7715  1.8782 -0.3552
    5MOL0     H  667  10.037   8.563   9.572  0.8228  1.1067  0.0369
    5MOL0     H  668   9.946   8.709   9.556  0.4105  0.7568 -1.0155
    5MOL0     H  669  10.150   8.773   9.739  0.5318 -0.8589 -2.6904
    5MOL0     H  670  10.125   8.596   9.777  0.7915 -1.0460 -1.9978
    5MOL0     H  671   9.899   8.787   9.772  0.3971  1.6879  0.3114
    5MOL0     H  672   9.998   8.785   9.919 -1.3448 -2.2198  2.1140
    5MOL0     H  673   9.747   8.463   9.968 -0.0188 -2.2067 -1.5384
    5MOL0     H  674  10.276   8.701   9.261  2.1010 -2.1229 -3.2005
    5MOL0     H  675  10.439   8.829   9.126 -0.7699 -2.3393  0.6828
    6MOL0     O  676   4.455   6.861  11.129 -0.2654 -0.4831 -0.4890
    6MOL0     C  677   4.518   6.924  11.223 -0.5285 -0.5076 -0.9528
    6MOL0     O  678   4.508   6.895  11.356  0.8482  0.5339 -0.2254
    6MOL0     C  679   4.424   6.798  11.402  1.3113 -0.1298 -0.1798
    6MOL0     C  680   4.428   6.749  11.530 -0.5171 -1.8778  0.3537
    6MOL0     C  681   4.330   6.661  11.582 -0.0260 -0.4888 -0.3260
    6MOL0     C  682   4.218   6.627  11.512  0.0775  1.2564 -0.2853
    6MOL0     O  683   4.129   6.523  11.564 -0.0723  0.1665  0.1103
    6MOL0     C  684   4.019   6.489  11.480  0.3462 -0.5449 -1.4079
    6MOL0     C  685   3.928   6.372  11.530  0.3716 -0.7758  0.3080
    6MOL0     C  686   3.995   6.243  11.563 -0.4455  0.9814 -0.3471
    6MOL0     C  687   4.092   6.191  11.453 -0.4003  0.0446  0.6324
    6MOL0     C  688   4.149   6.057  11.493 -0.4398 -0.5979 -0.0648
    6MOL0     C  689   4.255   6.030  11.390  0.2009 -0.0635 -0.0134
    6MOL0     C  690   4.316   5.889  11.425  0.0085  0.2123 -0.2517
    6MOL0     C  691   4.473   5.898  11.413 -0.3291 -1.0502  0.1955
    6MOL0     N  692   4.531   5.767  11.430  0.3327 -0.3789 -0.4633
    6MOL0     C  693   4.659   5.737  11.383  0.3357 -0.2439  0.3581
    6MOL0     C  694   4.687   5.613  11.431  0.2251  0.3441 -0.6930
    6MOL0     C  695   4.816   5.543  11.415 -1.0304  0.0839  0.0380
    6MOL0     C  696   4.937   5.622  11.482 -0.0244  0.1842 -1.0136
    6MOL0     C  697   5.026   5.514  11.550  0.3938 -0.4690  0.2611
    6MOL0     C  698   5.175   5.547  11.559  0.1221 -0.2411 -0.7503
    6MOL0     O  699   5.202   5.666  11.624  0.2434 -0.3550  0.0712
    6MOL0     C  700   5.328   5.721  11.617  0.0449 -0.6137  0.0923
    6MOL0     C  701   5.329   5.849  11.678 -0.5175  1.0228  0.0517
    6MOL0     C  702   5.451   5.929  11.682  1.5636 -0.3186 -0.1577
    6MOL0     C  703   5.424   6.070  11.735  0.1546 -0.9855  0.2369
    6MOL0     C  704   5.573   5.859  11.651 -0.2996 -0.4119  0.9905
    6MOL0     C  705   5.703   5.929  11.649 -0.4803  0.3841 -0.2960
    6MOL0     O  706   5.722   6.025  11.741  0.0838 -0.0087  0.2920
    6MOL0     C  707   5.832   6.103  11.737  0.7674  1.1215 -0.6109
    6MOL0     C  708   5.839   6.231  11.686  0.5971 -0.1392  0.4311
    6MOL0     C  709   5.950   6.315  11.695  0.1865 -0.4582 -0.0002
    6MOL0     C  710   6.068   6.271  11.762 -0.8301  0.4197  0.2459
    6MOL0     O  711   6.183   6.344  11.764 -0.2174  0.2768  0.1982
    6MOL0     C  712   6.184   6.480  11.722 -0.6664  0.5950 -0.0160
    6MOL0     C  713   6.313   6.537  11.767 -0.0390 -0.6986  0.1954
    6MOL0     C  714   6.335   6.695  11.741  0.8070 -0.2212  0.3381
    6MOL0     C  715   6.216   6.764  11.814 -0.7506 -0.3923  0.8196
    6MOL0     C  716   6.251   6.898  11.871 -1.1031 -0.0154 -0.1891
    6MOL0     C  717   6.333   6.876  12.004  0.0794  0.7447  0.1351
    6MOL0     C  718   6.360   6.989  12.098  0.4927  0.3188  0.0575
    6MOL0     C  719   6.386   7.121  12.026 -0.0240 -0.3132  0.0095
    6MOL0    Cl  720   6.537   7.133  11.956  0.3323 -0.1220  0.7610
    6MOL0     C  721   6.060   6.148  11.814 -0.3603  0.0405  0.0933
    6MOL0     C  722   5.940   6.066  11.816 -1.2022  0.7395 -0.4855
    6MOL0     O  723   5.794   5.882  11.584  0.1088  0.4255  0.1236
    6MOL0     C  724   5.565   5.728  11.585  0.6299  0.6805  1.1165
    6MOL0     C  725   5.441   5.659  11.568  0.0235 -0.3233 -0.7579
    6MOL0     N  726   4.581   5.576  11.510  0.4820 -0.2218  0.1346
    6MOL0     N  727   4.487   5.665  11.513 -0.4243  0.6207  0.0147
    6MOL0     C  728   4.199   6.687  11.391  0.2390  0.5639  0.3997
    6MOL0     C  729   4.299   6.759  11.331  0.3111  0.6632 -0.4442
    6MOL0     C  730   4.612   7.024  11.180  0.3670 -0.1617  0.7799
    6MOL0     C  731   4.600   7.096  11.058  0.6264  0.3950 -0.4064
    6MOL0     C  732   4.693   7.187  11.025 -0.5118 -0.8673  0.8095
    6MOL0     C  733   4.803   7.225  11.102  0.1790 -0.3109 -0.0655
    6MOL0     O  734   4.887   7.326  11.058 -0.1392 -0.9038  0.0121
    6MOL0     C  735   5.027   7.316  11.076 -0.2212 -0.8512  0.2500
    6MOL0     C  736   5.102   7.432  11.006  0.6010 -0.1729 -0.7819
    6MOL0     C  737   5.244   7.454  11.070  0.7811  1.2178  0.1266
    6MOL0     C  738   5.332   7.559  10.996 -0.0698 -0.5467  0.2628
    6MOL0     C  739   5.379   7.511  10.873  0.3291  1.2915  0.6642
    6MOL0     C  740   5.403   7.462  10.755  0.0511  1.1928 -1.6117
    6MOL0     C  741   4.819   7.159  11.219 -0.2629  0.6367  0.0058
    6MOL0     C  742   4.729   7.060  11.256 -0.2479  0.3701  0.0452
    6MOL0     H  743   4.511   6.792  11.585 -0.7762 -1.1179  0.1768
    6MOL0     H  744   4.339   6.635  11.687  3.2838 -0.3144 -0.4566
    6MOL0     H  745   3.953   6.576  11.477 -0.6043 -0.9714  2.1657
    6MOL0     H  746   4.047   6.468  11.376 -1.6964 -0.2264 -2.0712
    6MOL0     H  747   3.877   6.413  11.618 -1.4191 -0.0577 -1.0210
    6MOL0     H  748   3.863   6.335  11.451  0.6285 -2.1839  0.7362
    6MOL0     H  749   4.058   6.268  11.649 -0.4912 -1.2569  0.4211
    6MOL0     H  750   3.922   6.164  11.583 -1.9560  1.0637 -4.6153
    6MOL0     H  751   4.019   6.185  11.372 -1.8521  3.5765  1.5094
    6MOL0     H  752   4.162   6.264  11.410 -1.3840  0.6590  0.0297
    6MOL0     H  753   4.190   6.067  11.594  1.2193 -2.1077 -0.5452
    6MOL0     H  754   4.079   5.973  11.496 -2.2238  0.7597 -1.0397
    6MOL0     H  755   4.218   6.038  11.287 -2.9321  3.1722  1.1410
    6MOL0     H  756   4.335   6.103  11.407 -0.1189  0.2176  0.3054
    6MOL0     H  757   4.284   5.849  11.522 -0.9528  0.6131 -0.3987
    6MOL0     H  758   4.283   5.822  11.344 -4.0845  2.2467 -0.5160
    6MOL0     H  759   4.517   5.964  11.488 -2.1443 -0.1841  0.5509
    6MOL0     H  760   4.488   5.943  11.314 -1.1031  0.5940  0.7848
    6MOL0     H  761   4.724   5.787  11.312 -1.9072  0.2468 -1.4713
    6MOL0     H  762   4.818   5.444  11.461  0.7966  0.0327 -0.0764
    6MOL0     H  763   4.845   5.523  11.312 -0.8179 -0.7583  0.2477
    6MOL0     H  764   4.900   5.684  11.564  2.5313  1.7138 -0.8985
    6MOL0     H  765   4.992   5.683  11.409  1.1184  1.5889  0.8994
    6MOL0     H  766   5.030   5.422  11.492  4.1349  0.0770 -0.6412
    6MOL0     H  767   4.981   5.499  11.648 -0.4000 -1.6370 -0.2639
    6MOL0     H  768   5.204   5.559  11.454 -1.1266  1.0437 -0.9722
    6MOL0     H  769   5.231   5.458  11.589  0.7798 -0.3309 -2.1221
    6MOL0     H  770   5.236   5.896  11.707 -1.8913 -0.9183 -0.9767
    6MOL0     H  771   5.488   6.148  11.692  2.8166 -1.9078  2.2475
    6MOL0     H  772   5.323   6.094  11.700  1.4101  2.6048 -1.3799
    6MOL0     H  773   5.451   6.089  11.839  1.3670  0.1715 -0.2533
    6MOL0     H  774   5.747   6.280  11.657  0.5380 -1.6325 -2.0961
    6MOL0     H  775   5.952   6.408  11.640  0.5198 -0.4109  0.0886
    6MOL0     H  776   6.177   6.482  11.613  0.8050 -1.8657 -0.2298
    6MOL0     H  777   6.100   6.541  11.757  0.6719  2.1041  0.6407
    6MOL0     H  778   6.320   6.519  11.875  0.7099  6.2727  1.7892
    6MOL0     H  779   6.395   6.483  11.718  1.1115  3.0930 -2.5580
    6MOL0     H  780   6.350   6.707  11.633  2.7813  0.2785  0.6182
    6MOL0     H  781   6.428   6.741  11.777  0.0527  1.4321  0.2671
    6MOL0     H  782   6.152   6.783  11.727 -0.9966 -1.5274  0.7321
    6MOL0     H  783   6.173   6.703  11.893  2.9325 -3.2700  0.8694
    6MOL0     H  784   6.163   6.960  11.890 -0.0223  1.2859  0.7457
    6MOL0     H  785   6.315   6.955  11.804  0.9496 -1.5686  0.3386
    6MOL0     H  786   6.287   6.798  12.066  2.4968 -0.7871  0.1551
    6MOL0     H  787   6.425   6.829  11.967 -1.0899  0.8475 -3.3518
    6MOL0     H  788   6.442   6.966  12.167  1.0325  3.2328  0.5068
    6MOL0     H  789   6.265   6.994  12.151 -1.3674  0.8671 -3.0875
    6MOL0     H  790   6.377   7.204  12.096  0.4100 -0.1228 -0.1549
    6MOL0     H  791   6.304   7.137  11.957 -0.0277  0.5808  0.2151
    6MOL0     H  792   6.155   6.117  11.857 -1.0176  1.3201  2.6695
    6MOL0     H  793   5.937   5.972  11.871 -2.2713  1.1315  0.1654
    6MOL0     H  794   5.655   5.676  11.551 -1.0573 -1.0110 -1.1737
    6MOL0     H  795   5.432   5.561  11.522 -1.1190  0.2799 -1.8731
    6MOL0     H  796   4.107   6.672  11.334  0.7454  0.9514 -0.5494
    6MOL0     H  797   4.264   6.787  11.232 -1.5713 -2.5575 -0.8334
    6MOL0     H  798   4.512   7.062  11.003  0.1851 -0.8930  1.0166
    6MOL0     H  799   4.688   7.234  10.927  0.1890 -1.1921  0.6092
    6MOL0     H  800   5.042   7.319  11.184 -1.9914 -2.7928  0.6019
    6MOL0     H  801   5.072   7.228  11.028  0.1806  1.8540 -5.1812
    6MOL0     H  802   5.056   7.532  11.004  0.1090 -0.3876 -0.3022
    6MOL0     H  803   5.125   7.418  10.900 -0.4680 -0.0680 -1.0368
    6MOL0     H  804   5.301   7.362  11.085  1.8464  1.9399  0.6830
    6MOL0     H  805   5.216   7.486  11.171 -2.6973 -1.8426  0.3430
    6MOL0     H  806   5.412   7.590  11.064  0.6436 -5.6897  2.2695
    6MOL0     H  807   5.276   7.651  10.979 -1.0198 -0.5928  2.7422
    6MOL0     H  808   5.435   7.417  10.663  1.5840  0.3770 -0.7153
    6MOL0     H  809   4.907   7.176  11.279  0.4022  3.0234 -1.5012
    6MOL0     H  810   4.750   7.006  11.348  0.0797  1.2975  0.5340
    7MOL0     O  811   9.576   5.376   5.759  0.0219 -0.3569 -0.0326
    7MOL0     C  812   9.470   5.310   5.760  0.3271  0.3939 -0.5180
    7MOL0     O  813   9.431   5.228   5.658  0.6148 -0.0738  0.2921
    7MOL0     C  814   9.510   5.228   5.553 -0.0000 -0.4006  0.5396
    7MOL0     C  815   9.512   5.326   5.454 -0.0755  0.3029  0.1794
    7MOL0     C  816   9.600   5.316   5.344 -0.1017 -0.6524 -0.0494
    7MOL0     C  817   9.694   5.215   5.339 -0.1831 -1.3147 -0.3268
    7MOL0     O  818   9.803   5.218   5.255  0.5647  0.3512  0.4162
    7MOL0     C  819   9.781   5.186   5.111  1.2203  0.3548 -0.6375
    7MOL0     C  820   9.901   5.128   5.052 -0.5312 -0.5987 -0.2571
    7MOL0     C  821   9.948   4.983   5.094 -0.2308 -0.0645 -0.5001
    7MOL0     C  822   9.864   4.864   5.033  1.1581 -0.3173  0.9568
    7MOL0     C  823   9.899   4.733   5.093 -0.2594 -0.2940 -0.3458
    7MOL0     C  824  10.039   4.684   5.050  0.1172  1.0438  0.2460
    7MOL0     C  825  10.069   4.536   5.096 -0.4786 -0.0072 -0.7195
    7MOL0     C  826  10.146   4.536   5.231 -0.4334 -0.0268 -0.6182
    7MOL0     N  827  10.280   4.589   5.216  0.7068  0.0213  0.2933
    7MOL0     C  828  10.318   4.707   5.255 -0.3917 -0.0797  0.6723
    7MOL0     C  829  10.455   4.709   5.239 -0.5848 -0.0001  0.2223
    7MOL0     C  830  10.534   4.820   5.303 -0.0398 -0.2156  0.0833
    7MOL0     C  831  10.527   4.803   5.454 -0.2156  0.1382  0.4284
    7MOL0     C  832  10.606   4.692   5.521 -0.5066 -1.3872 -0.0583
    7MOL0     C  833  10.605   4.700   5.667 -0.5601 -0.1077 -0.3264
    7MOL0     O  834  10.490   4.642   5.726 -0.3137 -0.4681 -0.0163
    7MOL0     C  835  10.460   4.679   5.853  0.3747  0.7916 -0.2547
    7MOL0     C  836  10.554   4.637   5.944 -0.3591 -1.0402  0.5483
    7MOL0     C  837  10.528   4.651   6.086 -0.8244 -0.3668 -0.6035
    7MOL0     C  838  10.633   4.592   6.172  0.2905 -0.1390  0.7419
    7MOL0     C  839  10.402   4.695   6.125  0.0795  0.4602  0.7553
    7MOL0     C  840  10.354   4.715   6.265  1.0825  1.0401  0.0541
    7MOL0     O  841  10.450   4.727   6.371 -0.1818  0.2504 -0.8387
    7MOL0     C  842  10.397   4.706   6.491 -0.7938  0.4445 -0.8994
    7MOL0     C  843  10.383   4.818   6.586  0.8109  1.2093 -0.6625
    7MOL0     C  844  10.313   4.791   6.707  0.3388  0.5636 -0.0980
    7MOL0     C  845  10.274   4.654   6.739 -0.1842 -0.6379  0.4324
    7MOL0     O  846  10.217   4.644   6.864  0.4519 -0.1801 -0.6328
    7MOL0     C  847  10.169   4.516   6.914 -1.0437 -0.0266  1.0434
    7MOL0     C  848  10.109   4.520   7.053 -0.7527  0.5851  0.1460
    7MOL0     C  849  10.073   4.659   7.093  0.9215  0.0422  0.4330
    7MOL0     C  850   9.984   4.643   7.223  0.2353  0.3238 -0.4244
    7MOL0     C  851   9.911   4.764   7.278  1.1192 -0.7740  0.0674
    7MOL0     C  852   9.875   4.749   7.421  0.0451 -0.0591 -0.0135
    7MOL0     C  853   9.793   4.861   7.491  1.6797  0.6496  0.7937
    7MOL0     C  854   9.843   4.998   7.473 -1.1783 -0.9173 -0.1485
    7MOL0    Cl  855  10.021   5.025   7.504  0.0988 -0.4706  0.0736
    7MOL0     C  856  10.286   4.552   6.643  0.2506 -0.0731 -0.9936
    7MOL0     C  857  10.350   4.577   6.523  0.5769 -0.8819 -0.0119
    7MOL0     O  858  10.234   4.726   6.279  0.3171  0.6249 -0.2195
    7MOL0     C  859  10.308   4.738   6.023 -0.7208  0.0236 -0.5372
    7MOL0     C  860  10.340   4.731   5.888 -0.8528  0.1666  0.2693
    7MOL0     N  861  10.496   4.591   5.188  0.2123 -0.5772 -0.0828
    7MOL0     N  862  10.386   4.520   5.172  0.5140  0.5746 -0.2219
    7MOL0     C  863   9.678   5.115   5.443 -0.2726 -0.9061  0.0318
    7MOL0     C  864   9.588   5.121   5.548  0.2061  0.0828 -0.5328
    7MOL0     C  865   9.365   5.332   5.871  0.4615 -0.6679 -0.2221
    7MOL0     C  866   9.381   5.440   5.970 -0.0241  0.9733  0.8501
    7MOL0     C  867   9.289   5.443   6.074 -0.3022  0.6863  0.2471
    7MOL0     C  868   9.186   5.347   6.098 -0.0944  0.4499  0.4138
    7MOL0     O  869   9.108   5.347   6.213  0.1623 -0.2946 -0.8347
    7MOL0     C  870   9.162   5.387   6.344  0.1445  0.4055 -0.4056
    7MOL0     C  871   9.067   5.428   6.453 -0.2730  0.0090 -0.4032
    7MOL0     C  872   9.137   5.434   6.589  0.2591 -0.4914 -0.2766
    7MOL0     C  873   9.037   5.423   6.706  0.2203  0.0325 -0.2887
    7MOL0     C  874   8.986   5.288   6.748 -0.2550  0.4670 -1.0289
    7MOL0     C  875   8.955   5.177   6.778  0.7292  0.1152  0.1332
    7MOL0     C  876   9.171   5.256   5.998 -1.0082  1.1480  0.3854
    7MOL0     C  877   9.252   5.244   5.883  0.0020  0.5160  0.7232
    7MOL0     H  878   9.445   5.411   5.453  0.7911  1.0561  1.9414
    7MOL0     H  879   9.606   5.392   5.267  0.7929  0.9066  1.4679
    7MOL0     H  880   9.689   5.130   5.094  0.4877  1.3431  0.0133
    7MOL0     H  881   9.771   5.282   5.059  2.1565  0.8528  0.0632
    7MOL0     H  882   9.886   5.133   4.944 -1.1920  0.4913 -0.1282
    7MOL0     H  883   9.979   5.201   5.074 -1.1471 -0.3356  1.1792
    7MOL0     H  884  10.053   4.977   5.066  0.2991  3.6722  0.1532
    7MOL0     H  885   9.941   4.994   5.203  0.1424  0.9985 -0.5755
    7MOL0     H  886   9.761   4.896   5.052  1.2722  0.1733  0.7605
    7MOL0     H  887   9.880   4.857   4.925 -1.0955  1.6983  0.4042
    7MOL0     H  888   9.891   4.752   5.200  0.6737 -3.2851  0.3344
    7MOL0     H  889   9.826   4.654   5.075  0.0301 -0.7822  0.5939
    7MOL0     H  890  10.063   4.692   4.944  1.7220  0.8192  0.5641
    7MOL0     H  891  10.113   4.751   5.096  0.0442  2.1282 -1.1702
    7MOL0     H  892   9.976   4.479   5.102 -0.4961 -0.0474 -1.2647
    7MOL0     H  893  10.136   4.482   5.027 -0.0342 -1.0273  0.4848
    7MOL0     H  894  10.166   4.434   5.264  0.8074  0.4215  0.0822
    7MOL0     H  895  10.085   4.577   5.312 -0.7606 -0.1971 -0.7778
    7MOL0     H  896  10.255   4.782   5.301  0.7211  0.8785  0.6809
    7MOL0     H  897  10.638   4.825   5.269 -0.5251  3.4245 -1.3352
    7MOL0     H  898  10.489   4.917   5.281 -0.5712  0.0663  2.2294
    7MOL0     H  899  10.421   4.794   5.480 -0.5133  1.7211 -0.1418
    7MOL0     H  900  10.563   4.897   5.498 -1.3046 -0.0376  1.7807
    7MOL0     H  901  10.710   4.706   5.490 -1.0640  1.6117 -0.8915
    7MOL0     H  902  10.574   4.596   5.478 -3.2620 -0.1580 -0.9354
    7MOL0     H  903  10.614   4.803   5.704 -2.3127  0.3315 -1.0392
    7MOL0     H  904  10.693   4.638   5.689 -1.2418 -2.1108 -2.7815
    7MOL0     H  905  10.642   4.586   5.906  0.3599 -0.5040  1.4559
    7MOL0     H  906  10.711   4.529   6.129  0.1738  0.1284  0.1231
    7MOL0     H  907  10.693   4.671   6.218  2.0550 -0.6931 -0.5122
    7MOL0     H  908  10.584   4.530   6.248 -2.4646 -0.2418 -0.9632
    7MOL0     H  909  10.425   4.917   6.569 -1.6921  2.6926  1.1088
    7MOL0     H  910  10.304   4.854   6.795 -3.1891  1.8443 -1.1963
    7MOL0     H  911  10.089   4.492   6.844  0.4872 -1.3381 -0.3380
    7MOL0     H  912  10.253   4.446   6.908 -0.9967  0.0891  0.2031
    7MOL0     H  913  10.022   4.453   7.057  0.0444 -0.4855  0.1279
    7MOL0     H  914  10.176   4.483   7.132 -0.9680  0.0514  0.0842
    7MOL0     H  915  10.014   4.715   7.020 -0.7462  0.1119  1.7358
    7MOL0     H  916  10.158   4.725   7.107 -0.5118  2.4850 -1.6003
    7MOL0     H  917   9.910   4.565   7.203  0.8437 -0.5275  0.5711
    7MOL0     H  918  10.040   4.584   7.296 -1.9081  2.2120  3.0175
    7MOL0     H  919   9.815   4.787   7.231  0.3840 -1.6817  1.0904
    7MOL0     H  920   9.980   4.847   7.263  1.5643 -1.4225 -1.6179
    7MOL0     H  921   9.811   4.661   7.434  0.0061  0.3297  3.4869
    7MOL0     H  922   9.973   4.736   7.468 -0.1955 -1.9226  0.0571
    7MOL0     H  923   9.795   4.843   7.599 -1.1227 -2.5729  0.4735
    7MOL0     H  924   9.691   4.854   7.453  2.9414 -1.2071 -2.7259
    7MOL0     H  925   9.781   5.059   7.539  2.5230  2.4941  0.5806
    7MOL0     H  926   9.834   5.036   7.371 -1.7969  0.3730  0.3609
    7MOL0     H  927  10.265   4.446   6.653  2.2972 -0.4281 -0.0451
    7MOL0     H  928  10.387   4.498   6.459 -0.6460 -0.4488 -1.2973
    7MOL0     H  929  10.207   4.772   6.044 -0.6722 -0.3900  0.4050
    7MOL0     H  930  10.263   4.762   5.818 -0.3090  2.1107  0.4862
    7MOL0     H  931   9.754   5.038   5.438  0.8861  0.0709 -6.6695
    7MOL0     H  932   9.585   5.038   5.617 -0.4827 -0.1152 -0.7870
    7MOL0     H  933   9.448   5.524   5.954  0.4792  0.2706 -0.9483
    7MOL0     H  934   9.284   5.531   6.136  0.5250 -1.0105  2.9072
    7MOL0     H  935   9.185   5.288   6.386  3.4363  1.8293  1.5636
    7MOL0     H  936   9.255   5.444   6.342 -0.1171  0.8167 -1.1559
    7MOL0     H  937   9.002   5.341   6.464 -1.3558  0.6062 -1.8254
    7MOL0     H  938   9.003   5.514   6.429  1.6877  1.0143 -2.4097
    7MOL0     H  939   9.178   5.534   6.606 -1.6927  0.2861  0.1970
    7MOL0     H  940   9.225   5.370   6.594  2.1125  1.9325 -0.0195
    7MOL0     H  941   8.942   5.469   6.678 -0.5951 -0.0173  2.1396
    7MOL0     H  942   9.078   5.488   6.785  1.6059 -0.3856 -0.6254
    7MOL0     H  943   8.922   5.076   6.794 -1.9923  0.5333 -2.0726
    7MOL0     H  944   9.082   5.193   6.004 -0.2332 -0.6419 -3.6200
    7MOL0     H  945   9.230   5.179   5.799 -1.6875  2.6017 -0.5701
    8MOL0     O  946   2.788  10.137  10.948 -0.2320 -0.2884 -0.4292
    8MOL0     C  947   2.713  10.059  10.894 -0.3851  0.9026 -0.1128
    8MOL0     O  948   2.614  10.093  10.808 -0.2712 -0.2004 -1.0983
    8MOL0     C  949   2.597  10.222  10.762 -1.0269  0.6189 -0.3754
    8MOL0     C  950   2.674  10.340  10.790 -0.5193 -0.8531  0.9026
    8MOL0     C  951   2.630  10.465  10.744 -0.4240 -0.0018  0.0594
    8MOL0     C  952   2.517  10.483  10.657 -0.7482  0.1146 -0.4133
    8MOL0     O  953   2.475  10.602  10.601  0.0265 -0.4775 -0.0690
    8MOL0     C  954   2.336  10.624  10.578 -0.8368 -0.2629  0.0291
    8MOL0     C  955   2.300  10.778  10.575  0.1316 -0.4558  0.6982
    8MOL0     C  956   2.147  10.791  10.563  0.4716 -0.4666 -0.6446
    8MOL0     C  957   2.111  10.811  10.412 -0.5643  0.2460 -0.1261
    8MOL0     C  958   1.970  10.746  10.385  1.0071 -0.5959 -0.5823
    8MOL0     C  959   1.936  10.741  10.232  0.1714  1.2429  0.4433
    8MOL0     C  960   1.785  10.733  10.226  0.4198 -0.5135  0.4494
    8MOL0     C  961   1.725  10.836  10.126  0.9583 -0.9984 -0.3342
    8MOL0     N  962   1.707  10.971  10.181  0.1052 -0.3541 -0.3258
    8MOL0     C  963   1.599  10.997  10.261  0.3286  0.6297 -0.5028
    8MOL0     C  964   1.621  11.127  10.294  0.1572 -0.5982  0.9578
    8MOL0     C  965   1.518  11.207  10.374  0.5362 -1.0740 -0.4196
    8MOL0     C  966   1.401  11.265  10.285 -0.1432 -0.3581  0.2050
    8MOL0     C  967   1.310  11.153  10.231  1.0735 -0.4508 -0.2719
    8MOL0     C  968   1.170  11.195  10.188 -0.5703 -0.3950 -0.8405
    8MOL0     O  969   1.092  11.236  10.307  0.8910  0.1700 -0.7705
    8MOL0     C  970   0.980  11.307  10.277  0.9196 -0.4267  0.5653
    8MOL0     C  971   0.967  11.439  10.313  0.3439 -0.1547  0.7600
    8MOL0     C  972   0.850  11.518  10.283 -0.8079  0.3418 -0.3403
    8MOL0     C  973   0.849  11.667  10.311  0.2643  0.5678 -0.3000
    8MOL0     C  974   0.747  11.451  10.223  0.6810 -0.6678  0.0330
    8MOL0     C  975   0.621  11.525  10.185  0.4691 -0.5404  0.2383
    8MOL0     O  976   0.576  11.626  10.265  0.2476  0.6989  0.2555
    8MOL0     C  977   0.463  11.685  10.203  0.2928  0.3387 -0.3353
    8MOL0     C  978   0.491  11.805  10.134  0.1137 -0.9271  0.1777
    8MOL0     C  979   0.396  11.879  10.077  0.6975 -0.4930 -0.4193
    8MOL0     C  980   0.264  11.831  10.069  0.0288 -0.1489  0.1481
    8MOL0     O  981   0.174  11.902   9.994 -0.1860 -1.1989 -0.0164
    8MOL0     C  982   0.148  11.839   9.867 -0.4615  0.1598 -0.6940
    8MOL0     C  983   0.059  11.942   9.785 -0.7481 -0.2547 -0.3252
    8MOL0     C  984  -0.009  11.887   9.652 -0.4254  0.2599  0.6109
    8MOL0     C  985  -0.063  11.741   9.677 -0.1018 -0.1791 -0.1809
    8MOL0     C  986  -0.169  11.688   9.577 -0.3682 -0.3638 -1.2289
    8MOL0     C  987  -0.299  11.768   9.585  0.0855 -0.0118  0.2710
    8MOL0     C  988  -0.396  11.718   9.483  0.3921  0.0856 -0.1798
    8MOL0     C  989  -0.540  11.742   9.541  0.5629 -0.8832  1.6142
    8MOL0    Cl  990  -0.646  11.656   9.425 -0.3997 -0.1126 -0.4184
    8MOL0     C  991   0.234  11.710  10.135 -0.6551  0.2384  0.1561
    8MOL0     C  992   0.335  11.638  10.206  0.5783  0.1977  0.7704
    8MOL0     O  993   0.572  11.485  10.078  0.5764  0.5179 -0.4757
    8MOL0     C  994   0.754  11.315  10.193  0.3422 -0.2873  0.8243
    8MOL0     C  995   0.867  11.246  10.221  0.1577 -0.3698 -0.2142
    8MOL0     N  996   1.739  11.172  10.233  0.3314  0.6849  0.0056
    8MOL0     N  997   1.783  11.080  10.164  0.7312 -0.2040 -0.1504
    8MOL0     C  998   2.436  10.367  10.634  0.0553 -0.0249  0.7932
    8MOL0     C  999   2.485  10.240  10.682  0.9575 -0.7305  0.4295
    8MOL0     C 1000   2.723   9.911  10.920  0.6687 -0.3285 -0.1292
    8MOL0     C 1001   2.645   9.819  10.836  0.3017 -0.0980 -0.3048
    8MOL0     C 1002   2.637   9.687  10.880  0.1694  0.4038 -0.6961
    8MOL0     C 1003   2.730   9.646  10.973 -0.6010  0.2648 -0.1955
    8MOL0     O 1004   2.717   9.523  11.040  0.6275 -0.4009  0.1572
    8MOL0     C 1005   2.832   9.443  11.050 -0.4729  0.0646  0.3781
    8MOL0     C 1006   2.819   9.292  11.036 -0.0105  0.3735 -0.9627
    8MOL0     C 1007   2.913   9.212  11.131  0.6612 -1.1690 -0.0830
    8MOL0     C 1008   2.914   9.062  11.108  0.1086 -0.0629  0.4511
    8MOL0     C 1009   3.026   8.995  11.170 -1.0102 -0.4074 -0.4171
    8MOL0     C 1010   3.116   8.933  11.223  1.0563  0.1687 -0.2901
    8MOL0     C 1011   2.825   9.726  11.036  0.8373  0.8226  0.1672
    8MOL0     C 1012   2.817   9.860  11.021  0.6229 -0.6259  0.3169
    8MOL0     H 1013   2.758  10.330  10.859 -0.7894 -1.8365  1.1124
    8MOL0     H 1014   2.690  10.551  10.772 -0.5281  0.8838 -2.2357
    8MOL0     H 1015   2.310  10.574  10.484  2.3092 -2.1251  0.0384
    8MOL0     H 1016   2.272  10.580  10.655 -3.3385  1.4739 -0.9297
    8MOL0     H 1017   2.339  10.830  10.663  0.1188 -0.0691  0.4727
    8MOL0     H 1018   2.349  10.827  10.491  0.8947  1.0002  1.9386
    8MOL0     H 1019   2.105  10.698  10.602 -0.9379  0.8198  1.0206
    8MOL0     H 1020   2.104  10.869  10.626 -0.1333 -2.2814  1.3123
    8MOL0     H 1021   2.096  10.914  10.378 -1.3520  0.7280  1.5858
    8MOL0     H 1022   2.180  10.759  10.344 -0.1253  2.0264 -1.1084
    8MOL0     H 1023   1.979  10.645  10.426  0.5414 -1.0522 -1.5905
    8MOL0     H 1024   1.906  10.815  10.442  4.5227  4.2677 -1.8285
    8MOL0     H 1025   1.966  10.833  10.181 -3.4113  1.5052 -1.5317
    8MOL0     H 1026   1.986  10.654  10.189  0.0532  1.3412  0.1029
    8MOL0     H 1027   1.755  10.629  10.209  0.0296 -0.5136  1.0867
    8MOL0     H 1028   1.734  10.756  10.320 -0.3655  0.4513 -0.1865
    8MOL0     H 1029   1.626  10.794  10.106 -0.1284  0.1487  2.1745
    8MOL0     H 1030   1.782  10.847  10.033 -0.1758  2.8337 -0.7558
    8MOL0     H 1031   1.522  10.930  10.299  0.3217  0.5674 -0.6247
    8MOL0     H 1032   1.475  11.159  10.463  0.2902  1.6343  1.0196
    8MOL0     H 1033   1.564  11.296  10.418  0.4229 -1.1952 -0.0473
    8MOL0     H 1034   1.440  11.324  10.201 -0.4863  2.3876  1.8636
    8MOL0     H 1035   1.340  11.325  10.354  5.1445  2.8366  2.7346
    8MOL0     H 1036   1.313  11.064  10.293 -2.9645 -1.5734 -1.4224
    8MOL0     H 1037   1.359  11.119  10.139  0.0493 -0.9993 -0.6286
    8MOL0     H 1038   1.129  11.111  10.132 -3.1912 -0.0645  0.3870
    8MOL0     H 1039   1.176  11.286  10.127  0.4247  0.4266  0.4211
    8MOL0     H 1040   1.053  11.484  10.362  0.0414  0.5866  0.6231
    8MOL0     H 1041   0.832  11.732  10.224 -2.6177 -0.2421 -0.4680
    8MOL0     H 1042   0.761  11.697  10.369 -0.0849 -2.1786  0.7028
    8MOL0     H 1043   0.939  11.696  10.366  1.8170 -0.8280 -1.9790
    8MOL0     H 1044   0.597  11.825  10.128  0.0153  0.0672  1.3624
    8MOL0     H 1045   0.433  11.965  10.022 -0.3331  1.2778  1.5367
    8MOL0     H 1046   0.242  11.824   9.812 -0.5611  0.9561 -1.0942
    8MOL0     H 1047   0.090  11.749   9.891  0.4728 -0.2470  0.1476
    8MOL0     H 1048  -0.026  11.964   9.850  0.8591  2.6116  0.9516
    8MOL0     H 1049   0.115  12.035   9.773  0.0975 -0.8901 -1.5433
    8MOL0     H 1050   0.060  11.888   9.566 -2.2471 -2.3334 -1.0375
    8MOL0     H 1051  -0.089  11.952   9.617  1.6933  2.5958 -0.2002
    8MOL0     H 1052   0.014  11.670   9.710  0.0364  0.3406  0.6543
    8MOL0     H 1053  -0.116  11.754   9.772 -1.4592 -1.7071 -0.6989
    8MOL0     H 1054  -0.193  11.592   9.625  1.3388 -0.3598 -0.3008
    8MOL0     H 1055  -0.134  11.671   9.474 -0.2240  1.5889 -1.5281
    8MOL0     H 1056  -0.344  11.763   9.684 -0.3552 -2.6174  0.0209
    8MOL0     H 1057  -0.279  11.871   9.556 -0.9522  0.0383 -0.3078
    8MOL0     H 1058  -0.377  11.611   9.471  0.2710 -0.2334  2.1045
    8MOL0     H 1059  -0.386  11.784   9.396 -2.4592 -0.8718 -1.3386
    8MOL0     H 1060  -0.562  11.849   9.543  2.5442 -0.2097 -2.5117
    8MOL0     H 1061  -0.552  11.702   9.642  1.4842 -1.4741  1.5040
    8MOL0     H 1062   0.132  11.672  10.140  0.1521 -1.8795  1.9722
    8MOL0     H 1063   0.321  11.544  10.259  0.0867  1.1459  2.4226
    8MOL0     H 1064   0.667  11.265  10.152  1.0694 -0.8996 -0.0058
    8MOL0     H 1065   0.876  11.138  10.206  1.8680  0.0527 -2.9167
    8MOL0     H 1066   2.351  10.366  10.566 -0.9708  1.2510  2.0115
    8MOL0     H 1067   2.439  10.147  10.648 -1.8786  0.8813 -0.5397
    8MOL0     H 1068   2.574   9.841  10.757 -1.1066  0.3623  1.0304
    8MOL0     H 1069   2.574   9.608  10.840  2.8478 -2.9212  1.0515
    8MOL0     H 1070   2.914   9.483  10.989  1.8484 -3.6865  0.7332
    8MOL0     H 1071   2.866   9.470  11.150 -0.5190  3.4467 -0.3896
    8MOL0     H 1072   2.838   9.251  10.936  2.0210 -1.3211  0.0233
    8MOL0     H 1073   2.725   9.257  11.081  1.0419 -0.1846  0.9039
    8MOL0     H 1074   2.891   9.253  11.230  0.8422  1.7385 -1.1310
    8MOL0     H 1075   3.013   9.248  11.105 -0.1152  2.2287  1.0596
    8MOL0     H 1076   2.912   9.034  11.003  2.3488  2.9242 -0.5125
    8MOL0     H 1077   2.825   9.029  11.163 -2.4822  1.6470 -2.4003
    8MOL0     H 1078   3.187   8.855  11.244  1.6758  0.5203 -1.0369
    8MOL0     H 1079   2.900   9.691  11.107  0.1249 -3.2907 -0.8856
    8MOL0     H 1080   2.870   9.919  11.095 -1.4845  2.4629 -0.4819
    9MOL0     O 1081   8.715   7.131   2.875  0.9277  0.4271 -0.9323
    9MOL0     C 1082   8.651   7.029   2.892 -0.9028  0.3527  0.0377
    9MOL0     O 1083   8.606   6.943   2.795 -0.4245  0.9835 -0.4627
    9MOL0     C 1084   8.675   6.951   2.673  0.3358 -0.0087  0.2595
    9MOL0     C 1085   8.622   7.032   2.569 -0.6191 -0.1837 -0.5077
    9MOL0     C 1086   8.720   7.066   2.468 -0.2049 -0.3819  0.1860
    9MOL0     C 1087   8.840   6.994   2.448  0.8396  0.6552 -0.6302
    9MOL0     O 1088   8.916   7.026   2.340  0.5236  0.6587 -1.1380
    9MOL0     C 1089   9.052   7.034   2.347 -0.0113 -0.1988 -0.0395
    9MOL0     C 1090   9.106   7.058   2.211  0.8918 -1.1665 -0.8005
    9MOL0     C 1091   9.259   7.077   2.193  0.3887 -0.6111 -0.4352
    9MOL0     C 1092   9.333   6.982   2.286 -0.0469 -0.2374  0.2697
    9MOL0     C 1093   9.334   6.841   2.218  0.2372 -0.0946  0.2260
    9MOL0     C 1094   9.423   6.739   2.292  1.1745  0.1714  0.2305
    9MOL0     C 1095   9.379   6.597   2.255  0.6745  1.0256  0.3119
    9MOL0     C 1096   9.232   6.548   2.278 -0.5165 -0.4157 -0.1956
    9MOL0     N 1097   9.169   6.600   2.402 -0.6429 -0.6691 -0.6354
    9MOL0     C 1098   9.205   6.567   2.525 -0.1976  0.1978 -0.3039
    9MOL0     C 1099   9.099   6.569   2.600 -0.6400 -0.1288  0.9269
    9MOL0     C 1100   9.084   6.542   2.752  0.3889  0.3059 -0.0436
    9MOL0     C 1101   9.046   6.394   2.786  0.1933 -0.1735 -0.2953
    9MOL0     C 1102   8.981   6.368   2.923  0.0785  0.8021 -0.2703
    9MOL0     C 1103   9.052   6.433   3.043 -0.0922  0.2395 -0.6509
    9MOL0     O 1104   8.997   6.564   3.057 -0.0457  0.0271  0.5261
    9MOL0     C 1105   9.036   6.649   3.154 -0.5304  0.0629  0.0031
    9MOL0     C 1106   9.141   6.640   3.247 -0.3312 -0.6342  0.8133
    9MOL0     C 1107   9.165   6.728   3.348  0.2091  0.1497 -0.6032
    9MOL0     C 1108   9.293   6.699   3.431  0.2972  0.0664  0.0343
    9MOL0     C 1109   9.080   6.837   3.366 -0.4830 -0.1366  0.2186
    9MOL0     C 1110   9.073   6.920   3.491 -0.4953  0.0283  0.0091
    9MOL0     O 1111   8.972   7.012   3.479 -0.6380  0.0700  0.0416
    9MOL0     C 1112   8.929   7.076   3.593  0.8987 -0.8464  0.1779
    9MOL0     C 1113   8.937   7.040   3.725 -0.1217  0.2569 -0.0534
    9MOL0     C 1114   8.880   7.120   3.819 -0.1333  0.1161  0.0154
    9MOL0     C 1115   8.814   7.233   3.783  0.2015 -0.2610 -0.1141
    9MOL0     O 1116   8.774   7.317   3.879  0.6525 -1.1141  0.2183
    9MOL0     C 1117   8.690   7.427   3.848 -0.4491 -0.0359 -0.0061
    9MOL0     C 1118   8.654   7.501   3.985  0.9907 -0.4148  0.1368
    9MOL0     C 1119   8.505   7.516   4.003 -0.5347 -0.4425 -0.2013
    9MOL0     C 1120   8.467   7.624   4.112 -0.5922  0.3380 -0.0633
    9MOL0     C 1121   8.308   7.637   4.119 -0.3190  0.0231  1.0596
    9MOL0     C 1122   8.255   7.639   4.262  0.0645  0.5101 -0.5738
    9MOL0     C 1123   8.100   7.680   4.259  0.7902 -0.5716 -0.3824
    9MOL0     C 1124   8.036   7.669   4.400 -0.1404  0.0165 -0.5517
    9MOL0    Cl 1125   7.877   7.750   4.385  0.2000 -0.3625  0.1369
    9MOL0     C 1126   8.810   7.276   3.644 -0.5410 -0.3371 -0.4066
    9MOL0     C 1127   8.867   7.196   3.554  0.3369  0.6714  0.5226
    9MOL0     O 1128   9.138   6.898   3.590 -0.3121 -0.1555 -0.2410
    9MOL0     C 1129   8.979   6.854   3.268 -0.9631  0.8538 -0.4929
    9MOL0     C 1130   8.961   6.763   3.165 -0.1016 -0.5203  1.0774
    9MOL0     N 1131   8.997   6.606   2.522  0.4086 -0.8382 -0.3104
    9MOL0     N 1132   9.038   6.643   2.408  0.0615  0.2529 -0.6374
    9MOL0     C 1133   8.883   6.907   2.549  0.3349  0.0112 -0.4278
    9MOL0     C 1134   8.799   6.885   2.664 -0.1573  0.2316 -0.0146
    9MOL0     C 1135   8.628   7.002   3.040  0.6036 -0.3994  0.1656
    9MOL0     C 1136   8.661   7.084   3.145  0.5125 -0.9007  0.6673
    9MOL0     C 1137   8.636   7.059   3.284 -0.1534 -0.0497  0.6505
    9MOL0     C 1138   8.586   6.930   3.315 -0.4725 -1.0437  0.1720
    9MOL0     O 1139   8.570   6.904   3.452 -0.4535 -0.3823  0.2304
    9MOL0     C 1140   8.536   6.770   3.501  0.2107  0.8070  0.3170
    9MOL0     C 1141   8.576   6.743   3.646 -0.8634  0.2068  0.0545
    9MOL0     C 1142   8.726   6.746   3.662  0.3093  0.1417  0.5923
    9MOL0     C 1143   8.774   6.742   3.807 -0.9848  0.0485 -0.1946
    9MOL0     C 1144   8.723   6.633   3.885  0.0340  0.9208  0.0523
    9MOL0     C 1145   8.666   6.540   3.935 -0.5229  0.4946 -0.2730
    9MOL0     C 1146   8.559   6.833   3.207  0.5822 -0.6724 -0.3390
    9MOL0     C 1147   8.577   6.883   3.081  0.4401 -0.3066 -0.3555
    9MOL0     H 1148   8.528   7.085   2.577 -1.8582 -2.3034 -0.0731
    9MOL0     H 1149   8.688   7.143   2.398  1.1425  1.7468  1.7987
    9MOL0     H 1150   9.074   7.119   2.412 -1.4020  0.8131 -0.8524
    9MOL0     H 1151   9.091   6.940   2.388  3.3182  1.2679  0.4884
    9MOL0     H 1152   9.076   6.960   2.171 -0.9153 -0.7843 -0.4736
    9MOL0     H 1153   9.046   7.136   2.163 -1.3056 -2.5375 -0.4049
    9MOL0     H 1154   9.274   7.054   2.087 -0.3687 -2.9094 -0.0849
    9MOL0     H 1155   9.286   7.183   2.203 -0.6210 -0.1882 -1.7754
    9MOL0     H 1156   9.435   7.019   2.278 -0.5967  0.9398 -2.4022
    9MOL0     H 1157   9.305   6.977   2.392  4.8049  1.0885  1.8612
    9MOL0     H 1158   9.230   6.811   2.205 -0.3843  1.8495  0.4349
    9MOL0     H 1159   9.379   6.846   2.118  1.1216 -1.7661  0.5075
    9MOL0     H 1160   9.530   6.751   2.272  1.3469 -2.1361 -0.4646
    9MOL0     H 1161   9.420   6.749   2.401  4.6542  0.8121  0.3785
    9MOL0     H 1162   9.398   6.584   2.148  3.4201 -3.1374  1.0470
    9MOL0     H 1163   9.445   6.530   2.311 -0.3716 -1.4807 -1.2501
    9MOL0     H 1164   9.227   6.439   2.274 -0.9351 -0.4039 -0.0145
    9MOL0     H 1165   9.180   6.595   2.194  2.5529  2.4548 -0.7173
    9MOL0     H 1166   9.309   6.564   2.555  0.6290  1.2306 -2.8183
    9MOL0     H 1167   9.171   6.584   2.804  0.6434  1.3638 -1.2629
    9MOL0     H 1168   8.993   6.590   2.790  1.3435  2.7774 -0.6660
    9MOL0     H 1169   9.140   6.339   2.800  0.2220 -0.3315 -1.0858
    9MOL0     H 1170   8.985   6.353   2.705  0.6208 -1.7287  0.1316
    9MOL0     H 1171   8.974   6.261   2.941 -1.2532  0.7073 -1.1796
    9MOL0     H 1172   8.879   6.405   2.909  0.2247  1.5270  0.5044
    9MOL0     H 1173   9.160   6.414   3.035 -0.3311 -0.9593 -1.1979
    9MOL0     H 1174   9.040   6.378   3.137  1.7480  3.1531  1.4712
    9MOL0     H 1175   9.199   6.548   3.239  3.3541  1.3798  1.7134
    9MOL0     H 1176   9.275   6.621   3.506 -2.0903  0.8353  0.3413
    9MOL0     H 1177   9.375   6.665   3.367  0.9726 -1.5984  1.6926
    9MOL0     H 1178   9.326   6.787   3.487 -0.3406  0.4855 -0.2330
    9MOL0     H 1179   8.959   6.938   3.751  0.3664  0.3814  0.0202
    9MOL0     H 1180   8.887   7.080   3.919  1.9766 -0.8847 -0.4666
    9MOL0     H 1181   8.737   7.500   3.782 -0.1195 -0.8040 -0.6359
    9MOL0     H 1182   8.599   7.389   3.800  0.5228 -3.7365  0.7432
    9MOL0     H 1183   8.696   7.453   4.074  1.1312  0.3119  0.4693
    9MOL0     H 1184   8.702   7.599   3.985  2.0128 -0.8023 -3.2169
    9MOL0     H 1185   8.452   7.422   4.018 -0.5341 -0.1316  2.0303
    9MOL0     H 1186   8.460   7.559   3.913 -0.0251 -1.6999 -1.0865
    9MOL0     H 1187   8.519   7.589   4.201  2.0963  3.0181 -0.4074
    9MOL0     H 1188   8.504   7.727   4.100 -1.4266  0.7179  0.5233
    9MOL0     H 1189   8.255   7.553   4.073  1.0385 -0.4672  0.3395
    9MOL0     H 1190   8.267   7.720   4.061 -0.6254 -0.1824  0.9781
    9MOL0     H 1191   8.283   7.539   4.296  2.1182  0.7828 -1.3138
    9MOL0     H 1192   8.316   7.713   4.314 -0.1574  0.8029 -0.7276
    9MOL0     H 1193   8.037   7.624   4.189 -0.9050  1.1064 -0.2837
    9MOL0     H 1194   8.104   7.786   4.232  4.9541 -0.5810 -0.4591
    9MOL0     H 1195   8.108   7.703   4.475  0.2590 -1.5393 -0.1922
    9MOL0     H 1196   8.018   7.566   4.430  2.6503 -0.4241 -0.1468
    9MOL0     H 1197   8.776   7.370   3.601  1.6211 -0.2156 -2.0084
    9MOL0     H 1198   8.865   7.225   3.449 -0.7211 -0.8767  0.0742
    9MOL0     H 1199   8.892   6.917   3.284 -1.0308  0.5046  0.5713
    9MOL0     H 1200   8.879   6.763   3.094  0.4104 -1.2479  0.4757
    9MOL0     H 1201   8.977   6.853   2.553  1.7926  2.1095 -2.9173
    9MOL0     H 1202   8.844   6.828   2.744 -0.0426  0.2871 -0.0391
    9MOL0     H 1203   8.688   7.188   3.127  1.1921 -1.3465 -1.1344
    9MOL0     H 1204   8.663   7.124   3.366  1.0625  1.7787 -1.1028
    9MOL0     H 1205   8.427   6.757   3.497  0.3972 -1.5852  1.3975
    9MOL0     H 1206   8.579   6.696   3.434  0.1350 -0.8184  2.0008
    9MOL0     H 1207   8.533   6.647   3.677 -1.6385  0.6779  0.4864
    9MOL0     H 1208   8.518   6.811   3.708 -0.9685  2.7835 -2.6413
    9MOL0     H 1209   8.772   6.841   3.635  1.2841 -1.1995 -3.1272
    9MOL0     H 1210   8.770   6.666   3.601  1.5082 -0.5191  2.2323
    9MOL0     H 1211   8.749   6.834   3.861  0.1778 -0.3645  1.0932
    9MOL0     H 1212   8.882   6.730   3.801 -1.0904 -0.3453 -2.0281
    9MOL0     H 1213   8.601   6.463   3.972 -0.1486 -0.1477 -0.9140
    9MOL0     H 1214   8.521   6.733   3.221  2.5268 -1.2650  1.0709
    9MOL0     H 1215   8.543   6.819   3.000  0.4485  1.6455 -1.9604
   10MOL0     O 1216   6.307   3.518  10.047 -0.1872  0.6837  0.1075
   10MOL0     C 1217   6.381   3.590  10.118 -0.6609 -0.9515  0.8598
   10MOL0     O 1218   6.394   3.581  10.257  0.2760  0.4181 -0.2348
   10MOL0     C 1219   6.346   3.469  10.321  1.0671 -0.0589  0.8617
   10MOL0     C 1220   6.214   3.435  10.330  0.7412  0.1082 -0.2343
   10MOL0     C 1221   6.165   3.320  10.389 -0.0807 -0.5260  0.7774
   10MOL0     C 1222   6.260   3.241  10.453  0.9101  0.3544  0.0290
   10MOL0     O 1223   6.225   3.125  10.519  0.0023 -0.7388  0.5933
   10MOL0     C 1224   6.319   3.039  10.586 -0.3907 -0.2525  0.1502
   10MOL0     C 1225   6.246   2.924  10.646  0.2902  1.5217  0.6013
   10MOL0     C 1226   6.343   2.815  10.689 -0.9080  0.2497 -0.9870
   10MOL0     C 1227   6.382   2.835  10.834 -0.1294  1.0040  0.4902
   10MOL0     C 1228   6.505   2.745  10.869  0.0774  0.8636 -0.3140
   10MOL0     C 1229   6.507   2.713  11.011  0.1962  0.2096  0.0495
   10MOL0     C 1230   6.550   2.834  11.098 -0.3579 -0.0613  0.1619
   10MOL0     C 1231   6.637   2.782  11.203 -0.0055 -0.0339  0.2830
   10MOL0     N 1232   6.567   2.713  11.305 -0.5909  0.2571 -0.5132
   10MOL0     C 1233   6.607   2.586  11.349 -0.2746 -0.5195  0.4815
   10MOL0     C 1234   6.542   2.551  11.460 -0.1660 -0.5758  0.4824
   10MOL0     C 1235   6.554   2.435  11.555 -1.0641  0.2438 -0.7735
   10MOL0     C 1236   6.532   2.471  11.707 -0.3450 -0.4484 -0.1732
   10MOL0     C 1237   6.656   2.544  11.775 -1.1295  0.2105 -0.4582
   10MOL0     C 1238   6.638   2.698  11.775  0.3854 -0.4212  0.0859
   10MOL0     O 1239   6.531   2.729  11.866 -0.7473 -0.3755 -0.6571
   10MOL0     C 1240   6.531   2.857  11.924 -0.8172  0.2542 -1.3233
   10MOL0     C 1241   6.448   2.879  12.026 -0.0966 -0.0195 -0.5656
   10MOL0     C 1242   6.424   3.010  12.076  0.1777 -0.0883 -0.0107
   10MOL0     C 1243   6.315   3.014  12.173 -0.5183  0.2935 -0.3782
   10MOL0     C 1244   6.494   3.122  12.023 -0.3943  0.8973  0.3735
   10MOL0     C 1245   6.465   3.263  12.065  0.9956 -1.0976 -0.2864
   10MOL0     O 1246   6.406   3.279  12.187 -0.7418 -0.6758  0.2942
   10MOL0     C 1247   6.346   3.398  12.218 -0.0762 -0.5265  0.0604
   10MOL0     C 1248   6.273   3.490  12.144  0.1739  0.3797 -0.2235
   10MOL0     C 1249   6.221   3.609  12.204  0.1528 -0.0786  0.5423
   10MOL0     C 1250   6.254   3.645  12.329  1.0991  0.7101 -0.4162
   10MOL0     O 1251   6.218   3.776  12.356 -0.6461  0.5673 -0.4873
   10MOL0     C 1252   6.320   3.848  12.435 -0.6204 -0.4526 -0.6560
   10MOL0     C 1253   6.420   3.903  12.331  0.2242  0.3270 -0.4010
   10MOL0     C 1254   6.487   4.040  12.364  0.0562  0.5546 -0.4816
   10MOL0     C 1255   6.531   4.048  12.505 -0.1069  0.3534  0.1182
   10MOL0     C 1256   6.605   4.189  12.514  0.3791  0.5993  0.0296
   10MOL0     C 1257   6.529   4.316  12.478 -0.6244  0.1353  0.9947
   10MOL0     C 1258   6.625   4.429  12.507  0.6315  0.2578 -0.1685
   10MOL0     C 1259   6.572   4.563  12.459  0.3076  0.4518  0.3855
   10MOL0    Cl 1260   6.533   4.570  12.291 -0.0159 -0.5093 -0.0913
   10MOL0     C 1261   6.328   3.554  12.412 -0.3034 -0.2598 -0.4600
   10MOL0     C 1262   6.366   3.438  12.356  0.1121  0.1786  0.3982
   10MOL0     O 1263   6.492   3.359  11.993  1.0030  0.9181  0.5862
   10MOL0     C 1264   6.592   3.099  11.919 -0.1897  0.4295  0.6800
   10MOL0     C 1265   6.601   2.963  11.866  0.4308  0.0745  0.7988
   10MOL0     N 1266   6.466   2.668  11.491 -0.1289 -0.0297  0.4774
   10MOL0     N 1267   6.474   2.749  11.396  0.3448 -0.1865 -0.0028
   10MOL0     C 1268   6.392   3.279  10.445 -0.8095 -0.0917 -0.2095
   10MOL0     C 1269   6.433   3.393  10.383 -0.0199 -0.1290 -0.4849
   10MOL0     C 1270   6.440   3.706  10.056 -0.2355 -0.8896  0.2512
   10MOL0     C 1271   6.418   3.733   9.919 -0.1852 -0.4975 -0.1815
   10MOL0     C 1272   6.473   3.855   9.867  0.1007 -0.0417 -0.9171
   10MOL0     C 1273   6.555   3.934   9.951  0.0895 -0.2711  0.4939
   10MOL0     O 1274   6.609   4.052   9.905  0.8605 -0.4263 -0.0571
   10MOL0     C 1275   6.749   4.084   9.910 -0.6815  0.9895  0.5856
   10MOL0     C 1276   6.778   4.234   9.933 -0.6768 -0.3594 -0.7346
   10MOL0     C 1277   6.717   4.297  10.060 -0.2666  0.4517  0.5346
   10MOL0     C 1278   6.824   4.326  10.161  0.1130 -0.7728 -0.6212
   10MOL0     C 1279   6.850   4.216  10.254 -0.0512 -0.0490 -0.2803
   10MOL0     C 1280   6.870   4.110  10.322 -0.4898 -0.1321  0.2352
   10MOL0     C 1281   6.557   3.914  10.091  0.4998 -1.1671  0.3343
   10MOL0     C 1282   6.504   3.802  10.142  0.4558  1.6406  0.8664
   10MOL0     H 1283   6.139   3.501  10.287 -2.6031 -0.5988  3.8146
   10MOL0     H 1284   6.065   3.278  10.384 -0.5269  0.6393 -0.6554
   10MOL0     H 1285   6.384   3.008  10.505  1.6907 -0.4618  1.8125
   10MOL0     H 1286   6.368   3.106  10.658  1.5175  0.9079 -2.1114
   10MOL0     H 1287   6.191   2.961  10.733 -1.2335  0.3309  0.1740
   10MOL0     H 1288   6.174   2.891  10.571  1.6827 -3.9974  1.2185
   10MOL0     H 1289   6.306   2.713  10.674  3.7297 -1.9085  0.3451
   10MOL0     H 1290   6.432   2.809  10.626 -0.3738 -2.0676 -0.1137
   10MOL0     H 1291   6.410   2.941  10.845  0.1447  1.1502 -1.2600
   10MOL0     H 1292   6.295   2.825  10.898 -1.7220  2.7680 -1.2587
   10MOL0     H 1293   6.492   2.650  10.815  2.7585  0.2028  0.0615
   10MOL0     H 1294   6.597   2.789  10.830  1.2241 -0.4164  0.8331
   10MOL0     H 1295   6.403   2.695  11.040 -0.5677 -1.4851 -3.3046
   10MOL0     H 1296   6.558   2.618  11.031 -0.5375 -0.0129  0.9102
   10MOL0     H 1297   6.603   2.913  11.045  1.5512 -0.3213  1.6129
   10MOL0     H 1298   6.459   2.879  11.138  0.2772  1.5214 -0.1291
   10MOL0     H 1299   6.684   2.870  11.247 -0.5147  0.5458 -0.3011
   10MOL0     H 1300   6.718   2.721  11.161 -0.7448 -0.3071 -0.7930
   10MOL0     H 1301   6.688   2.534  11.300 -1.5272 -1.8090 -0.3087
   10MOL0     H 1302   6.479   2.359  11.530 -1.8938  0.1112  1.7692
   10MOL0     H 1303   6.653   2.389  11.544 -0.2386  2.1132 -1.4218
   10MOL0     H 1304   6.525   2.374  11.756  0.6944 -0.6934 -0.5080
   10MOL0     H 1305   6.436   2.522  11.725 -0.4870 -1.6186  2.9241
   10MOL0     H 1306   6.740   2.513  11.713 -0.8061  0.3621 -0.0968
   10MOL0     H 1307   6.666   2.505  11.877 -1.6044 -0.0968 -0.5247
   10MOL0     H 1308   6.609   2.731  11.674  0.4119  0.7852  0.4560
   10MOL0     H 1309   6.731   2.743  11.810  1.3009 -0.0070 -2.6056
   10MOL0     H 1310   6.374   2.802  12.047 -0.0773 -0.5524 -2.2776
   10MOL0     H 1311   6.274   2.917  12.203 -0.7143  0.7233  0.8303
   10MOL0     H 1312   6.358   3.056  12.264 -1.2455  0.6452 -0.1831
   10MOL0     H 1313   6.238   3.081  12.134 -0.5795  0.3206 -0.2138
   10MOL0     H 1314   6.243   3.476  12.041 -1.6332  0.1207  0.3014
   10MOL0     H 1315   6.160   3.675  12.143  0.6126 -1.5871 -1.6654
   10MOL0     H 1316   6.269   3.928  12.489  2.2453 -0.1310  1.8717
   10MOL0     H 1317   6.373   3.788  12.510  0.9966  1.1365 -0.4570
   10MOL0     H 1318   6.491   3.819  12.327  1.4284  1.3021 -0.1326
   10MOL0     H 1319   6.364   3.910  12.238  1.2152 -2.2379 -1.2936
   10MOL0     H 1320   6.413   4.117  12.339 -0.9847 -1.0271 -2.6325
   10MOL0     H 1321   6.576   4.059  12.303  0.2026  2.4054  0.2516
   10MOL0     H 1322   6.449   4.033  12.575 -0.3538 -0.4632 -0.3369
   10MOL0     H 1323   6.598   3.965  12.529 -1.7656 -0.7189  1.2044
   10MOL0     H 1324   6.694   4.186  12.451 -0.6521 -0.0181 -1.4450
   10MOL0     H 1325   6.639   4.189  12.618  1.1746  1.4305 -0.2155
   10MOL0     H 1326   6.505   4.297  12.372  0.0951 -3.2308  1.3258
   10MOL0     H 1327   6.435   4.341  12.529 -2.3101 -0.8483 -1.4057
   10MOL0     H 1328   6.721   4.407  12.459  0.2930  2.2563 -1.9449
   10MOL0     H 1329   6.636   4.433  12.615  1.7674 -3.1842 -0.0353
   10MOL0     H 1330   6.643   4.640  12.493  0.2648  0.6920 -0.0588
   10MOL0     H 1331   6.488   4.579  12.528  3.3092 -3.5849  5.7479
   10MOL0     H 1332   6.357   3.569  12.515  0.4522 -0.5151 -0.6360
   10MOL0     H 1333   6.439   3.387  12.417  1.4237  0.7231 -0.6550
   10MOL0     H 1334   6.663   3.169  11.876  0.8522 -1.9772 -1.8341
   10MOL0     H 1335   6.662   2.939  11.780 -2.9541 -3.6938 -0.8642
   10MOL0     H 1336   6.464   3.209  10.485  1.7123  2.3855 -0.0343
   10MOL0     H 1337   6.533   3.437  10.379 -0.4801  1.2111  1.5856
   10MOL0     H 1338   6.355   3.665   9.863 -1.6332 -0.1097  0.9207
   10MOL0     H 1339   6.452   3.884   9.764 -3.3813 -2.2003 -0.9755
   10MOL0     H 1340   6.803   4.037   9.993  0.0772 -0.5893 -0.7282
   10MOL0     H 1341   6.790   4.055   9.812  0.4533  1.7589  0.8123
   10MOL0     H 1342   6.739   4.289   9.847  0.5693  3.0618  0.7016
   10MOL0     H 1343   6.887   4.240   9.925 -0.6570 -0.3437 -0.4660
   10MOL0     H 1344   6.646   4.225  10.101 -0.1931 -0.0381 -0.1676
   10MOL0     H 1345   6.667   4.390  10.028  1.1900  0.9665 -0.3608
   10MOL0     H 1346   6.791   4.418  10.210 -2.5395 -1.6409 -0.6310
   10MOL0     H 1347   6.908   4.367  10.104  0.4695 -0.4013  0.1557
   10MOL0     H 1348   6.888   4.024  10.384 -2.4638  1.2536  2.9532
   10MOL0     H 1349   6.606   3.991  10.150  0.3154  0.3433 -1.3790
   10MOL0     H 1350   6.504   3.786  10.250  1.1230 -0.6379  0.5863
   11MOL0     O 1351   6.447   2.921   4.386 -0.1637  0.1059  0.6596
   11MOL0     C 1352   6.367   2.939   4.477  1.5048  0.5178 -0.2862
   11MOL0     O 1353   6.369   2.877   4.592 -0.2738  0.0664  0.4031
   11MOL0     C 1354   6.476   2.798   4.633  0.1022  0.6097 -0.6571
   11MOL0     C 1355   6.462   2.660   4.668  0.9348  0.3751 -0.5077
   11MOL0     C 1356   6.574   2.590   4.696 -0.7776  0.0019 -0.2584
   11MOL0     C 1357   6.701   2.656   4.716  0.0077  0.1825 -1.9813
   11MOL0     O 1358   6.808   2.574   4.754 -0.3458  0.3968  0.8269
   11MOL0     C 1359   6.935   2.624   4.695 -0.9301 -0.1641 -0.2803
   11MOL0     C 1360   7.038   2.517   4.646 -0.4514 -0.2774 -0.9940
   11MOL0     C 1361   7.183   2.572   4.674  0.2145 -0.2812 -0.0961
   11MOL0     C 1362   7.288   2.504   4.579  0.3963 -0.6576 -0.9359
   11MOL0     C 1363   7.418   2.495   4.655 -0.3779  0.2870 -0.2179
   11MOL0     C 1364   7.551   2.472   4.585  0.1793  0.4694 -0.1500
   11MOL0     C 1365   7.663   2.523   4.677 -1.5083  0.8474  0.4043
   11MOL0     C 1366   7.802   2.528   4.605 -0.4818  1.1697 -0.6105
   11MOL0     N 1367   7.893   2.565   4.713 -1.2989 -0.3334 -0.6599
   11MOL0     C 1368   7.912   2.682   4.782 -0.2924 -0.8905  1.3372
   11MOL0     C 1369   8.028   2.664   4.856  1.3724  0.1915  0.0483
   11MOL0     C 1370   8.103   2.780   4.915 -0.2702 -0.6812  0.2981
   11MOL0     C 1371   8.124   2.765   5.066  0.1414 -0.6206  0.4986
   11MOL0     C 1372   8.235   2.671   5.119  0.7712 -0.6395 -0.6631
   11MOL0     C 1373   8.256   2.649   5.268 -0.1079  0.7420  0.0082
   11MOL0     O 1374   8.368   2.554   5.288  0.8757 -0.8122  0.2213
   11MOL0     C 1375   8.370   2.483   5.404  0.2867  0.2072  0.3318
   11MOL0     C 1376   8.452   2.377   5.404  0.2219  0.1168  0.8598
   11MOL0     C 1377   8.466   2.296   5.519  1.3495 -0.0820  0.8977
   11MOL0     C 1378   8.551   2.169   5.506  0.2487 -0.2569 -0.1354
   11MOL0     C 1379   8.407   2.338   5.639 -0.0004 -0.5623 -1.3653
   11MOL0     C 1380   8.434   2.278   5.773 -0.7531  0.2299 -0.3193
   11MOL0     O 1381   8.328   2.252   5.860 -1.2385  0.8106 -0.0447
   11MOL0     C 1382   8.345   2.175   5.971  0.5681  0.3721  1.7218
   11MOL0     C 1383   8.318   2.221   6.096 -0.0322 -0.1318 -0.2272
   11MOL0     C 1384   8.315   2.134   6.205  0.4230  0.0179 -0.8993
   11MOL0     C 1385   8.347   1.999   6.193  0.4101  0.0324  0.3188
   11MOL0     O 1386   8.341   1.911   6.299 -0.4520  0.2016  0.6341
   11MOL0     C 1387   8.460   1.859   6.353 -0.5127 -0.1343 -0.8742
   11MOL0     C 1388   8.449   1.871   6.512 -0.8848  0.0198  0.1923
   11MOL0     C 1389   8.516   1.986   6.582  0.3702 -0.6652 -0.2875
   11MOL0     C 1390   8.436   2.113   6.559 -0.0291 -0.2168  0.1161
   11MOL0     C 1391   8.483   2.221   6.645  0.7125  0.1044 -0.4064
   11MOL0     C 1392   8.401   2.354   6.640 -0.2371 -0.3007  0.2647
   11MOL0     C 1393   8.281   2.342   6.726 -0.4719 -0.7119  0.0344
   11MOL0     C 1394   8.170   2.449   6.701 -0.7903  0.2611 -1.4024
   11MOL0    Cl 1395   8.097   2.400   6.547 -0.3328  0.5377 -0.0744
   11MOL0     C 1396   8.382   1.955   6.061  0.0303  0.5787  0.7031
   11MOL0     C 1397   8.387   2.044   5.954  0.4401 -0.2544  0.7466
   11MOL0     O 1398   8.546   2.236   5.784 -0.2708 -0.6525 -0.3511
   11MOL0     C 1399   8.312   2.449   5.642  0.4403  0.3142  0.2445
   11MOL0     C 1400   8.290   2.515   5.523  0.0299 -0.9415  0.3099
   11MOL0     N 1401   8.070   2.536   4.839  0.4133  0.7878  0.6547
   11MOL0     N 1402   7.984   2.479   4.760  0.8406  0.7780  0.4066
   11MOL0     C 1403   6.719   2.790   4.687 -0.2502  0.7735 -0.1861
   11MOL0     C 1404   6.608   2.865   4.645  0.6281  0.2578  0.6627
   11MOL0     C 1405   6.257   3.032   4.450  0.0198 -0.5568  0.6213
   11MOL0     C 1406   6.258   3.105   4.332  1.1711 -0.3317  0.4178
   11MOL0     C 1407   6.157   3.204   4.306 -0.2717 -0.1528 -0.0671
   11MOL0     C 1408   6.060   3.230   4.408 -0.2794  0.7981  0.0005
   11MOL0     O 1409   5.974   3.340   4.415  0.3591  0.1036 -0.5624
   11MOL0     C 1410   5.951   3.423   4.300 -0.3116 -0.0565 -0.2412
   11MOL0     C 1411   5.833   3.363   4.217  0.6411 -0.5162  0.0117
   11MOL0     C 1412   5.698   3.373   4.271 -0.3048  0.9589 -0.0782
   11MOL0     C 1413   5.655   3.503   4.335 -0.3023 -0.7802 -1.0322
   11MOL0     C 1414   5.514   3.486   4.387  0.9442 -0.2177  0.5645
   11MOL0     C 1415   5.396   3.483   4.419  0.8361 -0.0950 -0.6400
   11MOL0     C 1416   6.054   3.148   4.521 -0.1282 -0.7161  1.4081
   11MOL0     C 1417   6.158   3.063   4.542  0.2596 -0.4729  0.5931
   11MOL0     H 1418   6.362   2.618   4.658  1.5857 -0.9035 -2.2279
   11MOL0     H 1419   6.565   2.483   4.711 -2.5006  0.3693  1.5842
   11MOL0     H 1420   6.914   2.679   4.603 -4.6000 -1.0624 -0.1107
   11MOL0     H 1421   6.963   2.700   4.768 -3.0794  0.0536  0.3684
   11MOL0     H 1422   7.017   2.432   4.712  1.6718  0.9420  1.3930
   11MOL0     H 1423   7.023   2.485   4.542  2.0925 -0.5642 -1.3216
   11MOL0     H 1424   7.185   2.680   4.656 -3.0152 -0.2288 -0.7889
   11MOL0     H 1425   7.209   2.553   4.778  1.2131 -0.6670 -0.4038
   11MOL0     H 1426   7.257   2.407   4.539  2.0344 -0.7723 -2.0573
   11MOL0     H 1427   7.293   2.567   4.491  0.6355  1.4878  0.5428
   11MOL0     H 1428   7.424   2.593   4.703 -2.7720 -0.4220  1.7402
   11MOL0     H 1429   7.404   2.419   4.732 -0.3786 -1.4077 -1.8100
   11MOL0     H 1430   7.567   2.364   4.575 -0.7043 -0.1213  3.5213
   11MOL0     H 1431   7.557   2.510   4.482  2.4210 -1.7748 -0.9671
   11MOL0     H 1432   7.643   2.621   4.722 -0.0433  0.0873  2.9601
   11MOL0     H 1433   7.656   2.447   4.756 -0.8029 -2.2533 -2.3089
   11MOL0     H 1434   7.800   2.610   4.533 -1.7176  1.7529  0.0420
   11MOL0     H 1435   7.826   2.439   4.547  1.0924  0.1902  1.4500
   11MOL0     H 1436   7.861   2.776   4.767 -2.3538 -1.3152  4.6480
   11MOL0     H 1437   8.194   2.793   4.857 -0.7069 -0.8405 -0.4288
   11MOL0     H 1438   8.066   2.883   4.908  3.2802  0.6097 -2.7698
   11MOL0     H 1439   8.024   2.754   5.109 -0.7399  1.0783 -0.9564
   11MOL0     H 1440   8.155   2.863   5.105 -0.5082  0.0325 -0.5551
   11MOL0     H 1441   8.322   2.714   5.070 -0.7612  1.3620 -1.7653
   11MOL0     H 1442   8.221   2.570   5.079 -1.6769  0.2561 -2.2804
   11MOL0     H 1443   8.166   2.603   5.309  1.1643  0.7397  3.1580
   11MOL0     H 1444   8.273   2.738   5.329  3.0345 -1.1627  2.2601
   11MOL0     H 1445   8.504   2.357   5.311  0.1001 -1.2882  1.0717
   11MOL0     H 1446   8.483   2.083   5.501  1.8882 -1.8636  2.5329
   11MOL0     H 1447   8.619   2.169   5.421  0.7996  2.4481  0.2164
   11MOL0     H 1448   8.625   2.142   5.581  1.7977  0.2751 -1.4173
   11MOL0     H 1449   8.282   2.324   6.102  1.1231  0.2252  1.0550
   11MOL0     H 1450   8.267   2.173   6.294  2.3377 -0.1069  0.2413
   11MOL0     H 1451   8.471   1.750   6.343  0.1082 -0.2243  0.5308
   11MOL0     H 1452   8.545   1.918   6.319  0.0075  0.0998  0.7288
   11MOL0     H 1453   8.345   1.871   6.547 -0.5288 -0.7134  1.3472
   11MOL0     H 1454   8.502   1.785   6.555  0.8084  1.3278  0.8124
   11MOL0     H 1455   8.622   1.999   6.559  0.8479  0.0163  2.0410
   11MOL0     H 1456   8.508   1.960   6.688  2.4211 -0.7332 -0.1183
   11MOL0     H 1457   8.456   2.138   6.454  1.1337  4.9733  1.2941
   11MOL0     H 1458   8.329   2.087   6.562 -0.0800 -0.1011 -0.5304
   11MOL0     H 1459   8.589   2.238   6.629  1.5588 -4.5146 -0.9414
   11MOL0     H 1460   8.478   2.186   6.749 -0.9521  2.0598  0.2472
   11MOL0     H 1461   8.456   2.442   6.672 -1.2928  0.3216  0.4351
   11MOL0     H 1462   8.373   2.369   6.535  2.7465  1.9217 -0.3465
   11MOL0     H 1463   8.308   2.365   6.829 -0.7191  4.9937 -0.8302
   11MOL0     H 1464   8.229   2.246   6.724  0.3746 -1.1712 -0.5808
   11MOL0     H 1465   8.213   2.549   6.692 -1.5166  0.9292  1.5309
   11MOL0     H 1466   8.103   2.455   6.787 -0.3835 -1.0624 -0.9579
   11MOL0     H 1467   8.407   1.850   6.055  2.0472  0.9471  1.6988
   11MOL0     H 1468   8.422   2.014   5.856 -3.4641 -1.0159 -0.5927
   11MOL0     H 1469   8.248   2.472   5.727  0.6001 -0.0124  0.4550
   11MOL0     H 1470   8.209   2.588   5.517 -0.3149 -1.4428 -1.4149
   11MOL0     H 1471   6.817   2.836   4.690 -0.9684  2.3976  2.8643
   11MOL0     H 1472   6.619   2.967   4.610 -1.9525 -0.3802 -2.4809
   11MOL0     H 1473   6.347   3.088   4.272  0.3286 -2.3806 -0.3337
   11MOL0     H 1474   6.153   3.256   4.210  0.7929 -0.1935 -0.1517
   11MOL0     H 1475   5.925   3.523   4.335  0.8355  0.3572 -0.5114
   11MOL0     H 1476   6.040   3.441   4.239  0.3569  2.1595  1.2590
   11MOL0     H 1477   5.847   3.257   4.196 -0.3159 -0.8774  1.0731
   11MOL0     H 1478   5.838   3.416   4.122  1.8292 -1.1635 -0.3055
   11MOL0     H 1479   5.699   3.289   4.341  3.9606  0.3816 -0.5376
   11MOL0     H 1480   5.624   3.360   4.191 -1.2372 -2.0107  1.1537
   11MOL0     H 1481   5.663   3.589   4.268 -1.4891 -1.3976 -2.0005
   11MOL0     H 1482   5.713   3.525   4.425 -1.4119  0.4155 -0.5828
   11MOL0     H 1483   5.294   3.490   4.454  0.7391 -0.5160 -0.8338
   11MOL0     H 1484   5.983   3.166   4.601  0.7648 -0.3000  2.1266
   11MOL0     H 1485   6.139   2.993   4.623  1.5694 -3.3211 -1.3939
   12MOL0     O 1486   3.801   3.916   5.955  0.2862 -0.2971  0.0588
   12MOL0     C 1487   3.714   3.997   5.924  0.1371  0.1099  0.4972
   12MOL0     O 1488   3.604   3.979   5.843 -0.7534  0.2018  0.5180
   12MOL0     C 1489   3.585   3.848   5.793  0.5673  0.6937  0.4375
   12MOL0     C 1490   3.666   3.798   5.694 -0.6879  0.2177  0.6912
   12MOL0     C 1491   3.650   3.661   5.653 -1.2921  0.0437 -0.4171
   12MOL0     C 1492   3.542   3.583   5.696  1.1646  0.1851 -0.9226
   12MOL0     O 1493   3.510   3.465   5.641 -0.2400 -0.0335 -0.3047
   12MOL0     C 1494   3.601   3.390   5.571 -1.0798  0.4330  0.3150
   12MOL0     C 1495   3.562   3.386   5.422 -0.1904  0.3963 -0.0717
   12MOL0     C 1496   3.451   3.294   5.382  0.5990  0.5353  0.1717
   12MOL0     C 1497   3.513   3.159   5.346  0.4505  0.1215  0.2218
   12MOL0     C 1498   3.413   3.070   5.284  0.6085  0.3167  0.4915
   12MOL0     C 1499   3.456   2.917   5.271 -1.0157  0.5933  0.3657
   12MOL0     C 1500   3.578   2.908   5.171  0.1608 -0.5214 -0.8293
   12MOL0     C 1501   3.699   2.834   5.245  0.4725  0.1237  0.7437
   12MOL0     N 1502   3.641   2.697   5.263  0.1499  0.0535 -0.2640
   12MOL0     C 1503   3.593   2.611   5.161 -0.8693 -0.0789 -0.9154
   12MOL0     C 1504   3.610   2.483   5.220 -0.1253 -0.1859  0.5308
   12MOL0     C 1505   3.595   2.349   5.154  0.1496 -0.6850  0.9647
   12MOL0     C 1506   3.659   2.233   5.230  0.6384  1.3377 -0.6715
   12MOL0     C 1507   3.631   2.098   5.167  0.2188  0.3901  0.7523
   12MOL0     C 1508   3.482   2.072   5.112 -0.2217 -0.3833 -0.4458
   12MOL0     O 1509   3.491   1.944   5.047 -0.3603 -0.4125  0.4427
   12MOL0     C 1510   3.392   1.859   5.009  0.3253  0.5488  0.4838
   12MOL0     C 1511   3.424   1.774   4.903  0.0600  0.0982 -0.2997
   12MOL0     C 1512   3.337   1.667   4.870  0.0434 -0.3804 -0.0049
   12MOL0     C 1513   3.373   1.562   4.772 -0.9784  0.1307 -0.4160
   12MOL0     C 1514   3.217   1.658   4.943  0.2677 -0.2048  0.4162
   12MOL0     C 1515   3.109   1.561   4.923 -0.3801  0.6055 -0.1831
   12MOL0     O 1516   2.986   1.581   4.986 -0.0210 -0.7104 -0.3639
   12MOL0     C 1517   2.880   1.528   4.917 -0.7324 -0.2369 -0.3898
   12MOL0     C 1518   2.839   1.585   4.804  0.0763 -0.5486  0.7135
   12MOL0     C 1519   2.726   1.537   4.742 -0.2052 -0.1644  0.2742
   12MOL0     C 1520   2.660   1.428   4.802  0.0879 -0.4908 -0.0065
   12MOL0     O 1521   2.545   1.377   4.746 -0.4008 -0.9515  0.2260
   12MOL0     C 1522   2.557   1.247   4.700 -0.3898 -0.3356 -0.8473
   12MOL0     C 1523   2.423   1.186   4.657  0.9312  0.0045 -0.6531
   12MOL0     C 1524   2.421   1.202   4.510 -0.2098 -0.3379  0.6235
   12MOL0     C 1525   2.286   1.138   4.458 -0.3401 -0.4537  0.1512
   12MOL0     C 1526   2.289   1.102   4.307  0.6724  0.7858 -0.1206
   12MOL0     C 1527   2.165   1.115   4.225 -0.7259  0.7765 -0.1402
   12MOL0     C 1528   2.055   1.016   4.280  1.7037 -0.2198 -0.4251
   12MOL0     C 1529   1.924   1.001   4.189 -0.3600 -0.4784 -0.6564
   12MOL0    Cl 1530   1.964   0.898   4.045  0.4533 -0.1899 -0.2052
   12MOL0     C 1531   2.706   1.365   4.915 -0.1311 -0.0441 -0.1190
   12MOL0     C 1532   2.822   1.417   4.972  0.0558 -0.9069 -0.8052
   12MOL0     O 1533   3.125   1.473   4.838 -0.4734 -0.3416  0.0709
   12MOL0     C 1534   3.185   1.751   5.050  0.5086 -0.5528  0.2047
   12MOL0     C 1535   3.271   1.849   5.087 -0.5687 -0.6191  0.9587
   12MOL0     N 1536   3.632   2.505   5.358  0.5595 -1.1195  0.0711
   12MOL0     N 1537   3.642   2.630   5.382 -0.1000 -0.7953  0.1759
   12MOL0     C 1538   3.456   3.649   5.787 -0.6175  0.1910 -0.5419
   12MOL0     C 1539   3.468   3.784   5.834  0.2734  0.4632 -0.4689
   12MOL0     C 1540   3.743   4.139   5.971 -0.2943  0.0704 -0.0534
   12MOL0     C 1541   3.875   4.179   6.007 -0.4929 -0.4225  0.4322
   12MOL0     C 1542   3.894   4.313   6.061 -0.1150  0.4290  0.0724
   12MOL0     C 1543   3.788   4.398   6.083  0.1032  0.1580  0.1813
   12MOL0     O 1544   3.815   4.519   6.142  0.1397 -0.1386  0.1842
   12MOL0     C 1545   3.705   4.581   6.214 -0.1876 -0.0023  0.0486
   12MOL0     C 1546   3.759   4.697   6.303 -1.0938 -0.2249  0.1575
   12MOL0     C 1547   3.657   4.764   6.388 -0.6213 -0.2437 -0.0605
   12MOL0     C 1548   3.719   4.876   6.480  0.2789 -0.8531  0.2451
   12MOL0     C 1549   3.598   4.951   6.522 -0.1334  0.0684 -0.3464
   12MOL0     C 1550   3.493   5.008   6.542  0.4595  0.1235 -0.1061
   12MOL0     C 1551   3.653   4.353   6.042  0.0099  0.4545 -0.2179
   12MOL0     C 1552   3.641   4.227   5.989 -1.2055 -0.1043 -0.3214
   12MOL0     H 1553   3.753   3.851   5.656 -0.8716 -2.0249 -3.4225
   12MOL0     H 1554   3.730   3.621   5.592 -1.2783 -0.8426  0.1593
   12MOL0     H 1555   3.705   3.421   5.584  0.5154 -4.2847  0.5526
   12MOL0     H 1556   3.603   3.286   5.605  0.6668  0.0059 -0.9506
   12MOL0     H 1557   3.532   3.485   5.388 -1.8214  0.4528  1.3740
   12MOL0     H 1558   3.653   3.354   5.370  1.8368 -1.4359  4.1235
   12MOL0     H 1559   3.380   3.286   5.465 -1.1018  1.5788 -1.1109
   12MOL0     H 1560   3.392   3.338   5.301 -1.2972  4.0772  3.1379
   12MOL0     H 1561   3.580   3.176   5.261 -0.5200 -1.9011 -1.0265
   12MOL0     H 1562   3.561   3.099   5.424 -0.3850 -1.8337 -0.6834
   12MOL0     H 1563   3.322   3.067   5.344 -1.7603 -1.3172 -2.8772
   12MOL0     H 1564   3.373   3.111   5.190  1.5068 -2.9461 -1.4563
   12MOL0     H 1565   3.475   2.855   5.359  0.1033  0.1715 -0.1585
   12MOL0     H 1566   3.368   2.870   5.226 -0.4870  2.1349 -2.5037
   12MOL0     H 1567   3.558   2.855   5.078  3.5927  0.1153 -2.0686
   12MOL0     H 1568   3.612   3.005   5.134  1.8805 -0.8155 -0.1367
   12MOL0     H 1569   3.746   2.864   5.339  3.2221 -1.3479 -0.0544
   12MOL0     H 1570   3.786   2.820   5.181  1.2918 -4.4592  2.5096
   12MOL0     H 1571   3.568   2.636   5.058 -1.1237  2.2113 -0.3435
   12MOL0     H 1572   3.491   2.333   5.125  0.1333  0.7822  0.1152
   12MOL0     H 1573   3.661   2.358   5.067  0.2876 -3.5097  0.6817
   12MOL0     H 1574   3.609   2.238   5.328 -1.1327  5.1551 -1.5975
   12MOL0     H 1575   3.765   2.249   5.251  0.5132  0.1281  1.1582
   12MOL0     H 1576   3.646   2.032   5.253  0.2685 -0.8408 -0.1711
   12MOL0     H 1577   3.697   2.089   5.080  0.2414  4.0296  0.2339
   12MOL0     H 1578   3.460   2.145   5.034  0.3627 -0.6946 -0.9064
   12MOL0     H 1579   3.418   2.079   5.201  0.6167  1.8241  0.0488
   12MOL0     H 1580   3.520   1.779   4.853  0.0251 -0.3157 -0.4187
   12MOL0     H 1581   3.367   1.465   4.820  1.4080  0.0935 -0.0892
   12MOL0     H 1582   3.308   1.573   4.684 -0.0924  0.5032 -1.0491
   12MOL0     H 1583   3.478   1.563   4.743 -1.4051 -0.2779 -2.1342
   12MOL0     H 1584   2.879   1.679   4.768 -0.4657 -1.1832 -1.7142
   12MOL0     H 1585   2.701   1.574   4.643  3.9427  0.8449 -0.5819
   12MOL0     H 1586   2.633   1.254   4.621  0.2125 -1.9101 -0.4537
   12MOL0     H 1587   2.601   1.173   4.768  0.4249 -1.1984 -2.2589
   12MOL0     H 1588   2.417   1.078   4.668 -1.9768 -0.1251 -2.6300
   12MOL0     H 1589   2.338   1.235   4.706  0.1787  0.3097 -2.2242
   12MOL0     H 1590   2.507   1.154   4.463 -0.9561 -2.2581  1.1444
   12MOL0     H 1591   2.427   1.311   4.500  0.4772 -0.2411  1.9743
   12MOL0     H 1592   2.260   1.044   4.508  3.7512 -0.9616  1.6938
   12MOL0     H 1593   2.207   1.211   4.479  1.8938  2.1467  0.0589
   12MOL0     H 1594   2.345   1.010   4.292 -1.4416 -0.5373 -0.2967
   12MOL0     H 1595   2.354   1.176   4.259 -0.8928  1.6004 -1.0679
   12MOL0     H 1596   2.118   1.214   4.220  0.2615  1.4114  1.9942
   12MOL0     H 1597   2.191   1.087   4.122 -0.9151 -3.0060  0.6826
   12MOL0     H 1598   2.017   1.059   4.373 -3.2873 -0.8904 -1.8479
   12MOL0     H 1599   2.097   0.919   4.308  4.4251  1.4385  1.7426
   12MOL0     H 1600   1.873   1.095   4.166 -1.5752 -1.5950 -2.7840
   12MOL0     H 1601   1.854   0.950   4.256  1.8935 -2.3936  0.3809
   12MOL0     H 1602   2.640   1.296   4.967  0.6664 -0.0514  0.9316
   12MOL0     H 1603   2.848   1.386   5.073 -0.0347  0.6857 -0.2786
   12MOL0     H 1604   3.100   1.747   5.117  1.0080 -1.0975  0.8197
   12MOL0     H 1605   3.253   1.917   5.170 -0.9027 -0.6307  0.8981
   12MOL0     H 1606   3.365   3.598   5.816  0.3970 -1.2122  0.2769
   12MOL0     H 1607   3.391   3.816   5.903 -2.4213  0.4706 -3.2832
   12MOL0     H 1608   3.961   4.114   5.995 -0.0200  0.4297 -1.1025
   12MOL0     H 1609   3.994   4.337   6.095  1.7894 -3.8332 -1.8079
   12MOL0     H 1610   3.637   4.635   6.148  0.5554 -0.5132 -1.1639
   12MOL0     H 1611   3.659   4.511   6.284 -0.4091 -0.3106 -0.4003
   12MOL0     H 1612   3.818   4.761   6.237 -3.3015  0.9713 -0.7498
   12MOL0     H 1613   3.811   4.639   6.380 -1.3243 -0.6680 -0.0184
   12MOL0     H 1614   3.617   4.688   6.455  4.3879 -0.5116  3.1601
   12MOL0     H 1615   3.574   4.794   6.324 -1.5905  2.3972  2.2433
   12MOL0     H 1616   3.768   4.950   6.417  4.1259 -3.1971  0.1912
   12MOL0     H 1617   3.782   4.850   6.565 -2.7176 -0.4212  2.7727
   12MOL0     H 1618   3.406   5.068   6.556  1.5545  1.8501 -0.4060
   12MOL0     H 1619   3.566   4.413   6.064  0.3437 -0.0334  2.8647
   12MOL0     H 1620   3.542   4.195   5.960 -0.4892 -1.9008 -0.9227
   13MOL0     O 1621   2.748   8.716   4.814  0.4652  0.3860  0.6467
   13MOL0     C 1622   2.688   8.654   4.728  0.1877 -0.1557 -0.6337
   13MOL0     O 1623   2.634   8.537   4.745 -0.5884  0.4491 -0.4668
   13MOL0     C 1624   2.639   8.458   4.855 -1.0428  0.2323 -0.4877
   13MOL0     C 1625   2.609   8.324   4.835  0.8712  0.0079  0.2938
   13MOL0     C 1626   2.618   8.231   4.935  0.1629  0.8335 -0.6929
   13MOL0     C 1627   2.659   8.271   5.058 -0.1407 -0.5055  0.0748
   13MOL0     O 1628   2.659   8.193   5.170  0.0644 -0.2961 -0.2921
   13MOL0     C 1629   2.547   8.115   5.190  1.1341  0.0143 -0.3986
   13MOL0     C 1630   2.424   8.194   5.255 -0.6753 -0.0727 -0.1031
   13MOL0     C 1631   2.307   8.099   5.301 -0.1888 -0.7603 -0.0256
   13MOL0     C 1632   2.238   8.028   5.186  0.4177  0.6804  0.2126
   13MOL0     C 1633   2.131   7.926   5.221 -0.1341 -0.2010 -0.0535
   13MOL0     C 1634   2.049   7.959   5.343  0.1579  0.3892 -0.9964
   13MOL0     C 1635   1.926   7.858   5.362 -1.4016  0.6211 -0.2866
   13MOL0     C 1636   1.961   7.712   5.359  0.3380  1.3475  0.6420
   13MOL0     N 1637   1.844   7.633   5.400  0.7776 -0.4162  1.0043
   13MOL0     C 1638   1.728   7.619   5.326 -0.2247  1.0214  0.1038
   13MOL0     C 1639   1.630   7.571   5.409  0.0520 -0.2420 -0.1157
   13MOL0     C 1640   1.488   7.529   5.385 -0.6294  0.2970  0.9414
   13MOL0     C 1641   1.470   7.514   5.240 -0.4962 -0.6951  0.0187
   13MOL0     C 1642   1.316   7.505   5.227 -0.3441  0.0049  0.8217
   13MOL0     C 1643   1.281   7.432   5.097  0.4862 -0.5111  0.2976
   13MOL0     O 1644   1.349   7.308   5.075  0.1781 -0.5551 -0.2180
   13MOL0     C 1645   1.293   7.224   4.983  0.9116  0.2927  0.7221
   13MOL0     C 1646   1.203   7.271   4.883 -0.3636  0.5535  0.0190
   13MOL0     C 1647   1.138   7.181   4.800  0.0208 -0.1091 -0.0188
   13MOL0     C 1648   1.067   7.234   4.674  0.2928  0.0088 -0.1997
   13MOL0     C 1649   1.151   7.044   4.820  0.8587  0.2678  0.3346
   13MOL0     C 1650   1.072   6.937   4.755 -0.2175  0.9764 -0.3461
   13MOL0     O 1651   1.120   6.811   4.774 -0.5243 -0.5425  0.0680
   13MOL0     C 1652   1.047   6.717   4.702  0.3414  0.1713  0.0299
   13MOL0     C 1653   1.040   6.702   4.552  0.7351 -0.2244  0.0290
   13MOL0     C 1654   0.937   6.638   4.488  0.3477 -0.1365  0.2350
   13MOL0     C 1655   0.839   6.568   4.558  0.3825  0.5724 -0.5852
   13MOL0     O 1656   0.740   6.501   4.491  0.3104 -0.0048 -0.6569
   13MOL0     C 1657   0.623   6.459   4.557 -0.7855 -0.6082  0.1426
   13MOL0     C 1658   0.539   6.370   4.465  0.6038 -0.2315 -0.2417
   13MOL0     C 1659   0.453   6.454   4.366 -0.7007 -0.2540 -1.1596
   13MOL0     C 1660   0.370   6.364   4.283  0.0930 -0.1505 -0.4605
   13MOL0     C 1661   0.251   6.444   4.223  0.1994 -0.4449  0.9148
   13MOL0     C 1662   0.194   6.360   4.103 -0.1094  0.1570  0.0146
   13MOL0     C 1663   0.115   6.453   4.013 -0.2915  0.9996 -0.5104
   13MOL0     C 1664   0.193   6.493   3.889  0.0190 -0.3664 -0.0046
   13MOL0    Cl 1665   0.098   6.582   3.777  0.0446  0.4844 -0.6300
   13MOL0     C 1666   0.845   6.566   4.692  0.0845  0.1199 -0.7455
   13MOL0     C 1667   0.943   6.639   4.761 -0.0992 -0.5771 -0.4546
   13MOL0     O 1668   0.961   6.966   4.713 -0.6310  0.2247  0.4064
   13MOL0     C 1669   1.239   6.995   4.913 -0.0728 -0.2544  0.6984
   13MOL0     C 1670   1.309   7.086   5.006 -0.0088 -0.1143 -0.5533
   13MOL0     N 1671   1.692   7.562   5.538  0.6469  0.0508  0.0781
   13MOL0     N 1672   1.817   7.604   5.527  0.1518 -0.3398 -0.0994
   13MOL0     C 1673   2.710   8.396   5.082 -0.5536 -0.9455 -0.3284
   13MOL0     C 1674   2.699   8.488   4.976  1.3642  0.1536 -0.1299
   13MOL0     C 1675   2.667   8.712   4.598  0.1824 -0.4290  0.4838
   13MOL0     C 1676   2.735   8.811   4.543 -0.9031 -1.0017  0.3999
   13MOL0     C 1677   2.714   8.860   4.410 -1.2171 -0.1054 -0.1610
   13MOL0     C 1678   2.608   8.808   4.330 -0.6103 -0.4751 -0.0800
   13MOL0     O 1679   2.587   8.844   4.196 -0.5517  0.3628  1.0341
   13MOL0     C 1680   2.669   8.941   4.130  0.4907  0.0461  0.9635
   13MOL0     C 1681   2.777   8.863   4.056  0.1364  0.7869  0.4119
   13MOL0     C 1682   2.840   8.940   3.943 -0.3609 -0.4124  0.8292
   13MOL0     C 1683   2.975   8.887   3.901 -0.1183  1.1222 -0.2755
   13MOL0     C 1684   2.983   8.762   3.821 -0.5329  0.2640  0.2926
   13MOL0     C 1685   3.006   8.650   3.766 -0.5123 -0.1905 -0.4621
   13MOL0     C 1686   2.528   8.715   4.392 -0.2344 -0.6352 -0.4736
   13MOL0     C 1687   2.556   8.669   4.520  0.1497 -0.4675 -0.2912
   13MOL0     H 1688   2.582   8.289   4.736  0.9522 -1.8518  0.8890
   13MOL0     H 1689   2.601   8.125   4.920 -1.3021  0.8112  0.8382
   13MOL0     H 1690   2.520   8.060   5.099 -0.1814  0.9867 -0.6215
   13MOL0     H 1691   2.577   8.047   5.270 -0.0184  0.3358  0.3242
   13MOL0     H 1692   2.467   8.245   5.341  3.0007 -1.5135 -0.8647
   13MOL0     H 1693   2.399   8.263   5.175 -0.3298  0.1137 -0.0522
   13MOL0     H 1694   2.355   8.032   5.373  0.3877  0.0125  0.3268
   13MOL0     H 1695   2.229   8.152   5.356  0.0902  1.3388 -1.5422
   13MOL0     H 1696   2.200   8.105   5.118  1.7784  0.6590 -0.6081
   13MOL0     H 1697   2.309   7.973   5.123 -1.7717 -2.0420 -0.0709
   13MOL0     H 1698   2.065   7.919   5.135 -1.1209 -1.3842  0.7596
   13MOL0     H 1699   2.185   7.831   5.235 -0.3312 -0.5959 -1.7979
   13MOL0     H 1700   2.123   7.952   5.424 -0.4842  0.9876 -0.3456
   13MOL0     H 1701   2.022   8.065   5.343 -0.9404  0.3074  2.9594
   13MOL0     H 1702   1.895   7.881   5.464 -3.3307 -0.4847 -0.5904
   13MOL0     H 1703   1.844   7.883   5.295  0.2056  0.6820 -2.3278
   13MOL0     H 1704   2.042   7.694   5.430  3.0138  0.6880 -2.3887
   13MOL0     H 1705   1.995   7.683   5.259 -2.1133  3.3392 -0.8824
   13MOL0     H 1706   1.703   7.642   5.223 -1.4061 -1.1727 -0.1649
   13MOL0     H 1707   1.463   7.434   5.432  1.5439 -1.3891 -1.0752
   13MOL0     H 1708   1.416   7.601   5.426 -1.1714 -0.2041  0.8815
   13MOL0     H 1709   1.507   7.415   5.212  1.5790  0.1325 -0.3190
   13MOL0     H 1710   1.511   7.593   5.176  1.0811 -1.9470 -0.5819
   13MOL0     H 1711   1.269   7.602   5.208 -0.4273 -0.0093  0.9550
   13MOL0     H 1712   1.259   7.456   5.306 -0.9442 -2.4929 -1.0188
   13MOL0     H 1713   1.291   7.499   5.011 -2.6114  0.7217  0.7665
   13MOL0     H 1714   1.175   7.403   5.097  0.5563 -0.8040  1.1725
   13MOL0     H 1715   1.190   7.377   4.864  1.5701  0.3583 -3.2629
   13MOL0     H 1716   1.079   7.343   4.673 -0.9782  0.2593  2.8194
   13MOL0     H 1717   1.100   7.178   4.586 -0.5363 -0.6983 -0.0714
   13MOL0     H 1718   0.961   7.219   4.696 -0.2729  2.3992 -0.9937
   13MOL0     H 1719   1.113   6.744   4.482 -0.6564 -4.3664 -4.4524
   13MOL0     H 1720   0.937   6.638   4.379  0.3312  2.4925  0.1854
   13MOL0     H 1721   0.658   6.395   4.639  1.9080 -1.9847 -1.9125
   13MOL0     H 1722   0.557   6.539   4.591 -1.8269 -0.1367 -2.7392
   13MOL0     H 1723   0.621   6.322   4.412  0.3704 -3.7201  2.2144
   13MOL0     H 1724   0.473   6.298   4.514  0.6321 -0.3680 -0.4069
   13MOL0     H 1725   0.511   6.527   4.309 -1.9808  1.0470 -0.8587
   13MOL0     H 1726   0.379   6.509   4.425 -0.5078  0.3895 -1.5044
   13MOL0     H 1727   0.433   6.346   4.195  0.3938 -0.3146 -0.2128
   13MOL0     H 1728   0.347   6.269   4.332 -4.5942  0.4152 -1.1181
   13MOL0     H 1729   0.291   6.535   4.177 -0.3166 -1.2721 -1.2976
   13MOL0     H 1730   0.165   6.473   4.284  0.0548  2.0282 -0.3724
   13MOL0     H 1731   0.283   6.315   4.058  2.3268  2.7784  1.8612
   13MOL0     H 1732   0.141   6.269   4.132  1.9200 -1.3593 -0.7977
   13MOL0     H 1733   0.067   6.535   4.066 -1.3176  1.3600 -1.9352
   13MOL0     H 1734   0.031   6.389   3.983  0.9613  0.5040 -3.3605
   13MOL0     H 1735   0.218   6.405   3.828 -0.0632  0.8347 -1.8579
   13MOL0     H 1736   0.279   6.554   3.913 -0.6380 -0.0303  1.5934
   13MOL0     H 1737   0.785   6.498   4.751 -0.5987 -0.1048 -1.6779
   13MOL0     H 1738   0.950   6.634   4.869 -0.2446  3.5823 -0.0876
   13MOL0     H 1739   1.250   6.892   4.947 -0.9057 -1.0884 -1.4374
   13MOL0     H 1740   1.369   7.062   5.093 -2.9484  1.8008  2.2484
   13MOL0     H 1741   2.746   8.432   5.178 -0.7377  0.5516 -0.8070
   13MOL0     H 1742   2.738   8.587   4.995  0.0809  1.0804 -2.1116
   13MOL0     H 1743   2.821   8.844   4.601  0.0420 -0.0606 -1.4575
   13MOL0     H 1744   2.783   8.934   4.371  0.7758  0.6536  4.1456
   13MOL0     H 1745   2.605   8.995   4.059  0.8729  0.7248  1.1251
   13MOL0     H 1746   2.722   9.012   4.194  0.4982 -0.8349  1.9621
   13MOL0     H 1747   2.721   8.781   4.012  2.2850 -2.1943  2.8187
   13MOL0     H 1748   2.854   8.817   4.119  0.3909 -2.6604 -2.1376
   13MOL0     H 1749   2.860   9.045   3.965 -0.3522  0.1006 -1.3192
   13MOL0     H 1750   2.774   8.950   3.856 -2.9445  1.0339  2.8172
   13MOL0     H 1751   3.032   8.887   3.994 -2.9297  1.2643  1.5483
   13MOL0     H 1752   3.026   8.973   3.854 -1.6666  1.5600 -1.2280
   13MOL0     H 1753   3.029   8.552   3.729 -0.2719 -0.5799  0.6570
   13MOL0     H 1754   2.437   8.677   4.347 -1.1669  0.2061  0.6798
   13MOL0     H 1755   2.475   8.605   4.553  0.1613 -0.6948 -0.7138
   14MOL0     O 1756   4.388   2.969   9.270 -1.0591 -0.1042 -0.0193
   14MOL0     C 1757   4.294   2.970   9.346  0.2658 -0.0993  0.0402
   14MOL0     O 1758   4.194   3.067   9.357  0.4440  1.0159 -0.0006
   14MOL0     C 1759   4.212   3.171   9.268  1.1396  0.2376  0.9278
   14MOL0     C 1760   4.126   3.182   9.160 -1.4224  0.0831 -0.5285
   14MOL0     C 1761   4.124   3.288   9.068 -0.2627 -0.6500 -0.1183
   14MOL0     C 1762   4.204   3.403   9.103  0.3680  0.4142 -0.4844
   14MOL0     O 1763   4.199   3.512   9.025 -0.2381 -0.6697 -0.3110
   14MOL0     C 1764   4.268   3.636   9.060  0.5547  0.3791 -0.0767
   14MOL0     C 1765   4.303   3.706   8.930 -0.1236  0.0296  0.3698
   14MOL0     C 1766   4.403   3.609   8.860  0.1635  0.7719  0.4487
   14MOL0     C 1767   4.467   3.650   8.725  0.2206  0.0502 -0.8405
   14MOL0     C 1768   4.567   3.546   8.685  0.2954  0.1340  0.3929
   14MOL0     C 1769   4.650   3.595   8.568 -0.0374  0.6577 -0.9434
   14MOL0     C 1770   4.683   3.463   8.477 -0.6317  0.8443  0.0136
   14MOL0     C 1771   4.762   3.498   8.362 -0.4648  0.0317 -0.0299
   14MOL0     N 1772   4.688   3.570   8.256 -0.0251  0.5172  0.2811
   14MOL0     C 1773   4.633   3.519   8.142 -0.2416 -0.1780  0.3328
   14MOL0     C 1774   4.579   3.620   8.083  0.7550 -0.0523 -0.0531
   14MOL0     C 1775   4.473   3.623   7.964  0.0366  0.3265  0.5974
   14MOL0     C 1776   4.354   3.715   7.984  0.4017 -1.0504 -0.5247
   14MOL0     C 1777   4.259   3.683   8.108  0.4741 -0.6049  0.1138
   14MOL0     C 1778   4.220   3.539   8.114  0.9741 -0.6065 -0.2398
   14MOL0     O 1779   4.137   3.508   8.001  0.0287  0.1098  0.0518
   14MOL0     C 1780   4.045   3.402   8.009  0.3070  0.1864  0.3275
   14MOL0     C 1781   3.957   3.385   7.905 -0.1889  0.6083  0.5683
   14MOL0     C 1782   3.854   3.293   7.914 -0.7400 -0.7763  0.4837
   14MOL0     C 1783   3.749   3.303   7.799  0.3388  1.3436 -0.3454
   14MOL0     C 1784   3.843   3.202   8.026  0.6174  0.0970  0.2145
   14MOL0     C 1785   3.734   3.090   8.031 -0.5568 -0.2515  0.5132
   14MOL0     O 1786   3.715   3.032   8.155 -0.0091  0.7906  0.3201
   14MOL0     C 1787   3.605   2.949   8.166 -0.4997 -0.2945  0.1223
   14MOL0     C 1788   3.474   2.993   8.136  0.0381  0.3002 -0.6737
   14MOL0     C 1789   3.363   2.915   8.161 -0.0907  0.6323  1.0822
   14MOL0     C 1790   3.382   2.789   8.210 -0.0438 -0.6487  0.3291
   14MOL0     O 1791   3.282   2.696   8.220  0.6014  0.3905  0.7406
   14MOL0     C 1792   3.174   2.735   8.304 -0.5397 -0.0788  0.9623
   14MOL0     C 1793   3.046   2.776   8.222 -0.0297  0.8961 -0.1462
   14MOL0     C 1794   2.980   2.659   8.146 -0.4529  0.1206 -0.5501
   14MOL0     C 1795   2.942   2.541   8.239  0.6120  0.1664  0.3873
   14MOL0     C 1796   2.851   2.432   8.172  0.4255 -0.6785  0.4866
   14MOL0     C 1797   2.829   2.312   8.262  0.7626  0.1571 -0.7460
   14MOL0     C 1798   2.727   2.228   8.190 -0.1729 -0.5984  0.5980
   14MOL0     C 1799   2.584   2.266   8.170 -0.5886 -0.4504 -0.0783
   14MOL0    Cl 1800   2.586   2.368   8.017  0.1458  0.3529 -0.4091
   14MOL0     C 1801   3.503   2.743   8.232  0.3539  1.6552  0.9082
   14MOL0     C 1802   3.616   2.818   8.204 -0.2896  0.3873  0.9815
   14MOL0     O 1803   3.691   3.043   7.925 -0.4284  0.2524  0.4937
   14MOL0     C 1804   3.929   3.215   8.134 -0.4082 -1.2087  0.5408
   14MOL0     C 1805   4.026   3.320   8.124 -0.0062 -0.2393 -0.1794
   14MOL0     N 1806   4.613   3.738   8.152 -1.0967  0.8050  0.6993
   14MOL0     N 1807   4.693   3.704   8.252  0.0330  0.4493  0.0037
   14MOL0     C 1808   4.293   3.381   9.208  1.0860  0.1730  0.2689
   14MOL0     C 1809   4.286   3.283   9.297 -0.3359 -0.3812 -0.2478
   14MOL0     C 1810   4.272   2.833   9.414  0.1688 -1.3432 -0.4358
   14MOL0     C 1811   4.379   2.759   9.460  0.6958  0.2484 -0.7224
   14MOL0     C 1812   4.353   2.649   9.537  0.0414  0.2953 -0.1888
   14MOL0     C 1813   4.224   2.607   9.569  0.7814 -0.3380  0.0975
   14MOL0     O 1814   4.195   2.514   9.654 -0.2744  0.0176 -0.0775
   14MOL0     C 1815   4.287   2.398   9.658  0.2864 -0.5507  0.1944
   14MOL0     C 1816   4.213   2.282   9.744 -0.4066 -0.1425 -0.6949
   14MOL0     C 1817   4.192   2.338   9.882 -0.6522 -0.0359 -0.5615
   14MOL0     C 1818   4.139   2.232   9.970 -0.1457 -0.4832 -0.6836
   14MOL0     C 1819   4.071   2.293  10.080 -0.0810  1.3516 -0.7692
   14MOL0     C 1820   4.020   2.368  10.156  0.8666 -0.8391 -0.4533
   14MOL0     C 1821   4.118   2.680   9.521 -0.1239 -0.3901 -0.2968
   14MOL0     C 1822   4.142   2.794   9.451  0.6486 -0.4102 -0.8901
   14MOL0     H 1823   4.062   3.095   9.151 -2.9221  1.0151  0.5542
   14MOL0     H 1824   4.056   3.285   8.984 -3.3195 -0.6670  2.1801
   14MOL0     H 1825   4.206   3.691   9.131  0.1786 -1.0076  0.7056
   14MOL0     H 1826   4.362   3.610   9.110  0.6088 -0.7905 -0.7423
   14MOL0     H 1827   4.213   3.742   8.880 -0.5493  0.3135  1.3258
   14MOL0     H 1828   4.363   3.792   8.960 -0.0302 -0.6205  2.1835
   14MOL0     H 1829   4.490   3.597   8.925 -1.2006 -1.5221  1.9756
   14MOL0     H 1830   4.366   3.508   8.842  0.8882  0.7125 -0.8453
   14MOL0     H 1831   4.396   3.659   8.642 -1.6342 -2.2218  0.3775
   14MOL0     H 1832   4.523   3.742   8.741  2.1777 -1.2728  0.4181
   14MOL0     H 1833   4.640   3.517   8.761  2.2557  1.3734 -0.9222
   14MOL0     H 1834   4.511   3.455   8.661  1.5820 -0.4327 -0.5347
   14MOL0     H 1835   4.594   3.673   8.516 -1.8061  0.0975  0.0318
   14MOL0     H 1836   4.743   3.636   8.608 -0.2490 -1.8879  2.7027
   14MOL0     H 1837   4.719   3.384   8.544 -2.4249  1.2354  1.5263
   14MOL0     H 1838   4.588   3.419   8.443 -0.7391  0.3122  0.9644
   14MOL0     H 1839   4.801   3.404   8.322  1.0588 -0.0000  1.3942
   14MOL0     H 1840   4.843   3.569   8.385  0.7456 -0.4834 -2.3770
   14MOL0     H 1841   4.626   3.416   8.109  1.5584  0.5888 -2.8878
   14MOL0     H 1842   4.524   3.638   7.869  0.9040 -0.4249  0.9249
   14MOL0     H 1843   4.440   3.519   7.958  1.3908 -0.1719  1.2053
   14MOL0     H 1844   4.288   3.707   7.897  0.3911  0.6812 -0.6975
   14MOL0     H 1845   4.391   3.817   8.000 -1.7197 -0.0443 -1.7089
   14MOL0     H 1846   4.167   3.740   8.101 -0.0432 -1.4254  0.1530
   14MOL0     H 1847   4.311   3.712   8.200 -1.8912 -0.4293  1.4597
   14MOL0     H 1848   4.163   3.537   8.207  0.9510  1.3561 -0.1718
   14MOL0     H 1849   4.313   3.483   8.129  0.1672 -1.8017  0.4499
   14MOL0     H 1850   3.965   3.451   7.819 -4.0941 -0.7504 -1.0743
   14MOL0     H 1851   3.767   3.231   7.718  0.4463 -2.0178  2.4182
   14MOL0     H 1852   3.649   3.272   7.834  1.1836  1.1978  2.1223
   14MOL0     H 1853   3.719   3.404   7.769 -3.9767  0.3543 -0.1383
   14MOL0     H 1854   3.459   3.098   8.112 -1.9308  0.1185 -0.3496
   14MOL0     H 1855   3.271   2.960   8.125  1.2473  2.1073 -0.7008
   14MOL0     H 1856   3.155   2.656   8.378  1.8264  1.3133  3.2007
   14MOL0     H 1857   3.211   2.821   8.360 -4.4082  3.3929 -1.2499
   14MOL0     H 1858   2.972   2.815   8.293  0.1535 -0.0520  0.5765
   14MOL0     H 1859   3.066   2.861   8.156 -2.9008  2.0175  0.2886
   14MOL0     H 1860   3.061   2.625   8.081 -0.4610  0.8011 -0.9259
   14MOL0     H 1861   2.890   2.685   8.090 -1.4336  3.0023  2.0085
   14MOL0     H 1862   3.043   2.509   8.264  0.7348 -1.7152 -2.0877
   14MOL0     H 1863   2.891   2.586   8.325  0.4302  0.0598  0.3358
   14MOL0     H 1864   2.898   2.398   8.079 -1.1676  2.0597 -1.4912
   14MOL0     H 1865   2.758   2.484   8.148  0.6626 -0.0459  0.9156
   14MOL0     H 1866   2.917   2.248   8.272  0.9637  0.6934  1.5609
   14MOL0     H 1867   2.792   2.341   8.362  1.7783 -0.9920 -0.0098
   14MOL0     H 1868   2.727   2.142   8.257 -4.3262 -1.8959 -0.7534
   14MOL0     H 1869   2.766   2.190   8.094 -0.5473 -4.2451  1.7481
   14MOL0     H 1870   2.535   2.311   8.256  0.0656 -1.9059  1.0855
   14MOL0     H 1871   2.522   2.179   8.148 -1.4828  0.2590 -0.4230
   14MOL0     H 1872   3.526   2.639   8.252  0.3650  1.5367  0.3078
   14MOL0     H 1873   3.715   2.780   8.228  1.3628  5.3409  3.5379
   14MOL0     H 1874   3.930   3.157   8.226 -1.5840  1.6463  2.4670
   14MOL0     H 1875   4.094   3.336   8.207  2.5828  0.5616 -2.3166
   14MOL0     H 1876   4.372   3.451   9.236  0.7159 -0.0110  1.8673
   14MOL0     H 1877   4.359   3.289   9.377  2.3025  4.2972 -2.5621
   14MOL0     H 1878   4.487   2.765   9.447  1.5852 -3.2202  3.0155
   14MOL0     H 1879   4.440   2.592   9.570 -0.3369 -0.0998  0.1252
   14MOL0     H 1880   4.306   2.376   9.552 -0.3169  0.9395 -0.2555
   14MOL0     H 1881   4.379   2.428   9.708 -0.8242  4.1230 -0.1290
   14MOL0     H 1882   4.280   2.196   9.737 -0.5347 -0.2889 -0.1499
   14MOL0     H 1883   4.110   2.266   9.711 -2.0899  4.7079  1.3231
   14MOL0     H 1884   4.125   2.424   9.875  1.2738  1.5746 -0.3473
   14MOL0     H 1885   4.287   2.373   9.925 -1.7550  0.3462  1.6923
   14MOL0     H 1886   4.229   2.180  10.006  0.6414  1.8319  0.9022
   14MOL0     H 1887   4.075   2.162   9.916 -0.6541  0.7400 -1.7232
   14MOL0     H 1888   3.982   2.450  10.214  2.1979  1.1515 -2.2712
   14MOL0     H 1889   4.018   2.667   9.561 -0.1590  1.6229  0.3721
   14MOL0     H 1890   4.064   2.866   9.429  2.3803  1.7845 -0.2671
   15MOL0     O 1891  10.880   2.513   5.121  0.1647  0.5080  0.1045
   15MOL0     C 1892  10.997   2.467   5.112  0.3219  0.6468 -0.1855
   15MOL0     O 1893  11.059   2.427   4.997 -0.6416 -0.8043  0.0905
   15MOL0     C 1894  11.001   2.448   4.872  0.1338 -0.3672 -0.2565
   15MOL0     C 1895  10.963   2.338   4.793  0.0049 -0.5286  0.7538
   15MOL0     C 1896  10.876   2.368   4.683 -0.1665  0.2603 -0.0576
   15MOL0     C 1897  10.849   2.499   4.641 -0.1291 -0.0273 -0.1222
   15MOL0     O 1898  10.764   2.527   4.535 -0.0834  0.2491 -0.7701
   15MOL0     C 1899  10.793   2.462   4.410  0.5395  0.3862 -0.1142
   15MOL0     C 1900  10.802   2.560   4.300  0.5890 -0.5405  0.8560
   15MOL0     C 1901  10.740   2.702   4.323  1.1155  0.1244 -0.2657
   15MOL0     C 1902  10.842   2.817   4.309  0.5207  0.2880 -0.6477
   15MOL0     C 1903  10.783   2.965   4.316  0.0197  0.5312 -0.3202
   15MOL0     C 1904  10.877   3.071   4.274 -1.0205 -0.0607 -0.6468
   15MOL0     C 1905  10.817   3.214   4.297 -0.3190 -0.0084 -0.6294
   15MOL0     C 1906  10.805   3.257   4.453 -0.3917 -0.1699  0.5846
   15MOL0     N 1907  10.921   3.213   4.544  0.1156 -0.2330 -0.1552
   15MOL0     C 1908  11.046   3.265   4.555 -0.5494  0.4231  1.5656
   15MOL0     C 1909  11.118   3.187   4.638  0.1882  0.5422 -0.6790
   15MOL0     C 1910  11.243   3.229   4.705 -0.7324  0.4268  0.1397
   15MOL0     C 1911  11.370   3.168   4.647 -0.4215  0.3856  0.4442
   15MOL0     C 1912  11.424   3.235   4.516  0.6438  0.4808  0.9734
   15MOL0     C 1913  11.571   3.216   4.506 -1.1463 -0.2733  0.3613
   15MOL0     O 1914  11.654   3.283   4.608  0.1966  0.0239  0.1579
   15MOL0     C 1915  11.674   3.419   4.609 -0.0343  0.5738  0.0164
   15MOL0     C 1916  11.728   3.469   4.728 -0.4209  0.1378 -0.1503
   15MOL0     C 1917  11.752   3.611   4.743  0.5833  0.4807  0.0163
   15MOL0     C 1918  11.808   3.651   4.881  0.4697  0.6874  0.5543
   15MOL0     C 1919  11.716   3.696   4.633  0.4174 -0.1625  1.4930
   15MOL0     C 1920  11.724   3.838   4.633  0.5721 -1.8644  0.6134
   15MOL0     O 1921  11.657   3.899   4.733 -0.2434  0.3193  0.7771
   15MOL0     C 1922  11.671   4.034   4.739 -0.2686  0.1911 -0.6025
   15MOL0     C 1923  11.569   4.118   4.684 -0.7743  0.6014  0.2345
   15MOL0     C 1924  11.591   4.260   4.686  0.2167  0.3913  0.0394
   15MOL0     C 1925  11.704   4.318   4.742  0.8598 -0.4821  0.2411
   15MOL0     O 1926  11.721   4.455   4.739  0.1966 -0.5692  0.4871
   15MOL0     C 1927  11.850   4.519   4.733 -0.8119  0.2845  0.0890
   15MOL0     C 1928  11.823   4.664   4.677 -0.2272  0.2936  0.6243
   15MOL0     C 1929  11.754   4.758   4.780 -0.0135 -1.0159 -0.1593
   15MOL0     C 1930  11.769   4.904   4.729  0.6028 -1.0348  0.3319
   15MOL0     C 1931  11.678   5.002   4.798  0.1117 -0.3305  1.2276
   15MOL0     C 1932  11.676   5.141   4.743 -0.6987  0.2465  0.7097
   15MOL0     C 1933  11.820   5.207   4.730  0.3085  0.8718  0.3224
   15MOL0     C 1934  11.829   5.354   4.758  0.3962  0.4335  0.3221
   15MOL0    Cl 1935  11.788   5.397   4.925  0.1710  0.0151 -0.3769
   15MOL0     C 1936  11.799   4.228   4.800 -0.5896  0.4105  0.3632
   15MOL0     C 1937  11.783   4.086   4.800 -0.1924  0.2961  0.6245
   15MOL0     O 1938  11.787   3.892   4.539  0.2374  0.3652 -0.2387
   15MOL0     C 1939  11.665   3.641   4.510 -0.6697  0.2448  0.3131
   15MOL0     C 1940  11.640   3.504   4.493 -0.9615 -0.6443  0.5737
   15MOL0     N 1941  11.046   3.076   4.658 -0.1032  0.8712  0.3514
   15MOL0     N 1942  10.927   3.082   4.596 -0.0841 -0.7943 -0.3842
   15MOL0     C 1943  10.873   2.605   4.727 -0.9473 -0.5439 -0.8604
   15MOL0     C 1944  10.951   2.575   4.839 -0.0940  0.2321  0.2941
   15MOL0     C 1945  11.076   2.454   5.235 -0.1660  0.3732 -0.1254
   15MOL0     C 1946  11.017   2.450   5.358  0.1159  0.4426 -0.7625
   15MOL0     C 1947  11.081   2.423   5.483 -0.4418 -0.1799  0.7452
   15MOL0     C 1948  11.223   2.408   5.482 -0.6929  0.4369 -0.2958
   15MOL0     O 1949  11.291   2.399   5.599 -0.2801  0.6777  0.4898
   15MOL0     C 1950  11.279   2.273   5.669 -0.3155  0.0518 -0.6447
   15MOL0     C 1951  11.384   2.181   5.613 -0.5299  0.2382 -0.8862
   15MOL0     C 1952  11.516   2.224   5.668 -0.5236  0.5639  0.4800
   15MOL0     C 1953  11.587   2.349   5.595  0.2413  0.4847  0.5167
   15MOL0     C 1954  11.727   2.369   5.634 -0.3679 -0.1266  0.4081
   15MOL0     C 1955  11.850   2.364   5.630 -0.1664  0.5866 -0.1778
   15MOL0     C 1956  11.290   2.413   5.360  0.5292 -0.6558  0.6239
   15MOL0     C 1957  11.214   2.435   5.238 -0.0859 -0.0336  0.0521
   15MOL0     H 1958  10.990   2.236   4.820 -0.4363 -0.9848 -0.4711
   15MOL0     H 1959  10.830   2.288   4.625 -1.6949  2.2672 -1.7681
   15MOL0     H 1960  10.889   2.410   4.423  0.3383  0.6299  3.0586
   15MOL0     H 1961  10.716   2.388   4.390  1.8672 -0.9781 -0.3640
   15MOL0     H 1962  10.902   2.584   4.262 -0.0964  1.8715  0.3860
   15MOL0     H 1963  10.752   2.511   4.216  0.5717  0.1261  0.4740
   15MOL0     H 1964  10.651   2.723   4.263 -1.2540 -1.8354  2.3205
   15MOL0     H 1965  10.704   2.713   4.426 -0.0981 -1.5000 -0.4750
   15MOL0     H 1966  10.921   2.806   4.384 -0.8329  2.2707  1.2017
   15MOL0     H 1967  10.887   2.803   4.210  1.6744 -0.8576  0.0083
   15MOL0     H 1968  10.692   2.985   4.258 -1.8548 -1.2564  1.7677
   15MOL0     H 1969  10.761   2.977   4.423  1.2064 -0.7676  0.1062
   15MOL0     H 1970  10.968   3.081   4.335  0.6417  1.1197 -3.1405
   15MOL0     H 1971  10.904   3.057   4.169 -0.1768 -0.5229 -0.3851
   15MOL0     H 1972  10.881   3.279   4.236  0.6984 -0.5438 -0.1663
   15MOL0     H 1973  10.716   3.210   4.255 -0.0373  0.5041 -1.3709
   15MOL0     H 1974  10.721   3.203   4.497  0.8413 -1.7195  1.1362
   15MOL0     H 1975  10.776   3.362   4.458 -0.4705 -0.2365  4.0586
   15MOL0     H 1976  11.072   3.365   4.523  0.0503  0.6611  2.7121
   15MOL0     H 1977  11.259   3.336   4.721  3.9775 -0.1432  0.5217
   15MOL0     H 1978  11.240   3.184   4.805  2.7509 -1.2578 -0.3514
   15MOL0     H 1979  11.351   3.066   4.611 -0.0673  0.6727 -0.5814
   15MOL0     H 1980  11.447   3.173   4.725  0.1760  0.3367 -0.1345
   15MOL0     H 1981  11.388   3.338   4.516  1.6436  0.8635 -0.3871
   15MOL0     H 1982  11.377   3.180   4.435 -0.3550  1.3646  0.9384
   15MOL0     H 1983  11.605   3.243   4.405 -1.8768  1.1938  0.4839
   15MOL0     H 1984  11.591   3.109   4.518  1.2106  0.0805  0.0367
   15MOL0     H 1985  11.743   3.398   4.808 -0.3311  2.2398  1.8137
   15MOL0     H 1986  11.776   3.754   4.904  0.4794  0.1744  3.2756
   15MOL0     H 1987  11.782   3.579   4.959  3.3478  0.5552  1.4945
   15MOL0     H 1988  11.915   3.632   4.887  0.1790 -0.8968  1.4086
   15MOL0     H 1989  11.482   4.069   4.641  0.0325  0.4373 -1.2694
   15MOL0     H 1990  11.534   4.343   4.645  0.3019 -0.8822 -2.8565
   15MOL0     H 1991  11.890   4.531   4.834 -1.6214 -0.9891  0.5944
   15MOL0     H 1992  11.920   4.465   4.669 -0.2758 -0.4707  1.2623
   15MOL0     H 1993  11.922   4.698   4.648  1.8704 -5.1446  0.1434
   15MOL0     H 1994  11.762   4.657   4.586 -0.2919 -1.4762  0.7582
   15MOL0     H 1995  11.814   4.753   4.872  0.8251  0.3812 -0.6153
   15MOL0     H 1996  11.648   4.732   4.792 -0.6883  2.1092  1.6696
   15MOL0     H 1997  11.874   4.933   4.734 -0.0259  1.3456  1.1842
   15MOL0     H 1998  11.728   4.918   4.628 -3.9941  0.0181  2.0879
   15MOL0     H 1999  11.712   5.003   4.902  0.4057 -2.0271  1.1815
   15MOL0     H 2000  11.576   4.963   4.797 -0.2693  0.5253  3.1820
   15MOL0     H 2001  11.630   5.143   4.643  2.2448 -0.7602 -0.7784
   15MOL0     H 2002  11.626   5.204   4.817  0.9625  0.0744  2.0473
   15MOL0     H 2003  11.852   5.187   4.627 -1.2944 -0.2565  0.0047
   15MOL0     H 2004  11.888   5.163   4.802 -0.5027 -0.2387  0.4314
   15MOL0     H 2005  11.749   5.405   4.704 -1.4948  2.0479  4.2739
   15MOL0     H 2006  11.927   5.386   4.721  0.0790  2.6575  1.2494
   15MOL0     H 2007  11.888   4.273   4.842 -0.0315 -2.4283  2.5742
   15MOL0     H 2008  11.859   4.012   4.822  2.1373  1.6954 -1.9597
   15MOL0     H 2009  11.643   3.706   4.426  5.1390  2.1874 -0.1196
   15MOL0     H 2010  11.614   3.466   4.395  3.0336  0.3161 -1.0274
   15MOL0     H 2011  10.832   2.698   4.689 -1.1579 -2.6170 -6.7605
   15MOL0     H 2012  10.988   2.660   4.895  1.9302  0.6343 -1.5129
   15MOL0     H 2013  10.909   2.457   5.366 -0.0440 -0.9801 -1.3433
   15MOL0     H 2014  11.021   2.411   5.572 -0.7607 -0.6780  0.4675
   15MOL0     H 2015  11.301   2.284   5.775 -2.5516  0.6827 -0.1840
   15MOL0     H 2016  11.180   2.227   5.662 -0.5647  0.4805  0.0010
   15MOL0     H 2017  11.380   2.182   5.504  0.8924 -0.3516 -0.9635
   15MOL0     H 2018  11.368   2.078   5.647  1.0416 -0.5405 -2.3658
   15MOL0     H 2019  11.588   2.146   5.641 -0.6519 -0.1026  1.9364
   15MOL0     H 2020  11.523   2.231   5.777  1.9184 -0.3670  0.4391
   15MOL0     H 2021  11.536   2.445   5.610 -1.2129  0.5549 -3.4692
   15MOL0     H 2022  11.572   2.339   5.487 -0.1066  1.9379  0.4078
   15MOL0     H 2023  11.957   2.367   5.634  0.0023 -2.1859 -0.7064
   15MOL0     H 2024  11.399   2.410   5.361  0.5140 -1.5683  1.7810
   15MOL0     H 2025  11.268   2.425   5.145  2.2734 -0.8599  1.4125
   16MOL0     O 2026   9.674   7.145   2.232 -0.4143 -0.3177  0.5045
   16MOL0     C 2027   9.704   7.031   2.199 -0.6513  0.5213  0.1682
   16MOL0     O 2028   9.772   6.945   2.277  0.0056  0.5681  0.2774
   16MOL0     C 2029   9.821   6.967   2.406  0.6687 -0.4375 -0.3102
   16MOL0     C 2030   9.885   7.080   2.450 -1.4482 -0.3563 -0.4354
   16MOL0     C 2031   9.921   7.103   2.584  0.3466 -0.1878 -0.4755
   16MOL0     C 2032   9.882   7.009   2.681 -0.8646 -1.0443  0.6374
   16MOL0     O 2033   9.923   7.040   2.814  0.0508  0.0885  0.2513
   16MOL0     C 2034   9.845   6.974   2.917  0.4474 -0.0331 -0.2335
   16MOL0     C 2035   9.941   6.967   3.035  0.1758  0.0257 -0.1399
   16MOL0     C 2036   9.972   7.110   3.092  0.0375  0.2886  0.1428
   16MOL0     C 2037  10.001   7.106   3.237  0.3114 -0.2436 -0.1208
   16MOL0     C 2038  10.038   7.255   3.280 -0.8467  0.0374  0.2904
   16MOL0     C 2039  10.103   7.257   3.420  0.2894 -0.2210 -0.3366
   16MOL0     C 2040  10.143   7.400   3.467  0.5090 -1.0137  0.7317
   16MOL0     C 2041  10.174   7.405   3.613  0.0860 -0.7092  0.4796
   16MOL0     N 2042  10.059   7.374   3.698  0.5930  0.1979 -0.7739
   16MOL0     C 2043  10.039   7.259   3.758  0.1897  0.4097 -0.6072
   16MOL0     C 2044   9.917   7.258   3.826  0.0953  0.3827  0.2233
   16MOL0     C 2045   9.867   7.142   3.904  0.5683  0.4901 -0.2502
   16MOL0     C 2046   9.958   7.108   4.035 -0.9399  0.2384 -1.1218
   16MOL0     C 2047   9.981   7.241   4.108 -0.2437  0.8629 -0.1689
   16MOL0     C 2048  10.039   7.214   4.254 -0.6489 -0.5338  0.0615
   16MOL0     O 2049   9.938   7.158   4.340 -0.4101  0.0269  0.1020
   16MOL0     C 2050   9.978   7.053   4.419 -0.4152 -0.2379 -0.1487
   16MOL0     C 2051   9.887   6.956   4.460  0.5056  0.7827 -0.2257
   16MOL0     C 2052   9.909   6.865   4.560  0.1974 -0.0591 -0.2042
   16MOL0     C 2053   9.794   6.771   4.579 -0.0952  0.2795 -0.4674
   16MOL0     C 2054  10.031   6.875   4.630 -0.1194 -0.4864 -0.0198
   16MOL0     C 2055  10.075   6.790   4.746 -0.0774  0.0194  0.1171
   16MOL0     O 2056  10.199   6.801   4.780  1.0279  0.3203 -0.5704
   16MOL0     C 2057  10.235   6.738   4.898 -0.1556  0.4429  0.1665
   16MOL0     C 2058  10.332   6.640   4.893 -0.1764  0.3560 -1.0598
   16MOL0     C 2059  10.369   6.573   5.007 -0.3943 -0.6421  1.4772
   16MOL0     C 2060  10.315   6.604   5.132  0.3881  0.0831  0.4802
   16MOL0     O 2061  10.354   6.517   5.230  0.0627  0.5095 -0.0970
   16MOL0     C 2062  10.259   6.488   5.339 -0.1378  0.5184  1.0839
   16MOL0     C 2063  10.286   6.345   5.388 -0.2805  0.9199  0.1614
   16MOL0     C 2064  10.168   6.285   5.461 -0.1452 -0.8016 -0.0012
   16MOL0     C 2065  10.192   6.130   5.474  0.1363  0.6617  0.0381
   16MOL0     C 2066  10.160   6.061   5.608  0.3647 -0.1027  0.3111
   16MOL0     C 2067  10.024   6.082   5.653 -0.2045  0.3894  0.1942
   16MOL0     C 2068  10.018   6.017   5.786  0.6912  0.2706 -0.1594
   16MOL0     C 2069   9.882   5.955   5.808 -0.2478  0.7074  1.3139
   16MOL0    Cl 2070   9.765   6.077   5.792  0.0730 -0.1630  0.3070
   16MOL0     C 2071  10.221   6.711   5.145 -0.1998  0.1824 -0.4115
   16MOL0     C 2072  10.183   6.780   5.025 -0.1321 -0.2968  0.2304
   16MOL0     O 2073   9.993   6.724   4.807 -0.5301  0.2543  0.4172
   16MOL0     C 2074  10.127   6.965   4.580 -1.3170  0.0552  0.3579
   16MOL0     C 2075  10.106   7.052   4.478  0.0400 -0.8921 -0.3592
   16MOL0     N 2076   9.867   7.385   3.807 -1.2659  0.9893 -0.7131
   16MOL0     N 2077   9.955   7.451   3.746  0.2946  0.3598  0.2818
   16MOL0     C 2078   9.812   6.898   2.642  0.0297 -0.2131  0.9797
   16MOL0     C 2079   9.793   6.873   2.503  0.4874  0.0259  1.1601
   16MOL0     C 2080   9.659   6.998   2.066  0.3924 -0.0644 -0.3752
   16MOL0     C 2081   9.573   7.081   1.986  1.2605 -0.4153 -0.3720
   16MOL0     C 2082   9.501   7.019   1.883 -1.3937 -0.0841  1.8253
   16MOL0     C 2083   9.529   6.885   1.833 -0.6585 -0.1868  0.3656
   16MOL0     O 2084   9.475   6.816   1.727 -0.5249 -0.0137  0.1005
   16MOL0     C 2085   9.348   6.858   1.679 -0.0168  0.2094  0.9008
   16MOL0     C 2086   9.232   6.768   1.711 -0.3138  0.8696 -0.8475
   16MOL0     C 2087   9.210   6.771   1.867  1.1264  0.9134  0.2795
   16MOL0     C 2088   9.067   6.711   1.898 -1.0084  0.2387 -0.0928
   16MOL0     C 2089   9.015   6.706   2.033  0.1649 -1.0984 -0.1513
   16MOL0     C 2090   8.952   6.722   2.131  0.9253 -0.3857 -0.0061
   16MOL0     C 2091   9.622   6.823   1.913  0.2487 -0.0287 -0.3770
   16MOL0     C 2092   9.687   6.870   2.025  0.2829  0.1675  0.5820
   16MOL0     H 2093   9.903   7.158   2.377  0.0563  0.8095  1.0968
   16MOL0     H 2094   9.961   7.201   2.611 -1.4482  0.4828 -0.1092
   16MOL0     H 2095   9.752   7.026   2.941  0.0605 -0.0603 -1.5684
   16MOL0     H 2096   9.819   6.870   2.893 -0.8855 -0.1961  1.7116
   16MOL0     H 2097   9.902   6.895   3.108  2.5614 -1.6937 -0.4398
   16MOL0     H 2098  10.038   6.927   3.003  0.7402 -1.0325  2.6002
   16MOL0     H 2099  10.053   7.157   3.036  0.7864  0.5609  1.4138
   16MOL0     H 2100   9.881   7.170   3.080 -0.4641  0.0943  2.4272
   16MOL0     H 2101   9.909   7.066   3.281  0.8045 -0.9613  0.2699
   16MOL0     H 2102  10.082   7.038   3.264  0.0981 -0.5744 -0.3049
   16MOL0     H 2103  10.112   7.298   3.212 -2.1300 -0.9548 -1.8107
   16MOL0     H 2104   9.963   7.334   3.284  1.7024  2.6582  0.1153
   16MOL0     H 2105  10.030   7.205   3.484 -0.3155  0.4145 -0.5086
   16MOL0     H 2106  10.187   7.186   3.417 -0.8464 -1.5769 -1.9882
   16MOL0     H 2107  10.219   7.450   3.407 -0.2961  0.9367  1.2591
   16MOL0     H 2108  10.055   7.462   3.448 -1.6228 -4.3745 -1.7626
   16MOL0     H 2109  10.212   7.504   3.640 -1.0127 -0.2192  0.2878
   16MOL0     H 2110  10.242   7.323   3.636 -1.7252 -1.6090  3.2116
   16MOL0     H 2111  10.113   7.182   3.734 -0.1088 -0.4542  1.0302
   16MOL0     H 2112   9.762   7.149   3.934  0.9655 -1.0399  1.7124
   16MOL0     H 2113   9.863   7.054   3.839 -1.9572 -0.0987  0.5610
   16MOL0     H 2114  10.053   7.057   4.016 -0.5892 -0.4714  2.0748
   16MOL0     H 2115   9.905   7.042   4.104  1.9813 -0.4421  0.6448
   16MOL0     H 2116   9.887   7.297   4.115  1.0005  3.0122  0.2277
   16MOL0     H 2117  10.048   7.307   4.053  1.0700 -0.5659 -0.3493
   16MOL0     H 2118  10.080   7.295   4.315 -3.5407  1.0781  0.0736
   16MOL0     H 2119  10.115   7.143   4.221  2.7027  3.0424 -0.7462
   16MOL0     H 2120   9.790   6.955   4.411 -1.1256 -1.4379  2.7673
   16MOL0     H 2121   9.719   6.820   4.642 -0.2919 -0.7228  0.0949
   16MOL0     H 2122   9.755   6.736   4.483  0.1333 -0.6355 -0.2418
   16MOL0     H 2123   9.831   6.688   4.640 -0.3543 -0.5780 -1.4415
   16MOL0     H 2124  10.381   6.607   4.802  2.4402  0.9432  0.0405
   16MOL0     H 2125  10.445   6.497   4.994  1.6418  1.7814 -2.7231
   16MOL0     H 2126  10.270   6.551   5.427 -1.2917  0.3824  1.3365
   16MOL0     H 2127  10.156   6.497   5.304  0.0795  1.7164  0.7115
   16MOL0     H 2128  10.290   6.279   5.301 -0.2754  1.5179 -0.3013
   16MOL0     H 2129  10.374   6.323   5.449  0.8089 -1.2679 -2.0526
   16MOL0     H 2130  10.080   6.291   5.397  0.1412 -0.6644 -0.3886
   16MOL0     H 2131  10.170   6.339   5.557  0.2115 -1.3638  0.3156
   16MOL0     H 2132  10.135   6.087   5.392 -0.1261  2.9094 -1.0443
   16MOL0     H 2133  10.298   6.118   5.451 -0.0542  1.0640 -1.1331
   16MOL0     H 2134  10.218   6.096   5.694 -2.8512  2.5949  1.5982
   16MOL0     H 2135  10.173   5.953   5.599 -1.1765 -0.2388 -0.7105
   16MOL0     H 2136  10.002   6.186   5.675 -0.1600  0.1656  1.3342
   16MOL0     H 2137   9.961   6.028   5.581 -2.4188  0.4975  1.9474
   16MOL0     H 2138  10.045   6.078   5.874 -1.3933 -3.0525  3.0696
   16MOL0     H 2139  10.095   5.940   5.788  0.7404  0.3288  1.1624
   16MOL0     H 2140   9.879   5.902   5.904 -1.2402  0.8662  1.3804
   16MOL0     H 2141   9.866   5.865   5.748 -2.8684  3.8367 -3.3315
   16MOL0     H 2142  10.186   6.728   5.246  0.9961 -2.7040  0.5970
   16MOL0     H 2143  10.125   6.871   5.020  1.0084  0.3971 -1.4964
   16MOL0     H 2144  10.228   6.965   4.618 -1.4917 -3.4667  1.1466
   16MOL0     H 2145  10.181   7.121   4.442  0.2247  0.3232  2.1809
   16MOL0     H 2146   9.765   6.818   2.698 -2.1837  1.0156  0.9980
   16MOL0     H 2147   9.740   6.780   2.487 -0.0266 -0.0260  2.9535
   16MOL0     H 2148   9.538   7.181   2.008  3.5735  1.0474 -2.7336
   16MOL0     H 2149   9.418   7.075   1.842 -0.7576  1.1237  2.1465
   16MOL0     H 2150   9.327   6.964   1.692 -1.0651  0.0773  0.4259
   16MOL0     H 2151   9.357   6.833   1.573 -0.3371  1.6374  0.5188
   16MOL0     H 2152   9.239   6.665   1.675  0.3734  0.9990 -1.1107
   16MOL0     H 2153   9.146   6.817   1.665 -1.0348  0.6653  0.2620
   16MOL0     H 2154   9.191   6.874   1.897 -2.9010  1.0075 -1.8266
   16MOL0     H 2155   9.286   6.724   1.931 -0.2419  1.2485  2.2364
   16MOL0     H 2156   9.070   6.604   1.871  2.3880 -1.7869  6.2874
   16MOL0     H 2157   8.991   6.765   1.841 -1.3310 -1.4405 -1.3341
   16MOL0     H 2158   8.888   6.757   2.209 -0.9156  0.4413 -1.7905
   16MOL0     H 2159   9.644   6.718   1.898  2.3393 -0.0229  1.9907
   16MOL0     H 2160   9.754   6.798   2.071  0.1369 -1.1255 -1.1276
   17MOL0     O 2161   8.480   8.671   4.987  0.3911 -0.0470  0.4938
   17MOL0     C 2162   8.581   8.726   4.942 -0.6062 -0.5288 -0.3538
   17MOL0     O 2163   8.704   8.738   5.001 -0.4924 -0.1626  0.3277
   17MOL0     C 2164   8.727   8.675   5.118 -0.8862  0.3388  0.7372
   17MOL0     C 2165   8.824   8.733   5.209  0.9325 -0.2179 -0.1794
   17MOL0     C 2166   8.856   8.667   5.326  0.3855 -1.1570 -0.6474
   17MOL0     C 2167   8.799   8.543   5.352  0.0719 -0.3538  0.8167
   17MOL0     O 2168   8.833   8.479   5.459 -0.6505  0.0455 -0.1689
   17MOL0     C 2169   8.756   8.484   5.578 -0.9489 -0.3963 -0.0164
   17MOL0     C 2170   8.844   8.535   5.682  0.1136  0.3556 -0.8065
   17MOL0     C 2171   8.755   8.582   5.798  0.2168  0.5874  0.5773
   17MOL0     C 2172   8.838   8.654   5.909  0.1483  0.2292  0.4092
   17MOL0     C 2173   8.761   8.698   6.027  0.3611  0.1513  0.6387
   17MOL0     C 2174   8.673   8.825   5.988  0.2238 -0.0587 -0.5441
   17MOL0     C 2175   8.628   8.896   6.117  0.0859  0.0629 -0.8544
   17MOL0     C 2176   8.502   8.976   6.096 -0.2417 -0.2521 -0.2357
   17MOL0     N 2177   8.504   9.094   6.018 -0.1557  0.4195 -0.2633
   17MOL0     C 2178   8.552   9.215   6.050  0.2243  0.1710 -1.2609
   17MOL0     C 2179   8.528   9.288   5.942  0.1396 -0.6197  0.1888
   17MOL0     C 2180   8.562   9.433   5.929 -0.0841  0.4300  0.3464
   17MOL0     C 2181   8.676   9.454   5.831  0.2135 -0.8404  0.5566
   17MOL0     C 2182   8.815   9.406   5.885  0.8813 -0.5919  0.2963
   17MOL0     C 2183   8.851   9.479   6.018 -0.3752 -0.1872  0.6480
   17MOL0     O 2184   8.990   9.460   6.042  0.3455  0.4408 -0.0841
   17MOL0     C 2185   9.030   9.466   6.175  0.0876  0.8090 -0.7419
   17MOL0     C 2186   8.962   9.434   6.291  0.2274  0.0138 -0.7417
   17MOL0     C 2187   9.016   9.461   6.419  0.5106  0.6528 -0.0373
   17MOL0     C 2188   8.921   9.446   6.542 -0.6595  0.1047  0.3595
   17MOL0     C 2189   9.142   9.501   6.440 -0.1380  0.4231  0.7265
   17MOL0     C 2190   9.217   9.519   6.565  0.5281  1.0292  0.1903
   17MOL0     O 2191   9.282   9.413   6.628 -0.1968 -0.1024  0.7519
   17MOL0     C 2192   9.371   9.442   6.725 -0.2160 -0.0532  0.3836
   17MOL0     C 2193   9.492   9.361   6.727 -0.6741  0.5829 -1.0349
   17MOL0     C 2194   9.595   9.391   6.825  0.5283 -0.4230 -0.0339
   17MOL0     C 2195   9.566   9.475   6.941 -0.5160 -0.3739  0.0495
   17MOL0     O 2196   9.658   9.496   7.040 -0.0077 -0.3196  0.6210
   17MOL0     C 2197   9.782   9.420   7.041 -1.3826  0.6432  0.3630
   17MOL0     C 2198   9.755   9.262   7.082 -0.5365 -0.4169 -0.7716
   17MOL0     C 2199   9.879   9.174   7.118 -0.3720  0.7740 -0.1920
   17MOL0     C 2200   9.953   9.210   7.246 -0.0034 -0.0573 -0.8144
   17MOL0     C 2201  10.053   9.100   7.287 -0.6888  0.7279  1.1825
   17MOL0     C 2202  10.066   9.098   7.445  0.3930  0.9684  0.3121
   17MOL0     C 2203  10.190   9.011   7.484 -0.1649  0.5609  0.1583
   17MOL0     C 2204  10.178   8.861   7.502  0.7834 -0.5460 -0.3228
   17MOL0    Cl 2205  10.102   8.790   7.351 -0.1369  0.1580 -0.3902
   17MOL0     C 2206   9.443   9.542   6.940  1.5793 -1.1214  0.6569
   17MOL0     C 2207   9.349   9.528   6.835 -0.4458 -0.2106  0.7439
   17MOL0     O 2208   9.220   9.639   6.599 -0.5207 -0.1233 -0.2053
   17MOL0     C 2209   9.217   9.525   6.322 -0.1190 -0.1917 -0.5965
   17MOL0     C 2210   9.164   9.510   6.198  0.0793 -0.1567  0.6462
   17MOL0     N 2211   8.470   9.210   5.843  0.5999 -0.8953 -0.3022
   17MOL0     N 2212   8.468   9.090   5.885 -0.6165 -0.1874  0.2520
   17MOL0     C 2213   8.725   8.473   5.257 -0.4686 -0.4249  0.0321
   17MOL0     C 2214   8.690   8.546   5.147  0.8111 -0.6364  0.8582
   17MOL0     C 2215   8.571   8.777   4.796  0.9131  0.6108 -0.5262
   17MOL0     C 2216   8.439   8.792   4.742  0.4215  0.4681 -0.0627
   17MOL0     C 2217   8.421   8.846   4.613 -1.0390  0.1581  0.8873
   17MOL0     C 2218   8.537   8.877   4.538 -0.4030 -0.2182 -0.0655
   17MOL0     O 2219   8.538   8.919   4.404 -0.6053  0.1083 -0.3110
   17MOL0     C 2220   8.416   8.951   4.336 -1.1331 -1.3127  0.0788
   17MOL0     C 2221   8.457   9.014   4.202  0.7720 -0.6295 -0.1253
   17MOL0     C 2222   8.371   9.133   4.169  0.9957  0.3203 -0.4478
   17MOL0     C 2223   8.224   9.096   4.132  0.1550 -0.8725  0.0213
   17MOL0     C 2224   8.204   9.015   4.015 -0.0336 -0.5741  0.4999
   17MOL0     C 2225   8.208   8.941   3.921 -0.3275 -0.1853 -0.6412
   17MOL0     C 2226   8.663   8.853   4.592 -0.1750 -0.1748 -0.9201
   17MOL0     C 2227   8.681   8.794   4.713 -0.6308  0.0676  0.5508
   17MOL0     H 2228   8.878   8.821   5.175  1.0055 -0.9658 -2.0926
   17MOL0     H 2229   8.919   8.718   5.398  1.5355 -3.2589 -0.0924
   17MOL0     H 2230   8.665   8.543   5.562  1.1546  2.7907 -1.2665
   17MOL0     H 2231   8.728   8.380   5.599 -3.0773 -0.4313 -2.4894
   17MOL0     H 2232   8.890   8.438   5.704 -1.9924 -0.2480  1.3191
   17MOL0     H 2233   8.927   8.600   5.654  1.4941  0.5535  3.1128
   17MOL0     H 2234   8.689   8.663   5.767  0.6354  1.5163  2.0063
   17MOL0     H 2235   8.694   8.500   5.836  0.3001  0.4310  0.3725
   17MOL0     H 2236   8.918   8.587   5.942  1.3218 -0.6069 -3.6034
   17MOL0     H 2237   8.892   8.739   5.867 -2.3384  1.8752  0.3733
   17MOL0     H 2238   8.698   8.619   6.068  0.0386 -0.1197 -0.3357
   17MOL0     H 2239   8.843   8.726   6.093  1.7545 -0.4842 -0.7428
   17MOL0     H 2240   8.746   8.889   5.937  2.3453 -1.2006  0.8624
   17MOL0     H 2241   8.592   8.791   5.922 -0.2992  1.4096 -0.6752
   17MOL0     H 2242   8.618   8.820   6.195  0.2989 -0.9729 -1.8144
   17MOL0     H 2243   8.703   8.971   6.142  1.4614 -0.9996 -1.6716
   17MOL0     H 2244   8.462   9.009   6.192  3.2182  2.8610  0.3577
   17MOL0     H 2245   8.427   8.908   6.055 -2.6111  1.9181  0.2219
   17MOL0     H 2246   8.598   9.239   6.145 -2.0214 -4.2537  1.2619
   17MOL0     H 2247   8.470   9.484   5.898 -0.7762 -1.1702 -0.3200
   17MOL0     H 2248   8.582   9.474   6.029  0.3600  0.5208  0.2232
   17MOL0     H 2249   8.669   9.559   5.801  0.3837 -1.5770 -2.3576
   17MOL0     H 2250   8.678   9.400   5.736  0.7176  2.4816 -1.4841
   17MOL0     H 2251   8.899   9.432   5.819  4.9411  1.6464  5.6049
   17MOL0     H 2252   8.812   9.301   5.916 -1.0172 -0.3225  1.1478
   17MOL0     H 2253   8.787   9.437   6.096  1.8324  0.5278  2.9884
   17MOL0     H 2254   8.832   9.586   6.021  0.8732  0.0227  2.1749
   17MOL0     H 2255   8.861   9.395   6.296  0.5014 -0.7856 -1.2996
   17MOL0     H 2256   8.923   9.546   6.585 -1.2270  0.6775 -0.8846
   17MOL0     H 2257   8.818   9.428   6.511 -0.2723 -1.0582 -0.3100
   17MOL0     H 2258   8.950   9.375   6.620 -2.8783  0.7603  1.8820
   17MOL0     H 2259   9.501   9.285   6.650  4.0719 -1.5308  1.2469
   17MOL0     H 2260   9.686   9.338   6.800  1.4161 -0.2395  2.4486
   17MOL0     H 2261   9.836   9.431   6.947 -3.1029  2.4981 -0.4997
   17MOL0     H 2262   9.844   9.463   7.121  1.0158  2.5347 -2.3002
   17MOL0     H 2263   9.685   9.274   7.166 -1.9242  0.7979 -2.0467
   17MOL0     H 2264   9.697   9.210   7.006  1.3261  0.3065 -2.7890
   17MOL0     H 2265   9.953   9.188   7.039  1.5284  4.4143  1.9705
   17MOL0     H 2266   9.839   9.072   7.119  0.0095  0.4876 -3.4372
   17MOL0     H 2267   9.991   9.313   7.247  2.3636 -0.8111 -2.8792
   17MOL0     H 2268   9.876   9.211   7.324 -1.7406 -1.1108 -2.4270
   17MOL0     H 2269  10.143   9.127   7.232 -2.6611  1.2835 -2.0147
   17MOL0     H 2270  10.023   9.000   7.255  0.6723  1.1542 -1.7597
   17MOL0     H 2271  10.081   9.188   7.505  1.1759 -0.0793  1.7396
   17MOL0     H 2272   9.976   9.053   7.488  0.2483 -0.0742 -1.0047
   17MOL0     H 2273  10.232   9.052   7.576  1.3775  0.5558 -0.4965
   17MOL0     H 2274  10.266   9.023   7.406 -0.1974 -1.5069 -0.2364
   17MOL0     H 2275  10.127   8.830   7.594  1.2763 -2.6632 -0.7154
   17MOL0     H 2276  10.277   8.817   7.518  0.1732 -1.5178  1.0395
   17MOL0     H 2277   9.410   9.619   7.009  0.6448 -0.9395  0.0220
   17MOL0     H 2278   9.253   9.577   6.826  0.5869  1.5713 -1.6433
   17MOL0     H 2279   9.320   9.562   6.325  0.4455 -1.4770 -2.4491
   17MOL0     H 2280   9.238   9.535   6.124 -0.8954 -0.8700 -0.6046
   17MOL0     H 2281   8.705   8.368   5.273  1.3299 -0.9484 -0.8389
   17MOL0     H 2282   8.622   8.493   5.080  1.9602  0.2280 -1.0658
   17MOL0     H 2283   8.354   8.760   4.802  1.8462 -0.9478  1.3253
   17MOL0     H 2284   8.321   8.861   4.573 -0.7992 -1.7110 -0.5502
   17MOL0     H 2285   8.352   8.867   4.310 -1.6406 -1.9747  3.1563
   17MOL0     H 2286   8.356   9.023   4.393  0.4751  0.8918 -0.8383
   17MOL0     H 2287   8.456   8.944   4.118 -0.8925 -0.2579 -0.4405
   17MOL0     H 2288   8.557   9.058   4.211 -0.1500  1.3314  1.4428
   17MOL0     H 2289   8.415   9.202   4.096  0.5594  0.1847 -0.8422
   17MOL0     H 2290   8.362   9.202   4.253  0.8550  0.2636 -0.4160
   17MOL0     H 2291   8.165   9.186   4.116 -0.6205 -1.7436 -2.3121
   17MOL0     H 2292   8.171   9.053   4.218 -0.1704  0.0763  0.3086
   17MOL0     H 2293   8.211   8.880   3.833  0.4042 -1.8001  0.4521
   17MOL0     H 2294   8.752   8.872   4.533 -0.1449 -0.9312 -1.1322
   17MOL0     H 2295   8.782   8.776   4.749 -1.3147 -0.8322  2.1431
   18MOL0     O 2296   3.087   4.430  10.024  0.3240  0.4175  0.3120
   18MOL0     C 2297   2.995   4.411   9.942 -0.5929 -0.8669 -0.4554
   18MOL0     O 2298   2.986   4.305   9.862 -0.4231  0.4688  0.2557
   18MOL0     C 2299   3.111   4.244   9.822  0.1313 -0.5049  0.8079
   18MOL0     C 2300   3.109   4.111   9.785  0.3573 -0.0025  0.6584
   18MOL0     C 2301   3.215   4.045   9.718  0.5208  0.1850 -0.0065
   18MOL0     C 2302   3.336   4.115   9.702  1.0893 -0.3305  0.1235
   18MOL0     O 2303   3.451   4.061   9.654  0.0334  0.1960 -0.0704
   18MOL0     C 2304   3.450   3.947   9.556  0.3149 -0.1314 -0.3185
   18MOL0     C 2305   3.592   3.913   9.519  0.3262 -0.2741  0.6063
   18MOL0     C 2306   3.619   3.785   9.446  0.9471 -0.0567  1.0426
   18MOL0     C 2307   3.756   3.765   9.370 -0.4753  0.0955  0.7532
   18MOL0     C 2308   3.775   3.639   9.278 -0.4934 -0.3732 -0.7810
   18MOL0     C 2309   3.816   3.508   9.348 -0.5520  0.3149 -0.3515
   18MOL0     C 2310   3.843   3.393   9.245 -0.5158  0.2826  0.3765
   18MOL0     C 2311   3.730   3.297   9.221 -0.5178  0.6782  0.0614
   18MOL0     N 2312   3.601   3.362   9.183  0.7975 -0.0320 -0.2468
   18MOL0     C 2313   3.579   3.392   9.054  0.0965 -0.4818 -0.6604
   18MOL0     C 2314   3.471   3.464   9.061 -0.8328 -0.9458  0.1809
   18MOL0     C 2315   3.407   3.531   8.940  0.9832 -0.4685  0.5272
   18MOL0     C 2316   3.444   3.689   8.931  0.2192  0.9431  0.3787
   18MOL0     C 2317   3.356   3.760   8.833  0.0307 -0.5864 -0.4628
   18MOL0     C 2318   3.363   3.722   8.685 -0.9938 -0.7557  0.7816
   18MOL0     O 2319   3.284   3.806   8.594 -0.0527 -0.6081 -0.3494
   18MOL0     C 2320   3.350   3.914   8.538 -1.2900  0.1316 -0.9612
   18MOL0     C 2321   3.464   3.908   8.445  0.3582 -0.7538 -0.1918
   18MOL0     C 2322   3.542   4.012   8.394 -0.1350  0.1689 -0.7271
   18MOL0     C 2323   3.657   3.986   8.302 -0.4025 -0.6401 -0.0609
   18MOL0     C 2324   3.505   4.144   8.441 -1.2167  0.4025  0.0407
   18MOL0     C 2325   3.579   4.272   8.427  0.2801 -0.3351 -0.3019
   18MOL0     O 2326   3.684   4.265   8.351  0.9860  0.0107  0.1260
   18MOL0     C 2327   3.752   4.366   8.301 -0.3210  0.3971 -0.4123
   18MOL0     C 2328   3.879   4.344   8.258  0.4091  0.6907  0.8146
   18MOL0     C 2329   3.951   4.454   8.202  0.2403 -1.0729 -0.1835
   18MOL0     C 2330   3.898   4.585   8.181  0.1514  0.2757 -0.4426
   18MOL0     O 2331   3.977   4.687   8.129 -0.6373 -0.7860 -0.6052
   18MOL0     C 2332   3.928   4.822   8.105 -1.1813  0.4430 -0.1044
   18MOL0     C 2333   4.027   4.917   8.014  0.9848  1.3752  0.5707
   18MOL0     C 2334   4.041   4.864   7.872 -0.4334 -0.0928  0.2077
   18MOL0     C 2335   4.122   4.732   7.853  0.2549 -0.2963 -0.1991
   18MOL0     C 2336   4.267   4.767   7.900 -0.9163  0.5062  0.1409
   18MOL0     C 2337   4.312   4.683   8.020 -0.4618 -0.3921 -0.1112
   18MOL0     C 2338   4.462   4.669   8.030  0.4583 -0.5279  0.6286
   18MOL0     C 2339   4.508   4.532   7.980 -0.7595  0.1834 -0.6283
   18MOL0    Cl 2340   4.684   4.519   8.004 -0.2413  0.0874  0.1968
   18MOL0     C 2341   3.766   4.598   8.230  0.5522 -0.9234  0.2591
   18MOL0     C 2342   3.700   4.493   8.288 -0.0095 -0.7413  0.1030
   18MOL0     O 2343   3.532   4.368   8.482 -0.5785 -1.0765 -0.5151
   18MOL0     C 2344   3.381   4.157   8.513 -0.9526  0.0624  0.1336
   18MOL0     C 2345   3.305   4.050   8.558 -0.0075 -0.0559  0.6877
   18MOL0     N 2346   3.422   3.471   9.189 -0.1833  0.4222  0.2292
   18MOL0     N 2347   3.497   3.391   9.265  0.4226 -0.2955  0.0967
   18MOL0     C 2348   3.339   4.252   9.733 -0.0668 -0.6370 -0.2559
   18MOL0     C 2349   3.228   4.314   9.785  0.1123  0.9587 -1.0198
   18MOL0     C 2350   2.877   4.488   9.968 -0.5478  0.3115 -0.1816
   18MOL0     C 2351   2.756   4.442   9.911  0.1430 -0.3930  0.0891
   18MOL0     C 2352   2.637   4.521   9.927  0.1464 -0.4561 -0.3727
   18MOL0     C 2353   2.623   4.643   9.991  0.8790 -0.2610  0.1434
   18MOL0     O 2354   2.500   4.704   9.993 -0.5273  0.8633 -0.6511
   18MOL0     C 2355   2.425   4.661  10.110  0.6505 -0.5349  0.2022
   18MOL0     C 2356   2.277   4.685  10.061 -0.0569 -0.4947  0.0144
   18MOL0     C 2357   2.229   4.586   9.956 -0.1424 -0.0394 -0.7758
   18MOL0     C 2358   2.080   4.577   9.939 -0.1845 -0.8623 -1.0576
   18MOL0     C 2359   1.997   4.545  10.052 -0.1214  0.4749 -0.9351
   18MOL0     C 2360   1.934   4.493  10.137  0.6371  0.6248  0.7496
   18MOL0     C 2361   2.746   4.697  10.041 -0.1227  0.6865  0.7235
   18MOL0     C 2362   2.869   4.618  10.033  0.5152 -0.2982 -0.0543
   18MOL0     H 2363   3.012   4.066   9.807  0.5417 -0.2717  0.9247
   18MOL0     H 2364   3.203   3.940   9.693  0.1362  0.1051  0.5020
   18MOL0     H 2365   3.417   3.855   9.606 -0.0673 -0.5197 -1.2720
   18MOL0     H 2366   3.385   3.953   9.469 -0.2460 -5.2195 -0.5622
   18MOL0     H 2367   3.618   3.987   9.443  1.8444 -1.3610  0.0009
   18MOL0     H 2368   3.659   3.916   9.605 -2.5310  3.6477  3.0150
   18MOL0     H 2369   3.613   3.704   9.519  1.4210 -2.0426 -1.0182
   18MOL0     H 2370   3.534   3.777   9.378  2.2343 -0.1691 -0.6211
   18MOL0     H 2371   3.785   3.849   9.306 -0.0670 -1.1315 -0.7445
   18MOL0     H 2372   3.831   3.763   9.449 -0.5612  1.9906  0.9380
   18MOL0     H 2373   3.674   3.624   9.237 -0.7784 -1.8933  0.3878
   18MOL0     H 2374   3.845   3.645   9.195  0.5558 -4.5380 -0.4269
   18MOL0     H 2375   3.909   3.530   9.400 -1.3856  0.0627  1.3018
   18MOL0     H 2376   3.751   3.477   9.431 -0.4149  0.6400 -0.1225
   18MOL0     H 2377   3.875   3.440   9.151 -0.6731  1.5276  0.9298
   18MOL0     H 2378   3.928   3.335   9.284 -1.9852 -0.9088  1.9373
   18MOL0     H 2379   3.721   3.234   9.310 -1.3952  1.9543  0.9081
   18MOL0     H 2380   3.757   3.236   9.134 -0.1740  2.7613 -1.3795
   18MOL0     H 2381   3.641   3.368   8.968 -1.5428  1.6668 -2.5642
   18MOL0     H 2382   3.425   3.472   8.850 -0.6413 -0.9424  0.4736
   18MOL0     H 2383   3.298   3.530   8.948  0.7582  1.7525 -1.2250
   18MOL0     H 2384   3.548   3.699   8.899  0.9605 -1.9394  1.6304
   18MOL0     H 2385   3.431   3.738   9.028 -0.1886  2.0393 -0.2102
   18MOL0     H 2386   3.385   3.865   8.846 -0.1367 -0.5108 -0.7041
   18MOL0     H 2387   3.253   3.756   8.870  0.6295 -1.8102  1.2058
   18MOL0     H 2388   3.327   3.619   8.672  0.0033 -0.7883 -2.7394
   18MOL0     H 2389   3.468   3.733   8.656 -0.3705  2.6215  3.5725
   18MOL0     H 2390   3.494   3.805   8.425  0.0664 -0.6272 -1.3213
   18MOL0     H 2391   3.645   3.903   8.232 -1.9610  0.1925 -0.8340
   18MOL0     H 2392   3.665   4.073   8.236 -2.5509 -0.8045 -0.6181
   18MOL0     H 2393   3.743   3.965   8.366 -1.7034  1.2819  2.4881
   18MOL0     H 2394   3.922   4.246   8.274  0.1274  0.7177  1.7914
   18MOL0     H 2395   4.053   4.446   8.164  0.2659  0.6076 -0.5356
   18MOL0     H 2396   3.836   4.816   8.045  0.6405 -4.5380 -3.0052
   18MOL0     H 2397   3.926   4.864   8.206  0.3437 -2.0888  1.0765
   18MOL0     H 2398   3.971   5.009   7.996 -1.0592  0.1158  0.1682
   18MOL0     H 2399   4.126   4.930   8.058  1.4687  1.9237 -0.6469
   18MOL0     H 2400   4.086   4.937   7.805 -1.7806 -0.0430 -0.6771
   18MOL0     H 2401   3.938   4.857   7.837 -0.7544  2.5604  0.3865
   18MOL0     H 2402   4.075   4.645   7.899  0.4251  0.7090  2.0180
   18MOL0     H 2403   4.120   4.711   7.746 -0.8108 -0.4259 -0.1640
   18MOL0     H 2404   4.289   4.873   7.895  1.7808 -0.0225 -0.4774
   18MOL0     H 2405   4.330   4.733   7.818 -1.1792 -0.4668  0.3201
   18MOL0     H 2406   4.279   4.740   8.108  0.9317 -1.2919  1.0468
   18MOL0     H 2407   4.268   4.583   8.020  2.1563 -1.6417 -1.3803
   18MOL0     H 2408   4.498   4.687   8.132  1.4297  1.2103  0.0049
   18MOL0     H 2409   4.513   4.742   7.968 -1.1263  0.4655  0.4489
   18MOL0     H 2410   4.478   4.524   7.875 -0.9762 -1.1417 -0.4800
   18MOL0     H 2411   4.458   4.457   8.042  1.0737 -0.6093 -0.0522
   18MOL0     H 2412   3.716   4.694   8.225  1.9692 -0.2306 -2.0360
   18MOL0     H 2413   3.597   4.511   8.319 -0.5335 -2.0759 -0.7680
   18MOL0     H 2414   3.342   4.258   8.512 -1.4055 -0.0296 -3.2327
   18MOL0     H 2415   3.203   4.056   8.594  0.4603  1.4725  1.8758
   18MOL0     H 2416   3.427   4.311   9.712 -0.9042  1.2702  1.1942
   18MOL0     H 2417   3.239   4.418   9.813  2.6124  0.2622  0.9883
   18MOL0     H 2418   2.747   4.346   9.862  1.7311 -1.5220  1.8851
   18MOL0     H 2419   2.553   4.484   9.869 -2.2273  0.7659  2.0891
   18MOL0     H 2420   2.448   4.556  10.128  0.6193 -0.5374  0.2235
   18MOL0     H 2421   2.442   4.729  10.194 -2.5436  0.5686  0.1024
   18MOL0     H 2422   2.249   4.783  10.020 -0.0852 -0.5814 -0.1774
   18MOL0     H 2423   2.209   4.674  10.146 -2.7254 -2.1372 -2.1519
   18MOL0     H 2424   2.273   4.488   9.976  2.2589  1.0806 -0.1423
   18MOL0     H 2425   2.267   4.610   9.857 -0.1654  0.5741 -0.6388
   18MOL0     H 2426   2.070   4.496   9.866  2.4554 -1.4099 -0.9082
   18MOL0     H 2427   2.051   4.672   9.893  2.6252  1.3804  1.4412
   18MOL0     H 2428   1.875   4.452  10.216 -0.5489  2.2764  0.7800
   18MOL0     H 2429   2.741   4.796  10.086 -4.3799  0.9177  0.0658
   18MOL0     H 2430   2.957   4.665  10.075  1.3925 -1.7124 -0.2382
   19MOL0     O 2431  10.909   6.508   9.574  0.6820 -0.0722 -0.0499
   19MOL0     C 2432  10.893   6.457   9.461 -0.0002  0.2316  0.4021
   19MOL0     O 2433  10.815   6.343   9.429 -0.0465 -0.8345 -0.2387
   19MOL0     C 2434  10.767   6.260   9.528  0.2015 -0.2120 -0.8403
   19MOL0     C 2435  10.671   6.174   9.491  0.3042 -0.0685  0.2326
   19MOL0     C 2436  10.612   6.078   9.577 -0.2560 -0.8804  0.0856
   19MOL0     C 2437  10.684   6.048   9.697  0.4823 -0.1352  0.0107
   19MOL0     O 2438  10.653   5.934   9.769  0.0450 -0.2752 -0.4425
   19MOL0     C 2439  10.531   5.938   9.841 -0.1878  0.2310  0.3641
   19MOL0     C 2440  10.485   5.801   9.882  0.1545  0.0202 -0.0133
   19MOL0     C 2441  10.584   5.755   9.991 -0.0172 -1.0167 -0.7572
   19MOL0     C 2442  10.551   5.619  10.050 -1.1563  0.2701  0.1235
   19MOL0     C 2443  10.406   5.600  10.091 -0.0694 -0.1917  0.4424
   19MOL0     C 2444  10.385   5.685  10.216  0.5993 -0.9881  0.2056
   19MOL0     C 2445  10.258   5.646  10.287  1.0331 -0.0188 -0.0850
   19MOL0     C 2446  10.269   5.682  10.435 -0.2329  0.4161 -0.4076
   19MOL0     N 2447  10.189   5.588  10.519  0.1501 -0.2790  1.2541
   19MOL0     C 2448  10.053   5.567  10.512 -0.3721 -0.3077 -0.4249
   19MOL0     C 2449  10.021   5.486  10.602  0.0879  0.0609  0.0970
   19MOL0     C 2450   9.879   5.462  10.618  0.9309  0.2304 -0.1595
   19MOL0     C 2451   9.873   5.310  10.666  0.9684  0.3684  0.0839
   19MOL0     C 2452   9.723   5.263  10.672  0.2814 -0.4156  0.5912
   19MOL0     C 2453   9.703   5.142  10.774 -0.1472 -0.1477  0.0694
   19MOL0     O 2454   9.702   5.195  10.908 -0.2632  0.6170  0.3294
   19MOL0     C 2455   9.598   5.266  10.960 -0.3058  0.3515 -0.9831
   19MOL0     C 2456   9.477   5.255  10.908  0.3408 -0.0513  0.5015
   19MOL0     C 2457   9.359   5.303  10.965 -0.3824 -0.0389 -0.7768
   19MOL0     C 2458   9.213   5.278  10.916  0.2096  0.4873  1.0513
   19MOL0     C 2459   9.365   5.369  11.091 -0.0632 -0.2777  0.5774
   19MOL0     C 2460   9.245   5.416  11.178  1.0732  0.1290 -1.1314
   19MOL0     O 2461   9.279   5.460  11.314 -0.2539  0.2237  0.6857
   19MOL0     C 2462   9.181   5.488  11.407 -0.0988 -1.0007  0.1755
   19MOL0     C 2463   9.053   5.424  11.416 -0.1643 -0.0473 -0.4883
   19MOL0     C 2464   8.984   5.434  11.538  0.1604 -0.0438  0.1150
   19MOL0     C 2465   9.038   5.503  11.645  0.5650 -0.0291 -0.4427
   19MOL0     O 2466   8.958   5.516  11.759 -0.2240  0.1848 -0.2769
   19MOL0     C 2467   9.020   5.537  11.893 -0.0494 -0.0260 -0.3417
   19MOL0     C 2468   8.943   5.450  11.997  0.7233 -0.2700 -0.4949
   19MOL0     C 2469   9.025   5.459  12.133  0.2074  1.1563 -0.2998
   19MOL0     C 2470   8.955   5.559  12.224  0.2186  0.3217 -1.0416
   19MOL0     C 2471   9.025   5.594  12.354  0.4360 -0.1130 -0.8585
   19MOL0     C 2472   8.926   5.564  12.468  0.6286  0.7725  0.0222
   19MOL0     C 2473   9.008   5.570  12.596  0.4013 -0.5563  0.0344
   19MOL0     C 2474   8.922   5.521  12.712 -0.1752 -0.6454  1.0234
   19MOL0    Cl 2475   8.890   5.353  12.700 -0.1146 -0.1349 -0.0993
   19MOL0     C 2476   9.149   5.581  11.628  0.4610  0.0175 -0.5444
   19MOL0     C 2477   9.218   5.578  11.503  0.4779  0.8581 -0.0488
   19MOL0     O 2478   9.133   5.416  11.133 -0.1161  0.3946 -0.2467
   19MOL0     C 2479   9.494   5.391  11.146  0.2554 -0.0096  0.3697
   19MOL0     C 2480   9.610   5.333  11.087 -0.7578 -0.3321  0.3917
   19MOL0     N 2481  10.137   5.454  10.678  0.1140  0.7605 -0.5643
   19MOL0     N 2482  10.237   5.522  10.628  0.1338  0.2700 -0.3017
   19MOL0     C 2483  10.781   6.143   9.741 -0.9922  0.0627 -0.9043
   19MOL0     C 2484  10.821   6.243   9.657  0.2365 -0.3372  0.8831
   19MOL0     C 2485  10.960   6.516   9.351  0.3220 -0.4813 -0.2728
   19MOL0     C 2486  11.035   6.627   9.377 -0.2476 -0.3285  0.2502
   19MOL0     C 2487  11.106   6.692   9.276  0.3966  0.6489 -0.1582
   19MOL0     C 2488  11.084   6.660   9.139 -0.2461  0.3132  0.5875
   19MOL0     O 2489  11.152   6.704   9.029  0.0235  0.1429  0.7747
   19MOL0     C 2490  11.288   6.649   9.021  0.6737 -0.5171  0.3736
   19MOL0     C 2491  11.332   6.598   8.881 -0.0508 -0.0146 -0.2979
   19MOL0     C 2492  11.333   6.705   8.769 -0.6913  0.1039  1.3471
   19MOL0     C 2493  11.369   6.639   8.640  0.5556  1.0837  0.5704
   19MOL0     C 2494  11.362   6.731   8.529 -0.3039 -0.1421  0.4188
   19MOL0     C 2495  11.327   6.784   8.425  0.0913  0.3805 -0.0548
   19MOL0     C 2496  11.003   6.560   9.112  0.4595 -0.8229  0.1534
   19MOL0     C 2497  10.938   6.486   9.213 -0.2172 -0.2594 -0.1711
   19MOL0     H 2498  10.616   6.198   9.400  1.6958 -1.1015 -0.9185
   19MOL0     H 2499  10.528   6.017   9.543  0.1511 -1.0261 -0.7042
   19MOL0     H 2500  10.555   6.002   9.927 -1.6308  4.7916 -2.2732
   19MOL0     H 2501  10.457   5.983   9.775 -0.3603  1.3135  1.2602
   19MOL0     H 2502  10.383   5.801   9.922 -0.0367  1.3972 -0.4501
   19MOL0     H 2503  10.479   5.738   9.792 -1.4628  0.2130 -0.0709
   19MOL0     H 2504  10.685   5.736   9.954 -0.6864 -2.3242 -1.9868
   19MOL0     H 2505  10.597   5.838  10.061  0.3595  1.6895 -3.7849
   19MOL0     H 2506  10.567   5.548   9.968 -2.9689 -1.4439  1.1617
   19MOL0     H 2507  10.625   5.590  10.126  0.0475  0.7074 -0.8481
   19MOL0     H 2508  10.338   5.624  10.009  3.3319  1.2726 -2.2353
   19MOL0     H 2509  10.387   5.494  10.112 -0.6293 -0.6341 -1.9044
   19MOL0     H 2510  10.472   5.672  10.282  2.4116  3.8220 -0.8143
   19MOL0     H 2511  10.369   5.788  10.183 -0.2387 -1.4541 -0.9082
   19MOL0     H 2512  10.166   5.695  10.254  0.3887  1.3436  3.3452
   19MOL0     H 2513  10.250   5.537  10.279 -0.7363  0.1898 -2.0488
   19MOL0     H 2514  10.243   5.785  10.459  0.1557  0.1703  1.1629
   19MOL0     H 2515  10.372   5.669  10.469 -0.5103 -1.6779 -0.1983
   19MOL0     H 2516   9.991   5.620  10.440 -0.3785 -0.6476 -0.6727
   19MOL0     H 2517   9.830   5.525  10.692 -4.7388 -0.9686 -2.3367
   19MOL0     H 2518   9.821   5.468  10.525 -0.3098  2.0519  0.6833
   19MOL0     H 2519   9.904   5.289  10.768 -0.2333  1.0488  0.6102
   19MOL0     H 2520   9.925   5.248  10.592  1.5144  2.8647 -1.7713
   19MOL0     H 2521   9.690   5.227  10.574  2.1615  1.6846 -0.9054
   19MOL0     H 2522   9.655   5.347  10.692  0.4114 -0.6470  2.1000
   19MOL0     H 2523   9.779   5.064  10.762 -0.0860 -0.5611  2.5408
   19MOL0     H 2524   9.612   5.096  10.734  1.2259 -1.1874 -2.0723
   19MOL0     H 2525   9.451   5.198  10.819 -0.8569  1.5818 -0.2515
   19MOL0     H 2526   9.222   5.215  10.827  1.9122  1.9329  0.1377
   19MOL0     H 2527   9.162   5.211  10.985 -0.7473 -1.0429 -1.0085
   19MOL0     H 2528   9.151   5.366  10.897 -0.4176  0.1222  1.3868
   19MOL0     H 2529   9.014   5.352  11.346 -2.4542  0.8995 -0.2569
   19MOL0     H 2530   8.896   5.371  11.550  1.1233 -1.3195  0.7676
   19MOL0     H 2531   9.124   5.502  11.890 -1.0732 -3.3111 -1.8253
   19MOL0     H 2532   9.033   5.644  11.912  1.9537  0.1167 -2.1197
   19MOL0     H 2533   8.846   5.500  12.009  2.1504  3.0633 -1.5101
   19MOL0     H 2534   8.948   5.346  11.964  2.9789 -0.5049  0.3728
   19MOL0     H 2535   9.132   5.480  12.122  0.3642 -0.2109 -1.8397
   19MOL0     H 2536   9.008   5.362  12.181  1.7884  1.9796  2.0902
   19MOL0     H 2537   8.948   5.646  12.159  1.0601  0.6728 -0.6768
   19MOL0     H 2538   8.855   5.518  12.238  0.2576  0.6935  0.5361
   19MOL0     H 2539   9.059   5.698  12.357 -1.2719  0.5635  3.6834
   19MOL0     H 2540   9.109   5.523  12.360 -0.3118 -1.2885 -3.0892
   19MOL0     H 2541   8.846   5.637  12.453  1.7176  1.4413 -3.7301
   19MOL0     H 2542   8.882   5.465  12.457 -0.7725  1.5458 -1.8310
   19MOL0     H 2543   9.034   5.675  12.613 -4.5427  0.9072 -0.0004
   19MOL0     H 2544   9.095   5.504  12.587  0.3360 -0.7421  0.7548
   19MOL0     H 2545   8.825   5.570  12.702 -0.6243 -1.2752  2.1360
   19MOL0     H 2546   8.974   5.547  12.805  1.9422  1.0241 -0.5336
   19MOL0     H 2547   9.184   5.642  11.710  2.7471 -0.4726 -1.0915
   19MOL0     H 2548   9.312   5.629  11.484 -0.1259  1.5952 -1.2207
   19MOL0     H 2549   9.502   5.453  11.234 -1.0637  4.6352 -2.4057
   19MOL0     H 2550   9.706   5.331  11.138 -0.6716  2.4230  0.4795
   19MOL0     H 2551  10.826   6.128   9.839  0.1979 -0.2215 -1.4730
   19MOL0     H 2552  10.904   6.298   9.699  2.5420 -1.7957 -1.4686
   19MOL0     H 2553  11.053   6.662   9.478  1.2280 -0.2187 -0.0326
   19MOL0     H 2554  11.180   6.768   9.303 -0.4857  1.2239  0.7048
   19MOL0     H 2555  11.346   6.737   9.052 -0.6446  0.4221  0.2684
   19MOL0     H 2556  11.313   6.576   9.098 -0.7210 -0.3472  1.0038
   19MOL0     H 2557  11.277   6.515   8.837  0.3723 -0.3185 -0.2593
   19MOL0     H 2558  11.437   6.569   8.885  1.1078  3.7325  1.0306
   19MOL0     H 2559  11.400   6.783   8.805 -2.1247  0.3715  3.6769
   19MOL0     H 2560  11.235   6.753   8.756  0.7375  2.9941  0.5087
   19MOL0     H 2561  11.289   6.566   8.627  0.7264  1.1457 -1.1223
   19MOL0     H 2562  11.465   6.589   8.650 -0.4503 -0.9064  0.6419
   19MOL0     H 2563  11.312   6.833   8.331  1.7643 -0.7307 -0.9412
   19MOL0     H 2564  10.985   6.534   9.008 -1.8482  0.2990  0.2061
   19MOL0     H 2565  10.882   6.396   9.189 -1.6787  0.4274  0.4758
   20MOL0     O 2566   2.447   8.788   5.568  0.3273  0.0239  0.2421
   20MOL0     C 2567   2.339   8.744   5.593  0.2116  0.1153  0.3801
   20MOL0     O 2568   2.208   8.782   5.548 -0.5201 -0.0986 -0.4790
   20MOL0     C 2569   2.188   8.890   5.466 -1.0427  0.5807  0.0807
   20MOL0     C 2570   2.077   8.885   5.378 -0.1560  0.0422  0.1846
   20MOL0     C 2571   2.056   8.985   5.277  0.0121 -0.3825 -0.7608
   20MOL0     C 2572   2.139   9.097   5.266  0.3753  0.3515 -0.3375
   20MOL0     O 2573   2.106   9.194   5.169  0.8403  0.2331 -0.2922
   20MOL0     C 2574   2.137   9.330   5.199 -0.7539 -0.9652  0.5184
   20MOL0     C 2575   2.045   9.395   5.093  0.1558 -0.2324  0.0045
   20MOL0     C 2576   2.002   9.534   5.105 -0.1541 -0.8391 -0.2243
   20MOL0     C 2577   1.978   9.604   4.972 -0.8813  0.2526 -0.6423
   20MOL0     C 2578   1.846   9.550   4.916 -0.2359 -0.3867  0.3330
   20MOL0     C 2579   1.788   9.634   4.792 -0.4543  0.9461 -1.0643
   20MOL0     C 2580   1.651   9.584   4.760  0.3315 -0.6163  0.2677
   20MOL0     C 2581   1.650   9.436   4.717  0.7511 -0.0337  0.0937
   20MOL0     N 2582   1.712   9.403   4.584 -0.2055 -0.7299 -0.0607
   20MOL0     C 2583   1.725   9.278   4.548  0.4143 -0.2488 -0.1205
   20MOL0     C 2584   1.753   9.286   4.408 -0.9203 -0.6440 -0.3140
   20MOL0     C 2585   1.773   9.176   4.309 -0.5228 -0.6106 -0.8688
   20MOL0     C 2586   1.642   9.094   4.290 -0.3816 -0.3554 -0.3394
   20MOL0     C 2587   1.623   9.001   4.403  0.1586  0.1484  0.0398
   20MOL0     C 2588   1.732   8.892   4.403  0.1956 -0.6945  0.2206
   20MOL0     O 2589   1.691   8.762   4.450  0.1317 -1.1087 -0.4257
   20MOL0     C 2590   1.610   8.685   4.383 -1.0372  0.8893  0.5554
   20MOL0     C 2591   1.622   8.555   4.438 -1.2105 -0.5897  0.5837
   20MOL0     C 2592   1.562   8.449   4.371  0.2564 -0.3427  0.8455
   20MOL0     C 2593   1.601   8.311   4.422  0.0473  0.1432  0.1154
   20MOL0     C 2594   1.493   8.473   4.246  0.8530  0.3680 -0.2119
   20MOL0     C 2595   1.420   8.363   4.172 -0.0023  1.1660 -0.0724
   20MOL0     O 2596   1.441   8.231   4.199  0.0385 -0.3690 -0.3458
   20MOL0     C 2597   1.387   8.123   4.130 -0.2567 -0.3872  0.0900
   20MOL0     C 2598   1.451   8.000   4.151  0.6954 -0.1525  0.4269
   20MOL0     C 2599   1.411   7.895   4.077  0.5959  0.6070 -0.3272
   20MOL0     C 2600   1.312   7.898   3.981 -0.5498 -0.6066  0.2402
   20MOL0     O 2601   1.278   7.788   3.915 -0.0703 -0.2680 -0.1431
   20MOL0     C 2602   1.357   7.666   3.929 -0.1900 -0.5211 -0.0629
   20MOL0     C 2603   1.298   7.553   3.840  0.7028 -0.4949 -0.8421
   20MOL0     C 2604   1.283   7.591   3.690  0.2089 -0.5748 -0.3392
   20MOL0     C 2605   1.384   7.520   3.599  0.5679 -0.8358 -0.5039
   20MOL0     C 2606   1.361   7.555   3.447  0.1811 -0.5310  0.2972
   20MOL0     C 2607   1.456   7.472   3.363  0.2688 -0.7386  0.0475
   20MOL0     C 2608   1.390   7.437   3.232 -0.5112  0.7289 -0.2744
   20MOL0     C 2609   1.364   7.564   3.150 -0.2892  0.0711 -0.3548
   20MOL0    Cl 2610   1.491   7.585   3.026  0.0752  0.3367 -0.1453
   20MOL0     C 2611   1.253   8.014   3.953  1.3395 -0.3083 -0.5970
   20MOL0     C 2612   1.289   8.129   4.034  0.8997 -0.0908 -0.2349
   20MOL0     O 2613   1.356   8.411   4.081  0.5999  0.1414  0.4004
   20MOL0     C 2614   1.485   8.607   4.195  0.2122  0.2654  0.5607
   20MOL0     C 2615   1.547   8.709   4.261 -0.0519  0.4279  0.5845
   20MOL0     N 2616   1.746   9.416   4.370 -0.3445 -0.0596 -0.0663
   20MOL0     N 2617   1.729   9.485   4.477  0.2479 -0.3592  0.4182
   20MOL0     C 2618   2.249   9.106   5.363 -0.0813  0.4818  0.1709
   20MOL0     C 2619   2.268   9.004   5.464 -0.0315  0.3261 -0.0738
   20MOL0     C 2620   2.342   8.626   5.684  0.3773 -0.0196  0.0051
   20MOL0     C 2621   2.235   8.538   5.712 -0.6396  0.0032  0.4681
   20MOL0     C 2622   2.239   8.436   5.803  0.3672  1.2932 -0.2643
   20MOL0     C 2623   2.351   8.429   5.889  0.9942  0.4633 -0.1335
   20MOL0     O 2624   2.320   8.363   6.001 -0.8998 -0.3528 -0.6029
   20MOL0     C 2625   2.422   8.350   6.095 -0.0783 -0.1601  0.7073
   20MOL0     C 2626   2.370   8.220   6.167 -0.6170 -0.8317  0.1901
   20MOL0     C 2627   2.386   8.099   6.085 -1.1179  0.4371  0.5461
   20MOL0     C 2628   2.344   7.964   6.155  0.3101  0.0157 -0.1618
   20MOL0     C 2629   2.199   7.974   6.192 -0.0474  0.1933 -0.4840
   20MOL0     C 2630   2.089   7.967   6.221  0.5113 -0.4885  0.0473
   20MOL0     C 2631   2.460   8.516   5.866  0.3859 -0.9772  0.0796
   20MOL0     C 2632   2.458   8.606   5.767 -0.6921  0.0720  0.4728
   20MOL0     H 2633   2.011   8.800   5.389 -0.4528  0.1122 -0.9982
   20MOL0     H 2634   1.970   8.985   5.211 -2.2854  1.0558  2.0271
   20MOL0     H 2635   2.117   9.361   5.302  2.7946 -0.8183  1.2663
   20MOL0     H 2636   2.236   9.359   5.162 -1.9542  1.1075 -1.3116
   20MOL0     H 2637   2.096   9.389   4.997  1.4523  0.6982  0.5984
   20MOL0     H 2638   1.950   9.342   5.086 -0.2522  0.6672 -1.6558
   20MOL0     H 2639   1.911   9.535   5.165 -0.4681 -2.1479 -0.6406
   20MOL0     H 2640   2.074   9.593   5.162  0.0421 -0.1869 -1.1239
   20MOL0     H 2641   1.972   9.712   4.993 -1.2638 -0.2948  2.4162
   20MOL0     H 2642   2.056   9.588   4.897  0.2180  5.4626 -1.0011
   20MOL0     H 2643   1.871   9.450   4.880 -0.4722 -0.4786  0.4232
   20MOL0     H 2644   1.777   9.547   5.000 -1.2790 -1.8180 -0.5345
   20MOL0     H 2645   1.781   9.735   4.833 -1.2506  0.6515 -0.4528
   20MOL0     H 2646   1.853   9.630   4.704  1.1470 -0.5449  0.1316
   20MOL0     H 2647   1.596   9.597   4.854  1.5849 -0.5732  1.0304
   20MOL0     H 2648   1.612   9.660   4.692 -1.4612  0.0529  1.9375
   20MOL0     H 2649   1.543   9.413   4.711  0.3868  0.9035  2.2384
   20MOL0     H 2650   1.692   9.381   4.802  1.5557  0.4643  0.0230
   20MOL0     H 2651   1.717   9.194   4.616  0.0471  0.6433  0.9614
   20MOL0     H 2652   1.802   9.207   4.209 -0.9086 -1.9250 -1.4084
   20MOL0     H 2653   1.856   9.122   4.355  2.0784  3.2181 -0.7142
   20MOL0     H 2654   1.645   9.050   4.190  0.6848 -0.0342 -0.4638
   20MOL0     H 2655   1.563   9.168   4.277 -0.2417  0.1034  1.2330
   20MOL0     H 2656   1.534   8.943   4.376  1.1221 -1.2637 -0.2493
   20MOL0     H 2657   1.624   9.034   4.507  0.9959  1.7345 -0.4346
   20MOL0     H 2658   1.810   8.924   4.472  1.7079 -2.1344 -0.7585
   20MOL0     H 2659   1.780   8.893   4.305 -2.5700  3.8691 -1.3917
   20MOL0     H 2660   1.672   8.531   4.531  0.1467 -0.7087 -0.1495
   20MOL0     H 2661   1.647   8.265   4.335 -2.5442  1.1485 -1.9262
   20MOL0     H 2662   1.656   8.312   4.517 -0.6307 -1.0465  0.5361
   20MOL0     H 2663   1.511   8.255   4.449  3.0955 -4.6604  1.6087
   20MOL0     H 2664   1.540   7.988   4.213  1.2517  1.7662  0.0755
   20MOL0     H 2665   1.467   7.805   4.102  0.4009  0.6699  0.3451
   20MOL0     H 2666   1.461   7.684   3.901 -0.3103  1.7402  0.7075
   20MOL0     H 2667   1.353   7.628   4.032 -2.8535  0.9773  0.4864
   20MOL0     H 2668   1.352   7.462   3.866  0.6635 -0.9200 -2.1930
   20MOL0     H 2669   1.194   7.536   3.871  0.0594 -1.3152 -3.2463
   20MOL0     H 2670   1.314   7.695   3.675 -0.8478 -0.5452 -2.6269
   20MOL0     H 2671   1.183   7.572   3.652 -1.3828  0.2209  3.0604
   20MOL0     H 2672   1.486   7.550   3.626 -0.6594  3.3881  0.1936
   20MOL0     H 2673   1.371   7.414   3.620 -1.7229 -0.2336  1.5886
   20MOL0     H 2674   1.379   7.660   3.422  0.4182 -1.3487 -3.5635
   20MOL0     H 2675   1.258   7.529   3.420  0.2589  1.2468 -1.9844
   20MOL0     H 2676   1.548   7.530   3.353 -0.8120  1.1282  0.4064
   20MOL0     H 2677   1.475   7.377   3.414 -0.1929 -0.7277  0.2446
   20MOL0     H 2678   1.291   7.391   3.238 -0.6695  1.2685  2.2099
   20MOL0     H 2679   1.466   7.369   3.193  0.7841  1.4911  0.8331
   20MOL0     H 2680   1.380   7.658   3.204 -3.8389  0.1925  0.7564
   20MOL0     H 2681   1.266   7.568   3.101  0.8320  1.6786 -2.5718
   20MOL0     H 2682   1.166   8.021   3.888  0.0192  0.8484  1.1717
   20MOL0     H 2683   1.248   8.219   3.990 -2.2398 -1.5564 -0.5339
   20MOL0     H 2684   1.435   8.635   4.103  2.4835  2.4984 -0.1224
   20MOL0     H 2685   1.544   8.803   4.207  0.1673  0.4222  0.5636
   20MOL0     H 2686   2.323   9.185   5.359  0.2554  0.2007  0.8043
   20MOL0     H 2687   2.342   9.010   5.543 -1.4513 -2.0562  1.5700
   20MOL0     H 2688   2.147   8.560   5.653 -1.0462  0.1237  1.1206
   20MOL0     H 2689   2.152   8.372   5.815  0.3215  1.8121  2.8447
   20MOL0     H 2690   2.518   8.346   6.044 -1.2136 -2.5059 -1.4490
   20MOL0     H 2691   2.409   8.431   6.168 -3.8115 -0.6316  0.7540
   20MOL0     H 2692   2.268   8.233   6.203 -0.2028 -0.7068  1.3762
   20MOL0     H 2693   2.427   8.205   6.260 -0.1044  2.8713  0.6141
   20MOL0     H 2694   2.480   8.087   6.030 -2.8160 -2.2833 -2.0672
   20MOL0     H 2695   2.319   8.108   5.999 -1.8344 -0.3025  1.0092
   20MOL0     H 2696   2.403   7.946   6.245  0.9889 -2.4868 -1.0131
   20MOL0     H 2697   2.368   7.881   6.088 -2.1613 -0.3345 -0.7185
   20MOL0     H 2698   1.983   7.973   6.234  0.4265 -1.1462 -0.2717
   20MOL0     H 2699   2.535   8.524   5.944 -1.0332  1.6559  1.3065
   20MOL0     H 2700   2.534   8.683   5.756 -0.0920 -0.5465  0.2880
   21MOL0     O 2701   0.040   3.842   9.183 -0.2440  0.7933  0.2181
   21MOL0     C 2702  -0.066   3.817   9.246  0.9653 -0.2348  0.4724
   21MOL0     O 2703  -0.168   3.732   9.206 -0.4969 -0.4935 -0.0923
   21MOL0     C 2704  -0.137   3.666   9.100 -0.1028 -0.2119  0.2106
   21MOL0     C 2705  -0.069   3.542   9.099 -0.1417 -0.1722 -0.8828
   21MOL0     C 2706  -0.068   3.467   8.982  0.3077 -0.6164  0.0881
   21MOL0     C 2707  -0.128   3.517   8.865 -0.2983 -0.7360  0.1524
   21MOL0     O 2708  -0.126   3.435   8.757 -0.2093 -0.1609 -0.7989
   21MOL0     C 2709  -0.245   3.430   8.672 -0.6757  0.5530  0.6797
   21MOL0     C 2710  -0.267   3.272   8.637  0.0134 -0.6892 -0.4201
   21MOL0     C 2711  -0.324   3.183   8.750  0.5068  0.1028  0.3756
   21MOL0     C 2712  -0.342   3.036   8.705 -0.9896 -0.1386  0.6007
   21MOL0     C 2713  -0.217   2.978   8.637  0.8179 -0.8157  0.4825
   21MOL0     C 2714  -0.220   2.824   8.645 -0.0204  0.5072 -0.1740
   21MOL0     C 2715  -0.331   2.762   8.571 -0.7436  0.2560 -0.6139
   21MOL0     C 2716  -0.385   2.632   8.629 -0.4810  0.7593  0.9759
   21MOL0     N 2717  -0.291   2.523   8.630 -0.6466  0.6788 -0.7385
   21MOL0     C 2718  -0.238   2.464   8.748  0.7197 -0.5703  0.0909
   21MOL0     C 2719  -0.176   2.362   8.699 -0.2631  0.5024  0.5520
   21MOL0     C 2720  -0.081   2.267   8.759  0.4606 -0.3478  1.2744
   21MOL0     C 2721  -0.115   2.182   8.877  0.6031 -0.2118 -0.0147
   21MOL0     C 2722  -0.251   2.111   8.849 -0.4148 -0.1117  0.6377
   21MOL0     C 2723  -0.306   2.017   8.959 -0.2885 -0.3878  0.2105
   21MOL0     O 2724  -0.280   2.069   9.086  0.3847 -1.2864  0.1903
   21MOL0     C 2725  -0.376   2.151   9.142  0.3312  0.1725  1.5353
   21MOL0     C 2726  -0.358   2.170   9.280  0.4292  1.1840  1.0292
   21MOL0     C 2727  -0.446   2.249   9.350 -0.7190 -0.6950 -0.7339
   21MOL0     C 2728  -0.400   2.264   9.495 -0.5087 -0.4811 -1.2954
   21MOL0     C 2729  -0.548   2.318   9.283 -0.5764  0.4956 -0.6260
   21MOL0     C 2730  -0.627   2.421   9.358  0.5952  0.0838  0.0830
   21MOL0     O 2731  -0.703   2.498   9.266 -0.5254 -0.0395 -0.3040
   21MOL0     C 2732  -0.800   2.579   9.308 -0.3418  0.3683  0.8359
   21MOL0     C 2733  -0.786   2.715   9.325 -0.1059  0.5599 -0.2159
   21MOL0     C 2734  -0.897   2.803   9.370  0.0437 -0.4456  0.4920
   21MOL0     C 2735  -1.022   2.753   9.386 -0.5085  1.3943 -0.5164
   21MOL0     O 2736  -1.117   2.849   9.423  0.1314  1.2511 -0.2392
   21MOL0     C 2737  -1.252   2.821   9.373 -0.1351  0.6720  0.2389
   21MOL0     C 2738  -1.338   2.941   9.398 -1.0407  0.2403  0.0584
   21MOL0     C 2739  -1.463   2.944   9.316 -0.1391 -0.4909 -0.2271
   21MOL0     C 2740  -1.515   3.083   9.319  0.1000  1.9834 -0.7593
   21MOL0     C 2741  -1.654   3.109   9.262  0.6614 -0.3090 -0.4638
   21MOL0     C 2742  -1.739   3.186   9.364  0.2416 -0.3849 -0.3159
   21MOL0     C 2743  -1.830   3.294   9.304 -0.0612  1.1421  0.2111
   21MOL0     C 2744  -1.940   3.342   9.410  0.0967  0.5572  0.0592
   21MOL0    Cl 2745  -2.070   3.217   9.397 -0.2108  0.3859 -0.2341
   21MOL0     C 2746  -1.040   2.615   9.373  0.8352  0.4676  0.3485
   21MOL0     C 2747  -0.934   2.532   9.332 -0.1140  0.5717 -0.0412
   21MOL0     O 2748  -0.617   2.447   9.477  0.2187  0.3599 -0.3031
   21MOL0     C 2749  -0.566   2.299   9.140 -1.1164 -0.2347  0.2290
   21MOL0     C 2750  -0.476   2.215   9.076  0.2555  0.1426 -0.2297
   21MOL0     N 2751  -0.209   2.339   8.563 -0.1273 -0.3915  0.0080
   21MOL0     N 2752  -0.273   2.442   8.524  0.2375 -0.6646  0.0944
   21MOL0     C 2753  -0.186   3.651   8.864  0.0100  0.8085  0.0282
   21MOL0     C 2754  -0.182   3.727   8.980  0.0534 -0.6204  0.2596
   21MOL0     C 2755  -0.079   3.879   9.383 -0.2773  0.5716 -0.4452
   21MOL0     C 2756  -0.191   3.855   9.468  1.0914 -0.8385  0.4633
   21MOL0     C 2757  -0.193   3.899   9.605  0.9077 -0.5384  0.1009
   21MOL0     C 2758  -0.094   3.984   9.645  1.2789 -0.0976 -0.7777
   21MOL0     O 2759  -0.114   4.029   9.774 -0.6311  1.0510  0.3032
   21MOL0     C 2760  -0.008   4.092   9.833 -0.8691  1.4946 -0.8409
   21MOL0     C 2761  -0.035   4.105   9.984  0.2192 -1.1749  0.6360
   21MOL0     C 2762  -0.098   3.981  10.052  0.8552 -0.2816 -0.0117
   21MOL0     C 2763  -0.159   4.026  10.192 -1.0174  0.1879 -0.1812
   21MOL0     C 2764  -0.049   4.076  10.279  0.9770  0.7117 -0.1541
   21MOL0     C 2765   0.045   4.108  10.351 -0.0324  0.2309 -0.4454
   21MOL0     C 2766   0.004   4.018   9.555 -0.2679 -0.6899 -0.2922
   21MOL0     C 2767   0.018   3.967   9.431 -0.8406  0.1349  0.4688
   21MOL0     H 2768  -0.029   3.502   9.191  0.0723  2.0966  0.0773
   21MOL0     H 2769  -0.034   3.364   8.974 -1.3392 -1.3235  1.4692
   21MOL0     H 2770  -0.337   3.470   8.715 -1.9197 -0.3396 -1.0392
   21MOL0     H 2771  -0.223   3.489   8.583 -1.5303 -2.1870 -1.4981
   21MOL0     H 2772  -0.335   3.267   8.551  1.5955 -2.3948 -1.6622
   21MOL0     H 2773  -0.168   3.231   8.611  1.9058  3.1467  0.0004
   21MOL0     H 2774  -0.273   3.202   8.844 -1.9364  1.2079  1.5446
   21MOL0     H 2775  -0.423   3.224   8.770  0.2112 -0.7546  0.7243
   21MOL0     H 2776  -0.377   2.971   8.785  1.4492 -2.4444 -0.0569
   21MOL0     H 2777  -0.425   3.043   8.634 -2.3020  0.9231  2.1710
   21MOL0     H 2778  -0.234   3.005   8.532  0.6787  2.1533  1.1829
   21MOL0     H 2779  -0.126   3.026   8.673 -0.4537  1.6012  0.6884
   21MOL0     H 2780  -0.127   2.771   8.622  1.6377  2.8104  0.8592
   21MOL0     H 2781  -0.228   2.806   8.753 -4.0622 -1.0028 -0.5647
   21MOL0     H 2782  -0.416   2.831   8.566 -1.5263 -0.7585 -2.5388
   21MOL0     H 2783  -0.299   2.745   8.468 -2.8700  1.5715 -1.5650
   21MOL0     H 2784  -0.463   2.604   8.557 -0.5520  0.4281  1.1807
   21MOL0     H 2785  -0.432   2.635   8.727  1.8192  0.8409  2.1379
   21MOL0     H 2786  -0.233   2.490   8.853 -0.2262 -3.2928  0.8883
   21MOL0     H 2787  -0.042   2.190   8.691  1.0485  0.1165  1.0703
   21MOL0     H 2788   0.010   2.328   8.771 -0.8840  2.3178 -0.9858
   21MOL0     H 2789  -0.129   2.248   8.963  2.6961 -0.6292  0.7029
   21MOL0     H 2790  -0.042   2.102   8.889  0.8982 -0.0791 -0.8304
   21MOL0     H 2791  -0.241   2.048   8.760  1.3663  0.3371  0.4703
   21MOL0     H 2792  -0.327   2.186   8.824 -1.0433 -0.9939 -0.2139
   21MOL0     H 2793  -0.251   1.924   8.946 -0.6018 -0.5620  0.1298
   21MOL0     H 2794  -0.409   1.987   8.939  0.2137 -2.6530  0.7334
   21MOL0     H 2795  -0.275   2.126   9.335  1.9416  5.4772  2.6560
   21MOL0     H 2796  -0.331   2.349   9.500  1.6575 -2.2339  1.1052
   21MOL0     H 2797  -0.479   2.288   9.566  1.3021  1.2918  0.2366
   21MOL0     H 2798  -0.359   2.167   9.523 -1.9224 -0.9624 -0.8203
   21MOL0     H 2799  -0.689   2.763   9.333  0.1609 -0.2628  2.7937
   21MOL0     H 2800  -0.890   2.911   9.380  2.0266 -0.6418  1.6529
   21MOL0     H 2801  -1.251   2.806   9.265  1.7293 -2.5794  0.5772
   21MOL0     H 2802  -1.295   2.729   9.412  1.9480 -1.5460 -2.2881
   21MOL0     H 2803  -1.351   2.945   9.507  1.6294  0.6392  0.4512
   21MOL0     H 2804  -1.282   3.027   9.361 -1.8589  0.0696 -1.6289
   21MOL0     H 2805  -1.536   2.871   9.352 -1.9448  1.6402  0.6581
   21MOL0     H 2806  -1.440   2.920   9.212  0.8095  0.3019 -0.2133
   21MOL0     H 2807  -1.524   3.100   9.427  0.9475 -1.1790 -0.0834
   21MOL0     H 2808  -1.442   3.151   9.274  0.4905  3.5943  2.0649
   21MOL0     H 2809  -1.698   3.010   9.244  1.5246 -1.1543  1.7400
   21MOL0     H 2810  -1.640   3.159   9.165 -1.6696  0.4168 -0.4771
   21MOL0     H 2811  -1.798   3.118   9.427  2.7543 -1.8631  0.5901
   21MOL0     H 2812  -1.675   3.242   9.432  0.8772 -2.5921  1.0321
   21MOL0     H 2813  -1.885   3.256   9.218  1.4942  0.2309 -0.4150
   21MOL0     H 2814  -1.772   3.383   9.276  0.3147  0.7400 -0.2807
   21MOL0     H 2815  -1.979   3.440   9.384  3.8569  1.8297 -1.4147
   21MOL0     H 2816  -1.896   3.342   9.510  0.9800 -5.2075  0.0588
   21MOL0     H 2817  -1.136   2.570   9.395  1.7932 -2.9528 -1.7117
   21MOL0     H 2818  -0.968   2.431   9.314  0.1944  0.6389 -1.0680
   21MOL0     H 2819  -0.645   2.351   9.087  1.3205  0.6032 -2.9308
   21MOL0     H 2820  -0.488   2.214   8.968 -0.1992 -1.0093 -0.1829
   21MOL0     H 2821  -0.224   3.679   8.767  0.4450  0.2920 -0.2977
   21MOL0     H 2822  -0.224   3.827   8.987  0.8946 -0.3473  1.7370
   21MOL0     H 2823  -0.278   3.802   9.431  1.1498 -1.4387  1.1607
   21MOL0     H 2824  -0.270   3.869   9.675 -3.4100  2.2733 -2.9105
   21MOL0     H 2825   0.074   4.019   9.842 -3.8494 -2.2242 -1.3670
   21MOL0     H 2826   0.030   4.187   9.795 -1.9764  3.2641  2.1156
   21MOL0     H 2827  -0.108   4.187   9.979  0.3698 -0.8847  2.5411
   21MOL0     H 2828   0.057   4.141  10.031 -0.4220  3.9583 -1.2966
   21MOL0     H 2829  -0.028   3.898  10.061 -0.8871 -1.7065  1.0620
   21MOL0     H 2830  -0.187   3.952   9.994  0.9153  0.6309 -0.6033
   21MOL0     H 2831  -0.195   3.944  10.254  3.9614  0.8799  4.3843
   21MOL0     H 2832  -0.230   4.109  10.184 -1.8318 -0.3638  1.0465
   21MOL0     H 2833   0.131   4.132  10.410 -0.1836  3.1381 -1.2539
   21MOL0     H 2834   0.066   4.098   9.595 -0.7359 -0.3655 -0.1994
   21MOL0     H 2835   0.090   4.006   9.360  1.5067 -2.9290  0.9420
   22MOL0     O 2836   5.662   6.048   5.156  0.2174  0.3679  0.1012
   22MOL0     C 2837   5.584   5.973   5.220  0.2175  0.4030  0.5919
   22MOL0     O 2838   5.452   5.971   5.213  0.4690 -0.6056 -0.1294
   22MOL0     C 2839   5.387   6.051   5.125  0.1371  0.0944  1.1160
   22MOL0     C 2840   5.425   6.087   4.997 -0.3097  0.2794  0.5617
   22MOL0     C 2841   5.353   6.175   4.908  0.0661 -0.3626 -0.0662
   22MOL0     C 2842   5.230   6.216   4.951  0.0022 -0.3462  0.0677
   22MOL0     O 2843   5.160   6.314   4.893  0.2231 -0.1581 -0.2436
   22MOL0     C 2844   5.149   6.326   4.751  0.3950 -0.2808  0.1090
   22MOL0     C 2845   5.254   6.425   4.705 -0.2803 -0.5812  0.8821
   22MOL0     C 2846   5.212   6.478   4.560 -0.2894  0.0367 -0.1838
   22MOL0     C 2847   5.108   6.590   4.555 -0.2910 -0.0902 -0.1619
   22MOL0     C 2848   5.074   6.623   4.409  0.1621  0.2740  0.1736
   22MOL0     C 2849   4.953   6.723   4.404 -0.2632 -0.1211  1.4354
   22MOL0     C 2850   4.922   6.769   4.259 -0.3958 -0.2033 -1.4399
   22MOL0     C 2851   4.836   6.891   4.276 -0.5500 -0.2286  0.2001
   22MOL0     N 2852   4.756   6.917   4.156  0.0531 -0.0832  0.0750
   22MOL0     C 2853   4.683   6.827   4.076 -0.9278  0.5516  0.3244
   22MOL0     C 2854   4.657   6.892   3.962  0.0195 -0.1814  0.1531
   22MOL0     C 2855   4.598   6.820   3.840 -0.1128 -0.1569 -0.6205
   22MOL0     C 2856   4.481   6.724   3.872  0.2564 -0.1322 -0.1823
   22MOL0     C 2857   4.413   6.674   3.741 -0.3064  0.1649  0.6633
   22MOL0     C 2858   4.297   6.567   3.751 -0.3447  0.4121  0.0868
   22MOL0     O 2859   4.175   6.632   3.745 -0.4454  0.0669 -0.0155
   22MOL0     C 2860   4.076   6.537   3.764 -0.6648 -0.6304 -0.1391
   22MOL0     C 2861   3.998   6.483   3.655 -0.5074  0.1700  0.5586
   22MOL0     C 2862   3.899   6.382   3.668 -0.1517 -0.6186 -0.5045
   22MOL0     C 2863   3.840   6.310   3.550  0.1390 -0.4589  0.8452
   22MOL0     C 2864   3.859   6.348   3.804  0.8684 -0.2776  0.7174
   22MOL0     C 2865   3.773   6.229   3.828  1.4144  0.1447  0.7804
   22MOL0     O 2866   3.650   6.247   3.901 -0.4729 -0.4619  0.7688
   22MOL0     C 2867   3.575   6.139   3.931  0.2733 -0.2123 -0.5843
   22MOL0     C 2868   3.471   6.108   3.847  1.4012  0.0951  0.2823
   22MOL0     C 2869   3.383   6.010   3.880  0.6431  0.6713  0.0402
   22MOL0     C 2870   3.409   5.917   3.985  0.6524 -0.6162 -0.1816
   22MOL0     O 2871   3.325   5.819   4.029  0.1206  0.6246 -0.4345
   22MOL0     C 2872   3.311   5.725   3.922  0.2412 -0.2606 -0.0302
   22MOL0     C 2873   3.251   5.592   3.966 -0.3997  0.0488 -0.6726
   22MOL0     C 2874   3.111   5.602   4.035  0.2087 -0.3421  0.1672
   22MOL0     C 2875   3.042   5.467   4.020  0.2912 -0.0938 -0.9157
   22MOL0     C 2876   2.891   5.486   4.064 -0.2515 -0.4218  0.4648
   22MOL0     C 2877   2.811   5.376   4.001  0.3163 -0.4417  0.3246
   22MOL0     C 2878   2.842   5.232   4.059  0.2937 -0.0898 -0.8683
   22MOL0     C 2879   2.726   5.132   4.041 -0.1310  0.3968  0.8550
   22MOL0    Cl 2880   2.760   4.981   4.122 -0.2465  0.4032  0.3092
   22MOL0     C 2881   3.512   5.943   4.067 -0.2394 -0.3841  0.0601
   22MOL0     C 2882   3.601   6.046   4.041  0.2065 -0.1429  0.7217
   22MOL0     O 2883   3.825   6.124   3.793  0.5933 -0.4196  0.6611
   22MOL0     C 2884   3.926   6.408   3.913  0.2034 -0.4502 -0.1746
   22MOL0     C 2885   4.034   6.504   3.893  0.5397 -0.2201  0.0941
   22MOL0     N 2886   4.679   7.022   3.979  0.7073 -0.5862 -0.8093
   22MOL0     N 2887   4.752   7.033   4.088 -0.0591 -0.0964 -0.0389
   22MOL0     C 2888   5.183   6.166   5.069  0.8968 -0.1650 -0.3042
   22MOL0     C 2889   5.259   6.092   5.160 -0.7028  0.6233 -0.7612
   22MOL0     C 2890   5.654   5.878   5.316  0.1945  0.4354  0.2734
   22MOL0     C 2891   5.787   5.864   5.332 -0.8004  0.5870  1.3557
   22MOL0     C 2892   5.848   5.778   5.421 -0.6579 -1.0563 -0.3861
   22MOL0     C 2893   5.765   5.691   5.495  0.0582  1.3275 -0.1694
   22MOL0     O 2894   5.830   5.611   5.591  0.2782 -0.0266  0.6364
   22MOL0     C 2895   5.776   5.500   5.659 -0.9620 -0.5588  0.4696
   22MOL0     C 2896   5.855   5.477   5.786 -0.6945  0.5050 -0.0430
   22MOL0     C 2897   5.815   5.349   5.856 -0.2334  0.2178  0.7148
   22MOL0     C 2898   5.876   5.321   5.989 -0.7890  0.5790  0.2778
   22MOL0     C 2899   6.020   5.335   5.983  0.5539  0.0571 -0.4451
   22MOL0     C 2900   6.133   5.366   5.957  0.6069  0.3929 -0.9007
   22MOL0     C 2901   5.630   5.687   5.463 -0.1814 -0.0722  0.3467
   22MOL0     C 2902   5.573   5.777   5.369  0.2306  0.6956  0.3118
   22MOL0     H 2903   5.518   6.045   4.960 -0.3352  1.8538 -1.5101
   22MOL0     H 2904   5.394   6.204   4.812 -1.5191  1.3938 -0.2629
   22MOL0     H 2905   5.144   6.235   4.691 -0.4954 -0.2284  0.0929
   22MOL0     H 2906   5.049   6.369   4.748 -1.5763 -3.3179  6.5137
   22MOL0     H 2907   5.262   6.506   4.779  1.9296  0.5157 -0.4688
   22MOL0     H 2908   5.353   6.381   4.703  1.4044  2.7490  2.4077
   22MOL0     H 2909   5.302   6.531   4.527  0.7593  1.6936  4.6140
   22MOL0     H 2910   5.178   6.400   4.491  0.0428 -1.7374  1.5817
   22MOL0     H 2911   5.013   6.556   4.597  0.7024 -0.0120  2.2610
   22MOL0     H 2912   5.140   6.681   4.607 -1.3339 -0.3990  1.0589
   22MOL0     H 2913   5.152   6.661   4.342  1.6975 -1.6104  0.7752
   22MOL0     H 2914   5.048   6.523   4.371  1.2897  0.3487 -0.8814
   22MOL0     H 2915   4.860   6.677   4.438 -1.8040  0.4541 -1.6038
   22MOL0     H 2916   4.967   6.813   4.464 -2.2630  2.1955 -1.2852
   22MOL0     H 2917   5.016   6.798   4.210 -1.5867  2.1772 -2.4607
   22MOL0     H 2918   4.867   6.682   4.222  1.0546 -0.9228 -1.9670
   22MOL0     H 2919   4.894   6.981   4.298 -0.9893 -0.1158  0.9244
   22MOL0     H 2920   4.768   6.890   4.361  1.0300 -5.8552  1.7891
   22MOL0     H 2921   4.660   6.723   4.097  0.4590  0.0918 -0.3118
   22MOL0     H 2922   4.556   6.895   3.773 -2.1673 -1.0759 -0.4351
   22MOL0     H 2923   4.673   6.760   3.787 -2.1342 -2.6350 -0.8248
   22MOL0     H 2924   4.410   6.775   3.938 -0.2847 -2.7860  1.4446
   22MOL0     H 2925   4.503   6.631   3.924 -2.9367 -0.8870  0.0214
   22MOL0     H 2926   4.493   6.638   3.676  0.6580  4.0665 -0.5767
   22MOL0     H 2927   4.386   6.761   3.680  0.8653 -0.9379 -1.4977
   22MOL0     H 2928   4.312   6.499   3.835 -0.4339 -0.7174 -0.7883
   22MOL0     H 2929   4.306   6.502   3.663  0.7205  0.2942  0.2763
   22MOL0     H 2930   4.027   6.513   3.554 -0.2801  2.4391  1.2488
   22MOL0     H 2931   3.837   6.391   3.476 -2.4863  0.8240  2.1930
   22MOL0     H 2932   3.900   6.230   3.506 -1.7933 -0.7945 -1.3633
   22MOL0     H 2933   3.736   6.283   3.575 -1.2933  3.3807 -0.2490
   22MOL0     H 2934   3.440   6.169   3.763 -1.1268 -2.0517 -0.4887
   22MOL0     H 2935   3.298   5.980   3.820 -0.0520 -1.8452  2.0970
   22MOL0     H 2936   3.237   5.772   3.857  0.1827 -1.9654 -1.2806
   22MOL0     H 2937   3.409   5.716   3.874  0.9800  1.0495  1.1502
   22MOL0     H 2938   3.252   5.518   3.885  0.2218  0.3265 -0.9240
   22MOL0     H 2939   3.321   5.565   4.046 -3.7756  2.2192  3.4310
   22MOL0     H 2940   3.056   5.674   3.975 -0.3692 -1.4183 -0.6291
   22MOL0     H 2941   3.125   5.627   4.141  2.4012  1.7325 -0.5160
   22MOL0     H 2942   3.045   5.438   3.915  1.2616 -3.5559 -0.0557
   22MOL0     H 2943   3.084   5.385   4.079 -0.3589  0.8195  0.9302
   22MOL0     H 2944   2.862   5.585   4.027  2.4356  0.3000  0.0465
   22MOL0     H 2945   2.884   5.481   4.173  0.2569 -0.3675  0.5044
   22MOL0     H 2946   2.707   5.410   4.002  0.0654 -1.1956  1.2816
   22MOL0     H 2947   2.828   5.373   3.893 -2.5333  3.0688 -0.4308
   22MOL0     H 2948   2.863   5.250   4.165  1.3705 -0.1236 -1.0673
   22MOL0     H 2949   2.932   5.186   4.017  2.0766  0.8130  1.6825
   22MOL0     H 2950   2.720   5.106   3.935  0.8326  0.6466  0.7325
   22MOL0     H 2951   2.626   5.170   4.066 -0.4261  0.4246 -0.3355
   22MOL0     H 2952   3.529   5.877   4.151  2.1601  1.4559  1.1531
   22MOL0     H 2953   3.693   6.058   4.098  1.6341  1.7865 -1.7601
   22MOL0     H 2954   3.902   6.389   4.017  1.4126 -1.1668 -0.0052
   22MOL0     H 2955   4.091   6.536   3.980  2.0679  0.2622 -1.0409
   22MOL0     H 2956   5.087   6.210   5.095  1.4192  0.4081  0.7662
   22MOL0     H 2957   5.232   6.068   5.262 -0.3004  1.4909 -0.4411
   22MOL0     H 2958   5.855   5.918   5.266  1.1677 -0.7836  2.1352
   22MOL0     H 2959   5.956   5.768   5.430 -0.9561 -2.5836  2.0102
   22MOL0     H 2960   5.678   5.535   5.691  0.4472  1.8590  2.4785
   22MOL0     H 2961   5.753   5.407   5.605 -3.1147  1.2246 -1.9747
   22MOL0     H 2962   5.839   5.565   5.848  2.2187  2.0574 -1.2931
   22MOL0     H 2963   5.962   5.479   5.763 -1.0226  3.6671 -2.0430
   22MOL0     H 2964   5.844   5.264   5.793  0.4255 -1.2650  2.9009
   22MOL0     H 2965   5.707   5.344   5.869 -0.3465 -0.2371 -0.2792
   22MOL0     H 2966   5.829   5.226   6.016  0.7119 -1.0112 -2.2780
   22MOL0     H 2967   5.850   5.405   6.054  0.6134  0.3496  1.1800
   22MOL0     H 2968   6.234   5.396   5.938  1.3630 -0.0863  1.9366
   22MOL0     H 2969   5.567   5.611   5.506  0.4878 -0.4961  0.5996
   22MOL0     H 2970   5.467   5.776   5.349 -0.5589 -0.0402  3.7981
   23MOL0     O 2971  10.418   5.015   5.773 -0.2387  0.6177 -0.0909
   23MOL0     C 2972  10.305   5.038   5.806 -0.6088 -0.9094  1.3603
   23MOL0     O 2973  10.197   5.060   5.721 -0.2384  0.1022  0.3287
   23MOL0     C 2974  10.211   5.083   5.592  1.0829  0.1205 -0.8529
   23MOL0     C 2975  10.322   5.078   5.510  0.6588  0.6455  0.9568
   23MOL0     C 2976  10.322   5.130   5.383 -0.6317 -0.1554  0.1685
   23MOL0     C 2977  10.203   5.189   5.330  0.0251 -0.9676 -0.0139
   23MOL0     O 2978  10.219   5.260   5.216  0.4285  0.4629 -0.0767
   23MOL0     C 2979  10.170   5.388   5.212  0.0613 -0.3048  1.1240
   23MOL0     C 2980  10.273   5.494   5.171  0.7605  0.0843  0.1413
   23MOL0     C 2981  10.363   5.510   5.296  0.6441 -0.4783  0.5584
   23MOL0     C 2982  10.299   5.611   5.391 -0.1051 -0.8015  0.5296
   23MOL0     C 2983  10.403   5.714   5.445  0.1101  0.6793 -0.3406
   23MOL0     C 2984  10.385   5.853   5.385 -0.1999  0.6862 -0.2255
   23MOL0     C 2985  10.443   5.859   5.238  0.2990 -0.8594  1.2232
   23MOL0     C 2986  10.428   5.993   5.161 -0.4470 -0.3700 -0.0764
   23MOL0     N 2987  10.518   6.108   5.208 -0.3485  0.8194 -0.4363
   23MOL0     C 2988  10.531   6.219   5.131 -0.6241  0.2730 -0.0144
   23MOL0     C 2989  10.639   6.287   5.195  0.9996 -0.1604 -0.6405
   23MOL0     C 2990  10.676   6.424   5.163  0.8037 -0.2152  0.0234
   23MOL0     C 2991  10.823   6.445   5.123  0.7237 -0.5278  0.1710
   23MOL0     C 2992  10.857   6.596   5.094  0.1925 -0.0179  0.0420
   23MOL0     C 2993  10.784   6.667   4.979 -0.1354  0.5362  0.6325
   23MOL0     O 2994  10.830   6.602   4.861 -0.8978  0.2337  0.0771
   23MOL0     C 2995  10.757   6.604   4.748  0.1168 -0.2829  0.5130
   23MOL0     C 2996  10.659   6.698   4.722 -0.1743  1.0833  0.1598
   23MOL0     C 2997  10.570   6.703   4.614  0.5510  0.7843 -0.3842
   23MOL0     C 2998  10.485   6.824   4.605  0.4176  0.8698 -0.2791
   23MOL0     C 2999  10.579   6.603   4.515  0.6956  0.4295  0.3040
   23MOL0     C 3000  10.490   6.592   4.390 -0.6104 -0.5881  0.2963
   23MOL0     O 3001  10.467   6.716   4.330 -0.1627  0.0717 -0.6381
   23MOL0     C 3002  10.369   6.705   4.236  0.3175 -0.6057 -0.9095
   23MOL0     C 3003  10.398   6.657   4.113  0.7006  0.4671 -0.0985
   23MOL0     C 3004  10.307   6.655   4.015  0.5052  0.1504  0.2886
   23MOL0     C 3005  10.182   6.721   4.043 -0.1091 -1.1794 -0.5425
   23MOL0     O 3006  10.111   6.742   3.921 -0.2450 -0.2379  0.5897
   23MOL0     C 3007   9.974   6.752   3.942  0.7513  0.1481 -0.4588
   23MOL0     C 3008   9.891   6.770   3.817  0.3897  0.0642 -0.0503
   23MOL0     C 3009   9.892   6.649   3.719 -0.2786  0.2108 -0.0038
   23MOL0     C 3010   9.842   6.671   3.571 -0.6853  0.6733 -0.0984
   23MOL0     C 3011   9.832   6.542   3.496 -0.4422  0.7017  0.1650
   23MOL0     C 3012   9.816   6.560   3.343 -0.5228 -0.7277  1.2294
   23MOL0     C 3013   9.676   6.627   3.313 -0.3489 -0.9879 -0.6192
   23MOL0     C 3014   9.680   6.668   3.163 -0.4940 -0.4023  0.2154
   23MOL0    Cl 3015   9.716   6.527   3.061 -0.4946 -0.0111  0.0492
   23MOL0     C 3016  10.147   6.774   4.171  0.1632  0.5169  0.0037
   23MOL0     C 3017  10.246   6.755   4.270 -0.1264 -1.8956  0.7453
   23MOL0     O 3018  10.472   6.483   4.345 -0.1330 -0.7275  0.6752
   23MOL0     C 3019  10.685   6.502   4.535  0.3331 -0.2462 -0.2430
   23MOL0     C 3020  10.772   6.516   4.644  0.4224  0.0149  0.0392
   23MOL0     N 3021  10.682   6.208   5.297  0.5260  0.3383 -0.6278
   23MOL0     N 3022  10.612   6.098   5.306 -0.5424 -0.2141 -0.5250
   23MOL0     C 3023  10.088   5.190   5.410 -0.3041  0.4843  0.7318
   23MOL0     C 3024  10.093   5.138   5.539  0.3239  1.4823  0.0601
   23MOL0     C 3025  10.282   5.077   5.954 -0.8514  0.2540  0.9031
   23MOL0     C 3026  10.393   5.071   6.040  1.5362  0.3665 -0.0694
   23MOL0     C 3027  10.380   5.118   6.171 -0.2642  1.0246 -0.1078
   23MOL0     C 3028  10.258   5.159   6.219  0.8345  0.6684  0.3165
   23MOL0     O 3029  10.231   5.206   6.346 -0.5488 -0.0966 -0.0663
   23MOL0     C 3030  10.290   5.125   6.448 -0.6479 -0.3993 -0.5389
   23MOL0     C 3031  10.209   5.163   6.577  0.1966  0.8667  0.5238
   23MOL0     C 3032  10.056   5.136   6.558  0.5582 -0.8318 -0.8021
   23MOL0     C 3033   9.972   5.133   6.690 -0.4109 -0.4782 -0.6493
   23MOL0     C 3034  10.006   5.033   6.776  0.4962  0.6091 -0.3907
   23MOL0     C 3035  10.024   4.934   6.837 -0.2539  0.0992 -0.2307
   23MOL0     C 3036  10.147   5.169   6.136  0.2000  0.1848  0.1066
   23MOL0     C 3037  10.150   5.120   6.003  0.6408 -0.7487 -0.6044
   23MOL0     H 3038  10.421   5.050   5.543  1.2088 -0.5369 -1.5160
   23MOL0     H 3039  10.418   5.147   5.336  0.8208 -1.3864  2.5182
   23MOL0     H 3040  10.082   5.393   5.147  0.0335  1.1933  1.2483
   23MOL0     H 3041  10.135   5.431   5.306  3.6583  3.3879  1.0705
   23MOL0     H 3042  10.329   5.459   5.084 -0.8552 -3.2339  0.2721
   23MOL0     H 3043  10.216   5.580   5.136 -0.3573 -1.4918 -2.2102
   23MOL0     H 3044  10.389   5.419   5.353  1.5610 -2.3059 -2.5528
   23MOL0     H 3045  10.455   5.549   5.252 -0.4752 -1.1493 -2.6514
   23MOL0     H 3046  10.207   5.658   5.356 -0.7720 -0.8187  2.1836
   23MOL0     H 3047  10.262   5.551   5.474  0.9972 -3.4699 -0.7835
   23MOL0     H 3048  10.388   5.726   5.553 -1.4458 -0.8979 -0.3497
   23MOL0     H 3049  10.505   5.678   5.428 -0.4625 -1.4469  0.4525
   23MOL0     H 3050  10.278   5.873   5.387 -0.3838  0.1143 -2.1933
   23MOL0     H 3051  10.434   5.928   5.447 -2.9952  0.2537  2.7440
   23MOL0     H 3052  10.549   5.832   5.237  0.6214  0.3596 -0.1952
   23MOL0     H 3053  10.403   5.778   5.176  0.9581 -0.9486  0.9051
   23MOL0     H 3054  10.323   6.025   5.156 -0.4738  0.0015  2.0331
   23MOL0     H 3055  10.465   5.969   5.061 -0.4396 -5.4338  0.8754
   23MOL0     H 3056  10.464   6.272   5.064 -0.3685  1.2997  0.5114
   23MOL0     H 3057  10.619   6.462   5.077  0.9550  1.1321  0.4934
   23MOL0     H 3058  10.644   6.488   5.247  0.8599  1.4827 -1.1888
   23MOL0     H 3059  10.841   6.375   5.042 -2.2000  0.0204 -1.1059
   23MOL0     H 3060  10.890   6.403   5.198  0.4025 -3.8773 -1.2689
   23MOL0     H 3061  10.962   6.596   5.061 -0.4955  2.6743 -2.6128
   23MOL0     H 3062  10.853   6.652   5.187 -1.2800  0.7755 -0.4669
   23MOL0     H 3063  10.826   6.767   4.967 -2.2649  1.3677 -0.4181
   23MOL0     H 3064  10.676   6.668   4.995 -0.5573  0.1958 -1.8262
   23MOL0     H 3065  10.640   6.780   4.791  1.1560  1.2961  0.3005
   23MOL0     H 3066  10.422   6.831   4.694  1.2245 -0.6154  0.4504
   23MOL0     H 3067  10.550   6.910   4.585  0.2718  1.0950  0.2143
   23MOL0     H 3068  10.413   6.831   4.523  1.8912  2.8952 -1.5061
   23MOL0     H 3069  10.502   6.629   4.102  0.7057  0.4969 -0.1198
   23MOL0     H 3070  10.315   6.610   3.917 -1.0903  2.6057 -1.0463
   23MOL0     H 3071   9.930   6.662   3.985  0.8611  0.5871  0.6087
   23MOL0     H 3072   9.953   6.841   4.003  0.9403  0.6226 -1.0786
   23MOL0     H 3073   9.787   6.795   3.837 -0.8768 -2.4824 -2.7324
   23MOL0     H 3074   9.947   6.847   3.763  1.8815  0.3040  1.7038
   23MOL0     H 3075   9.840   6.570   3.773  0.4382  0.4028  0.9842
   23MOL0     H 3076   9.994   6.611   3.706 -1.0099 -0.8079 -4.7857
   23MOL0     H 3077   9.748   6.725   3.585 -0.6189  0.3820  1.6894
   23MOL0     H 3078   9.910   6.729   3.508 -0.3642 -1.3787 -1.7730
   23MOL0     H 3079   9.759   6.467   3.529  3.3712 -3.6648 -0.2848
   23MOL0     H 3080   9.923   6.485   3.514 -2.0911 -2.0703  0.2500
   23MOL0     H 3081   9.899   6.620   3.306 -1.5383 -0.8286 -1.4268
   23MOL0     H 3082   9.828   6.461   3.299  2.7489 -0.6717  1.8126
   23MOL0     H 3083   9.667   6.720   3.370  0.2776 -1.5930  0.5096
   23MOL0     H 3084   9.592   6.562   3.337 -0.7643  0.1680  1.3021
   23MOL0     H 3085   9.757   6.741   3.134  0.7343 -1.4747  0.6491
   23MOL0     H 3086   9.579   6.706   3.147  0.0938  0.1538 -2.9783
   23MOL0     H 3087  10.057   6.813   4.216 -1.0430 -1.8110 -0.2070
   23MOL0     H 3088  10.224   6.805   4.364 -1.8442 -0.4184 -0.3846
   23MOL0     H 3089  10.695   6.427   4.457  1.1775  0.7866 -1.1660
   23MOL0     H 3090  10.858   6.450   4.653  0.0376 -0.3664  1.1560
   23MOL0     H 3091   9.999   5.243   5.377 -1.2796 -0.4725  1.7127
   23MOL0     H 3092  10.004   5.144   5.600  0.0935  0.0069 -0.1076
   23MOL0     H 3093  10.480   5.017   6.003  0.3881 -1.6498  0.0378
   23MOL0     H 3094  10.464   5.100   6.238  0.7085  0.5741 -1.4262
   23MOL0     H 3095  10.279   5.019   6.427 -1.7462 -0.5306  0.5505
   23MOL0     H 3096  10.400   5.130   6.449 -0.6230 -0.9277 -0.8458
   23MOL0     H 3097  10.244   5.263   6.606  2.9472  0.8351 -2.2073
   23MOL0     H 3098  10.245   5.101   6.659 -2.3217 -0.2939  0.8409
   23MOL0     H 3099  10.035   5.040   6.511 -1.8806 -0.9147  0.2983
   23MOL0     H 3100  10.017   5.212   6.490 -0.4649  1.8608  2.4923
   23MOL0     H 3101   9.863   5.132   6.678 -0.6481 -0.8718  1.3119
   23MOL0     H 3102   9.986   5.220   6.755 -1.4804 -1.5988  1.1699
   23MOL0     H 3103  10.065   4.839   6.865  3.8108  2.0607  1.1701
   23MOL0     H 3104  10.065   5.225   6.181  0.0888  0.1442 -0.0457
   23MOL0     H 3105  10.065   5.125   5.936 -0.8063 -0.7554  1.1546
   24MOL0     O 3106   3.949   8.248  10.278 -0.6517  0.8546  0.1123
   24MOL0     C 3107   4.072   8.262  10.258  0.0055  0.0782  0.3097
   24MOL0     O 3108   4.118   8.344  10.161 -0.2665  0.2836 -0.3647
   24MOL0     C 3109   4.039   8.434  10.100 -0.9546 -0.6531 -0.7626
   24MOL0     C 3110   3.921   8.408  10.043  1.2402 -0.5793 -0.7901
   24MOL0     C 3111   3.859   8.504   9.972 -0.0002 -0.1214 -0.1821
   24MOL0     C 3112   3.916   8.632   9.950  0.6995  0.3865 -0.7058
   24MOL0     O 3113   3.850   8.708   9.857  0.2235 -0.5395  0.0080
   24MOL0     C 3114   3.739   8.781   9.919 -0.2334  0.2575 -0.7134
   24MOL0     C 3115   3.612   8.766   9.850 -0.2394 -0.3864 -0.1442
   24MOL0     C 3116   3.610   8.875   9.735 -1.1393 -0.2217  0.0435
   24MOL0     C 3117   3.702   8.850   9.611  0.7160 -1.0290  0.1456
   24MOL0     C 3118   3.661   8.941   9.495  0.2962  0.8073  0.0832
   24MOL0     C 3119   3.730   9.085   9.499  0.0407  0.5184  0.1493
   24MOL0     C 3120   3.711   9.154   9.365  0.6469 -0.2162  0.2653
   24MOL0     C 3121   3.567   9.210   9.341  0.4828 -0.3811  0.1192
   24MOL0     N 3122   3.542   9.329   9.437 -0.1642  0.4256 -0.0573
   24MOL0     C 3123   3.616   9.444   9.462 -1.0966  0.1696  1.5338
   24MOL0     C 3124   3.544   9.513   9.550  0.0578 -0.3592 -0.7747
   24MOL0     C 3125   3.583   9.642   9.615 -0.5153  0.3157  0.3681
   24MOL0     C 3126   3.642   9.746   9.513 -0.2793 -0.4768  0.2776
   24MOL0     C 3127   3.539   9.816   9.423 -0.3982  0.5992  0.8655
   24MOL0     C 3128   3.612   9.873   9.303 -0.2558  0.3386 -0.1927
   24MOL0     O 3129   3.513   9.907   9.204 -1.2816 -0.3514  0.2892
   24MOL0     C 3130   3.570   9.914   9.075 -0.7304 -0.7389 -0.2384
   24MOL0     C 3131   3.493   9.889   8.967 -1.3959  0.9980 -0.1846
   24MOL0     C 3132   3.546   9.896   8.835  0.5408  0.0778 -0.5622
   24MOL0     C 3133   3.445   9.871   8.725  0.3392  0.3615 -1.4220
   24MOL0     C 3134   3.687   9.931   8.812 -0.2026 -0.2906  0.1831
   24MOL0     C 3135   3.762   9.939   8.685 -0.1706  0.3026 -0.3922
   24MOL0     O 3136   3.689   9.970   8.578  0.5670  0.0077  0.5101
   24MOL0     C 3137   3.754   9.964   8.455  0.2054 -0.4261 -1.4234
   24MOL0     C 3138   3.726   9.855   8.373 -0.3388 -0.5899  0.1305
   24MOL0     C 3139   3.788   9.836   8.248 -1.1092 -0.8402 -0.5497
   24MOL0     C 3140   3.878   9.931   8.205  0.5112  0.6982  0.4621
   24MOL0     O 3141   3.934   9.906   8.078  0.3088 -0.1892 -0.5372
   24MOL0     C 3142   3.997  10.015   8.013 -0.3274  0.3627  0.1088
   24MOL0     C 3143   4.051   9.973   7.878 -0.0936  0.9349 -1.0224
   24MOL0     C 3144   3.922   9.915   7.809  1.5975  0.5009 -0.6104
   24MOL0     C 3145   3.966   9.863   7.679 -0.4952 -0.3457  0.1294
   24MOL0     C 3146   3.865   9.755   7.624 -0.1175 -0.9906  0.0476
   24MOL0     C 3147   3.723   9.810   7.605  0.3857  0.5105  0.6197
   24MOL0     C 3148   3.625   9.712   7.529  0.2007  0.3662  0.1779
   24MOL0     C 3149   3.643   9.561   7.543 -0.4247  0.5704 -1.1552
   24MOL0    Cl 3150   3.549   9.498   7.422  0.2174  0.5549  0.0974
   24MOL0     C 3151   3.905  10.047   8.285 -0.4615 -0.5437 -0.3820
   24MOL0     C 3152   3.852  10.057   8.411  0.2784 -0.1344 -0.0563
   24MOL0     O 3153   3.881   9.911   8.677 -0.9422  0.2122 -0.0956
   24MOL0     C 3154   3.761   9.962   8.929  0.0286 -0.1185  0.5297
   24MOL0     C 3155   3.702   9.967   9.054 -0.4095  0.8001 -0.0207
   24MOL0     N 3156   3.427   9.438   9.578 -0.6989 -1.1936 -0.8794
   24MOL0     N 3157   3.417   9.340   9.502 -0.2241 -0.0306  0.0586
   24MOL0     C 3158   4.039   8.654  10.012 -0.3958 -0.3690 -0.8493
   24MOL0     C 3159   4.101   8.556  10.078 -0.0941 -0.0858 -0.7847
   24MOL0     C 3160   4.165   8.182  10.344  0.1823 -2.0975  0.0384
   24MOL0     C 3161   4.131   8.068  10.417  1.2058  0.3777  0.1230
   24MOL0     C 3162   4.210   8.005  10.503 -0.1042 -0.3925  0.4698
   24MOL0     C 3163   4.337   8.057  10.528 -0.1867  0.6300 -0.1293
   24MOL0     O 3164   4.416   7.991  10.620  0.3636  0.6436 -0.2519
   24MOL0     C 3165   4.527   8.057  10.676  0.1927  0.0071  0.2757
   24MOL0     C 3166   4.645   8.017  10.596  0.4461  0.1727  0.2468
   24MOL0     C 3167   4.761   8.107  10.609 -0.1684  0.3118  0.2971
   24MOL0     C 3168   4.799   8.128  10.764  0.1038 -0.0994  0.1735
   24MOL0     C 3169   4.938   8.154  10.792 -0.0357 -0.6098 -0.5719
   24MOL0     C 3170   5.062   8.150  10.814  0.3515 -0.9205  0.1367
   24MOL0     C 3171   4.372   8.164  10.446 -0.5533 -0.6529 -0.8091
   24MOL0     C 3172   4.299   8.223  10.347  0.3982  0.8172  0.3843
   24MOL0     H 3173   3.871   8.314  10.062 -0.5308  0.5763  0.6476
   24MOL0     H 3174   3.761   8.487   9.929 -0.6765  1.1423  0.7691
   24MOL0     H 3175   3.722   8.737  10.018 -1.2991  0.7386 -0.6679
   24MOL0     H 3176   3.758   8.887   9.938  2.8735 -0.3767  0.2763
   24MOL0     H 3177   3.597   8.667   9.807  0.3465 -1.3565  1.7620
   24MOL0     H 3178   3.530   8.785   9.920 -0.1456 -2.1544  0.4873
   24MOL0     H 3179   3.506   8.881   9.703 -0.7447 -0.3779 -1.3477
   24MOL0     H 3180   3.629   8.975   9.774  0.8056 -0.6403  0.2782
   24MOL0     H 3181   3.809   8.865   9.627  0.3498  2.4882 -0.0901
   24MOL0     H 3182   3.667   8.748   9.589 -1.9877 -0.1776  0.0575
   24MOL0     H 3183   3.680   8.899   9.396 -3.7578  0.7526 -0.8514
   24MOL0     H 3184   3.552   8.946   9.504 -0.0043 -3.1238  0.2949
   24MOL0     H 3185   3.675   9.132   9.581  0.0754  0.1038  0.4106
   24MOL0     H 3186   3.835   9.091   9.527 -0.1526  0.8933  0.8424
   24MOL0     H 3187   3.778   9.241   9.368 -1.9558  2.1512 -3.1736
   24MOL0     H 3188   3.746   9.082   9.290 -1.6801 -1.9754  0.7380
   24MOL0     H 3189   3.496   9.126   9.338 -2.9461  2.2819 -0.1764
   24MOL0     H 3190   3.562   9.246   9.238 -1.2755 -2.0632 -0.4425
   24MOL0     H 3191   3.711   9.473   9.417 -2.2920  0.9771 -0.5889
   24MOL0     H 3192   3.498   9.685   9.669 -0.1286  1.9991 -0.3028
   24MOL0     H 3193   3.658   9.603   9.685  0.9248 -1.5735 -2.0762
   24MOL0     H 3194   3.723   9.695   9.461  1.1953  0.8219  1.1853
   24MOL0     H 3195   3.693   9.828   9.565  0.0110  0.7942 -1.8817
   24MOL0     H 3196   3.483   9.896   9.471  0.4684  1.4586  0.4676
   24MOL0     H 3197   3.462   9.742   9.398  1.1285 -2.2089  3.7426
   24MOL0     H 3198   3.681   9.799   9.262  1.3567  0.5203  2.0501
   24MOL0     H 3199   3.661   9.962   9.342 -0.5752 -0.5673  2.4861
   24MOL0     H 3200   3.394   9.845   8.978  0.8728 -4.3613  2.9343
   24MOL0     H 3201   3.452   9.960   8.662 -2.5340  0.1323 -2.2005
   24MOL0     H 3202   3.462   9.775   8.675  0.3543  0.2319 -1.1698
   24MOL0     H 3203   3.344   9.879   8.765  1.1158 -0.8311  0.9698
   24MOL0     H 3204   3.654   9.781   8.407 -0.2400 -1.8847 -2.2774
   24MOL0     H 3205   3.742   9.763   8.183 -0.6179  0.7885 -2.8664
   24MOL0     H 3206   3.927  10.097   7.995 -2.3518 -0.9964  1.3795
   24MOL0     H 3207   4.074  10.061   8.075  2.1765  0.9274 -3.1358
   24MOL0     H 3208   4.080  10.061   7.820  1.3018  1.0673 -0.1444
   24MOL0     H 3209   4.133   9.904   7.900  0.6528  2.6586  2.2344
   24MOL0     H 3210   3.851   9.997   7.795  2.0045  0.8244 -0.8403
   24MOL0     H 3211   3.881   9.833   7.869 -0.9085  0.3228 -2.4110
   24MOL0     H 3212   3.967   9.951   7.614 -2.3545  1.1408  2.0039
   24MOL0     H 3213   4.063   9.813   7.686 -0.4875 -0.5883 -1.3312
   24MOL0     H 3214   3.858   9.680   7.703 -0.7938  1.4596  2.4839
   24MOL0     H 3215   3.895   9.719   7.526 -2.9743  0.4536 -1.4860
   24MOL0     H 3216   3.687   9.835   7.705 -0.6364  3.2874 -0.3495
   24MOL0     H 3217   3.729   9.903   7.548 -1.0706 -0.4224 -1.1451
   24MOL0     H 3218   3.641   9.740   7.424 -1.3176  2.5297  0.4726
   24MOL0     H 3219   3.523   9.738   7.557 -0.1560 -1.4167  0.6290
   24MOL0     H 3220   3.592   9.533   7.636  1.1366  1.2783 -0.0493
   24MOL0     H 3221   3.746   9.525   7.531 -0.1955  1.3039 -1.3840
   24MOL0     H 3222   3.982  10.119   8.259 -0.8612 -0.0503 -0.2097
   24MOL0     H 3223   3.856  10.136   8.485 -1.0577  0.4013 -0.5245
   24MOL0     H 3224   3.866   9.987   8.922  0.2791 -1.4451 -0.9189
   24MOL0     H 3225   3.760   9.999   9.140  0.7906  0.7273 -0.7781
   24MOL0     H 3226   4.090   8.746   9.985  2.9960 -1.3649  1.4640
   24MOL0     H 3227   4.200   8.585  10.113  0.2330 -2.2150  0.2116
   24MOL0     H 3228   4.034   8.023  10.397  1.4315  0.6406 -1.6568
   24MOL0     H 3229   4.182   7.920  10.564 -4.7206 -0.0399 -0.7894
   24MOL0     H 3230   4.520   8.166  10.681  2.0967  0.3186 -1.9510
   24MOL0     H 3231   4.535   8.020  10.778  0.8351 -2.9107 -0.7196
   24MOL0     H 3232   4.612   8.022  10.492 -0.0169 -1.4557  0.2910
   24MOL0     H 3233   4.671   7.914  10.621  1.0421  0.5291  1.1413
   24MOL0     H 3234   4.748   8.204  10.560  1.0017  0.4705  0.2707
   24MOL0     H 3235   4.837   8.051  10.554 -0.9933 -1.1167  0.5678
   24MOL0     H 3236   4.762   8.039  10.814 -1.7215  0.8332  0.5921
   24MOL0     H 3237   4.739   8.216  10.789  2.4794  1.6011  0.2682
   24MOL0     H 3238   5.167   8.146  10.833  0.2478  1.4526  1.6605
   24MOL0     H 3239   4.474   8.201  10.453 -1.1246  0.6405  1.8895
   24MOL0     H 3240   4.345   8.308  10.298  1.9805  0.0163  0.4340
   25MOL0     O 3241   9.316  10.439   4.943  0.1639  0.3228  0.2379
   25MOL0     C 3242   9.421  10.463   4.889 -1.2167 -0.1852  0.4569
   25MOL0     O 3243   9.543  10.402   4.921 -0.5909  0.5256  0.1979
   25MOL0     C 3244   9.552  10.280   4.979  0.2966  0.2995 -0.0577
   25MOL0     C 3245   9.448  10.176   4.981  0.7395  0.5597  0.6234
   25MOL0     C 3246   9.473  10.052   5.040 -0.7993  0.9306  1.0431
   25MOL0     C 3247   9.595  10.033   5.107 -0.7440 -0.2876 -0.4112
   25MOL0     O 3248   9.629   9.926   5.183 -0.0700  1.0314  0.1656
   25MOL0     C 3249   9.516   9.864   5.246 -0.2774  0.4060 -0.7135
   25MOL0     C 3250   9.546   9.716   5.287 -0.1293  0.0651 -0.7064
   25MOL0     C 3251   9.639   9.720   5.406 -0.1251 -0.3526 -0.4625
   25MOL0     C 3252   9.732   9.595   5.408 -0.3925 -0.2549  0.1598
   25MOL0     C 3253   9.842   9.599   5.514 -0.7302  0.3362 -0.5414
   25MOL0     C 3254   9.921   9.458   5.516  1.0722 -0.4033  0.2262
   25MOL0     C 3255   9.988   9.411   5.393  0.7755  0.6047  0.5477
   25MOL0     C 3256  10.067   9.281   5.414 -0.5111 -0.1782 -0.4167
   25MOL0     N 3257  10.176   9.299   5.516 -0.9038 -0.9672  0.5249
   25MOL0     C 3258  10.170   9.231   5.624 -0.1057 -0.0784 -0.2853
   25MOL0     C 3259  10.265   9.284   5.715  0.0598 -0.6565  0.0158
   25MOL0     C 3260  10.276   9.230   5.854 -1.2020  1.0465  0.1675
   25MOL0     C 3261  10.273   9.338   5.967  0.0168 -1.2167  0.0357
   25MOL0     C 3262  10.249   9.289   6.112  0.4149 -0.0868 -0.9089
   25MOL0     C 3263  10.353   9.192   6.168  0.0042 -0.4044  0.4120
   25MOL0     O 3264  10.357   9.067   6.099 -0.0971 -0.3929 -0.2130
   25MOL0     C 3265  10.445   8.978   6.148  0.4054 -0.2878  0.0319
   25MOL0     C 3266  10.457   8.868   6.068 -0.6682  0.6865  0.6625
   25MOL0     C 3267  10.549   8.759   6.099 -0.5319 -0.2761  0.0123
   25MOL0     C 3268  10.540   8.636   6.009 -0.1253 -0.3434 -0.3450
   25MOL0     C 3269  10.635   8.770   6.215  0.0048  0.0200 -0.0379
   25MOL0     C 3270  10.729   8.662   6.256 -0.4513 -0.2924  0.4344
   25MOL0     O 3271  10.845   8.698   6.303 -0.1849 -0.4953 -1.0304
   25MOL0     C 3272  10.958   8.632   6.265 -0.0313  0.7012 -0.0672
   25MOL0     C 3273  10.966   8.564   6.140  1.2087  1.4528 -0.2913
   25MOL0     C 3274  11.084   8.490   6.108 -0.2615 -0.2125  0.1993
   25MOL0     C 3275  11.188   8.493   6.201 -0.8536 -0.3462 -0.0663
   25MOL0     O 3276  11.296   8.411   6.189 -0.7657  0.3250 -0.1331
   25MOL0     C 3277  11.339   8.376   6.059 -0.6797  0.4206  0.5638
   25MOL0     C 3278  11.445   8.261   6.075  0.4551  0.0202 -1.1274
   25MOL0     C 3279  11.366   8.137   6.109  0.3045 -0.0222 -0.8818
   25MOL0     C 3280  11.317   8.066   5.979 -0.7529 -0.0216  0.4026
   25MOL0     C 3281  11.226   7.947   6.006 -0.0329 -0.0103 -0.3750
   25MOL0     C 3282  11.139   7.964   6.128  0.1477  0.6885  0.3103
   25MOL0     C 3283  11.013   7.881   6.121  0.1249  0.0235  0.5919
   25MOL0     C 3284  10.916   7.917   6.232  0.5552  0.9600 -0.1036
   25MOL0    Cl 3285  10.943   7.824   6.386 -0.2885 -0.1151 -0.2500
   25MOL0     C 3286  11.181   8.586   6.307 -0.4092 -0.3943 -0.2979
   25MOL0     C 3287  11.070   8.648   6.344 -0.3543 -1.8298  0.2783
   25MOL0     O 3288  10.689   8.548   6.246 -0.5685 -0.4638  0.0448
   25MOL0     C 3289  10.635   8.890   6.286  0.1995  0.0370  0.6613
   25MOL0     C 3290  10.538   8.995   6.256 -0.3997 -0.5188 -0.5078
   25MOL0     N 3291  10.323   9.389   5.650  0.1438 -0.0258  0.2228
   25MOL0     N 3292  10.264   9.402   5.529 -0.8844 -0.0035  0.3445
   25MOL0     C 3293   9.691  10.143   5.130 -0.5610  0.1209 -0.2720
   25MOL0     C 3294   9.671  10.255   5.050  0.1552  0.3714 -0.4534
   25MOL0     C 3295   9.424  10.558   4.786 -0.4874  0.2448  1.0474
   25MOL0     C 3296   9.535  10.639   4.755 -0.3520  0.4399 -0.2601
   25MOL0     C 3297   9.525  10.714   4.639  0.6741  0.7357  0.1807
   25MOL0     C 3298   9.412  10.726   4.554  0.5915 -0.9002  0.5077
   25MOL0     O 3299   9.425  10.818   4.446  0.2458  0.8451 -0.1159
   25MOL0     C 3300   9.325  10.929   4.434  0.9004  0.1213 -0.2542
   25MOL0     C 3301   9.398  11.058   4.445  0.5135 -0.9398  0.4972
   25MOL0     C 3302   9.536  11.077   4.373  0.4158  0.4789  0.3189
   25MOL0     C 3303   9.524  11.138   4.232  0.5363  0.3913  0.5980
   25MOL0     C 3304   9.659  11.177   4.189 -0.0767 -0.6560  0.8087
   25MOL0     C 3305   9.766  11.219   4.154 -0.3418 -0.1526 -0.7527
   25MOL0     C 3306   9.304  10.656   4.590  0.4174  0.4054 -0.3223
   25MOL0     C 3307   9.300  10.578   4.712  0.3965  0.0650  0.5697
   25MOL0     H 3308   9.354  10.199   4.931  1.8246  3.8736 -0.1279
   25MOL0     H 3309   9.385   9.992   5.060 -3.2080  4.3351  1.4924
   25MOL0     H 3310   9.495   9.930   5.331  3.1298 -0.6849  1.1640
   25MOL0     H 3311   9.428   9.839   5.186 -0.8620  0.8853 -0.0652
   25MOL0     H 3312   9.455   9.657   5.300 -1.5281  1.6011 -2.7245
   25MOL0     H 3313   9.600   9.669   5.204 -0.2830 -3.3638  0.9542
   25MOL0     H 3314   9.686   9.819   5.405 -4.2201  1.9164  2.4829
   25MOL0     H 3315   9.587   9.733   5.502 -1.2816  1.4645 -1.3018
   25MOL0     H 3316   9.686   9.496   5.411  1.5954 -1.2700 -0.3562
   25MOL0     H 3317   9.782   9.587   5.311 -1.8613 -4.2873 -0.4646
   25MOL0     H 3318   9.916   9.670   5.476  0.1543  0.2747  0.9901
   25MOL0     H 3319   9.802   9.626   5.612 -2.0791  4.0585 -1.9302
   25MOL0     H 3320   9.997   9.487   5.588  1.6353 -1.8591  0.2328
   25MOL0     H 3321   9.857   9.376   5.551 -2.1416  0.3684 -3.1495
   25MOL0     H 3322   9.907   9.393   5.322  0.3575  1.5320  0.7801
   25MOL0     H 3323  10.069   9.473   5.353 -0.5676  1.8137 -0.3784
   25MOL0     H 3324  10.109   9.249   5.318 -1.9311  1.5399 -1.6776
   25MOL0     H 3325  10.004   9.198   5.448 -1.0682  0.1123 -0.7197
   25MOL0     H 3326  10.105   9.147   5.648 -1.0242 -0.1413 -2.7144
   25MOL0     H 3327  10.199   9.154   5.871  0.0167 -0.7356 -1.8610
   25MOL0     H 3328  10.368   9.172   5.865 -0.8750  1.3831 -0.7240
   25MOL0     H 3329  10.181   9.396   5.955  0.5611  0.3255  2.7117
   25MOL0     H 3330  10.361   9.403   5.962 -1.0854  0.5422  2.2778
   25MOL0     H 3331  10.156   9.236   6.131  2.2585 -2.8568  1.2276
   25MOL0     H 3332  10.241   9.378   6.175  0.6114 -1.4142  1.0809
   25MOL0     H 3333  10.324   9.175   6.272  3.2989 -0.3449  1.4553
   25MOL0     H 3334  10.454   9.235   6.162 -1.3013  2.7917 -0.7745
   25MOL0     H 3335  10.381   8.849   5.992 -0.5556  0.2669  0.6531
   25MOL0     H 3336  10.489   8.667   5.917  0.2191  1.0181 -0.1063
   25MOL0     H 3337  10.638   8.592   5.988 -1.4105 -2.6151 -2.0291
   25MOL0     H 3338  10.480   8.568   6.070 -0.3055  0.1695  0.0583
   25MOL0     H 3339  10.876   8.540   6.084  1.0672  0.4128  0.3623
   25MOL0     H 3340  11.089   8.423   6.023  1.4206 -0.1060  0.1970
   25MOL0     H 3341  11.258   8.340   5.995 -0.1012 -0.9110  0.5468
   25MOL0     H 3342  11.386   8.457   6.004  2.7005 -1.5204  0.2832
   25MOL0     H 3343  11.512   8.247   5.990  2.2948 -2.0636  0.5473
   25MOL0     H 3344  11.512   8.290   6.156 -1.3136  1.8340 -0.2093
   25MOL0     H 3345  11.284   8.155   6.179 -1.6849 -0.6644 -2.9436
   25MOL0     H 3346  11.430   8.066   6.161 -0.5768 -0.9786 -1.0656
   25MOL0     H 3347  11.280   8.143   5.910  1.5313 -0.4028 -1.3843
   25MOL0     H 3348  11.399   8.016   5.926  0.0033  3.4455 -2.1069
   25MOL0     H 3349  11.289   7.858   6.010 -1.7911 -1.2627  2.0962
   25MOL0     H 3350  11.171   7.929   5.913 -1.5584  1.2690  0.2169
   25MOL0     H 3351  11.204   7.936   6.211 -0.8489  3.3630  2.1189
   25MOL0     H 3352  11.110   8.068   6.141  1.9625  1.4302 -1.0451
   25MOL0     H 3353  11.037   7.774   6.115 -0.7261 -0.0879 -1.8692
   25MOL0     H 3354  10.966   7.894   6.023  0.6675 -0.0981  0.3041
   25MOL0     H 3355  10.822   7.883   6.187  0.0577  0.7364  1.0681
   25MOL0     H 3356  10.900   8.024   6.248  0.2668  0.8494  0.3972
   25MOL0     H 3357  11.267   8.589   6.373 -1.0835 -0.5702  0.6149
   25MOL0     H 3358  11.057   8.723   6.421  2.1399 -1.3312  0.2900
   25MOL0     H 3359  10.693   8.893   6.378  1.1349 -2.0072  0.1726
   25MOL0     H 3360  10.542   9.097   6.294  0.1395 -0.6710 -0.1506
   25MOL0     H 3361   9.776  10.146   5.197 -1.5225  2.4625  0.9675
   25MOL0     H 3362   9.758  10.319   5.052  0.8930 -0.6119  1.7875
   25MOL0     H 3363   9.635  10.637   4.797 -0.1535  2.8160 -0.4639
   25MOL0     H 3364   9.622  10.757   4.613  0.4249  1.4846  0.4731
   25MOL0     H 3365   9.266  10.932   4.342 -3.3786  2.2350  2.2590
   25MOL0     H 3366   9.246  10.916   4.508 -0.5695 -0.0804 -1.8036
   25MOL0     H 3367   9.397  11.081   4.552 -1.5947 -0.6034  0.4559
   25MOL0     H 3368   9.332  11.135   4.404 -2.0623 -2.7923  0.9144
   25MOL0     H 3369   9.583  10.979   4.359  1.2964  0.9205  0.1602
   25MOL0     H 3370   9.604  11.136   4.436  1.4819  3.0311 -2.9213
   25MOL0     H 3371   9.446  11.214   4.234 -0.6716 -0.7032 -1.4207
   25MOL0     H 3372   9.487  11.056   4.169  0.5216 -0.3413  1.5401
   25MOL0     H 3373   9.861  11.249   4.115 -2.7536  5.4183 -3.5426
   25MOL0     H 3374   9.210  10.682   4.542 -0.3467 -2.9978 -0.8707
   25MOL0     H 3375   9.218  10.508   4.719  1.9928 -2.0760 -0.7372
   26MOL0     O 3376   0.955   5.970  10.786 -0.0645 -0.4142 -0.2858
   26MOL0     C 3377   0.888   5.865  10.788 -0.5637 -0.8366  0.8585
   26MOL0     O 3378   0.908   5.759  10.863  0.5693  0.2086  0.6457
   26MOL0     C 3379   1.012   5.771  10.957  0.1421 -0.4901  0.6212
   26MOL0     C 3380   1.143   5.773  10.909 -0.4081 -0.0582  0.5010
   26MOL0     C 3381   1.257   5.798  10.987  0.6065  0.0031 -0.8692
   26MOL0     C 3382   1.239   5.809  11.124 -0.0786 -0.4208 -0.3431
   26MOL0     O 3383   1.349   5.843  11.200 -0.1570 -0.4671 -0.8778
   26MOL0     C 3384   1.371   5.791  11.331  0.0062 -0.8820  0.0560
   26MOL0     C 3385   1.518   5.750  11.351 -0.5585  0.9340 -0.3625
   26MOL0     C 3386   1.621   5.872  11.344 -0.5610 -0.3413 -0.0943
   26MOL0     C 3387   1.696   5.882  11.200  0.8072  0.7043 -1.3062
   26MOL0     C 3388   1.787   6.012  11.189 -0.8492 -0.1459 -0.0199
   26MOL0     C 3389   1.878   6.011  11.061 -0.1320  0.9159 -0.7880
   26MOL0     C 3390   1.967   6.134  11.038  0.0935  0.1957 -0.4097
   26MOL0     C 3391   2.086   6.121  10.941  0.8347  0.6605 -0.3154
   26MOL0     N 3392   2.045   6.114  10.801 -0.0623  0.5293  0.4773
   26MOL0     C 3393   1.974   6.211  10.729 -0.3086  0.0732  0.3297
   26MOL0     C 3394   1.954   6.147  10.606  0.7431  0.0712 -0.6866
   26MOL0     C 3395   1.870   6.205  10.482  0.4193  1.1593 -0.1492
   26MOL0     C 3396   1.955   6.176  10.358 -0.0096  0.0565  1.1647
   26MOL0     C 3397   1.935   6.023  10.292 -0.3121 -0.5298  0.3516
   26MOL0     C 3398   1.979   6.020  10.148 -0.0527  0.9349  1.7973
   26MOL0     O 3399   1.879   6.087  10.059 -0.1935 -0.0776 -1.1384
   26MOL0     C 3400   1.757   6.028  10.024 -0.5444  0.4479 -0.5270
   26MOL0     C 3401   1.663   6.113   9.978 -0.6909 -0.3906  0.3572
   26MOL0     C 3402   1.527   6.086   9.960 -0.8160  0.3327 -0.8757
   26MOL0     C 3403   1.442   6.191   9.900 -0.7666 -0.2893 -0.0912
   26MOL0     C 3404   1.483   5.957   9.985  0.2615  0.1878 -0.2272
   26MOL0     C 3405   1.340   5.914   9.966  0.1250  0.0792  1.3047
   26MOL0     O 3406   1.272   5.981   9.870  0.5290  0.2995  0.2397
   26MOL0     C 3407   1.158   5.921   9.815  0.8123  0.0708  0.0975
   26MOL0     C 3408   1.036   5.994   9.817 -0.2124  0.9058  0.7667
   26MOL0     C 3409   0.922   5.952   9.753 -0.3646  1.0469 -0.2467
   26MOL0     C 3410   0.916   5.818   9.700 -0.5221  0.9087 -0.2731
   26MOL0     O 3411   0.793   5.774   9.652 -0.2982  0.3276  0.8746
   26MOL0     C 3412   0.784   5.727   9.514  0.1888  0.0086 -0.0251
   26MOL0     C 3413   0.720   5.579   9.506  1.1658  0.2383 -0.6033
   26MOL0     C 3414   0.564   5.591   9.542 -0.8010  0.2657  0.0613
   26MOL0     C 3415   0.509   5.451   9.571 -0.0039  0.2061  0.2590
   26MOL0     C 3416   0.396   5.456   9.677  0.4486 -0.4240 -1.1435
   26MOL0     C 3417   0.355   5.322   9.712  0.8890 -0.0645 -0.3670
   26MOL0     C 3418   0.298   5.232   9.596  0.3340  0.9182  0.3164
   26MOL0     C 3419   0.244   5.094   9.648  0.0398  0.4657  0.9751
   26MOL0    Cl 3420   0.067   5.107   9.699  0.1522 -0.0121 -0.0666
   26MOL0     C 3421   1.038   5.749   9.697 -1.1057 -0.2391 -0.5381
   26MOL0     C 3422   1.163   5.802   9.743  0.6488  0.2447 -0.3095
   26MOL0     O 3423   1.295   5.814  10.029 -0.5761 -0.9759 -0.1068
   26MOL0     C 3424   1.576   5.866  10.042 -0.1496  0.1890  0.2365
   26MOL0     C 3425   1.718   5.901  10.058  0.5642  0.4564 -0.3781
   26MOL0     N 3426   2.000   6.015  10.615  0.2187 -0.1124 -1.1522
   26MOL0     N 3427   2.040   5.995  10.741 -0.2195  0.5179  0.4416
   26MOL0     C 3428   1.107   5.814  11.178 -0.9192  0.2354  0.4795
   26MOL0     C 3429   0.994   5.789  11.089  0.3216 -0.3503 -0.2262
   26MOL0     C 3430   0.772   5.861  10.706  0.7699  1.0076  0.9018
   26MOL0     C 3431   0.676   5.772  10.731  0.0263  0.3939 -0.8153
   26MOL0     C 3432   0.565   5.768  10.653  1.4012 -0.5548  0.4301
   26MOL0     C 3433   0.550   5.858  10.548  0.4617 -0.8510  0.5274
   26MOL0     O 3434   0.440   5.865  10.463 -0.3720 -0.9020 -0.3062
   26MOL0     C 3435   0.321   5.800  10.492  0.2972 -0.2729 -0.1457
   26MOL0     C 3436   0.196   5.876  10.442 -0.3911 -0.8112 -0.1036
   26MOL0     C 3437   0.163   5.880  10.287 -0.1459  0.4888 -1.1138
   26MOL0     C 3438   0.035   5.947  10.250  0.6194 -0.3725 -0.8121
   26MOL0     C 3439   0.011   5.939  10.106  0.5774  0.4116  0.1430
   26MOL0     C 3440  -0.016   5.921   9.987 -0.0833  0.5339 -0.1861
   26MOL0     C 3441   0.655   5.938  10.515 -0.1639  0.8208  0.1325
   26MOL0     C 3442   0.770   5.949  10.590 -0.1648 -0.3193 -0.5090
   26MOL0     H 3443   1.166   5.759  10.803 -0.2629 -1.0129  0.6512
   26MOL0     H 3444   1.360   5.791  10.952  0.7748  1.3280 -0.6903
   26MOL0     H 3445   1.358   5.868  11.409  0.6441  0.1641 -0.8405
   26MOL0     H 3446   1.298   5.712  11.349  0.5322 -1.5467 -0.6714
   26MOL0     H 3447   1.517   5.706  11.452 -0.5921  1.2495 -0.2259
   26MOL0     H 3448   1.542   5.666  11.285 -0.2063 -0.0726  1.0027
   26MOL0     H 3449   1.563   5.963  11.364  0.6099  0.4308 -0.1125
   26MOL0     H 3450   1.696   5.874  11.423  1.4183 -1.1809 -1.8531
   26MOL0     H 3451   1.751   5.789  11.191  1.5718  0.8610  1.1480
   26MOL0     H 3452   1.614   5.882  11.128 -0.6689 -0.3143  0.2799
   26MOL0     H 3453   1.720   6.098  11.193  0.1228  0.6723 -0.8690
   26MOL0     H 3454   1.848   6.013  11.280 -1.5810  1.1076  0.4876
   26MOL0     H 3455   1.938   5.919  11.063  1.5779  1.9717  2.4066
   26MOL0     H 3456   1.814   6.005  10.972 -1.2938  3.1116 -0.1660
   26MOL0     H 3457   1.903   6.209  10.992  1.2412  1.4393 -0.0286
   26MOL0     H 3458   1.997   6.174  11.135  1.5872 -0.3337 -0.6204
   26MOL0     H 3459   2.127   6.025  10.975 -3.6993 -0.8331  1.7130
   26MOL0     H 3460   2.159   6.203  10.937 -0.5928  1.9594 -0.4143
   26MOL0     H 3461   1.945   6.308  10.769  2.9362  0.8972  0.9405
   26MOL0     H 3462   1.774   6.153  10.481 -0.1712  2.2007  0.4642
   26MOL0     H 3463   1.846   6.311  10.498 -2.6273  0.3167  1.4842
   26MOL0     H 3464   2.058   6.177  10.396 -0.3639 -1.6907  2.2746
   26MOL0     H 3465   1.929   6.247  10.279  0.1099 -1.1303  0.0235
   26MOL0     H 3466   1.830   5.992  10.295 -0.6851  0.4190 -1.5979
   26MOL0     H 3467   1.990   5.951  10.354 -0.4826 -1.4579 -0.5470
   26MOL0     H 3468   1.995   5.923  10.099  3.9547  2.1274  0.3495
   26MOL0     H 3469   2.081   6.059  10.141  1.5828 -2.7265  2.6382
   26MOL0     H 3470   1.697   6.216   9.976  0.5820 -0.8027 -0.0086
   26MOL0     H 3471   1.506   6.277   9.878  1.4697 -1.9249 -0.4329
   26MOL0     H 3472   1.408   6.167   9.799  0.5091  3.1633 -1.4975
   26MOL0     H 3473   1.354   6.203   9.963  0.1871 -2.6378  1.8429
   26MOL0     H 3474   1.034   6.081   9.882 -0.5068  2.4686 -1.2553
   26MOL0     H 3475   0.833   6.013   9.757  0.5770  2.4785 -0.2115
   26MOL0     H 3476   0.715   5.794   9.462  1.2290  0.4697 -0.8510
   26MOL0     H 3477   0.878   5.728   9.458 -0.7118  0.8769 -1.5878
   26MOL0     H 3478   0.729   5.535   9.406  0.0489  1.8236 -1.4513
   26MOL0     H 3479   0.780   5.529   9.581 -1.2272  1.6423  2.4769
   26MOL0     H 3480   0.494   5.638   9.473  0.0365  1.2704 -0.1312
   26MOL0     H 3481   0.552   5.647   9.636 -0.5115  0.2147  0.1315
   26MOL0     H 3482   0.454   5.420   9.482 -0.3952  2.4497 -0.3515
   26MOL0     H 3483   0.586   5.382   9.607 -1.6800 -0.7844  2.1155
   26MOL0     H 3484   0.314   5.510   9.628 -0.7482 -1.1461  0.0041
   26MOL0     H 3485   0.422   5.504   9.772 -3.5641 -0.8329  0.3495
   26MOL0     H 3486   0.443   5.278   9.759 -0.9648 -0.8160  2.7240
   26MOL0     H 3487   0.274   5.326   9.785  0.4719  0.0290 -0.8259
   26MOL0     H 3488   0.376   5.210   9.522 -2.8484 -1.5728 -2.5870
   26MOL0     H 3489   0.216   5.276   9.539  2.0966 -0.0406 -3.2712
   26MOL0     H 3490   0.310   5.059   9.728 -0.7116 -0.7964  1.0652
   26MOL0     H 3491   0.240   5.012   9.575  0.7528  1.2718  0.0031
   26MOL0     H 3492   1.051   5.650   9.653 -1.2791  1.1469 -4.0477
   26MOL0     H 3493   1.256   5.750   9.725  1.0367  1.4058 -1.8585
   26MOL0     H 3494   1.540   5.770  10.078  0.1304 -0.0346 -0.0773
   26MOL0     H 3495   1.775   5.819  10.100  1.7609  1.5475  0.2221
   26MOL0     H 3496   1.102   5.838  11.284  0.2229 -0.1092  0.6324
   26MOL0     H 3497   0.899   5.796  11.141  1.1177  2.8403  1.0727
   26MOL0     H 3498   0.677   5.704  10.815 -1.4242 -0.5419 -1.5032
   26MOL0     H 3499   0.483   5.705  10.685  0.0694  1.7346  1.7768
   26MOL0     H 3500   0.323   5.698  10.451  2.2002 -0.3275  0.0045
   26MOL0     H 3501   0.309   5.788  10.600  2.7837  0.7786  0.3202
   26MOL0     H 3502   0.201   5.981  10.473 -0.0334 -1.2012  1.2215
   26MOL0     H 3503   0.114   5.833  10.500 -0.8505 -0.4689 -0.4888
   26MOL0     H 3504   0.153   5.779  10.247 -0.6793  1.2195 -2.9705
   26MOL0     H 3505   0.244   5.921  10.226  0.3463 -1.6300 -1.9822
   26MOL0     H 3506   0.044   6.054  10.269 -1.5860 -0.3080  0.3059
   26MOL0     H 3507  -0.049   5.907  10.309 -0.1677  1.2351 -0.8056
   26MOL0     H 3508  -0.039   5.895   9.886 -0.8959 -0.5012  0.2480
   26MOL0     H 3509   0.650   5.983  10.417 -2.2215 -1.0136 -0.6677
   26MOL0     H 3510   0.853   6.011  10.558 -0.6731  0.8711  0.4286
   27MOL0     O 3511   2.122   1.037   9.717 -0.4148  0.5484  0.1156
   27MOL0     C 3512   2.065   1.008   9.817 -0.7735  0.5438  0.6147
   27MOL0     O 3513   2.117   1.014   9.944 -0.0295 -0.2647  0.0367
   27MOL0     C 3514   2.249   1.028   9.975  0.0302  0.6248  0.4636
   27MOL0     C 3515   2.355   1.000   9.895 -0.2061 -0.1917 -0.2552
   27MOL0     C 3516   2.491   1.025   9.931 -1.3110 -0.4919 -0.1814
   27MOL0     C 3517   2.507   1.076  10.070  0.2120  0.7727  0.8687
   27MOL0     O 3518   2.630   1.105  10.129 -0.0886  0.2561 -0.2128
   27MOL0     C 3519   2.761   1.060  10.086  0.0868  0.1447  0.1266
   27MOL0     C 3520   2.785   0.916  10.141  0.2857 -0.0737  0.2063
   27MOL0     C 3521   2.934   0.869  10.123  0.1210 -0.2444 -0.6917
   27MOL0     C 3522   3.011   0.892  10.256  0.8371  0.7466 -0.3296
   27MOL0     C 3523   3.153   0.912  10.242  0.5641 -0.6103 -0.1311
   27MOL0     C 3524   3.217   0.784  10.186  0.6142 -0.1280  0.2472
   27MOL0     C 3525   3.351   0.813  10.110 -0.5048  0.1754 -0.6876
   27MOL0     C 3526   3.419   0.693  10.071  0.2086 -0.1697  0.3554
   27MOL0     N 3527   3.534   0.746   9.987  0.8218  0.1326 -1.1555
   27MOL0     C 3528   3.538   0.780   9.854 -1.1091 -0.1423  0.5925
   27MOL0     C 3529   3.668   0.814   9.824  0.4027 -0.2835 -0.0050
   27MOL0     C 3530   3.734   0.857   9.699  1.2669 -0.5215  0.2827
   27MOL0     C 3531   3.772   0.747   9.612  0.1503 -0.1922  0.3434
   27MOL0     C 3532   3.868   0.643   9.686 -0.2811  0.8037  0.1947
   27MOL0     C 3533   3.974   0.584   9.587  0.5923  0.0251 -0.2124
   27MOL0     O 3534   3.907   0.485   9.504 -0.0648  0.0396 -0.4078
   27MOL0     C 3535   3.992   0.439   9.411 -0.7009  1.7404  0.3465
   27MOL0     C 3536   3.971   0.468   9.278 -0.0867 -0.2478  0.4324
   27MOL0     C 3537   4.061   0.437   9.176  0.4266 -0.7665 -0.1856
   27MOL0     C 3538   4.039   0.496   9.040  0.6904  0.3563 -0.0700
   27MOL0     C 3539   4.168   0.355   9.206  0.2637 -0.3905 -0.1585
   27MOL0     C 3540   4.256   0.307   9.093 -0.2689  0.0695  0.2805
   27MOL0     O 3541   4.216   0.323   8.965 -0.0457 -0.2271  0.2189
   27MOL0     C 3542   4.286   0.282   8.855 -0.7793 -0.5465 -0.6345
   27MOL0     C 3543   4.259   0.341   8.732  0.3737  0.9333 -0.4940
   27MOL0     C 3544   4.307   0.286   8.618 -0.8470 -0.0409  0.2748
   27MOL0     C 3545   4.399   0.176   8.619 -0.9584  0.6910 -0.2605
   27MOL0     O 3546   4.451   0.141   8.492  0.4068 -0.0840  0.6072
   27MOL0     C 3547   4.536   0.036   8.490  0.5402  0.8432 -0.5754
   27MOL0     C 3548   4.525  -0.028   8.359 -0.3092 -0.4492 -0.2527
   27MOL0     C 3549   4.637  -0.137   8.346 -0.0083  0.4281  0.7795
   27MOL0     C 3550   4.595  -0.278   8.393  0.0654  1.7226 -0.0611
   27MOL0     C 3551   4.520  -0.343   8.295  0.5020  0.4284  1.0483
   27MOL0     C 3552   4.497  -0.494   8.328  0.7818 -0.2080  1.2911
   27MOL0     C 3553   4.383  -0.562   8.254 -0.6010  1.3469  0.3388
   27MOL0     C 3554   4.343  -0.700   8.314  0.0383 -1.0603 -0.2188
   27MOL0    Cl 3555   4.398  -0.833   8.221 -0.1277 -0.0997  0.2807
   27MOL0     C 3556   4.436   0.122   8.741  0.2690  0.8067  0.2421
   27MOL0     C 3557   4.372   0.170   8.853 -0.2135  0.1920  0.1415
   27MOL0     O 3558   4.366   0.267   9.135  0.0305  0.4331  0.1987
   27MOL0     C 3559   4.186   0.313   9.335 -0.2547  0.3131 -1.2699
   27MOL0     C 3560   4.107   0.353   9.438 -0.7706  0.5871  0.7732
   27MOL0     N 3561   3.734   0.797   9.948  0.2979 -0.2361 -0.1829
   27MOL0     N 3562   3.662   0.752  10.034  0.3097 -0.1451 -1.1001
   27MOL0     C 3563   2.390   1.100  10.156 -0.4675 -0.4428  0.1371
   27MOL0     C 3564   2.269   1.067  10.107 -0.0226 -0.1190 -0.7789
   27MOL0     C 3565   1.923   0.967   9.805  0.9430 -0.4523  0.4748
   27MOL0     C 3566   1.840   0.959   9.683  0.6582  0.7106  0.0262
   27MOL0     C 3567   1.706   0.923   9.674 -1.8797 -0.2828  0.4148
   27MOL0     C 3568   1.646   0.889   9.800  0.3418 -0.3841 -0.7494
   27MOL0     O 3569   1.522   0.825   9.824 -0.2462  0.3518  0.0540
   27MOL0     C 3570   1.425   0.853   9.726 -0.7088  0.0742 -0.1665
   27MOL0     C 3571   1.383   1.001   9.724  0.5556 -0.9441  0.9537
   27MOL0     C 3572   1.312   1.042   9.842  0.4210 -0.3917 -0.9371
   27MOL0     C 3573   1.272   1.189   9.833  0.3235  0.4523  0.5325
   27MOL0     C 3574   1.247   1.263   9.957  0.1590  0.7509 -0.2286
   27MOL0     C 3575   1.218   1.329  10.055  0.2029  0.4510 -1.2215
   27MOL0     C 3576   1.723   0.880   9.910 -0.6274 -0.0969  0.1660
   27MOL0     C 3577   1.853   0.928   9.917 -0.5686  0.5889 -0.0068
   27MOL0     H 3578   2.326   0.963   9.797 -2.1485 -0.9840  0.5648
   27MOL0     H 3579   2.571   0.992   9.866 -1.7158 -0.2587 -0.8120
   27MOL0     H 3580   2.753   1.052   9.977  1.2122 -1.9598  0.1545
   27MOL0     H 3581   2.842   1.125  10.122 -2.0066  1.4601  2.8174
   27MOL0     H 3582   2.750   0.909  10.244  2.6490 -1.3894  1.0092
   27MOL0     H 3583   2.734   0.849  10.072 -0.8246  1.7426 -0.8277
   27MOL0     H 3584   2.942   0.764  10.093  0.3573 -0.4272 -0.0008
   27MOL0     H 3585   2.981   0.927  10.044 -1.6466  1.1110 -0.8081
   27MOL0     H 3586   2.959   0.973  10.308 -1.2407  0.6293 -2.0748
   27MOL0     H 3587   3.009   0.799  10.313  5.4114  1.9985  2.4511
   27MOL0     H 3588   3.176   0.994  10.173  0.4257  0.5884  1.1932
   27MOL0     H 3589   3.191   0.944  10.340 -0.1331 -1.4524  0.4204
   27MOL0     H 3590   3.248   0.724  10.272  2.6294  1.0532  0.4021
   27MOL0     H 3591   3.150   0.729  10.119  0.6868  0.0463  0.0322
   27MOL0     H 3592   3.330   0.873  10.020 -1.1788  0.7368 -0.1626
   27MOL0     H 3593   3.414   0.861  10.186 -1.0008 -1.3847  0.7632
   27MOL0     H 3594   3.355   0.623  10.016 -2.2023 -0.3053  3.0783
   27MOL0     H 3595   3.445   0.633  10.159  2.7828  0.3757  0.0396
   27MOL0     H 3596   3.455   0.797   9.786 -0.4067  1.6588  0.1532
   27MOL0     H 3597   3.668   0.918   9.637 -1.2363 -2.0998  1.2630
   27MOL0     H 3598   3.825   0.909   9.733  1.7010 -1.7337  1.0277
   27MOL0     H 3599   3.819   0.798   9.527 -1.4848  1.1366  0.1887
   27MOL0     H 3600   3.678   0.700   9.580  0.8020 -0.3659 -1.4282
   27MOL0     H 3601   3.817   0.565   9.742 -1.2320  0.5309 -1.0138
   27MOL0     H 3602   3.930   0.701   9.756  1.5615 -0.9999  0.1508
   27MOL0     H 3603   4.051   0.530   9.643  0.0847 -0.6824 -0.1839
   27MOL0     H 3604   4.037   0.663   9.545  2.8291 -1.6484 -0.2104
   27MOL0     H 3605   3.890   0.538   9.263 -1.0068 -1.1518  1.0143
   27MOL0     H 3606   4.132   0.532   8.995  2.2378 -0.6256  2.1880
   27MOL0     H 3607   3.983   0.426   8.977  3.1300 -0.5649 -1.3472
   27MOL0     H 3608   3.975   0.584   9.053 -2.4124 -1.8749  1.0753
   27MOL0     H 3609   4.197   0.429   8.721 -0.5603  0.1889 -1.4159
   27MOL0     H 3610   4.285   0.330   8.521  3.5045  1.7647 -0.1319
   27MOL0     H 3611   4.630   0.086   8.516 -1.9254  5.2718  0.9277
   27MOL0     H 3612   4.520  -0.046   8.562  1.2508 -0.3113 -1.6915
   27MOL0     H 3613   4.425  -0.073   8.359 -0.7977  0.5910  1.1105
   27MOL0     H 3614   4.524   0.040   8.274 -1.7016 -0.0781  0.0397
   27MOL0     H 3615   4.726  -0.106   8.401  2.4728  0.6056 -2.9709
   27MOL0     H 3616   4.688  -0.129   8.250 -1.5655 -2.1391 -0.3760
   27MOL0     H 3617   4.688  -0.333   8.411 -1.3584 -0.5093  0.9136
   27MOL0     H 3618   4.532  -0.269   8.482 -0.4862  2.1706 -0.4932
   27MOL0     H 3619   4.562  -0.338   8.194 -0.9301  3.7334  0.5013
   27MOL0     H 3620   4.417  -0.307   8.284 -0.4471 -2.2669  0.4202
   27MOL0     H 3621   4.591  -0.549   8.321  0.0566 -1.4295  1.0044
   27MOL0     H 3622   4.471  -0.499   8.435  2.0352 -1.6769  1.5601
   27MOL0     H 3623   4.389  -0.559   8.145 -3.7687  0.7158  0.0559
   27MOL0     H 3624   4.291  -0.504   8.269 -0.6012  1.8642 -1.4348
   27MOL0     H 3625   4.233  -0.703   8.314 -0.0505  0.8797 -0.4560
   27MOL0     H 3626   4.386  -0.704   8.415  3.7012  1.0657 -1.5423
   27MOL0     H 3627   4.512   0.046   8.749  0.4468  1.1153  1.9499
   27MOL0     H 3628   4.371   0.106   8.941 -1.1004 -3.2863 -2.1856
   27MOL0     H 3629   4.267   0.244   9.354  0.2675  0.7338 -1.9619
   27MOL0     H 3630   4.122   0.312   9.538  0.1160 -1.3188 -0.0766
   27MOL0     H 3631   2.406   1.139  10.256 -1.1889  1.7133 -0.5452
   27MOL0     H 3632   2.189   1.077  10.180  4.2571 -1.2160  4.7917
   27MOL0     H 3633   1.888   0.986   9.589 -0.4300  2.3247 -0.1127
   27MOL0     H 3634   1.646   0.935   9.585 -2.9576  1.7295  1.3456
   27MOL0     H 3635   1.468   0.824   9.630  0.0367  0.8860 -0.0868
   27MOL0     H 3636   1.335   0.792   9.740  0.0178 -1.6314 -2.2985
   27MOL0     H 3637   1.319   1.013   9.637  1.0278  0.3553  0.7516
   27MOL0     H 3638   1.469   1.069   9.716 -0.6857  0.7633  1.4304
   27MOL0     H 3639   1.376   1.029   9.929 -3.5818  0.1520  2.3733
   27MOL0     H 3640   1.224   0.980   9.859  0.9590 -1.3072 -1.4321
   27MOL0     H 3641   1.180   1.188   9.774 -0.2659 -1.9465  1.3843
   27MOL0     H 3642   1.347   1.242   9.774 -0.3660  0.7113 -0.1342
   27MOL0     H 3643   1.183   1.400  10.128  2.7424  0.1574  0.3818
   27MOL0     H 3644   1.675   0.837   9.997  2.5377 -3.0083  0.7137
   27MOL0     H 3645   1.904   0.915  10.012 -0.6738  1.8538  0.2504
   28MOL0     O 3646  11.475  10.027   1.752  0.0089 -0.1068 -0.0185
   28MOL0     C 3647  11.539  10.053   1.855  0.4710 -0.6681 -0.4291
   28MOL0     O 3648  11.673  10.077   1.857  0.2934  0.6552  0.5809
   28MOL0     C 3649  11.719  10.191   1.922 -0.3563 -0.3433  0.8699
   28MOL0     C 3650  11.853  10.190   1.947  0.9325  0.0473  0.6603
   28MOL0     C 3651  11.908  10.292   2.023  0.0191 -1.1044 -0.0713
   28MOL0     C 3652  11.840  10.401   2.070  0.0067 -0.1832  0.4865
   28MOL0     O 3653  11.879  10.486   2.167 -0.5587 -0.2928 -0.0514
   28MOL0     C 3654  11.997  10.569   2.142  0.5043  0.0797  0.6414
   28MOL0     C 3655  11.999  10.686   2.245 -0.0435 -0.7399 -0.2281
   28MOL0     C 3656  12.133  10.768   2.240 -0.3890 -0.5800  0.6383
   28MOL0     C 3657  12.153  10.853   2.112  0.1035  0.2642  0.5643
   28MOL0     C 3658  12.268  10.945   2.140  0.0576  0.2776 -0.1343
   28MOL0     C 3659  12.308  11.004   2.009  1.1710  0.2833 -0.0033
   28MOL0     C 3660  12.420  11.100   2.024 -0.0663  0.4504  0.3232
   28MOL0     C 3661  12.478  11.128   1.887 -0.2863 -0.8944 -0.5846
   28MOL0     N 3662  12.405  11.247   1.832  0.7248  0.1507  0.5980
   28MOL0     C 3663  12.277  11.249   1.771 -0.2776 -0.8922  0.4770
   28MOL0     C 3664  12.239  11.380   1.766 -0.4173  0.1746  1.0881
   28MOL0     C 3665  12.108  11.442   1.740 -0.1122 -0.2470  0.0430
   28MOL0     C 3666  12.088  11.461   1.587  0.2397 -0.8141 -0.2813
   28MOL0     C 3667  12.188  11.557   1.529  0.1229 -0.3685 -0.2500
   28MOL0     C 3668  12.181  11.708   1.580 -0.1344  1.1109  0.0855
   28MOL0     O 3669  12.258  11.788   1.484 -0.4461 -0.3694 -0.9795
   28MOL0     C 3670  12.396  11.791   1.511 -0.4553  0.2437  0.3170
   28MOL0     C 3671  12.465  11.881   1.433  0.6008 -0.5082  0.1720
   28MOL0     C 3672  12.587  11.919   1.437  0.0127  0.2866  1.4805
   28MOL0     C 3673  12.620  12.034   1.348 -0.6196  0.6611 -0.0309
   28MOL0     C 3674  12.677  11.838   1.520  0.2147 -0.4016  0.0975
   28MOL0     C 3675  12.824  11.826   1.506  0.5894 -0.5874 -0.2605
   28MOL0     O 3676  12.887  11.708   1.517  0.4137  0.2499  0.3886
   28MOL0     C 3677  13.023  11.688   1.522 -1.7924 -0.4207  0.0653
   28MOL0     C 3678  13.123  11.774   1.479 -0.0263 -0.4670 -0.0704
   28MOL0     C 3679  13.262  11.731   1.467 -0.0373 -0.5696 -0.4288
   28MOL0     C 3680  13.292  11.604   1.507  0.2436 -0.2196  0.5543
   28MOL0     O 3681  13.424  11.555   1.510 -0.6698  0.0556 -0.3188
   28MOL0     C 3682  13.537  11.622   1.449  0.2234  1.1256  0.2769
   28MOL0     C 3683  13.658  11.520   1.440 -0.7331  0.3664  0.1434
   28MOL0     C 3684  13.765  11.584   1.352  0.1702  0.1080 -0.4636
   28MOL0     C 3685  13.889  11.492   1.328 -0.1187  0.4867 -0.4924
   28MOL0     C 3686  13.945  11.494   1.182  0.1964 -0.0024 -0.2098
   28MOL0     C 3687  14.068  11.407   1.163 -0.7850  0.0888  0.0484
   28MOL0     C 3688  14.045  11.259   1.175 -0.2961 -0.1765 -0.3298
   28MOL0     C 3689  14.101  11.174   1.062 -0.0567 -0.1871 -0.2462
   28MOL0    Cl 3690  14.281  11.204   1.043 -0.6398  0.3315 -0.1903
   28MOL0     C 3691  13.187  11.527   1.556  0.1758  0.7292 -0.5135
   28MOL0     C 3692  13.053  11.558   1.559 -0.3371  0.7194  0.1426
   28MOL0     O 3693  12.880  11.933   1.495  0.0322 -0.3814 -0.2907
   28MOL0     C 3694  12.620  11.736   1.601 -0.0236  0.2099  0.9412
   28MOL0     C 3695  12.473  11.719   1.603 -0.9073 -0.0264  0.8917
   28MOL0     N 3696  12.338  11.458   1.816 -0.7979 -0.3236 -0.3433
   28MOL0     N 3697  12.441  11.377   1.845 -0.2484  0.0284 -0.2847
   28MOL0     C 3698  11.702  10.403   2.043  0.2383  0.5106  0.9627
   28MOL0     C 3699  11.645  10.308   1.948  0.0031  0.4024 -1.4681
   28MOL0     C 3700  11.464  10.068   1.983  0.9773  0.7794  0.6497
   28MOL0     C 3701  11.330  10.101   1.965  0.4010 -0.0467  0.0421
   28MOL0     C 3702  11.251  10.121   2.083 -1.0986 -1.1015 -0.5937
   28MOL0     C 3703  11.305  10.110   2.216  0.2130  0.2131 -0.6826
   28MOL0     O 3704  11.226  10.123   2.331  0.5682 -0.6875  0.1658
   28MOL0     C 3705  11.099  10.186   2.322 -1.1439 -0.0311 -0.2851
   28MOL0     C 3706  11.110  10.330   2.286  0.6856 -0.1798  0.0964
   28MOL0     C 3707  11.225  10.411   2.350 -0.4581  0.7283 -0.3871
   28MOL0     C 3708  11.193  10.559   2.329 -0.1928  0.4063  0.6871
   28MOL0     C 3709  11.251  10.629   2.209 -0.6532 -0.1181  0.7115
   28MOL0     C 3710  11.319  10.685   2.121  0.6544 -0.2128  0.5549
   28MOL0     C 3711  11.449  10.087   2.229  1.0613  0.4758  0.2193
   28MOL0     C 3712  11.515  10.059   2.111 -0.0214  0.9813 -0.0683
   28MOL0     H 3713  11.920  10.112   1.912  3.3159  2.8272 -1.4880
   28MOL0     H 3714  12.012  10.300   2.054 -0.8515  0.8122  2.6698
   28MOL0     H 3715  12.082  10.501   2.134  1.1783  0.7170  2.0360
   28MOL0     H 3716  11.983  10.608   2.041 -0.3688 -0.8755  0.3741
   28MOL0     H 3717  11.909  10.747   2.231 -0.6340 -1.8474 -1.6205
   28MOL0     H 3718  11.996  10.654   2.349 -0.3940  0.3695  0.1209
   28MOL0     H 3719  12.128  10.835   2.327  1.6853  0.4470  0.0382
   28MOL0     H 3720  12.223  10.709   2.258  0.8321  1.4385  1.5648
   28MOL0     H 3721  12.185  10.785   2.033 -1.8101 -3.0346  2.3986
   28MOL0     H 3722  12.065  10.903   2.070  0.9621  1.1000 -0.3051
   28MOL0     H 3723  12.237  11.017   2.217 -0.4542  0.2308 -0.2941
   28MOL0     H 3724  12.351  10.891   2.186 -0.1238 -1.1908 -1.4415
   28MOL0     H 3725  12.342  10.926   1.940  2.3655  1.3665 -0.6573
   28MOL0     H 3726  12.230  11.061   1.958  2.3931  0.7584 -1.4027
   28MOL0     H 3727  12.380  11.190   2.072  2.7164  1.0208  1.7272
   28MOL0     H 3728  12.492  11.055   2.092 -4.9443 -4.6875  2.9351
   28MOL0     H 3729  12.476  11.050   1.810  3.5422 -1.4658 -0.2856
   28MOL0     H 3730  12.584  11.154   1.892 -0.9351  2.8263 -2.6121
   28MOL0     H 3731  12.219  11.158   1.762  0.5224 -1.2902 -1.1483
   28MOL0     H 3732  12.030  11.376   1.780 -1.1446  0.4877 -0.7158
   28MOL0     H 3733  12.100  11.538   1.792  0.3891 -1.1472  1.8942
   28MOL0     H 3734  11.989  11.500   1.561  1.7425  0.8817 -4.2909
   28MOL0     H 3735  12.091  11.364   1.537  1.5759  0.3344 -2.5669
   28MOL0     H 3736  12.193  11.564   1.420 -1.1803  1.5817 -0.2340
   28MOL0     H 3737  12.291  11.521   1.545  2.6482  5.5846 -0.6461
   28MOL0     H 3738  12.229  11.714   1.678  2.3113  0.4121 -0.9740
   28MOL0     H 3739  12.076  11.736   1.581  0.0777  2.1373 -1.6682
   28MOL0     H 3740  12.396  11.939   1.373 -0.1582 -0.9486  0.6022
   28MOL0     H 3741  12.617  12.135   1.389 -1.7020  0.4931  0.3339
   28MOL0     H 3742  12.725  12.030   1.318  0.2712  1.1585  2.7277
   28MOL0     H 3743  12.566  12.022   1.254  1.0477 -1.6345 -0.8010
   28MOL0     H 3744  13.094  11.868   1.433  1.2762 -0.2135 -0.4173
   28MOL0     H 3745  13.337  11.802   1.436  0.6529 -0.9574  0.3139
   28MOL0     H 3746  13.515  11.649   1.345  1.3995 -0.8311 -0.5365
   28MOL0     H 3747  13.569  11.712   1.503  0.3072  1.6895 -0.6867
   28MOL0     H 3748  13.696  11.496   1.540 -0.1264 -1.4620 -0.4865
   28MOL0     H 3749  13.638  11.427   1.387 -0.2720  0.9544 -1.0926
   28MOL0     H 3750  13.784  11.681   1.398 -1.2623 -0.2447  0.9367
   28MOL0     H 3751  13.721  11.603   1.253  0.9294 -1.3200 -1.0962
   28MOL0     H 3752  13.961  11.513   1.408 -2.4659 -3.4317  3.0497
   28MOL0     H 3753  13.864  11.392   1.363 -0.1554  1.3908  2.3135
   28MOL0     H 3754  13.974  11.599   1.169 -1.0642  0.4020  0.0219
   28MOL0     H 3755  13.873  11.455   1.110 -3.4697 -0.1419  3.1764
   28MOL0     H 3756  14.117  11.426   1.067 -1.5795  1.5218 -0.1038
   28MOL0     H 3757  14.147  11.433   1.235  0.5700 -0.6941 -1.1116
   28MOL0     H 3758  13.940  11.234   1.191 -0.0842 -0.6847  0.3148
   28MOL0     H 3759  14.083  11.232   1.275 -0.7776  0.4731  0.0353
   28MOL0     H 3760  14.062  11.204   0.965  0.0792  0.7222 -0.0305
   28MOL0     H 3761  14.075  11.071   1.087  1.1469 -0.7536 -1.2086
   28MOL0     H 3762  13.224  11.427   1.576  3.0308  1.8661  0.4164
   28MOL0     H 3763  12.985  11.486   1.602  3.7963 -2.1991  2.5194
   28MOL0     H 3764  12.680  11.678   1.671 -0.1387 -0.5856  0.3981
   28MOL0     H 3765  12.427  11.647   1.670 -2.1061 -0.9524 -0.8368
   28MOL0     H 3766  11.648  10.488   2.082 -1.5470  0.7485 -1.7735
   28MOL0     H 3767  11.541  10.325   1.924 -0.4922 -2.9673 -2.1865
   28MOL0     H 3768  11.287  10.109   1.865 -0.0876 -0.4547  0.2128
   28MOL0     H 3769  11.153  10.158   2.058  0.1242  1.0297 -2.6571
   28MOL0     H 3770  11.032  10.135   2.253 -0.1692 -0.5083 -0.9019
   28MOL0     H 3771  11.062  10.177   2.425  1.0342 -2.0337  0.4110
   28MOL0     H 3772  11.009  10.362   2.315  0.8552  1.0073 -0.5213
   28MOL0     H 3773  11.103  10.332   2.176 -2.2109 -3.5866  0.0274
   28MOL0     H 3774  11.325  10.398   2.308 -0.6604  1.7247 -1.2154
   28MOL0     H 3775  11.225  10.384   2.456  0.4914 -1.1448 -0.8142
   28MOL0     H 3776  11.233  10.611   2.416  1.3868 -2.8351  2.0672
   28MOL0     H 3777  11.085  10.576   2.330 -0.1559  3.0466 -4.1703
   28MOL0     H 3778  11.372  10.727   2.038  0.7984  1.2342  1.3410
   28MOL0     H 3779  11.501  10.086   2.324 -2.8861 -0.2874  2.6164
   28MOL0     H 3780  11.621  10.034   2.113 -0.3386 -0.4293  0.4427
   29MOL0     O 3781  10.823   4.087  10.001  0.1899 -1.0292  0.3280
   29MOL0     C 3782  10.872   4.000  10.072  0.0879 -0.0085 -0.1869
   29MOL0     O 3783  10.907   3.867  10.047 -0.2460 -0.6936  0.4340
   29MOL0     C 3784  10.919   3.819   9.913 -0.7615 -0.4462  0.5958
   29MOL0     C 3785  10.902   3.881   9.787  0.2810 -0.8965  0.0445
   29MOL0     C 3786  10.931   3.813   9.662 -1.4835 -0.6412  0.9430
   29MOL0     C 3787  10.983   3.688   9.669 -0.5972 -0.9106  1.1609
   29MOL0     O 3788  11.027   3.610   9.565  0.2100 -0.5654  0.0466
   29MOL0     C 3789  10.987   3.652   9.433 -0.1961 -0.4138  0.6554
   29MOL0     C 3790  11.028   3.548   9.328 -0.0722 -0.3615  0.0741
   29MOL0     C 3791  10.993   3.581   9.177  0.2347 -0.6997 -0.6192
   29MOL0     C 3792  11.014   3.458   9.090  1.0350 -1.0808 -0.1302
   29MOL0     C 3793  10.875   3.395   9.045  0.0275  0.0061 -0.5087
   29MOL0     C 3794  10.810   3.478   8.936 -0.8683 -0.1065  0.2902
   29MOL0     C 3795  10.713   3.402   8.858 -0.8195  0.7994  0.9115
   29MOL0     C 3796  10.632   3.477   8.746  1.2756 -1.3649 -0.2336
   29MOL0     N 3797  10.716   3.511   8.631  0.4851  0.5911  0.3290
   29MOL0     C 3798  10.774   3.414   8.550 -0.2683 -0.8933  0.1451
   29MOL0     C 3799  10.842   3.490   8.458 -0.2551  0.7034 -0.2701
   29MOL0     C 3800  10.943   3.437   8.364 -0.2316 -0.9835  0.0196
   29MOL0     C 3801  10.884   3.319   8.276  0.5112  0.5627  0.3301
   29MOL0     C 3802  10.995   3.238   8.198 -0.3667 -0.5409 -0.7015
   29MOL0     C 3803  11.126   3.312   8.168  0.6712  0.1755 -0.3703
   29MOL0     O 3804  11.107   3.433   8.099  1.0743  0.7032 -0.2961
   29MOL0     C 3805  11.047   3.434   7.975  0.0528  0.7437  0.4040
   29MOL0     C 3806  11.082   3.341   7.875 -0.5779  0.2074  0.5239
   29MOL0     C 3807  11.023   3.337   7.746  0.7214 -0.4551  0.0470
   29MOL0     C 3808  11.057   3.211   7.665 -0.5925 -0.6749 -0.0186
   29MOL0     C 3809  10.937   3.448   7.707 -0.3557 -0.5391 -0.0339
   29MOL0     C 3810  10.881   3.462   7.570  0.3692  0.4049 -0.1226
   29MOL0     O 3811  10.772   3.540   7.548  0.2512 -0.6016 -0.1448
   29MOL0     C 3812  10.731   3.567   7.420 -0.4464  0.3006 -0.3305
   29MOL0     C 3813  10.605   3.525   7.382  0.1112  0.4407  0.4656
   29MOL0     C 3814  10.558   3.541   7.250  0.3188  0.1983 -0.2671
   29MOL0     C 3815  10.641   3.614   7.155 -0.9911  0.9704 -0.6013
   29MOL0     O 3816  10.592   3.642   7.030  0.0501  0.4519 -0.3004
   29MOL0     C 3817  10.689   3.677   6.928 -1.2023  0.5576  0.9822
   29MOL0     C 3818  10.612   3.687   6.799  0.0165  0.0284  0.2634
   29MOL0     C 3819  10.683   3.652   6.665 -1.0860 -0.4413 -0.1659
   29MOL0     C 3820  10.718   3.505   6.640  0.4295  0.8301  0.7404
   29MOL0     C 3821  10.788   3.474   6.498 -0.5847 -0.8627  1.1417
   29MOL0     C 3822  10.928   3.539   6.488  0.6170 -0.9929  0.0746
   29MOL0     C 3823  10.912   3.679   6.418 -0.2265  0.1905  0.3915
   29MOL0     C 3824  11.023   3.772   6.460  0.6762 -0.1597 -0.6907
   29MOL0    Cl 3825  11.052   3.904   6.340 -0.3610  0.0300 -0.1508
   29MOL0     C 3826  10.766   3.656   7.202 -0.6129  0.0466  0.1753
   29MOL0     C 3827  10.809   3.634   7.332  0.9172  0.1896  0.0818
   29MOL0     O 3828  10.950   3.428   7.480 -0.4223  1.1475  0.8083
   29MOL0     C 3829  10.907   3.537   7.812 -0.4207 -0.3089 -0.0105
   29MOL0     C 3830  10.957   3.530   7.940  0.1471  0.4680  0.2754
   29MOL0     N 3831  10.827   3.620   8.478 -0.1914 -0.0392 -0.0515
   29MOL0     N 3832  10.755   3.638   8.587  0.4800 -0.6477  0.6144
   29MOL0     C 3833  10.993   3.620   9.793  0.1575 -0.3849  0.1892
   29MOL0     C 3834  10.963   3.686   9.909 -0.0852 -0.6105  0.3983
   29MOL0     C 3835  10.868   4.037  10.219 -0.3519  0.1335  0.0212
   29MOL0     C 3836  10.921   3.952  10.312 -0.0225 -1.2734 -0.8829
   29MOL0     C 3837  10.921   3.991  10.446 -0.4022  0.4979 -0.8186
   29MOL0     C 3838  10.855   4.107  10.483  0.8501 -0.3924  1.0905
   29MOL0     O 3839  10.843   4.132  10.611  0.4566  0.2018  0.1701
   29MOL0     C 3840  10.830   4.267  10.656 -0.4101  0.8142  0.5044
   29MOL0     C 3841  10.918   4.275  10.787 -0.1855  0.3311 -0.1773
   29MOL0     C 3842  11.073   4.265  10.757  0.5371 -0.0408 -0.5301
   29MOL0     C 3843  11.150   4.265  10.888  0.0280  0.3679 -0.3260
   29MOL0     C 3844  11.148   4.125  10.936  0.0998  0.0299 -0.2187
   29MOL0     C 3845  11.155   4.015  10.985 -0.1634 -0.0371  0.6049
   29MOL0     C 3846  10.787   4.182  10.386 -0.4806 -0.7280 -0.3777
   29MOL0     C 3847  10.800   4.152  10.255  1.1239 -0.0483 -0.5959
   29MOL0     H 3848  10.850   3.974   9.767  1.6289  0.2299  1.5516
   29MOL0     H 3849  10.943   3.867   9.569  3.6652  0.3990  1.9046
   29MOL0     H 3850  10.879   3.668   9.436  0.0909  1.6809  3.8599
   29MOL0     H 3851  11.033   3.747   9.404 -0.1722 -0.4478  0.5813
   29MOL0     H 3852  11.135   3.526   9.337 -0.0792  0.1483  1.7805
   29MOL0     H 3853  10.966   3.463   9.358 -1.6988  0.6990 -0.2055
   29MOL0     H 3854  10.893   3.624   9.167  0.1165 -0.5687  0.8946
   29MOL0     H 3855  11.067   3.652   9.139 -0.2391  0.3367  0.3564
   29MOL0     H 3856  11.068   3.483   8.998 -1.4578  0.0670 -1.3629
   29MOL0     H 3857  11.064   3.381   9.150 -1.2636 -0.6215  2.5584
   29MOL0     H 3858  10.898   3.298   9.001  2.2991 -0.7055  1.9634
   29MOL0     H 3859  10.816   3.382   9.137  1.9487  2.7428  1.2559
   29MOL0     H 3860  10.767   3.567   8.983  2.0507  0.7106  1.6334
   29MOL0     H 3861  10.885   3.519   8.868 -1.1344 -2.1620 -1.3460
   29MOL0     H 3862  10.753   3.314   8.808 -3.5982  1.4842 -3.0568
   29MOL0     H 3863  10.628   3.363   8.914 -0.7259 -0.7641  0.0249
   29MOL0     H 3864  10.582   3.564   8.789  4.0065 -0.1704  0.7357
   29MOL0     H 3865  10.550   3.414   8.711 -1.1717  0.3389  2.0362
   29MOL0     H 3866  10.774   3.308   8.573 -2.5203 -1.4995 -2.2051
   29MOL0     H 3867  10.964   3.522   8.299  1.9445 -0.1827  1.6445
   29MOL0     H 3868  11.030   3.410   8.424 -0.6573  1.1361  1.7034
   29MOL0     H 3869  10.817   3.360   8.200 -1.1002 -1.4743  0.5714
   29MOL0     H 3870  10.826   3.245   8.331  0.0274  2.5099  2.5704
   29MOL0     H 3871  10.947   3.183   8.116  0.8247  1.6106 -2.9745
   29MOL0     H 3872  11.012   3.155   8.267  0.1947 -1.9515 -2.4600
   29MOL0     H 3873  11.184   3.248   8.100 -2.7866  0.8151 -4.3915
   29MOL0     H 3874  11.189   3.318   8.256  1.0644 -0.8474 -0.5663
   29MOL0     H 3875  11.148   3.259   7.899 -0.5953  0.4797  1.5610
   29MOL0     H 3876  11.067   3.128   7.735 -0.2037 -0.3912  0.2670
   29MOL0     H 3877  10.982   3.191   7.588  0.4348 -1.5401 -0.8343
   29MOL0     H 3878  11.157   3.209   7.620 -0.4481 -1.6407  0.3370
   29MOL0     H 3879  10.541   3.476   7.454 -0.7661 -0.6147 -0.9533
   29MOL0     H 3880  10.463   3.513   7.207  2.0591 -3.4251 -2.1324
   29MOL0     H 3881  10.741   3.770   6.948 -0.5141  0.3056  0.4193
   29MOL0     H 3882  10.758   3.593   6.916  0.9776  2.1169  1.9855
   29MOL0     H 3883  10.524   3.622   6.795  2.0905 -2.8970 -3.0000
   29MOL0     H 3884  10.580   3.792   6.791 -2.0188 -0.2166  3.3727
   29MOL0     H 3885  10.776   3.709   6.653  0.2905 -2.7677 -1.2833
   29MOL0     H 3886  10.614   3.679   6.584 -1.6219 -1.0566  0.0825
   29MOL0     H 3887  10.777   3.460   6.720 -2.0516 -0.1064  2.1472
   29MOL0     H 3888  10.624   3.450   6.648  0.5249  0.5223 -0.1026
   29MOL0     H 3889  10.712   3.503   6.425  0.4914 -1.2665 -0.1780
   29MOL0     H 3890  10.794   3.364   6.501 -2.3000 -1.0710 -0.7081
   29MOL0     H 3891  10.973   3.556   6.586  4.3985  0.4659 -1.7053
   29MOL0     H 3892  11.001   3.484   6.427  0.8105 -0.9711  0.2855
   29MOL0     H 3893  10.813   3.723   6.434 -2.3002 -2.2670 -3.7344
   29MOL0     H 3894  10.920   3.653   6.312 -0.9230  1.3450  0.0290
   29MOL0     H 3895  11.110   3.712   6.487  0.0027 -1.5327 -1.4576
   29MOL0     H 3896  10.993   3.817   6.555 -0.3471 -2.7277  0.2882
   29MOL0     H 3897  10.838   3.701   7.135  1.8047 -1.5238  1.5721
   29MOL0     H 3898  10.907   3.675   7.353 -1.0968  5.0593  1.4300
   29MOL0     H 3899  10.841   3.620   7.791  1.2422  0.2345 -4.2010
   29MOL0     H 3900  10.928   3.608   8.009 -1.5169 -0.4675  0.6856
   29MOL0     H 3901  11.030   3.519   9.784 -0.9768 -0.6390 -2.9270
   29MOL0     H 3902  10.971   3.641  10.008  5.8125  3.9040  2.6024
   29MOL0     H 3903  10.954   3.854  10.279  2.2062 -0.3984 -1.4291
   29MOL0     H 3904  10.948   3.921  10.524  2.1986  3.7414  1.4691
   29MOL0     H 3905  10.865   4.343  10.585  1.6839  0.2756  0.8944
   29MOL0     H 3906  10.723   4.280  10.673 -1.0433 -1.7608 -0.9788
   29MOL0     H 3907  10.881   4.209  10.866  0.8487  0.1492  0.1741
   29MOL0     H 3908  10.914   4.373  10.837  1.2189  0.0081  0.6112
   29MOL0     H 3909  11.114   4.352  10.705  0.8658  1.1335  1.6235
   29MOL0     H 3910  11.091   4.174  10.699  0.3465 -1.7952  2.0045
   29MOL0     H 3911  11.097   4.318  10.967 -1.1274 -2.0685  0.6501
   29MOL0     H 3912  11.255   4.293  10.873  0.6099  0.3091  2.9070
   29MOL0     H 3913  11.174   3.914  11.017 -0.3100 -1.3524 -3.0130
   29MOL0     H 3914  10.737   4.275  10.409  0.1369 -1.1364  3.2491
   29MOL0     H 3915  10.755   4.226  10.189  1.9297  2.0643  1.0862
   30MOL0     O 3916   0.574   9.125   5.449  0.2966  0.6195  0.5108
   30MOL0     C 3917   0.580   9.246   5.417  0.5778  0.1422 -0.0056
   30MOL0     O 3918   0.476   9.317   5.362  0.0189 -0.6124  0.5616
   30MOL0     C 3919   0.351   9.272   5.370 -1.0029 -0.8603  0.4280
   30MOL0     C 3920   0.313   9.141   5.326 -0.6054  0.4990 -0.8752
   30MOL0     C 3921   0.182   9.105   5.329  0.1268 -0.6564 -0.4395
   30MOL0     C 3922   0.085   9.202   5.369 -0.0180  0.3255 -0.6138
   30MOL0     O 3923  -0.053   9.185   5.358 -0.6526  0.6323 -0.3258
   30MOL0     C 3924  -0.096   9.054   5.384  0.3580  0.7398  0.5153
   30MOL0     C 3925  -0.250   9.030   5.363 -0.0826  1.0579 -0.5455
   30MOL0     C 3926  -0.346   9.102   5.468 -0.2225 -1.0518 -0.2621
   30MOL0     C 3927  -0.486   9.050   5.451 -0.4453  1.2544  0.1311
   30MOL0     C 3928  -0.557   9.045   5.586 -0.6564 -0.6743  0.3633
   30MOL0     C 3929  -0.679   8.948   5.582 -0.9334 -0.3053 -0.2500
   30MOL0     C 3930  -0.743   8.945   5.720 -0.6296  0.8695  0.1384
   30MOL0     C 3931  -0.871   9.035   5.741  0.7454 -0.4446 -0.6164
   30MOL0     N 3932  -0.992   8.983   5.676 -0.0680 -0.4320  0.2883
   30MOL0     C 3933  -1.028   9.005   5.538 -1.0830  0.0937 -0.3387
   30MOL0     C 3934  -1.146   8.944   5.521 -0.2330  0.1607 -1.6721
   30MOL0     C 3935  -1.228   8.961   5.393  0.0108  0.3538 -0.0577
   30MOL0     C 3936  -1.156   8.898   5.268 -0.0650  0.2535 -0.0166
   30MOL0     C 3937  -1.194   8.972   5.137 -0.0385  0.5775  0.3488
   30MOL0     C 3938  -1.092   8.942   5.027 -0.0488 -0.7657 -0.6120
   30MOL0     O 3939  -1.167   8.928   4.910  0.8291  0.2547  0.2529
   30MOL0     C 3940  -1.081   8.895   4.803  0.3253  0.2995 -0.2516
   30MOL0     C 3941  -0.951   8.860   4.803  0.2983  0.7773 -0.4570
   30MOL0     C 3942  -0.891   8.818   4.682  0.0821  0.2061 -0.3318
   30MOL0     C 3943  -0.757   8.744   4.693  0.4800  0.5532 -0.1667
   30MOL0     C 3944  -0.957   8.840   4.558  0.2904 -0.4658  1.0176
   30MOL0     C 3945  -0.899   8.803   4.433 -0.0777 -0.4964 -0.0086
   30MOL0     O 3946  -0.813   8.696   4.420 -1.0479 -0.2057  0.2020
   30MOL0     C 3947  -0.749   8.671   4.296 -0.0908 -0.2927  0.3680
   30MOL0     C 3948  -0.610   8.679   4.285 -0.0397  0.6490  0.0585
   30MOL0     C 3949  -0.547   8.640   4.170 -0.4615 -0.2464  0.3099
   30MOL0     C 3950  -0.620   8.584   4.062 -0.5378  0.0885 -0.7041
   30MOL0     O 3951  -0.539   8.558   3.953 -0.0917 -0.1551 -0.5782
   30MOL0     C 3952  -0.571   8.432   3.891  0.7958 -1.1521 -0.5746
   30MOL0     C 3953  -0.545   8.455   3.738 -0.5288 -0.5352 -1.1064
   30MOL0     C 3954  -0.399   8.452   3.708 -0.6193 -0.4738 -0.1010
   30MOL0     C 3955  -0.385   8.478   3.562 -0.8435 -0.0601  0.8983
   30MOL0     C 3956  -0.412   8.349   3.477  0.0718 -0.6766  0.8786
   30MOL0     C 3957  -0.333   8.343   3.341  0.5648  0.1210  0.7437
   30MOL0     C 3958  -0.350   8.476   3.261 -1.3285  0.2122 -0.4459
   30MOL0     C 3959  -0.315   8.452   3.112 -0.6777  0.4182 -0.7052
   30MOL0    Cl 3960  -0.445   8.361   3.039 -0.1494  0.2960 -0.3921
   30MOL0     C 3961  -0.759   8.589   4.070 -0.2254 -0.7175 -0.4017
   30MOL0     C 3962  -0.829   8.637   4.184  0.3037 -0.5370  0.3934
   30MOL0     O 3963  -0.935   8.881   4.340 -0.2227  0.5598 -0.4092
   30MOL0     C 3964  -1.088   8.900   4.559  0.1948 -0.5166 -0.3137
   30MOL0     C 3965  -1.149   8.913   4.689  0.2204  0.4514  0.5856
   30MOL0     N 3966  -1.178   8.874   5.639  0.0861  0.0954 -0.9368
   30MOL0     N 3967  -1.083   8.905   5.729  0.2438 -0.0478  0.0514
   30MOL0     C 3968   0.122   9.329   5.415 -0.1841 -0.0281 -0.5507
   30MOL0     C 3969   0.257   9.366   5.411  0.4490 -0.0467 -0.6341
   30MOL0     C 3970   0.704   9.309   5.411 -0.9067  0.2725  0.2454
   30MOL0     C 3971   0.717   9.446   5.401 -0.1192 -0.4759  0.2977
   30MOL0     C 3972   0.841   9.514   5.394  0.6557  0.0777 -0.2504
   30MOL0     C 3973   0.967   9.446   5.408  0.2199 -0.4009 -0.3816
   30MOL0     O 3974   1.079   9.507   5.367 -0.0501 -0.4157 -0.3519
   30MOL0     C 3975   1.204   9.458   5.406 -0.2197  0.2064  0.1914
   30MOL0     C 3976   1.223   9.480   5.558 -0.4667 -0.1257 -0.5469
   30MOL0     C 3977   1.364   9.509   5.601 -0.0152  0.0700 -1.5668
   30MOL0     C 3978   1.384   9.491   5.752  0.3158  0.7380 -0.1124
   30MOL0     C 3979   1.497   9.570   5.801 -0.0203  0.9071  1.2750
   30MOL0     C 3980   1.591   9.622   5.841  0.5519  1.0990 -0.4279
   30MOL0     C 3981   0.952   9.309   5.418 -0.0445 -0.5707 -0.1970
   30MOL0     C 3982   0.825   9.241   5.416 -0.3214 -0.1893  0.2901
   30MOL0     H 3983   0.381   9.062   5.295 -2.7442 -2.1493  0.7327
   30MOL0     H 3984   0.145   9.010   5.293 -2.9655 -0.6878  2.3579
   30MOL0     H 3985  -0.050   8.987   5.310  1.1219 -1.2951  2.6930
   30MOL0     H 3986  -0.073   9.028   5.487  0.1093  0.5605  0.5274
   30MOL0     H 3987  -0.274   9.046   5.258  0.7612 -0.7872 -1.0693
   30MOL0     H 3988  -0.272   8.923   5.372 -1.8636  1.3140 -1.5175
   30MOL0     H 3989  -0.303   9.101   5.569 -2.1649  4.7239  0.9962
   30MOL0     H 3990  -0.340   9.206   5.433 -1.4861 -2.0965 -4.0885
   30MOL0     H 3991  -0.539   9.107   5.374 -0.9219  1.1641  0.3882
   30MOL0     H 3992  -0.487   8.948   5.412  1.3915  1.7274 -1.2684
   30MOL0     H 3993  -0.481   9.008   5.657  0.8410 -0.8527 -1.2673
   30MOL0     H 3994  -0.583   9.146   5.618 -1.0948 -0.1610 -1.5074
   30MOL0     H 3995  -0.755   8.989   5.515 -0.2690  3.6894  1.1718
   30MOL0     H 3996  -0.638   8.852   5.550 -1.5090  0.5684 -4.1196
   30MOL0     H 3997  -0.770   8.840   5.736 -0.9330  0.8158 -0.6972
   30MOL0     H 3998  -0.663   8.974   5.789  0.0974  0.9520 -0.7269
   30MOL0     H 3999  -0.855   9.143   5.731 -2.2473  0.2344  0.9097
   30MOL0     H 4000  -0.902   9.025   5.845 -0.8507  0.0769 -1.0063
   30MOL0     H 4001  -0.975   9.068   5.467 -1.2527  0.8804  0.2255
   30MOL0     H 4002  -1.322   8.908   5.411  0.7551 -1.1468 -0.4181
   30MOL0     H 4003  -1.259   9.065   5.377  1.7280  1.0919  1.0874
   30MOL0     H 4004  -1.179   8.794   5.247 -0.8015  0.5466 -0.7333
   30MOL0     H 4005  -1.048   8.904   5.282 -0.0719  1.1501 -0.2419
   30MOL0     H 4006  -1.198   9.081   5.140  1.6524  0.6506  1.4355
   30MOL0     H 4007  -1.291   8.932   5.109 -0.7507  4.0750 -3.1705
   30MOL0     H 4008  -1.027   8.857   5.050  1.4852 -0.3047 -2.9459
   30MOL0     H 4009  -1.036   9.036   5.025 -3.2780  1.7796  4.5615
   30MOL0     H 4010  -0.905   8.845   4.901  1.1005 -1.2523 -1.0930
   30MOL0     H 4011  -0.742   8.705   4.795 -0.2607  0.1688 -0.1970
   30MOL0     H 4012  -0.742   8.656   4.630  1.2534 -1.0266  2.0747
   30MOL0     H 4013  -0.676   8.813   4.671 -0.3387  0.4654 -4.1446
   30MOL0     H 4014  -0.560   8.723   4.371 -0.5559  1.9822 -0.3086
   30MOL0     H 4015  -0.440   8.657   4.165 -0.7189  1.4757  0.0799
   30MOL0     H 4016  -0.503   8.358   3.932  0.4637 -1.7872 -1.1444
   30MOL0     H 4017  -0.673   8.393   3.905 -0.3286  0.9892 -2.1262
   30MOL0     H 4018  -0.594   8.375   3.681  0.6730 -1.9410 -0.2418
   30MOL0     H 4019  -0.590   8.553   3.717  0.2032  0.0107 -0.2073
   30MOL0     H 4020  -0.353   8.361   3.748 -1.4836  0.0168  2.1184
   30MOL0     H 4021  -0.353   8.540   3.752  0.5969  1.3565 -4.4602
   30MOL0     H 4022  -0.444   8.559   3.517 -0.4770 -1.0754 -1.5994
   30MOL0     H 4023  -0.281   8.506   3.543 -1.3051  1.6290  0.7279
   30MOL0     H 4024  -0.518   8.329   3.455  0.8723 -1.7866 -2.6314
   30MOL0     H 4025  -0.375   8.264   3.535 -2.9260 -0.4611  3.3351
   30MOL0     H 4026  -0.227   8.318   3.351  0.3378 -2.5575 -2.0749
   30MOL0     H 4027  -0.370   8.258   3.282 -0.2231 -1.0024  2.7326
   30MOL0     H 4028  -0.280   8.556   3.284 -1.6336  0.7506 -1.3473
   30MOL0     H 4029  -0.451   8.518   3.261 -2.0051 -1.3079  0.5509
   30MOL0     H 4030  -0.222   8.395   3.108 -0.7272  0.2330  0.3712
   30MOL0     H 4031  -0.306   8.550   3.064 -2.5516 -0.0383 -2.1078
   30MOL0     H 4032  -0.808   8.550   3.981  0.0518 -2.6690  0.2419
   30MOL0     H 4033  -0.936   8.648   4.182  0.3855  0.5350  1.0200
   30MOL0     H 4034  -1.148   8.928   4.473 -0.2346  2.7147  0.9177
   30MOL0     H 4035  -1.251   8.944   4.709  0.2011  0.4488  0.4928
   30MOL0     H 4036   0.045   9.398   5.448  0.4199  0.1454  0.5516
   30MOL0     H 4037   0.284   9.463   5.450 -2.8584  0.3689  0.9792
   30MOL0     H 4038   0.630   9.511   5.394 -0.6555 -1.1735  0.3907
   30MOL0     H 4039   0.829   9.619   5.367 -0.7834  0.4343  1.5757
   30MOL0     H 4040   1.216   9.351   5.387 -0.7996  0.2943 -0.7230
   30MOL0     H 4041   1.279   9.507   5.343 -2.0973  0.8664 -1.6246
   30MOL0     H 4042   1.189   9.388   5.607 -3.1131  2.1176  2.2422
   30MOL0     H 4043   1.167   9.563   5.602  0.8626  0.8190 -0.5872
   30MOL0     H 4044   1.367   9.617   5.589 -1.9187  0.6124  1.8379
   30MOL0     H 4045   1.442   9.471   5.534  1.0622 -0.2004 -0.1995
   30MOL0     H 4046   1.405   9.384   5.766 -0.3982  0.6316  0.1911
   30MOL0     H 4047   1.292   9.529   5.796 -1.4117  0.0549 -2.8917
   30MOL0     H 4048   1.678   9.665   5.887  1.6281  1.0860 -2.3876
   30MOL0     H 4049   1.036   9.241   5.410  2.0763  2.1400 -4.5367
   30MOL0     H 4050   0.807   9.134   5.419 -0.5576 -0.1388  2.2733
   31MOL0     O 4051   0.479  11.077   1.466  0.0583  0.3944 -0.2527
   31MOL0     C 4052   0.515  10.963   1.494  0.8657 -0.5537  0.0503
   31MOL0     O 4053   0.434  10.851   1.535  0.3726  0.2431 -0.1707
   31MOL0     C 4054   0.298  10.867   1.553  0.6803  0.2154  0.4755
   31MOL0     C 4055   0.221  10.981   1.558 -0.2190 -0.6110  0.0501
   31MOL0     C 4056   0.081  10.986   1.584 -0.1480 -0.0447 -0.2114
   31MOL0     C 4057   0.016  10.865   1.607  0.5057  0.3794  0.1521
   31MOL0     O 4058  -0.115  10.868   1.633  0.1932  0.4146  0.3861
   31MOL0     C 4059  -0.210  10.757   1.605 -0.6424 -0.3658  0.1295
   31MOL0     C 4060  -0.342  10.829   1.560 -1.0166  0.4950 -0.4638
   31MOL0     C 4061  -0.438  10.717   1.534  0.3466 -0.1143 -0.7867
   31MOL0     C 4062  -0.559  10.764   1.463 -0.2422 -0.2755  0.3834
   31MOL0     C 4063  -0.664  10.654   1.450  0.1217  0.2437 -0.3156
   31MOL0     C 4064  -0.766  10.656   1.333 -0.4208  0.8019  0.3012
   31MOL0     C 4065  -0.858  10.786   1.355 -0.4792  0.6583  0.5370
   31MOL0     C 4066  -1.003  10.754   1.399 -0.0674  0.1482  0.1261
   31MOL0     N 4067  -0.998  10.653   1.516  0.2790 -0.0113  0.4422
   31MOL0     C 4068  -0.983  10.685   1.652 -0.4637  0.4739 -0.1725
   31MOL0     C 4069  -0.977  10.556   1.712  0.5347  0.5473 -0.3795
   31MOL0     C 4070  -0.948  10.532   1.860 -0.7719  0.4102 -0.3727
   31MOL0     C 4071  -0.805  10.541   1.909 -0.9337  0.0836  0.0308
   31MOL0     C 4072  -0.729  10.677   1.906 -0.4729 -0.4397  0.3159
   31MOL0     C 4073  -0.586  10.675   1.977 -0.2066  0.3085  0.1404
   31MOL0     O 4074  -0.513  10.793   1.944 -0.2977  1.0270 -0.5213
   31MOL0     C 4075  -0.534  10.905   2.018  0.6112 -0.0055 -0.3577
   31MOL0     C 4076  -0.483  10.903   2.147 -0.2730  0.4934  0.2684
   31MOL0     C 4077  -0.486  11.011   2.228  0.2671  0.4117 -0.2161
   31MOL0     C 4078  -0.424  10.994   2.367 -0.7053  0.3192  0.0010
   31MOL0     C 4079  -0.533  11.137   2.184  0.3743 -0.1766 -0.3732
   31MOL0     C 4080  -0.554  11.261   2.271 -0.2205 -0.1510  0.6326
   31MOL0     O 4081  -0.621  11.363   2.209 -0.9628  0.1025  0.6724
   31MOL0     C 4082  -0.562  11.481   2.225  0.1342 -1.2500 -0.1469
   31MOL0     C 4083  -0.487  11.539   2.118  0.2736 -0.0953 -0.2240
   31MOL0     C 4084  -0.420  11.656   2.140 -0.4244  0.1931  0.0929
   31MOL0     C 4085  -0.436  11.734   2.262  0.2759  0.9931  0.6533
   31MOL0     O 4086  -0.376  11.853   2.260 -0.2371 -0.1726 -0.4352
   31MOL0     C 4087  -0.273  11.871   2.354 -0.6468 -0.2703  0.7498
   31MOL0     C 4088  -0.219  12.012   2.348  0.0489  0.0219 -0.6204
   31MOL0     C 4089  -0.327  12.114   2.384 -0.1014 -0.5166 -0.4666
   31MOL0     C 4090  -0.314  12.232   2.288 -1.0334  0.1265  0.3052
   31MOL0     C 4091  -0.419  12.344   2.320  0.1812 -0.6650  0.1135
   31MOL0     C 4092  -0.388  12.474   2.242 -0.3341 -0.5160 -0.0923
   31MOL0     C 4093  -0.513  12.575   2.257 -0.9274 -0.2060 -0.0191
   31MOL0     C 4094  -0.480  12.723   2.214 -0.4100 -0.5884 -0.1528
   31MOL0    Cl 4095  -0.344  12.784   2.306  0.3287  0.1275  0.2803
   31MOL0     C 4096  -0.514  11.682   2.365 -0.0198  0.3059 -0.6753
   31MOL0     C 4097  -0.574  11.552   2.345 -0.4625 -0.0911 -0.6295
   31MOL0     O 4098  -0.515  11.265   2.388 -0.1635 -0.4764  0.5573
   31MOL0     C 4099  -0.579  11.142   2.057  1.0976  0.8691  0.7967
   31MOL0     C 4100  -0.583  11.023   1.970 -0.8229 -0.3211  0.0780
   31MOL0     N 4101  -1.013  10.465   1.621 -0.5414 -0.5326 -0.6406
   31MOL0     N 4102  -1.034  10.527   1.511 -0.3343  0.3326 -0.5111
   31MOL0     C 4103   0.082  10.746   1.602 -0.7776 -0.2466 -0.3089
   31MOL0     C 4104   0.223  10.749   1.573 -0.1521 -0.5078 -0.9260
   31MOL0     C 4105   0.661  10.951   1.519  0.3927  0.5710 -0.2011
   31MOL0     C 4106   0.747  11.064   1.499 -1.3166 -0.5096 -0.9402
   31MOL0     C 4107   0.884  11.057   1.518 -0.0261  0.5814 -0.4172
   31MOL0     C 4108   0.939  10.934   1.556 -1.1612  0.4303 -0.2169
   31MOL0     O 4109   1.069  10.903   1.586 -0.1561  0.6079 -0.3535
   31MOL0     C 4110   1.159  11.012   1.570  0.1855  0.5777  0.1755
   31MOL0     C 4111   1.293  10.937   1.575  1.0579  0.2147 -0.1664
   31MOL0     C 4112   1.410  11.032   1.588 -0.7630 -0.6861 -0.2225
   31MOL0     C 4113   1.520  10.969   1.513  1.2757 -0.2908 -0.1714
   31MOL0     C 4114   1.651  11.037   1.547  0.3970 -0.0406  0.4135
   31MOL0     C 4115   1.755  11.099   1.567  0.0390 -0.6832 -0.5648
   31MOL0     C 4116   0.856  10.824   1.587 -0.2484 -0.1605  0.5553
   31MOL0     C 4117   0.720  10.831   1.567  0.4366  0.4339 -0.9658
   31MOL0     H 4118   0.275  11.075   1.557  1.9785 -1.8113 -0.5708
   31MOL0     H 4119   0.015  11.072   1.590  0.1749  0.2281 -0.5059
   31MOL0     H 4120  -0.165  10.702   1.522  0.9883 -2.2240  2.1576
   31MOL0     H 4121  -0.221  10.691   1.691  0.0356 -3.2989 -1.8895
   31MOL0     H 4122  -0.367  10.894   1.644 -2.0715  2.4581 -2.1886
   31MOL0     H 4123  -0.342  10.888   1.467  2.8052  0.1047 -0.8694
   31MOL0     H 4124  -0.399  10.631   1.479 -0.6716 -1.4232  0.4565
   31MOL0     H 4125  -0.455  10.673   1.633  4.1420  3.0133  1.5347
   31MOL0     H 4126  -0.603  10.851   1.511 -1.9779  0.6689 -2.6405
   31MOL0     H 4127  -0.528  10.796   1.363  1.8311 -0.2166  0.9976
   31MOL0     H 4128  -0.615  10.557   1.443  1.4374  0.8747 -0.0466
   31MOL0     H 4129  -0.720  10.666   1.544 -1.0990 -0.7840 -0.8812
   31MOL0     H 4130  -0.720  10.664   1.235 -0.5587 -1.9788 -0.0689
   31MOL0     H 4131  -0.827  10.565   1.340  0.5671  0.2032  1.8901
   31MOL0     H 4132  -0.816  10.872   1.408 -2.3341  1.7958  0.2547
   31MOL0     H 4133  -0.867  10.821   1.252  1.1701 -1.9811 -0.5950
   31MOL0     H 4134  -1.040  10.706   1.308  2.0631 -1.7046  0.1259
   31MOL0     H 4135  -1.064  10.844   1.409  2.0043  1.7134 -0.4059
   31MOL0     H 4136  -0.950  10.774   1.705 -0.4788  0.9902 -1.0283
   31MOL0     H 4137  -1.005  10.608   1.916 -0.9890  0.9738 -1.3363
   31MOL0     H 4138  -0.974  10.429   1.884  4.1266 -1.0384 -0.2455
   31MOL0     H 4139  -0.749  10.461   1.860 -0.4511  0.3953  0.0785
   31MOL0     H 4140  -0.814  10.506   2.012 -3.2701 -0.1567 -0.1918
   31MOL0     H 4141  -0.801  10.753   1.936 -1.7343 -2.1624  1.9526
   31MOL0     H 4142  -0.701  10.696   1.802 -1.9958  2.1114  0.2897
   31MOL0     H 4143  -0.534  10.587   1.937 -2.1788 -1.8961  2.1116
   31MOL0     H 4144  -0.600  10.657   2.084  0.5273  1.4677  0.4453
   31MOL0     H 4145  -0.439  10.812   2.186  0.4132 -0.2783 -2.1273
   31MOL0     H 4146  -0.394  10.892   2.390 -2.2255 -0.1691 -0.0472
   31MOL0     H 4147  -0.336  11.057   2.380 -0.0500 -0.4031 -0.8897
   31MOL0     H 4148  -0.497  11.023   2.444 -1.0237 -1.8071  0.5523
   31MOL0     H 4149  -0.493  11.490   2.021  2.4190 -0.4423 -0.2356
   31MOL0     H 4150  -0.353  11.693   2.064  0.1113  1.5861  1.1873
   31MOL0     H 4151  -0.314  11.849   2.454  0.3365  2.3372  1.8146
   31MOL0     H 4152  -0.185  11.808   2.341 -0.3206  0.1068  1.0963
   31MOL0     H 4153  -0.152  12.036   2.432  2.0512 -0.1894 -2.0855
   31MOL0     H 4154  -0.162  12.024   2.255 -0.1602 -4.7677 -1.6235
   31MOL0     H 4155  -0.306  12.153   2.484 -0.9587  1.6884 -1.0826
   31MOL0     H 4156  -0.430  12.079   2.400 -0.6654  1.9964  2.0449
   31MOL0     H 4157  -0.214  12.276   2.295 -2.0735  3.5047 -2.7427
   31MOL0     H 4158  -0.330  12.210   2.182 -2.0453 -0.8064  0.6389
   31MOL0     H 4159  -0.418  12.358   2.428  0.4949  0.4436 -0.0276
   31MOL0     H 4160  -0.518  12.307   2.294 -0.5166  0.5960  0.8822
   31MOL0     H 4161  -0.295  12.516   2.281  0.5537 -2.3314 -0.1623
   31MOL0     H 4162  -0.389  12.450   2.136 -2.3986 -5.2165  0.7631
   31MOL0     H 4163  -0.558  12.576   2.356  0.5824 -2.1857  0.7538
   31MOL0     H 4164  -0.577  12.527   2.182  0.9873  0.2205 -2.0335
   31MOL0     H 4165  -0.568  12.785   2.229 -0.1844 -0.4256  0.5478
   31MOL0     H 4166  -0.447  12.723   2.110  1.8189 -3.9533  0.3729
   31MOL0     H 4167  -0.534  11.739   2.455  2.7373 -0.7193  0.7403
   31MOL0     H 4168  -0.620  11.492   2.423  0.5841  0.4204  0.4123
   31MOL0     H 4169  -0.633  11.227   2.016  0.2224  0.0905  0.3103
   31MOL0     H 4170  -0.608  11.023   1.865 -0.6272 -0.4406  0.0315
   31MOL0     H 4171   0.041  10.646   1.605  1.6865 -1.3058  0.7846
   31MOL0     H 4172   0.269  10.650   1.569 -1.6371 -1.4745  2.2804
   31MOL0     H 4173   0.700  11.154   1.461 -4.0976 -0.3039  2.4873
   31MOL0     H 4174   0.947  11.145   1.516 -0.9525  1.2628 -0.0481
   31MOL0     H 4175   1.150  11.059   1.472  1.7180 -0.1318 -0.3417
   31MOL0     H 4176   1.147  11.076   1.658 -0.5857 -1.6023  1.7621
   31MOL0     H 4177   1.293  10.891   1.476  0.9471 -5.0513  1.9448
   31MOL0     H 4178   1.305  10.853   1.644  0.0786 -1.4446 -1.9323
   31MOL0     H 4179   1.430  11.044   1.695 -0.5326 -2.0370 -0.0901
   31MOL0     H 4180   1.398  11.132   1.546 -0.1708 -0.8541 -0.8215
   31MOL0     H 4181   1.502  10.986   1.406  1.9765  0.2588 -0.2134
   31MOL0     H 4182   1.541  10.864   1.531 -0.8587 -0.8528 -0.6575
   31MOL0     H 4183   1.847  11.143   1.599 -2.2543  2.7379  2.0400
   31MOL0     H 4184   0.902  10.730   1.619 -1.3660  0.1998  3.4781
   31MOL0     H 4185   0.664  10.739   1.581  0.4325  0.6089  0.2132
   32MOL0     O 4186   1.379   6.841   6.718  0.1838 -0.3781 -0.0474
   32MOL0     C 4187   1.287   6.919   6.726 -0.3826  0.1519  0.3274
   32MOL0     O 4188   1.262   6.980   6.839  0.5572 -0.6858 -0.6975
   32MOL0     C 4189   1.336   6.951   6.953  0.3593 -0.4574 -0.7033
   32MOL0     C 4190   1.455   7.017   6.974  0.5260 -0.0822 -0.4142
   32MOL0     C 4191   1.538   6.999   7.086  0.7678  0.7454 -0.4703
   32MOL0     C 4192   1.491   6.911   7.191 -0.6251  0.8861  0.7149
   32MOL0     O 4193   1.557   6.878   7.307  1.1520  0.3338  0.8905
   32MOL0     C 4194   1.677   6.935   7.340  0.4284 -0.0462  0.0481
   32MOL0     C 4195   1.644   7.056   7.435  0.1787 -1.6436 -0.9262
   32MOL0     C 4196   1.771   7.108   7.510  0.1597 -0.0146  1.0530
   32MOL0     C 4197   1.751   7.245   7.576  0.1296  0.6770 -1.0535
   32MOL0     C 4198   1.641   7.227   7.688 -0.3232 -0.6963  0.3861
   32MOL0     C 4199   1.639   7.346   7.788  0.5262 -0.0335 -0.1200
   32MOL0     C 4200   1.635   7.490   7.737  0.2530 -0.0447  0.7467
   32MOL0     C 4201   1.612   7.598   7.849 -0.4052  0.3404 -0.1317
   32MOL0     N 4202   1.482   7.570   7.914  0.9659  0.7942 -0.6303
   32MOL0     C 4203   1.353   7.577   7.857  0.1587 -0.6193  0.4989
   32MOL0     C 4204   1.272   7.531   7.958 -0.3838 -0.6235  0.4177
   32MOL0     C 4205   1.127   7.504   7.938  0.0610  0.4390 -0.8131
   32MOL0     C 4206   1.041   7.616   7.984 -0.4101 -1.1566  0.6278
   32MOL0     C 4207   0.891   7.596   7.977  0.5628 -0.1639 -0.5489
   32MOL0     C 4208   0.812   7.722   8.007 -0.2697  1.1730 -0.1502
   32MOL0     O 4209   0.672   7.719   7.971 -1.0271  0.1444  0.5637
   32MOL0     C 4210   0.585   7.611   7.984 -0.2827 -0.6689 -1.1709
   32MOL0     C 4211   0.472   7.601   7.904 -0.4951  0.5811  0.2633
   32MOL0     C 4212   0.370   7.509   7.928  0.3997 -0.4937  0.0692
   32MOL0     C 4213   0.267   7.506   7.827  0.1117  0.1866 -0.4573
   32MOL0     C 4214   0.376   7.429   8.040 -0.4841  0.2881  0.1662
   32MOL0     C 4215   0.285   7.313   8.072  0.2747  0.5017  0.7093
   32MOL0     O 4216   0.354   7.201   8.093 -0.2003 -0.3495  0.1641
   32MOL0     C 4217   0.278   7.089   8.115  0.4269 -1.0067  0.1799
   32MOL0     C 4218   0.227   7.053   8.240  0.6531 -0.2923 -0.2636
   32MOL0     C 4219   0.157   6.930   8.250 -0.4755  0.0906  0.1151
   32MOL0     C 4220   0.154   6.835   8.141  0.0351 -0.8408  0.7287
   32MOL0     O 4221   0.098   6.711   8.152 -0.3874 -0.1945 -0.7627
   32MOL0     C 4222   0.115   6.636   8.271  0.5811 -0.1355 -0.6684
   32MOL0     C 4223   0.265   6.619   8.306 -0.0186  0.8716 -0.3992
   32MOL0     C 4224   0.282   6.551   8.442 -1.4449  0.5579  0.2164
   32MOL0     C 4225   0.183   6.437   8.482  0.0109 -0.1280  0.0101
   32MOL0     C 4226   0.225   6.387   8.629 -0.3726  0.7066  0.7354
   32MOL0     C 4227   0.124   6.291   8.709  0.5144 -0.6208 -0.7164
   32MOL0     C 4228   0.083   6.170   8.629 -0.2998  0.7096  0.9617
   32MOL0     C 4229   0.056   6.045   8.712 -0.2878  0.3260 -0.5079
   32MOL0    Cl 4230   0.190   5.987   8.812 -0.0014  0.3819  0.4757
   32MOL0     C 4231   0.196   6.873   8.010  0.1083 -0.9724  0.7071
   32MOL0     C 4232   0.266   6.995   8.002 -0.8561 -0.6593 -0.2288
   32MOL0     O 4233   0.164   7.328   8.092 -0.1735 -1.1199 -1.1536
   32MOL0     C 4234   0.489   7.437   8.128  0.3079  0.3704 -0.1238
   32MOL0     C 4235   0.590   7.534   8.099 -1.3115  0.0513  0.5595
   32MOL0     N 4236   1.355   7.498   8.072  0.5485  0.1900  0.0826
   32MOL0     N 4237   1.484   7.535   8.050 -0.0391  0.9648 -0.5237
   32MOL0     C 4238   1.366   6.858   7.178  0.3028  0.1596 -0.6778
   32MOL0     C 4239   1.288   6.868   7.057  0.0373 -0.2053  0.2397
   32MOL0     C 4240   1.203   6.949   6.616  0.4917  0.2397  0.5131
   32MOL0     C 4241   1.220   6.892   6.497 -0.1218  0.9898 -0.0388
   32MOL0     C 4242   1.143   6.921   6.382 -0.4113 -0.6598  0.4072
   32MOL0     C 4243   1.046   7.022   6.384 -0.0221  0.4315 -0.2298
   32MOL0     O 4244   0.975   7.073   6.277  0.0409  0.6559  0.3832
   32MOL0     C 4245   1.004   7.024   6.141 -0.4165  0.3174 -0.7031
   32MOL0     C 4246   0.877   7.008   6.065 -0.2602 -0.1260 -0.2364
   32MOL0     C 4247   0.797   7.138   6.062 -1.0399  0.7643  0.9544
   32MOL0     C 4248   0.660   7.110   5.994 -0.5136 -0.4137 -0.1333
   32MOL0     C 4249   0.580   7.232   5.978  1.4881 -0.0414  0.3406
   32MOL0     C 4250   0.500   7.327   5.989 -0.1130 -0.3911  0.4663
   32MOL0     C 4251   1.016   7.077   6.505 -0.5897  0.5682 -0.0313
   32MOL0     C 4252   1.088   7.036   6.625 -1.0606  0.0758  0.4268
   32MOL0     H 4253   1.483   7.091   6.900 -1.4000  3.3871  2.0428
   32MOL0     H 4254   1.631   7.054   7.089  0.7265  0.8132 -0.4497
   32MOL0     H 4255   1.746   6.865   7.388  2.4583 -0.5593 -3.2422
   32MOL0     H 4256   1.732   6.959   7.249 -0.4864 -2.9280 -1.3971
   32MOL0     H 4257   1.602   7.134   7.371  3.6915  1.1547 -0.1447
   32MOL0     H 4258   1.565   7.037   7.508 -1.5794  2.5769 -1.4228
   32MOL0     H 4259   1.789   7.032   7.587  0.3286 -1.8367 -0.7060
   32MOL0     H 4260   1.854   7.122   7.440  0.3895 -0.4104  1.2405
   32MOL0     H 4261   1.843   7.263   7.632 -0.5253  3.4057 -0.6773
   32MOL0     H 4262   1.731   7.332   7.512 -2.3077  1.1088  0.1372
   32MOL0     H 4263   1.541   7.213   7.647 -1.6837 -1.7100  3.7511
   32MOL0     H 4264   1.665   7.136   7.742 -0.8948 -1.5982 -0.8363
   32MOL0     H 4265   1.540   7.332   7.834  1.0407  1.0169  1.3962
   32MOL0     H 4266   1.710   7.333   7.870  0.3641  0.9682  0.1966
   32MOL0     H 4267   1.724   7.516   7.679 -0.7142  2.6565  0.2959
   32MOL0     H 4268   1.555   7.495   7.662  0.2044  1.3124  0.8622
   32MOL0     H 4269   1.617   7.703   7.818 -2.8403  0.8234  0.7997
   32MOL0     H 4270   1.700   7.594   7.913 -0.3431  2.4367  0.0087
   32MOL0     H 4271   1.311   7.631   7.772 -3.9050  1.2461  3.3671
   32MOL0     H 4272   1.101   7.477   7.835 -1.4921  3.2608 -1.2479
   32MOL0     H 4273   1.106   7.407   7.985  0.0642  1.2230  0.8855
   32MOL0     H 4274   1.086   7.702   7.933  2.0691 -1.4164  2.1872
   32MOL0     H 4275   1.073   7.631   8.088  0.3046 -0.7899  0.3645
   32MOL0     H 4276   0.863   7.521   8.052 -0.6677  1.5939  0.8430
   32MOL0     H 4277   0.835   7.566   7.888 -0.3779 -2.8931  0.8444
   32MOL0     H 4278   0.858   7.803   7.950 -1.2040  1.8081 -0.0270
   32MOL0     H 4279   0.835   7.752   8.109 -0.1538 -0.3405  0.2991
   32MOL0     H 4280   0.468   7.663   7.815  1.1449 -0.6784 -0.7327
   32MOL0     H 4281   0.246   7.409   7.782 -1.1417  0.6557 -0.9226
   32MOL0     H 4282   0.173   7.537   7.874 -0.5586  0.6658 -2.0391
   32MOL0     H 4283   0.286   7.562   7.735  0.7210 -3.1477 -2.5333
   32MOL0     H 4284   0.234   7.119   8.326 -2.8256 -1.0123  0.7144
   32MOL0     H 4285   0.109   6.915   8.346 -1.8535  1.5178 -0.3107
   32MOL0     H 4286   0.064   6.684   8.356 -0.0535  1.6976 -2.0192
   32MOL0     H 4287   0.068   6.538   8.256  2.9942 -1.5392  0.4606
   32MOL0     H 4288   0.297   6.554   8.224  0.9882  0.4254  0.3279
   32MOL0     H 4289   0.323   6.712   8.315  2.0561 -0.3743 -0.3121
   32MOL0     H 4290   0.269   6.633   8.514 -0.2093 -0.1274  1.2665
   32MOL0     H 4291   0.384   6.513   8.451 -0.6534  2.6550  0.6974
   32MOL0     H 4292   0.083   6.481   8.491 -0.5778 -1.4085 -0.0422
   32MOL0     H 4293   0.185   6.352   8.414  1.4360 -1.5942  1.7538
   32MOL0     H 4294   0.251   6.476   8.688  1.7604  0.6572 -0.0477
   32MOL0     H 4295   0.315   6.325   8.621 -1.5297 -1.4710  3.1669
   32MOL0     H 4296   0.164   6.259   8.806 -2.4662  2.7862  1.8877
   32MOL0     H 4297   0.043   6.354   8.747  0.2957  1.2059 -3.9278
   32MOL0     H 4298   0.159   6.142   8.555 -0.2987 -0.1497  1.2796
   32MOL0     H 4299  -0.006   6.192   8.568  1.5050 -2.3945 -3.2967
   32MOL0     H 4300   0.035   5.958   8.649 -2.9239  1.4312 -1.2987
   32MOL0     H 4301  -0.033   6.049   8.775  0.6623  4.3169  0.9070
   32MOL0     H 4302   0.180   6.816   7.919 -3.9494  0.2264  0.4819
   32MOL0     H 4303   0.313   7.032   7.912  1.5527 -1.2348  0.7028
   32MOL0     H 4304   0.487   7.378   8.219 -2.1007 -2.2366 -1.7125
   32MOL0     H 4305   0.675   7.547   8.166 -0.0286 -1.1125 -0.7710
   32MOL0     H 4306   1.327   6.803   7.263  1.6617  1.4550  0.8333
   32MOL0     H 4307   1.189   6.824   7.052 -0.0057 -0.2049  1.0118
   32MOL0     H 4308   1.302   6.821   6.487  0.3328  1.2306  1.7578
   32MOL0     H 4309   1.173   6.864   6.294  2.3913  2.1000 -0.6015
   32MOL0     H 4310   1.079   7.090   6.097  0.5327 -0.3479 -0.1067
   32MOL0     H 4311   1.042   6.922   6.149 -1.6073 -0.0207  1.7295
   32MOL0     H 4312   0.828   6.921   6.110  0.8674  0.3848  2.1769
   32MOL0     H 4313   0.902   6.985   5.961  1.1082  0.3176 -0.0264
   32MOL0     H 4314   0.838   7.227   6.014  3.0142 -1.8090 -0.8420
   32MOL0     H 4315   0.767   7.173   6.162  0.1903  1.3795  1.1158
   32MOL0     H 4316   0.610   7.033   6.053  0.7271 -1.2647 -0.1471
   32MOL0     H 4317   0.675   7.071   5.893  1.8587  1.0304 -0.4055
   32MOL0     H 4318   0.433   7.410   5.996 -2.6535 -2.1424 -1.2026
   32MOL0     H 4319   0.938   7.151   6.521  0.8828  2.6189 -1.7395
   32MOL0     H 4320   1.079   7.089   6.719  0.5642  0.0854  0.6150
   33MOL0     O 4321   8.834  10.239   4.163  0.3245  0.0131  0.1181
   33MOL0     C 4322   8.938  10.176   4.192 -0.1582 -0.4537 -1.0413
   33MOL0     O 4323   9.063  10.235   4.185 -0.1044 -0.0637  0.6443
   33MOL0     C 4324   9.063  10.366   4.146  0.7465  0.4192  0.8268
   33MOL0     C 4325   9.069  10.471   4.236  0.2396  0.3152  0.0397
   33MOL0     C 4326   9.074  10.603   4.195  0.8053  0.1573 -0.0887
   33MOL0     C 4327   9.075  10.631   4.063 -0.2493  0.5174 -0.0924
   33MOL0     O 4328   9.068  10.764   4.006 -0.2102  0.0635 -0.0942
   33MOL0     C 4329   8.963  10.851   4.057 -0.0089  0.5693  0.3440
   33MOL0     C 4330   9.001  11.004   4.062  0.2410  0.6950  0.3657
   33MOL0     C 4331   8.906  11.089   4.150  0.9198 -1.0250 -0.2112
   33MOL0     C 4332   8.908  11.045   4.297 -0.1232  0.7323 -0.1223
   33MOL0     C 4333   8.856  11.164   4.384  0.2070 -0.4701  0.9347
   33MOL0     C 4334   8.872  11.151   4.534  0.1330  0.1524  0.0539
   33MOL0     C 4335   8.833  11.264   4.623 -0.1143  0.7718 -0.6012
   33MOL0     C 4336   8.687  11.291   4.596 -1.2816 -0.5319  0.4039
   33MOL0     N 4337   8.625  11.388   4.696  0.5894 -0.3673 -0.0557
   33MOL0     C 4338   8.620  11.382   4.837  0.5406 -0.9486  0.1560
   33MOL0     C 4339   8.537  11.477   4.882  0.6877 -0.0208 -0.1027
   33MOL0     C 4340   8.487  11.471   5.024 -0.1622 -0.3546 -0.2991
   33MOL0     C 4341   8.500  11.615   5.092  0.3511 -0.0973 -0.2772
   33MOL0     C 4342   8.419  11.599   5.221  0.8571 -0.3980  0.0720
   33MOL0     C 4343   8.476  11.503   5.322  0.7336 -0.1348  0.1887
   33MOL0     O 4344   8.407  11.526   5.451 -0.9253  0.9227  0.0009
   33MOL0     C 4345   8.287  11.476   5.474 -0.5542 -0.2040  0.1029
   33MOL0     C 4346   8.203  11.539   5.569  0.1853 -0.3717  0.1758
   33MOL0     C 4347   8.081  11.474   5.607 -1.1921 -0.2969  0.3242
   33MOL0     C 4348   7.992  11.544   5.704  0.3742 -0.5347 -0.8415
   33MOL0     C 4349   8.043  11.354   5.545  0.2506  0.0296  0.1585
   33MOL0     C 4350   7.919  11.265   5.583  0.3477 -0.3299  0.0957
   33MOL0     O 4351   7.892  11.167   5.491  0.4218  0.3273  0.3763
   33MOL0     C 4352   7.765  11.109   5.492 -1.3178  0.0514  0.6152
   33MOL0     C 4353   7.701  11.084   5.373  0.1229 -0.3491  0.5092
   33MOL0     C 4354   7.589  10.999   5.369 -0.3349  0.0693 -0.6000
   33MOL0     C 4355   7.544  10.932   5.486 -0.7255 -1.0013 -0.5039
   33MOL0     O 4356   7.428  10.860   5.492 -0.0622  0.0377 -0.1058
   33MOL0     C 4357   7.340  10.869   5.609  0.1355 -0.0731 -0.4960
   33MOL0     C 4358   7.246  10.997   5.604 -0.3624  0.7606  0.1734
   33MOL0     C 4359   7.160  10.989   5.481  0.7026  0.1769 -1.3054
   33MOL0     C 4360   7.096  11.126   5.453 -0.0255 -0.1707  0.1207
   33MOL0     C 4361   7.024  11.138   5.319  0.1300  0.2570  0.2047
   33MOL0     C 4362   7.110  11.188   5.200  0.7037 -0.3016 -0.7716
   33MOL0     C 4363   7.183  11.326   5.236 -0.3154 -0.9426 -0.6507
   33MOL0     C 4364   7.254  11.374   5.110 -0.1587  0.5891  0.2593
   33MOL0    Cl 4365   7.383  11.253   5.077 -0.3029 -0.2190 -0.2105
   33MOL0     C 4366   7.619  10.952   5.607  0.3875  0.1195  0.2881
   33MOL0     C 4367   7.729  11.041   5.606  0.6227  0.8102 -1.1187
   33MOL0     O 4368   7.857  11.286   5.693 -0.3682  0.1836  0.2310
   33MOL0     C 4369   8.125  11.295   5.453 -0.7118 -0.0188  0.6237
   33MOL0     C 4370   8.245  11.356   5.411  1.8874 -0.1046  0.2427
   33MOL0     N 4371   8.493  11.550   4.768 -0.8581 -0.2729  0.0626
   33MOL0     N 4372   8.550  11.501   4.661 -0.6056 -0.2359 -0.2624
   33MOL0     C 4373   9.079  10.527   3.974 -0.3463  0.5102  0.4966
   33MOL0     C 4374   9.079  10.387   4.012  0.2180 -0.6609  0.5556
   33MOL0     C 4375   8.943  10.048   4.254  0.0688 -0.0057 -0.3989
   33MOL0     C 4376   8.836   9.966   4.230  0.4952 -0.5763 -0.0213
   33MOL0     C 4377   8.827   9.834   4.277  1.2107  0.1369  0.6298
   33MOL0     C 4378   8.935   9.790   4.352 -0.0004 -1.0346 -0.1701
   33MOL0     O 4379   8.905   9.666   4.408 -0.0842  0.3117 -0.2655
   33MOL0     C 4380   9.005   9.574   4.465  0.4241 -0.1939  0.3907
   33MOL0     C 4381   9.137   9.561   4.380  0.0166 -0.0489  0.3342
   33MOL0     C 4382   9.210   9.431   4.407  0.1835  0.3357 -0.1987
   33MOL0     C 4383   9.267   9.420   4.550  0.4564 -0.3531  0.3201
   33MOL0     C 4384   9.406   9.458   4.544 -0.4882 -0.1024 -0.2822
   33MOL0     C 4385   9.514   9.513   4.542 -0.7515 -0.1073 -0.0149
   33MOL0     C 4386   9.048   9.875   4.382  0.5939 -0.0632  0.1202
   33MOL0     C 4387   9.051  10.005   4.326 -0.0917 -0.1352 -0.0252
   33MOL0     H 4388   9.071  10.460   4.344 -0.1810  0.8016  0.0975
   33MOL0     H 4389   9.072  10.682   4.270 -0.7857 -1.4833  1.6765
   33MOL0     H 4390   8.867  10.831   4.009 -1.0762  3.3277  1.1374
   33MOL0     H 4391   8.955  10.826   4.163  2.2633 -2.1461  0.0133
   33MOL0     H 4392   9.102  11.016   4.100 -0.0732  5.4484  0.2762
   33MOL0     H 4393   8.993  11.048   3.962 -1.6722  2.6354  1.2769
   33MOL0     H 4394   8.936  11.193   4.135 -0.2991 -0.8678 -1.9456
   33MOL0     H 4395   8.800  11.074   4.125  0.3847  0.2210  1.1539
   33MOL0     H 4396   8.841  10.963   4.322 -0.5779  1.1297 -0.0211
   33MOL0     H 4397   9.009  11.011   4.325 -0.9494 -0.5931  1.4257
   33MOL0     H 4398   8.913  11.250   4.349  0.4917  0.2135  2.9673
   33MOL0     H 4399   8.750  11.169   4.355  0.6623  1.9030 -0.5728
   33MOL0     H 4400   8.826  11.062   4.576  0.2998  0.2659  0.4891
   33MOL0     H 4401   8.977  11.121   4.536 -0.5171 -2.5694 -1.9972
   33MOL0     H 4402   8.837  11.228   4.726  1.6703 -1.8333 -1.4706
   33MOL0     H 4403   8.900  11.350   4.619 -0.9862  1.6005  1.2916
   33MOL0     H 4404   8.625  11.201   4.586 -0.7526 -0.6976 -2.1753
   33MOL0     H 4405   8.682  11.330   4.494  4.7942  0.9305  0.3176
   33MOL0     H 4406   8.674  11.312   4.900  0.7919 -0.6844  0.2327
   33MOL0     H 4407   8.388  11.427   5.017 -1.4239  2.4764 -2.2112
   33MOL0     H 4408   8.557  11.402   5.073  0.0381 -0.4431 -0.7032
   33MOL0     H 4409   8.462  11.692   5.025  1.2341 -2.0447 -3.2111
   33MOL0     H 4410   8.607  11.634   5.099  0.6689 -1.3456 -1.2401
   33MOL0     H 4411   8.317  11.566   5.197 -0.9678  2.4010  3.2306
   33MOL0     H 4412   8.407  11.696   5.269 -0.0514 -0.6010  0.2656
   33MOL0     H 4413   8.585  11.516   5.332  1.4908 -3.2756 -2.2481
   33MOL0     H 4414   8.470  11.398   5.290 -0.5472 -0.5078  1.5418
   33MOL0     H 4415   8.228  11.633   5.616  1.8460 -1.2129  1.0617
   33MOL0     H 4416   8.044  11.630   5.747  0.9408 -1.2700 -0.0246
   33MOL0     H 4417   7.895  11.578   5.667  0.3096 -0.5272 -0.6633
   33MOL0     H 4418   7.969  11.478   5.787  1.6891 -0.2147 -0.2043
   33MOL0     H 4419   7.748  11.128   5.286 -1.0230 -0.5284 -0.2355
   33MOL0     H 4420   7.525  10.987   5.281 -1.6529 -1.9691  0.5485
   33MOL0     H 4421   7.283  10.777   5.624  1.0873 -0.6317 -0.1998
   33MOL0     H 4422   7.395  10.870   5.703  1.1263 -1.5404 -1.0268
   33MOL0     H 4423   7.193  10.988   5.699  2.4147 -3.1589  1.6058
   33MOL0     H 4424   7.315  11.082   5.604  2.9118 -1.6977  0.8162
   33MOL0     H 4425   7.084  10.912   5.497  0.8520  0.5094  1.3389
   33MOL0     H 4426   7.197  10.975   5.379 -0.7094  3.3724 -2.3787
   33MOL0     H 4427   7.022  11.139   5.533  1.6108  0.7694  1.5442
   33MOL0     H 4428   7.167  11.207   5.474 -0.7446  1.5951 -3.4832
   33MOL0     H 4429   6.942  11.210   5.323 -1.1746 -1.2100  0.7185
   33MOL0     H 4430   6.984  11.038   5.302 -0.5447  0.3248  1.2844
   33MOL0     H 4431   7.192  11.120   5.178  2.1486  0.7413  1.0906
   33MOL0     H 4432   7.035  11.209   5.123  1.3976 -2.0439 -1.9694
   33MOL0     H 4433   7.251  11.310   5.320 -0.3314  0.7706 -0.2734
   33MOL0     H 4434   7.115  11.410   5.252  1.7758  0.6648  0.1172
   33MOL0     H 4435   7.298  11.472   5.131 -0.0400  0.3507  1.1601
   33MOL0     H 4436   7.191  11.377   5.021 -2.0982 -0.9180  1.5003
   33MOL0     H 4437   7.593  10.902   5.700 -0.1260  3.3134  2.0035
   33MOL0     H 4438   7.794  11.030   5.691 -2.4765  0.8252  1.4522
   33MOL0     H 4439   8.101  11.213   5.385  1.0352 -0.4503  0.4792
   33MOL0     H 4440   8.307  11.291   5.350  1.0962 -0.0236 -0.6601
   33MOL0     H 4441   9.079  10.546   3.867 -2.2416 -2.5953 -0.1899
   33MOL0     H 4442   9.078  10.308   3.938  1.9333  2.0759 -2.6724
   33MOL0     H 4443   8.749  10.000   4.175 -2.6901 -1.1831  4.0970
   33MOL0     H 4444   8.749   9.763   4.257  3.4557 -2.7330  1.3805
   33MOL0     H 4445   9.016   9.608   4.569 -1.5038 -2.1304  1.3223
   33MOL0     H 4446   8.959   9.476   4.477 -0.9779  0.1967 -1.4519
   33MOL0     H 4447   9.213   9.635   4.407  2.0633 -2.6169  2.1376
   33MOL0     H 4448   9.115   9.559   4.273  3.4907 -2.3158 -0.5262
   33MOL0     H 4449   9.291   9.416   4.335  0.4653 -1.1678  0.3906
   33MOL0     H 4450   9.140   9.354   4.374 -0.1768  0.9172 -0.8087
   33MOL0     H 4451   9.280   9.318   4.586 -1.2391 -0.0948  1.7775
   33MOL0     H 4452   9.208   9.474   4.624 -0.9628  0.4617 -1.3412
   33MOL0     H 4453   9.603   9.572   4.547 -0.4056 -0.6756  0.7041
   33MOL0     H 4454   9.123   9.843   4.453  0.9593  2.7033  1.1245
   33MOL0     H 4455   9.143  10.061   4.333 -2.6725  4.5777 -0.1509
   34MOL0     O 4456   7.321   4.858   4.176 -0.0261  0.0360 -0.2430
   34MOL0     C 4457   7.235   4.851   4.090  0.6283 -1.2426 -0.0262
   34MOL0     O 4458   7.105   4.839   4.106 -0.2737  0.6613  0.2838
   34MOL0     C 4459   7.031   4.832   4.225 -0.1739 -0.2916  0.0984
   34MOL0     C 4460   6.895   4.854   4.224 -0.7961 -0.6515  0.4371
   34MOL0     C 4461   6.824   4.857   4.339  0.0194 -0.2519 -0.5053
   34MOL0     C 4462   6.882   4.831   4.467 -0.3649 -0.2694 -0.3092
   34MOL0     O 4463   6.811   4.833   4.588  0.1016  0.1121  0.3794
   34MOL0     C 4464   6.677   4.893   4.599 -0.1640 -0.0849  0.7115
   34MOL0     C 4465   6.616   4.859   4.732 -0.7328  0.5693 -0.0156
   34MOL0     C 4466   6.531   4.969   4.780  0.6271 -0.5851 -0.1009
   34MOL0     C 4467   6.518   4.994   4.932 -1.1208  0.4394  0.0076
   34MOL0     C 4468   6.433   4.897   5.012  0.4188 -0.0845  0.3734
   34MOL0     C 4469   6.439   4.925   5.162  0.4699  0.0728 -0.3059
   34MOL0     C 4470   6.335   4.835   5.235 -0.3088 -0.9663  0.1452
   34MOL0     C 4471   6.322   4.854   5.386 -0.3950  0.0230 -0.4441
   34MOL0     N 4472   6.446   4.890   5.458  0.6361 -0.1302  0.3355
   34MOL0     C 4473   6.556   4.806   5.457  0.1398 -0.0933  0.1070
   34MOL0     C 4474   6.641   4.875   5.538  0.1353 -0.4137 -0.9786
   34MOL0     C 4475   6.785   4.837   5.583  0.2084  0.8913  0.4912
   34MOL0     C 4476   6.853   4.754   5.470  0.4607 -1.0992 -0.1021
   34MOL0     C 4477   6.899   4.845   5.350  0.1562 -0.0567 -0.2637
   34MOL0     C 4478   6.902   4.788   5.210 -0.5022 -0.5276 -0.6464
   34MOL0     O 4479   6.781   4.721   5.177  0.0397  0.0646  0.2489
   34MOL0     C 4480   6.773   4.656   5.057  0.2865  0.9386  0.3913
   34MOL0     C 4481   6.649   4.585   5.041 -0.2136 -0.4445 -0.3018
   34MOL0     C 4482   6.613   4.526   4.918  0.6757  1.1464  0.1255
   34MOL0     C 4483   6.493   4.439   4.915  0.1782 -0.4735  0.5972
   34MOL0     C 4484   6.698   4.533   4.809 -0.4804  0.0242 -0.3565
   34MOL0     C 4485   6.677   4.471   4.670  1.1648  0.1036  0.6758
   34MOL0     O 4486   6.776   4.500   4.590  0.3105 -0.0423 -0.0345
   34MOL0     C 4487   6.798   4.420   4.478  0.6386  1.0272  0.1640
   34MOL0     C 4488   6.839   4.480   4.361 -0.0880 -0.6599  0.1696
   34MOL0     C 4489   6.854   4.417   4.238  0.2091  0.0640  0.5093
   34MOL0     C 4490   6.837   4.279   4.230 -0.4050 -0.9646  0.8100
   34MOL0     O 4491   6.859   4.205   4.119 -0.1705  0.5012 -0.2783
   34MOL0     C 4492   6.792   4.249   4.006 -1.2376 -0.1010  0.0590
   34MOL0     C 4493   6.803   4.152   3.885 -0.2597  0.2530  0.6531
   34MOL0     C 4494   6.778   4.217   3.754  0.4427 -0.4313  0.0190
   34MOL0     C 4495   6.812   4.123   3.638 -0.6240 -0.2646 -0.3571
   34MOL0     C 4496   6.780   4.185   3.493  0.6224  0.4285 -0.1300
   34MOL0     C 4497   6.628   4.168   3.461  0.0415 -0.2945 -0.4182
   34MOL0     C 4498   6.595   4.257   3.337  0.4977  0.1340  0.7557
   34MOL0     C 4499   6.676   4.240   3.202  0.0510  0.1489  0.2482
   34MOL0    Cl 4500   6.621   4.076   3.141 -0.4049 -0.0486  0.0807
   34MOL0     C 4501   6.798   4.216   4.345 -0.1435  0.0757  0.2636
   34MOL0     C 4502   6.766   4.281   4.468 -0.5404  0.6179  0.1275
   34MOL0     O 4503   6.576   4.402   4.635 -0.6826  0.3898 -0.4938
   34MOL0     C 4504   6.830   4.594   4.832 -0.7693  0.6888 -0.5254
   34MOL0     C 4505   6.856   4.655   4.951  0.0224 -0.5696 -0.1385
   34MOL0     N 4506   6.579   4.990   5.585 -0.2887 -0.3361  0.3057
   34MOL0     N 4507   6.467   5.007   5.516 -0.5896 -0.3695 -0.6277
   34MOL0     C 4508   7.015   4.790   4.464  0.4306 -0.3706 -0.8047
   34MOL0     C 4509   7.095   4.798   4.350  0.4271 -0.1704 -0.2246
   34MOL0     C 4510   7.298   4.841   3.957  0.5589 -0.3655  0.3990
   34MOL0     C 4511   7.432   4.805   3.937 -0.8450  0.6337 -1.1710
   34MOL0     C 4512   7.489   4.785   3.819  0.4176  0.3887 -0.4194
   34MOL0     C 4513   7.409   4.802   3.709  0.1051  1.3424 -0.4523
   34MOL0     O 4514   7.451   4.773   3.582  0.1774  0.2125 -0.2697
   34MOL0     C 4515   7.588   4.772   3.539  0.5769  0.0198 -0.7684
   34MOL0     C 4516   7.611   4.896   3.454  0.1941 -1.0234  0.3579
   34MOL0     C 4517   7.527   4.900   3.320 -1.0796 -0.7735 -0.7129
   34MOL0     C 4518   7.529   4.769   3.244 -0.5521  0.6631 -0.1071
   34MOL0     C 4519   7.481   4.789   3.101  0.2432  0.6138  0.0884
   34MOL0     C 4520   7.439   4.843   3.005 -0.3356  0.2673  0.0615
   34MOL0     C 4521   7.278   4.836   3.715 -0.1246  0.4921  0.1030
   34MOL0     C 4522   7.225   4.868   3.838  0.5584  0.2439 -0.2900
   34MOL0     H 4523   6.832   4.873   4.137 -1.9608 -0.7849  1.2192
   34MOL0     H 4524   6.724   4.899   4.342  0.2469  0.2654  1.7406
   34MOL0     H 4525   6.686   4.996   4.564  1.1500 -0.6797 -0.8749
   34MOL0     H 4526   6.612   4.856   4.519  0.6682  1.7894 -0.9136
   34MOL0     H 4527   6.567   4.761   4.726 -0.3847  0.4241 -0.5322
   34MOL0     H 4528   6.691   4.835   4.807 -1.9829 -2.0383  0.5053
   34MOL0     H 4529   6.564   5.062   4.733 -1.8548  0.1092 -0.6101
   34MOL0     H 4530   6.432   4.958   4.733  0.6870 -0.7464 -0.1920
   34MOL0     H 4531   6.618   4.989   4.975 -0.7424  3.5960 -0.2427
   34MOL0     H 4532   6.480   5.090   4.970  0.1000  0.2451  1.8383
   34MOL0     H 4533   6.331   4.907   4.974 -0.9274 -3.5266  2.6290
   34MOL0     H 4534   6.451   4.792   4.988 -0.3102 -0.3506  0.9546
   34MOL0     H 4535   6.534   4.920   5.217 -0.8349  2.4007  2.4143
   34MOL0     H 4536   6.426   5.032   5.182 -0.6376  0.1178 -1.1955
   34MOL0     H 4537   6.235   4.858   5.198 -0.5320  0.0781  1.3154
   34MOL0     H 4538   6.362   4.733   5.208 -0.8771 -0.3532 -3.1798
   34MOL0     H 4539   6.291   4.754   5.416 -1.3409  0.0129 -1.3837
   34MOL0     H 4540   6.250   4.928   5.423  0.1739  1.0371 -1.3099
   34MOL0     H 4541   6.570   4.710   5.409  1.1650  0.3322 -0.4768
   34MOL0     H 4542   6.850   4.923   5.603 -1.7401  2.3437  0.8050
   34MOL0     H 4543   6.779   4.766   5.665  1.5584 -0.9839 -0.9238
   34MOL0     H 4544   6.791   4.671   5.436 -0.5415  0.3738 -2.1076
   34MOL0     H 4545   6.940   4.698   5.506  0.0749 -0.9688  1.0802
   34MOL0     H 4546   6.996   4.891   5.373 -0.5277  1.0895  0.4604
   34MOL0     H 4547   6.820   4.919   5.334 -0.1774 -0.4650 -0.4944
   34MOL0     H 4548   6.986   4.718   5.198  0.7014  0.6253  0.7135
   34MOL0     H 4549   6.913   4.868   5.137 -0.7516  1.7018  1.6359
   34MOL0     H 4550   6.594   4.581   5.135  0.5127 -0.2427  0.1412
   34MOL0     H 4551   6.423   4.439   4.831  2.9492 -2.1611 -1.8741
   34MOL0     H 4552   6.516   4.335   4.939 -0.5343  0.1424  4.7414
   34MOL0     H 4553   6.432   4.467   5.002 -0.6659 -0.7970  0.1202
   34MOL0     H 4554   6.871   4.581   4.385 -0.5669 -0.1166 -1.3719
   34MOL0     H 4555   6.881   4.478   4.152 -2.9114 -1.5302 -1.7679
   34MOL0     H 4556   6.689   4.266   4.040 -2.0026  1.7825 -2.8214
   34MOL0     H 4557   6.842   4.339   3.970 -0.9502 -0.5198 -0.6008
   34MOL0     H 4558   6.897   4.096   3.889  2.0729  3.9317  1.4777
   34MOL0     H 4559   6.717   4.085   3.894 -0.9643  0.9712 -0.4835
   34MOL0     H 4560   6.840   4.306   3.739 -0.5464 -0.2723 -4.4306
   34MOL0     H 4561   6.673   4.244   3.756  1.5938  6.0699  5.2335
   34MOL0     H 4562   6.920   4.106   3.640 -0.5943 -1.0770 -3.4173
   34MOL0     H 4563   6.767   4.024   3.649  3.7415 -2.6581 -1.3750
   34MOL0     H 4564   6.837   4.134   3.415  3.5765  1.2706  1.3457
   34MOL0     H 4565   6.807   4.291   3.492  0.8475  0.4499 -3.6821
   34MOL0     H 4566   6.605   4.062   3.443 -3.0847  0.2947 -0.4177
   34MOL0     H 4567   6.568   4.202   3.546 -1.4491  1.4571 -2.0762
   34MOL0     H 4568   6.620   4.361   3.361  0.6631  0.4374 -0.6435
   34MOL0     H 4569   6.488   4.246   3.316  0.2961 -0.3076  1.9438
   34MOL0     H 4570   6.784   4.253   3.216 -0.1091  3.5368 -0.7058
   34MOL0     H 4571   6.663   4.325   3.134 -1.4463 -1.5471 -1.7306
   34MOL0     H 4572   6.790   4.110   4.327  1.4569 -0.1550  0.7493
   34MOL0     H 4573   6.745   4.220   4.556 -0.1044 -3.7128 -2.4716
   34MOL0     H 4574   6.901   4.591   4.751 -0.8504  1.3384 -0.6289
   34MOL0     H 4575   6.938   4.724   4.967 -2.4136  2.7443 -0.8966
   34MOL0     H 4576   7.056   4.756   4.558 -0.3004 -1.5873 -0.9076
   34MOL0     H 4577   7.198   4.767   4.360 -0.4446 -2.4699  3.2779
   34MOL0     H 4578   7.494   4.771   4.019  0.3937  2.9964 -1.0399
   34MOL0     H 4579   7.591   4.748   3.824  2.4333  5.4362  1.2181
   34MOL0     H 4580   7.651   4.762   3.628 -2.1595  2.4830  1.6955
   34MOL0     H 4581   7.610   4.686   3.476 -2.1243 -0.3422 -1.3418
   34MOL0     H 4582   7.718   4.896   3.428  0.7202  2.0870  1.9939
   34MOL0     H 4583   7.588   4.993   3.498 -3.7742 -0.8912 -1.5719
   34MOL0     H 4584   7.579   4.982   3.272  0.4437  1.3380  3.9889
   34MOL0     H 4585   7.425   4.931   3.343  0.8242  3.5915  3.4250
   34MOL0     H 4586   7.465   4.691   3.286  2.7423 -2.4127 -0.2557
   34MOL0     H 4587   7.636   4.746   3.242 -0.6614  0.0921  0.3019
   34MOL0     H 4588   7.395   4.909   2.934 -0.2267 -0.4736 -0.7123
   34MOL0     H 4589   7.224   4.844   3.621  2.9513 -1.2901 -1.9678
   34MOL0     H 4590   7.121   4.896   3.854  0.1412  0.0725 -2.4328
   35MOL0     O 4591   0.226   3.652   0.786 -0.9680  0.4290 -0.7763
   35MOL0     C 4592   0.138   3.711   0.846 -0.6542  0.8358 -0.3496
   35MOL0     O 4593   0.156   3.832   0.897  0.3301 -0.7917  0.0501
   35MOL0     C 4594   0.261   3.904   0.846 -0.8601 -0.6639  0.2241
   35MOL0     C 4595   0.243   3.987   0.733 -0.8610  0.8830 -0.2188
   35MOL0     C 4596   0.336   4.082   0.692 -0.1798 -0.8288  0.3981
   35MOL0     C 4597   0.458   4.101   0.767 -0.7708  0.4344  0.5909
   35MOL0     O 4598   0.557   4.173   0.702 -0.5261 -0.3839  0.4195
   35MOL0     C 4599   0.692   4.119   0.686  0.2075  0.1018 -0.1218
   35MOL0     C 4600   0.790   4.230   0.714  0.0997  0.0600 -0.3736
   35MOL0     C 4601   0.938   4.178   0.706  0.0708 -0.0332 -0.5810
   35MOL0     C 4602   1.038   4.294   0.737  0.9776 -0.3610 -0.4347
   35MOL0     C 4603   1.155   4.305   0.635 -0.1991  0.0478  0.6996
   35MOL0     C 4604   1.217   4.169   0.586 -0.0406 -0.2137 -0.3890
   35MOL0     C 4605   1.326   4.115   0.690 -0.5682  0.3992  1.3156
   35MOL0     C 4606   1.432   4.215   0.736  0.2088  1.1598  0.3058
   35MOL0     N 4607   1.507   4.277   0.631 -0.4055  0.5508 -0.6203
   35MOL0     C 4608   1.608   4.223   0.557 -0.8755  0.7266 -0.3779
   35MOL0     C 4609   1.692   4.316   0.514  0.4475  0.5964  0.3052
   35MOL0     C 4610   1.816   4.291   0.433  0.0429 -0.0302 -0.1386
   35MOL0     C 4611   1.918   4.403   0.462  0.0487  0.1337 -0.8731
   35MOL0     C 4612   2.047   4.378   0.383  0.0946  0.6232  0.2576
   35MOL0     C 4613   2.152   4.482   0.399 -0.3975 -0.4973  1.4708
   35MOL0     O 4614   2.246   4.439   0.498  0.1599 -0.0602  0.3954
   35MOL0     C 4615   2.371   4.401   0.452 -0.3010 -0.9089 -1.3644
   35MOL0     C 4616   2.416   4.278   0.498  1.0842  0.5182 -0.8654
   35MOL0     C 4617   2.551   4.228   0.453  0.5790 -0.6579 -0.9296
   35MOL0     C 4618   2.592   4.082   0.489  0.4246  0.2505  0.8493
   35MOL0     C 4619   2.618   4.304   0.359  0.0311 -0.2402  0.5300
   35MOL0     C 4620   2.729   4.239   0.300 -0.2643 -0.5014 -0.0582
   35MOL0     O 4621   2.852   4.296   0.337  0.3789  0.7155 -0.5949
   35MOL0     C 4622   2.968   4.242   0.305  0.1731  0.5022  1.0260
   35MOL0     C 4623   3.079   4.329   0.286 -0.2401 -0.2112 -0.6298
   35MOL0     C 4624   3.208   4.277   0.293 -0.2682  0.2682  0.1312
   35MOL0     C 4625   3.237   4.146   0.321 -0.2671 -0.4659 -0.1806
   35MOL0     O 4626   3.364   4.088   0.345 -0.2488 -0.2082 -0.0673
   35MOL0     C 4627   3.474   4.173   0.369 -0.0019 -0.0298 -0.5952
   35MOL0     C 4628   3.607   4.094   0.385  1.0398  0.2307  0.0500
   35MOL0     C 4629   3.715   4.195   0.394 -1.5932 -0.1097 -1.5761
   35MOL0     C 4630   3.861   4.153   0.401  0.1850 -0.7191 -0.2019
   35MOL0     C 4631   3.914   4.192   0.261 -0.1371  0.7113  0.9372
   35MOL0     C 4632   4.059   4.136   0.223 -0.1795 -0.4622  0.3674
   35MOL0     C 4633   4.180   4.195   0.312 -0.4530 -0.2183 -0.4841
   35MOL0     C 4634   4.310   4.169   0.247 -0.1988 -0.2806  0.1201
   35MOL0    Cl 4635   4.446   4.187   0.363  0.1951  0.0886 -0.2108
   35MOL0     C 4636   3.132   4.056   0.325  0.6403  0.2650  0.4006
   35MOL0     C 4637   2.999   4.106   0.322 -0.0918  0.4391  0.0385
   35MOL0     O 4638   2.721   4.156   0.211 -0.2017  0.2785 -0.0359
   35MOL0     C 4639   2.578   4.436   0.325 -0.0396  0.2691  0.2484
   35MOL0     C 4640   2.452   4.483   0.375 -0.4536 -0.4265 -0.5465
   35MOL0     N 4641   1.646   4.437   0.570  0.3299  0.1290 -0.6652
   35MOL0     N 4642   1.534   4.411   0.638  0.3028 -0.2962  1.0042
   35MOL0     C 4643   0.482   4.021   0.881  0.6841  0.0372 -0.1503
   35MOL0     C 4644   0.382   3.936   0.920 -0.3507 -0.8727 -0.7195
   35MOL0     C 4645   0.020   3.636   0.888  0.3415  0.1909  0.4677
   35MOL0     C 4646  -0.064   3.679   0.983  0.1084 -0.3806 -0.9066
   35MOL0     C 4647  -0.174   3.614   1.026  0.4071 -0.5642 -0.4505
   35MOL0     C 4648  -0.199   3.484   0.974 -0.0392 -0.4600 -0.4798
   35MOL0     O 4649  -0.302   3.403   1.024 -0.6280 -0.1262 -0.0793
   35MOL0     C 4650  -0.385   3.450   1.138  0.3044 -0.5234  0.3270
   35MOL0     C 4651  -0.513   3.526   1.090 -0.6293  0.1460 -0.5440
   35MOL0     C 4652  -0.581   3.449   0.979 -0.4498 -0.4650 -0.5627
   35MOL0     C 4653  -0.669   3.543   0.889  0.3859 -0.4716 -0.1233
   35MOL0     C 4654  -0.726   3.474   0.778 -0.1272 -0.1677  0.3176
   35MOL0     C 4655  -0.765   3.416   0.684 -0.6265  0.3921  0.3163
   35MOL0     C 4656  -0.113   3.443   0.867  0.7742 -0.1389 -0.3760
   35MOL0     C 4657  -0.009   3.518   0.826 -0.3857 -0.0982  0.3458
   35MOL0     H 4658   0.150   3.962   0.683 -0.6551 -1.0388  0.3107
   35MOL0     H 4659   0.330   4.131   0.595 -3.2013 -0.4179  0.6865
   35MOL0     H 4660   0.706   4.034   0.753 -0.6534 -0.3358 -0.4866
   35MOL0     H 4661   0.699   4.088   0.581 -3.1642 -0.3098 -0.3278
   35MOL0     H 4662   0.774   4.312   0.643  3.0596  1.7198  0.7000
   35MOL0     H 4663   0.771   4.274   0.812 -3.0391  0.4858 -1.0755
   35MOL0     H 4664   0.964   4.090   0.765  1.8974  1.5864  1.1690
   35MOL0     H 4665   0.942   4.153   0.599 -1.6343 -1.9643 -0.2471
   35MOL0     H 4666   0.987   4.391   0.745 -0.7818 -1.1396 -1.7412
   35MOL0     H 4667   1.076   4.273   0.838  1.2159  0.3108 -0.3774
   35MOL0     H 4668   1.118   4.365   0.552  1.7001  1.7552  1.0134
   35MOL0     H 4669   1.233   4.370   0.675  1.3087 -0.4189 -1.3211
   35MOL0     H 4670   1.147   4.088   0.561  1.0820 -0.9478 -1.2486
   35MOL0     H 4671   1.269   4.190   0.492 -4.9792  0.8903 -3.2358
   35MOL0     H 4672   1.292   4.085   0.789  1.5032 -0.9831  1.6759
   35MOL0     H 4673   1.376   4.028   0.645 -1.6271 -0.0961  1.0699
   35MOL0     H 4674   1.495   4.160   0.807 -0.9459  0.4097  0.7794
   35MOL0     H 4675   1.376   4.290   0.793 -1.7998 -0.9244  1.2621
   35MOL0     H 4676   1.628   4.119   0.533  0.7894  1.4242 -2.2422
   35MOL0     H 4677   1.857   4.194   0.463  0.1203  0.2522  0.6925
   35MOL0     H 4678   1.803   4.286   0.324 -0.8158 -1.6656  0.0099
   35MOL0     H 4679   1.935   4.397   0.570 -3.4803  0.2736 -0.1992
   35MOL0     H 4680   1.875   4.501   0.437 -4.7123 -1.1297  1.4118
   35MOL0     H 4681   2.027   4.368   0.276 -2.1158  2.0230  0.4755
   35MOL0     H 4682   2.094   4.284   0.415 -2.0921 -1.5636 -2.3547
   35MOL0     H 4683   2.116   4.578   0.438  1.9145 -0.0907  2.8338
   35MOL0     H 4684   2.204   4.495   0.304 -0.5626  2.2638  1.6778
   35MOL0     H 4685   2.358   4.203   0.551 -0.3741  0.4817 -2.4025
   35MOL0     H 4686   2.512   4.045   0.553 -0.9327  0.4369 -0.6724
   35MOL0     H 4687   2.606   4.021   0.399 -0.5142 -0.7029  1.3295
   35MOL0     H 4688   2.686   4.104   0.541 -0.0931  2.6144  0.8823
   35MOL0     H 4689   3.055   4.435   0.280  1.7392  0.4552  1.7000
   35MOL0     H 4690   3.287   4.351   0.286 -1.1921  1.1347 -2.0846
   35MOL0     H 4691   3.484   4.238   0.281  2.7712 -0.1872 -0.4879
   35MOL0     H 4692   3.462   4.237   0.457  0.5602  0.0725 -0.5912
   35MOL0     H 4693   3.588   4.026   0.469  0.0874 -0.2791 -0.5558
   35MOL0     H 4694   3.614   4.028   0.298 -2.4689 -1.1173  0.6019
   35MOL0     H 4695   3.705   4.241   0.493  1.5658 -1.8188 -0.3156
   35MOL0     H 4696   3.704   4.278   0.324 -1.2247  3.5601  2.3182
   35MOL0     H 4697   3.914   4.214   0.474 -1.1523  2.3162 -1.5494
   35MOL0     H 4698   3.865   4.044   0.410  0.9271 -0.6807 -0.0588
   35MOL0     H 4699   3.913   4.301   0.251  1.3519  0.5528 -1.8347
   35MOL0     H 4700   3.839   4.163   0.187 -1.5487 -0.5872  2.7561
   35MOL0     H 4701   4.051   4.027   0.218  1.9515 -0.6087 -2.5277
   35MOL0     H 4702   4.079   4.170   0.121 -0.2248  1.0001  0.8193
   35MOL0     H 4703   4.176   4.134   0.403  2.5417  1.1999  0.7117
   35MOL0     H 4704   4.169   4.300   0.342 -0.6178 -0.5881  0.8371
   35MOL0     H 4705   4.337   4.226   0.158  3.0383 -0.6900  0.7110
   35MOL0     H 4706   4.304   4.064   0.221 -1.5460 -0.6960  1.9320
   35MOL0     H 4707   3.161   3.956   0.356 -1.9960 -0.2380  1.5446
   35MOL0     H 4708   2.919   4.038   0.347  0.5975  0.1914  1.7026
   35MOL0     H 4709   2.645   4.505   0.275  0.5981  0.6298  1.5848
   35MOL0     H 4710   2.407   4.580   0.359  3.2544  1.7686  1.0738
   35MOL0     H 4711   0.570   4.041   0.942  0.1709 -1.7893  1.2568
   35MOL0     H 4712   0.393   3.888   1.017 -4.2828 -1.4840 -0.4023
   35MOL0     H 4713  -0.053   3.782   1.015  1.0025 -0.2574 -1.5867
   35MOL0     H 4714  -0.235   3.669   1.097  2.8923  2.1952 -0.2156
   35MOL0     H 4715  -0.404   3.355   1.188  2.2268 -0.4080  1.4061
   35MOL0     H 4716  -0.333   3.520   1.205  0.4103 -1.3206  1.0829
   35MOL0     H 4717  -0.484   3.628   1.061 -0.6768  0.5389  0.7309
   35MOL0     H 4718  -0.590   3.542   1.166 -1.4486 -1.2353 -1.0573
   35MOL0     H 4719  -0.640   3.373   1.031  2.4891  0.4543  4.8283
   35MOL0     H 4720  -0.509   3.394   0.917  0.9249 -3.1486  3.0515
   35MOL0     H 4721  -0.603   3.620   0.847 -1.9609  0.4762 -2.3194
   35MOL0     H 4722  -0.745   3.598   0.945 -2.4967 -3.5814 -0.6765
   35MOL0     H 4723  -0.780   3.362   0.593 -0.8303  1.5748 -0.3709
   35MOL0     H 4724  -0.120   3.343   0.826  3.2337 -1.4041  2.0297
   35MOL0     H 4725   0.043   3.488   0.735 -1.2772 -0.7064  0.0219
   36MOL0     O 4726   8.296   7.935   1.741 -0.7054  0.1577 -0.3627
   36MOL0     C 4727   8.389   7.854   1.755 -0.8450  1.1056  0.0006
   36MOL0     O 4728   8.403   7.742   1.682 -0.0467 -0.3358  0.0569
   36MOL0     C 4729   8.325   7.729   1.565 -1.1884 -0.0962  0.3263
   36MOL0     C 4730   8.275   7.828   1.481 -0.8685  0.3412  0.2073
   36MOL0     C 4731   8.219   7.799   1.354 -0.6233 -0.7842  0.5784
   36MOL0     C 4732   8.204   7.663   1.322 -0.2390 -0.1699 -0.4118
   36MOL0     O 4733   8.144   7.645   1.204 -0.1920  0.6617  0.2436
   36MOL0     C 4734   8.164   7.514   1.144 -0.7012  0.9064  1.1264
   36MOL0     C 4735   8.086   7.528   1.008  0.8065 -0.2395 -0.2891
   36MOL0     C 4736   7.941   7.497   1.037 -0.5468 -0.2617 -0.0826
   36MOL0     C 4737   7.860   7.438   0.924 -0.4715  0.3780  0.0147
   36MOL0     C 4738   7.712   7.465   0.932 -0.4777 -0.7955 -0.4197
   36MOL0     C 4739   7.639   7.365   1.011 -0.3573  0.1845 -0.8433
   36MOL0     C 4740   7.485   7.375   0.979  0.2170  0.3386  0.6354
   36MOL0     C 4741   7.433   7.507   1.024  1.4907  0.3560  0.8712
   36MOL0     N 4742   7.289   7.494   0.998 -0.8483 -0.1688 -0.0613
   36MOL0     C 4743   7.193   7.469   1.084  0.3587  0.4626 -0.0864
   36MOL0     C 4744   7.074   7.478   1.014 -0.0967 -0.5521  0.3885
   36MOL0     C 4745   6.932   7.455   1.072 -0.6653  0.1007 -0.2610
   36MOL0     C 4746   6.905   7.564   1.178 -0.4726 -0.1996 -0.2838
   36MOL0     C 4747   6.787   7.516   1.268 -0.9229  1.0011  0.4767
   36MOL0     C 4748   6.674   7.475   1.179  0.8719  0.2502  0.0724
   36MOL0     O 4749   6.554   7.437   1.249 -0.4818 -0.3360  0.3747
   36MOL0     C 4750   6.468   7.353   1.181 -0.4655  0.0276 -0.3452
   36MOL0     C 4751   6.520   7.223   1.145 -0.0070 -0.7441 -0.8847
   36MOL0     C 4752   6.425   7.127   1.100  0.3205 -1.2966  0.8531
   36MOL0     C 4753   6.472   6.988   1.089 -0.5920 -0.6627 -0.5534
   36MOL0     C 4754   6.290   7.158   1.075  0.1251  0.1973 -0.5347
   36MOL0     C 4755   6.195   7.059   1.032  0.1814 -0.2034  0.3071
   36MOL0     O 4756   6.066   7.090   1.055  0.2254 -0.2687 -0.0208
   36MOL0     C 4757   5.956   7.046   0.977  0.2750  0.6836 -0.6682
   36MOL0     C 4758   5.956   7.006   0.840 -0.3156  1.0481 -0.2811
   36MOL0     C 4759   5.842   6.957   0.779 -0.5409 -0.0758 -0.4951
   36MOL0     C 4760   5.719   6.976   0.834  0.7211  0.5013 -0.1579
   36MOL0     O 4761   5.616   6.946   0.748 -0.2928  0.7751  0.1861
   36MOL0     C 4762   5.515   6.891   0.825 -0.5948 -0.1901  0.2457
   36MOL0     C 4763   5.415   6.819   0.736  0.2455 -0.0342  0.1554
   36MOL0     C 4764   5.282   6.822   0.821  0.4567 -0.8682 -0.0702
   36MOL0     C 4765   5.293   6.695   0.915  0.8001  0.4915 -0.1225
   36MOL0     C 4766   5.156   6.660   0.992  0.5962 -0.4549 -0.1115
   36MOL0     C 4767   5.030   6.629   0.899  1.2085  0.4559  0.2777
   36MOL0     C 4768   4.913   6.556   0.974  0.0690 -0.4795  0.4907
   36MOL0     C 4769   4.849   6.655   1.083  0.0422 -0.4390  0.7102
   36MOL0    Cl 4770   4.694   6.592   1.142 -0.0904 -0.4035 -0.2256
   36MOL0     C 4771   5.718   7.047   0.964  0.3405  0.9846 -0.3268
   36MOL0     C 4772   5.834   7.071   1.034  0.9959  0.8093  0.3043
   36MOL0     O 4773   6.221   6.978   0.942 -0.2496 -0.0786 -0.2157
   36MOL0     C 4774   6.247   7.292   1.101 -0.3459 -1.1872 -0.3529
   36MOL0     C 4775   6.340   7.386   1.153 -0.4210  0.0464  0.2956
   36MOL0     N 4776   7.093   7.528   0.890 -0.4824  0.9123  0.7372
   36MOL0     N 4777   7.223   7.521   0.882  0.1473 -0.3511  0.1789
   36MOL0     C 4778   8.248   7.562   1.405  0.3826  0.0431  0.2828
   36MOL0     C 4779   8.303   7.598   1.524 -0.4415 -1.3318  0.3733
   36MOL0     C 4780   8.508   7.886   1.834 -0.1473 -0.3716 -1.1608
   36MOL0     C 4781   8.633   7.822   1.806  0.4692  0.9907 -0.3445
   36MOL0     C 4782   8.741   7.846   1.884  0.7647 -0.0667  0.0317
   36MOL0     C 4783   8.740   7.949   1.972 -0.7505 -0.6983  0.0151
   36MOL0     O 4784   8.865   7.970   2.030 -0.3391 -0.4897 -0.1462
   36MOL0     C 4785   8.872   8.069   2.141  0.7188 -0.3563 -0.1371
   36MOL0     C 4786   8.832   8.028   2.280 -0.3121  0.6570 -0.2322
   36MOL0     C 4787   8.840   8.141   2.389 -0.0242 -0.3372  0.6125
   36MOL0     C 4788   8.788   8.081   2.527  0.3924 -0.2097 -0.7881
   36MOL0     C 4789   8.764   8.189   2.614 -0.1888  0.0285 -0.3719
   36MOL0     C 4790   8.748   8.267   2.701  0.5691 -0.5697 -0.1830
   36MOL0     C 4791   8.624   8.031   1.990 -0.8115  0.1768  0.1220
   36MOL0     C 4792   8.507   7.989   1.921  0.1478 -0.0723 -0.0176
   36MOL0     H 4793   8.286   7.935   1.494 -0.0926 -0.0117  3.1298
   36MOL0     H 4794   8.191   7.877   1.284 -0.5327 -0.3611  1.0073
   36MOL0     H 4795   8.265   7.485   1.113 -1.3689 -0.2711 -0.0404
   36MOL0     H 4796   8.122   7.433   1.204  0.8859 -0.3836  0.5534
   36MOL0     H 4797   8.107   7.622   0.956  1.5180 -1.1327 -1.6726
   36MOL0     H 4798   8.118   7.442   0.948 -0.4459 -1.2389  0.4210
   36MOL0     H 4799   7.922   7.434   1.125 -0.4563 -1.6841 -1.0492
   36MOL0     H 4800   7.907   7.594   1.073  1.8104 -0.0253  1.7474
   36MOL0     H 4801   7.884   7.491   0.831 -0.0552 -0.3506 -0.3066
   36MOL0     H 4802   7.899   7.336   0.914  1.2623  1.0940 -1.0411
   36MOL0     H 4803   7.694   7.565   0.974 -1.2602 -1.6398  1.3594
   36MOL0     H 4804   7.667   7.468   0.833 -3.3472  4.4593  0.6580
   36MOL0     H 4805   7.680   7.265   0.993  1.9606  0.2394  2.8583
   36MOL0     H 4806   7.668   7.377   1.116 -1.5801 -0.9459 -0.3445
   36MOL0     H 4807   7.464   7.356   0.874 -0.2103  0.3552  0.7180
   36MOL0     H 4808   7.445   7.296   1.043  2.0961  0.0879  1.5950
   36MOL0     H 4809   7.468   7.586   0.958 -2.3678  0.1469 -1.7701
   36MOL0     H 4810   7.460   7.526   1.129  1.2089  1.8422  0.6912
   36MOL0     H 4811   7.210   7.439   1.187 -2.6309 -1.9370 -0.1335
   36MOL0     H 4812   6.862   7.467   0.989 -0.9053  0.1522 -0.0513
   36MOL0     H 4813   6.944   7.357   1.118  0.3692  0.4194  0.1838
   36MOL0     H 4814   6.876   7.662   1.141 -0.9814  0.2486  1.1998
   36MOL0     H 4815   6.995   7.579   1.238  0.4010 -1.3168 -1.2638
   36MOL0     H 4816   6.753   7.602   1.326 -0.1600  1.3230  0.4613
   36MOL0     H 4817   6.827   7.437   1.332  4.0141  2.2072 -0.6381
   36MOL0     H 4818   6.690   7.401   1.099  4.8688  0.8009  0.1710
   36MOL0     H 4819   6.649   7.565   1.123  3.9567  1.5547  0.5715
   36MOL0     H 4820   6.626   7.201   1.147 -0.2833 -2.3015  2.3385
   36MOL0     H 4821   6.481   6.967   0.982  0.9123  1.3704 -0.8896
   36MOL0     H 4822   6.565   6.964   1.141 -1.6894 -1.2723  1.2060
   36MOL0     H 4823   6.409   6.908   1.130  2.8385 -3.5321 -0.4266
   36MOL0     H 4824   6.047   6.987   0.783 -1.5766 -3.2252 -1.2751
   36MOL0     H 4825   5.861   6.917   0.679 -0.6981 -1.3255 -0.0371
   36MOL0     H 4826   5.545   6.832   0.912  0.5170  1.1799  0.8168
   36MOL0     H 4827   5.480   6.979   0.879  0.2674  0.7263 -0.6490
   36MOL0     H 4828   5.401   6.879   0.646 -1.9267 -1.6257 -0.6804
   36MOL0     H 4829   5.438   6.716   0.704  1.0760  0.9955 -2.9468
   36MOL0     H 4830   5.205   6.801   0.746  0.5748 -0.0839 -0.4195
   36MOL0     H 4831   5.252   6.917   0.866  1.5099  0.7881 -2.6266
   36MOL0     H 4832   5.315   6.607   0.854  0.6279  0.3685 -0.0094
   36MOL0     H 4833   5.369   6.691   0.994 -0.7276 -1.7740  1.3442
   36MOL0     H 4834   5.139   6.756   1.042 -2.9198 -1.1039  0.2472
   36MOL0     H 4835   5.172   6.588   1.073 -0.2948 -0.9456 -0.3581
   36MOL0     H 4836   4.988   6.712   0.841  2.3155  0.0021 -1.2381
   36MOL0     H 4837   5.060   6.560   0.820 -1.6903  0.8241 -1.2930
   36MOL0     H 4838   4.961   6.465   1.011  0.9596 -0.8491 -1.4478
   36MOL0     H 4839   4.830   6.526   0.909 -1.8213 -2.1797  3.4276
   36MOL0     H 4840   4.824   6.746   1.029  2.1166 -0.6055 -0.6529
   36MOL0     H 4841   4.915   6.681   1.167 -0.7714  0.0872  1.1946
   36MOL0     H 4842   5.626   7.058   1.021 -0.5661 -4.3625 -0.2855
   36MOL0     H 4843   5.835   7.103   1.138  3.4170 -1.7369  1.1906
   36MOL0     H 4844   6.146   7.325   1.083  0.0814 -0.0741 -0.8343
   36MOL0     H 4845   6.303   7.482   1.185  2.4632  0.8667  1.5042
   36MOL0     H 4846   8.217   7.459   1.394  2.1666 -0.4517 -0.4214
   36MOL0     H 4847   8.351   7.516   1.576  2.8353  1.0121  1.3978
   36MOL0     H 4848   8.640   7.747   1.728  2.1287 -2.4137  2.8014
   36MOL0     H 4849   8.833   7.791   1.870  1.6746  1.5258 -0.4315
   36MOL0     H 4850   8.978   8.094   2.146  0.2863  1.5824  0.1210
   36MOL0     H 4851   8.826   8.161   2.103 -2.1184 -1.6014  0.0473
   36MOL0     H 4852   8.868   7.930   2.311  0.2546  0.7855 -0.4725
   36MOL0     H 4853   8.724   8.014   2.274 -0.4147  1.1282  0.4070
   36MOL0     H 4854   8.783   8.230   2.362  3.9728  1.8883 -1.4261
   36MOL0     H 4855   8.943   8.173   2.405 -0.0617  0.2028 -0.1686
   36MOL0     H 4856   8.857   8.007   2.569  1.8237  1.9445  0.8363
   36MOL0     H 4857   8.698   8.018   2.523  1.8146 -2.7532  2.1472
   36MOL0     H 4858   8.711   8.346   2.763 -1.3758  0.1772 -2.1453
   36MOL0     H 4859   8.617   8.122   2.049 -2.7407  0.4821 -0.5097
   36MOL0     H 4860   8.415   8.045   1.936 -0.5502 -1.4577  1.1917
   37MOL0     O 4861   4.540   4.473   6.865  0.4181 -0.4054  0.7536
   37MOL0     C 4862   4.447   4.549   6.847  0.1777 -1.0110 -0.4620
   37MOL0     O 4863   4.319   4.524   6.885  0.0024 -0.2485  0.4960
   37MOL0     C 4864   4.285   4.389   6.904 -0.2674  0.4184 -0.1331
   37MOL0     C 4865   4.197   4.364   7.013 -0.2038 -0.0187 -0.6550
   37MOL0     C 4866   4.149   4.229   7.037 -0.3060 -0.0042  1.0155
   37MOL0     C 4867   4.186   4.134   6.936 -0.1478 -0.4681 -0.6371
   37MOL0     O 4868   4.142   3.998   6.951  0.7180 -0.2979 -0.0754
   37MOL0     C 4869   4.243   3.899   6.914 -0.1238  0.0622  0.0158
   37MOL0     C 4870   4.354   3.876   7.022  0.6205  0.1144  0.6660
   37MOL0     C 4871   4.434   3.743   7.011  0.0758 -0.5139 -0.3732
   37MOL0     C 4872   4.529   3.736   6.889  0.9442  0.2684 -0.5814
   37MOL0     C 4873   4.660   3.663   6.916 -0.0656 -0.3847  0.0589
   37MOL0     C 4874   4.646   3.512   6.956 -0.3411  0.5700 -0.2964
   37MOL0     C 4875   4.788   3.461   6.996 -0.0001 -0.0869  0.6329
   37MOL0     C 4876   4.824   3.487   7.140 -0.2303 -0.5057 -0.1632
   37MOL0     N 4877   4.723   3.432   7.238 -0.1026 -1.4314 -0.1332
   37MOL0     C 4878   4.689   3.505   7.342  0.2574 -0.1909  0.7164
   37MOL0     C 4879   4.601   3.429   7.400 -0.5129 -0.4300 -0.3741
   37MOL0     C 4880   4.525   3.471   7.525  0.3352 -0.2727  0.7966
   37MOL0     C 4881   4.614   3.477   7.644  0.6228 -0.0759 -0.4367
   37MOL0     C 4882   4.719   3.373   7.661  0.9099  0.2935  0.7264
   37MOL0     C 4883   4.664   3.221   7.662 -0.0011  0.8271 -0.4795
   37MOL0     O 4884   4.569   3.201   7.762  0.2477  0.4072  0.0735
   37MOL0     C 4885   4.613   3.172   7.888  0.2452 -1.1622 -0.5449
   37MOL0     C 4886   4.513   3.117   7.977 -0.3722 -0.2217  0.1005
   37MOL0     C 4887   4.544   3.089   8.112  0.2693  0.0457  0.1357
   37MOL0     C 4888   4.430   3.031   8.188 -0.3808 -0.2787 -0.6178
   37MOL0     C 4889   4.678   3.108   8.156 -0.1414 -0.2894 -1.1181
   37MOL0     C 4890   4.735   3.077   8.294 -0.0264 -0.5804 -0.9871
   37MOL0     O 4891   4.870   3.106   8.310 -0.6329 -0.6271  0.0380
   37MOL0     C 4892   4.926   3.138   8.435  0.3037  0.2935  0.1730
   37MOL0     C 4893   4.864   3.134   8.563 -0.0406 -0.2539 -0.4926
   37MOL0     C 4894   4.939   3.150   8.678  0.7930  0.5958 -0.0379
   37MOL0     C 4895   5.074   3.174   8.673 -0.2659  0.2458  0.6430
   37MOL0     O 4896   5.145   3.176   8.789  0.3263  0.4459 -0.7457
   37MOL0     C 4897   5.282   3.126   8.785 -0.0049 -0.4004  1.4182
   37MOL0     C 4898   5.334   3.109   8.922 -0.1913 -0.5602 -0.0186
   37MOL0     C 4899   5.348   3.242   9.008 -0.3588 -0.3092 -0.7862
   37MOL0     C 4900   5.365   3.215   9.166  0.0233 -0.5758 -0.2910
   37MOL0     C 4901   5.232   3.185   9.231  0.5797  0.2911 -0.6001
   37MOL0     C 4902   5.242   3.175   9.389 -0.2115  1.0157 -0.7851
   37MOL0     C 4903   5.099   3.107   9.450 -0.0527 -0.0155  0.6496
   37MOL0     C 4904   5.055   2.978   9.394  0.0654 -0.4002 -0.6876
   37MOL0    Cl 4905   5.191   2.863   9.398 -0.0751 -0.0611  0.3845
   37MOL0     C 4906   5.144   3.172   8.551  0.0630 -0.5429  0.0959
   37MOL0     C 4907   5.066   3.159   8.435 -0.8122 -0.0197 -0.4909
   37MOL0     O 4908   4.659   3.035   8.381  0.1686  0.2409  0.0089
   37MOL0     C 4909   4.777   3.152   8.064  0.6280  0.4392  0.4925
   37MOL0     C 4910   4.737   3.197   7.934  0.4143  0.1852 -0.4641
   37MOL0     N 4911   4.592   3.306   7.340  0.5957 -0.2302  0.5795
   37MOL0     N 4912   4.671   3.307   7.242  0.3683  0.2963  1.0944
   37MOL0     C 4913   4.264   4.166   6.824 -0.1335 -0.1465 -1.0931
   37MOL0     C 4914   4.313   4.293   6.812  0.3848 -0.3961 -0.0389
   37MOL0     C 4915   4.492   4.683   6.788  0.9941  0.0607  0.0940
   37MOL0     C 4916   4.397   4.770   6.718  0.0214  0.4184  0.0440
   37MOL0     C 4917   4.441   4.883   6.638  0.6589  0.8746  0.0287
   37MOL0     C 4918   4.578   4.909   6.618  0.3606 -0.2686  0.6802
   37MOL0     O 4919   4.604   5.016   6.527  0.8117  0.1384 -0.5143
   37MOL0     C 4920   4.737   5.044   6.489 -0.5455  0.1029 -0.1970
   37MOL0     C 4921   4.813   4.923   6.424 -0.3128 -0.4872 -0.5854
   37MOL0     C 4922   4.747   4.857   6.304  0.1473 -0.2767  0.1937
   37MOL0     C 4923   4.802   4.715   6.263 -0.0324 -0.5006 -0.1782
   37MOL0     C 4924   4.778   4.616   6.373 -0.1012  1.4073 -0.0454
   37MOL0     C 4925   4.758   4.560   6.484  0.3994 -0.7484  0.6034
   37MOL0     C 4926   4.664   4.829   6.701 -0.2648 -0.8200 -0.4632
   37MOL0     C 4927   4.621   4.723   6.784  0.4114 -0.2235  0.0457
   37MOL0     H 4928   4.179   4.437   7.091  0.4436 -2.4945  2.0234
   37MOL0     H 4929   4.091   4.202   7.125 -1.3323  1.3768  0.7999
   37MOL0     H 4930   4.178   3.812   6.902  0.6643 -0.6963  1.0647
   37MOL0     H 4931   4.284   3.914   6.813  2.2596 -2.1167  0.5552
   37MOL0     H 4932   4.422   3.962   7.021 -0.5652  1.1389 -1.6475
   37MOL0     H 4933   4.292   3.876   7.112  0.0942 -0.2687  0.3129
   37MOL0     H 4934   4.494   3.724   7.101 -1.7973  1.1460  1.3384
   37MOL0     H 4935   4.361   3.661   7.010  0.6926 -1.1869  1.9182
   37MOL0     H 4936   4.497   3.679   6.802  0.8718  0.4709 -0.6874
   37MOL0     H 4937   4.553   3.839   6.860 -0.9339  1.8304  2.7452
   37MOL0     H 4938   4.728   3.668   6.831  1.7067  1.4697  1.4676
   37MOL0     H 4939   4.713   3.722   6.992 -0.1823 -1.3063  0.8709
   37MOL0     H 4940   4.570   3.512   7.034 -0.1339  1.4960 -0.0843
   37MOL0     H 4941   4.601   3.450   6.878 -0.4212 -1.1200  1.0353
   37MOL0     H 4942   4.797   3.355   6.970  2.5309  0.2635 -0.2657
   37MOL0     H 4943   4.863   3.507   6.930 -2.6168  1.8364 -1.1965
   37MOL0     H 4944   4.825   3.595   7.157  3.1439  0.0499 -2.9081
   37MOL0     H 4945   4.926   3.459   7.166 -1.2714 -3.6746  0.9875
   37MOL0     H 4946   4.701   3.607   7.378  0.7818  0.6564 -1.6531
   37MOL0     H 4947   4.477   3.563   7.491 -0.5883 -1.4875 -1.4075
   37MOL0     H 4948   4.442   3.401   7.536 -0.8724  0.4972 -2.2068
   37MOL0     H 4949   4.548   3.473   7.731 -1.8839 -0.9740 -2.2802
   37MOL0     H 4950   4.673   3.569   7.638  0.5603  0.0924  1.0597
   37MOL0     H 4951   4.776   3.383   7.754  0.6138  0.2503  0.9121
   37MOL0     H 4952   4.793   3.383   7.581  0.7580 -0.3478  0.5007
   37MOL0     H 4953   4.735   3.138   7.667 -1.4952 -0.5457 -1.2710
   37MOL0     H 4954   4.619   3.207   7.563  0.9096  0.2974 -0.8321
   37MOL0     H 4955   4.413   3.108   7.937 -2.0157  0.9183  3.5585
   37MOL0     H 4956   4.452   2.927   8.215 -4.6755 -0.6080  2.8372
   37MOL0     H 4957   4.429   3.081   8.285  1.6421  2.0818 -1.6940
   37MOL0     H 4958   4.332   3.027   8.140 -1.0603 -2.5365  0.7990
   37MOL0     H 4959   4.761   3.100   8.572  0.9107 -3.5356 -0.7690
   37MOL0     H 4960   4.903   3.143   8.780 -2.0484 -2.6624 -1.0812
   37MOL0     H 4961   5.288   3.029   8.735 -1.4903  0.4817 -0.6235
   37MOL0     H 4962   5.343   3.205   8.739 -1.2706 -0.5643 -0.6835
   37MOL0     H 4963   5.271   3.036   8.973  2.0169 -0.8222  2.5322
   37MOL0     H 4964   5.436   3.070   8.919  0.2913  0.4422  1.8979
   37MOL0     H 4965   5.268   3.312   8.983  0.6168  0.7039 -1.1342
   37MOL0     H 4966   5.437   3.295   8.974  0.7985 -0.1174  2.1726
   37MOL0     H 4967   5.442   3.141   9.189 -2.2539 -3.6087 -1.7515
   37MOL0     H 4968   5.393   3.312   9.210 -0.8605 -0.0392 -0.8866
   37MOL0     H 4969   5.206   3.088   9.187  2.8185 -0.1187 -1.1448
   37MOL0     H 4970   5.149   3.246   9.195 -0.3266 -1.9620 -2.6230
   37MOL0     H 4971   5.320   3.114   9.435 -1.3213  2.1503  3.0047
   37MOL0     H 4972   5.252   3.274   9.435 -0.3816 -0.2292  2.1270
   37MOL0     H 4973   5.021   3.183   9.436  1.8839  1.9249 -0.2497
   37MOL0     H 4974   5.106   3.102   9.559 -0.7368 -0.5156  0.6734
   37MOL0     H 4975   5.015   2.986   9.293  0.2856  0.5917 -0.7136
   37MOL0     H 4976   4.978   2.938   9.461  0.7563 -0.3368  0.1572
   37MOL0     H 4977   5.252   3.169   8.536  0.0130  3.9811 -4.0516
   37MOL0     H 4978   5.106   3.178   8.336  0.1211  1.5388  0.1407
   37MOL0     H 4979   4.883   3.136   8.078  0.4136 -1.1818  0.4095
   37MOL0     H 4980   4.809   3.230   7.859 -2.1407  2.5069 -2.1041
   37MOL0     H 4981   4.294   4.104   6.741  3.0668  0.2541 -0.4006
   37MOL0     H 4982   4.361   4.303   6.716 -1.3753 -1.4501 -1.0893
   37MOL0     H 4983   4.290   4.755   6.718  0.5542 -5.7097 -0.2883
   37MOL0     H 4984   4.359   4.936   6.590  0.4349  1.0981  0.6499
   37MOL0     H 4985   4.736   5.136   6.430  0.7644  0.1824 -0.1265
   37MOL0     H 4986   4.791   5.085   6.574 -1.1679 -2.2995  1.4667
   37MOL0     H 4987   4.834   4.845   6.499 -2.8827 -0.4651  0.2471
   37MOL0     H 4988   4.909   4.970   6.404  0.1035  0.2976  2.6717
   37MOL0     H 4989   4.759   4.923   6.218 -1.5724 -0.0761  0.0588
   37MOL0     H 4990   4.639   4.843   6.318 -0.0172  2.6402  2.9093
   37MOL0     H 4991   4.906   4.723   6.230  0.3498  0.8853  1.2317
   37MOL0     H 4992   4.735   4.681   6.184 -2.3883 -0.3561  1.6705
   37MOL0     H 4993   4.749   4.548   6.590 -1.1211  2.0032  0.8980
   37MOL0     H 4994   4.770   4.854   6.704 -0.4424 -0.0854  0.1994
   37MOL0     H 4995   4.679   4.659   6.848 -4.4087 -2.5211  2.6376
   38MOL0     O 4996   1.407   0.232   3.300 -0.4713  0.0993  0.2959
   38MOL0     C 4997   1.475   0.179   3.213 -0.0922 -0.4642 -0.0890
   38MOL0     O 4998   1.573   0.082   3.225  0.4001 -0.0584 -0.4942
   38MOL0     C 4999   1.558   0.013   3.339  0.4329 -0.1390 -0.0955
   38MOL0     C 5000   1.653   0.020   3.433 -0.6037  0.8788  0.1118
   38MOL0     C 5001   1.634  -0.047   3.558  0.0651 -0.3699 -0.4957
   38MOL0     C 5002   1.516  -0.121   3.586 -0.0514  0.2203  0.3766
   38MOL0     O 5003   1.483  -0.179   3.708  0.9040  0.3344 -1.0206
   38MOL0     C 5004   1.529  -0.094   3.818 -0.1457 -0.9230 -0.4094
   38MOL0     C 5005   1.660  -0.140   3.881  0.2038 -0.9634  0.1847
   38MOL0     C 5006   1.702  -0.061   4.004 -0.1637  0.5439  0.3867
   38MOL0     C 5007   1.822  -0.130   4.066 -0.1138  0.2881  0.3819
   38MOL0     C 5008   1.850  -0.077   4.214 -0.3846  0.6292  0.0244
   38MOL0     C 5009   1.733  -0.095   4.308  0.3531  0.0125 -0.6815
   38MOL0     C 5010   1.782  -0.047   4.449  1.5390 -0.4394 -0.0698
   38MOL0     C 5011   1.651  -0.024   4.527 -1.0581 -0.5754  0.3173
   38MOL0     N 5012   1.587  -0.154   4.556 -0.7332 -0.3359  0.4907
   38MOL0     C 5013   1.630  -0.258   4.640 -0.5322 -0.0468 -0.1188
   38MOL0     C 5014   1.549  -0.357   4.619  0.5467  0.2305  0.1245
   38MOL0     C 5015   1.560  -0.493   4.676 -0.4066  0.4794 -0.1858
   38MOL0     C 5016   1.460  -0.537   4.777 -0.2552  0.8585 -0.2082
   38MOL0     C 5017   1.303  -0.531   4.732  0.5372 -0.1920  0.2987
   38MOL0     C 5018   1.186  -0.555   4.834  0.8099 -1.1356 -0.6397
   38MOL0     O 5019   1.204  -0.664   4.913  0.0342 -0.5338  0.6558
   38MOL0     C 5020   1.161  -0.657   5.038  0.2460  0.0430 -0.2099
   38MOL0     C 5021   1.234  -0.585   5.135  0.0818  0.4639 -0.5499
   38MOL0     C 5022   1.195  -0.574   5.265 -1.3445 -0.6976 -0.1567
   38MOL0     C 5023   1.298  -0.512   5.353 -0.5523 -0.5475 -0.1881
   38MOL0     C 5024   1.068  -0.630   5.306  0.9341  0.0153  0.5564
   38MOL0     C 5025   1.014  -0.634   5.445 -0.5382  0.8030 -0.1458
   38MOL0     O 5026   1.039  -0.527   5.526 -0.5667 -0.2042  0.4900
   38MOL0     C 5027   0.992  -0.507   5.649 -0.2972  0.1485 -1.1192
   38MOL0     C 5028   0.955  -0.384   5.701 -0.2405 -1.4388 -0.0987
   38MOL0     C 5029   0.931  -0.361   5.839  0.7051 -0.2957  0.5382
   38MOL0     C 5030   0.929  -0.469   5.932  1.2724  0.3787  1.1511
   38MOL0     O 5031   0.875  -0.481   6.061  0.4398  0.6626  0.4222
   38MOL0     C 5032   0.862  -0.362   6.131  0.2005  0.6991 -0.3918
   38MOL0     C 5033   0.989  -0.305   6.184  0.2647 -0.2294 -0.8422
   38MOL0     C 5034   0.951  -0.181   6.257 -0.1932 -0.5598  0.2977
   38MOL0     C 5035   0.922  -0.220   6.412 -0.2717  0.5116 -0.0180
   38MOL0     C 5036   0.853  -0.103   6.479  0.0601 -0.1470 -0.0399
   38MOL0     C 5037   0.868  -0.102   6.632  0.3140 -0.7730 -0.3274
   38MOL0     C 5038   0.798   0.025   6.686  1.1073 -0.8530  0.4140
   38MOL0     C 5039   0.835   0.057   6.833  0.2992  0.0189 -0.1967
   38MOL0    Cl 5040   0.937   0.199   6.834  0.5256  0.4515  0.1003
   38MOL0     C 5041   0.963  -0.602   5.874 -0.6433 -0.6209  0.5473
   38MOL0     C 5042   0.993  -0.618   5.733  0.8451 -0.5419  0.3230
   38MOL0     O 5043   0.948  -0.729   5.466 -1.1376 -0.5055  0.2398
   38MOL0     C 5044   0.988  -0.700   5.210  0.9038 -0.8018 -0.3746
   38MOL0     C 5045   1.038  -0.721   5.080 -0.2455 -0.0779 -0.4314
   38MOL0     N 5046   1.461  -0.325   4.510 -0.5744 -0.9553 -0.4572
   38MOL0     N 5047   1.484  -0.200   4.480 -1.0096  0.2055 -0.2289
   38MOL0     C 5048   1.429  -0.138   3.474 -0.2984 -0.7378  0.0426
   38MOL0     C 5049   1.443  -0.068   3.352  0.6948 -0.3636 -0.3314
   38MOL0     C 5050   1.471   0.245   3.079  0.0554 -0.3503  0.1772
   38MOL0     C 5051   1.584   0.247   2.996 -0.0184  0.3087  0.1428
   38MOL0     C 5052   1.589   0.300   2.869  0.8464  0.4500 -0.0723
   38MOL0     C 5053   1.479   0.394   2.835  0.1358  0.0897  0.5381
   38MOL0     O 5054   1.493   0.457   2.711  0.7402  0.4739 -0.6045
   38MOL0     C 5055   1.372   0.519   2.648 -0.1977  0.1141  0.2950
   38MOL0     C 5056   1.388   0.523   2.498 -0.3764  0.0229 -0.6054
   38MOL0     C 5057   1.414   0.386   2.437 -0.1890  0.4182  0.0264
   38MOL0     C 5058   1.562   0.350   2.415 -0.2520  0.6133  0.1592
   38MOL0     C 5059   1.578   0.214   2.350 -0.6851  0.3954 -0.2609
   38MOL0     C 5060   1.611   0.101   2.326  0.2481  1.0923  0.4459
   38MOL0     C 5061   1.365   0.395   2.918  0.3882 -0.2730  0.3431
   38MOL0     C 5062   1.359   0.316   3.033  0.1612 -0.0720  1.2134
   38MOL0     H 5063   1.741   0.073   3.398 -0.7411  0.4806 -0.8690
   38MOL0     H 5064   1.720  -0.040   3.624  2.5184 -1.5082 -3.3576
   38MOL0     H 5065   1.528   0.015   3.803  1.0733 -1.1000 -1.9002
   38MOL0     H 5066   1.448  -0.103   3.891 -1.6482  0.5410 -1.8216
   38MOL0     H 5067   1.638  -0.245   3.904 -0.3585 -0.9560 -0.2929
   38MOL0     H 5068   1.743  -0.135   3.810 -0.7527 -0.7408 -0.9537
   38MOL0     H 5069   1.719   0.045   3.985 -3.4424  0.9601 -0.9226
   38MOL0     H 5070   1.613  -0.061   4.068 -0.9400 -1.3930 -0.5856
   38MOL0     H 5071   1.809  -0.239   4.066 -1.2469  0.4133  0.5777
   38MOL0     H 5072   1.910  -0.099   4.009 -0.9588 -0.4279 -1.3891
   38MOL0     H 5073   1.938  -0.125   4.257 -1.0015  0.1699  0.8020
   38MOL0     H 5074   1.880   0.027   4.201  1.0389  0.6037  2.5938
   38MOL0     H 5075   1.656  -0.028   4.269 -1.8390 -2.5874 -1.1191
   38MOL0     H 5076   1.683  -0.192   4.300 -0.8515  0.5360  0.1562
   38MOL0     H 5077   1.851  -0.116   4.497 -1.8125 -2.0274  2.9132
   38MOL0     H 5078   1.830   0.051   4.439 -0.1959  0.5830  1.1025
   38MOL0     H 5079   1.582   0.033   4.465 -0.9842  0.1573  0.8997
   38MOL0     H 5080   1.684   0.034   4.614  0.1257  1.2181 -1.2607
   38MOL0     H 5081   1.718  -0.259   4.703 -0.2965 -2.0925 -0.4177
   38MOL0     H 5082   1.533  -0.566   4.598 -0.7103 -0.1921  0.5326
   38MOL0     H 5083   1.662  -0.510   4.711  0.4580  2.7358 -1.4430
   38MOL0     H 5084   1.479  -0.465   4.857  3.0817 -0.3220  0.2340
   38MOL0     H 5085   1.474  -0.632   4.829 -2.8233  0.5206  0.0407
   38MOL0     H 5086   1.289  -0.609   4.657 -2.3400 -0.4242  0.9609
   38MOL0     H 5087   1.285  -0.432   4.689  0.5976  0.0565  0.8341
   38MOL0     H 5088   1.093  -0.571   4.778  0.9890  2.8911 -2.4650
   38MOL0     H 5089   1.166  -0.469   4.899  0.9016 -1.5585 -0.0473
   38MOL0     H 5090   1.323  -0.530   5.106  1.0428 -1.1630 -0.8374
   38MOL0     H 5091   1.287  -0.547   5.456  1.7617 -0.1769  0.2562
   38MOL0     H 5092   1.396  -0.518   5.304 -0.7670  0.1029 -0.7074
   38MOL0     H 5093   1.267  -0.407   5.343  1.9761  0.1320 -1.8282
   38MOL0     H 5094   0.939  -0.299   5.635  1.7822  0.0807  1.2589
   38MOL0     H 5095   0.906  -0.260   5.869  2.5528  0.6126 -0.7488
   38MOL0     H 5096   0.806  -0.282   6.081 -0.0434  1.3823  0.9230
   38MOL0     H 5097   0.795  -0.380   6.215 -0.0744 -2.6863 -1.1771
   38MOL0     H 5098   1.011  -0.383   6.257 -1.3505 -0.1948 -0.2808
   38MOL0     H 5099   1.059  -0.284   6.103 -0.9071  1.5203 -1.4721
   38MOL0     H 5100   0.866  -0.124   6.220  1.4810 -0.1133 -3.3616
   38MOL0     H 5101   1.042  -0.121   6.247  2.2370 -4.2511 -2.3772
   38MOL0     H 5102   0.872  -0.313   6.441  1.1296 -0.2557 -0.0020
   38MOL0     H 5103   1.022  -0.239   6.452  0.8051 -0.5680 -2.9670
   38MOL0     H 5104   0.749  -0.104   6.445  0.3325  0.8293 -0.9642
   38MOL0     H 5105   0.886  -0.005   6.443 -2.6794  1.6784  1.9640
   38MOL0     H 5106   0.816  -0.194   6.659  2.4313 -1.8078  0.4203
   38MOL0     H 5107   0.971  -0.110   6.668 -0.2577  2.4679  2.6363
   38MOL0     H 5108   0.690   0.013   6.682  0.8547  1.2572 -0.7340
   38MOL0     H 5109   0.830   0.108   6.622 -1.3792  0.4024  0.7051
   38MOL0     H 5110   0.892  -0.025   6.877  0.4210 -0.4130 -1.1230
   38MOL0     H 5111   0.754   0.077   6.903  2.9847 -2.4538  4.0313
   38MOL0     H 5112   0.977  -0.676   5.952  0.1491 -0.0949  0.9228
   38MOL0     H 5113   1.013  -0.719   5.698 -2.3867 -2.8190  4.1615
   38MOL0     H 5114   0.889  -0.744   5.220 -0.3402  1.3632 -2.2650
   38MOL0     H 5115   0.984  -0.781   5.007 -1.4465  1.8520 -1.2240
   38MOL0     H 5116   1.343  -0.203   3.486  0.7578 -2.5587 -1.5847
   38MOL0     H 5117   1.367  -0.078   3.275  0.1948 -1.7945  0.3024
   38MOL0     H 5118   1.669   0.186   3.023 -0.4031 -0.5845 -0.6080
   38MOL0     H 5119   1.660   0.279   2.790  0.8395  4.1585 -1.2571
   38MOL0     H 5120   1.277   0.468   2.665 -1.9435  2.5996 -1.3291
   38MOL0     H 5121   1.365   0.622   2.684 -0.2388  0.5239 -0.8631
   38MOL0     H 5122   1.466   0.595   2.470 -1.8371  1.2890 -1.5676
   38MOL0     H 5123   1.296   0.563   2.455 -0.6056 -1.2852 -1.3936
   38MOL0     H 5124   1.375   0.399   2.336 -0.4120  4.3653  0.4431
   38MOL0     H 5125   1.355   0.308   2.485 -1.1946  0.8313 -0.5215
   38MOL0     H 5126   1.620   0.347   2.508  0.6545 -0.3488 -0.4086
   38MOL0     H 5127   1.618   0.411   2.344 -0.2755 -0.8733 -1.2037
   38MOL0     H 5128   1.642   0.002   2.297 -3.3591  0.1350 -0.6447
   38MOL0     H 5129   1.277   0.453   2.894 -0.1290 -1.1772  0.0052
   38MOL0     H 5130   1.264   0.321   3.085 -1.5502 -0.0363 -1.6708
   39MOL0     O 5131   0.452   7.864   8.838  0.7131  0.1378  0.2641
   39MOL0     C 5132   0.372   7.937   8.891 -0.1258  0.0907 -1.1263
   39MOL0     O 5133   0.396   8.064   8.935  0.2282 -0.1757 -0.7367
   39MOL0     C 5134   0.508   8.136   8.918  0.5890  0.8256  0.1446
   39MOL0     C 5135   0.537   8.180   8.786  0.2545 -0.6842  0.0154
   39MOL0     C 5136   0.650   8.258   8.765 -0.8159 -0.9573 -0.0554
   39MOL0     C 5137   0.731   8.302   8.862  0.1130  0.5168 -0.4528
   39MOL0     O 5138   0.840   8.395   8.835 -0.0578  0.1850 -0.3749
   39MOL0     C 5139   0.796   8.532   8.858  0.0368 -0.2629 -0.8401
   39MOL0     C 5140   0.889   8.639   8.809  0.5921  0.7225 -0.6492
   39MOL0     C 5141   0.996   8.667   8.915  0.3731 -0.2291 -0.0222
   39MOL0     C 5142   1.092   8.551   8.942 -0.0264 -0.4317 -0.7293
   39MOL0     C 5143   1.209   8.601   9.030  0.4461 -0.4707 -0.5579
   39MOL0     C 5144   1.287   8.475   9.089  0.1599  0.4266  0.7062
   39MOL0     C 5145   1.373   8.525   9.207 -0.1716 -0.2580  0.5600
   39MOL0     C 5146   1.436   8.396   9.279  0.3740 -0.2437 -0.6505
   39MOL0     N 5147   1.529   8.441   9.387  0.0879  0.2712 -0.4634
   39MOL0     C 5148   1.656   8.494   9.365  0.1287 -0.1612 -0.2631
   39MOL0     C 5149   1.696   8.526   9.490 -0.2356 -0.4365 -0.0377
   39MOL0     C 5150   1.826   8.604   9.520 -0.2832  0.9976 -0.1290
   39MOL0     C 5151   1.797   8.749   9.558 -0.8946  0.4588 -0.3916
   39MOL0     C 5152   1.930   8.832   9.547 -0.0070  0.1791  0.3647
   39MOL0     C 5153   2.017   8.787   9.660 -0.5147 -0.8005  0.7022
   39MOL0     O 5154   1.956   8.807   9.788 -0.3709 -0.3737  0.1355
   39MOL0     C 5155   1.988   8.723   9.889 -0.4300  0.4238 -0.1381
   39MOL0     C 5156   2.078   8.754   9.990  0.4221  0.6187 -1.3190
   39MOL0     C 5157   2.108   8.666  10.100 -0.5069  0.0673 -0.0482
   39MOL0     C 5158   2.192   8.716  10.223 -0.0286 -0.1444  0.0982
   39MOL0     C 5159   2.036   8.538  10.105  0.6701  0.1410 -0.1277
   39MOL0     C 5160   2.052   8.424  10.212 -0.7955 -0.1040 -0.5209
   39MOL0     O 5161   1.959   8.323  10.206 -0.0070 -0.2078 -0.8983
   39MOL0     C 5162   1.858   8.312  10.307 -0.6076 -0.0974  0.2961
   39MOL0     C 5163   1.754   8.218  10.293  0.3456  1.0481  0.4182
   39MOL0     C 5164   1.648   8.200  10.384  0.6652 -1.1225  0.7488
   39MOL0     C 5165   1.625   8.286  10.485  0.0845  0.7566  0.1583
   39MOL0     O 5166   1.519   8.276  10.565 -0.4386 -0.1496  0.2732
   39MOL0     C 5167   1.554   8.251  10.706 -0.5596 -0.4299 -0.0840
   39MOL0     C 5168   1.433   8.286  10.785 -0.2637 -0.1475  0.8902
   39MOL0     C 5169   1.309   8.192  10.759  0.2724  0.1676  0.1859
   39MOL0     C 5170   1.182   8.254  10.806  1.0956 -0.2966  0.3951
   39MOL0     C 5171   1.071   8.169  10.766  0.9460  0.1186  0.5081
   39MOL0     C 5172   0.932   8.226  10.766 -0.0685  0.4916 -0.6002
   39MOL0     C 5173   0.894   8.257  10.620 -0.1603  0.4892  0.9020
   39MOL0     C 5174   0.786   8.365  10.605 -0.4038 -0.4220 -0.5390
   39MOL0    Cl 5175   0.714   8.382  10.436 -0.1156 -0.4341 -0.2137
   39MOL0     C 5176   1.714   8.391  10.492 -0.2576 -0.2773  0.6040
   39MOL0     C 5177   1.832   8.408  10.413 -0.3023 -0.0041  0.4324
   39MOL0     O 5178   2.129   8.443  10.303 -0.1454  0.6560 -0.2348
   39MOL0     C 5179   1.945   8.511  10.002 -0.4822  0.4754 -1.2032
   39MOL0     C 5180   1.921   8.600   9.897 -0.2180  0.7832 -0.2286
   39MOL0     N 5181   1.594   8.500   9.583 -0.9098  0.3691  0.6903
   39MOL0     N 5182   1.492   8.450   9.517  0.5946 -0.4829 -0.7134
   39MOL0     C 5183   0.699   8.264   9.002  0.4221 -0.1534 -0.9033
   39MOL0     C 5184   0.579   8.192   9.025 -0.9988 -0.6736 -0.7305
   39MOL0     C 5185   0.247   7.869   8.939 -0.4846 -0.5365 -0.7271
   39MOL0     C 5186   0.210   7.739   8.888  0.6301  0.0978  0.1129
   39MOL0     C 5187   0.079   7.698   8.903  0.2989 -0.3268  0.3509
   39MOL0     C 5188  -0.013   7.780   8.975  0.0868  0.0607 -0.4618
   39MOL0     O 5189  -0.147   7.747   8.995 -0.1548  0.0762  0.8809
   39MOL0     C 5190  -0.210   7.631   8.937  0.0669  0.9848  1.1316
   39MOL0     C 5191  -0.363   7.636   8.996 -0.1598  0.3355  0.4654
   39MOL0     C 5192  -0.457   7.539   8.926  0.4895 -0.2268  0.5384
   39MOL0     C 5193  -0.483   7.570   8.777  0.6425  1.0934 -0.5124
   39MOL0     C 5194  -0.541   7.707   8.770  1.2483 -0.4401  1.3043
   39MOL0     C 5195  -0.604   7.810   8.746 -1.1831 -0.2324  0.5281
   39MOL0     C 5196   0.028   7.908   9.035  0.7128  0.4198  1.4612
   39MOL0     C 5197   0.154   7.946   9.016 -1.0364 -0.5449  0.3320
   39MOL0     H 5198   0.461   8.158   8.711 -2.0196 -2.0510  2.5710
   39MOL0     H 5199   0.685   8.275   8.663 -2.0778  1.8001 -0.0879
   39MOL0     H 5200   0.701   8.552   8.808 -0.2075  1.2281  0.1411
   39MOL0     H 5201   0.788   8.547   8.966 -0.3609 -0.9031 -0.7819
   39MOL0     H 5202   0.933   8.606   8.714  2.3338 -0.6254  0.5573
   39MOL0     H 5203   0.824   8.726   8.809 -0.4539  0.2350  4.4930
   39MOL0     H 5204   1.051   8.752   8.874 -0.1741  0.3941  0.4939
   39MOL0     H 5205   0.942   8.696   9.005  0.1964  0.3401 -0.3078
   39MOL0     H 5206   1.049   8.464   8.992  2.9387 -1.5584  0.0894
   39MOL0     H 5207   1.128   8.509   8.848 -1.5192  3.2518 -3.1501
   39MOL0     H 5208   1.273   8.671   8.976 -2.5842  1.9963 -1.2131
   39MOL0     H 5209   1.160   8.652   9.113 -2.1720 -3.7906  0.1601
   39MOL0     H 5210   1.217   8.394   9.113  0.4678 -1.6945 -4.2158
   39MOL0     H 5211   1.350   8.435   9.008 -1.1915  0.2339 -0.2843
   39MOL0     H 5212   1.453   8.593   9.175  0.5418 -1.5152 -0.4133
   39MOL0     H 5213   1.310   8.590   9.269 -1.1338 -1.2420  0.6344
   39MOL0     H 5214   1.486   8.337   9.202  4.1146  0.7617  0.7824
   39MOL0     H 5215   1.359   8.330   9.320  0.2752  0.1070 -0.2691
   39MOL0     H 5216   1.709   8.509   9.272  0.6534  0.5706  0.1410
   39MOL0     H 5217   1.889   8.557   9.595 -0.5422  1.6235  0.4890
   39MOL0     H 5218   1.881   8.605   9.426  0.6712  0.2131  0.4062
   39MOL0     H 5219   1.779   8.748   9.666 -1.8059 -2.4895 -0.4928
   39MOL0     H 5220   1.713   8.776   9.494 -0.0623  1.4780 -1.0989
   39MOL0     H 5221   1.906   8.936   9.568 -1.4269 -0.4927  2.5185
   39MOL0     H 5222   1.992   8.809   9.460  2.2805  2.3977  1.2662
   39MOL0     H 5223   2.117   8.832   9.661  0.0395 -1.9668  0.2645
   39MOL0     H 5224   2.050   8.683   9.644 -0.4292 -0.7560  0.5835
   39MOL0     H 5225   2.110   8.857  10.001 -1.2957  1.0141  0.8931
   39MOL0     H 5226   2.246   8.640  10.281  1.2335 -1.0525 -2.1558
   39MOL0     H 5227   2.272   8.779  10.183 -0.1183  0.6718  1.1600
   39MOL0     H 5228   2.116   8.763  10.287 -0.2648  1.1594 -1.0939
   39MOL0     H 5229   1.747   8.153  10.206 -2.7046 -0.1246  1.3855
   39MOL0     H 5230   1.566   8.131  10.367  2.5689 -3.9600  2.2773
   39MOL0     H 5231   1.584   8.147  10.723  0.1433 -0.3055 -0.5142
   39MOL0     H 5232   1.640   8.313  10.733  0.2166 -2.1418  1.6353
   39MOL0     H 5233   1.453   8.277  10.893  1.0537 -2.1373  0.5573
   39MOL0     H 5234   1.408   8.388  10.756 -1.4748 -0.1621  1.8067
   39MOL0     H 5235   1.328   8.095  10.805 -0.5282 -2.5803 -4.5857
   39MOL0     H 5236   1.302   8.177  10.651  1.7204 -0.3135  0.1449
   39MOL0     H 5237   1.174   8.272  10.914 -3.9592  1.2526  0.0280
   39MOL0     H 5238   1.166   8.351  10.758  1.3088 -0.5627 -0.2165
   39MOL0     H 5239   1.062   8.083  10.833 -2.6732 -0.3602 -0.3715
   39MOL0     H 5240   1.090   8.135  10.664 -3.3019 -1.6896  0.0960
   39MOL0     H 5241   0.865   8.149  10.806  0.5228  1.2685  2.0809
   39MOL0     H 5242   0.930   8.314  10.830  0.7165 -1.5071  2.3383
   39MOL0     H 5243   0.871   8.163  10.568 -1.2076  0.4907  1.3510
   39MOL0     H 5244   0.980   8.304  10.571  2.1728 -2.8437  1.3861
   39MOL0     H 5245   0.821   8.459  10.650 -2.3587 -0.3745  0.9945
   39MOL0     H 5246   0.712   8.330  10.676  1.7956 -2.6460  0.8369
   39MOL0     H 5247   1.694   8.461  10.573  0.1875 -1.8021  2.1054
   39MOL0     H 5248   1.903   8.490  10.424  1.8476 -1.4019 -1.9758
   39MOL0     H 5249   1.904   8.412   9.990 -0.4498  0.7131 -3.6241
   39MOL0     H 5250   1.843   8.575   9.825 -0.9984  4.0528 -0.6890
   39MOL0     H 5251   0.760   8.302   9.083 -0.3802  0.3060 -0.5005
   39MOL0     H 5252   0.549   8.180   9.129 -0.6227  4.4286  0.2250
   39MOL0     H 5253   0.288   7.679   8.842  1.2437  1.0595 -0.1454
   39MOL0     H 5254   0.047   7.609   8.850  0.5552  0.4201 -1.1053
   39MOL0     H 5255  -0.208   7.630   8.828 -0.9715 -1.7443  1.0513
   39MOL0     H 5256  -0.160   7.537   8.961 -2.3854 -0.3638  1.3498
   39MOL0     H 5257  -0.398   7.740   8.993 -1.6062 -0.0798  1.5611
   39MOL0     H 5258  -0.357   7.623   9.105  1.5156  2.0355  0.6170
   39MOL0     H 5259  -0.550   7.540   8.982  0.7942  0.7533  1.0625
   39MOL0     H 5260  -0.420   7.436   8.928 -2.9122 -1.5475  1.5208
   39MOL0     H 5261  -0.542   7.488   8.736  0.3129  1.6669 -1.2209
   39MOL0     H 5262  -0.391   7.577   8.718 -0.2356  3.2996 -1.7381
   39MOL0     H 5263  -0.679   7.885   8.730  0.0013  0.8320 -0.1219
   39MOL0     H 5264  -0.038   7.970   9.095  2.8551  3.4056  0.9787
   39MOL0     H 5265   0.192   8.031   9.072 -1.0744 -1.2638  1.4788
   40MOL0     O 5266   5.196   2.454   5.748 -0.0745 -0.0518  0.4522
   40MOL0     C 5267   5.241   2.400   5.851  0.3807  0.6189  0.6665
   40MOL0     O 5268   5.319   2.458   5.937 -0.6840 -0.2662 -0.0071
   40MOL0     C 5269   5.341   2.593   5.943  0.4097  0.0143 -0.5855
   40MOL0     C 5270   5.453   2.636   6.019  0.3458 -0.4300 -0.0511
   40MOL0     C 5271   5.479   2.769   6.060  0.3136 -0.0882  0.3103
   40MOL0     C 5272   5.390   2.870   6.015 -0.6324  0.0485 -0.1710
   40MOL0     O 5273   5.405   3.008   6.023 -0.0081  0.9879  0.4281
   40MOL0     C 5274   5.434   3.052   6.151 -0.8440  0.5671 -0.9194
   40MOL0     C 5275   5.402   3.196   6.182 -0.1682  0.0271  0.4374
   40MOL0     C 5276   5.434   3.236   6.318 -0.4267 -0.5692 -0.8100
   40MOL0     C 5277   5.410   3.381   6.345  0.0007 -0.9664 -0.4860
   40MOL0     C 5278   5.424   3.420   6.495  0.6018 -0.2237  0.1070
   40MOL0     C 5279   5.285   3.449   6.567 -0.5723  0.1908  0.4984
   40MOL0     C 5280   5.318   3.475   6.712  0.2796  0.2673  0.1219
   40MOL0     C 5281   5.179   3.465   6.782  0.1661 -0.5350 -0.7783
   40MOL0     N 5282   5.197   3.520   6.923  0.5043  0.1296  0.5720
   40MOL0     C 5283   5.216   3.651   6.949 -0.1598  0.8115 -0.3590
   40MOL0     C 5284   5.207   3.661   7.081 -0.9651 -0.0700  0.1782
   40MOL0     C 5285   5.222   3.790   7.157 -0.6984 -0.3172 -0.3654
   40MOL0     C 5286   5.342   3.782   7.254 -0.0840  0.7105 -0.4973
   40MOL0     C 5287   5.342   3.918   7.336 -0.3037  0.3118  0.3288
   40MOL0     C 5288   5.482   3.953   7.384 -0.7393  0.6765 -0.1288
   40MOL0     O 5289   5.462   4.066   7.472  0.1642  0.4894  0.2931
   40MOL0     C 5290   5.426   4.042   7.600  1.3775 -0.3256 -0.5304
   40MOL0     C 5291   5.415   3.917   7.657  0.2130  0.4870 -0.6310
   40MOL0     C 5292   5.370   3.886   7.785  0.1454 -0.9256 -0.5112
   40MOL0     C 5293   5.360   3.730   7.825 -0.3936  0.2263  1.1449
   40MOL0     C 5294   5.350   4.004   7.870 -0.7148 -0.6891  0.0695
   40MOL0     C 5295   5.307   3.992   8.016  0.6054  0.5925 -0.7381
   40MOL0     O 5296   5.287   4.111   8.075 -0.4931 -0.0200 -0.7079
   40MOL0     C 5297   5.194   4.122   8.179  0.0415 -0.2977 -0.3856
   40MOL0     C 5298   5.080   4.041   8.216  0.4974 -0.9409 -0.7740
   40MOL0     C 5299   4.992   4.091   8.312 -0.2441 -0.2672  0.7366
   40MOL0     C 5300   5.011   4.218   8.369 -0.4043  0.4895 -0.4068
   40MOL0     O 5301   4.917   4.256   8.464 -0.9619 -0.3256 -0.2113
   40MOL0     C 5302   4.937   4.376   8.545  0.3691 -0.1142 -0.1475
   40MOL0     C 5303   4.792   4.394   8.618  0.1097  0.0169  0.5094
   40MOL0     C 5304   4.811   4.496   8.732  0.6919  0.2477  0.0745
   40MOL0     C 5305   4.846   4.416   8.860 -0.0318 -0.5022  0.0831
   40MOL0     C 5306   4.718   4.352   8.923 -0.5591 -0.1189  0.3451
   40MOL0     C 5307   4.603   4.442   8.979 -0.7287  1.2354  0.5679
   40MOL0     C 5308   4.484   4.341   9.005 -0.1657  0.2111  0.6669
   40MOL0     C 5309   4.339   4.410   9.023  0.0836 -0.0383  0.4548
   40MOL0    Cl 5310   4.213   4.306   8.945 -0.3527 -0.3950 -0.5835
   40MOL0     C 5311   5.124   4.294   8.335  0.1535 -0.6995 -0.1902
   40MOL0     C 5312   5.210   4.243   8.242  0.2306  0.1203  1.5656
   40MOL0     O 5313   5.276   3.878   8.065  0.2140 -0.6630 -0.8492
   40MOL0     C 5314   5.367   4.131   7.812  0.2507 -0.3206 -0.6194
   40MOL0     C 5315   5.409   4.150   7.682 -0.0692  1.4403  0.0439
   40MOL0     N 5316   5.176   3.532   7.135 -0.4247 -0.1644 -0.8039
   40MOL0     N 5317   5.170   3.450   7.034 -0.3320  0.4516 -0.2634
   40MOL0     C 5318   5.280   2.828   5.944 -0.5672  0.2410 -1.0423
   40MOL0     C 5319   5.252   2.689   5.917  0.1183  0.3610 -0.3887
   40MOL0     C 5320   5.220   2.250   5.864 -0.2086 -1.2458 -0.5364
   40MOL0     C 5321   5.273   2.189   5.981 -0.6177  0.7664  1.0806
   40MOL0     C 5322   5.236   2.055   6.007 -0.5094 -0.5172 -0.3312
   40MOL0     C 5323   5.148   1.984   5.918  0.2959  0.0981 -0.5129
   40MOL0     O 5324   5.113   1.856   5.925 -0.2513 -0.5045 -0.0300
   40MOL0     C 5325   5.188   1.765   6.010  0.0725  0.7515 -0.1438
   40MOL0     C 5326   5.152   1.622   5.974 -0.2475  0.3424  0.1948
   40MOL0     C 5327   5.216   1.593   5.834 -0.4563 -0.6072 -0.5945
   40MOL0     C 5328   5.117   1.633   5.715 -0.3641 -0.4606  0.7658
   40MOL0     C 5329   5.165   1.609   5.580 -0.9466  0.7479 -0.0144
   40MOL0     C 5330   5.197   1.562   5.476 -0.5078  0.6621 -0.9384
   40MOL0     C 5331   5.107   2.043   5.805  0.2336 -0.4395 -0.0406
   40MOL0     C 5332   5.136   2.175   5.783  0.8573 -0.4834 -0.2881
   40MOL0     H 5333   5.519   2.556   6.051 -0.5740 -0.5925  1.5537
   40MOL0     H 5334   5.565   2.787   6.123  1.3972 -1.6024 -0.6621
   40MOL0     H 5335   5.386   2.988   6.225  2.3210 -1.8468 -0.7749
   40MOL0     H 5336   5.541   3.037   6.165 -0.4987  1.2125 -2.5654
   40MOL0     H 5337   5.458   3.258   6.111 -3.2659  3.9878  1.0962
   40MOL0     H 5338   5.295   3.213   6.168 -0.4077 -2.7208 -2.2364
   40MOL0     H 5339   5.372   3.167   6.376 -0.5063 -0.8248 -1.1938
   40MOL0     H 5340   5.532   3.209   6.357 -1.4178 -2.0623  0.7668
   40MOL0     H 5341   5.483   3.448   6.298  0.7055 -0.0989  1.7401
   40MOL0     H 5342   5.314   3.400   6.297 -0.3515  1.4115  1.0001
   40MOL0     H 5343   5.466   3.334   6.548 -0.7028 -2.2995 -1.9999
   40MOL0     H 5344   5.483   3.510   6.511 -0.5983  0.4470  0.9417
   40MOL0     H 5345   5.227   3.527   6.516  0.5718 -0.5743 -2.1396
   40MOL0     H 5346   5.226   3.356   6.564 -0.0704 -0.1305  0.4699
   40MOL0     H 5347   5.393   3.405   6.751  2.3337  1.0602 -2.1580
   40MOL0     H 5348   5.357   3.576   6.722  4.1785 -0.5542 -3.6933
   40MOL0     H 5349   5.153   3.363   6.809  1.0787 -0.4704  0.4269
   40MOL0     H 5350   5.103   3.508   6.717  2.2116 -1.1111 -3.7540
   40MOL0     H 5351   5.256   3.723   6.877  1.4386 -1.5362 -1.9538
   40MOL0     H 5352   5.222   3.874   7.086 -1.5761 -0.7873 -0.9307
   40MOL0     H 5353   5.132   3.804   7.217  0.2824  0.0146  1.0932
   40MOL0     H 5354   5.433   3.786   7.193 -1.1333  0.0114 -2.1704
   40MOL0     H 5355   5.342   3.688   7.310 -1.3138  0.1678 -1.3893
   40MOL0     H 5356   5.293   3.889   7.429 -0.6665  1.2313  0.4264
   40MOL0     H 5357   5.286   3.988   7.274 -0.5516  0.0997  0.3115
   40MOL0     H 5358   5.539   3.975   7.293 -0.7926  0.7962 -0.1339
   40MOL0     H 5359   5.532   3.870   7.435 -0.3028  0.9509 -0.0984
   40MOL0     H 5360   5.437   3.826   7.602  0.3807 -0.7365  1.3611
   40MOL0     H 5361   5.256   3.707   7.848 -0.0921 -0.6534  1.6638
   40MOL0     H 5362   5.395   3.667   7.743 -0.6901 -0.3955  1.4985
   40MOL0     H 5363   5.412   3.711   7.919 -1.6321 -2.3955  1.3773
   40MOL0     H 5364   5.054   3.947   8.167  0.1054 -0.4072 -1.6056
   40MOL0     H 5365   4.907   4.025   8.325  0.0544 -0.6956  0.5397
   40MOL0     H 5366   5.017   4.368   8.619 -0.0988  1.3730  0.5509
   40MOL0     H 5367   4.956   4.459   8.475  0.1305 -0.7278 -0.9597
   40MOL0     H 5368   4.729   4.434   8.538  0.2485 -2.7295 -1.0932
   40MOL0     H 5369   4.753   4.296   8.647 -0.0686  0.5475  2.1588
   40MOL0     H 5370   4.717   4.552   8.735  2.3872  3.4476 -1.5867
   40MOL0     H 5371   4.888   4.571   8.712  1.0317 -0.6742 -2.3295
   40MOL0     H 5372   4.927   4.346   8.839  0.9792  1.0141 -1.2882
   40MOL0     H 5373   4.873   4.492   8.933  0.3104 -0.5585  0.0155
   40MOL0     H 5374   4.752   4.283   9.001 -0.9204  0.6451  1.2087
   40MOL0     H 5375   4.671   4.291   8.846 -2.3114  3.2456 -1.4858
   40MOL0     H 5376   4.622   4.498   9.071  0.6134  0.3673  0.8575
   40MOL0     H 5377   4.578   4.515   8.902  0.6381 -1.7394 -3.0533
   40MOL0     H 5378   4.504   4.272   9.088  2.5497 -0.9243 -0.7845
   40MOL0     H 5379   4.480   4.276   8.917 -0.4962 -0.2230  1.0003
   40MOL0     H 5380   4.345   4.505   8.968 -3.1267 -0.1584 -0.2958
   40MOL0     H 5381   4.321   4.421   9.130 -1.1511  3.0087  0.0407
   40MOL0     H 5382   5.148   4.387   8.385  2.6285 -0.2023 -2.1140
   40MOL0     H 5383   5.301   4.293   8.212 -0.3259 -0.3277 -1.0777
   40MOL0     H 5384   5.348   4.221   7.869 -1.7141 -0.7144 -0.6007
   40MOL0     H 5385   5.410   4.250   7.640 -4.2555  3.8943  4.7064
   40MOL0     H 5386   5.214   2.907   5.910 -0.6974  1.3638  1.5794
   40MOL0     H 5387   5.160   2.668   5.865  1.3561 -1.2937 -2.0320
   40MOL0     H 5388   5.335   2.249   6.047 -0.3119  1.0669  0.5276
   40MOL0     H 5389   5.278   2.006   6.094  2.9150 -0.8481 -2.0143
   40MOL0     H 5390   5.292   1.796   5.999 -0.4908  2.3565 -1.3777
   40MOL0     H 5391   5.157   1.773   6.115 -0.1744 -0.0628 -0.1467
   40MOL0     H 5392   5.043   1.621   5.981 -0.5589  2.8836 -2.0849
   40MOL0     H 5393   5.204   1.552   6.039 -0.3938 -1.3153 -1.4023
   40MOL0     H 5394   5.238   1.486   5.840  0.7579 -0.4177 -1.3568
   40MOL0     H 5395   5.312   1.644   5.818 -0.1952 -0.7767  0.3531
   40MOL0     H 5396   5.073   1.733   5.717 -0.9517 -0.7123  0.8642
   40MOL0     H 5397   5.028   1.569   5.715 -0.0179 -1.1371 -2.6267
   40MOL0     H 5398   5.219   1.515   5.382  1.2563 -2.6765  0.9904
   40MOL0     H 5399   5.045   2.000   5.727 -1.2378 -2.4936  2.1323
   40MOL0     H 5400   5.087   2.208   5.691 -0.2826 -2.0683 -0.2981
   41MOL0     O 5401   9.736   2.209   7.649  0.8630 -0.7703  0.2855
   41MOL0     C 5402   9.659   2.248   7.553 -0.5761 -0.9050 -0.2993
   41MOL0     O 5403   9.536   2.314   7.562  0.0333 -0.4799  0.0462
   41MOL0     C 5404   9.491   2.362   7.682 -0.0341  0.2660  0.4684
   41MOL0     C 5405   9.483   2.279   7.792 -0.5962 -0.0859 -0.1179
   41MOL0     C 5406   9.422   2.330   7.915 -1.4184 -0.1311  0.1491
   41MOL0     C 5407   9.373   2.458   7.919 -0.2576  0.9816  0.4781
   41MOL0     O 5408   9.322   2.500   8.040 -0.3148 -0.6571  0.3149
   41MOL0     C 5409   9.274   2.635   8.051 -0.1121  1.0372  0.8495
   41MOL0     C 5410   9.386   2.741   8.082 -0.7924  0.5438  0.0698
   41MOL0     C 5411   9.492   2.764   7.983 -0.0671 -0.2554  0.0033
   41MOL0     C 5412   9.581   2.887   8.014 -0.2453 -0.1996 -0.5656
   41MOL0     C 5413   9.685   2.900   7.913 -0.9106 -1.2560  0.9381
   41MOL0     C 5414   9.759   3.029   7.912  1.6420 -0.3751  0.3182
   41MOL0     C 5415   9.849   3.052   7.784  0.0716  0.2482  0.7134
   41MOL0     C 5416   9.948   3.160   7.791  0.2907  0.5307 -0.3301
   41MOL0     N 5417  10.040   3.151   7.906  0.1832  0.0022 -0.0486
   41MOL0     C 5418  10.164   3.086   7.916 -1.1085  0.9346 -0.0008
   41MOL0     C 5419  10.210   3.115   8.043  0.2577  0.6203 -0.4393
   41MOL0     C 5420  10.344   3.063   8.096 -0.4862  0.1413 -0.1998
   41MOL0     C 5421  10.345   3.043   8.249  0.2520 -0.0125  0.8718
   41MOL0     C 5422  10.482   2.989   8.306  0.6549  0.6088 -0.5711
   41MOL0     C 5423  10.611   3.058   8.240 -0.4175  0.5779 -0.0088
   41MOL0     O 5424  10.731   2.984   8.278  0.6009 -0.1458 -0.4694
   41MOL0     C 5425  10.760   2.863   8.215 -0.5596  0.6217  0.2252
   41MOL0     C 5426  10.685   2.803   8.118  0.4243 -0.1954 -0.2731
   41MOL0     C 5427  10.718   2.674   8.057  0.8176 -0.6714 -0.0899
   41MOL0     C 5428  10.610   2.617   7.958  0.7510 -0.4821  0.4441
   41MOL0     C 5429  10.834   2.605   8.100 -0.3098  0.2069  0.7294
   41MOL0     C 5430  10.850   2.457   8.073 -0.7517  0.7871 -0.2937
   41MOL0     O 5431  10.978   2.412   8.098 -0.3549  0.3965 -0.4266
   41MOL0     C 5432  10.997   2.278   8.100 -0.0098 -1.1849  0.0963
   41MOL0     C 5433  10.972   2.212   7.983  1.0274  0.5146 -0.5567
   41MOL0     C 5434  11.024   2.073   7.977 -0.3926  0.6469  0.9180
   41MOL0     C 5435  11.085   2.005   8.079 -0.3138 -0.0502 -0.1178
   41MOL0     O 5436  11.127   1.872   8.071 -0.3270 -0.6594  0.3747
   41MOL0     C 5437  11.261   1.836   8.116  0.4547 -0.6496 -0.1220
   41MOL0     C 5438  11.249   1.775   8.262  1.0080  0.4832 -0.1294
   41MOL0     C 5439  11.203   1.627   8.264  0.3165  0.3534  0.1834
   41MOL0     C 5440  11.189   1.582   8.400 -0.5308 -0.0832  0.0214
   41MOL0     C 5441  11.106   1.457   8.404  0.2907 -0.3175 -0.9151
   41MOL0     C 5442  11.057   1.432   8.543 -0.2465  0.4477  0.6232
   41MOL0     C 5443  10.970   1.310   8.540 -0.4549  0.2011  0.6878
   41MOL0     C 5444  10.914   1.266   8.675  0.0227 -0.2034 -0.1917
   41MOL0    Cl 5445  10.845   1.407   8.754 -0.3106  0.2449 -0.0358
   41MOL0     C 5446  11.111   2.088   8.189  0.2856 -0.7325  0.5049
   41MOL0     C 5447  11.079   2.219   8.198  0.0927  0.1890  0.1040
   41MOL0     O 5448  10.753   2.390   8.035  0.0108  0.8681  0.0843
   41MOL0     C 5449  10.920   2.673   8.190  0.1702 -0.2392 -0.7343
   41MOL0     C 5450  10.883   2.798   8.243 -0.2626  0.9853  0.1927
   41MOL0     N 5451  10.109   3.190   8.109 -0.5280  0.6522  0.4134
   41MOL0     N 5452  10.006   3.207   8.029  0.0848  0.4597 -0.0729
   41MOL0     C 5453   9.376   2.529   7.792  0.2014 -0.2208 -0.4513
   41MOL0     C 5454   9.440   2.487   7.681  0.6378 -0.0694  1.0071
   41MOL0     C 5455   9.708   2.214   7.422  0.1004 -0.4768  0.4964
   41MOL0     C 5456   9.781   2.096   7.394 -0.7940  0.0705 -0.9517
   41MOL0     C 5457   9.814   2.052   7.269  0.3524 -0.1127  0.0939
   41MOL0     C 5458   9.770   2.121   7.160  0.3368 -1.0938  0.2518
   41MOL0     O 5459   9.807   2.109   7.027  0.1780  0.0676  0.1193
   41MOL0     C 5460   9.864   1.987   6.993 -0.2804 -0.4561  0.1620
   41MOL0     C 5461   9.872   1.973   6.844 -0.2727 -0.5063  0.0579
   41MOL0     C 5462   9.990   2.052   6.776 -0.0320 -1.5585  0.6400
   41MOL0     C 5463   9.987   2.199   6.798 -0.2350  0.0007 -0.1986
   41MOL0     C 5464  10.080   2.267   6.716  0.4995  1.3565  0.5958
   41MOL0     C 5465  10.175   2.308   6.657  0.1172  0.2308  0.5191
   41MOL0     C 5466   9.701   2.246   7.177  1.1816 -0.6810  0.2061
   41MOL0     C 5467   9.659   2.289   7.303 -0.2138  1.0003 -1.2843
   41MOL0     H 5468   9.511   2.174   7.790  1.5803  0.4195 -3.4578
   41MOL0     H 5469   9.422   2.275   8.008 -0.8877 -0.7592 -0.2084
   41MOL0     H 5470   9.208   2.662   7.968 -0.0285 -2.0941 -0.3668
   41MOL0     H 5471   9.206   2.639   8.137 -1.7595  1.3895 -0.4023
   41MOL0     H 5472   9.322   2.827   8.104 -0.0174  0.6796  1.9538
   41MOL0     H 5473   9.441   2.704   8.169  2.3559 -3.3333 -3.2016
   41MOL0     H 5474   9.563   2.681   7.979  0.8798  0.5577 -0.4669
   41MOL0     H 5475   9.455   2.794   7.884  2.2827 -0.7017 -1.0885
   41MOL0     H 5476   9.507   2.967   8.002  0.0105 -0.1758 -2.2119
   41MOL0     H 5477   9.618   2.891   8.117 -1.6138  1.8392 -0.0775
   41MOL0     H 5478   9.755   2.820   7.940  0.6637 -0.4504 -0.4835
   41MOL0     H 5479   9.646   2.895   7.811  3.6080  0.9047 -1.1978
   41MOL0     H 5480   9.678   3.102   7.924  2.4652  0.6368 -0.1177
   41MOL0     H 5481   9.830   3.028   7.995 -0.6498 -1.5248  2.3849
   41MOL0     H 5482   9.904   2.961   7.759  2.1964  1.6995 -0.2759
   41MOL0     H 5483   9.784   3.067   7.698 -0.3739 -1.5053  0.7138
   41MOL0     H 5484   9.887   3.251   7.784 -3.4560 -1.8050 -0.9318
   41MOL0     H 5485  10.009   3.162   7.700 -1.0552  0.4022 -1.2594
   41MOL0     H 5486  10.224   3.035   7.842  0.0350  1.1744  0.7377
   41MOL0     H 5487  10.361   2.962   8.058 -1.2915  0.2536 -0.9148
   41MOL0     H 5488  10.422   3.127   8.053  0.3360 -0.7162 -0.0091
   41MOL0     H 5489  10.260   2.979   8.274  2.8675 -4.1871  0.0948
   41MOL0     H 5490  10.328   3.141   8.294  2.3445  0.6234  0.4013
   41MOL0     H 5491  10.484   2.881   8.288  2.0988  0.7325 -1.3552
   41MOL0     H 5492  10.477   2.996   8.415  1.3740  0.5610 -0.5287
   41MOL0     H 5493  10.608   3.162   8.275 -3.2457  0.1349  1.3495
   41MOL0     H 5494  10.612   3.070   8.131 -0.5990  1.4292  0.0745
   41MOL0     H 5495  10.597   2.853   8.080 -1.3486 -3.0493 -0.2110
   41MOL0     H 5496  10.650   2.551   7.881 -0.4512  0.0566 -0.6860
   41MOL0     H 5497  10.529   2.562   8.007 -0.3364 -2.9814 -3.6762
   41MOL0     H 5498  10.576   2.705   7.901  2.4188 -1.2767 -1.9206
   41MOL0     H 5499  10.933   2.256   7.892 -1.8737  1.3875  0.9526
   41MOL0     H 5500  11.007   2.021   7.883 -0.2390 -0.1641  1.3282
   41MOL0     H 5501  11.307   1.773   8.040  2.2343  1.3748 -0.8407
   41MOL0     H 5502  11.316   1.930   8.128  0.3758 -0.9013  3.0833
   41MOL0     H 5503  11.348   1.775   8.309  2.6151 -1.6425 -3.1365
   41MOL0     H 5504  11.175   1.826   8.324 -0.1379 -2.5961  1.2020
   41MOL0     H 5505  11.279   1.564   8.216  2.7275  2.0416  1.5431
   41MOL0     H 5506  11.104   1.624   8.217 -0.2191  1.2730  1.2118
   41MOL0     H 5507  11.286   1.563   8.448 -1.3131  1.5636  2.4878
   41MOL0     H 5508  11.136   1.655   8.463 -0.7241 -1.3641  1.3980
   41MOL0     H 5509  11.167   1.369   8.379 -0.0418 -1.2573  1.3352
   41MOL0     H 5510  11.021   1.467   8.337 -2.4230 -0.6221  2.2260
   41MOL0     H 5511  11.146   1.417   8.605  0.1369 -0.8776 -0.2005
   41MOL0     H 5512  11.007   1.520   8.586  0.9417  1.3826  0.1437
   41MOL0     H 5513  11.024   1.226   8.495 -1.7342  0.0171 -0.5603
   41MOL0     H 5514  10.886   1.325   8.472  0.3021 -1.4328 -0.6878
   41MOL0     H 5515  10.995   1.224   8.736  0.5952 -0.4586 -1.1069
   41MOL0     H 5516  10.840   1.189   8.651 -0.5504  0.2641  0.0741
   41MOL0     H 5517  11.175   2.051   8.268  0.7595 -1.1799 -0.0801
   41MOL0     H 5518  11.113   2.286   8.277 -0.9370  1.6830 -0.6748
   41MOL0     H 5519  11.014   2.630   8.220 -0.6895 -2.3443 -0.8779
   41MOL0     H 5520  10.947   2.842   8.318  2.2773  1.8879 -2.3233
   41MOL0     H 5521   9.327   2.626   7.782 -1.8241 -1.4039 -3.2994
   41MOL0     H 5522   9.452   2.550   7.593  3.0194  1.2145  2.1600
   41MOL0     H 5523   9.812   2.039   7.480 -2.2387 -2.4956 -2.0202
   41MOL0     H 5524   9.886   1.971   7.267 -0.4324 -0.8591 -2.1438
   41MOL0     H 5525   9.967   1.987   7.030 -0.3872 -0.8743  0.4581
   41MOL0     H 5526   9.804   1.904   7.032 -3.4346  0.7484 -1.7211
   41MOL0     H 5527   9.778   2.008   6.801  0.3436  1.6465  0.3464
   41MOL0     H 5528   9.886   1.867   6.818 -0.8578 -0.5899  0.0782
   41MOL0     H 5529   9.997   2.022   6.670 -3.4366 -1.0729  0.1659
   41MOL0     H 5530  10.088   2.017   6.808  0.5398 -0.4438  0.1388
   41MOL0     H 5531  10.005   2.218   6.905  1.2429 -1.8863 -0.0668
   41MOL0     H 5532   9.894   2.247   6.766  1.2197  1.7696 -2.0094
   41MOL0     H 5533  10.251   2.348   6.593 -0.3212  0.4711  0.1373
   41MOL0     H 5534   9.664   2.307   7.095  0.2174 -0.9501  0.4361
   41MOL0     H 5535   9.599   2.378   7.318 -1.0028  0.2918 -0.0545
   42MOL0     O 5536   3.183   2.472   5.191 -0.2175  0.6016 -0.9274
   42MOL0     C 5537   3.142   2.541   5.281  0.4720 -0.6308  0.2546
   42MOL0     O 5538   3.130   2.498   5.411  0.4521  0.4744  0.0706
   42MOL0     C 5539   3.186   2.377   5.441 -0.6421  0.0580  0.3626
   42MOL0     C 5540   3.132   2.249   5.413  0.4473 -0.3611 -0.1318
   42MOL0     C 5541   3.198   2.126   5.455  0.3337  0.2733  0.0037
   42MOL0     C 5542   3.321   2.131   5.513  0.1199  0.3786 -0.3313
   42MOL0     O 5543   3.408   2.021   5.545  0.5637 -0.0701  0.2426
   42MOL0     C 5544   3.364   1.880   5.539 -0.0008  0.1271  0.7435
   42MOL0     C 5545   3.477   1.794   5.602 -0.0923 -0.3086  0.0849
   42MOL0     C 5546   3.490   1.826   5.752  0.8844  1.4942  0.8546
   42MOL0     C 5547   3.602   1.749   5.808 -0.9132 -0.0172 -0.3892
   42MOL0     C 5548   3.572   1.599   5.812  0.2286  0.2736  0.8543
   42MOL0     C 5549   3.692   1.529   5.884 -0.3240 -0.5612  0.0495
   42MOL0     C 5550   3.665   1.380   5.878 -0.2270 -0.2275 -1.2648
   42MOL0     C 5551   3.755   1.285   5.960 -0.0113  0.3880  1.1348
   42MOL0     N 5552   3.814   1.334   6.083  0.1296 -0.3064  0.6811
   42MOL0     C 5553   3.748   1.362   6.198  0.2331  1.8585 -1.4620
   42MOL0     C 5554   3.849   1.431   6.271 -0.1892  0.5657 -0.1083
   42MOL0     C 5555   3.849   1.488   6.414 -0.7191 -0.1093 -0.2245
   42MOL0     C 5556   3.767   1.620   6.429  0.4145 -0.3715  0.7046
   42MOL0     C 5557   3.816   1.714   6.548  0.2458  0.3298  0.5361
   42MOL0     C 5558   3.778   1.657   6.678  0.3914 -0.0700 -1.0581
   42MOL0     O 5559   3.880   1.561   6.708  0.6902  0.1534  0.2642
   42MOL0     C 5560   3.865   1.472   6.809 -0.4875 -0.5222 -0.8103
   42MOL0     C 5561   3.753   1.481   6.894  1.1288  0.7588 -0.0855
   42MOL0     C 5562   3.733   1.392   7.001  0.0523  0.7382 -0.5268
   42MOL0     C 5563   3.609   1.396   7.086 -0.5616  0.6019 -0.8285
   42MOL0     C 5564   3.823   1.273   7.011  0.5799  0.1288 -0.9493
   42MOL0     C 5565   3.800   1.160   7.110  0.6759  0.4555  0.2122
   42MOL0     O 5566   3.850   1.034   7.091  0.7961 -0.0755 -0.6484
   42MOL0     C 5567   3.811   0.922   7.167 -0.2832  0.1053  0.2461
   42MOL0     C 5568   3.910   0.840   7.226 -0.4707  0.2358 -0.1577
   42MOL0     C 5569   3.863   0.725   7.302  0.6212 -0.4841 -0.4395
   42MOL0     C 5570   3.724   0.690   7.309  1.0513  0.3274 -0.2860
   42MOL0     O 5571   3.679   0.575   7.374 -0.2199  0.8431  0.6788
   42MOL0     C 5572   3.777   0.479   7.426 -0.3146  0.1982  0.0839
   42MOL0     C 5573   3.714   0.348   7.470 -0.3503  0.0415  0.0403
   42MOL0     C 5574   3.788   0.221   7.433 -0.0930 -0.6841 -0.6221
   42MOL0     C 5575   3.749   0.094   7.514  0.1620 -0.3306 -0.5291
   42MOL0     C 5576   3.834  -0.023   7.457 -0.3251  0.8180 -0.7045
   42MOL0     C 5577   3.863  -0.121   7.566 -0.4721 -0.8348 -0.3054
   42MOL0     C 5578   3.743  -0.193   7.622  0.3528  0.3102  1.0386
   42MOL0     C 5579   3.689  -0.283   7.509 -0.2353 -0.2357 -0.6437
   42MOL0    Cl 5580   3.568  -0.388   7.598  0.0733  0.4170 -0.2944
   42MOL0     C 5581   3.635   0.773   7.241  0.1473 -0.7587  0.0711
   42MOL0     C 5582   3.674   0.887   7.178 -0.3946 -0.2742  0.8104
   42MOL0     O 5583   3.746   1.194   7.213  0.2506  0.2031 -0.2104
   42MOL0     C 5584   3.923   1.266   6.919 -0.2710  0.2899  0.6309
   42MOL0     C 5585   3.950   1.364   6.826 -0.6808 -0.5846 -0.4040
   42MOL0     N 5586   3.960   1.431   6.191  0.2300 -0.4964 -0.1922
   42MOL0     N 5587   3.943   1.374   6.079  0.1151 -0.4844  0.0781
   42MOL0     C 5588   3.373   2.259   5.547 -0.9450 -0.2218 -0.9364
   42MOL0     C 5589   3.305   2.374   5.515  0.7598 -0.1446 -0.9981
   42MOL0     C 5590   3.092   2.674   5.249  0.1135 -0.6934  0.2845
   42MOL0     C 5591   3.066   2.710   5.116  0.0293 -0.4271  0.8129
   42MOL0     C 5592   3.038   2.837   5.084  0.7506  0.7530 -0.5459
   42MOL0     C 5593   3.030   2.932   5.184  0.2826  0.0028 -0.2588
   42MOL0     O 5594   3.015   3.065   5.138 -0.2072  0.0563 -0.2705
   42MOL0     C 5595   2.989   3.165   5.238  0.1546 -0.2982 -0.1135
   42MOL0     C 5596   2.947   3.304   5.174  0.4651 -0.0038 -0.7554
   42MOL0     C 5597   2.807   3.291   5.105  0.6675  0.2784  1.0967
   42MOL0     C 5598   2.755   3.433   5.055 -0.3448 -0.4062 -0.8877
   42MOL0     C 5599   2.747   3.528   5.166 -0.0058 -0.2589 -0.5759
   42MOL0     C 5600   2.772   3.598   5.263  0.2175 -0.9694 -0.2225
   42MOL0     C 5601   3.041   2.892   5.321  0.3328 -0.4144  0.2454
   42MOL0     C 5602   3.066   2.762   5.353  0.1881 -0.4159  0.5797
   42MOL0     H 5603   3.041   2.226   5.358 -1.1833 -1.6131  2.8495
   42MOL0     H 5604   3.153   2.029   5.436  0.0685  0.1284  1.3319
   42MOL0     H 5605   3.270   1.862   5.592  1.6383 -1.0267  3.5103
   42MOL0     H 5606   3.356   1.855   5.433  0.5841  3.6452 -0.2760
   42MOL0     H 5607   3.454   1.687   5.595  3.9609 -1.4531  1.3952
   42MOL0     H 5608   3.567   1.823   5.547  1.7220 -0.5820  2.6993
   42MOL0     H 5609   3.521   1.929   5.772  2.1075  1.2588  0.2951
   42MOL0     H 5610   3.401   1.824   5.815  1.8814  2.1543  2.3519
   42MOL0     H 5611   3.696   1.746   5.753 -0.3408 -4.0745  0.4659
   42MOL0     H 5612   3.616   1.795   5.907  2.1050  1.2018 -1.2669
   42MOL0     H 5613   3.480   1.575   5.864  0.2497 -1.9440 -0.0575
   42MOL0     H 5614   3.565   1.551   5.714 -2.0599  1.1408  0.5397
   42MOL0     H 5615   3.791   1.549   5.841 -0.7103  0.3082 -0.4461
   42MOL0     H 5616   3.690   1.557   5.990 -1.7264 -2.8233  0.6814
   42MOL0     H 5617   3.568   1.378   5.930 -1.5366 -1.1034 -3.5773
   42MOL0     H 5618   3.651   1.346   5.775 -0.6225  0.1813 -1.3516
   42MOL0     H 5619   3.828   1.256   5.884 -2.6688 -2.5525 -0.5162
   42MOL0     H 5620   3.705   1.191   5.987  0.1025 -0.6139 -1.8026
   42MOL0     H 5621   3.647   1.336   6.230  1.8193 -2.7374  0.6471
   42MOL0     H 5622   3.822   1.412   6.488  0.2499 -0.6082 -0.3560
   42MOL0     H 5623   3.952   1.514   6.442 -0.0710  0.5530 -2.9223
   42MOL0     H 5624   3.660   1.599   6.439  0.5527 -0.6216  1.8136
   42MOL0     H 5625   3.771   1.668   6.331 -1.7721  0.2488  0.8618
   42MOL0     H 5626   3.764   1.810   6.543  0.7080  0.7187  2.3593
   42MOL0     H 5627   3.922   1.738   6.537  0.1122 -0.0390 -2.3859
   42MOL0     H 5628   3.681   1.612   6.659 -0.1216  1.3014 -1.8021
   42MOL0     H 5629   3.768   1.721   6.766  2.5909  0.2953 -0.9956
   42MOL0     H 5630   3.681   1.562   6.887 -0.1085 -0.2476  0.6346
   42MOL0     H 5631   3.528   1.450   7.037 -1.3774  0.2474  0.1016
   42MOL0     H 5632   3.561   1.298   7.096 -1.8284  0.9716 -2.7782
   42MOL0     H 5633   3.610   1.443   7.185  1.8195  0.5733 -0.7900
   42MOL0     H 5634   4.015   0.864   7.213 -0.6595  0.4612 -1.3481
   42MOL0     H 5635   3.944   0.666   7.344  2.2170  0.0200 -2.5934
   42MOL0     H 5636   3.838   0.457   7.338 -2.3377 -4.1058 -0.4942
   42MOL0     H 5637   3.830   0.525   7.510  1.4752 -4.4883  1.8497
   42MOL0     H 5638   3.708   0.355   7.579  0.1380 -1.1798  0.1583
   42MOL0     H 5639   3.614   0.342   7.424  0.0081 -2.6653 -0.5442
   42MOL0     H 5640   3.893   0.232   7.463 -0.5457 -1.4600  1.3952
   42MOL0     H 5641   3.786   0.205   7.325  1.6266 -2.8321 -0.4073
   42MOL0     H 5642   3.773   0.100   7.621 -0.8032  0.9850 -0.3663
   42MOL0     H 5643   3.645   0.066   7.495  0.6554 -1.5414 -1.5743
   42MOL0     H 5644   3.932   0.016   7.425  0.4455 -3.0719 -3.9571
   42MOL0     H 5645   3.803  -0.074   7.366  3.4195 -3.0546 -0.1290
   42MOL0     H 5646   3.942  -0.195   7.549  0.9332  0.0449  1.9182
   42MOL0     H 5647   3.906  -0.059   7.646 -0.2996 -0.0904 -0.9680
   42MOL0     H 5648   3.667  -0.123   7.658 -0.1340  1.3252 -1.6858
   42MOL0     H 5649   3.790  -0.248   7.704 -0.3964  0.6460  1.7071
   42MOL0     H 5650   3.780  -0.338   7.486 -0.2905 -0.7844  0.3925
   42MOL0     H 5651   3.638  -0.220   7.435 -1.5881  3.7242  3.2372
   42MOL0     H 5652   3.529   0.749   7.245  0.4350 -1.8852  3.6149
   42MOL0     H 5653   3.598   0.947   7.129 -0.4844  0.1870  1.4971
   42MOL0     H 5654   3.991   1.182   6.910 -0.0974  0.2017  2.4440
   42MOL0     H 5655   4.034   1.372   6.757  0.2142  0.0648  0.7407
   42MOL0     H 5656   3.471   2.253   5.593 -0.2478  0.1457 -2.3117
   42MOL0     H 5657   3.341   2.471   5.547 -3.0509  1.5081 -1.1291
   42MOL0     H 5658   3.070   2.635   5.038 -1.2045 -0.1845  0.4932
   42MOL0     H 5659   3.017   2.870   4.983 -2.1782  0.6256 -0.0817
   42MOL0     H 5660   2.917   3.130   5.312  0.4967  1.3314  1.0463
   42MOL0     H 5661   3.087   3.183   5.284  0.5912  0.2489 -1.2124
   42MOL0     H 5662   3.018   3.343   5.100 -0.1340  4.0575  0.5609
   42MOL0     H 5663   2.934   3.377   5.255 -0.7431  2.9834 -3.4117
   42MOL0     H 5664   2.730   3.246   5.168 -1.8300 -1.1136 -2.6125
   42MOL0     H 5665   2.818   3.221   5.022  0.4672 -0.2933  1.5453
   42MOL0     H 5666   2.651   3.412   5.028 -2.1803  1.2563  3.8457
   42MOL0     H 5667   2.811   3.470   4.968  1.5722  0.1023  0.5062
   42MOL0     H 5668   2.792   3.661   5.347  3.1491 -1.9977 -0.0396
   42MOL0     H 5669   3.024   2.967   5.397  2.0475  1.6436 -1.2718
   42MOL0     H 5670   3.068   2.727   5.456 -0.1928 -2.2183  0.0110
   43MOL0     O 5671   8.865  10.707   1.789 -0.1791  0.2170 -0.7459
   43MOL0     C 5672   8.935  10.601   1.792  0.0759  1.0084 -0.9855
   43MOL0     O 5673   8.894  10.474   1.791  1.0840  0.5465 -0.2444
   43MOL0     C 5674   8.763  10.445   1.770  0.1372  0.2629  0.4494
   43MOL0     C 5675   8.641  10.523   1.788 -0.5722 -0.6649 -0.4270
   43MOL0     C 5676   8.512  10.475   1.762  0.2416 -0.1792  0.1490
   43MOL0     C 5677   8.495  10.348   1.707  0.5652 -0.3411  0.0519
   43MOL0     O 5678   8.368  10.308   1.676  0.2429  0.1908 -0.0486
   43MOL0     C 5679   8.355  10.171   1.619  0.4711 -0.4903 -0.5272
   43MOL0     C 5680   8.205  10.143   1.584 -0.0084 -0.3101  0.7159
   43MOL0     C 5681   8.151  10.249   1.479  0.4108 -0.1183 -0.9326
   43MOL0     C 5682   8.235  10.254   1.343  0.3356 -0.6217 -0.2229
   43MOL0     C 5683   8.182  10.370   1.254 -0.0258  0.8886  0.8306
   43MOL0     C 5684   8.246  10.356   1.124 -0.1181 -0.5753 -0.4005
   43MOL0     C 5685   8.192  10.460   1.030 -0.1286 -0.6652 -0.4473
   43MOL0     C 5686   8.199  10.414   0.891 -0.5072 -0.0705  0.2231
   43MOL0     N 5687   8.328  10.453   0.829  0.2296 -0.1442  0.0543
   43MOL0     C 5688   8.449  10.392   0.860 -0.2556 -0.0840 -1.0367
   43MOL0     C 5689   8.552  10.458   0.799  0.4624 -0.0444 -0.6129
   43MOL0     C 5690   8.693  10.414   0.814 -0.2951  0.7928 -0.3663
   43MOL0     C 5691   8.769  10.405   0.678 -0.5712  0.3591 -1.1733
   43MOL0     C 5692   8.903  10.321   0.671  0.1948  0.2816 -1.4157
   43MOL0     C 5693   8.866  10.178   0.650  0.3742  0.5902 -0.3762
   43MOL0     O 5694   8.977  10.093   0.656 -0.1807 -0.1363  0.3325
   43MOL0     C 5695   9.050  10.066   0.548 -0.9291  0.2099 -0.4909
   43MOL0     C 5696   9.119   9.944   0.548  0.0226  0.4110 -0.0244
   43MOL0     C 5697   9.200   9.900   0.443 -0.3260  0.8122  0.5937
   43MOL0     C 5698   9.240   9.756   0.463 -0.6287  0.2373 -0.2222
   43MOL0     C 5699   9.226   9.988   0.335  0.0975  0.3841 -0.8204
   43MOL0     C 5700   9.311   9.964   0.214  1.3848  0.1481  0.6712
   43MOL0     O 5701   9.390   9.853   0.206 -0.1133  1.2763 -0.5992
   43MOL0     C 5702   9.472   9.848   0.101  0.7495  0.0380 -0.7489
   43MOL0     C 5703   9.603   9.820   0.126  0.8842  0.4103  0.2594
   43MOL0     C 5704   9.688   9.769   0.030  0.5119 -0.2430  1.0121
   43MOL0     C 5705   9.635   9.758  -0.096 -0.0270  0.2956  0.4290
   43MOL0     O 5706   9.721   9.708  -0.190 -0.0633 -0.0115  0.1684
   43MOL0     C 5707   9.705   9.745  -0.329  0.6202  0.1157  0.4075
   43MOL0     C 5708   9.834   9.791  -0.394 -0.3213 -0.2221 -0.3260
   43MOL0     C 5709   9.893   9.927  -0.326  0.0017  0.9759  0.2305
   43MOL0     C 5710  10.016   9.990  -0.392  0.7496 -0.4695 -0.1482
   43MOL0     C 5711  10.006   9.989  -0.553 -0.0074  0.4449  0.2654
   43MOL0     C 5712  10.127  10.039  -0.626  0.0539  0.0114 -0.9678
   43MOL0     C 5713  10.177  10.183  -0.600 -0.0190  0.2353  0.8644
   43MOL0     C 5714  10.067  10.296  -0.634  1.1882 -0.0400 -0.3079
   43MOL0    Cl 5715  10.024  10.277  -0.802  0.1880 -0.4515  0.1388
   43MOL0     C 5716   9.505   9.790  -0.125  0.1375  0.7909 -0.6545
   43MOL0     C 5717   9.424   9.836  -0.022 -0.1908 -0.1414 -0.0083
   43MOL0     O 5718   9.299  10.043   0.124  0.2414  0.1956 -0.2951
   43MOL0     C 5719   9.146  10.111   0.333  0.4593  0.1659  0.2435
   43MOL0     C 5720   9.064  10.143   0.434 -0.5276 -1.1513  0.3100
   43MOL0     N 5721   8.492  10.562   0.725 -0.5184 -0.1885  0.1212
   43MOL0     N 5722   8.365  10.554   0.753  0.6491 -0.3518  0.1347
   43MOL0     C 5723   8.608  10.264   1.699  0.3639 -0.5943  0.9631
   43MOL0     C 5724   8.737  10.315   1.716 -1.0106 -0.5438 -0.7016
   43MOL0     C 5725   9.082  10.631   1.806  0.6301  0.0946  0.5899
   43MOL0     C 5726   9.115  10.767   1.832 -0.0542 -0.2997  1.3112
   43MOL0     C 5727   9.246  10.795   1.856 -0.6051 -0.0101 -0.6463
   43MOL0     C 5728   9.341  10.688   1.859  0.1972 -1.2070  0.0215
   43MOL0     O 5729   9.469  10.738   1.885 -0.0351  0.0291 -0.4488
   43MOL0     C 5730   9.577  10.644   1.866 -0.6430  0.5112  0.3098
   43MOL0     C 5731   9.710  10.714   1.913  0.9081  0.7286 -0.3653
   43MOL0     C 5732   9.829  10.647   1.846 -0.9079  0.4608  0.8496
   43MOL0     C 5733   9.978  10.712   1.854 -0.1206 -0.0552  0.6200
   43MOL0     C 5734  10.072  10.607   1.805 -0.7587 -0.1247  0.0462
   43MOL0     C 5735  10.144  10.516   1.769  0.5019  2.0065 -0.6466
   43MOL0     C 5736   9.307  10.556   1.833 -0.1047  0.4661  0.6346
   43MOL0     C 5737   9.171  10.526   1.801  0.8698 -0.3736 -0.9206
   43MOL0     H 5738   8.652  10.625   1.821  0.3484  0.0567 -2.7403
   43MOL0     H 5739   8.423  10.535   1.780  0.5533  0.4040 -0.2151
   43MOL0     H 5740   8.409  10.154   1.526  0.7714  0.6213 -0.5701
   43MOL0     H 5741   8.388  10.093   1.688  2.6871 -0.2181 -1.2077
   43MOL0     H 5742   8.184  10.040   1.554  1.5906 -0.3858 -0.2614
   43MOL0     H 5743   8.152  10.165   1.677  2.4977 -0.2290  2.2369
   43MOL0     H 5744   8.050  10.224   1.448 -0.1748  1.5894 -0.5482
   43MOL0     H 5745   8.140  10.348   1.525 -3.7789 -1.0121  0.4143
   43MOL0     H 5746   8.344  10.255   1.351  0.4377 -0.7590 -1.4321
   43MOL0     H 5747   8.205  10.159   1.298 -1.5322 -0.5950  0.8770
   43MOL0     H 5748   8.073  10.360   1.253 -0.0180 -3.4273 -3.9371
   43MOL0     H 5749   8.204  10.472   1.287  2.0928  1.2384 -1.3571
   43MOL0     H 5750   8.353  10.377   1.135  0.5104 -4.1537  2.0615
   43MOL0     H 5751   8.237  10.252   1.089  1.3006 -0.8375 -0.0561
   43MOL0     H 5752   8.088  10.481   1.055  0.2754 -1.5950  2.3352
   43MOL0     H 5753   8.238  10.558   1.046 -2.7930  0.3092  2.1240
   43MOL0     H 5754   8.119  10.464   0.835 -0.5716 -2.1036 -1.6751
   43MOL0     H 5755   8.191  10.305   0.882  1.9257 -0.1126 -4.4173
   43MOL0     H 5756   8.447  10.308   0.928 -0.1390  2.0319  1.7451
   43MOL0     H 5757   8.734  10.500   0.868 -0.9385  1.4919 -0.9670
   43MOL0     H 5758   8.702  10.319   0.866  0.8895  1.2273  0.2569
   43MOL0     H 5759   8.801  10.505   0.647 -1.7470  1.1041 -0.0792
   43MOL0     H 5760   8.703  10.359   0.603  0.3337 -0.9214 -1.2092
   43MOL0     H 5761   8.946  10.329   0.771  1.5239  0.9055 -2.0122
   43MOL0     H 5762   8.971  10.367   0.599 -1.3707  0.7757 -2.6449
   43MOL0     H 5763   8.833  10.163   0.546 -1.8164  0.9838  0.2138
   43MOL0     H 5764   8.795  10.141   0.725  2.3259  0.5187  1.5288
   43MOL0     H 5765   9.111   9.877   0.633 -3.2822 -1.7281 -1.7833
   43MOL0     H 5766   9.225   9.701   0.370 -3.1553 -0.9357  0.8061
   43MOL0     H 5767   9.343   9.742   0.499 -1.5336 -0.0943  2.4150
   43MOL0     H 5768   9.174   9.705   0.534 -1.0134 -0.4867 -1.0682
   43MOL0     H 5769   9.636   9.830   0.229 -0.7567  3.5136  0.6154
   43MOL0     H 5770   9.782   9.719   0.048  1.8672  1.9567  0.3185
   43MOL0     H 5771   9.674   9.656  -0.384 -4.0779 -2.3229  5.9599
   43MOL0     H 5772   9.636   9.828  -0.343  1.6763  0.6645 -1.9596
   43MOL0     H 5773   9.913   9.717  -0.379 -0.3445  0.2742  2.8060
   43MOL0     H 5774   9.804   9.809  -0.498  0.4504  3.0346 -0.0767
   43MOL0     H 5775   9.902   9.918  -0.217 -3.4845  2.6973  0.7895
   43MOL0     H 5776   9.812   9.999  -0.333  0.0012  1.0098  0.5351
   43MOL0     H 5777  10.016  10.096  -0.364 -1.2357 -0.4713  0.0052
   43MOL0     H 5778  10.101   9.925  -0.371 -0.7928 -2.4112  0.3179
   43MOL0     H 5779   9.911  10.039  -0.577 -3.0803 -4.6812  0.0175
   43MOL0     H 5780   9.991   9.886  -0.587  1.9876  0.1783  0.1073
   43MOL0     H 5781  10.207   9.972  -0.593  0.2498  1.1956  1.1552
   43MOL0     H 5782  10.114  10.028  -0.734 -4.3604 -4.1658 -0.3823
   43MOL0     H 5783  10.264  10.192  -0.666  0.2495 -3.9508  0.3658
   43MOL0     H 5784  10.209  10.199  -0.497 -0.6515 -0.6584  1.2113
   43MOL0     H 5785  10.105  10.399  -0.630 -0.2801  0.5223 -0.3634
   43MOL0     H 5786   9.976  10.295  -0.573  1.1189 -2.1638 -0.3742
   43MOL0     H 5787   9.462   9.765  -0.221  0.4835 -1.4368 -0.2662
   43MOL0     H 5788   9.320   9.860  -0.044  0.0993  0.5517 -0.6410
   43MOL0     H 5789   9.151  10.180   0.250  0.3902  1.3883  1.2207
   43MOL0     H 5790   9.020  10.240   0.411 -1.0908 -1.3456  0.5496
   43MOL0     H 5791   8.611  10.164   1.657  1.8147 -1.1018  2.1904
   43MOL0     H 5792   8.824  10.250   1.713  1.1457  1.9129  2.2424
   43MOL0     H 5793   9.042  10.847   1.840  0.2891  0.9006 -3.9371
   43MOL0     H 5794   9.281  10.897   1.868 -1.4800  0.2751 -0.4575
   43MOL0     H 5795   9.560  10.549   1.918 -1.9320 -1.1356 -2.8310
   43MOL0     H 5796   9.580  10.634   1.757 -0.6786  0.1026  0.3433
   43MOL0     H 5797   9.701  10.715   2.022 -3.7405  0.4239 -0.5489
   43MOL0     H 5798   9.703  10.815   1.872  0.9123 -0.7359 -4.4111
   43MOL0     H 5799   9.810  10.628   1.740 -1.1931  1.3598  0.7313
   43MOL0     H 5800   9.839  10.552   1.899 -3.0163 -0.0856  0.3582
   43MOL0     H 5801  10.011  10.751   1.950  0.5366  1.0910 -0.0414
   43MOL0     H 5802   9.992  10.805   1.797 -0.5557 -0.9916 -1.0924
   43MOL0     H 5803  10.221  10.449   1.736 -1.2150 -0.6150  0.3477
   43MOL0     H 5804   9.377  10.473   1.836 -0.5363 -0.0289 -1.2898
   43MOL0     H 5805   9.140  10.424   1.782 -0.3129 -0.3500  0.7145
   44MOL0     O 5806   1.305   4.769   9.412  0.2556  0.0848 -0.2071
   44MOL0     C 5807   1.382   4.701   9.487 -0.1706 -0.1446 -0.1517
   44MOL0     O 5808   1.512   4.667   9.458  0.5900  0.4544 -0.3915
   44MOL0     C 5809   1.568   4.704   9.343 -0.2887  0.0593 -0.2499
   44MOL0     C 5810   1.504   4.686   9.217  0.0255 -0.4265  0.2859
   44MOL0     C 5811   1.564   4.728   9.091  0.3719 -0.1491  0.2229
   44MOL0     C 5812   1.688   4.788   9.092  0.5816  0.3141  0.3658
   44MOL0     O 5813   1.731   4.831   8.965  0.3086  0.5627 -0.4319
   44MOL0     C 5814   1.851   4.906   8.954 -0.2305 -0.0169 -0.9825
   44MOL0     C 5815   1.911   4.919   8.813 -0.0628  0.1980 -0.9558
   44MOL0     C 5816   1.823   5.002   8.717 -0.4087  0.2080  0.0820
   44MOL0     C 5817   1.865   4.937   8.582  0.2672  0.8726 -0.6854
   44MOL0     C 5818   1.801   5.003   8.459  0.3131  0.0815  0.7549
   44MOL0     C 5819   1.859   4.947   8.323  0.0230  0.0439  0.5773
   44MOL0     C 5820   1.806   5.023   8.198  0.4907  1.2528  0.3382
   44MOL0     C 5821   1.825   5.171   8.189 -0.4093 -0.0742 -0.4675
   44MOL0     N 5822   1.712   5.248   8.256 -0.0316  0.9864 -0.7074
   44MOL0     C 5823   1.731   5.333   8.365 -0.5744  0.1828 -0.3035
   44MOL0     C 5824   1.618   5.406   8.373 -0.0119  0.3042  0.6418
   44MOL0     C 5825   1.571   5.494   8.484 -0.1924 -0.1921  0.4029
   44MOL0     C 5826   1.620   5.638   8.474 -0.0798  0.1286 -0.2623
   44MOL0     C 5827   1.776   5.659   8.482  0.2075  0.7066 -0.8368
   44MOL0     C 5828   1.809   5.804   8.496 -0.7569 -0.9882  0.4298
   44MOL0     O 5829   1.948   5.829   8.472 -0.9367  0.0196 -0.9575
   44MOL0     C 5830   1.981   5.958   8.443  0.2073 -0.4540  0.6981
   44MOL0     C 5831   2.110   5.980   8.391 -0.3022 -0.1413  0.0872
   44MOL0     C 5832   2.160   6.105   8.369 -0.3720  0.3476 -0.0155
   44MOL0     C 5833   2.295   6.108   8.310 -0.3115  0.1972  0.7484
   44MOL0     C 5834   2.077   6.220   8.392  0.1322  0.4401 -0.4294
   44MOL0     C 5835   2.104   6.367   8.369 -0.0402 -0.1495 -0.0509
   44MOL0     O 5836   2.016   6.465   8.415 -0.6463  0.1597  0.6179
   44MOL0     C 5837   2.035   6.589   8.360  0.1555  0.3416  0.3528
   44MOL0     C 5838   2.029   6.697   8.443  0.2803 -0.1886 -0.0243
   44MOL0     C 5839   2.046   6.829   8.398 -0.1679 -0.1025 -0.4548
   44MOL0     C 5840   2.070   6.852   8.265 -0.6373 -0.8385 -0.1121
   44MOL0     O 5841   2.100   6.975   8.226  0.1418 -0.2670 -0.7212
   44MOL0     C 5842   2.226   6.977   8.176 -0.2985  0.1364  0.4963
   44MOL0     C 5843   2.293   7.107   8.209  0.1293 -0.2361 -0.5394
   44MOL0     C 5844   2.415   7.122   8.129 -0.0025  0.1535  0.3689
   44MOL0     C 5845   2.457   7.273   8.105  0.5671 -0.3330 -0.0278
   44MOL0     C 5846   2.596   7.258   8.035 -0.6399 -0.8143 -0.3612
   44MOL0     C 5847   2.629   7.398   7.979 -0.7939  0.3153 -0.5931
   44MOL0     C 5848   2.770   7.393   7.930  0.1327 -0.6428  0.6192
   44MOL0     C 5849   2.815   7.519   7.862 -0.1589  0.1200  0.7524
   44MOL0    Cl 5850   2.832   7.653   7.981 -0.3054 -0.5264  0.3513
   44MOL0     C 5851   2.085   6.742   8.181  0.3368  0.1525  0.2702
   44MOL0     C 5852   2.061   6.611   8.221  0.0331 -0.5372 -0.7083
   44MOL0     O 5853   2.215   6.397   8.307  0.8701 -1.0580  0.2479
   44MOL0     C 5854   1.947   6.201   8.442  0.4235 -0.0211  0.0256
   44MOL0     C 5855   1.902   6.074   8.474  0.1725  0.4588  0.3544
   44MOL0     N 5856   1.522   5.362   8.280  0.3670 -0.6385 -0.1212
   44MOL0     N 5857   1.588   5.263   8.209 -0.7980 -0.4951  0.9502
   44MOL0     C 5858   1.751   4.811   9.217 -0.9865  0.4446 -0.0613
   44MOL0     C 5859   1.691   4.773   9.341  0.7210 -0.0636  0.5176
   44MOL0     C 5860   1.343   4.686   9.629 -0.6707 -0.3864 -0.2589
   44MOL0     C 5861   1.241   4.610   9.678 -0.7001 -0.0366  0.4986
   44MOL0     C 5862   1.188   4.638   9.804 -0.0650 -0.0802  0.0568
   44MOL0     C 5863   1.239   4.741   9.888  0.3381  0.1438  0.2919
   44MOL0     O 5864   1.182   4.757  10.013 -0.5401  0.2854  0.1755
   44MOL0     C 5865   1.092   4.875  10.034  0.1135  0.2230  0.3259
   44MOL0     C 5866   1.175   5.002  10.075 -0.8481  0.6470 -0.0748
   44MOL0     C 5867   1.256   4.979  10.212 -0.7880 -0.3057 -0.5068
   44MOL0     C 5868   1.172   4.916  10.330 -0.3721 -0.1222  0.3383
   44MOL0     C 5869   1.063   5.003  10.376 -0.4911 -1.0409  0.1820
   44MOL0     C 5870   0.976   5.086  10.411 -0.9666  0.3253  0.3871
   44MOL0     C 5871   1.352   4.809   9.841  0.0561 -0.0603 -0.3980
   44MOL0     C 5872   1.402   4.782   9.716  0.3543  0.5677  0.5452
   44MOL0     H 5873   1.413   4.626   9.224 -1.2040  0.6402 -3.8660
   44MOL0     H 5874   1.509   4.715   8.998 -1.5643 -2.0496  1.5190
   44MOL0     H 5875   1.828   5.009   8.981  0.5515 -0.4640  1.6933
   44MOL0     H 5876   1.933   4.877   9.021 -0.6950 -1.0666 -0.8449
   44MOL0     H 5877   2.013   4.958   8.819 -0.0854  0.3844 -1.6787
   44MOL0     H 5878   1.932   4.818   8.776  0.9564  0.3371 -0.7869
   44MOL0     H 5879   1.719   4.979   8.738 -0.4632  0.6918  0.3699
   44MOL0     H 5880   1.840   5.110   8.720 -2.1722  0.5281 -0.6543
   44MOL0     H 5881   1.973   4.945   8.565 -0.0223  1.1663 -2.6219
   44MOL0     H 5882   1.835   4.832   8.589 -1.5026  1.4480  0.8461
   44MOL0     H 5883   1.692   4.991   8.456  0.5430 -2.9407 -2.1225
   44MOL0     H 5884   1.823   5.110   8.460 -2.1280  0.7335 -1.5156
   44MOL0     H 5885   1.968   4.945   8.335 -0.1314 -1.4320  2.2402
   44MOL0     H 5886   1.829   4.842   8.322  0.8539 -0.2122 -0.9018
   44MOL0     H 5887   1.864   4.980   8.116  1.2925  0.6018  1.2251
   44MOL0     H 5888   1.699   5.006   8.184  0.5178  1.9407 -0.7605
   44MOL0     H 5889   1.831   5.202   8.084 -1.6515 -0.2060 -0.5982
   44MOL0     H 5890   1.918   5.208   8.234 -1.0352  2.6636 -1.2413
   44MOL0     H 5891   1.813   5.356   8.432 -0.1186 -0.3136 -0.6806
   44MOL0     H 5892   1.463   5.492   8.497 -0.1522 -0.4109  0.7043
   44MOL0     H 5893   1.617   5.448   8.572  2.1624 -0.2770 -0.7738
   44MOL0     H 5894   1.574   5.704   8.547  0.9480  4.2639 -3.0129
   44MOL0     H 5895   1.574   5.677   8.383 -0.8276 -1.9769 -0.8579
   44MOL0     H 5896   1.802   5.626   8.381 -4.3236 -2.2434 -1.3711
   44MOL0     H 5897   1.831   5.604   8.559 -0.7112 -0.7709 -1.1991
   44MOL0     H 5898   1.788   5.843   8.596 -0.4774 -0.9690  0.4804
   44MOL0     H 5899   1.748   5.860   8.425  0.1027 -1.2291 -0.5191
   44MOL0     H 5900   2.167   5.889   8.375 -0.3224 -0.4861  1.7522
   44MOL0     H 5901   2.331   6.009   8.280 -2.0876 -0.2220 -0.1024
   44MOL0     H 5902   2.289   6.168   8.219  0.2955  0.5316  0.9235
   44MOL0     H 5903   2.367   6.143   8.384 -0.3534 -0.8672  1.2973
   44MOL0     H 5904   2.016   6.695   8.551  0.4375 -0.6050 -0.0140
   44MOL0     H 5905   2.044   6.920   8.456  2.3607  1.1625 -2.1883
   44MOL0     H 5906   2.285   6.889   8.202  1.0869  0.4160 -1.4842
   44MOL0     H 5907   2.219   6.991   8.068  0.7472  0.7938  0.4988
   44MOL0     H 5908   2.230   7.193   8.186  3.4015  2.1665 -1.2596
   44MOL0     H 5909   2.317   7.112   8.315  1.4522  0.2917 -0.8505
   44MOL0     H 5910   2.412   7.079   8.029  0.8268  1.8424 -0.4076
   44MOL0     H 5911   2.491   7.067   8.186 -0.9615 -0.7540  0.8102
   44MOL0     H 5912   2.389   7.332   8.043 -0.2543  0.1633  1.3043
   44MOL0     H 5913   2.471   7.330   8.197 -0.1564 -1.5296  0.8508
   44MOL0     H 5914   2.602   7.182   7.957 -0.0342 -0.1981 -0.9270
   44MOL0     H 5915   2.673   7.244   8.112  1.4323 -3.2966 -2.6734
   44MOL0     H 5916   2.565   7.430   7.896 -0.5146  2.3812 -0.0604
   44MOL0     H 5917   2.620   7.474   8.057 -3.8093  1.5074 -1.9422
   44MOL0     H 5918   2.794   7.301   7.876  2.5911 -1.6098  3.1232
   44MOL0     H 5919   2.836   7.394   8.017  1.6825  0.0367 -0.5211
   44MOL0     H 5920   2.751   7.556   7.782 -0.1387 -0.4933  0.4491
   44MOL0     H 5921   2.912   7.491   7.820 -0.4679  0.5007 -0.2428
   44MOL0     H 5922   2.103   6.753   8.075 -3.1822 -4.7270 -1.2112
   44MOL0     H 5923   2.065   6.537   8.142  1.2904 -2.3480  0.9665
   44MOL0     H 5924   1.872   6.278   8.461 -3.2649 -3.0674 -1.0482
   44MOL0     H 5925   1.799   6.064   8.507 -0.2030  1.9869 -0.2542
   44MOL0     H 5926   1.836   4.878   9.211 -0.7948  0.1171 -1.4805
   44MOL0     H 5927   1.736   4.792   9.438  2.3163  4.4439 -0.8840
   44MOL0     H 5928   1.200   4.535   9.612 -0.4601  0.2469  0.0227
   44MOL0     H 5929   1.106   4.578   9.843  1.3637  0.0808  3.7800
   44MOL0     H 5930   1.037   4.902   9.943  1.1987  1.3080 -0.0400
   44MOL0     H 5931   1.014   4.856  10.108 -0.4300  1.4247  0.0946
   44MOL0     H 5932   1.113   5.092  10.084  0.0524  1.1937  1.1082
   44MOL0     H 5933   1.256   5.028  10.006  0.9705  2.0777  2.4047
   44MOL0     H 5934   1.280   5.079  10.251 -0.2447 -0.4056 -0.5763
   44MOL0     H 5935   1.347   4.925  10.187 -1.7798 -1.6911 -1.2501
   44MOL0     H 5936   1.248   4.886  10.402  0.3387 -0.0179 -0.3537
   44MOL0     H 5937   1.130   4.817  10.310  0.1294 -1.2462  4.1243
   44MOL0     H 5938   0.892   5.149  10.433 -2.1699 -0.7239 -0.9733
   44MOL0     H 5939   1.400   4.891   9.894  0.2263  0.6508 -1.6286
   44MOL0     H 5940   1.491   4.829   9.675  0.8831 -1.3228 -0.6124
   45MOL0     O 5941   4.396  10.952   3.050 -0.6053 -0.0208  0.2655
   45MOL0     C 5942   4.284  10.913   3.012 -0.1560 -0.6504  0.6087
   45MOL0     O 5943   4.188  10.855   3.087 -0.6952  0.6744  0.1780
   45MOL0     C 5944   4.201  10.844   3.223 -0.5358 -0.6982  0.2933
   45MOL0     C 5945   4.286  10.920   3.307 -0.1712 -0.3037 -0.2935
   45MOL0     C 5946   4.272  10.925   3.450  0.4765 -0.2890  0.3601
   45MOL0     C 5947   4.172  10.850   3.516 -0.7776  0.2430  0.5782
   45MOL0     O 5948   4.143  10.855   3.658 -0.5286  0.1254  0.2710
   45MOL0     C 5949   4.198  10.964   3.738 -0.5035  0.1845  0.0436
   45MOL0     C 5950   4.131  10.992   3.865  0.7330  0.6317  0.5114
   45MOL0     C 5951   3.980  11.036   3.857 -0.4894 -0.5404 -0.5519
   45MOL0     C 5952   3.867  10.932   3.827 -0.3328 -0.3839  0.5702
   45MOL0     C 5953   3.864  10.802   3.915 -0.9402  0.4744  0.4829
   45MOL0     C 5954   3.810  10.694   3.830 -0.6789 -0.3905  0.3322
   45MOL0     C 5955   3.797  10.555   3.888 -1.6697 -0.4382  0.4580
   45MOL0     C 5956   3.709  10.466   3.808  0.2889 -0.4598  0.0298
   45MOL0     N 5957   3.710  10.331   3.863 -0.3416 -0.4425 -0.3172
   45MOL0     C 5958   3.607  10.269   3.930  0.4854 -0.5538 -0.0979
   45MOL0     C 5959   3.648  10.147   3.949 -0.1576 -0.7760 -0.0082
   45MOL0     C 5960   3.553  10.050   4.027 -0.5287  0.7421 -0.1895
   45MOL0     C 5961   3.530   9.920   3.956  0.0803 -0.3781 -0.6315
   45MOL0     C 5962   3.643   9.830   3.933 -0.1284  0.4074  0.3254
   45MOL0     C 5963   3.604   9.681   3.940 -1.5690  0.0448  0.0252
   45MOL0     O 5964   3.584   9.637   4.077 -0.7942 -0.1612  0.0232
   45MOL0     C 5965   3.493   9.546   4.098  0.1298 -1.1968 -0.2829
   45MOL0     C 5966   3.386   9.504   4.015 -0.8055 -0.1860 -0.1320
   45MOL0     C 5967   3.312   9.400   4.053 -0.1481  0.0594 -0.4320
   45MOL0     C 5968   3.225   9.348   3.938 -0.7405 -1.0436  0.2219
   45MOL0     C 5969   3.319   9.339   4.185  0.1342 -0.3266  0.6301
   45MOL0     C 5970   3.223   9.232   4.228 -0.1050 -0.9852  0.4599
   45MOL0     O 5971   3.289   9.136   4.300 -0.9022  0.2577 -0.3776
   45MOL0     C 5972   3.231   9.014   4.332 -0.4391  0.5024 -0.7159
   45MOL0     C 5973   3.128   8.942   4.268 -1.1771 -0.3047 -0.7361
   45MOL0     C 5974   3.090   8.814   4.308  0.4905  0.4277  0.8123
   45MOL0     C 5975   3.145   8.751   4.414 -0.2292 -0.3277  0.2252
   45MOL0     O 5976   3.103   8.622   4.442 -0.0625 -0.8710  0.3671
   45MOL0     C 5977   3.147   8.562   4.570  0.1937  0.0349  0.4876
   45MOL0     C 5978   3.064   8.614   4.680 -0.4821  0.4872 -0.6405
   45MOL0     C 5979   3.142   8.586   4.809  0.5411 -0.4829 -0.4105
   45MOL0     C 5980   3.084   8.670   4.922  0.7318  0.0075  0.9216
   45MOL0     C 5981   3.178   8.671   5.040 -0.3354 -0.7432 -0.4694
   45MOL0     C 5982   3.105   8.715   5.172 -0.0589  0.7714 -0.9154
   45MOL0     C 5983   3.205   8.777   5.270 -0.4966  0.6844 -1.0138
   45MOL0     C 5984   3.316   8.679   5.316  0.4576 -0.1650 -0.1994
   45MOL0    Cl 5985   3.423   8.754   5.435  0.1260 -0.8984  0.1313
   45MOL0     C 5986   3.245   8.820   4.486  1.2040 -1.1056 -0.4528
   45MOL0     C 5987   3.278   8.951   4.447  1.0763  0.8856 -0.0642
   45MOL0     O 5988   3.102   9.234   4.198 -0.8101 -0.6794  0.0713
   45MOL0     C 5989   3.424   9.385   4.267 -0.5436 -0.0362 -0.5206
   45MOL0     C 5990   3.508   9.487   4.227  0.7654  0.7501  1.3392
   45MOL0     N 5991   3.779  10.133   3.911 -0.1608 -0.4305 -0.0815
   45MOL0     N 5992   3.811  10.242   3.839  0.4010 -0.4511  0.2254
   45MOL0     C 5993   4.100  10.770   3.430 -0.4042 -0.0216 -0.6999
   45MOL0     C 5994   4.114  10.768   3.289 -0.3352  0.1919  0.3012
   45MOL0     C 5995   4.259  10.957   2.868  0.5608  0.5080  0.4976
   45MOL0     C 5996   4.128  10.932   2.821  0.2872 -0.1904  1.0482
   45MOL0     C 5997   4.078  10.988   2.704 -0.4173  1.1648 -0.1637
   45MOL0     C 5998   4.160  11.053   2.616  0.1228  0.8076 -0.0138
   45MOL0     O 5999   4.139  11.124   2.499  0.0470  0.2495 -0.7693
   45MOL0     C 6000   4.001  11.158   2.471  0.7767 -0.6157  0.4798
   45MOL0     C 6001   3.987  11.206   2.325 -0.5067  0.7398  0.3155
   45MOL0     C 6002   3.860  11.300   2.315  0.1448 -0.8013 -0.5940
   45MOL0     C 6003   3.826  11.332   2.169 -0.2251  0.4346 -0.3184
   45MOL0     C 6004   3.789  11.207   2.103  0.7828 -0.9240  0.1523
   45MOL0     C 6005   3.744  11.117   2.044  0.6690  0.2245 -0.2880
   45MOL0     C 6006   4.299  11.063   2.648 -0.1155 -0.6125 -0.4384
   45MOL0     C 6007   4.343  11.026   2.779  0.3898 -0.0024 -0.1081
   45MOL0     H 6008   4.355  10.994   3.267 -2.1972  0.3006 -3.0522
   45MOL0     H 6009   4.337  10.987   3.511 -1.4739 -2.5149  5.2241
   45MOL0     H 6010   4.300  10.939   3.770 -0.0731 -0.9707 -1.9710
   45MOL0     H 6011   4.217  11.054   3.679 -3.2596  0.5374 -0.4328
   45MOL0     H 6012   4.138  10.906   3.932  1.3644  0.8652  0.7489
   45MOL0     H 6013   4.178  11.072   3.924 -0.0067  1.6023 -0.1938
   45MOL0     H 6014   3.956  11.089   3.950  1.5026 -0.5290  0.0099
   45MOL0     H 6015   3.984  11.105   3.772  0.7553 -1.3854 -1.2086
   45MOL0     H 6016   3.773  10.987   3.835 -0.0800  0.3952 -1.2360
   45MOL0     H 6017   3.886  10.902   3.723 -0.0779  0.3305  0.4037
   45MOL0     H 6018   3.967  10.767   3.929 -0.8759  1.0415  1.5926
   45MOL0     H 6019   3.811  10.811   4.011 -2.7731  2.2824 -0.6274
   45MOL0     H 6020   3.708  10.730   3.818  0.5341  3.2885 -0.1083
   45MOL0     H 6021   3.861  10.690   3.733 -1.8970  1.6071 -0.4368
   45MOL0     H 6022   3.898  10.525   3.918 -0.6920  4.4207  3.1797
   45MOL0     H 6023   3.746  10.574   3.983  0.8382 -1.9209  2.2185
   45MOL0     H 6024   3.740  10.447   3.705  0.2634  2.5749 -0.6328
   45MOL0     H 6025   3.607  10.506   3.808  0.1131 -0.8882 -0.8359
   45MOL0     H 6026   3.510  10.308   3.961  0.4158 -2.0919  1.8378
   45MOL0     H 6027   3.601  10.021   4.121  1.5040  1.6041 -0.9164
   45MOL0     H 6028   3.462  10.101   4.059 -0.6004 -0.2237  1.2207
   45MOL0     H 6029   3.482   9.942   3.860  0.1375 -2.2986 -1.1473
   45MOL0     H 6030   3.459   9.860   4.014  0.9257 -0.7586  0.0335
   45MOL0     H 6031   3.709   9.826   4.020 -1.2249 -4.6333  1.2253
   45MOL0     H 6032   3.695   9.862   3.841 -0.4312 -0.1193 -0.0334
   45MOL0     H 6033   3.698   9.632   3.911 -0.7948 -0.1119  2.5769
   45MOL0     H 6034   3.532   9.651   3.863  0.4783  0.5963 -2.2397
   45MOL0     H 6035   3.357   9.533   3.915 -4.2311 -0.0365  0.7698
   45MOL0     H 6036   3.181   9.250   3.960 -2.9871 -0.2456 -0.4237
   45MOL0     H 6037   3.128   9.400   3.940 -1.0244 -1.4219 -1.9913
   45MOL0     H 6038   3.259   9.360   3.835  0.0190  0.7002  0.6481
   45MOL0     H 6039   3.085   8.988   4.180  1.8265 -1.1680 -2.8092
   45MOL0     H 6040   3.013   8.766   4.247 -1.6541  2.6195  1.6103
   45MOL0     H 6041   3.123   8.456   4.561 -1.1916  0.4712 -1.6718
   45MOL0     H 6042   3.255   8.572   4.582  0.2251  1.9576 -0.9435
   45MOL0     H 6043   3.061   8.723   4.671 -1.3124  0.8352  2.5136
   45MOL0     H 6044   2.965   8.571   4.693 -0.1984  0.1638  0.5758
   45MOL0     H 6045   3.243   8.625   4.796 -0.5095  2.0409 -1.6151
   45MOL0     H 6046   3.144   8.479   4.834 -2.2161 -0.1754  1.6898
   45MOL0     H 6047   3.083   8.771   4.879 -0.8380 -0.2683  0.2453
   45MOL0     H 6048   2.987   8.629   4.949 -0.2054  2.7364  2.1093
   45MOL0     H 6049   3.254   8.748   5.026 -1.4743  0.8933  1.7845
   45MOL0     H 6050   3.227   8.573   5.047  0.5381 -0.2394  0.6806
   45MOL0     H 6051   3.043   8.801   5.147 -1.2772  0.8669  2.0647
   45MOL0     H 6052   3.044   8.631   5.208  0.1877  0.7179 -0.6166
   45MOL0     H 6053   3.151   8.810   5.360  0.5912 -2.6903  1.0386
   45MOL0     H 6054   3.235   8.871   5.222 -1.0779  2.3229  1.5898
   45MOL0     H 6055   3.383   8.641   5.238  0.4423 -0.7199  0.0555
   45MOL0     H 6056   3.274   8.593   5.369 -3.6014 -0.2348 -3.0197
   45MOL0     H 6057   3.288   8.776   4.575 -1.4715  1.2657  2.2650
   45MOL0     H 6058   3.348   8.996   4.517 -0.5371  1.2592  1.3665
   45MOL0     H 6059   3.431   9.331   4.361  2.4913 -2.4896 -1.9611
   45MOL0     H 6060   3.585   9.533   4.288  2.0053 -1.2793  1.4197
   45MOL0     H 6061   4.030  10.695   3.467  0.1021  0.5653  1.5630
   45MOL0     H 6062   4.047  10.700   3.236  1.8646 -1.1369 -0.9777
   45MOL0     H 6063   4.058  10.873   2.879  0.5649 -0.8284  0.7540
   45MOL0     H 6064   3.976  10.966   2.673  0.1834 -0.9096 -0.8457
   45MOL0     H 6065   3.934  11.073   2.486 -1.2585  1.2216  2.6060
   45MOL0     H 6066   3.970  11.239   2.537  2.4622  0.0125  0.5460
   45MOL0     H 6067   3.988  11.122   2.255  2.9981  1.0639 -0.2191
   45MOL0     H 6068   4.076  11.264   2.299 -1.0119  0.5556 -2.0810
   45MOL0     H 6069   3.879  11.394   2.367  2.7235 -1.7919  0.4444
   45MOL0     H 6070   3.763  11.264   2.352 -2.0559  1.6363 -3.4991
   45MOL0     H 6071   3.912  11.383   2.123  2.2416 -2.8781  0.2485
   45MOL0     H 6072   3.734  11.391   2.158 -1.7833 -1.1932  2.7149
   45MOL0     H 6073   3.697  11.037   1.991 -0.1049 -0.3883  1.2608
   45MOL0     H 6074   4.361  11.125   2.585 -1.1919  0.5648 -0.3854
   45MOL0     H 6075   4.443  11.041   2.819  0.9890  0.6323 -1.7929
   46MOL0     O 6076   9.017   2.281   7.817 -0.6036  0.2630  1.0688
   46MOL0     C 6077   9.090   2.256   7.720  0.6341  0.2336 -0.5678
   46MOL0     O 6078   9.164   2.144   7.703 -0.3773  0.2520  0.0089
   46MOL0     C 6079   9.152   2.042   7.794  0.8886  0.0369  0.5674
   46MOL0     C 6080   9.235   2.038   7.905  0.7610 -0.7373  0.6533
   46MOL0     C 6081   9.225   1.935   7.998  0.7272  0.1832 -0.4020
   46MOL0     C 6082   9.147   1.819   7.967  0.3148 -1.0526  2.0365
   46MOL0     O 6083   9.129   1.714   8.053  0.2753  0.4992  0.2277
   46MOL0     C 6084   9.232   1.694   8.141 -0.5177  0.8893 -0.4188
   46MOL0     C 6085   9.241   1.557   8.205 -0.9112  0.4027 -0.2359
   46MOL0     C 6086   9.108   1.523   8.290 -0.3808 -0.3744  0.4633
   46MOL0     C 6087   9.015   1.433   8.206  0.6267  0.6498  0.0199
   46MOL0     C 6088   8.904   1.384   8.297  0.5391 -0.2459 -0.9590
   46MOL0     C 6089   8.802   1.310   8.201  0.4031  0.8598  0.4340
   46MOL0     C 6090   8.699   1.252   8.288 -0.3091 -0.5191 -0.3083
   46MOL0     C 6091   8.587   1.206   8.192 -0.7358 -0.1127  0.5464
   46MOL0     N 6092   8.501   1.311   8.132 -0.3485 -0.0103 -0.4003
   46MOL0     C 6093   8.440   1.414   8.200  0.0177  1.4205  0.8557
   46MOL0     C 6094   8.349   1.464   8.110  0.5911 -0.1218  0.2538
   46MOL0     C 6095   8.240   1.567   8.147  0.2793  0.3403  0.1771
   46MOL0     C 6096   8.204   1.654   8.030  0.0249 -0.0347  0.6495
   46MOL0     C 6097   8.069   1.711   8.021 -0.3236  0.0458 -0.9937
   46MOL0     C 6098   7.958   1.620   8.071 -0.3073 -0.2577  0.6302
   46MOL0     O 6099   7.836   1.677   8.015 -0.2031 -0.0372  0.2842
   46MOL0     C 6100   7.757   1.762   8.092  0.3118 -0.0526 -0.6376
   46MOL0     C 6101   7.638   1.814   8.029  0.1988 -0.8850 -0.3426
   46MOL0     C 6102   7.545   1.898   8.100 -0.3966  0.4563 -1.0153
   46MOL0     C 6103   7.430   1.940   8.017 -0.3065  0.7226  0.7606
   46MOL0     C 6104   7.584   1.934   8.235  0.3191 -0.2178 -0.8891
   46MOL0     C 6105   7.490   2.020   8.327  0.1293  0.4751  0.6969
   46MOL0     O 6106   7.359   2.039   8.291 -0.3674  0.5998  0.4128
   46MOL0     C 6107   7.281   2.128   8.352 -0.1814  0.8039  0.2760
   46MOL0     C 6108   7.236   2.092   8.482  0.1041  0.4748  0.4934
   46MOL0     C 6109   7.143   2.170   8.547 -0.8144  0.3978 -0.0742
   46MOL0     C 6110   7.094   2.284   8.488  0.6719 -0.2475 -0.8506
   46MOL0     O 6111   7.007   2.365   8.552  0.1270  0.6340 -0.5466
   46MOL0     C 6112   6.877   2.311   8.563  0.1890 -0.3304 -0.1953
   46MOL0     C 6113   6.805   2.402   8.654  0.6530 -0.8114  0.9571
   46MOL0     C 6114   6.785   2.541   8.581 -0.1275  0.1079  0.0763
   46MOL0     C 6115   6.793   2.568   8.425 -0.0314  0.0518 -0.6615
   46MOL0     C 6116   6.764   2.716   8.396 -0.6145  0.1392 -0.0942
   46MOL0     C 6117   6.616   2.741   8.378 -0.0491 -0.0984 -0.7649
   46MOL0     C 6118   6.585   2.894   8.360 -1.2626 -0.1177  0.0043
   46MOL0     C 6119   6.442   2.928   8.337 -0.4010  1.3259 -0.1075
   46MOL0    Cl 6120   6.339   2.863   8.472  0.0257 -0.5979  0.2397
   46MOL0     C 6121   7.134   2.323   8.358 -0.5800  0.4518 -0.1269
   46MOL0     C 6122   7.226   2.248   8.288 -1.0100  0.4453  0.4941
   46MOL0     O 6123   7.544   2.072   8.426  0.7964  0.2488  0.9187
   46MOL0     C 6124   7.703   1.885   8.295 -0.0569  0.1210 -0.9171
   46MOL0     C 6125   7.789   1.805   8.226 -0.4558  0.9748  0.2335
   46MOL0     N 6126   8.361   1.390   7.997  0.0834 -0.5235 -0.5966
   46MOL0     N 6127   8.451   1.303   8.014  0.8516 -0.2671 -0.8656
   46MOL0     C 6128   9.060   1.823   7.851  0.0169  0.6585  0.0641
   46MOL0     C 6129   9.074   1.935   7.769 -0.0024 -0.2358  0.7555
   46MOL0     C 6130   9.108   2.360   7.607 -0.5263  0.4817 -0.3008
   46MOL0     C 6131   9.188   2.340   7.501 -0.1270 -0.1163 -0.0006
   46MOL0     C 6132   9.196   2.437   7.399 -0.3517  0.7111 -0.3857
   46MOL0     C 6133   9.129   2.557   7.399 -0.3686 -0.7405 -0.3934
   46MOL0     O 6134   9.145   2.645   7.291  0.2100  0.0697  0.4408
   46MOL0     C 6135   9.086   2.771   7.310 -0.3017 -0.9199  0.1504
   46MOL0     C 6136   9.127   2.862   7.189  0.0389  0.1724 -0.4304
   46MOL0     C 6137   9.055   3.001   7.206 -0.4357  0.4358 -0.3812
   46MOL0     C 6138   8.921   3.012   7.117 -0.0143  0.1947 -0.3786
   46MOL0     C 6139   8.797   2.960   7.173  0.0468  0.3193 -0.3334
   46MOL0     C 6140   8.701   2.898   7.218 -0.2660  0.2294  0.0997
   46MOL0     C 6141   9.047   2.576   7.509 -0.5517  0.8912 -0.2891
   46MOL0     C 6142   9.026   2.474   7.604 -0.2282  0.0089 -0.8457
   46MOL0     H 6143   9.297   2.126   7.920  0.0975  0.0072 -0.7697
   46MOL0     H 6144   9.281   1.940   8.091 -0.1301  1.3398  0.0769
   46MOL0     H 6145   9.329   1.703   8.090 -0.3088  0.8746 -0.0250
   46MOL0     H 6146   9.223   1.767   8.221 -1.5959  2.4670 -1.9195
   46MOL0     H 6147   9.245   1.483   8.125 -3.9488 -0.1476 -0.0018
   46MOL0     H 6148   9.331   1.568   8.267  0.1586 -1.8933 -1.2679
   46MOL0     H 6149   9.137   1.464   8.378  0.6819  0.0112  0.3839
   46MOL0     H 6150   9.052   1.609   8.328  1.9680  2.0460 -1.1502
   46MOL0     H 6151   8.969   1.480   8.119 -1.3943 -2.5179 -0.7497
   46MOL0     H 6152   9.076   1.351   8.166  1.1771  1.7119 -1.4250
   46MOL0     H 6153   8.948   1.325   8.378  1.0822 -0.9641 -1.7476
   46MOL0     H 6154   8.870   1.478   8.341  1.0728 -0.5501  0.1330
   46MOL0     H 6155   8.759   1.377   8.127  0.6864  0.7949  0.2117
   46MOL0     H 6156   8.853   1.229   8.149 -0.7169  0.2272  0.2782
   46MOL0     H 6157   8.749   1.173   8.345  0.4543  0.7762  0.8981
   46MOL0     H 6158   8.665   1.327   8.360 -0.2046 -0.3767 -0.4076
   46MOL0     H 6159   8.520   1.138   8.245 -0.0303  0.3438  2.0584
   46MOL0     H 6160   8.632   1.159   8.104  0.3869  2.9963 -0.6874
   46MOL0     H 6161   8.446   1.444   8.304  1.7948  0.9381  0.9373
   46MOL0     H 6162   8.158   1.508   8.187  0.7107  0.3573  1.1124
   46MOL0     H 6163   8.280   1.628   8.228 -0.8728  0.5309  0.6156
   46MOL0     H 6164   8.220   1.589   7.944 -0.0973 -0.3114  0.8384
   46MOL0     H 6165   8.272   1.739   8.014  0.3967 -0.9266 -3.8396
   46MOL0     H 6166   8.050   1.755   7.922  0.7079  1.4686 -0.5909
   46MOL0     H 6167   8.055   1.805   8.075  0.2100  1.0470 -2.5276
   46MOL0     H 6168   7.950   1.605   8.179  1.5449  0.8964  0.9655
   46MOL0     H 6169   7.983   1.520   8.036  1.8303  0.5196 -0.2391
   46MOL0     H 6170   7.610   1.782   7.929  0.2511 -1.3382 -0.2148
   46MOL0     H 6171   7.353   1.865   8.038 -0.0246  0.3567  0.5056
   46MOL0     H 6172   7.397   2.039   8.048  1.3878  0.7257  2.8455
   46MOL0     H 6173   7.459   1.929   7.912 -0.0542 -4.5631  1.0856
   46MOL0     H 6174   7.277   2.006   8.534  2.7780 -1.0934 -3.7199
   46MOL0     H 6175   7.105   2.132   8.641 -1.1664 -1.2157 -0.8398
   46MOL0     H 6176   6.825   2.316   8.467 -1.2066  1.5826  0.5887
   46MOL0     H 6177   6.870   2.206   8.591 -2.3480 -0.4869 -1.1343
   46MOL0     H 6178   6.706   2.367   8.684 -0.2693  1.0710  0.3078
   46MOL0     H 6179   6.867   2.428   8.740  0.9819 -2.5091  1.2568
   46MOL0     H 6180   6.873   2.599   8.612 -1.3162  2.1472 -0.1824
   46MOL0     H 6181   6.693   2.587   8.617 -0.1728 -1.3114  1.8944
   46MOL0     H 6182   6.894   2.546   8.389  1.4919  4.1223  0.6663
   46MOL0     H 6183   6.717   2.514   8.368 -0.6679  0.5852 -0.3286
   46MOL0     H 6184   6.815   2.756   8.308  1.0887  1.0790  1.2795
   46MOL0     H 6185   6.801   2.769   8.484  1.0027 -1.0908  0.0139
   46MOL0     H 6186   6.581   2.691   8.288  1.9130 -0.0290 -1.6342
   46MOL0     H 6187   6.561   2.689   8.457  1.9378 -0.3109  0.5513
   46MOL0     H 6188   6.652   2.930   8.282 -0.6299  0.1679  0.6598
   46MOL0     H 6189   6.616   2.952   8.447  3.2875  0.1899 -1.5465
   46MOL0     H 6190   6.409   2.877   8.246 -0.7031 -1.0893  1.2759
   46MOL0     H 6191   6.419   3.035   8.339  1.1944  1.7182 -0.9058
   46MOL0     H 6192   7.086   2.407   8.309 -1.1888  0.6647  0.8008
   46MOL0     H 6193   7.256   2.286   8.191 -1.8298  0.8182  0.3856
   46MOL0     H 6194   7.731   1.905   8.398 -0.0318 -0.1753 -0.8657
   46MOL0     H 6195   7.882   1.776   8.274 -0.1715 -0.0782 -0.8800
   46MOL0     H 6196   9.001   1.737   7.820 -1.1870  1.2139  0.7479
   46MOL0     H 6197   9.035   1.922   7.669 -1.8394 -1.9020  1.6178
   46MOL0     H 6198   9.265   2.265   7.494  2.4189  2.4166 -1.4804
   46MOL0     H 6199   9.268   2.413   7.322  0.4630  0.2871  0.4905
   46MOL0     H 6200   8.978   2.762   7.323 -0.4392 -1.3764 -1.2223
   46MOL0     H 6201   9.115   2.817   7.405 -0.8343  1.1474 -0.6192
   46MOL0     H 6202   9.086   2.809   7.102 -0.1788  1.6193 -1.2438
   46MOL0     H 6203   9.232   2.856   7.160 -0.0192  1.1086 -0.8855
   46MOL0     H 6204   9.126   3.074   7.167  2.0416  0.1604  3.2044
   46MOL0     H 6205   9.034   3.031   7.309 -0.4097  1.9608 -0.8017
   46MOL0     H 6206   8.950   2.965   7.023 -1.9091  0.2796 -1.0367
   46MOL0     H 6207   8.902   3.117   7.091  0.4970  0.1934 -0.7796
   46MOL0     H 6208   8.608   2.850   7.244 -0.3235  1.4565  2.4958
   46MOL0     H 6209   8.997   2.671   7.519  1.1920  1.7137  1.1548
   46MOL0     H 6210   8.947   2.489   7.677  0.3014  1.8641 -0.5937
   47MOL0     O 6211   4.873   1.439   5.964  0.1810 -0.1870  0.0460
   47MOL0     C 6212   4.792   1.359   5.930  0.1635 -0.2107 -0.4848
   47MOL0     O 6213   4.752   1.252   6.011 -0.1638 -0.1901 -0.0597
   47MOL0     C 6214   4.814   1.226   6.135 -0.2289  0.2732 -0.1736
   47MOL0     C 6215   4.938   1.266   6.188  0.8254  0.0856 -0.1070
   47MOL0     C 6216   4.969   1.226   6.320  0.8233 -0.1461  0.1046
   47MOL0     C 6217   4.902   1.130   6.394 -0.3248  0.7328  1.2525
   47MOL0     O 6218   4.931   1.084   6.518 -0.1986 -0.4493 -0.5335
   47MOL0     C 6219   5.068   1.088   6.572  0.1306 -0.3538  0.2328
   47MOL0     C 6220   5.091   1.224   6.641 -0.3304 -0.2028 -0.2270
   47MOL0     C 6221   5.227   1.219   6.726  0.3116 -0.9127 -0.0780
   47MOL0     C 6222   5.362   1.190   6.663 -0.5174 -0.5376 -1.0574
   47MOL0     C 6223   5.474   1.178   6.778  0.4986 -0.2059 -0.6329
   47MOL0     C 6224   5.516   1.316   6.840  0.5694  0.8121  0.4635
   47MOL0     C 6225   5.514   1.310   7.002  0.6217  0.9183 -0.2110
   47MOL0     C 6226   5.588   1.201   7.067  0.2872  0.4417  0.2400
   47MOL0     N 6227   5.729   1.211   7.063  0.3256 -0.4482 -0.4588
   47MOL0     C 6228   5.803   1.108   7.020 -0.7856  0.7229 -0.4712
   47MOL0     C 6229   5.930   1.156   7.012 -0.4888  0.4158  0.5712
   47MOL0     C 6230   6.058   1.073   6.966 -0.8011  0.3057 -0.0960
   47MOL0     C 6231   6.185   1.152   6.960 -0.2113 -0.1859  0.1439
   47MOL0     C 6232   6.193   1.282   6.872  0.7407 -0.0995  0.0449
   47MOL0     C 6233   6.230   1.240   6.727 -0.1280  1.2323 -0.4275
   47MOL0     O 6234   6.123   1.163   6.675 -0.0515  0.1166 -1.1368
   47MOL0     C 6235   6.017   1.209   6.610  0.6754  0.4629 -0.6494
   47MOL0     C 6236   5.972   1.351   6.604  0.1709 -0.0520  0.0997
   47MOL0     C 6237   5.850   1.376   6.538 -0.9205 -0.2081 -0.1010
   47MOL0     C 6238   5.811   1.526   6.543 -0.8222  0.3533 -0.5557
   47MOL0     C 6239   5.776   1.265   6.476  0.2102  0.1403  0.3769
   47MOL0     C 6240   5.652   1.278   6.401  0.2922  0.2257 -0.0547
   47MOL0     O 6241   5.607   1.172   6.319  0.3437 -0.6038  0.3824
   47MOL0     C 6242   5.524   1.189   6.208  0.6840 -0.4773  0.9190
   47MOL0     C 6243   5.537   1.274   6.105  0.3866 -0.2281  0.0817
   47MOL0     C 6244   5.446   1.275   6.000 -0.5181 -0.1710 -0.3573
   47MOL0     C 6245   5.341   1.184   5.992 -0.0030  0.3120  0.3066
   47MOL0     O 6246   5.261   1.193   5.880  0.8117 -0.5140  0.0806
   47MOL0     C 6247   5.133   1.126   5.877 -0.0353  0.2105 -0.3164
   47MOL0     C 6248   5.066   1.186   5.756 -0.1452  0.0730  0.3836
   47MOL0     C 6249   5.128   1.135   5.620 -0.7512 -0.6092  0.4308
   47MOL0     C 6250   5.023   1.118   5.506 -0.1587 -1.0977 -0.0692
   47MOL0     C 6251   5.006   1.256   5.440 -0.1420  0.0880 -0.2885
   47MOL0     C 6252   4.923   1.256   5.320  0.7108 -0.3764  0.0370
   47MOL0     C 6253   4.948   1.381   5.231 -0.3052 -0.3782 -0.1304
   47MOL0     C 6254   4.839   1.377   5.133  0.2600 -1.1723  0.2113
   47MOL0    Cl 6255   4.862   1.230   5.021  0.6731  0.3272  0.4438
   47MOL0     C 6256   5.338   1.093   6.103  1.4608  0.2152  0.8123
   47MOL0     C 6257   5.430   1.090   6.195  0.0187  0.4220 -0.4150
   47MOL0     O 6258   5.595   1.388   6.398 -0.6152  0.7125 -0.4173
   47MOL0     C 6259   5.839   1.140   6.461 -0.3614  1.3835 -1.1410
   47MOL0     C 6260   5.945   1.116   6.546  0.7825 -0.4347  0.2646
   47MOL0     N 6261   5.930   1.275   7.087 -0.3805  1.3356 -0.2523
   47MOL0     N 6262   5.809   1.311   7.108  1.0120  0.6022 -0.2620
   47MOL0     C 6263   4.779   1.080   6.334 -1.1920  0.2964  0.0865
   47MOL0     C 6264   4.734   1.136   6.214 -0.3127  0.0206 -0.2137
   47MOL0     C 6265   4.722   1.395   5.807 -0.1038  0.8509 -0.1849
   47MOL0     C 6266   4.626   1.301   5.768 -0.1948 -0.3798  0.2502
   47MOL0     C 6267   4.557   1.320   5.652  0.9820  0.3234  0.0420
   47MOL0     C 6268   4.585   1.429   5.570  0.1256  0.7795 -0.7667
   47MOL0     O 6269   4.511   1.459   5.456  0.2790 -0.7232 -0.7099
   47MOL0     C 6270   4.413   1.370   5.408 -1.1021 -0.5102 -0.1344
   47MOL0     C 6271   4.360   1.425   5.279  0.4973  0.0673 -0.4034
   47MOL0     C 6272   4.276   1.558   5.285  0.2595  0.7207  0.0075
   47MOL0     C 6273   4.243   1.603   5.141 -0.5652 -0.1310 -0.6604
   47MOL0     C 6274   4.349   1.652   5.061 -0.3806 -0.3123  0.8995
   47MOL0     C 6275   4.417   1.724   4.996 -0.8762  1.5063 -0.7536
   47MOL0     C 6276   4.679   1.518   5.600  0.6992 -0.3292 -0.1157
   47MOL0     C 6277   4.745   1.502   5.726  0.4929 -0.8051 -0.0352
   47MOL0     H 6278   5.011   1.334   6.143  1.6924 -1.5686 -1.3226
   47MOL0     H 6279   5.058   1.272   6.362 -0.2866  0.3266  2.0360
   47MOL0     H 6280   5.088   1.001   6.636  2.9951  0.3329  0.3806
   47MOL0     H 6281   5.123   1.070   6.479  0.0088 -1.7074  0.3960
   47MOL0     H 6282   5.078   1.306   6.569 -2.1500 -0.8728 -0.7124
   47MOL0     H 6283   5.019   1.241   6.721  0.8318 -2.3981  1.3779
   47MOL0     H 6284   5.230   1.318   6.772 -1.3204 -1.0637  0.4086
   47MOL0     H 6285   5.215   1.146   6.807  2.2612  1.2758  2.3436
   47MOL0     H 6286   5.354   1.100   6.603 -0.4605 -1.3135  0.0579
   47MOL0     H 6287   5.380   1.275   6.596 -1.6554 -1.1201 -2.1318
   47MOL0     H 6288   5.425   1.118   6.855  0.0237  0.0886 -0.7048
   47MOL0     H 6289   5.562   1.131   6.734  2.0052  0.9496  0.9790
   47MOL0     H 6290   5.619   1.331   6.806  1.0810  0.1484  1.6571
   47MOL0     H 6291   5.460   1.403   6.805  1.7065  1.8410  1.1226
   47MOL0     H 6292   5.530   1.409   7.047  0.8172  1.4767 -1.4512
   47MOL0     H 6293   5.411   1.279   7.023  1.1393  0.6215  2.0575
   47MOL0     H 6294   5.544   1.108   7.033  1.4793 -1.1046  2.6165
   47MOL0     H 6295   5.561   1.206   7.173 -3.1335  0.8873 -0.5354
   47MOL0     H 6296   5.762   1.014   6.983 -1.2256  1.2513 -1.3558
   47MOL0     H 6297   6.072   0.984   7.029 -2.3322  1.1669  1.5297
   47MOL0     H 6298   6.036   1.036   6.865 -1.6877  1.8653 -0.5067
   47MOL0     H 6299   6.272   1.090   6.935 -1.3061 -1.3933 -0.8338
   47MOL0     H 6300   6.206   1.175   7.064 -3.7298  1.0297  0.7079
   47MOL0     H 6301   6.253   1.357   6.925 -1.5081  0.0375  2.6340
   47MOL0     H 6302   6.095   1.331   6.873  0.7636 -0.0525  0.0816
   47MOL0     H 6303   6.324   1.185   6.712  0.0428  1.3512  0.1935
   47MOL0     H 6304   6.244   1.323   6.657 -1.6936  0.8795 -1.2051
   47MOL0     H 6305   6.029   1.427   6.656  1.3666 -0.2862 -0.8399
   47MOL0     H 6306   5.719   1.527   6.603 -0.0463 -1.5720  0.7676
   47MOL0     H 6307   5.887   1.579   6.601 -1.1270 -1.1514  1.2980
   47MOL0     H 6308   5.806   1.563   6.440 -0.8344 -3.1078 -1.9450
   47MOL0     H 6309   5.620   1.343   6.108  0.9679 -0.8184 -1.6414
   47MOL0     H 6310   5.452   1.352   5.924 -1.3747  1.8944  1.5642
   47MOL0     H 6311   5.134   1.018   5.858 -2.2086  0.2570 -1.0511
   47MOL0     H 6312   5.072   1.142   5.967 -1.7315 -1.1659 -1.1600
   47MOL0     H 6313   4.962   1.155   5.748 -0.0173  0.0073 -1.5031
   47MOL0     H 6314   5.070   1.295   5.756  0.9563  0.0832  2.5636
   47MOL0     H 6315   5.175   1.037   5.632 -1.3726 -1.1866 -1.4164
   47MOL0     H 6316   5.203   1.212   5.597 -0.7800  0.3998  3.3186
   47MOL0     H 6317   5.055   1.047   5.429  1.4790  0.2379 -0.6771
   47MOL0     H 6318   4.928   1.085   5.548 -0.1126 -1.1653 -0.0167
   47MOL0     H 6319   5.101   1.306   5.421  1.4400 -2.8468 -0.5184
   47MOL0     H 6320   4.956   1.328   5.505 -1.3738  0.0610 -1.1632
   47MOL0     H 6321   4.954   1.176   5.253  1.6948  1.1662 -1.4427
   47MOL0     H 6322   4.816   1.248   5.344  0.4833 -0.4604 -0.9414
   47MOL0     H 6323   5.047   1.381   5.185 -1.2939  2.7544 -2.6229
   47MOL0     H 6324   4.941   1.478   5.281 -1.4022 -2.3280  3.9141
   47MOL0     H 6325   4.837   1.468   5.073 -5.3462 -0.7373  0.5343
   47MOL0     H 6326   4.743   1.374   5.185  0.4125 -1.1574  0.4933
   47MOL0     H 6327   5.258   1.021   6.103 -0.5758  2.3561 -0.4448
   47MOL0     H 6328   5.415   1.024   6.280  2.2668 -0.3765 -0.5697
   47MOL0     H 6329   5.784   1.054   6.424  0.7034 -0.3290  1.0332
   47MOL0     H 6330   5.972   1.011   6.549  2.7429 -0.0066 -0.7973
   47MOL0     H 6331   4.713   1.009   6.384 -1.1414 -0.9024 -1.4661
   47MOL0     H 6332   4.637   1.103   6.177 -1.2566 -1.9142  3.4617
   47MOL0     H 6333   4.598   1.211   5.820 -0.7719 -1.0566 -1.1907
   47MOL0     H 6334   4.469   1.260   5.635  1.0733 -1.3233  4.3893
   47MOL0     H 6335   4.459   1.272   5.398 -0.1095  0.1063 -2.3893
   47MOL0     H 6336   4.335   1.352   5.483  0.0782 -4.7945  0.3104
   47MOL0     H 6337   4.300   1.347   5.233 -0.5880  0.7968 -0.2728
   47MOL0     H 6338   4.440   1.428   5.205 -0.4181 -1.8978 -1.5319
   47MOL0     H 6339   4.324   1.635   5.345  0.5680  2.4619 -2.3139
   47MOL0     H 6340   4.174   1.539   5.320 -0.7145  0.5670 -2.6584
   47MOL0     H 6341   4.171   1.686   5.135 -0.1692  0.1263 -2.5396
   47MOL0     H 6342   4.202   1.519   5.084  2.7784 -1.7227 -0.9336
   47MOL0     H 6343   4.485   1.781   4.936  1.4029 -0.1933  0.0919
   47MOL0     H 6344   4.695   1.604   5.535  0.0457  0.7781  1.1146
   47MOL0     H 6345   4.818   1.579   5.748 -0.0499 -0.2763 -0.0570
   48MOL0     O 6346   1.162   4.219  11.288 -0.0103 -0.2728  0.1132
   48MOL0     C 6347   1.085   4.206  11.194 -0.1267 -0.4486  0.0554
   48MOL0     O 6348   1.132   4.186  11.063  1.0378  0.5510  0.9860
   48MOL0     C 6349   1.270   4.188  11.045 -0.1569  0.8750  0.5096
   48MOL0     C 6350   1.348   4.302  11.076 -0.9068  0.0019 -0.2372
   48MOL0     C 6351   1.489   4.304  11.034 -0.1415  0.0576 -0.8723
   48MOL0     C 6352   1.550   4.194  10.983  0.2392  0.5752 -0.0497
   48MOL0     O 6353   1.692   4.187  10.952  0.1097 -0.0422 -0.4997
   48MOL0     C 6354   1.758   4.090  11.037 -0.2328  0.3903  0.8890
   48MOL0     C 6355   1.908   4.116  11.027 -0.9529 -0.1486 -0.5133
   48MOL0     C 6356   1.982   4.027  11.129 -0.7472  0.1041  0.6800
   48MOL0     C 6357   2.126   4.042  11.133 -0.3405  0.0051  0.7122
   48MOL0     C 6358   2.204   3.956  11.222 -0.4854 -0.0954  0.4619
   48MOL0     C 6359   2.357   3.979  11.190  0.6225 -0.0075  0.3747
   48MOL0     C 6360   2.447   3.931  11.293 -0.6770 -0.6098  0.4851
   48MOL0     C 6361   2.591   3.955  11.252 -0.3000 -0.2527  0.2590
   48MOL0     N 6362   2.681   3.876  11.338  1.0460  0.0196  0.8964
   48MOL0     C 6363   2.675   3.876  11.473 -0.2331  0.1741 -0.1275
   48MOL0     C 6364   2.739   3.761  11.512  0.7757 -0.0128  0.3839
   48MOL0     C 6365   2.744   3.728  11.663 -0.2256  0.3143  0.1247
   48MOL0     C 6366   2.793   3.835  11.752 -1.1714  0.1733  0.0101
   48MOL0     C 6367   2.786   3.777  11.897 -0.6957  0.0409  0.1603
   48MOL0     C 6368   2.862   3.641  11.916  0.2074 -0.2858  0.1408
   48MOL0     O 6369   2.873   3.603  12.053  0.9002  0.2158  0.4968
   48MOL0     C 6370   2.799   3.494  12.074  1.1511  0.1939  0.2949
   48MOL0     C 6371   2.852   3.364  12.066  0.7639 -0.7187  0.6715
   48MOL0     C 6372   2.774   3.248  12.077 -0.7097  0.3433 -0.6114
   48MOL0     C 6373   2.847   3.116  12.066  0.2786  0.6975 -0.3163
   48MOL0     C 6374   2.639   3.258  12.113 -0.0939  0.4650  0.1051
   48MOL0     C 6375   2.538   3.146  12.125 -0.1468  0.2558  0.5367
   48MOL0     O 6376   2.582   3.014  12.086  0.2513  0.1059  0.1888
   48MOL0     C 6377   2.490   2.921  12.062  0.8891  0.0721 -0.2967
   48MOL0     C 6378   2.502   2.798  12.132  0.2488  0.8329  0.9646
   48MOL0     C 6379   2.405   2.702  12.126 -0.7648 -1.1590 -0.5183
   48MOL0     C 6380   2.296   2.715  12.042 -0.7962  0.6484 -0.4242
   48MOL0     O 6381   2.195   2.621  12.026 -0.3835 -0.9569 -0.3143
   48MOL0     C 6382   2.254   2.492  12.002 -0.3535  0.1135 -0.3115
   48MOL0     C 6383   2.150   2.405  11.937  0.4524  0.5943  0.6091
   48MOL0     C 6384   2.036   2.368  12.035  0.2996  0.0378 -0.6460
   48MOL0     C 6385   1.930   2.289  11.945 -0.0664 -0.0027 -0.5882
   48MOL0     C 6386   1.848   2.204  12.035  0.1915  0.2387  0.5903
   48MOL0     C 6387   1.740   2.275  12.126  0.2638 -0.9630  1.9214
   48MOL0     C 6388   1.643   2.180  12.185  0.3055 -0.0102 -0.2574
   48MOL0     C 6389   1.589   2.253  12.314 -0.0766 -0.1387 -1.1420
   48MOL0    Cl 6390   1.494   2.399  12.264 -0.7679  0.5649 -0.2545
   48MOL0     C 6391   2.277   2.836  11.971  1.1920  0.0322 -0.7635
   48MOL0     C 6392   2.373   2.937  11.992  0.8679  0.1072 -0.3524
   48MOL0     O 6393   2.425   3.163  12.171  1.2571 -1.0970 -0.2726
   48MOL0     C 6394   2.587   3.393  12.114  0.4722  0.5888  0.6370
   48MOL0     C 6395   2.658   3.507  12.094 -0.3268  0.2914 -0.3570
   48MOL0     N 6396   2.779   3.690  11.401  0.3058  0.3706  0.3830
   48MOL0     N 6397   2.746   3.763  11.295 -0.0016  0.1197 -0.1259
   48MOL0     C 6398   1.471   4.074  10.957 -0.1224 -0.6840  0.4122
   48MOL0     C 6399   1.336   4.076  10.987  0.2565  0.2271  0.9154
   48MOL0     C 6400   0.945   4.233  11.234 -1.3809 -0.3727  0.0195
   48MOL0     C 6401   0.850   4.222  11.136  1.0582 -0.6431 -0.6230
   48MOL0     C 6402   0.716   4.229  11.166 -0.2239 -0.1791 -0.4712
   48MOL0     C 6403   0.677   4.247  11.298 -0.0123  0.0590  1.3676
   48MOL0     O 6404   0.551   4.232  11.342  0.3337 -0.2331  0.6668
   48MOL0     C 6405   0.499   4.104  11.341  0.2557  0.0370  1.1382
   48MOL0     C 6406   0.361   4.093  11.409 -0.2234 -1.2867 -0.9328
   48MOL0     C 6407   0.263   4.197  11.351  0.6392 -0.1020 -0.1093
   48MOL0     C 6408   0.116   4.186  11.401 -0.1484  0.9864  1.0261
   48MOL0     C 6409   0.106   4.212  11.545  0.2097  0.2113 -0.4059
   48MOL0     C 6410   0.122   4.216  11.664  0.9710  0.8266  0.4010
   48MOL0     C 6411   0.778   4.267  11.398 -1.0831 -0.5240 -0.0356
   48MOL0     C 6412   0.912   4.266  11.364  0.3272 -1.3448  0.4088
   48MOL0     H 6413   1.302   4.394  11.111  2.3404  1.7049 -0.0274
   48MOL0     H 6414   1.545   4.394  11.058 -0.7278 -0.0865  1.1678
   48MOL0     H 6415   1.730   4.098  11.143  0.0591  3.0001  0.8466
   48MOL0     H 6416   1.748   3.990  10.995  3.5341  0.9596 -1.9226
   48MOL0     H 6417   1.946   4.091  10.927  2.1717 -0.0859  0.5256
   48MOL0     H 6418   1.934   4.220  11.053  2.5066 -1.0691  0.3012
   48MOL0     H 6419   1.941   4.049  11.229  2.9429 -3.1009  3.1912
   48MOL0     H 6420   1.952   3.924  11.106 -0.0036  0.5739 -3.0061
   48MOL0     H 6421   2.169   4.009  11.037  0.6109 -0.3693  1.2487
   48MOL0     H 6422   2.146   4.149  11.141  1.2919 -0.0125 -1.7785
   48MOL0     H 6423   2.180   3.986  11.324  0.2835  2.5507 -0.0474
   48MOL0     H 6424   2.190   3.849  11.207  2.8713 -0.5873  0.1079
   48MOL0     H 6425   2.375   3.940  11.089 -0.1754 -2.5794  1.1596
   48MOL0     H 6426   2.364   4.088  11.180 -0.2632 -0.1537 -2.9978
   48MOL0     H 6427   2.417   3.991  11.379 -1.5058  1.0609 -0.8979
   48MOL0     H 6428   2.435   3.826  11.320  3.1974 -0.6294  2.8998
   48MOL0     H 6429   2.605   4.062  11.271  0.4776 -0.1893 -0.5938
   48MOL0     H 6430   2.614   3.934  11.147  0.2650  0.8840  0.1413
   48MOL0     H 6431   2.635   3.958  11.532  3.5295 -0.5893  4.0764
   48MOL0     H 6432   2.648   3.685  11.697  1.6729 -3.8305  0.8908
   48MOL0     H 6433   2.815   3.645  11.663  0.6214  1.0122 -1.3180
   48MOL0     H 6434   2.721   3.916  11.743 -1.9053 -0.6847 -3.0488
   48MOL0     H 6435   2.890   3.865  11.713 -0.6190 -2.6314 -1.0299
   48MOL0     H 6436   2.683   3.765  11.930 -0.5514  1.6388  1.3372
   48MOL0     H 6437   2.831   3.847  11.969  0.9127 -1.3167  0.5311
   48MOL0     H 6438   2.960   3.652  11.868  0.8279  2.6994  1.8373
   48MOL0     H 6439   2.805   3.568  11.856  1.4586  0.2753 -1.8213
   48MOL0     H 6440   2.959   3.361  12.046  1.2479  2.6642  2.0119
   48MOL0     H 6441   2.944   3.125  12.014  0.4625 -1.0047 -0.3245
   48MOL0     H 6442   2.864   3.062  12.159 -1.2065 -0.8201 -0.8757
   48MOL0     H 6443   2.794   3.059  11.989  0.0963 -1.4059  1.2736
   48MOL0     H 6444   2.590   2.797  12.194  0.6386 -4.9481  0.8815
   48MOL0     H 6445   2.412   2.621  12.198  3.9860 -2.1516 -1.7483
   48MOL0     H 6446   2.342   2.489  11.936  0.0384 -0.7957  0.2318
   48MOL0     H 6447   2.273   2.440  12.096  2.4514 -1.0108 -1.3956
   48MOL0     H 6448   2.115   2.460  11.850 -0.8843  1.0863  1.4304
   48MOL0     H 6449   2.184   2.305  11.907 -0.5062  0.7606 -1.1459
   48MOL0     H 6450   1.978   2.450  12.078 -1.7906 -3.8763  5.1498
   48MOL0     H 6451   2.066   2.305  12.119 -1.4984 -0.7309 -0.5313
   48MOL0     H 6452   1.876   2.354  11.876  1.1537  0.4018 -1.1855
   48MOL0     H 6453   1.987   2.231  11.872 -2.0202 -0.0584 -2.1447
   48MOL0     H 6454   1.908   2.125  12.081 -0.2418 -2.1567 -2.6525
   48MOL0     H 6455   1.783   2.147  11.969  0.3091  0.2468  0.4663
   48MOL0     H 6456   1.781   2.337  12.206  2.8541 -2.4625  1.8795
   48MOL0     H 6457   1.693   2.340  12.053 -0.3297 -1.4111  1.9000
   48MOL0     H 6458   1.679   2.083  12.221 -0.4097 -1.0865 -2.2870
   48MOL0     H 6459   1.569   2.131  12.120  0.7044 -2.4365  1.0076
   48MOL0     H 6460   1.676   2.268  12.378  2.0524 -2.9493 -3.1267
   48MOL0     H 6461   1.522   2.187  12.369  1.2175  0.4058  1.2349
   48MOL0     H 6462   2.192   2.859  11.906  1.6059 -1.0569 -1.7326
   48MOL0     H 6463   2.346   3.035  11.955 -0.7143 -0.3878 -0.5876
   48MOL0     H 6464   2.483   3.401  12.143  0.8776  0.7694  2.1132
   48MOL0     H 6465   2.609   3.603  12.084  0.1858  0.4415 -1.6915
   48MOL0     H 6466   1.512   3.984  10.914  0.4906 -0.9365  1.4860
   48MOL0     H 6467   1.270   3.991  10.970  0.8620 -0.0768  0.0355
   48MOL0     H 6468   0.880   4.181  11.040  0.0469 -3.3552  0.1028
   48MOL0     H 6469   0.640   4.216  11.090  1.2283  1.5292 -2.3086
   48MOL0     H 6470   0.502   4.058  11.242 -1.9219  0.1428  0.9745
   48MOL0     H 6471   0.554   4.033  11.404 -2.2113 -1.5055  1.6874
   48MOL0     H 6472   0.368   4.112  11.517 -1.4538 -1.3011 -0.8322
   48MOL0     H 6473   0.316   3.994  11.403 -0.9470 -1.1348  1.2169
   48MOL0     H 6474   0.253   4.195  11.242  3.3719  0.6061 -0.4544
   48MOL0     H 6475   0.298   4.297  11.380  0.6300 -0.3479  0.7566
   48MOL0     H 6476   0.086   4.081  11.403  2.4747  0.1351  0.0118
   48MOL0     H 6477   0.064   4.250  11.329  2.0548 -0.3368 -1.9881
   48MOL0     H 6478   0.148   4.231  11.766 -1.9256 -0.2460  1.3863
   48MOL0     H 6479   0.740   4.277  11.499 -1.3154 -0.2489 -0.1491
   48MOL0     H 6480   0.986   4.283  11.441 -1.3441  5.9405  1.1714
   49MOL0     O 6481   0.314   1.194   9.984 -0.4008 -0.1602  0.3056
   49MOL0     C 6482   0.258   1.099  10.009  0.5848  0.5681  0.0757
   49MOL0     O 6483   0.148   1.103  10.088 -0.5180  1.3273 -0.1886
   49MOL0     C 6484   0.086   1.217  10.124  0.7502  0.1830  0.3827
   49MOL0     C 6485   0.036   1.307  10.031 -1.0864 -0.2106  0.6803
   49MOL0     C 6486  -0.049   1.410  10.070  0.0361  0.5488  0.6708
   49MOL0     C 6487  -0.090   1.424  10.202 -0.0340 -0.7695 -0.0538
   49MOL0     O 6488  -0.163   1.534  10.239 -0.4944 -0.2767 -0.2126
   49MOL0     C 6489  -0.244   1.514  10.350  0.1163 -0.7047  0.6710
   49MOL0     C 6490  -0.365   1.612  10.336  0.4173 -0.7089 -0.5073
   49MOL0     C 6491  -0.455   1.575  10.218  0.6985  0.4595 -0.6778
   49MOL0     C 6492  -0.569   1.671  10.189 -0.2085 -0.3880 -0.4371
   49MOL0     C 6493  -0.651   1.615  10.075  0.2136 -0.1008 -0.0618
   49MOL0     C 6494  -0.771   1.715  10.059  0.6521  0.3598 -0.4803
   49MOL0     C 6495  -0.868   1.666   9.953  1.3424 -0.0781  0.3109
   49MOL0     C 6496  -0.977   1.767   9.943  0.3832 -0.3004 -0.6597
   49MOL0     N 6497  -1.075   1.729   9.837 -0.7986  0.1378  0.2553
   49MOL0     C 6498  -1.115   1.803   9.738 -0.3026  0.2425  0.1862
   49MOL0     C 6499  -1.197   1.733   9.660  0.3333  0.4631  0.2684
   49MOL0     C 6500  -1.245   1.778   9.521 -0.4248  0.5163  0.0402
   49MOL0     C 6501  -1.125   1.805   9.432 -0.1106 -0.2898 -0.0441
   49MOL0     C 6502  -1.015   1.701   9.422  0.4171  0.3570 -0.9786
   49MOL0     C 6503  -1.069   1.559   9.422 -0.0536  0.4164  0.1944
   49MOL0     O 6504  -0.970   1.461   9.390 -0.7327 -0.1626 -1.0441
   49MOL0     C 6505  -0.895   1.396   9.484 -0.3208 -0.6522  0.0476
   49MOL0     C 6506  -0.806   1.292   9.435 -0.0426 -0.3643 -0.2776
   49MOL0     C 6507  -0.743   1.198   9.528  0.8579 -0.1119 -0.8047
   49MOL0     C 6508  -0.656   1.081   9.476 -0.0181 -0.3003  0.6068
   49MOL0     C 6509  -0.759   1.220   9.677  0.7754  0.4345 -0.4075
   49MOL0     C 6510  -0.688   1.140   9.778  0.0790 -0.6525 -0.5950
   49MOL0     O 6511  -0.674   1.205   9.900 -0.2934  0.6684 -0.6850
   49MOL0     C 6512  -0.627   1.143  10.007 -0.3798 -0.8265 -1.1471
   49MOL0     C 6513  -0.536   1.226  10.089 -0.3185 -1.0896 -0.1592
   49MOL0     C 6514  -0.499   1.167  10.214  0.3181  0.4384 -0.1240
   49MOL0     C 6515  -0.564   1.053  10.274 -0.1084  0.6933 -0.2542
   49MOL0     O 6516  -0.546   0.991  10.395  0.6279  0.0483  0.3968
   49MOL0     C 6517  -0.406   0.983  10.437  1.0746 -0.4646  0.4410
   49MOL0     C 6518  -0.398   0.959  10.590  0.2834  0.0730 -0.5419
   49MOL0     C 6519  -0.399   1.090  10.671  0.6091 -0.4247  0.2604
   49MOL0     C 6520  -0.524   1.175  10.646 -0.1520  0.5972  0.0973
   49MOL0     C 6521  -0.548   1.274  10.752 -1.0630 -0.1103  0.7708
   49MOL0     C 6522  -0.670   1.369  10.732 -0.0793  0.2418  0.6436
   49MOL0     C 6523  -0.687   1.476  10.843 -0.4890  1.0911  0.8908
   49MOL0     C 6524  -0.751   1.594  10.771 -0.1611  0.6259  0.0955
   49MOL0    Cl 6525  -0.916   1.550  10.728 -0.4161 -0.1699  0.5779
   49MOL0     C 6526  -0.651   0.991  10.187 -0.0614  0.5474 -0.4488
   49MOL0     C 6527  -0.703   1.039  10.068 -0.3412  0.9918  0.5077
   49MOL0     O 6528  -0.658   1.022   9.757 -0.0657 -0.3404 -0.8416
   49MOL0     C 6529  -0.836   1.328   9.714 -0.6376 -0.0398 -1.0164
   49MOL0     C 6530  -0.901   1.416   9.615  0.7229  0.9820 -1.2200
   49MOL0     N 6531  -1.215   1.609   9.723  0.4616  0.4400  0.7774
   49MOL0     N 6532  -1.138   1.610   9.826  0.1476 -0.4019  0.2925
   49MOL0     C 6533  -0.023   1.346  10.297  0.5420  0.6928 -0.3674
   49MOL0     C 6534   0.068   1.241  10.261  0.7003  0.1083 -0.2616
   49MOL0     C 6535   0.304   0.977   9.953 -0.0724  0.8630  0.6341
   49MOL0     C 6536   0.235   0.860   9.973  0.2304 -0.0201  0.3510
   49MOL0     C 6537   0.276   0.732   9.921  0.5956 -0.0763  0.4256
   49MOL0     C 6538   0.400   0.717   9.848 -0.8712  0.4046  0.7234
   49MOL0     O 6539   0.424   0.597   9.786 -0.8924 -0.6921  1.0623
   49MOL0     C 6540   0.561   0.551   9.773  0.2597  0.0724 -0.2568
   49MOL0     C 6541   0.564   0.432   9.681  0.2563 -0.6587 -0.7362
   49MOL0     C 6542   0.579   0.449   9.528 -0.0297  0.1024 -0.2025
   49MOL0     C 6543   0.471   0.548   9.474 -1.1761 -1.3103  0.4488
   49MOL0     C 6544   0.456   0.541   9.329  0.0068 -0.6452  0.3130
   49MOL0     C 6545   0.446   0.527   9.202 -0.8801 -0.4011 -0.2699
   49MOL0     C 6546   0.471   0.840   9.825 -0.0768  0.2946 -0.4825
   49MOL0     C 6547   0.427   0.959   9.892 -0.1236 -0.1486 -0.3895
   49MOL0     H 6548   0.057   1.308   9.924 -1.4061 -0.1482  0.6189
   49MOL0     H 6549  -0.084   1.480   9.994  1.5846 -0.7048 -1.2966
   49MOL0     H 6550  -0.298   1.419  10.337  0.8701 -0.8330 -2.3311
   49MOL0     H 6551  -0.193   1.529  10.445  0.8860  2.7831 -0.1511
   49MOL0     H 6552  -0.436   1.617  10.420 -2.7386 -1.0871 -2.9543
   49MOL0     H 6553  -0.335   1.716  10.319  1.3961  0.0883  4.4954
   49MOL0     H 6554  -0.390   1.558  10.131  0.1512 -1.7269 -0.7278
   49MOL0     H 6555  -0.491   1.475  10.245  2.0591  0.4483  1.3423
   49MOL0     H 6556  -0.631   1.671  10.279  1.0538 -1.7316  0.4856
   49MOL0     H 6557  -0.530   1.768  10.158 -1.6140  0.4692  0.3802
   49MOL0     H 6558  -0.596   1.596   9.982  0.6017 -0.1963  0.1842
   49MOL0     H 6559  -0.689   1.516  10.102 -0.1951 -0.0611 -0.4822
   49MOL0     H 6560  -0.820   1.712  10.157 -1.0992  2.0621 -1.2233
   49MOL0     H 6561  -0.741   1.819  10.043  2.2014  0.5534  2.8824
   49MOL0     H 6562  -0.820   1.670   9.855  3.2358  6.6044  1.0189
   49MOL0     H 6563  -0.916   1.570   9.973 -0.4054  0.7948  0.4826
   49MOL0     H 6564  -0.945   1.871   9.934  0.5144  0.1191  3.2188
   49MOL0     H 6565  -1.039   1.754  10.032  3.3667  0.3408  1.7158
   49MOL0     H 6566  -1.076   1.903   9.720  0.9245 -0.2870 -0.2016
   49MOL0     H 6567  -1.313   1.706   9.476  0.8819 -1.3744  0.9239
   49MOL0     H 6568  -1.302   1.870   9.538 -3.1202 -0.5470 -2.5813
   49MOL0     H 6569  -1.086   1.904   9.460  1.2716 -1.0236  0.7690
   49MOL0     H 6570  -1.175   1.828   9.338 -3.8850  0.7823  2.0074
   49MOL0     H 6571  -0.960   1.709   9.516 -0.6908 -0.6916 -0.2098
   49MOL0     H 6572  -0.961   1.720   9.329  0.8254 -0.1153 -0.8424
   49MOL0     H 6573  -1.143   1.547   9.342 -1.8205 -2.0840  2.0443
   49MOL0     H 6574  -1.108   1.528   9.520 -0.0823  0.2241  0.1233
   49MOL0     H 6575  -0.803   1.278   9.328  4.2796 -0.8070 -0.2672
   49MOL0     H 6576  -0.562   1.079   9.532  0.7727 -0.3918 -0.6994
   49MOL0     H 6577  -0.705   0.984   9.481 -0.5810 -0.1364 -1.2025
   49MOL0     H 6578  -0.629   1.088   9.371 -0.1946  0.9092  0.6266
   49MOL0     H 6579  -0.498   1.322  10.055  2.2121 -0.5222  3.5796
   49MOL0     H 6580  -0.419   1.223  10.261 -0.3274  1.0283  0.3019
   49MOL0     H 6581  -0.369   0.896  10.382  1.8598 -0.2524  0.6054
   49MOL0     H 6582  -0.340   1.061  10.398 -1.2639  1.1837 -0.4188
   49MOL0     H 6583  -0.482   0.896  10.619 -0.0616  0.3424 -0.9535
   49MOL0     H 6584  -0.307   0.899  10.603 -2.1329 -3.7038  0.6363
   49MOL0     H 6585  -0.312   1.146  10.638  0.1418 -0.4052 -1.0054
   49MOL0     H 6586  -0.410   1.064  10.777 -1.1622 -1.5403 -0.1525
   49MOL0     H 6587  -0.520   1.220  10.546  1.2165  0.0669 -0.1013
   49MOL0     H 6588  -0.613   1.111  10.646  0.0773  0.2006  2.3677
   49MOL0     H 6589  -0.462   1.341  10.748 -1.6175  0.5981  0.2357
   49MOL0     H 6590  -0.553   1.238  10.855 -2.9187 -0.0850  0.7262
   49MOL0     H 6591  -0.674   1.401  10.628  0.5335  1.9756  1.1256
   49MOL0     H 6592  -0.755   1.302  10.750 -1.3869  1.3994 -0.9691
   49MOL0     H 6593  -0.589   1.500  10.886 -0.4652  0.4224  1.2226
   49MOL0     H 6594  -0.753   1.437  10.920 -2.2854  5.4598  1.8605
   49MOL0     H 6595  -0.687   1.611  10.684 -1.7849 -1.4153 -1.6070
   49MOL0     H 6596  -0.749   1.687  10.830  2.5020  0.8022 -0.1323
   49MOL0     H 6597  -0.708   0.912  10.234 -2.9422  2.2926 -0.7800
   49MOL0     H 6598  -0.776   0.988  10.006  0.1164 -0.1693  0.8978
   49MOL0     H 6599  -0.858   1.334   9.820  2.3755  1.6886 -0.3695
   49MOL0     H 6600  -0.962   1.500   9.647 -0.7468  1.4538 -4.8315
   49MOL0     H 6601  -0.016   1.368  10.403 -2.3720 -0.8686  0.2499
   49MOL0     H 6602   0.122   1.175  10.327  2.1567  1.1111 -0.4157
   49MOL0     H 6603   0.146   0.883  10.030  0.7291  3.2514 -0.0343
   49MOL0     H 6604   0.206   0.651   9.939 -1.8544  1.3425 -1.8761
   49MOL0     H 6605   0.622   0.632   9.731  0.1270  1.5086  2.1397
   49MOL0     H 6606   0.592   0.531   9.876  0.6204 -0.4719 -0.4619
   49MOL0     H 6607   0.478   0.367   9.694  0.2220 -0.7866 -1.5859
   49MOL0     H 6608   0.655   0.380   9.714  0.2730  1.5104  3.2719
   49MOL0     H 6609   0.574   0.350   9.481  0.4762 -1.0534  1.9985
   49MOL0     H 6610   0.679   0.482   9.502 -0.4207  1.7652  0.2737
   49MOL0     H 6611   0.503   0.650   9.497 -0.1101 -0.6391 -3.4020
   49MOL0     H 6612   0.375   0.521   9.519 -0.6850 -2.2215  0.9922
   49MOL0     H 6613   0.443   0.507   9.097 -0.9459 -1.8589 -0.0179
   49MOL0     H 6614   0.558   0.855   9.761  1.4359  0.2105  1.4357
   49MOL0     H 6615   0.491   1.046   9.884 -0.5335  0.2694  0.7657
   50MOL0     O 6616   7.969   0.238   4.758  0.4481 -0.0637  0.8338
   50MOL0     C 6617   7.892   0.180   4.679 -0.2652  0.8471  0.1550
   50MOL0     O 6618   7.794   0.094   4.716 -0.4395  0.2722  0.3335
   50MOL0     C 6619   7.761   0.077   4.854 -0.5048 -0.0644  0.3689
   50MOL0     C 6620   7.720  -0.050   4.880  0.6475  0.0826 -0.0370
   50MOL0     C 6621   7.691  -0.103   5.010 -0.1294 -0.6386  0.4999
   50MOL0     C 6622   7.697  -0.014   5.125 -0.2655  0.1186 -0.7783
   50MOL0     O 6623   7.672  -0.057   5.254  1.0369 -0.7304  0.2085
   50MOL0     C 6624   7.616   0.034   5.346 -0.7408 -0.0529 -0.3325
   50MOL0     C 6625   7.556  -0.048   5.458 -0.3167 -0.2070  0.3989
   50MOL0     C 6626   7.489   0.018   5.584  0.7129  0.2018 -0.0290
   50MOL0     C 6627   7.539  -0.039   5.718  0.3224 -0.6714 -0.0687
   50MOL0     C 6628   7.452   0.006   5.838 -0.6573 -0.6790 -0.7045
   50MOL0     C 6629   7.320  -0.075   5.850 -1.1367  0.1007 -0.8838
   50MOL0     C 6630   7.255  -0.041   5.980  0.0051  0.8822 -0.3628
   50MOL0     C 6631   7.101  -0.067   5.979 -0.4618 -0.2564  0.3872
   50MOL0     N 6632   7.075  -0.208   5.936 -0.1707 -0.6009 -0.1286
   50MOL0     C 6633   7.093  -0.323   6.005  0.0108  0.5075 -0.0375
   50MOL0     C 6634   7.047  -0.418   5.921 -0.1510 -0.8967  0.3219
   50MOL0     C 6635   7.043  -0.557   5.962  0.8848 -0.3724 -0.9851
   50MOL0     C 6636   6.927  -0.639   5.897 -0.2818 -1.1754 -0.3028
   50MOL0     C 6637   6.792  -0.626   5.960  0.3451 -0.6076  0.0183
   50MOL0     C 6638   6.691  -0.698   5.864  0.5029 -0.4866  0.1663
   50MOL0     O 6639   6.664  -0.612   5.748 -0.3326  0.4781 -0.1024
   50MOL0     C 6640   6.569  -0.665   5.668  1.4135 -0.2138  0.7397
   50MOL0     C 6641   6.552  -0.804   5.642 -0.8494  0.4363 -0.4076
   50MOL0     C 6642   6.457  -0.844   5.547  0.5126  0.8312 -0.5193
   50MOL0     C 6643   6.447  -0.997   5.527 -0.1334 -0.4730  0.3077
   50MOL0     C 6644   6.383  -0.749   5.477  0.3216  0.0169  0.1943
   50MOL0     C 6645   6.292  -0.772   5.371  0.1171 -0.1566  0.4418
   50MOL0     O 6646   6.215  -0.663   5.335 -0.1051 -0.1463 -0.2947
   50MOL0     C 6647   6.095  -0.678   5.276 -0.5459 -0.3957 -0.0288
   50MOL0     C 6648   5.984  -0.742   5.341 -0.7841 -0.5844 -0.1991
   50MOL0     C 6649   5.864  -0.770   5.272  1.0265 -0.5080 -0.4005
   50MOL0     C 6650   5.841  -0.719   5.140  0.8024  0.7384  0.3688
   50MOL0     O 6651   5.710  -0.738   5.088  0.3003  0.0497 -0.2459
   50MOL0     C 6652   5.664  -0.644   4.990  0.8461 -0.0584  0.4403
   50MOL0     C 6653   5.528  -0.697   4.930 -0.1722 -0.2817 -0.0424
   50MOL0     C 6654   5.558  -0.750   4.790 -0.0615  0.2652  0.5660
   50MOL0     C 6655   5.591  -0.639   4.681  0.2051  0.9913  0.7149
   50MOL0     C 6656   5.472  -0.553   4.638  0.3098 -1.0376  0.8073
   50MOL0     C 6657   5.499  -0.460   4.523  0.2951 -0.4490  0.0396
   50MOL0     C 6658   5.385  -0.367   4.489  0.0949 -0.6708 -0.4058
   50MOL0     C 6659   5.427  -0.288   4.368  0.2717 -0.0673 -0.0351
   50MOL0    Cl 6660   5.567  -0.193   4.404 -0.0696  0.4243  0.2789
   50MOL0     C 6661   5.945  -0.646   5.088  1.4053 -1.2701  0.2999
   50MOL0     C 6662   6.066  -0.631   5.150  0.3902 -0.2357  0.1208
   50MOL0     O 6663   6.286  -0.878   5.316 -0.4338  0.2726 -0.1472
   50MOL0     C 6664   6.392  -0.614   5.523 -0.6218 -0.1791  0.0910
   50MOL0     C 6665   6.483  -0.580   5.612 -0.1706  0.5312 -0.2507
   50MOL0     N 6666   7.011  -0.358   5.803  0.5888  0.2866 -0.4747
   50MOL0     N 6667   7.035  -0.232   5.811  1.2042 -0.0188 -0.0101
   50MOL0     C 6668   7.725   0.118   5.095 -0.1354 -0.0737  0.3737
   50MOL0     C 6669   7.752   0.163   4.964 -0.7143 -0.3966  0.3929
   50MOL0     C 6670   7.918   0.182   4.533  1.4094 -0.3908 -0.2019
   50MOL0     C 6671   7.851   0.094   4.442 -0.3396 -0.5706  0.3876
   50MOL0     C 6672   7.884   0.104   4.304 -0.1149  0.3848  0.3800
   50MOL0     C 6673   7.961   0.208   4.250  0.5053  0.3974  1.4102
   50MOL0     O 6674   8.012   0.220   4.123 -0.1433 -0.2023  0.4838
   50MOL0     C 6675   8.015   0.109   4.031 -0.2129 -0.0476 -0.5761
   50MOL0     C 6676   8.126   0.005   4.071  0.4431 -0.2571 -0.4055
   50MOL0     C 6677   8.274   0.064   4.071  0.6813  0.4160 -0.2289
   50MOL0     C 6678   8.292   0.161   3.951 -0.0092  0.7504 -0.5804
   50MOL0     C 6679   8.312   0.072   3.831  0.8167  0.2950  0.9966
   50MOL0     C 6680   8.317  -0.009   3.744 -0.3384  0.3400  0.6277
   50MOL0     C 6681   8.017   0.299   4.339 -0.3389  0.1565 -0.1740
   50MOL0     C 6682   7.993   0.286   4.475  0.3650 -0.4749 -0.6101
   50MOL0     H 6683   7.703  -0.110   4.791  0.8548  2.0614 -1.4907
   50MOL0     H 6684   7.691  -0.208   5.038 -1.5928  0.3412  5.1760
   50MOL0     H 6685   7.692   0.093   5.398 -3.6462  4.5685 -0.7321
   50MOL0     H 6686   7.535   0.100   5.313 -1.6921  0.9009  3.3956
   50MOL0     H 6687   7.489  -0.124   5.418  2.2305 -2.9103  0.9623
   50MOL0     H 6688   7.638  -0.103   5.506 -1.9306 -1.1364  2.2706
   50MOL0     H 6689   7.521   0.123   5.579  0.7905  0.1329 -2.2622
   50MOL0     H 6690   7.380   0.004   5.580  0.5337  1.1399  1.0564
   50MOL0     H 6691   7.544  -0.147   5.704 -2.3158 -0.6394 -2.1262
   50MOL0     H 6692   7.641  -0.003   5.736 -0.7812  2.5792  0.4943
   50MOL0     H 6693   7.511  -0.010   5.929 -1.1790  2.7101  0.3592
   50MOL0     H 6694   7.431   0.113   5.841  0.3570 -0.3909  4.1960
   50MOL0     H 6695   7.261  -0.046   5.762 -0.2283  0.6823 -1.3212
   50MOL0     H 6696   7.340  -0.182   5.848  3.3306  0.7287  0.2851
   50MOL0     H 6697   7.302  -0.102   6.058 -0.2355  2.5042  1.1201
   50MOL0     H 6698   7.278   0.061   6.013 -3.0498  1.4422  0.2829
   50MOL0     H 6699   7.048   0.001   5.912 -0.1720 -0.2438  0.1709
   50MOL0     H 6700   7.060  -0.055   6.080  2.5159  0.0766  1.6825
   50MOL0     H 6701   7.133  -0.343   6.104  1.3719  0.8935 -0.4891
   50MOL0     H 6702   7.133  -0.613   5.933  0.6178 -0.5292 -1.5218
   50MOL0     H 6703   7.041  -0.563   6.072  2.9138 -3.8733 -0.9749
   50MOL0     H 6704   6.964  -0.741   5.884  1.8183 -0.5863  0.5007
   50MOL0     H 6705   6.923  -0.591   5.799  2.7150  1.6809  0.7821
   50MOL0     H 6706   6.759  -0.523   5.974 -0.3454 -0.7201 -0.7034
   50MOL0     H 6707   6.793  -0.674   6.058  0.4003  0.7177  0.6967
   50MOL0     H 6708   6.599  -0.717   5.919  0.6090 -1.1714  0.1130
   50MOL0     H 6709   6.734  -0.795   5.840 -0.1081 -1.2665  2.0800
   50MOL0     H 6710   6.602  -0.880   5.699  1.5518  1.4304 -1.0859
   50MOL0     H 6711   6.459  -1.012   5.419 -1.0690 -1.1335  0.2815
   50MOL0     H 6712   6.521  -1.058   5.581  0.8261 -1.1100 -1.6265
   50MOL0     H 6713   6.349  -1.037   5.554 -0.5574 -0.6354 -1.3643
   50MOL0     H 6714   5.993  -0.774   5.445 -2.0914  2.4449  0.9625
   50MOL0     H 6715   5.776  -0.805   5.324  0.9510  3.4039  2.6180
   50MOL0     H 6716   5.670  -0.540   5.025  0.1445  0.7871 -1.8052
   50MOL0     H 6717   5.740  -0.651   4.913  0.6396  0.3317  0.1979
   50MOL0     H 6718   5.495  -0.772   5.003 -1.2844  0.3720  0.1418
   50MOL0     H 6719   5.451  -0.622   4.910  1.2690  1.6070  1.2054
   50MOL0     H 6720   5.480  -0.817   4.753  0.1144  0.2068  0.2950
   50MOL0     H 6721   5.641  -0.821   4.797 -0.8421 -0.6294  0.9003
   50MOL0     H 6722   5.676  -0.577   4.709 -1.3738  3.3652  0.5495
   50MOL0     H 6723   5.627  -0.697   4.595 -1.3709 -2.7912  2.3762
   50MOL0     H 6724   5.439  -0.489   4.720  1.2762  0.5417  0.0176
   50MOL0     H 6725   5.387  -0.613   4.605 -1.0054  0.1525  1.8944
   50MOL0     H 6726   5.592  -0.403   4.528 -1.1317  1.9268  1.9284
   50MOL0     H 6727   5.506  -0.534   4.443  0.3548 -2.4251  1.8029
   50MOL0     H 6728   5.371  -0.285   4.560  1.1554 -0.1982 -0.7273
   50MOL0     H 6729   5.295  -0.425   4.465 -0.3487 -0.7932  1.3923
   50MOL0     H 6730   5.341  -0.230   4.333  0.8526  1.3379  0.8137
   50MOL0     H 6731   5.449  -0.359   4.287 -1.2352  0.1072 -0.6476
   50MOL0     H 6732   5.925  -0.583   5.002 -0.6966  0.8649  2.1942
   50MOL0     H 6733   6.135  -0.570   5.092 -0.7629  2.4011  1.3390
   50MOL0     H 6734   6.331  -0.534   5.482  0.1851  1.4952  2.0186
   50MOL0     H 6735   6.504  -0.480   5.647 -1.5450  0.2779  1.4309
   50MOL0     H 6736   7.715   0.188   5.177  3.0436 -0.8294  1.5565
   50MOL0     H 6737   7.792   0.263   4.949  0.6295 -1.2383 -2.3945
   50MOL0     H 6738   7.796   0.010   4.483 -1.4830 -0.1293 -0.1942
   50MOL0     H 6739   7.839   0.031   4.238  0.6483  1.5517 -1.5129
   50MOL0     H 6740   7.917   0.061   4.025  0.4806 -1.5511 -0.1839
   50MOL0     H 6741   8.037   0.145   3.930 -0.0078  1.1990 -0.1118
   50MOL0     H 6742   8.124  -0.086   4.010  0.7361 -0.7263  0.2689
   50MOL0     H 6743   8.091  -0.033   4.168  0.5915 -1.1595 -0.6972
   50MOL0     H 6744   8.344  -0.021   4.071  0.9798  0.6192 -2.1110
   50MOL0     H 6745   8.294   0.117   4.164  2.4603 -1.4927  0.5760
   50MOL0     H 6746   8.378   0.224   3.976 -0.5007  0.9011  0.8615
   50MOL0     H 6747   8.211   0.235   3.945 -2.5477 -1.3951  2.9376
   50MOL0     H 6748   8.311  -0.080   3.663 -1.0456  0.9040  0.1745
   50MOL0     H 6749   8.081   0.380   4.306 -0.0857 -0.0384 -0.1602
   50MOL0     H 6750   8.035   0.363   4.539 -2.3946  1.0726 -0.5020
   51MOL0     O 6751   1.858   0.933   9.096  0.1204 -0.5685  0.6229
   51MOL0     C 6752   1.784   0.913   9.186  0.6093  0.1321  0.4275
   51MOL0     O 6753   1.828   0.859   9.310 -0.1351 -0.3950  0.3457
   51MOL0     C 6754   1.956   0.816   9.325  0.0291 -0.3421  0.7684
   51MOL0     C 6755   1.983   0.686   9.380 -0.0944  0.1675 -0.4812
   51MOL0     C 6756   2.112   0.636   9.398  0.6424 -0.0592  0.0062
   51MOL0     C 6757   2.224   0.714   9.355  1.3316  0.5830  0.5803
   51MOL0     O 6758   2.351   0.663   9.377  0.3500 -0.0133  0.1559
   51MOL0     C 6759   2.396   0.682   9.506  0.3645 -0.6638 -0.1519
   51MOL0     C 6760   2.543   0.701   9.490  0.0485  0.2047 -0.1815
   51MOL0     C 6761   2.611   0.557   9.492 -0.3263 -0.6152  0.2378
   51MOL0     C 6762   2.758   0.558   9.464  1.0518  0.4128  0.4542
   51MOL0     C 6763   2.825   0.417   9.468 -0.0458 -0.0923  0.3315
   51MOL0     C 6764   2.953   0.441   9.399  0.8404  0.4704  0.1310
   51MOL0     C 6765   3.034   0.304   9.386  0.2218 -0.5791  1.0600
   51MOL0     C 6766   3.002   0.198   9.279 -0.7370 -0.0953  0.4518
   51MOL0     N 6767   3.064   0.067   9.306 -0.7000  1.1662  0.1940
   51MOL0     C 6768   3.198   0.035   9.273 -0.4043  0.2421 -0.3822
   51MOL0     C 6769   3.211  -0.103   9.288  0.3390 -1.3710 -0.5485
   51MOL0     C 6770   3.344  -0.174   9.257  0.0761 -0.6468 -0.0827
   51MOL0     C 6771   3.388  -0.192   9.116  0.3155  0.5448 -0.1171
   51MOL0     C 6772   3.534  -0.227   9.117 -0.5775  0.2257 -0.0069
   51MOL0     C 6773   3.643  -0.115   9.143  0.1981  0.8211  0.5302
   51MOL0     O 6774   3.757  -0.196   9.184 -0.6702  0.2350 -0.6127
   51MOL0     C 6775   3.763  -0.239   9.317 -0.6557  0.5585 -0.5268
   51MOL0     C 6776   3.839  -0.349   9.339 -0.3345  0.7788  0.6559
   51MOL0     C 6777   3.852  -0.412   9.466 -0.8915 -0.2137  0.4910
   51MOL0     C 6778   3.932  -0.538   9.463 -0.5866  0.2063 -0.1437
   51MOL0     C 6779   3.815  -0.344   9.581  0.9510 -0.6521  0.0277
   51MOL0     C 6780   3.834  -0.391   9.714 -0.4793 -0.3648 -1.6117
   51MOL0     O 6781   3.725  -0.387   9.789  0.4996  0.0767 -0.9019
   51MOL0     C 6782   3.733  -0.443   9.923 -0.1487  0.4492  0.9820
   51MOL0     C 6783   3.832  -0.401  10.016 -0.1697  0.0010 -0.3143
   51MOL0     C 6784   3.827  -0.456  10.147 -1.3819 -0.4491 -0.1614
   51MOL0     C 6785   3.729  -0.544  10.189 -0.4929  0.0191  1.3530
   51MOL0     O 6786   3.752  -0.612  10.304  0.1745 -0.3753 -0.9277
   51MOL0     C 6787   3.692  -0.532  10.411  0.1924 -1.3439 -0.5512
   51MOL0     C 6788   3.606  -0.613  10.514  0.1560 -0.0655  0.6376
   51MOL0     C 6789   3.473  -0.655  10.463  0.5408 -0.3780 -0.2281
   51MOL0     C 6790   3.384  -0.696  10.574  0.4561  0.4688  0.2638
   51MOL0     C 6791   3.254  -0.767  10.522 -0.2831  0.0750  0.6002
   51MOL0     C 6792   3.181  -0.840  10.634  0.0071  0.1957 -0.8097
   51MOL0     C 6793   3.127  -0.751  10.733  0.3589  0.3380 -0.0375
   51MOL0     C 6794   2.991  -0.809  10.788 -0.3781 -0.2801  1.5030
   51MOL0    Cl 6795   3.039  -0.950  10.914 -0.0840 -0.1177  0.2524
   51MOL0     C 6796   3.636  -0.583  10.090 -0.7669  0.4110 -0.5598
   51MOL0     C 6797   3.630  -0.536   9.960 -0.2016  0.2659 -0.8460
   51MOL0     O 6798   3.943  -0.438   9.749 -0.8647 -0.1028 -0.1627
   51MOL0     C 6799   3.738  -0.221   9.561  0.7008  0.0269  0.1959
   51MOL0     C 6800   3.708  -0.175   9.431 -0.5109  1.3029 -0.7628
   51MOL0     N 6801   3.090  -0.155   9.312  0.0175  0.8825 -0.3864
   51MOL0     N 6802   3.003  -0.061   9.318 -0.3210 -1.4341  0.2971
   51MOL0     C 6803   2.204   0.839   9.300  1.2267 -0.3247 -0.2669
   51MOL0     C 6804   2.071   0.898   9.290 -0.4999  0.5463 -0.1117
   51MOL0     C 6805   1.641   0.956   9.163 -0.2140  0.0553 -0.3980
   51MOL0     C 6806   1.556   0.962   9.277 -0.6565  0.5689  0.2471
   51MOL0     C 6807   1.415   0.993   9.255  1.0812  0.1853 -0.2354
   51MOL0     C 6808   1.365   1.026   9.133 -0.0459  0.0900 -0.7134
   51MOL0     O 6809   1.233   1.047   9.096 -0.0743  0.3017 -0.1393
   51MOL0     C 6810   1.140   1.104   9.190  0.1471  0.9641 -1.0642
   51MOL0     C 6811   1.176   1.237   9.265  0.8879  0.5083 -0.1766
   51MOL0     C 6812   1.057   1.280   9.364 -1.7198  0.8091  0.4430
   51MOL0     C 6813   1.074   1.433   9.391  0.1186 -0.2370 -1.1005
   51MOL0     C 6814   0.941   1.505   9.385 -0.4559 -0.7202 -1.0322
   51MOL0     C 6815   0.837   1.567   9.394  0.5911  0.6256  0.2001
   51MOL0     C 6816   1.456   1.007   9.022 -0.6177  0.1168 -0.3718
   51MOL0     C 6817   1.591   0.979   9.031  0.6776 -0.4748 -0.7033
   51MOL0     H 6818   1.902   0.628   9.423  0.2863  0.5037  0.7280
   51MOL0     H 6819   2.134   0.535   9.433  1.0761  0.8777  2.7011
   51MOL0     H 6820   2.342   0.770   9.541  1.6000  0.8609 -1.8260
   51MOL0     H 6821   2.367   0.593   9.562 -3.5056  0.5863  0.0814
   51MOL0     H 6822   2.566   0.762   9.402 -3.0057  1.8647  0.0196
   51MOL0     H 6823   2.575   0.761   9.576  1.3724  0.9121 -1.1398
   51MOL0     H 6824   2.601   0.511   9.591  0.0782 -0.7977  0.1949
   51MOL0     H 6825   2.551   0.503   9.417  2.1755 -2.4258 -0.6011
   51MOL0     H 6826   2.786   0.612   9.373 -0.5268  0.1314 -0.2148
   51MOL0     H 6827   2.795   0.618   9.548 -2.0882  4.7285 -0.8967
   51MOL0     H 6828   2.830   0.387   9.574 -0.3873  0.1578  0.4207
   51MOL0     H 6829   2.763   0.351   9.407  0.1610 -0.0231  0.0481
   51MOL0     H 6830   2.928   0.470   9.296 -1.4083 -0.2685  0.4236
   51MOL0     H 6831   3.012   0.520   9.446  0.7236  3.7460 -4.5087
   51MOL0     H 6832   3.142   0.323   9.382  0.1193  0.0529  1.0859
   51MOL0     H 6833   3.022   0.254   9.482 -1.4922  2.3945  2.5400
   51MOL0     H 6834   3.028   0.240   9.182  0.8958  0.2155  0.9892
   51MOL0     H 6835   2.896   0.177   9.263 -1.1863  2.6855 -0.6434
   51MOL0     H 6836   3.271   0.097   9.220  1.7124 -0.8688  1.1066
   51MOL0     H 6837   3.427  -0.148   9.324 -0.2898 -0.5913  0.3514
   51MOL0     H 6838   3.313  -0.275   9.288 -4.1684  0.4805 -0.0725
   51MOL0     H 6839   3.381  -0.097   9.063  0.0996  0.1060 -0.8829
   51MOL0     H 6840   3.332  -0.263   9.055 -1.4613  1.1338  0.7577
   51MOL0     H 6841   3.552  -0.265   9.015  2.2143 -0.3941  0.6379
   51MOL0     H 6842   3.548  -0.309   9.188  2.0025 -0.7791 -1.5318
   51MOL0     H 6843   3.599  -0.041   9.211 -3.1524  1.2903 -1.9155
   51MOL0     H 6844   3.678  -0.051   9.062 -1.4157  1.1860  0.0782
   51MOL0     H 6845   3.878  -0.394   9.248  2.6074 -0.0702  2.1918
   51MOL0     H 6846   4.027  -0.518   9.512  0.1368 -0.5093 -1.2012
   51MOL0     H 6847   3.888  -0.627   9.509 -1.0451 -1.1662 -2.9799
   51MOL0     H 6848   3.958  -0.566   9.360  3.8380 -0.2650  0.9100
   51MOL0     H 6849   3.902  -0.321   9.995 -0.0601  0.7576  2.4867
   51MOL0     H 6850   3.898  -0.420  10.221 -0.2725 -3.6143  0.4543
   51MOL0     H 6851   3.774  -0.499  10.475 -1.0482 -0.4221  0.6321
   51MOL0     H 6852   3.636  -0.443  10.378  0.3891  0.0525  2.5070
   51MOL0     H 6853   3.665  -0.700  10.545 -0.3369 -1.1990 -1.4196
   51MOL0     H 6854   3.591  -0.549  10.601 -0.3051  0.3209  0.2784
   51MOL0     H 6855   3.487  -0.742  10.398  0.7720 -2.3851  2.3178
   51MOL0     H 6856   3.431  -0.572  10.405 -0.7249  0.3473  1.6200
   51MOL0     H 6857   3.434  -0.761  10.646  1.4009 -0.0752 -0.8488
   51MOL0     H 6858   3.338  -0.612  10.627 -4.5478 -2.1504  0.6801
   51MOL0     H 6859   3.290  -0.835  10.444  0.7808  0.0725  1.0685
   51MOL0     H 6860   3.187  -0.690  10.483 -0.8328  0.6188  2.5295
   51MOL0     H 6861   3.096  -0.894  10.592 -0.5669 -1.0460  1.7138
   51MOL0     H 6862   3.252  -0.917  10.668 -0.7247 -1.4821 -2.8921
   51MOL0     H 6863   3.097  -0.649  10.708 -1.6131 -0.1831  0.0457
   51MOL0     H 6864   3.193  -0.742  10.820 -1.9501  0.0142  1.8562
   51MOL0     H 6865   2.928  -0.841  10.704  2.1986 -0.8182 -0.3673
   51MOL0     H 6866   2.937  -0.733  10.844  2.7996  1.2510  2.7093
   51MOL0     H 6867   3.560  -0.656  10.117 -0.2817 -0.0914 -0.5291
   51MOL0     H 6868   3.557  -0.572   9.889 -2.3343  0.8953  0.9131
   51MOL0     H 6869   3.698  -0.181   9.653 -1.2547 -1.8872  0.2454
   51MOL0     H 6870   3.641  -0.091   9.415 -0.7046  0.7047 -3.7236
   51MOL0     H 6871   2.295   0.882   9.259  2.2266 -2.0007  0.1017
   51MOL0     H 6872   2.059   0.997   9.246 -1.6028  0.7514  0.6176
   51MOL0     H 6873   1.581   0.927   9.376  1.8606  1.7390  0.0899
   51MOL0     H 6874   1.340   1.003   9.333  1.2889  0.5533 -0.0811
   51MOL0     H 6875   1.043   1.112   9.141  0.8749 -0.2972 -2.8375
   51MOL0     H 6876   1.122   1.038   9.276  1.4722  2.1458  0.1752
   51MOL0     H 6877   1.180   1.312   9.185 -4.1450 -0.5015 -1.6859
   51MOL0     H 6878   1.278   1.229   9.305  0.3595  0.5139  1.2527
   51MOL0     H 6879   1.063   1.217   9.453 -2.1537 -0.3818 -0.3330
   51MOL0     H 6880   0.959   1.257   9.320 -2.1943  1.9078  0.8873
   51MOL0     H 6881   1.136   1.475   9.311 -1.7283  3.0929 -0.9588
   51MOL0     H 6882   1.123   1.451   9.487 -1.1145 -4.8808  0.6465
   51MOL0     H 6883   0.749   1.622   9.369  0.4128 -1.2266 -3.9723
   51MOL0     H 6884   1.418   1.010   8.920  1.9604  0.9733 -1.3811
   51MOL0     H 6885   1.649   0.970   8.940  1.0413 -3.5518 -0.2609
   52MOL0     O 6886  10.423  10.760  10.915  0.2073  0.1183  0.4450
   52MOL0     C 6887  10.315  10.711  10.879 -0.3867 -0.1424 -0.2434
   52MOL0     O 6888  10.253  10.611  10.946  1.1674 -0.1218 -0.1771
   52MOL0     C 6889  10.315  10.558  11.064  0.5244  0.3623  0.0697
   52MOL0     C 6890  10.386  10.439  11.048  0.2164 -0.7239 -0.3277
   52MOL0     C 6891  10.458  10.386  11.161 -0.5368 -0.2262  1.1238
   52MOL0     C 6892  10.436  10.442  11.283 -0.8751  0.2282  0.2302
   52MOL0     O 6893  10.501  10.384  11.389 -0.0655 -0.3543 -0.4828
   52MOL0     C 6894  10.465  10.388  11.528 -0.0403 -0.0708 -0.2981
   52MOL0     C 6895  10.554  10.298  11.610  0.0597  0.1160 -0.2848
   52MOL0     C 6896  10.494  10.286  11.747  0.8270 -0.2128 -0.4826
   52MOL0     C 6897  10.605  10.242  11.840  0.7310  0.5573  0.4545
   52MOL0     C 6898  10.568  10.234  11.987  0.1815 -0.0718 -0.8712
   52MOL0     C 6899  10.700  10.200  12.073  0.1980  0.0275 -0.7515
   52MOL0     C 6900  10.685  10.153  12.214  1.4186 -0.1907  0.0464
   52MOL0     C 6901  10.620  10.273  12.295 -0.1864  0.7515 -0.1355
   52MOL0     N 6902  10.563  10.235  12.421 -0.3610  0.1649  0.4700
   52MOL0     C 6903  10.640  10.215  12.536 -0.3033 -0.5983 -0.2181
   52MOL0     C 6904  10.554  10.206  12.638  0.5144  0.5776 -0.2089
   52MOL0     C 6905  10.581  10.178  12.784 -0.9061 -0.2952 -1.3713
   52MOL0     C 6906  10.615  10.029  12.815 -0.9204  0.1926  0.2114
   52MOL0     C 6907  10.759   9.980  12.763 -0.4038 -1.0753 -0.1860
   52MOL0     C 6908  10.749   9.870  12.661  0.5485  0.3288 -0.2730
   52MOL0     O 6909  10.710   9.924  12.531  0.7809  0.3190 -0.6517
   52MOL0     C 6910  10.635   9.845  12.450  0.6775 -0.5782 -0.5295
   52MOL0     C 6911  10.499   9.875  12.426 -0.0163  0.0835  0.1235
   52MOL0     C 6912  10.422   9.809  12.327  0.5891  0.7853 -0.3906
   52MOL0     C 6913  10.288   9.885  12.295 -0.1422 -0.1320 -1.7273
   52MOL0     C 6914  10.486   9.705  12.256 -0.4497 -0.0731  0.0549
   52MOL0     C 6915  10.420   9.644  12.139  0.4278 -0.5724 -0.4249
   52MOL0     O 6916  10.496   9.555  12.067  0.1503 -0.0047  0.0663
   52MOL0     C 6917  10.432   9.492  11.963 -0.5611 -0.3643  0.0099
   52MOL0     C 6918  10.330   9.403  11.998 -0.1289 -0.4297  0.0063
   52MOL0     C 6919  10.242   9.349  11.903  0.1951  1.0381  0.3911
   52MOL0     C 6920  10.261   9.367  11.771  1.1874 -0.7085 -0.6804
   52MOL0     O 6921  10.174   9.306  11.695  0.1894  0.3036 -0.4686
   52MOL0     C 6922  10.203   9.292  11.550  1.2365  0.1770  0.2897
   52MOL0     C 6923  10.129   9.405  11.484  0.5351 -0.9952  0.7330
   52MOL0     C 6924  10.109   9.388  11.335 -0.2975  0.4010  0.3020
   52MOL0     C 6925   9.981   9.446  11.279 -0.1436 -0.1326 -0.3839
   52MOL0     C 6926   9.967   9.438  11.130 -0.5587 -0.2343 -0.0359
   52MOL0     C 6927   9.970   9.301  11.061  0.1083  0.9315 -0.3528
   52MOL0     C 6928   9.925   9.300  10.914  0.3913 -0.4959 -0.0072
   52MOL0     C 6929  10.016   9.384  10.826 -0.0925 -0.1278  0.0240
   52MOL0    Cl 6930   9.980   9.359  10.654  0.2795  0.4008  0.4427
   52MOL0     C 6931  10.371   9.455  11.726 -0.3280  0.9766 -0.2053
   52MOL0     C 6932  10.449   9.521  11.826  0.5223 -0.6187  0.5248
   52MOL0     O 6933  10.307   9.671  12.114  0.5912 -0.1956 -0.0031
   52MOL0     C 6934  10.621   9.664  12.287  1.0944 -0.9422  0.2880
   52MOL0     C 6935  10.683   9.736  12.389 -0.5038  1.0040 -0.1082
   52MOL0     N 6936  10.422  10.234  12.588 -0.6102 -0.4136 -0.1365
   52MOL0     N 6937  10.426  10.250  12.458 -0.2991 -0.3121  0.1283
   52MOL0     C 6938  10.352  10.555  11.304  0.5149  0.3186  0.7027
   52MOL0     C 6939  10.288  10.609  11.190  0.3468 -0.0152 -1.6382
   52MOL0     C 6940  10.247  10.752  10.752 -0.3036  0.6616  0.9671
   52MOL0     C 6941  10.312  10.816  10.643 -1.2091 -0.7791  0.5180
   52MOL0     C 6942  10.253  10.846  10.517  0.6350 -0.3410 -0.7054
   52MOL0     C 6943  10.116  10.826  10.500 -0.7956  0.9721  0.1270
   52MOL0     O 6944  10.073  10.843  10.380  0.2831 -0.5640  0.3290
   52MOL0     C 6945   9.935  10.876  10.368 -0.2096 -0.3047  0.1838
   52MOL0     C 6946   9.912  11.017  10.298 -0.2338 -0.6132 -1.2104
   52MOL0     C 6947   9.771  11.035  10.221 -0.0367  0.7428  0.4177
   52MOL0     C 6948   9.784  11.021  10.059  0.9541 -0.0974 -0.6647
   52MOL0     C 6949   9.839  11.145  10.002  0.3390 -0.3837 -0.7297
   52MOL0     C 6950   9.854  11.256   9.955  0.1725 -1.4332 -0.4422
   52MOL0     C 6951  10.046  10.763  10.608  0.0410 -0.3105 -0.1081
   52MOL0     C 6952  10.103  10.726  10.731 -0.6851  0.8324 -0.1517
   52MOL0     H 6953  10.404  10.400  10.949  1.9525  0.2632 -0.4482
   52MOL0     H 6954  10.518  10.295  11.150  0.1024  0.3111 -0.0344
   52MOL0     H 6955  10.479  10.493  11.557  1.0201  0.3959 -2.3163
   52MOL0     H 6956  10.363  10.357  11.550  0.5443 -2.3914 -0.6216
   52MOL0     H 6957  10.568  10.203  11.557  1.8110  0.3729 -0.3434
   52MOL0     H 6958  10.652  10.346  11.609  0.9724 -1.6408 -0.1556
   52MOL0     H 6959  10.432  10.371  11.777 -0.9397 -2.1624  1.8498
   52MOL0     H 6960  10.428  10.198  11.743  1.2823 -0.7327  1.7266
   52MOL0     H 6961  10.652  10.154  11.794  0.5437  1.3158 -1.2590
   52MOL0     H 6962  10.691  10.308  11.824 -0.4899  1.5306 -3.0559
   52MOL0     H 6963  10.527  10.330  12.021  0.4541 -0.9135  2.0326
   52MOL0     H 6964  10.496  10.152  11.985 -0.2414  0.2820 -2.8811
   52MOL0     H 6965  10.754  10.118  12.026 -1.1638 -2.6359  1.9590
   52MOL0     H 6966  10.764  10.288  12.075  0.2534 -0.0250  0.1831
   52MOL0     H 6967  10.629  10.059  12.216  4.2894 -2.2036 -3.0621
   52MOL0     H 6968  10.778  10.115  12.258  2.2303 -0.3307 -1.7253
   52MOL0     H 6969  10.554  10.339  12.237 -2.2407  0.3083  1.6027
   52MOL0     H 6970  10.702  10.339  12.323 -1.7541  2.9541 -0.4416
   52MOL0     H 6971  10.747  10.200  12.535  0.2308  2.0796  2.4719
   52MOL0     H 6972  10.667  10.241  12.811 -1.1027  0.2972 -2.1184
   52MOL0     H 6973  10.503  10.202  12.857 -1.1386  4.9215 -2.9905
   52MOL0     H 6974  10.537   9.961  12.780 -0.2746 -0.9678  0.9585
   52MOL0     H 6975  10.613  10.015  12.923  0.9410 -2.1564  0.0300
   52MOL0     H 6976  10.806   9.930  12.848  0.0641 -0.6688 -0.2033
   52MOL0     H 6977  10.815  10.060  12.715 -1.4940  1.1348  1.9975
   52MOL0     H 6978  10.693   9.784  12.701 -0.8970  0.5312 -1.7388
   52MOL0     H 6979  10.854   9.841  12.649  0.2699 -1.6292  1.4761
   52MOL0     H 6980  10.451   9.964  12.466 -1.1889  0.5032 -2.0380
   52MOL0     H 6981  10.280   9.980  12.348  1.8474 -0.3782 -0.8903
   52MOL0     H 6982  10.280   9.905  12.187  1.6703  5.2119 -1.1615
   52MOL0     H 6983  10.207   9.829  12.342  0.3882  1.2995  1.1208
   52MOL0     H 6984  10.315   9.378  12.103 -1.7830 -1.2988 -0.3926
   52MOL0     H 6985  10.169   9.272  11.925 -2.2915  3.0466 -0.2860
   52MOL0     H 6986  10.308   9.271  11.528  1.1187 -0.2384  0.1119
   52MOL0     H 6987  10.148   9.206  11.511  2.5283 -0.2549 -0.6130
   52MOL0     H 6988  10.028   9.421  11.524 -0.8852 -1.7577 -2.2839
   52MOL0     H 6989  10.180   9.501  11.492 -0.9873 -0.0434 -0.4399
   52MOL0     H 6990  10.109   9.284  11.300 -0.0467  1.0110 -1.5778
   52MOL0     H 6991  10.201   9.422  11.287  2.1591 -2.2202  2.7156
   52MOL0     H 6992   9.901   9.392  11.331  0.3500 -0.8199 -0.3125
   52MOL0     H 6993   9.969   9.549  11.313 -0.1559  0.1117 -1.1091
   52MOL0     H 6994  10.055   9.491  11.090 -0.0283  0.9240  2.4599
   52MOL0     H 6995   9.867   9.475  11.109 -1.0799 -1.4020  0.3339
   52MOL0     H 6996  10.064   9.246  11.070 -0.5881  0.0527  2.6219
   52MOL0     H 6997   9.897   9.242  11.117 -0.0890 -0.3636 -1.9151
   52MOL0     H 6998   9.827   9.347  10.896  0.7703  0.5004  0.4411
   52MOL0     H 6999   9.916   9.202  10.866 -0.9714 -0.3448 -0.1033
   52MOL0     H 7000  10.121   9.376  10.855 -0.3778 -0.6696  0.9548
   52MOL0     H 7001   9.999   9.490  10.845 -1.5864 -0.4644  0.7374
   52MOL0     H 7002  10.396   9.472  11.622 -0.4142  2.2859 -0.0376
   52MOL0     H 7003  10.525   9.594  11.802 -0.2089  0.2250  0.7172
   52MOL0     H 7004  10.676   9.586  12.234  2.1760 -0.9535  1.3865
   52MOL0     H 7005  10.787   9.712  12.409 -0.8262 -2.0654 -1.4517
   52MOL0     H 7006  10.334  10.588  11.406 -0.9022 -0.5199  0.7458
   52MOL0     H 7007  10.230  10.699  11.207  1.2835  0.4456 -0.8081
   52MOL0     H 7008  10.417  10.839  10.663 -1.3741  0.2595  0.2615
   52MOL0     H 7009  10.309  10.893  10.437 -1.3795 -0.2119 -2.1118
   52MOL0     H 7010   9.888  10.800  10.305  0.1548 -1.2153  0.9853
   52MOL0     H 7011   9.888  10.876  10.466  0.1333 -1.0628  0.3554
   52MOL0     H 7012  10.000  11.037  10.235  2.2923  1.6961  2.6019
   52MOL0     H 7013   9.923  11.095  10.374 -3.2094 -2.4439  1.3341
   52MOL0     H 7014   9.722  11.130  10.246  0.0181  1.0443 -0.5557
   52MOL0     H 7015   9.703  10.955  10.251 -1.6568  2.0018  0.2770
   52MOL0     H 7016   9.680  11.011  10.026  0.4896 -1.4791  1.0178
   52MOL0     H 7017   9.829  10.926  10.029  0.2462 -1.8078  3.0537
   52MOL0     H 7018   9.863  11.359   9.930  0.2255 -0.8718  1.6911
   52MOL0     H 7019   9.938  10.750  10.604 -0.6361  2.5618  3.5524
   52MOL0     H 7020  10.045  10.665  10.800  1.9194 -2.4264 -0.5320
   53MOL0     O 7021   3.814  10.936   0.295 -0.3290 -0.2383  0.1744
   53MOL0     C 7022   3.934  10.960   0.299  0.5814 -0.4546  0.2539
   53MOL0     O 7023   3.996  11.076   0.352  0.2589 -0.2048 -0.0663
   53MOL0     C 7024   3.904  11.161   0.416 -0.7601 -0.1738  0.1147
   53MOL0     C 7025   3.908  11.294   0.382 -0.2460  0.2037 -0.5245
   53MOL0     C 7026   3.848  11.393   0.458 -0.0512  0.1674 -0.3248
   53MOL0     C 7027   3.785  11.357   0.569 -0.0493 -0.1065  0.4859
   53MOL0     O 7028   3.728  11.467   0.646  0.7612 -0.8215  0.2870
   53MOL0     C 7029   3.602  11.458   0.712 -0.5156  0.2960 -0.7727
   53MOL0     C 7030   3.492  11.442   0.608 -0.1875 -0.2806  0.0971
   53MOL0     C 7031   3.484  11.547   0.497  0.1035  0.1416  0.0106
   53MOL0     C 7032   3.369  11.505   0.396  0.6326 -0.4971 -0.0347
   53MOL0     C 7033   3.397  11.518   0.250 -0.0633  0.4506 -0.6536
   53MOL0     C 7034   3.494  11.406   0.205 -0.2716  0.7172  0.1841
   53MOL0     C 7035   3.433  11.268   0.189  0.1337  0.9236  0.5725
   53MOL0     C 7036   3.542  11.151   0.178 -0.5122  0.0092 -0.5791
   53MOL0     N 7037   3.597  11.158   0.043  0.5622 -0.0520  0.2764
   53MOL0     C 7038   3.717  11.210   0.012 -0.6495 -0.6676  0.1585
   53MOL0     C 7039   3.740  11.175  -0.115 -1.2243 -0.1344 -0.0849
   53MOL0     C 7040   3.873  11.222  -0.181  1.1127  0.5051 -0.2928
   53MOL0     C 7041   3.870  11.311  -0.300 -0.3387 -0.7693 -0.4104
   53MOL0     C 7042   3.810  11.445  -0.263  0.5810 -0.7331  0.8369
   53MOL0     C 7043   3.657  11.454  -0.272  0.7075  0.3559  0.2045
   53MOL0     O 7044   3.616  11.592  -0.277 -0.6083 -0.7421 -0.3182
   53MOL0     C 7045   3.479  11.633  -0.255 -0.3987  0.5753 -0.6697
   53MOL0     C 7046   3.459  11.719  -0.139 -0.3516 -0.5935  0.8560
   53MOL0     C 7047   3.334  11.741  -0.090 -0.6222 -0.5044  0.0449
   53MOL0     C 7048   3.317  11.840   0.022  0.0970  0.8407 -0.3910
   53MOL0     C 7049   3.221  11.691  -0.156  0.7709  0.3215  0.2457
   53MOL0     C 7050   3.081  11.733  -0.123  0.6907  0.0666 -0.4899
   53MOL0     O 7051   3.054  11.745   0.013 -0.0400  1.0115  0.1831
   53MOL0     C 7052   2.928  11.793   0.054  0.1360  0.3611  0.2184
   53MOL0     C 7053   2.882  11.909   0.008 -0.1590 -0.3184 -0.6633
   53MOL0     C 7054   2.759  11.954   0.057 -0.2585  0.4331 -0.3085
   53MOL0     C 7055   2.685  11.876   0.149  0.0019 -1.1293  0.5495
   53MOL0     O 7056   2.557  11.925   0.185 -0.2070 -0.0066  0.2017
   53MOL0     C 7057   2.465  11.846   0.275  0.5994  0.0996  0.0392
   53MOL0     C 7058   2.340  11.926   0.303  1.2674 -0.3616  0.0697
   53MOL0     C 7059   2.238  11.838   0.384 -0.3651  0.0705  0.8352
   53MOL0     C 7060   2.099  11.882   0.388  0.9955  0.1152 -0.1263
   53MOL0     C 7061   2.006  11.763   0.401  0.8578  0.7318  0.2193
   53MOL0     C 7062   1.855  11.793   0.418 -0.1099  0.2591  0.1769
   53MOL0     C 7063   1.820  11.885   0.537 -0.1191  0.5872  0.3659
   53MOL0     C 7064   1.702  11.810   0.608  0.2467 -0.2322  0.1271
   53MOL0    Cl 7065   1.728  11.637   0.674 -0.1739  0.3077  0.4250
   53MOL0     C 7066   2.730  11.751   0.186 -0.2483  0.9026  0.7695
   53MOL0     C 7067   2.853  11.703   0.136  0.3460 -0.1209 -0.5971
   53MOL0     O 7068   2.999  11.752  -0.215  0.3966 -0.2353  0.4137
   53MOL0     C 7069   3.242  11.601  -0.265  0.2379  0.3246 -0.2435
   53MOL0     C 7070   3.374  11.568  -0.305 -0.8295  0.4648 -0.0038
   53MOL0     N 7071   3.630  11.108  -0.167  0.6985 -1.6377  0.2716
   53MOL0     N 7072   3.549  11.094  -0.065  0.4573 -0.9028  0.0558
   53MOL0     C 7073   3.773  11.226   0.610  0.0718 -0.2811 -0.0196
   53MOL0     C 7074   3.832  11.126   0.529 -0.2725  0.1291 -0.2178
   53MOL0     C 7075   4.021  10.865   0.231 -1.3258 -0.4453 -0.4266
   53MOL0     C 7076   4.170  10.891   0.231 -0.4892  0.1696 -0.4363
   53MOL0     C 7077   4.245  10.786   0.192  0.4468  0.2333  0.8784
   53MOL0     C 7078   4.200  10.661   0.140  0.6396  0.4408  0.1295
   53MOL0     O 7079   4.284  10.566   0.095 -0.8338 -0.0690 -0.1112
   53MOL0     C 7080   4.367  10.499   0.199  0.3225 -0.1877  0.4986
   53MOL0     C 7081   4.444  10.379   0.139  0.3831 -0.2930 -0.7068
   53MOL0     C 7082   4.469  10.265   0.247  0.5393 -0.2223  0.7075
   53MOL0     C 7083   4.530  10.133   0.195 -0.2337 -0.2861  0.4481
   53MOL0     C 7084   4.474  10.077   0.072 -0.3933  0.7401 -1.1525
   53MOL0     C 7085   4.435  10.033  -0.028  0.0826  0.2264 -0.3733
   53MOL0     C 7086   4.067  10.644   0.123 -0.2550  0.0149  0.5273
   53MOL0     C 7087   3.981  10.738   0.190  0.9645  0.1060 -0.2249
   53MOL0     H 7088   3.953  11.323   0.287  1.1685  2.3394  0.7084
   53MOL0     H 7089   3.834  11.497   0.427 -1.4312  0.7469  1.9325
   53MOL0     H 7090   3.598  11.379   0.788  3.2413  1.1919  0.5483
   53MOL0     H 7091   3.582  11.549   0.769  0.1693 -1.2436  2.1649
   53MOL0     H 7092   3.514  11.358   0.541 -1.1025  2.0280 -3.3810
   53MOL0     H 7093   3.401  11.436   0.668  0.0178 -1.7187  0.2952
   53MOL0     H 7094   3.473  11.639   0.556 -4.1851  0.4026 -0.8194
   53MOL0     H 7095   3.578  11.550   0.443  1.4991 -1.4070  2.1841
   53MOL0     H 7096   3.339  11.403   0.422  0.6681 -0.5598 -0.2425
   53MOL0     H 7097   3.284  11.572   0.412 -1.2483 -2.0282 -2.8371
   53MOL0     H 7098   3.306  11.524   0.190 -1.3265  4.7445  1.3252
   53MOL0     H 7099   3.457  11.608   0.232  0.3960 -0.2308 -2.9224
   53MOL0     H 7100   3.549  11.433   0.114 -0.2525  2.1202  0.5802
   53MOL0     H 7101   3.565  11.397   0.288 -1.1802  2.4915  1.2271
   53MOL0     H 7102   3.368  11.243   0.273  0.4121 -0.5851  0.3659
   53MOL0     H 7103   3.366  11.268   0.104  3.4166 -1.3880 -2.3146
   53MOL0     H 7104   3.496  11.053   0.189  3.5917 -1.8859  2.4459
   53MOL0     H 7105   3.619  11.158   0.255 -0.3930  1.0251 -0.7672
   53MOL0     H 7106   3.786  11.266   0.075 -1.2944 -0.3414  0.5818
   53MOL0     H 7107   3.936  11.264  -0.102 -0.2069 -0.3033  1.2546
   53MOL0     H 7108   3.932  11.133  -0.203  0.6633 -0.2267  1.2985
   53MOL0     H 7109   3.813  11.272  -0.385 -0.1776  0.9686 -1.3491
   53MOL0     H 7110   3.974  11.329  -0.329 -0.3411  0.6434  0.4030
   53MOL0     H 7111   3.845  11.506  -0.346  0.2862 -1.6605  0.0004
   53MOL0     H 7112   3.851  11.486  -0.170 -1.8648 -0.1324  1.7286
   53MOL0     H 7113   3.605  11.407  -0.188  2.3387 -2.7455 -0.3541
   53MOL0     H 7114   3.628  11.404  -0.365  2.0689  0.6394 -0.3981
   53MOL0     H 7115   3.554  11.756  -0.102  0.9971 -0.6951 -2.1991
   53MOL0     H 7116   3.409  11.898   0.034 -1.0193  2.6580 -0.2013
   53MOL0     H 7117   3.235  11.912   0.019 -0.1697  0.6433  1.3702
   53MOL0     H 7118   3.295  11.787   0.115 -0.6646  0.9219 -0.5151
   53MOL0     H 7119   2.935  11.972  -0.062 -0.6954  0.5562 -0.3039
   53MOL0     H 7120   2.729  12.055   0.030  1.0895  0.7379 -0.7494
   53MOL0     H 7121   2.435  11.755   0.223  2.8364 -1.1674  0.8339
   53MOL0     H 7122   2.509  11.829   0.374  1.1453  1.1558 -0.0058
   53MOL0     H 7123   2.370  12.015   0.359 -0.3779  0.1522  0.1785
   53MOL0     H 7124   2.297  11.960   0.209  1.0086 -0.5098  0.1323
   53MOL0     H 7125   2.276  11.823   0.486  2.8733  4.6846  0.6014
   53MOL0     H 7126   2.240  11.734   0.348  2.1145 -0.1749  1.4503
   53MOL0     H 7127   2.081  11.952   0.470 -2.8076  0.1095 -0.7749
   53MOL0     H 7128   2.075  11.943   0.300 -0.1249  1.1428  0.8584
   53MOL0     H 7129   2.030  11.702   0.488 -0.1670 -0.6676 -0.4336
   53MOL0     H 7130   2.018  11.695   0.316 -1.2766  0.8228 -0.2222
   53MOL0     H 7131   1.839  11.860   0.333 -1.5145 -1.3331 -0.8738
   53MOL0     H 7132   1.796  11.701   0.417 -0.0212  0.1971 -1.6458
   53MOL0     H 7133   1.780  11.973   0.486 -0.3542 -0.7778 -1.9288
   53MOL0     H 7134   1.902  11.913   0.603  0.3709  1.0805 -0.4387
   53MOL0     H 7135   1.615  11.809   0.541  0.6666 -3.3101 -0.5108
   53MOL0     H 7136   1.661  11.872   0.688 -0.5971 -0.3832 -0.1766
   53MOL0     H 7137   2.673  11.692   0.257 -0.9405  0.2506 -0.2918
   53MOL0     H 7138   2.897  11.613   0.178 -1.5178 -0.4674  0.7563
   53MOL0     H 7139   3.161  11.551  -0.317  0.4912 -0.2256 -0.1209
   53MOL0     H 7140   3.394  11.483  -0.369 -0.5050  0.4311  0.1402
   53MOL0     H 7141   3.726  11.185   0.699  1.9336 -1.1267  0.6366
   53MOL0     H 7142   3.836  11.019   0.546  3.9724  0.0678 -0.5602
   53MOL0     H 7143   4.210  10.986   0.264 -0.3193  0.8705 -2.5190
   53MOL0     H 7144   4.352  10.803   0.193  0.3604  0.9099 -0.1323
   53MOL0     H 7145   4.447  10.561   0.239  1.8217 -1.2640 -0.6951
   53MOL0     H 7146   4.296  10.465   0.275 -0.3379  0.1566  0.0463
   53MOL0     H 7147   4.541  10.411   0.101 -0.2775  1.8677 -0.6985
   53MOL0     H 7148   4.389  10.333   0.056 -0.4818 -1.3231  0.3923
   53MOL0     H 7149   4.381  10.226   0.299  0.5697 -1.9581 -0.4665
   53MOL0     H 7150   4.536  10.312   0.320  1.9229 -2.3733  0.8992
   53MOL0     H 7151   4.520  10.074   0.286  1.3783 -1.4040 -0.0399
   53MOL0     H 7152   4.637  10.146   0.176  0.3020  0.7320  3.5698
   53MOL0     H 7153   4.422   9.999  -0.129 -3.3227 -2.1745  0.6889
   53MOL0     H 7154   4.021  10.565   0.065  0.0945 -0.4858  0.9230
   53MOL0     H 7155   3.874  10.721   0.190  0.8011  0.3155 -4.0543
   54MOL0     O 7156   8.449   9.110   0.984  0.9261 -0.6164  0.2363
   54MOL0     C 7157   8.539   9.111   0.907  0.2657 -0.0753  1.7367
   54MOL0     O 7158   8.649   9.196   0.923 -0.3551 -0.1507  1.4441
   54MOL0     C 7159   8.667   9.267   1.034  0.6331 -0.5580 -1.2091
   54MOL0     C 7160   8.682   9.400   1.018  0.9397 -0.7632 -0.2983
   54MOL0     C 7161   8.706   9.489   1.134 -0.9399  0.4339 -0.6951
   54MOL0     C 7162   8.735   9.428   1.261 -0.3389 -0.9060 -0.9958
   54MOL0     O 7163   8.751   9.513   1.373 -0.2236  0.3503  0.2416
   54MOL0     C 7164   8.864   9.490   1.453  0.1669  1.4408 -0.2706
   54MOL0     C 7165   9.013   9.500   1.400  0.4982  1.1091 -0.4689
   54MOL0     C 7166   9.085   9.628   1.435  0.2100 -1.3799 -0.4548
   54MOL0     C 7167   9.015   9.767   1.421 -0.6776  0.0346  0.4311
   54MOL0     C 7168   9.092   9.882   1.490 -0.0423 -0.6636  0.3059
   54MOL0     C 7169   9.050  10.019   1.437  0.0765  0.3104 -0.5445
   54MOL0     C 7170   9.116  10.142   1.499 -0.2884 -0.2418 -0.1137
   54MOL0     C 7171   9.143  10.256   1.391  0.5703  0.5612  0.1840
   54MOL0     N 7172   9.024  10.321   1.342 -0.1460 -0.7109 -0.2338
   54MOL0     C 7173   8.931  10.388   1.414 -0.2064 -0.2538 -0.5029
   54MOL0     C 7174   8.850  10.451   1.323  0.5072 -0.5196  0.8132
   54MOL0     C 7175   8.732  10.546   1.327 -0.0865  0.0038  0.2858
   54MOL0     C 7176   8.605  10.504   1.241  0.1685  1.3902 -0.5769
   54MOL0     C 7177   8.495  10.621   1.226  0.4224  0.2449  0.3753
   54MOL0     C 7178   8.436  10.669   1.355 -0.0352 -1.0236  0.0663
   54MOL0     O 7179   8.509  10.768   1.443  0.3666  0.6905 -0.7360
   54MOL0     C 7180   8.481  10.900   1.440  0.4488 -0.0755  0.4710
   54MOL0     C 7181   8.484  10.963   1.565  0.0327  0.0755  0.1366
   54MOL0     C 7182   8.463  11.101   1.579 -0.0491 -0.5424  1.2737
   54MOL0     C 7183   8.446  11.161   1.713  0.3248  0.5659 -0.1110
   54MOL0     C 7184   8.433  11.173   1.450 -0.7085  1.0453  0.2143
   54MOL0     C 7185   8.398  11.314   1.448 -0.0775 -0.5080 -0.0010
   54MOL0     O 7186   8.325  11.352   1.337 -0.0764  0.0010  0.3698
   54MOL0     C 7187   8.320  11.488   1.306  0.1304 -0.5933  0.0308
   54MOL0     C 7188   8.274  11.589   1.388 -0.3839  0.3046  1.1001
   54MOL0     C 7189   8.249  11.717   1.347 -0.3731 -0.0891  0.6983
   54MOL0     C 7190   8.263  11.747   1.211 -0.3092 -0.3341 -0.9792
   54MOL0     O 7191   8.234  11.880   1.174 -0.2666  0.2122 -0.3884
   54MOL0     C 7192   8.222  11.908   1.030  0.6134 -0.3284 -0.3621
   54MOL0     C 7193   8.140  12.029   1.005 -0.3338  1.0888 -0.0015
   54MOL0     C 7194   8.000  12.026   1.050  0.4409  0.0521 -0.6525
   54MOL0     C 7195   7.905  11.951   0.942 -0.5337  0.2876  0.2729
   54MOL0     C 7196   7.763  11.917   0.995  0.3074  0.9388 -0.8506
   54MOL0     C 7197   7.678  12.037   1.004  0.6985  0.2951  0.0009
   54MOL0     C 7198   7.534  12.014   1.071 -0.2723 -0.6132  0.1560
   54MOL0     C 7199   7.555  11.962   1.218 -0.5540 -0.3559 -0.3470
   54MOL0    Cl 7200   7.392  11.930   1.283 -0.1926  0.2848 -0.3115
   54MOL0     C 7201   8.306  11.650   1.124 -0.6026 -0.0333  0.1733
   54MOL0     C 7202   8.339  11.521   1.170  0.6194  0.4024  0.5633
   54MOL0     O 7203   8.435  11.388   1.534 -0.3218 -0.0291 -0.1058
   54MOL0     C 7204   8.423  11.099   1.329 -0.1020  0.4229  0.1963
   54MOL0     C 7205   8.448  10.966   1.320  0.2202  0.1698  0.9810
   54MOL0     N 7206   8.907  10.425   1.203 -0.2441  0.2205 -0.1798
   54MOL0     N 7207   9.017  10.352   1.209  0.4251  0.1557 -0.2867
   54MOL0     C 7208   8.715   9.288   1.269  0.0356 -0.4670  0.0424
   54MOL0     C 7209   8.676   9.207   1.162 -0.7752  1.3462 -0.2184
   54MOL0     C 7210   8.556   9.029   0.787  0.4697  0.1916 -0.0015
   54MOL0     C 7211   8.673   9.009   0.717 -0.7042  0.3020  0.0079
   54MOL0     C 7212   8.692   8.927   0.610 -0.4052 -0.7538  0.3374
   54MOL0     C 7213   8.579   8.856   0.563  0.6381  0.6989  0.4691
   54MOL0     O 7214   8.592   8.788   0.440  0.1405  0.0347  0.3713
   54MOL0     C 7215   8.566   8.646   0.435 -0.2119 -0.2197 -0.3861
   54MOL0     C 7216   8.547   8.597   0.288  0.0154  0.1967 -0.5730
   54MOL0     C 7217   8.654   8.665   0.200 -0.7241 -0.8290  0.5002
   54MOL0     C 7218   8.798   8.656   0.243 -0.5571 -0.2329  0.1509
   54MOL0     C 7219   8.858   8.522   0.278  0.0844 -0.5378 -0.1263
   54MOL0     C 7220   8.907   8.417   0.283  0.7991 -0.3193  0.4076
   54MOL0     C 7221   8.462   8.860   0.635 -0.1954 -0.8245 -0.0770
   54MOL0     C 7222   8.444   8.948   0.750 -0.4939 -0.3547 -0.1453
   54MOL0     H 7223   8.653   9.459   0.931  1.8488  1.5578  0.8955
   54MOL0     H 7224   8.704   9.597   1.127  0.4895  0.4076 -2.2713
   54MOL0     H 7225   8.850   9.563   1.533 -0.5920 -1.1415  2.0985
   54MOL0     H 7226   8.848   9.399   1.511  4.0386  1.2804  0.8272
   54MOL0     H 7227   9.069   9.420   1.450  1.4367  0.4987 -2.4153
   54MOL0     H 7228   9.016   9.480   1.293 -0.2409 -1.1248 -0.1463
   54MOL0     H 7229   9.125   9.612   1.535  5.1217  2.0138 -1.4787
   54MOL0     H 7230   9.179   9.649   1.383 -0.5225 -0.0069 -1.2962
   54MOL0     H 7231   9.010   9.790   1.314 -1.7503 -3.2005 -0.3408
   54MOL0     H 7232   8.911   9.764   1.454 -0.2298  4.3433  2.8870
   54MOL0     H 7233   9.071   9.877   1.597 -3.0622  0.4530 -0.1284
   54MOL0     H 7234   9.198   9.869   1.465  0.3663 -0.5406  1.8595
   54MOL0     H 7235   9.070  10.024   1.330  4.1586  1.4864  0.1050
   54MOL0     H 7236   8.943  10.014   1.459  0.1369 -2.3880 -0.5649
   54MOL0     H 7237   9.061  10.192   1.579 -1.8683 -0.2780 -1.1273
   54MOL0     H 7238   9.218  10.115   1.529  0.8340  0.9905 -2.4712
   54MOL0     H 7239   9.199  10.218   1.305 -1.1747  1.7003 -1.5284
   54MOL0     H 7240   9.209  10.333   1.433 -0.5874  2.1130 -0.7217
   54MOL0     H 7241   8.896  10.382   1.516 -0.1587 -2.6104 -0.5735
   54MOL0     H 7242   8.710  10.565   1.433  3.0718  0.8074  0.8897
   54MOL0     H 7243   8.766  10.638   1.278 -3.0284  0.5097 -0.9948
   54MOL0     H 7244   8.569  10.407   1.277  0.8024  0.8781 -1.3042
   54MOL0     H 7245   8.648  10.488   1.142  1.7619 -0.6413  0.3771
   54MOL0     H 7246   8.413  10.580   1.166 -1.0361  1.3545  1.5174
   54MOL0     H 7247   8.545  10.701   1.171 -0.0718 -0.4401 -1.1276
   54MOL0     H 7248   8.417  10.578   1.412 -1.5448 -0.2695  0.8296
   54MOL0     H 7249   8.337  10.709   1.331  0.4303 -0.8909 -1.7507
   54MOL0     H 7250   8.511  10.894   1.645 -2.1305 -2.6789 -1.3261
   54MOL0     H 7251   8.526  11.225   1.751  0.0685 -1.2213  4.0262
   54MOL0     H 7252   8.361  11.230   1.704  1.6302  1.9572 -2.8851
   54MOL0     H 7253   8.418  11.078   1.779  0.0214 -1.5077 -2.7207
   54MOL0     H 7254   8.257  11.550   1.488  0.7596 -0.9214  0.8457
   54MOL0     H 7255   8.214  11.795   1.414 -2.4345 -1.8080  1.7603
   54MOL0     H 7256   8.319  11.919   0.982  1.8849  2.3318  2.5224
   54MOL0     H 7257   8.171  11.825   0.979 -1.0552  0.5832 -0.2338
   54MOL0     H 7258   8.168  12.116   1.064 -1.3568  1.8201 -0.5723
   54MOL0     H 7259   8.131  12.049   0.898 -2.4766 -4.5363 -1.2557
   54MOL0     H 7260   7.966  12.128   1.069 -0.6667 -0.1594 -1.3603
   54MOL0     H 7261   7.998  11.981   1.150  1.7855  0.5066 -0.4102
   54MOL0     H 7262   7.894  12.025   0.862 -0.8057 -0.2696 -0.2160
   54MOL0     H 7263   7.954  11.856   0.917 -2.6929 -0.8843  0.2846
   54MOL0     H 7264   7.778  11.863   1.089 -0.1091  0.4112 -1.0828
   54MOL0     H 7265   7.707  11.842   0.939  0.6764 -2.2381  2.6226
   54MOL0     H 7266   7.740  12.105   1.063  1.9468  0.3205 -1.2791
   54MOL0     H 7267   7.675  12.075   0.901  1.1189  1.3055  0.3440
   54MOL0     H 7268   7.483  11.938   1.011 -0.3192 -1.1813  0.9032
   54MOL0     H 7269   7.466  12.100   1.070  0.6829  0.2075  1.5398
   54MOL0     H 7270   7.600  12.024   1.296  2.4987 -2.4379 -0.2755
   54MOL0     H 7271   7.608  11.866   1.226  0.7940  0.4327  0.5206
   54MOL0     H 7272   8.330  11.678   1.022  1.4546  2.1987  1.1687
   54MOL0     H 7273   8.364  11.446   1.096 -0.7360 -0.2302  0.7093
   54MOL0     H 7274   8.387  11.160   1.246 -1.6580  0.0622  0.5673
   54MOL0     H 7275   8.441  10.904   1.231 -2.8272  2.3154 -0.4542
   54MOL0     H 7276   8.713   9.237   1.365 -0.1845  1.4636  1.1053
   54MOL0     H 7277   8.652   9.103   1.180  1.1713  0.8694 -0.1738
   54MOL0     H 7278   8.763   9.064   0.743  1.0044 -1.3673 -2.0613
   54MOL0     H 7279   8.782   8.920   0.550 -0.5676  0.1594 -0.0349
   54MOL0     H 7280   8.648   8.599   0.489 -2.9373 -0.8228  3.7026
   54MOL0     H 7281   8.476   8.611   0.487 -0.5595 -0.6455 -1.2616
   54MOL0     H 7282   8.449   8.629   0.251 -0.6617 -0.9004  0.2190
   54MOL0     H 7283   8.571   8.491   0.275  0.6553  0.5938 -3.0754
   54MOL0     H 7284   8.631   8.764   0.161 -2.1784 -0.6533  1.7200
   54MOL0     H 7285   8.656   8.602   0.110 -5.3297 -0.1390 -0.2975
   54MOL0     H 7286   8.804   8.724   0.329  0.2071 -1.8022  1.3809
   54MOL0     H 7287   8.856   8.692   0.158  0.2484  0.5332  1.0042
   54MOL0     H 7288   8.955   8.321   0.284 -0.3037 -0.9051  2.1218
   54MOL0     H 7289   8.375   8.806   0.598  0.1719  0.6202 -3.3400
   54MOL0     H 7290   8.351   8.967   0.803  0.7632  2.9462  1.1899
   55MOL0     O 7291   8.280   6.754  10.222 -0.0913 -0.9201  0.0245
   55MOL0     C 7292   8.268   6.721  10.341 -0.5581 -0.0457  0.0198
   55MOL0     O 7293   8.169   6.747  10.425 -0.0821  0.5435 -0.2882
   55MOL0     C 7294   8.045   6.810  10.396 -0.1773 -0.4206  0.1717
   55MOL0     C 7295   8.027   6.924  10.309 -0.1954  0.3465  0.5447
   55MOL0     C 7296   7.900   6.989  10.301  0.4942 -0.1874  0.3612
   55MOL0     C 7297   7.792   6.936  10.374 -0.5520  0.6578  0.1678
   55MOL0     O 7298   7.669   6.989  10.363 -0.1570 -0.1149  0.2184
   55MOL0     C 7299   7.638   7.095  10.461  0.0778 -0.3150 -0.7015
   55MOL0     C 7300   7.497   7.120  10.432  0.9746 -0.7502  0.6077
   55MOL0     C 7301   7.426   7.225  10.524 -0.7577  0.1895 -0.5554
   55MOL0     C 7302   7.275   7.216  10.499 -0.4300  0.4698  0.0957
   55MOL0     C 7303   7.198   7.312  10.583  0.1913  0.5950 -0.7587
   55MOL0     C 7304   7.212   7.462  10.570  0.3933 -1.0619 -0.2970
   55MOL0     C 7305   7.202   7.529  10.705  0.2009 -0.1296  0.5665
   55MOL0     C 7306   7.232   7.676  10.702 -0.2118 -0.1960  0.0874
   55MOL0     N 7307   7.131   7.770  10.654  0.0085 -0.3887 -0.4709
   55MOL0     C 7308   7.019   7.797  10.717  0.6707 -0.1923  0.7455
   55MOL0     C 7309   6.943   7.859  10.618  0.6244  1.1706  0.2223
   55MOL0     C 7310   6.796   7.898  10.618  0.5354 -0.9215  0.8567
   55MOL0     C 7311   6.730   7.967  10.745 -0.6169  0.1420  0.0066
   55MOL0     C 7312   6.579   7.954  10.737 -0.0756  0.4815 -0.1110
   55MOL0     C 7313   6.521   8.038  10.627 -0.8232 -0.3428 -0.6628
   55MOL0     O 7314   6.563   8.177  10.632 -0.7191 -0.1065 -0.3351
   55MOL0     C 7315   6.466   8.282  10.655 -0.3417 -0.3380 -0.3453
   55MOL0     C 7316   6.335   8.266  10.695  0.8112 -1.1234  0.5121
   55MOL0     C 7317   6.248   8.375  10.710 -0.1426  0.7791  0.4340
   55MOL0     C 7318   6.097   8.343  10.718  0.1367 -0.3234 -0.2889
   55MOL0     C 7319   6.295   8.511  10.686  0.2142  0.6957 -0.7372
   55MOL0     C 7320   6.205   8.637  10.658  0.0454  0.0362 -0.3267
   55MOL0     O 7321   6.261   8.751  10.626 -0.1265  0.1190 -0.2149
   55MOL0     C 7322   6.192   8.857  10.578  0.5697 -0.9597  0.3874
   55MOL0     C 7323   6.283   8.943  10.510  0.1234 -0.1296 -0.4141
   55MOL0     C 7324   6.227   9.060  10.449  0.0892  0.2849 -0.1532
   55MOL0     C 7325   6.093   9.096  10.467  0.1191 -0.1321  0.6622
   55MOL0     O 7326   6.024   9.202  10.409 -0.2406  0.8746  0.4662
   55MOL0     C 7327   6.013   9.200  10.269  0.4726 -0.2574 -0.2058
   55MOL0     C 7328   5.869   9.193  10.231  0.8219  0.8468  0.4194
   55MOL0     C 7329   5.805   9.322  10.190 -0.0019  0.1069  0.3111
   55MOL0     C 7330   5.743   9.405  10.299  0.0909 -0.0081 -0.7618
   55MOL0     C 7331   5.649   9.507  10.239 -0.0105  0.0226 -0.5598
   55MOL0     C 7332   5.712   9.621  10.147  0.1926  0.5714 -0.5865
   55MOL0     C 7333   5.630   9.737  10.089 -0.7339  0.8870 -1.0117
   55MOL0     C 7334   5.563   9.812  10.198  0.3824  0.3565 -0.2888
   55MOL0    Cl 7335   5.678   9.861  10.327 -0.5053  0.1342 -0.1557
   55MOL0     C 7336   6.017   9.016  10.554 -0.2258  0.0635  0.7668
   55MOL0     C 7337   6.063   8.893  10.596 -0.5946  0.3797 -0.0079
   55MOL0     O 7338   6.085   8.618  10.645 -0.1146 -0.3824  0.1353
   55MOL0     C 7339   6.435   8.525  10.659  0.7278  0.1791 -1.0175
   55MOL0     C 7340   6.517   8.410  10.631 -0.6510 -1.4267 -0.2302
   55MOL0     N 7341   7.013   7.863  10.494  1.2261 -0.4956  0.4236
   55MOL0     N 7342   7.125   7.812  10.524 -0.3524  0.0602 -0.0969
   55MOL0     C 7343   7.804   6.827  10.458  0.2853 -0.2111 -0.2839
   55MOL0     C 7344   7.932   6.769  10.470  0.1097  0.6234  0.6293
   55MOL0     C 7345   8.382   6.648  10.389  0.5975 -0.0242  0.5176
   55MOL0     C 7346   8.508   6.667  10.325 -0.0870  0.1539 -0.0475
   55MOL0     C 7347   8.625   6.614  10.382  0.1959  0.0063  0.4559
   55MOL0     C 7348   8.605   6.527  10.485 -0.4400  0.8709 -0.1551
   55MOL0     O 7349   8.713   6.461  10.553  0.9675  0.5201 -0.6518
   55MOL0     C 7350   8.844   6.508  10.544 -0.8390  0.1453 -0.5139
   55MOL0     C 7351   8.903   6.386  10.592 -0.2598  0.1879 -0.8120
   55MOL0     C 7352   9.054   6.413  10.606 -0.1387  0.2424  0.9999
   55MOL0     C 7353   9.141   6.285  10.595 -0.7138  0.1279 -0.8192
   55MOL0     C 7354   9.075   6.153  10.592  0.0124  0.0564 -0.4153
   55MOL0     C 7355   9.025   6.049  10.592 -0.1660  0.4023 -0.2251
   55MOL0     C 7356   8.484   6.506  10.543  0.4605  0.0190  0.5340
   55MOL0     C 7357   8.369   6.560  10.486 -0.1571 -0.6124  0.3586
   55MOL0     H 7358   8.106   6.968  10.249 -0.7047 -2.2966 -2.3639
   55MOL0     H 7359   7.888   7.073  10.234  1.3598 -1.1607 -1.0899
   55MOL0     H 7360   7.648   7.051  10.561  4.1357  0.7306 -0.4679
   55MOL0     H 7361   7.698   7.186  10.453  0.7346 -0.6688  0.0712
   55MOL0     H 7362   7.483   7.150  10.328  2.6420 -2.4432 -0.1759
   55MOL0     H 7363   7.441   7.025  10.434  2.6641 -1.7779  1.5312
   55MOL0     H 7364   7.453   7.217  10.630  1.7916  2.8468 -0.8857
   55MOL0     H 7365   7.465   7.325  10.503 -0.8904  0.0267 -1.6408
   55MOL0     H 7366   7.262   7.237  10.392 -0.0503 -0.8681 -0.2326
   55MOL0     H 7367   7.228   7.120  10.526  1.9803 -1.7878 -2.9394
   55MOL0     H 7368   7.095   7.280  10.568  0.7854 -0.9516 -1.7661
   55MOL0     H 7369   7.200   7.296  10.691 -0.2837 -1.1336 -0.9768
   55MOL0     H 7370   7.317   7.489  10.557 -0.5254  3.6105  0.1625
   55MOL0     H 7371   7.147   7.508  10.494  1.2242  2.4537  0.9193
   55MOL0     H 7372   7.101   7.526  10.746  0.6903  1.8621  2.0706
   55MOL0     H 7373   7.270   7.491  10.782  1.7189  1.2777 -0.0167
   55MOL0     H 7374   7.320   7.687  10.638 -0.1028  1.0681  0.4144
   55MOL0     H 7375   7.262   7.714  10.800 -3.0172 -1.3100  1.5125
   55MOL0     H 7376   6.979   7.784  10.817 -0.2824 -0.8912  0.3016
   55MOL0     H 7377   6.780   7.968  10.536  1.0404  3.8062  4.3842
   55MOL0     H 7378   6.737   7.810  10.590 -0.3012  0.8358 -3.9692
   55MOL0     H 7379   6.761   8.069  10.769  1.2798 -0.6910  1.2658
   55MOL0     H 7380   6.762   7.911  10.833 -0.7964 -0.5628 -0.3717
   55MOL0     H 7381   6.538   7.979  10.836 -2.5142 -3.3665  0.0838
   55MOL0     H 7382   6.551   7.849  10.724  0.5923  0.4065 -0.9678
   55MOL0     H 7383   6.412   8.043  10.633 -0.7728  3.3690 -0.2544
   55MOL0     H 7384   6.551   8.009  10.526  3.4148  0.7078  0.0954
   55MOL0     H 7385   6.300   8.167  10.720  2.3392 -1.4831  1.3935
   55MOL0     H 7386   6.078   8.240  10.751 -0.2614 -0.3126 -0.4854
   55MOL0     H 7387   6.061   8.417  10.789  0.6736 -0.1883 -0.1519
   55MOL0     H 7388   6.044   8.350  10.623  0.2269  1.4551 -0.2413
   55MOL0     H 7389   6.386   8.911  10.499 -0.3849 -2.7040  1.4040
   55MOL0     H 7390   6.297   9.114  10.385 -1.4248  2.7477  0.1403
   55MOL0     H 7391   6.062   9.289  10.227  0.0006 -0.4313 -1.1461
   55MOL0     H 7392   6.078   9.130  10.215 -0.3961  0.6494 -2.5391
   55MOL0     H 7393   5.875   9.124  10.146  4.6290  0.3666  0.8828
   55MOL0     H 7394   5.801   9.140  10.297  1.4188 -3.5626 -2.1264
   55MOL0     H 7395   5.724   9.286  10.126 -1.3612  0.8312  1.5877
   55MOL0     H 7396   5.872   9.394  10.142 -0.3666  1.7585  2.1677
   55MOL0     H 7397   5.693   9.345  10.377  1.3905  2.1032  1.8761
   55MOL0     H 7398   5.818   9.454  10.362 -0.1294  0.7369 -1.0742
   55MOL0     H 7399   5.605   9.554  10.328  2.0758  0.2845  0.4099
   55MOL0     H 7400   5.573   9.453  10.182  1.3780 -1.3175 -1.2002
   55MOL0     H 7401   5.797   9.659  10.205 -0.1405  0.2474  0.1191
   55MOL0     H 7402   5.755   9.566  10.063 -1.0279  0.7346 -1.3417
   55MOL0     H 7403   5.551   9.690  10.029 -0.6869  1.7840 -1.8187
   55MOL0     H 7404   5.688   9.811  10.032 -1.1460  4.7275  3.0162
   55MOL0     H 7405   5.475   9.759  10.236  1.2178 -1.2481 -0.5132
   55MOL0     H 7406   5.521   9.907  10.163 -2.7140 -1.6649 -2.5366
   55MOL0     H 7407   5.910   9.032  10.546 -0.7511 -1.7403  3.0158
   55MOL0     H 7408   5.987   8.826  10.636  1.9815 -3.1339 -0.5355
   55MOL0     H 7409   6.475   8.624  10.643 -0.0359  0.5799 -0.5280
   55MOL0     H 7410   6.620   8.425  10.600 -0.4757 -0.4283  0.7861
   55MOL0     H 7411   7.729   6.803  10.532  1.6353  0.3629  1.3214
   55MOL0     H 7412   7.942   6.688  10.541 -1.2240  1.4689  1.8106
   55MOL0     H 7413   8.518   6.744  10.249  2.5074 -2.2358 -2.3787
   55MOL0     H 7414   8.722   6.638  10.339  0.0771  1.3394  0.8775
   55MOL0     H 7415   8.875   6.540  10.444 -4.1158  1.9690 -1.1017
   55MOL0     H 7416   8.866   6.588  10.614  1.2321 -0.9568  0.1705
   55MOL0     H 7417   8.878   6.307  10.521  0.5404 -0.5855 -0.2559
   55MOL0     H 7418   8.868   6.365  10.693 -0.3323  0.1108 -0.8521
   55MOL0     H 7419   9.078   6.456  10.703 -0.1157 -1.5401  1.8264
   55MOL0     H 7420   9.087   6.480  10.526  0.4533 -1.9780 -0.7420
   55MOL0     H 7421   9.213   6.291  10.677 -1.2760  3.5344 -0.4168
   55MOL0     H 7422   9.194   6.290  10.499  1.3971  0.4736  0.3006
   55MOL0     H 7423   8.965   5.960  10.596 -1.0223  0.6781 -3.7924
   55MOL0     H 7424   8.467   6.442  10.629 -6.5141 -2.3716 -1.9532
   55MOL0     H 7425   8.269   6.530  10.518 -0.2631 -2.3969 -1.4459
   56MOL0     O 7426   3.437   5.118   1.319  0.1887 -0.2385 -0.2832
   56MOL0     C 7427   3.517   5.159   1.410  0.0290 -0.3694  0.1514
   56MOL0     O 7428   3.632   5.098   1.446 -0.2256  0.0551 -0.0705
   56MOL0     C 7429   3.658   4.963   1.411  0.3254 -0.0217  0.1743
   56MOL0     C 7430   3.712   4.880   1.517  0.4928 -0.7941 -0.5733
   56MOL0     C 7431   3.754   4.750   1.499  0.6294 -0.3512 -0.0221
   56MOL0     C 7432   3.739   4.693   1.369 -0.8284 -0.8277  0.3043
   56MOL0     O 7433   3.785   4.569   1.333 -0.0081 -0.4657 -0.3958
   56MOL0     C 7434   3.927   4.534   1.365  0.3325 -0.2246  0.5040
   56MOL0     C 7435   4.008   4.606   1.256  0.6150 -0.0863 -0.8294
   56MOL0     C 7436   4.160   4.606   1.286  0.2079  1.1975 -0.8532
   56MOL0     C 7437   4.232   4.701   1.190  0.4433  0.3311 -0.1413
   56MOL0     C 7438   4.379   4.701   1.193 -0.0121 -0.1589  0.1045
   56MOL0     C 7439   4.438   4.586   1.107  0.5033 -0.6848  0.3495
   56MOL0     C 7440   4.592   4.587   1.088 -0.1653  0.1903  0.1515
   56MOL0     C 7441   4.650   4.712   1.032 -0.0603 -0.1682  0.0047
   56MOL0     N 7442   4.773   4.685   0.956  0.4867  0.7151  0.4868
   56MOL0     C 7443   4.894   4.666   1.021  0.0054 -0.1908  0.6585
   56MOL0     C 7444   4.983   4.663   0.919 -0.1153 -0.9406 -0.8538
   56MOL0     C 7445   5.129   4.625   0.927 -0.0214  0.0460  0.6601
   56MOL0     C 7446   5.196   4.727   0.995 -0.8229  0.4171 -0.0629
   56MOL0     C 7447   5.193   4.867   0.929  0.3752 -0.7366  0.8660
   56MOL0     C 7448   5.255   4.982   1.007 -0.4158 -0.2799  0.0123
   56MOL0     O 7449   5.374   4.938   1.062  0.1585 -0.3937  0.4424
   56MOL0     C 7450   5.456   5.031   1.113 -0.4365 -0.6558 -0.1460
   56MOL0     C 7451   5.598   5.008   1.108 -0.2139  0.2136  1.0446
   56MOL0     C 7452   5.690   5.103   1.136 -0.1797  0.0047  0.0550
   56MOL0     C 7453   5.837   5.055   1.109  0.4918  0.4259  0.0755
   56MOL0     C 7454   5.657   5.228   1.174  0.9904 -0.7244 -0.6397
   56MOL0     C 7455   5.754   5.338   1.214 -1.0757  0.1946  0.2550
   56MOL0     O 7456   5.707   5.450   1.279 -0.7155 -0.0223  0.4607
   56MOL0     C 7457   5.807   5.523   1.332 -1.0666 -0.3038  1.0413
   56MOL0     C 7458   5.857   5.632   1.253  0.6492 -0.9341 -0.0680
   56MOL0     C 7459   5.950   5.727   1.306  0.4816 -0.6037 -0.4758
   56MOL0     C 7460   5.997   5.705   1.438  0.7971 -0.0913 -1.0876
   56MOL0     O 7461   6.091   5.784   1.510  0.3779  0.2361 -0.1408
   56MOL0     C 7462   6.187   5.860   1.433 -0.1899 -0.0127  0.2963
   56MOL0     C 7463   6.281   5.928   1.544  0.2130 -1.0782 -0.0351
   56MOL0     C 7464   6.341   5.833   1.649  0.5734 -0.2287 -0.1541
   56MOL0     C 7465   6.462   5.885   1.712 -1.1011  0.2106  0.1507
   56MOL0     C 7466   6.535   5.776   1.800  0.2708 -1.1560 -0.0443
   56MOL0     C 7467   6.675   5.814   1.854  0.2919 -0.0386  0.0344
   56MOL0     C 7468   6.713   5.734   1.972 -0.7587  0.5990 -0.6653
   56MOL0     C 7469   6.869   5.736   2.005  0.2073 -0.1002 -0.0578
   56MOL0    Cl 7470   6.919   5.892   2.091 -0.6406  0.2638  0.5555
   56MOL0     C 7471   5.949   5.591   1.503 -0.5087  0.8906 -0.4432
   56MOL0     C 7472   5.855   5.495   1.462  0.6764 -0.0817 -0.4246
   56MOL0     O 7473   5.871   5.329   1.177  1.3676  0.6345 -0.5607
   56MOL0     C 7474   5.519   5.249   1.203  0.0536 -0.6775 -0.7390
   56MOL0     C 7475   5.418   5.153   1.170 -0.9180 -0.2992  0.0392
   56MOL0     N 7476   4.921   4.697   0.797  0.5521 -0.0013 -1.0522
   56MOL0     N 7477   4.793   4.706   0.818  0.0071  0.4829 -0.8023
   56MOL0     C 7478   3.688   4.781   1.256 -0.1002  0.5337 -0.4302
   56MOL0     C 7479   3.645   4.908   1.286  0.5701 -0.8005 -0.3859
   56MOL0     C 7480   3.481   5.287   1.473 -0.0480  0.3088  0.3777
   56MOL0     C 7481   3.357   5.354   1.449 -0.6855  0.6804  0.9416
   56MOL0     C 7482   3.335   5.484   1.492 -0.1122 -0.4980  0.8047
   56MOL0     C 7483   3.433   5.554   1.568 -0.1770  0.4773 -0.8089
   56MOL0     O 7484   3.429   5.685   1.618 -0.2705  1.1191 -0.7216
   56MOL0     C 7485   3.321   5.774   1.593  0.4063 -0.7275  0.5366
   56MOL0     C 7486   3.356   5.896   1.513  0.5656 -0.2308 -0.7654
   56MOL0     C 7487   3.237   5.983   1.502  1.0993 -0.1683 -0.6718
   56MOL0     C 7488   3.275   6.120   1.459  0.5706  0.0402 -0.6275
   56MOL0     C 7489   3.318   6.196   1.573 -0.3286  0.1105  0.3361
   56MOL0     C 7490   3.365   6.249   1.669 -0.0366 -0.1169 -1.2456
   56MOL0     C 7491   3.546   5.478   1.609  0.0087  0.2339  0.0029
   56MOL0     C 7492   3.573   5.356   1.554 -0.7002  0.6045 -0.2521
   56MOL0     H 7493   3.727   4.924   1.615  2.9218  0.1817 -1.3151
   56MOL0     H 7494   3.783   4.694   1.588 -2.7243 -1.3588  0.5574
   56MOL0     H 7495   3.956   4.555   1.468  1.0795  0.3419  0.1972
   56MOL0     H 7496   3.949   4.427   1.368 -0.7333 -0.4511  3.6412
   56MOL0     H 7497   3.988   4.545   1.168  0.2683 -0.5727 -0.4214
   56MOL0     H 7498   3.976   4.711   1.247  4.8266  1.2650 -2.6068
   56MOL0     H 7499   4.179   4.646   1.386 -0.4147 -1.9391  0.6418
   56MOL0     H 7500   4.198   4.503   1.287  0.8212  1.3982  1.1565
   56MOL0     H 7501   4.190   4.674   1.093 -2.5825  3.2021  0.1907
   56MOL0     H 7502   4.196   4.804   1.202 -0.6338 -0.0018 -0.3844
   56MOL0     H 7503   4.422   4.792   1.152 -2.4572  1.2089  0.3843
   56MOL0     H 7504   4.405   4.699   1.299 -4.6620 -2.2147  1.4796
   56MOL0     H 7505   4.418   4.500   1.171 -3.5991  0.0761  0.3807
   56MOL0     H 7506   4.383   4.573   1.013 -1.3036  2.3660  0.8435
   56MOL0     H 7507   4.640   4.546   1.177 -3.6200  0.4007  2.3050
   56MOL0     H 7508   4.605   4.507   1.015 -1.0294 -0.1279  0.3400
   56MOL0     H 7509   4.673   4.779   1.116 -4.1349  0.0723  1.1380
   56MOL0     H 7510   4.583   4.748   0.954  1.3023 -0.6752 -1.4487
   56MOL0     H 7511   4.918   4.634   1.122  1.5031 -0.4934  0.2277
   56MOL0     H 7512   5.135   4.530   0.983  0.5950  0.0041  0.5323
   56MOL0     H 7513   5.166   4.606   0.826  1.2177 -1.3652  1.3325
   56MOL0     H 7514   5.299   4.693   1.009 -0.3085  2.4280  1.5145
   56MOL0     H 7515   5.162   4.739   1.098  1.4617 -1.2559  0.9591
   56MOL0     H 7516   5.093   4.900   0.901 -0.7820 -4.2282  0.4264
   56MOL0     H 7517   5.264   4.874   0.847  0.5207  0.0578  1.0463
   56MOL0     H 7518   5.188   5.014   1.087 -1.9259 -0.5109 -1.1090
   56MOL0     H 7519   5.271   5.067   0.940 -0.0408 -0.4340 -0.0982
   56MOL0     H 7520   5.635   4.909   1.082 -1.4234 -0.5040  1.9667
   56MOL0     H 7521   5.893   5.072   1.201  0.0435 -1.1499  0.6716
   56MOL0     H 7522   5.833   4.948   1.087 -1.2673  0.5053 -0.1547
   56MOL0     H 7523   5.888   5.101   1.024  1.4274 -0.1344  0.3126
   56MOL0     H 7524   5.819   5.637   1.151 -0.7429  2.2988  0.4940
   56MOL0     H 7525   5.995   5.810   1.252  0.9476 -0.6922 -0.2285
   56MOL0     H 7526   6.241   5.797   1.362  0.3453  1.8015 -0.9636
   56MOL0     H 7527   6.129   5.937   1.381 -0.4726 -0.8862 -0.7125
   56MOL0     H 7528   6.357   5.985   1.491  0.5317 -0.2870  1.2285
   56MOL0     H 7529   6.226   6.012   1.588 -0.2950 -0.7255 -1.3167
   56MOL0     H 7530   6.365   5.734   1.608 -2.3211 -1.2389  0.3854
   56MOL0     H 7531   6.259   5.818   1.720  1.6366  0.5041  1.2819
   56MOL0     H 7532   6.525   5.909   1.626 -3.0491  0.5726 -1.2335
   56MOL0     H 7533   6.443   5.974   1.773 -0.3596  0.1013  0.5679
   56MOL0     H 7534   6.538   5.686   1.739 -2.7252 -1.2966 -0.1305
   56MOL0     H 7535   6.470   5.755   1.886  1.6756  1.5244  1.8011
   56MOL0     H 7536   6.754   5.811   1.779 -1.7383 -0.2034 -2.2400
   56MOL0     H 7537   6.670   5.917   1.890 -1.0235 -0.5902  1.6058
   56MOL0     H 7538   6.675   5.634   1.948  1.5556 -0.0790 -1.7781
   56MOL0     H 7539   6.668   5.780   2.061  1.0460  0.7133  0.2253
   56MOL0     H 7540   6.924   5.731   1.910  1.8623 -1.1714  0.9069
   56MOL0     H 7541   6.911   5.655   2.066  0.2042 -1.5673 -1.9127
   56MOL0     H 7542   5.996   5.571   1.599  0.9554 -0.1017 -1.3341
   56MOL0     H 7543   5.820   5.414   1.525 -0.7596  0.8043 -0.0436
   56MOL0     H 7544   5.482   5.346   1.235  2.3229  0.1438 -0.3981
   56MOL0     H 7545   5.313   5.178   1.181 -0.4538  2.8838 -1.4189
   56MOL0     H 7546   3.694   4.744   1.154  0.7594 -1.0062  0.1490
   56MOL0     H 7547   3.621   4.967   1.198  2.9379 -1.8514 -1.8227
   56MOL0     H 7548   3.272   5.312   1.394 -1.8106  2.2348  1.4366
   56MOL0     H 7549   3.242   5.535   1.469  0.8828  1.2740  0.5317
   56MOL0     H 7550   3.230   5.727   1.553 -1.4712  2.1170  1.1826
   56MOL0     H 7551   3.278   5.811   1.687 -0.6449 -0.3757 -0.0649
   56MOL0     H 7552   3.380   5.853   1.415  2.5280  2.0577 -1.3715
   56MOL0     H 7553   3.444   5.948   1.550  3.1248 -2.0703 -3.7853
   56MOL0     H 7554   3.178   5.977   1.594  0.5472  0.5168 -0.9777
   56MOL0     H 7555   3.180   5.941   1.418  0.8561  0.3201 -0.7532
   56MOL0     H 7556   3.187   6.172   1.420 -0.3994 -0.4939  0.7830
   56MOL0     H 7557   3.356   6.111   1.386  0.5487 -1.7223 -0.4768
   56MOL0     H 7558   3.414   6.294   1.753 -0.8953  1.1519 -1.3773
   56MOL0     H 7559   3.617   5.524   1.677  0.7900 -0.8074 -0.0770
   56MOL0     H 7560   3.669   5.308   1.568 -0.7357  0.6432  0.1377
   57MOL0     O 7561   5.090   0.896  10.840 -0.4584  0.1255 -0.1018
   57MOL0     C 7562   5.122   1.016  10.854  1.1733  0.0457 -0.2629
   57MOL0     O 7563   5.147   1.106  10.750  0.4732  0.5236  0.7266
   57MOL0     C 7564   5.139   1.074  10.616  0.1924 -0.8787  0.1986
   57MOL0     C 7565   5.079   1.166  10.521 -0.3222  0.6341 -0.1893
   57MOL0     C 7566   5.083   1.147  10.382  0.2009  0.2089 -0.4556
   57MOL0     C 7567   5.139   1.029  10.329  0.2573  0.2635  0.3129
   57MOL0     O 7568   5.155   1.010  10.191  0.3002  0.2717  1.0832
   57MOL0     C 7569   5.084   1.103  10.110  0.3287  1.2299 -0.6891
   57MOL0     C 7570   5.103   1.066   9.965  0.9539  0.5798  0.2466
   57MOL0     C 7571   5.252   1.055   9.923 -0.0435  0.1359  0.2258
   57MOL0     C 7572   5.253   0.986   9.789 -0.1452  0.5160 -0.0392
   57MOL0     C 7573   5.401   0.982   9.734 -0.5242 -0.8807 -0.6698
   57MOL0     C 7574   5.406   0.875   9.621 -1.1521  0.2069 -0.1947
   57MOL0     C 7575   5.396   0.726   9.652 -0.0578  0.1293 -0.1435
   57MOL0     C 7576   5.451   0.649   9.539  0.9165 -0.2905  0.2782
   57MOL0     N 7577   5.596   0.649   9.553  0.1035 -0.0751  0.4694
   57MOL0     C 7578   5.685   0.722   9.470 -0.3740  0.9447 -0.7626
   57MOL0     C 7579   5.806   0.678   9.510 -0.2058  0.3142  0.6253
   57MOL0     C 7580   5.938   0.722   9.445 -0.5980 -0.3594 -0.9308
   57MOL0     C 7581   5.936   0.750   9.301 -0.4820 -0.1810 -0.3483
   57MOL0     C 7582   6.081   0.780   9.250  0.1211 -0.1775 -0.2952
   57MOL0     C 7583   6.078   0.822   9.096  0.0234  0.5690 -0.2063
   57MOL0     O 7584   6.206   0.873   9.052  0.6012  0.2277 -0.3298
   57MOL0     C 7585   6.298   0.793   8.992 -0.9252 -0.0680  0.3468
   57MOL0     C 7586   6.398   0.865   8.918  0.0935  0.8712  0.7715
   57MOL0     C 7587   6.512   0.802   8.867  0.2952  0.1691  0.2478
   57MOL0     C 7588   6.604   0.884   8.771  0.7339 -0.7794 -0.7040
   57MOL0     C 7589   6.541   0.666   8.888  0.7435 -0.9019  0.5077
   57MOL0     C 7590   6.663   0.602   8.838  0.0993  0.2867 -0.2690
   57MOL0     O 7591   6.785   0.677   8.823 -0.1940 -0.2210 -0.9330
   57MOL0     C 7592   6.900   0.630   8.749  0.2658 -0.0505 -0.1765
   57MOL0     C 7593   6.976   0.726   8.685  0.0503 -0.4096 -0.0778
   57MOL0     C 7594   7.080   0.694   8.606 -0.0805 -0.5954  1.1679
   57MOL0     C 7595   7.121   0.567   8.590  0.5589 -0.7818 -0.6356
   57MOL0     O 7596   7.238   0.533   8.532  0.8482 -0.0058  0.0808
   57MOL0     C 7597   7.285   0.603   8.409  0.3399  0.4555 -0.1927
   57MOL0     C 7598   7.386   0.523   8.339 -0.7193 -0.0040  0.4472
   57MOL0     C 7599   7.424   0.613   8.221  0.7904  0.9050  0.3149
   57MOL0     C 7600   7.513   0.550   8.125 -0.2613  0.4827  0.8116
   57MOL0     C 7601   7.541   0.630   7.995  0.0736 -0.0595 -0.8649
   57MOL0     C 7602   7.572   0.784   8.033  0.2288 -0.4356 -0.3517
   57MOL0     C 7603   7.609   0.860   7.900  0.2274  0.5152 -0.7360
   57MOL0     C 7604   7.752   0.892   7.902 -0.0166  0.4282  0.1044
   57MOL0    Cl 7605   7.777   0.999   7.751  0.0829  0.2490 -0.3558
   57MOL0     C 7606   7.049   0.467   8.654  0.6349 -0.4714 -0.2615
   57MOL0     C 7607   6.938   0.498   8.734 -0.1106 -0.0088 -0.3279
   57MOL0     O 7608   6.649   0.483   8.802 -1.2997 -0.3788 -0.6408
   57MOL0     C 7609   6.444   0.593   8.954  0.3905  1.7482  0.2316
   57MOL0     C 7610   6.327   0.655   9.011 -0.6270  0.9913  0.3454
   57MOL0     N 7611   5.790   0.572   9.597  0.2595  0.5440 -0.2270
   57MOL0     N 7612   5.665   0.556   9.626 -0.3127 -0.2576  0.5020
   57MOL0     C 7613   5.188   0.930  10.419  0.7445  0.3331 -0.0067
   57MOL0     C 7614   5.188   0.956  10.559 -0.6816 -0.2397 -0.8907
   57MOL0     C 7615   5.136   1.067  10.990  0.1431 -0.8476 -0.0741
   57MOL0     C 7616   5.203   1.188  11.008  0.3946  0.1591 -0.3955
   57MOL0     C 7617   5.204   1.242  11.142 -0.6286  0.7483  0.1603
   57MOL0     C 7618   5.152   1.171  11.254 -0.2573 -0.6529 -0.2762
   57MOL0     O 7619   5.145   1.218  11.380 -0.7638 -0.3877  0.1834
   57MOL0     C 7620   5.242   1.318  11.409  1.4414 -0.0681 -0.8536
   57MOL0     C 7621   5.241   1.327  11.570 -0.1707  0.3258  0.0410
   57MOL0     C 7622   5.325   1.448  11.611  1.3329 -0.0470  0.1509
   57MOL0     C 7623   5.242   1.573  11.630 -0.5353 -0.0974 -0.5937
   57MOL0     C 7624   5.338   1.683  11.671 -0.2356 -0.0686 -0.1979
   57MOL0     C 7625   5.408   1.774  11.701 -0.3317  0.9083 -0.7007
   57MOL0     C 7626   5.100   1.043  11.229  0.5949  0.6105 -0.0585
   57MOL0     C 7627   5.089   0.999  11.100  1.0103 -1.0848  0.9720
   57MOL0     H 7628   5.035   1.261  10.549 -1.5407  0.2907 -0.8633
   57MOL0     H 7629   5.040   1.225  10.320 -0.2342 -2.4576 -3.7882
   57MOL0     H 7630   4.977   1.090  10.125  0.3335 -1.3217 -2.1849
   57MOL0     H 7631   5.122   1.205  10.120  4.2756 -0.0701 -0.2438
   57MOL0     H 7632   5.051   0.972   9.945  3.1137 -0.1391 -2.8588
   57MOL0     H 7633   5.059   1.144   9.902  0.0918 -1.8998 -2.4424
   57MOL0     H 7634   5.295   1.154   9.905  3.4151 -1.5058 -1.6657
   57MOL0     H 7635   5.316   1.002   9.994  0.5564 -0.6179 -0.8441
   57MOL0     H 7636   5.211   0.885   9.791  0.2383  0.3152 -1.3203
   57MOL0     H 7637   5.187   1.048   9.727 -0.3938  0.7035  0.4076
   57MOL0     H 7638   5.416   1.082   9.692  0.2746 -0.5296  0.4263
   57MOL0     H 7639   5.470   0.961   9.816  1.2313 -3.5312 -2.6610
   57MOL0     H 7640   5.329   0.889   9.543 -1.3840  3.0486  0.4142
   57MOL0     H 7641   5.506   0.892   9.580 -0.4781 -1.7058  0.5604
   57MOL0     H 7642   5.459   0.707   9.739 -1.0790  1.8462  1.0443
   57MOL0     H 7643   5.292   0.698   9.671 -0.3528 -0.5653 -2.5014
   57MOL0     H 7644   5.426   0.686   9.439  1.0114 -1.4926 -0.2153
   57MOL0     H 7645   5.403   0.552   9.555 -2.2011  1.7958  6.0565
   57MOL0     H 7646   5.664   0.785   9.384 -2.1280  1.1557 -0.2297
   57MOL0     H 7647   5.995   0.796   9.501 -0.5929 -0.0096 -1.3887
   57MOL0     H 7648   5.992   0.627   9.450 -3.3065 -2.0745 -2.1088
   57MOL0     H 7649   5.876   0.840   9.285 -0.6236 -0.2872 -0.4076
   57MOL0     H 7650   5.885   0.664   9.257 -1.6534 -1.2848  2.9573
   57MOL0     H 7651   6.150   0.696   9.267 -0.6517 -0.5849  0.9469
   57MOL0     H 7652   6.112   0.864   9.312  0.3132 -0.2352 -0.3111
   57MOL0     H 7653   6.012   0.907   9.081  0.0597  0.5803 -0.3015
   57MOL0     H 7654   6.055   0.731   9.040  0.7269  0.5010 -0.3973
   57MOL0     H 7655   6.370   0.969   8.906 -3.9182 -0.0791  0.7984
   57MOL0     H 7656   6.644   0.843   8.678  2.1673 -0.0202 -0.4648
   57MOL0     H 7657   6.544   0.969   8.736 -0.5080 -0.8561  1.1070
   57MOL0     H 7658   6.693   0.916   8.827 -0.4016  4.7667 -1.4872
   57MOL0     H 7659   6.964   0.833   8.698  2.5357 -0.2291  1.3849
   57MOL0     H 7660   7.143   0.774   8.566 -2.6020  1.4883  1.0836
   57MOL0     H 7661   7.195   0.601   8.347 -1.3042  0.4267  2.1112
   57MOL0     H 7662   7.304   0.711   8.415  1.3459  0.1867  3.0549
   57MOL0     H 7663   7.469   0.500   8.406 -2.3014 -2.4102  1.7214
   57MOL0     H 7664   7.338   0.429   8.310 -1.4318  0.0346  1.4638
   57MOL0     H 7665   7.480   0.701   8.253  1.0820  0.5560  0.7793
   57MOL0     H 7666   7.337   0.656   8.170  0.4383  0.6517  0.6870
   57MOL0     H 7667   7.609   0.532   8.176 -0.3883 -1.3571  0.5009
   57MOL0     H 7668   7.484   0.452   8.085  1.0499  0.0475  0.8768
   57MOL0     H 7669   7.460   0.612   7.924 -1.6233 -1.2856  1.2297
   57MOL0     H 7670   7.639   0.596   7.959 -0.0509 -1.8352  0.3173
   57MOL0     H 7671   7.480   0.831   8.067  0.2347 -1.1058  0.6266
   57MOL0     H 7672   7.655   0.804   8.101 -1.7173  0.9927  1.7158
   57MOL0     H 7673   7.544   0.948   7.898 -3.1265 -1.7435 -1.6751
   57MOL0     H 7674   7.585   0.803   7.809 -1.8920  3.0249 -1.9050
   57MOL0     H 7675   7.808   0.800   7.885  0.2936  0.5082  0.6968
   57MOL0     H 7676   7.784   0.936   7.996 -1.5104 -2.0395  1.8738
   57MOL0     H 7677   7.072   0.364   8.629  1.2118 -0.3056 -0.4464
   57MOL0     H 7678   6.879   0.425   8.787  2.5263  0.1499  3.1916
   57MOL0     H 7679   6.457   0.487   8.973  2.6712  1.7290 -1.1962
   57MOL0     H 7680   6.257   0.605   9.078 -1.6779  2.7515  0.6286
   57MOL0     H 7681   5.236   0.844  10.373  0.4813  1.7188 -3.1226
   57MOL0     H 7682   5.228   0.884  10.630  0.6325  1.8489  0.5913
   57MOL0     H 7683   5.238   1.247  10.924 -0.7399  0.9123 -0.3733
   57MOL0     H 7684   5.236   1.344  11.160  0.0542  0.1981  2.3702
   57MOL0     H 7685   5.345   1.290  11.385  2.4154  0.8187  1.9199
   57MOL0     H 7686   5.228   1.419  11.370 -1.2298  0.3155  0.8313
   57MOL0     H 7687   5.278   1.231  11.608 -4.4002 -0.8259  1.8130
   57MOL0     H 7688   5.141   1.333  11.613  0.2336  0.6077  0.9737
   57MOL0     H 7689   5.401   1.472  11.536 -0.3987 -0.4348 -1.8321
   57MOL0     H 7690   5.374   1.419  11.705  2.7780  0.0478 -0.5402
   57MOL0     H 7691   5.175   1.559  11.715  1.3365 -1.2077  0.7724
   57MOL0     H 7692   5.192   1.596  11.536 -0.9857  0.0097 -0.3290
   57MOL0     H 7693   5.468   1.861  11.716  1.8645 -1.0188  3.7011
   57MOL0     H 7694   5.050   0.991  11.311 -1.4999  0.7060 -1.2124
   57MOL0     H 7695   5.046   0.899  11.093 -3.4846  0.6899  0.0752
   58MOL0     O 7696  11.128   5.352   3.699 -0.7496  0.7191  0.0546
   58MOL0     C 7697  11.215   5.257   3.721 -0.3451  0.2254  0.1356
   58MOL0     O 7698  11.305   5.213   3.630  0.4007  0.2832 -0.1618
   58MOL0     C 7699  11.338   5.286   3.520  0.3290  0.2118  0.6068
   58MOL0     C 7700  11.246   5.359   3.437  0.1609 -0.2184  0.0250
   58MOL0     C 7701  11.308   5.420   3.318  0.5129  0.5956  1.0934
   58MOL0     C 7702  11.440   5.423   3.292  0.7368  0.2757  0.5176
   58MOL0     O 7703  11.499   5.497   3.191 -0.3575  0.4004  0.0525
   58MOL0     C 7704  11.455   5.486   3.053  0.8901  0.0190 -0.6344
   58MOL0     C 7705  11.576   5.501   2.957  0.0099  0.0434 -0.6060
   58MOL0     C 7706  11.625   5.649   2.967 -0.4105 -0.2260  0.3724
   58MOL0     C 7707  11.644   5.713   2.831  0.9844  0.7332  0.2338
   58MOL0     C 7708  11.710   5.846   2.845  0.2696  0.7507 -0.2561
   58MOL0     C 7709  11.618   5.952   2.891 -0.2612 -0.6808 -0.0795
   58MOL0     C 7710  11.677   6.087   2.926 -1.2845  0.3320 -0.5842
   58MOL0     C 7711  11.573   6.173   3.006  0.0789  0.2946 -0.9616
   58MOL0     N 7712  11.607   6.311   3.044 -0.0077 -0.6883 -0.3291
   58MOL0     C 7713  11.694   6.359   3.135 -0.7005 -0.0345 -0.1816
   58MOL0     C 7714  11.692   6.491   3.123  1.0770 -0.1394 -0.2836
   58MOL0     C 7715  11.790   6.579   3.179 -0.0799 -0.0284 -0.2049
   58MOL0     C 7716  11.835   6.678   3.063  0.0044 -0.0739 -0.1367
   58MOL0     C 7717  11.953   6.761   3.100 -0.7563 -0.4169 -0.8079
   58MOL0     C 7718  12.086   6.688   3.092  0.2711 -0.2108  0.6772
   58MOL0     O 7719  12.195   6.776   3.147  0.5545  0.1414 -0.1793
   58MOL0     C 7720  12.256   6.872   3.075 -0.0622  0.4275  0.5296
   58MOL0     C 7721  12.358   6.957   3.136  0.6801  0.1170 -0.2625
   58MOL0     C 7722  12.429   7.058   3.076 -0.9262  0.2666  0.7991
   58MOL0     C 7723  12.530   7.138   3.148 -0.6479 -0.2667  0.5845
   58MOL0     C 7724  12.410   7.074   2.934  0.3673  0.6472 -1.0300
   58MOL0     C 7725  12.487   7.165   2.841 -0.8228  0.0362  0.3268
   58MOL0     O 7726  12.599   7.227   2.890 -0.0158 -0.1138 -0.3374
   58MOL0     C 7727  12.669   7.311   2.806  0.0395 -0.5942  0.3986
   58MOL0     C 7728  12.665   7.451   2.828 -0.8130 -0.1278 -0.8497
   58MOL0     C 7729  12.743   7.543   2.762  0.9192  0.5711  0.2489
   58MOL0     C 7730  12.814   7.488   2.656  0.0914  0.2842  0.3731
   58MOL0     O 7731  12.871   7.572   2.561  0.2413  0.0419 -0.8587
   58MOL0     C 7732  12.944   7.693   2.596  0.5849  0.8943 -0.4475
   58MOL0     C 7733  13.075   7.688   2.508 -0.8416 -0.8587  0.0523
   58MOL0     C 7734  13.166   7.810   2.544  0.5909  0.0868 -0.4578
   58MOL0     C 7735  13.236   7.880   2.431  1.3505 -0.0322 -0.5848
   58MOL0     C 7736  13.317   7.995   2.491 -0.3824 -1.0720 -0.7120
   58MOL0     C 7737  13.229   8.109   2.550  0.7472 -0.6956  0.0051
   58MOL0     C 7738  13.291   8.247   2.539 -0.3788 -0.3920 -0.0999
   58MOL0     C 7739  13.288   8.302   2.402  0.2208 -0.4177 -0.0764
   58MOL0    Cl 7740  13.361   8.462   2.393  0.0740 -0.2894  0.0496
   58MOL0     C 7741  12.821   7.351   2.633  0.2691  0.9557 -0.3856
   58MOL0     C 7742  12.744   7.260   2.703  0.0831 -0.0909 -0.2535
   58MOL0     O 7743  12.440   7.177   2.724 -0.2898  0.1385  0.0762
   58MOL0     C 7744  12.314   6.985   2.877 -0.4690  0.1848  0.2893
   58MOL0     C 7745  12.239   6.883   2.936  0.3333 -0.0715 -0.0984
   58MOL0     N 7746  11.596   6.523   3.028  0.4597  0.0877  0.0276
   58MOL0     N 7747  11.553   6.414   2.979  0.2741 -0.7526 -1.1685
   58MOL0     C 7748  11.526   5.350   3.373  0.5940 -0.1927 -0.1588
   58MOL0     C 7749  11.473   5.280   3.486  0.1809  0.2901 -0.2936
   58MOL0     C 7750  11.221   5.190   3.851 -0.7740  0.2521 -0.1082
   58MOL0     C 7751  11.105   5.192   3.928  0.0433 -0.7708  1.1735
   58MOL0     C 7752  11.096   5.117   4.043  0.3973  0.0246 -0.3609
   58MOL0     C 7753  11.205   5.055   4.103 -0.0223  0.2762 -0.1489
   58MOL0     O 7754  11.202   4.983   4.221 -0.9259 -0.5818  1.1009
   58MOL0     C 7755  11.100   5.011   4.315  0.3027 -0.5837  0.2509
   58MOL0     C 7756  11.102   4.929   4.442  0.6869 -1.0522  0.6657
   58MOL0     C 7757  11.245   4.911   4.491  1.4092  0.4296 -0.6815
   58MOL0     C 7758  11.255   4.864   4.641  0.5923  0.7087 -0.2711
   58MOL0     C 7759  11.185   4.732   4.669  0.7458 -1.1156  1.2236
   58MOL0     C 7760  11.128   4.625   4.685 -1.2771  0.6220 -0.2305
   58MOL0     C 7761  11.326   5.073   4.038 -0.4734 -0.2995  0.0381
   58MOL0     C 7762  11.335   5.133   3.910 -0.6552  0.1071  0.9512
   58MOL0     H 7763  11.139   5.366   3.455  0.2195 -2.0110  1.3136
   58MOL0     H 7764  11.231   5.457   3.251 -0.1602  1.0841  2.1068
   58MOL0     H 7765  11.407   5.389   3.045  1.2232 -0.2068  0.0314
   58MOL0     H 7766  11.372   5.554   3.031  0.7105 -0.0222 -0.0919
   58MOL0     H 7767  11.663   5.449   2.999  0.9389  1.8220 -0.2190
   58MOL0     H 7768  11.546   5.475   2.855 -2.1842 -0.5744  0.1346
   58MOL0     H 7769  11.558   5.710   3.028 -1.3649 -0.8057 -0.0660
   58MOL0     H 7770  11.727   5.652   3.007  0.5418  0.9255 -1.9671
   58MOL0     H 7771  11.711   5.652   2.771  0.5012  0.0045  0.4189
   58MOL0     H 7772  11.551   5.728   2.775  0.0145 -2.2377  0.8380
   58MOL0     H 7773  11.792   5.848   2.917 -1.0924  2.6743  1.3597
   58MOL0     H 7774  11.739   5.866   2.741 -2.2383 -4.5151 -2.3309
   58MOL0     H 7775  11.538   5.965   2.818 -1.8250 -0.0096  1.6799
   58MOL0     H 7776  11.554   5.920   2.973  2.0661 -2.9672  0.9882
   58MOL0     H 7777  11.775   6.071   2.972  0.0541 -2.6789 -3.9812
   58MOL0     H 7778  11.708   6.152   2.843  1.8619  0.9937  0.9298
   58MOL0     H 7779  11.583   6.121   3.101  1.8137  0.6857 -0.9022
   58MOL0     H 7780  11.473   6.163   2.963  0.4917 -1.0407 -1.6630
   58MOL0     H 7781  11.755   6.304   3.206  2.0289 -0.3417 -2.6104
   58MOL0     H 7782  11.740   6.635   3.258  1.0328 -0.5326  0.8989
   58MOL0     H 7783  11.871   6.514   3.214 -0.4854 -1.1862 -1.3292
   58MOL0     H 7784  11.753   6.747   3.043  2.3071  2.2579 -2.1633
   58MOL0     H 7785  11.855   6.609   2.981 -2.2624 -0.8994 -0.0664
   58MOL0     H 7786  11.938   6.820   3.190 -0.8052  3.1895 -2.9671
   58MOL0     H 7787  11.951   6.842   3.027 -0.8125 -1.2086 -1.7133
   58MOL0     H 7788  12.108   6.662   2.988 -3.3444  3.1781 -1.2000
   58MOL0     H 7789  12.073   6.599   3.154  2.1376 -0.6324  0.5176
   58MOL0     H 7790  12.376   6.960   3.243 -2.0066 -2.7684  0.4318
   58MOL0     H 7791  12.533   7.104   3.251  1.6554 -2.1626 -0.0172
   58MOL0     H 7792  12.628   7.117   3.104 -3.0248 -1.0550 -5.2649
   58MOL0     H 7793  12.509   7.245   3.145  2.0947  0.3508  1.2153
   58MOL0     H 7794  12.613   7.476   2.920  1.1702  0.0314  0.2905
   58MOL0     H 7795  12.752   7.647   2.792 -2.3284  1.2920 -0.8740
   58MOL0     H 7796  12.880   7.780   2.577  1.0922  0.8180 -2.9068
   58MOL0     H 7797  12.971   7.687   2.702  0.0538  1.6090 -0.2648
   58MOL0     H 7798  13.127   7.593   2.524  1.4438 -0.1303 -2.3424
   58MOL0     H 7799  13.068   7.677   2.399  3.0335  0.4714 -0.4855
   58MOL0     H 7800  13.246   7.780   2.612  0.9356  0.8172 -0.5359
   58MOL0     H 7801  13.112   7.892   2.593 -0.2736  0.8497 -2.5501
   58MOL0     H 7802  13.301   7.806   2.382  1.6376 -0.0344 -0.2113
   58MOL0     H 7803  13.169   7.918   2.354  0.6893 -2.0500 -1.0894
   58MOL0     H 7804  13.372   8.034   2.405  1.3520 -0.7398  0.5035
   58MOL0     H 7805  13.392   7.962   2.563 -2.6023  0.6063  2.6441
   58MOL0     H 7806  13.140   8.124   2.488 -0.9229  3.6589  2.9475
   58MOL0     H 7807  13.203   8.086   2.654 -1.2823  0.4801 -0.1859
   58MOL0     H 7808  13.396   8.230   2.564 -0.4114 -0.2183  0.1618
   58MOL0     H 7809  13.236   8.312   2.607 -3.3040 -0.0166 -2.6015
   58MOL0     H 7810  13.185   8.312   2.365  0.4095 -0.9783 -0.7701
   58MOL0     H 7811  13.337   8.231   2.335  1.4765 -0.0910  0.4618
   58MOL0     H 7812  12.879   7.317   2.549  2.0592  0.7265  0.8846
   58MOL0     H 7813  12.744   7.154   2.681  2.5576 -0.3054  0.5054
   58MOL0     H 7814  12.302   6.988   2.769  1.2580  1.3569  0.0850
   58MOL0     H 7815  12.185   6.817   2.869  2.8648 -1.2587 -1.1093
   58MOL0     H 7816  11.628   5.335   3.340 -0.3097 -1.7037 -2.5320
   58MOL0     H 7817  11.549   5.230   3.545  1.5548  0.4877 -1.8212
   58MOL0     H 7818  11.014   5.243   3.897  1.9519  0.9749 -2.2376
   58MOL0     H 7819  10.999   5.115   4.092 -0.9194 -1.0080 -2.8588
   58MOL0     H 7820  11.118   5.115   4.343 -0.7649 -0.0290 -1.0115
   58MOL0     H 7821  10.999   4.991   4.279  0.5415  0.2996 -0.9417
   58MOL0     H 7822  11.040   4.840   4.426 -0.6524  0.2642 -2.1448
   58MOL0     H 7823  11.039   4.990   4.508 -2.4504 -0.1401 -2.7905
   58MOL0     H 7824  11.292   5.009   4.480  0.2706  0.8169 -2.4728
   58MOL0     H 7825  11.302   4.842   4.428  0.2288  0.3776 -1.7319
   58MOL0     H 7826  11.207   4.933   4.710 -1.0714 -2.3949  1.9144
   58MOL0     H 7827  11.361   4.851   4.664  0.2671  0.9912  1.5270
   58MOL0     H 7828  11.091   4.531   4.721  0.1471  0.7844  1.8520
   58MOL0     H 7829  11.419   5.042   4.083 -2.3420 -3.3038  2.2033
   58MOL0     H 7830  11.437   5.142   3.874 -0.4043  1.7356  1.9595
   59MOL0     O 7831  10.837   8.957   3.519 -0.2112  0.4932 -0.4616
   59MOL0     C 7832  10.860   8.933   3.635  0.2786  0.1665 -0.0930
   59MOL0     O 7833  10.979   8.929   3.697 -0.5834 -0.9281 -0.8057
   59MOL0     C 7834  11.079   8.990   3.625  0.3829  0.4675 -0.1528
   59MOL0     C 7835  11.159   9.089   3.688  0.4037 -0.2306 -0.1098
   59MOL0     C 7836  11.275   9.141   3.622  0.9109  0.0978 -0.2387
   59MOL0     C 7837  11.316   9.082   3.497 -0.8951 -0.2181 -0.0482
   59MOL0     O 7838  11.431   9.136   3.443  1.0174 -0.2085 -0.5326
   59MOL0     C 7839  11.495   9.102   3.317 -0.8559  0.8258  0.0172
   59MOL0     C 7840  11.435   9.175   3.194 -0.4691 -0.1548  0.3769
   59MOL0     C 7841  11.531   9.180   3.065 -0.4354 -0.3781 -0.3741
   59MOL0     C 7842  11.517   9.055   2.980  0.8841 -0.5607 -0.9563
   59MOL0     C 7843  11.382   9.031   2.911  0.7606 -0.6561  0.3753
   59MOL0     C 7844  11.387   8.901   2.830  0.2804 -0.2692  0.1926
   59MOL0     C 7845  11.252   8.888   2.750 -0.2866  0.0909 -1.2362
   59MOL0     C 7846  11.157   8.800   2.821  0.0600  0.0168 -0.6062
   59MOL0     N 7847  11.062   8.716   2.746  0.1654  0.0526 -0.0253
   59MOL0     C 7848  11.058   8.708   2.612 -0.0634 -0.6516 -0.8215
   59MOL0     C 7849  10.944   8.636   2.593  0.0561  0.1589  0.1971
   59MOL0     C 7850  10.898   8.602   2.450  0.6922 -0.3892  0.1409
   59MOL0     C 7851  10.798   8.485   2.439 -0.0084  0.3972 -0.5760
   59MOL0     C 7852  10.657   8.517   2.467 -0.3269 -0.2771  0.2898
   59MOL0     C 7853  10.571   8.389   2.461  0.4311  0.4908 -0.5819
   59MOL0     O 7854  10.435   8.425   2.418 -1.0169 -0.1704  0.1824
   59MOL0     C 7855  10.341   8.318   2.402  0.9888  0.0557  0.0638
   59MOL0     C 7856  10.346   8.206   2.478 -0.2962 -0.6665  0.6039
   59MOL0     C 7857  10.240   8.117   2.474 -0.4825 -0.4802  0.7312
   59MOL0     C 7858  10.266   7.995   2.553 -0.4565 -1.2460 -0.1155
   59MOL0     C 7859  10.125   8.130   2.388 -0.4299  0.1812 -0.4173
   59MOL0     C 7860  10.015   8.033   2.389  0.4795 -0.2567  0.5505
   59MOL0     O 7861   9.996   7.942   2.498  0.0366 -0.4999 -0.1544
   59MOL0     C 7862   9.910   7.831   2.493 -0.1899 -0.3347 -0.1467
   59MOL0     C 7863   9.919   7.728   2.392  0.3438 -0.7436 -0.1755
   59MOL0     C 7864   9.832   7.623   2.400  0.7844  0.3946  0.3887
   59MOL0     C 7865   9.743   7.615   2.507 -0.4084  0.8669  0.0357
   59MOL0     O 7866   9.642   7.525   2.508  0.2161 -0.4088 -0.6848
   59MOL0     C 7867   9.659   7.384   2.473  0.6600 -0.0150  0.3986
   59MOL0     C 7868   9.541   7.292   2.491  0.1745  0.1861 -0.0721
   59MOL0     C 7869   9.519   7.268   2.640 -0.2857 -0.4260 -0.8685
   59MOL0     C 7870   9.383   7.198   2.666  1.0268 -0.3228  0.7762
   59MOL0     C 7871   9.405   7.038   2.653  0.3199  0.7742  0.5506
   59MOL0     C 7872   9.272   6.967   2.679 -0.1040  0.6283 -0.6520
   59MOL0     C 7873   9.214   6.975   2.822 -0.1067 -0.0346  0.3474
   59MOL0     C 7874   9.246   6.848   2.903 -0.8835 -0.4667 -0.8115
   59MOL0    Cl 7875   9.417   6.801   2.893  0.1449 -0.6239 -0.4843
   59MOL0     C 7876   9.718   7.718   2.593  0.0389  0.0336 -0.3199
   59MOL0     C 7877   9.806   7.820   2.593 -0.5143 -0.7337  0.3115
   59MOL0     O 7878   9.944   8.036   2.287  0.1545  0.7566 -0.7429
   59MOL0     C 7879  10.120   8.254   2.303  0.5434  0.5618 -0.1024
   59MOL0     C 7880  10.227   8.341   2.312 -0.3621  0.2671  0.5856
   59MOL0     N 7881  10.875   8.597   2.719  0.0548 -0.3437 -0.0573
   59MOL0     N 7882  10.958   8.653   2.814  0.3247  0.3177 -0.0399
   59MOL0     C 7883  11.251   8.975   3.450 -0.5927  0.2302 -0.0235
   59MOL0     C 7884  11.136   8.926   3.512 -0.8928 -0.3949 -0.0056
   59MOL0     C 7885  10.736   8.931   3.717  0.3035  0.8855  1.4287
   59MOL0     C 7886  10.731   8.876   3.847 -0.1227 -0.2343 -0.9808
   59MOL0     C 7887  10.609   8.868   3.922 -0.3161  0.4461 -0.0213
   59MOL0     C 7888  10.491   8.918   3.864 -0.2037 -0.0865 -0.4283
   59MOL0     O 7889  10.367   8.927   3.924  0.6432  0.6222 -0.0932
   59MOL0     C 7890  10.355   8.861   4.047  0.0360 -0.6436 -0.5727
   59MOL0     C 7891  10.205   8.860   4.096 -0.7027  0.4822  0.2692
   59MOL0     C 7892  10.147   8.742   4.027  1.3500  0.2447  0.1558
   59MOL0     C 7893  10.015   8.763   3.963  0.7642  0.1585 -0.4155
   59MOL0     C 7894   9.963   8.635   3.905  1.5842 -0.2131 -1.6839
   59MOL0     C 7895   9.921   8.529   3.870  0.2430  0.2806 -0.4263
   59MOL0     C 7896  10.498   8.973   3.734  0.6543 -0.1085  0.0914
   59MOL0     C 7897  10.618   8.981   3.663  0.3987 -0.6980  0.0417
   59MOL0     H 7898  11.131   9.127   3.786 -2.8557  3.5430 -2.2118
   59MOL0     H 7899  11.318   9.229   3.669  0.7562  0.1820 -0.2523
   59MOL0     H 7900  11.603   9.118   3.311 -0.9698  1.7723  0.3199
   59MOL0     H 7901  11.474   8.996   3.297 -1.7598  0.9911  0.0647
   59MOL0     H 7902  11.343   9.130   3.155  0.4198  1.6001 -4.4659
   59MOL0     H 7903  11.414   9.274   3.233 -0.9827 -0.3317  0.5539
   59MOL0     H 7904  11.490   9.251   2.993  0.7850  1.0623  0.3081
   59MOL0     H 7905  11.635   9.206   3.085 -0.6040 -0.7447  1.1129
   59MOL0     H 7906  11.587   9.079   2.899  2.7261  1.6873  1.1484
   59MOL0     H 7907  11.544   8.968   3.040 -2.2606 -1.8991 -1.2890
   59MOL0     H 7908  11.300   9.019   2.983 -2.7797 -1.8106 -3.4846
   59MOL0     H 7909  11.374   9.110   2.836  3.1606 -1.2029 -0.5592
   59MOL0     H 7910  11.474   8.909   2.764 -0.3392 -0.5522 -0.6707
   59MOL0     H 7911  11.412   8.816   2.894 -0.5795 -0.7648 -0.1161
   59MOL0     H 7912  11.207   8.983   2.720 -0.8152 -0.4091 -2.0709
   59MOL0     H 7913  11.286   8.845   2.656  1.6848  0.5802 -0.7787
   59MOL0     H 7914  11.110   8.861   2.899  1.9239  0.8575 -0.0806
   59MOL0     H 7915  11.223   8.730   2.873  0.3993  1.1339  0.5390
   59MOL0     H 7916  11.117   8.767   2.543  0.7748  1.1795  1.3421
   59MOL0     H 7917  10.855   8.683   2.390 -1.0249 -2.8422 -2.1741
   59MOL0     H 7918  10.986   8.576   2.391  0.6903  1.1825 -0.6088
   59MOL0     H 7919  10.821   8.402   2.508  2.1134  0.3564 -1.2808
   59MOL0     H 7920  10.798   8.453   2.335 -1.1727 -1.3845 -0.0840
   59MOL0     H 7921  10.613   8.577   2.387  0.0763 -0.0265  0.2538
   59MOL0     H 7922  10.662   8.578   2.558  1.6909  2.6621 -1.6307
   59MOL0     H 7923  10.576   8.332   2.554  1.7379  3.0875  1.0504
   59MOL0     H 7924  10.612   8.336   2.375 -0.3688  3.2433 -2.8201
   59MOL0     H 7925  10.425   8.188   2.550  1.4197  4.0513  0.2672
   59MOL0     H 7926  10.361   7.987   2.607 -0.2521  5.3859  1.2946
   59MOL0     H 7927  10.192   8.010   2.633  2.3893  0.3077  2.4165
   59MOL0     H 7928  10.257   7.906   2.489 -0.4439 -0.2419 -1.5706
   59MOL0     H 7929   9.982   7.746   2.305 -0.9091  0.1954 -0.9138
   59MOL0     H 7930   9.841   7.546   2.324  1.7122 -0.6193  1.4743
   59MOL0     H 7931   9.685   7.388   2.367 -0.8626 -2.3838 -0.1267
   59MOL0     H 7932   9.741   7.339   2.529 -0.4894 -4.3639 -1.0305
   59MOL0     H 7933   9.454   7.343   2.447 -1.1199 -1.1644  0.8282
   59MOL0     H 7934   9.568   7.194   2.450  0.0383 -0.9089  2.2908
   59MOL0     H 7935   9.512   7.362   2.696 -3.7656 -1.6874  1.1549
   59MOL0     H 7936   9.596   7.201   2.680 -0.3322 -0.6886 -1.2170
   59MOL0     H 7937   9.356   7.226   2.769  0.5045 -0.4871  0.6871
   59MOL0     H 7938   9.301   7.235   2.604  3.4166 -1.5989 -3.5250
   59MOL0     H 7939   9.471   7.006   2.734 -0.6804  0.3101  1.2095
   59MOL0     H 7940   9.448   7.009   2.557  2.2970 -1.5802  2.0134
   59MOL0     H 7941   9.194   7.017   2.620 -1.2390  2.5439  2.2160
   59MOL0     H 7942   9.274   6.861   2.652 -6.1583 -1.1694  3.5731
   59MOL0     H 7943   9.106   6.992   2.818  0.1645  1.7193 -0.2196
   59MOL0     H 7944   9.250   7.066   2.870 -1.2179  0.7217 -0.2127
   59MOL0     H 7945   9.186   6.764   2.867  0.3983 -1.4569 -0.6919
   59MOL0     H 7946   9.216   6.860   3.007  4.1538 -0.6371  0.8829
   59MOL0     H 7947   9.637   7.712   2.665 -0.1479 -0.5365 -0.5699
   59MOL0     H 7948   9.809   7.901   2.665 -0.6590 -0.7853  0.3760
   59MOL0     H 7949  10.029   8.275   2.249  0.7395 -0.5917 -0.9270
   59MOL0     H 7950  10.223   8.436   2.259 -2.2506 -1.0142 -1.7329
   59MOL0     H 7951  11.289   8.916   3.367 -0.5234 -0.8162  0.7262
   59MOL0     H 7952  11.093   8.836   3.470  0.0751 -1.0509  0.3859
   59MOL0     H 7953  10.824   8.832   3.882 -0.9955 -1.5556 -0.2605
   59MOL0     H 7954  10.615   8.812   4.014 -2.8072  0.5691  0.2769
   59MOL0     H 7955  10.386   8.756   4.038  2.1060 -0.0718 -0.7884
   59MOL0     H 7956  10.424   8.906   4.119 -1.4310  2.5786 -1.0256
   59MOL0     H 7957  10.165   8.957   4.066  1.3576  1.3360  0.1117
   59MOL0     H 7958  10.189   8.866   4.204 -1.9861  4.3433  0.0246
   59MOL0     H 7959  10.131   8.665   4.104  2.8359  1.2081  1.4861
   59MOL0     H 7960  10.222   8.707   3.956 -0.9036  1.5965 -3.1132
   59MOL0     H 7961  10.024   8.838   3.884 -2.1112 -0.0013 -0.9846
   59MOL0     H 7962   9.938   8.807   4.026 -1.6322 -2.6183 -1.1865
   59MOL0     H 7963   9.874   8.443   3.826 -2.2011  0.1376  2.1668
   59MOL0     H 7964  10.404   9.008   3.692 -0.5554 -3.8268 -0.6324
   59MOL0     H 7965  10.624   9.031   3.567  2.1477  2.5133  1.6426
   60MOL0     O 7966   7.632   6.340   3.120  0.4308  0.2997  1.1695
   60MOL0     C 7967   7.512   6.324   3.150  0.1873  0.5900 -0.4644
   60MOL0     O 7968   7.463   6.317   3.284 -0.1058  0.1782 -0.5593
   60MOL0     C 7969   7.547   6.345   3.383  0.2663  1.0173  0.4404
   60MOL0     C 7970   7.609   6.465   3.418 -0.5273  0.1489 -0.7314
   60MOL0     C 7971   7.685   6.492   3.531  0.1541  0.1844  0.6502
   60MOL0     C 7972   7.709   6.383   3.619  0.6643  0.0461 -0.0843
   60MOL0     O 7973   7.793   6.378   3.728  0.1969 -1.0532 -0.0865
   60MOL0     C 7974   7.748   6.468   3.831  0.1219 -0.2513 -0.3046
   60MOL0     C 7975   7.816   6.455   3.967 -0.0498  0.3377  0.3300
   60MOL0     C 7976   7.833   6.301   3.993 -0.7829 -0.3776 -0.4051
   60MOL0     C 7977   7.693   6.227   4.000  0.2818 -0.1707  0.1048
   60MOL0     C 7978   7.707   6.076   4.015 -0.0632 -0.6370  0.8698
   60MOL0     C 7979   7.753   6.034   4.155  0.2157  0.2715  0.5103
   60MOL0     C 7980   7.754   5.877   4.165 -0.3473 -0.8853 -0.6729
   60MOL0     C 7981   7.813   5.847   4.302 -0.8570 -1.0510 -0.1226
   60MOL0     N 7982   7.804   5.703   4.336 -0.0151 -0.3747  0.4500
   60MOL0     C 7983   7.895   5.614   4.294  0.9510  0.2614 -1.6908
   60MOL0     C 7984   7.841   5.494   4.336 -0.0044  0.3926  1.2776
   60MOL0     C 7985   7.900   5.356   4.339  0.6305  1.8416  0.3166
   60MOL0     C 7986   7.967   5.326   4.204 -0.0260  0.3008 -0.4216
   60MOL0     C 7987   8.055   5.212   4.191 -0.4109  0.6505 -0.9123
   60MOL0     C 7988   7.978   5.078   4.205  0.1327  0.8680  0.3609
   60MOL0     O 7989   8.069   4.962   4.218  0.0504 -0.0059 -0.5350
   60MOL0     C 7990   8.162   4.954   4.315 -1.0494  0.2493 -0.8934
   60MOL0     C 7991   8.155   5.025   4.436  0.3323  0.4375  0.0479
   60MOL0     C 7992   8.259   5.030   4.527  0.1995 -1.2827  0.1586
   60MOL0     C 7993   8.231   5.131   4.633 -0.7888  0.3852 -0.4845
   60MOL0     C 7994   8.365   4.946   4.506 -1.0374  1.2572 -0.0254
   60MOL0     C 7995   8.481   4.919   4.609  0.6210 -0.9004  1.2566
   60MOL0     O 7996   8.468   4.978   4.731  0.0163 -0.2575  0.3692
   60MOL0     C 7997   8.589   4.989   4.800  0.6618  0.1897  0.0602
   60MOL0     C 7998   8.624   4.899   4.895  0.5402  0.6021 -0.5550
   60MOL0     C 7999   8.743   4.925   4.974 -0.9091  0.6115 -1.1358
   60MOL0     C 8000   8.820   5.031   4.955 -0.2336  0.5364 -0.3983
   60MOL0     O 8001   8.922   5.055   5.042 -0.5300  0.6020  0.1428
   60MOL0     C 8002   9.054   5.073   4.980 -1.0135  0.1874 -0.5270
   60MOL0     C 8003   9.179   5.052   5.070 -0.6621 -0.8813 -0.2344
   60MOL0     C 8004   9.184   4.901   5.107  0.5044  0.5951 -0.3413
   60MOL0     C 8005   9.321   4.883   5.171 -1.0270  0.0858 -0.3530
   60MOL0     C 8006   9.378   4.741   5.178 -0.0045  0.9132  0.1425
   60MOL0     C 8007   9.500   4.729   5.274  0.1902 -0.8205 -0.4035
   60MOL0     C 8008   9.539   4.580   5.286 -0.4962 -0.7133 -0.9994
   60MOL0     C 8009   9.419   4.507   5.341  0.0762 -0.5236  0.4194
   60MOL0    Cl 8010   9.479   4.383   5.464  0.5303 -0.6389 -0.6344
   60MOL0     C 8011   8.788   5.120   4.853  0.1831  0.8817  0.5718
   60MOL0     C 8012   8.665   5.106   4.790 -0.3529  0.5908  0.5561
   60MOL0     O 8013   8.572   4.845   4.572  0.0165  0.5846 -0.4328
   60MOL0     C 8014   8.373   4.862   4.388  0.4437  0.3687  0.5536
   60MOL0     C 8015   8.271   4.877   4.292  0.1271  0.2640  0.1119
   60MOL0     N 8016   7.723   5.517   4.404 -0.4069 -0.1200  0.1392
   60MOL0     N 8017   7.707   5.646   4.416 -0.2586 -0.3854  0.1283
   60MOL0     C 8018   7.653   6.256   3.588 -0.1081  0.3712 -0.3661
   60MOL0     C 8019   7.573   6.242   3.476  0.8435 -0.6230 -0.0639
   60MOL0     C 8020   7.407   6.313   3.040  0.2638  0.4067  0.7322
   60MOL0     C 8021   7.271   6.299   3.071 -0.9987 -0.1697  0.4074
   60MOL0     C 8022   7.173   6.285   2.974 -0.5156 -0.0395  0.0188
   60MOL0     C 8023   7.211   6.292   2.834  0.0367 -0.5465  0.0373
   60MOL0     O 8024   7.128   6.274   2.726  0.0523  0.0431  0.8688
   60MOL0     C 8025   6.999   6.336   2.743 -0.9548  0.0046 -0.0740
   60MOL0     C 8026   6.919   6.347   2.614 -0.7655  0.1741  0.7576
   60MOL0     C 8027   6.883   6.213   2.545 -0.7670  0.4418  0.5326
   60MOL0     C 8028   6.775   6.229   2.437  0.9523  0.0766  0.7060
   60MOL0     C 8029   6.761   6.102   2.357  0.3384  0.0901  0.5299
   60MOL0     C 8030   6.728   5.993   2.310  0.9095  0.1346  0.3627
   60MOL0     C 8031   7.350   6.312   2.806 -0.9537  0.7329 -0.4320
   60MOL0     C 8032   7.445   6.312   2.906  0.6803 -0.6126 -0.2170
   60MOL0     H 8033   7.599   6.549   3.349  1.9137  0.9612 -0.2179
   60MOL0     H 8034   7.722   6.590   3.561 -0.3522  0.3382  0.7936
   60MOL0     H 8035   7.767   6.571   3.800 -0.0083  0.5654  2.1485
   60MOL0     H 8036   7.639   6.459   3.840  0.1007 -0.0498 -0.3576
   60MOL0     H 8037   7.903   6.522   3.960 -2.1139  3.2251  0.6537
   60MOL0     H 8038   7.766   6.505   4.051 -1.5021 -1.3499  0.5169
   60MOL0     H 8039   7.905   6.250   3.928  1.6476 -0.4202  2.1553
   60MOL0     H 8040   7.874   6.288   4.093 -0.4617 -1.6069 -0.6903
   60MOL0     H 8041   7.636   6.272   4.082  0.5480 -1.2159  0.8806
   60MOL0     H 8042   7.644   6.261   3.908 -1.4150  1.3995  1.5057
   60MOL0     H 8043   7.611   6.028   3.995  1.7152 -2.8271 -3.5757
   60MOL0     H 8044   7.780   6.047   3.939 -1.0602 -0.0454 -0.3489
   60MOL0     H 8045   7.856   6.069   4.169  0.0781  1.6332 -1.5927
   60MOL0     H 8046   7.685   6.086   4.224 -1.6561  2.2825 -2.5865
   60MOL0     H 8047   7.652   5.838   4.169 -0.8220  0.4271  1.1866
   60MOL0     H 8048   7.819   5.818   4.099  2.8013 -1.6202  2.7192
   60MOL0     H 8049   7.775   5.924   4.370 -2.9173 -1.3363 -0.8858
   60MOL0     H 8050   7.918   5.877   4.295 -1.4491  0.8163 -2.4000
   60MOL0     H 8051   7.996   5.622   4.256  1.1963 -0.6200 -1.2363
   60MOL0     H 8052   7.976   5.357   4.418 -2.7842  0.2843  3.9542
   60MOL0     H 8053   7.837   5.272   4.369 -0.4093  2.2349 -0.6940
   60MOL0     H 8054   8.039   5.405   4.182  1.9114 -1.8745 -2.4256
   60MOL0     H 8055   7.904   5.324   4.115  0.5972  1.0282 -0.8878
   60MOL0     H 8056   8.118   5.218   4.280 -2.2470 -3.9188  0.9588
   60MOL0     H 8057   8.110   5.204   4.097 -0.3904  0.1505 -0.8563
   60MOL0     H 8058   7.906   5.061   4.124 -0.0615 -1.2202  0.8914
   60MOL0     H 8059   7.912   5.083   4.292  1.6709  0.7942  1.5868
   60MOL0     H 8060   8.072   5.093   4.457  1.4509  2.4176 -1.5312
   60MOL0     H 8061   8.322   5.168   4.680 -0.9523  2.5216 -1.7421
   60MOL0     H 8062   8.171   5.215   4.597 -3.0036 -1.7815 -2.1946
   60MOL0     H 8063   8.162   5.086   4.706 -2.5935  1.9846 -1.1354
   60MOL0     H 8064   8.564   4.813   4.921  1.3260  0.9216  2.7314
   60MOL0     H 8065   8.774   4.847   5.044 -0.1047 -0.8206 -2.9806
   60MOL0     H 8066   9.064   5.006   4.895 -0.2764 -0.1007 -0.2172
   60MOL0     H 8067   9.067   5.172   4.934  1.5685  0.3898  0.4718
   60MOL0     H 8068   9.269   5.079   5.014  0.1278  1.8049  2.0814
   60MOL0     H 8069   9.178   5.112   5.162  1.5542 -1.1712  0.0283
   60MOL0     H 8070   9.161   4.830   5.027 -0.8809  0.8148 -0.1695
   60MOL0     H 8071   9.121   4.878   5.193  1.2253 -1.2716 -0.2771
   60MOL0     H 8072   9.402   4.939   5.124 -0.4292  0.1994  0.7684
   60MOL0     H 8073   9.315   4.925   5.272 -0.0058 -2.0653  0.6553
   60MOL0     H 8074   9.411   4.705   5.080 -1.8397 -0.2383 -0.1008
   60MOL0     H 8075   9.290   4.683   5.206 -0.2563  0.7299 -0.9642
   60MOL0     H 8076   9.587   4.784   5.238 -0.4448  1.4688  1.3311
   60MOL0     H 8077   9.473   4.770   5.372 -1.3882 -0.6637 -0.8719
   60MOL0     H 8078   9.632   4.572   5.342 -1.1101 -1.1679 -0.0162
   60MOL0     H 8079   9.561   4.540   5.187 -1.3287 -0.3283 -1.3549
   60MOL0     H 8080   9.367   4.453   5.262  4.7500 -5.2792  0.0644
   60MOL0     H 8081   9.350   4.582   5.381  1.0410  0.6679 -0.0548
   60MOL0     H 8082   8.852   5.206   4.832  2.3148 -0.5448  0.8755
   60MOL0     H 8083   8.632   5.180   4.718 -2.0199  1.0752  1.7608
   60MOL0     H 8084   8.452   4.787   4.389  0.5756  0.5070  0.7513
   60MOL0     H 8085   8.284   4.844   4.189  2.6565 -0.0940  0.4825
   60MOL0     H 8086   7.686   6.178   3.656 -0.3321  1.3513  0.9056
   60MOL0     H 8087   7.515   6.155   3.446 -2.6189  1.6060 -0.3480
   60MOL0     H 8088   7.234   6.283   3.171 -0.4922 -1.4409  0.4239
   60MOL0     H 8089   7.067   6.273   2.996 -0.7125 -2.3863 -1.8682
   60MOL0     H 8090   6.947   6.277   2.818  1.3796 -1.9754  0.0984
   60MOL0     H 8091   7.023   6.439   2.773 -1.7468 -0.5685  2.7986
   60MOL0     H 8092   6.977   6.401   2.539 -0.4794 -2.2699 -0.9010
   60MOL0     H 8093   6.830   6.408   2.634 -1.2305  0.0901 -0.9217
   60MOL0     H 8094   6.834   6.144   2.615 -1.1489 -0.4581 -0.5755
   60MOL0     H 8095   6.972   6.161   2.508 -2.0431 -1.4843 -0.0144
   60MOL0     H 8096   6.808   6.315   2.378  1.4991  0.0679  0.9882
   60MOL0     H 8097   6.682   6.254   2.489  0.1432 -1.6219  0.1217
   60MOL0     H 8098   6.717   5.892   2.278 -0.0334  1.3448 -3.7444
   60MOL0     H 8099   7.373   6.329   2.701  1.3459 -2.3586 -0.5719
   60MOL0     H 8100   7.552   6.319   2.894  0.9708 -0.4459  2.0055
   61MOL0     O 8101   8.101   8.564   8.122  0.3094  0.1735  0.1498
   61MOL0     C 8102   8.205   8.513   8.080  1.1855  0.1614  1.0123
   61MOL0     O 8103   8.325   8.502   8.141 -1.0447  0.6007 -0.7147
   61MOL0     C 8104   8.331   8.550   8.267  1.7572 -0.2938  0.1641
   61MOL0     C 8105   8.322   8.690   8.285 -0.5605 -0.1106  0.2414
   61MOL0     C 8106   8.330   8.759   8.411  0.2187  0.1439  0.0138
   61MOL0     C 8107   8.338   8.672   8.524  0.2215  0.1207 -0.6594
   61MOL0     O 8108   8.376   8.734   8.642  0.1816 -0.1428 -0.6622
   61MOL0     C 8109   8.432   8.637   8.730  0.7725 -0.5172  0.1721
   61MOL0     C 8110   8.503   8.707   8.844  0.0675  0.3949 -0.2278
   61MOL0     C 8111   8.602   8.808   8.779 -0.0776  0.7415 -0.5817
   61MOL0     C 8112   8.694   8.865   8.887  0.2105 -0.2261  0.5042
   61MOL0     C 8113   8.761   8.995   8.837 -0.6959  0.1591 -0.0214
   61MOL0     C 8114   8.858   8.956   8.734  0.6202 -0.0691  0.4746
   61MOL0     C 8115   8.948   9.084   8.702  1.1075  0.1970 -0.9364
   61MOL0     C 8116   9.091   9.036   8.707  0.4058 -0.5333 -0.0385
   61MOL0     N 8117   9.189   9.119   8.630 -0.4816 -0.3528  0.0127
   61MOL0     C 8118   9.242   9.100   8.505  0.0550  0.1690 -1.1046
   61MOL0     C 8119   9.332   9.197   8.492  0.1132 -0.1996 -0.7161
   61MOL0     C 8120   9.421   9.213   8.371 -0.3044 -0.2880  0.4635
   61MOL0     C 8121   9.328   9.269   8.255 -0.3514  0.5720  0.0788
   61MOL0     C 8122   9.405   9.292   8.123  0.1570 -0.7675  0.2239
   61MOL0     C 8123   9.335   9.334   7.999  0.4718  0.3463 -0.3056
   61MOL0     O 8124   9.264   9.457   8.021  0.4067 -0.1948  0.2653
   61MOL0     C 8125   9.156   9.492   7.939  0.3620  0.2267  0.6836
   61MOL0     C 8126   9.124   9.448   7.812  0.2485  0.2055  0.5298
   61MOL0     C 8127   9.010   9.489   7.746 -0.0210 -0.8640 -0.5369
   61MOL0     C 8128   8.979   9.419   7.611  0.7649 -0.1933 -0.3466
   61MOL0     C 8129   8.921   9.576   7.810 -0.3028  0.1447 -0.4197
   61MOL0     C 8130   8.799   9.631   7.747 -0.3542 -1.0920  0.2936
   61MOL0     O 8131   8.702   9.676   7.832 -1.1202  0.6967  0.0672
   61MOL0     C 8132   8.633   9.787   7.795 -0.0968 -0.3318 -0.9422
   61MOL0     C 8133   8.523   9.814   7.879 -0.5235 -0.1176  0.0381
   61MOL0     C 8134   8.443   9.923   7.863  0.1700 -0.4344  0.6752
   61MOL0     C 8135   8.477  10.025   7.770  0.2483  0.2344 -0.3964
   61MOL0     O 8136   8.418  10.150   7.746 -0.0280  0.2003 -0.4599
   61MOL0     C 8137   8.287  10.170   7.780  0.1025  0.5638 -0.1228
   61MOL0     C 8138   8.234  10.316   7.776  0.1158  0.4442  0.1588
   61MOL0     C 8139   8.307  10.395   7.886  0.6308 -0.3358 -0.5835
   61MOL0     C 8140   8.298  10.551   7.889  0.4065 -0.2345 -0.4960
   61MOL0     C 8141   8.381  10.608   8.009 -0.5030 -0.4271  0.5069
   61MOL0     C 8142   8.308  10.587   8.145 -0.3636  0.3735 -1.3548
   61MOL0     C 8143   8.171  10.651   8.146  0.0825 -0.1561  0.7681
   61MOL0     C 8144   8.098  10.645   8.275 -0.2695  0.2236 -0.7269
   61MOL0    Cl 8145   7.988  10.501   8.274 -0.5949 -0.3050 -0.3739
   61MOL0     C 8146   8.588  10.001   7.684 -1.4019  0.5856  0.0103
   61MOL0     C 8147   8.659   9.883   7.698  0.1561 -0.5662 -0.6625
   61MOL0     O 8148   8.790   9.630   7.625 -0.1538 -0.3068  0.0985
   61MOL0     C 8149   8.956   9.610   7.944 -0.4078 -0.9010  0.6239
   61MOL0     C 8150   9.064   9.566   8.007 -1.3982  0.0613 -0.1117
   61MOL0     N 8151   9.314   9.288   8.596 -0.3602  0.3949 -0.3860
   61MOL0     N 8152   9.233   9.238   8.683 -0.1613  0.4041  0.8173
   61MOL0     C 8153   8.316   8.533   8.508 -0.1142 -0.3523  0.3093
   61MOL0     C 8154   8.323   8.473   8.381  0.2674 -0.7122  0.1701
   61MOL0     C 8155   8.188   8.431   7.957  0.3621 -0.3755  0.6697
   61MOL0     C 8156   8.076   8.467   7.876  0.0876 -0.9773  0.0034
   61MOL0     C 8157   8.052   8.391   7.762 -1.3126 -0.0129 -1.0488
   61MOL0     C 8158   8.146   8.296   7.724  0.5487 -0.0526 -0.7427
   61MOL0     O 8159   8.129   8.217   7.616 -0.0135  0.7424 -0.2856
   61MOL0     C 8160   8.140   8.263   7.484 -0.1959  0.3150  0.6486
   61MOL0     C 8161   8.033   8.199   7.375  0.1522  0.6273 -0.1825
   61MOL0     C 8162   7.887   8.237   7.413  0.0193 -0.0262 -0.5907
   61MOL0     C 8163   7.832   8.166   7.538  0.1240 -0.0476  1.0606
   61MOL0     C 8164   7.691   8.198   7.559 -0.1374 -0.3311  0.0464
   61MOL0     C 8165   7.577   8.236   7.590 -0.2656  0.1298  0.1192
   61MOL0     C 8166   8.248   8.264   7.811 -0.1669  0.3318 -0.1234
   61MOL0     C 8167   8.270   8.326   7.930  0.0164 -0.5301 -0.0547
   61MOL0     H 8168   8.313   8.742   8.190 -2.3798 -0.9445 -0.0827
   61MOL0     H 8169   8.340   8.863   8.438  1.9962 -0.7190  3.2188
   61MOL0     H 8170   8.346   8.591   8.779 -0.9629 -0.5576 -2.6794
   61MOL0     H 8171   8.494   8.560   8.683 -1.2735 -1.5116 -1.0760
   61MOL0     H 8172   8.434   8.750   8.917 -0.0659  0.8775 -0.6347
   61MOL0     H 8173   8.567   8.638   8.899  0.5018  2.2804  1.7993
   61MOL0     H 8174   8.668   8.758   8.707 -3.4078 -4.9906 -0.2583
   61MOL0     H 8175   8.550   8.892   8.733  2.9040  3.6747  1.0160
   61MOL0     H 8176   8.631   8.890   8.974  0.8019  0.3580  0.7671
   61MOL0     H 8177   8.769   8.789   8.911 -0.3715 -0.7313  0.7658
   61MOL0     H 8178   8.687   9.069   8.805 -1.8586 -0.9484  0.0113
   61MOL0     H 8179   8.814   9.044   8.919 -0.9916  3.5977 -1.7165
   61MOL0     H 8180   8.926   8.876   8.765 -0.8451 -1.3016  0.6052
   61MOL0     H 8181   8.804   8.935   8.642 -0.7047  0.6740  1.0558
   61MOL0     H 8182   8.933   9.121   8.600 -0.1701  2.0334 -0.1431
   61MOL0     H 8183   8.916   9.162   8.772 -5.8395 -0.4493 -2.6485
   61MOL0     H 8184   9.092   8.932   8.674 -1.4342 -2.0631  4.0487
   61MOL0     H 8185   9.116   9.033   8.813 -1.7519 -0.8909  0.5049
   61MOL0     H 8186   9.231   9.017   8.436 -1.4373  0.7964 -1.6777
   61MOL0     H 8187   9.505   9.279   8.395 -1.1052  0.7635  0.4573
   61MOL0     H 8188   9.451   9.111   8.344 -1.3253 -1.0516  2.0298
   61MOL0     H 8189   9.278   9.362   8.286  2.3661  1.4169  2.4902
   61MOL0     H 8190   9.241   9.204   8.245 -0.7512  1.3102 -1.4817
   61MOL0     H 8191   9.457   9.198   8.104 -0.6611 -0.7296 -2.6981
   61MOL0     H 8192   9.484   9.367   8.136 -1.1894  0.8426 -0.4901
   61MOL0     H 8193   9.262   9.258   7.970 -0.3870  1.9944 -2.8545
   61MOL0     H 8194   9.406   9.342   7.917 -0.1247 -0.4603 -0.9152
   61MOL0     H 8195   9.184   9.380   7.752 -1.7427 -0.5732 -0.6641
   61MOL0     H 8196   8.983   9.483   7.523  0.8859 -1.1496 -1.0578
   61MOL0     H 8197   9.051   9.337   7.600  0.0978 -0.8891  0.3443
   61MOL0     H 8198   8.881   9.375   7.635  1.4404 -0.5416  2.0692
   61MOL0     H 8199   8.510   9.741   7.958 -0.2760 -0.0075  0.1816
   61MOL0     H 8200   8.359   9.938   7.930  2.3958 -2.2414  4.1341
   61MOL0     H 8201   8.225  10.108   7.715 -2.1038  2.4968 -0.0001
   61MOL0     H 8202   8.275  10.124   7.878  1.4891 -0.1040 -0.2409
   61MOL0     H 8203   8.247  10.348   7.673 -3.4838 -2.4631 -1.4064
   61MOL0     H 8204   8.127  10.317   7.800  0.9224 -1.8156  5.4941
   61MOL0     H 8205   8.409  10.358   7.903  0.8859  1.6748  3.4412
   61MOL0     H 8206   8.257  10.369   7.980 -0.0831  1.8604 -0.3108
   61MOL0     H 8207   8.353  10.585   7.800  0.6112  0.0677 -0.2565
   61MOL0     H 8208   8.198  10.597   7.891  0.6478  0.2829  0.2501
   61MOL0     H 8209   8.407  10.714   8.003  0.1165 -0.6460 -2.1859
   61MOL0     H 8210   8.474  10.550   8.006 -1.5618 -2.9341  5.4942
   61MOL0     H 8211   8.306  10.484   8.182  0.9930  1.4703  2.1298
   61MOL0     H 8212   8.359  10.635   8.229 -2.7099 -1.0620  1.0486
   61MOL0     H 8213   8.108  10.595   8.076  2.7503 -0.3236 -1.6793
   61MOL0     H 8214   8.174  10.756   8.117 -0.2504 -0.3715 -0.0615
   61MOL0     H 8215   8.020  10.720   8.289 -0.6319 -0.2208 -0.3141
   61MOL0     H 8216   8.164  10.644   8.362 -0.7540 -1.9975 -0.3207
   61MOL0     H 8217   8.623  10.071   7.609  1.4582 -1.0551 -0.3550
   61MOL0     H 8218   8.744   9.870   7.631  1.7148 -2.2778  1.4898
   61MOL0     H 8219   8.903   9.684   8.002  0.0510  3.6477 -3.9887
   61MOL0     H 8220   9.081   9.595   8.110  0.9624 -0.1741 -0.3846
   61MOL0     H 8221   8.327   8.461   8.588  0.0285 -2.1729 -1.2793
   61MOL0     H 8222   8.317   8.368   8.352  0.2707  0.2274 -3.8711
   61MOL0     H 8223   8.000   8.539   7.907 -0.0900 -1.8756  1.7288
   61MOL0     H 8224   7.966   8.402   7.697 -3.6264 -1.5604  1.5169
   61MOL0     H 8225   8.127   8.372   7.487 -2.0528  0.1499 -0.1972
   61MOL0     H 8226   8.240   8.238   7.447 -2.5323 -3.3463 -4.3368
   61MOL0     H 8227   8.052   8.091   7.366 -2.7483 -0.1079  1.1647
   61MOL0     H 8228   8.052   8.251   7.281  3.0999 -1.5480 -0.9579
   61MOL0     H 8229   7.823   8.205   7.330  0.5281 -0.5788 -0.7831
   61MOL0     H 8230   7.887   8.346   7.421  1.4351  0.0443 -1.2259
   61MOL0     H 8231   7.894   8.193   7.624  2.6185 -2.0130  0.0158
   61MOL0     H 8232   7.847   8.060   7.517  1.7555 -0.0237  1.9043
   61MOL0     H 8233   7.484   8.274   7.627 -0.7776  0.9331 -1.8854
   61MOL0     H 8234   8.306   8.178   7.778 -3.7120 -1.2361 -2.8802
   61MOL0     H 8235   8.357   8.294   7.986  0.3682  0.3126 -0.0934
   62MOL0     O 8236   0.460  10.384   6.370  0.2840  0.3806  0.6933
   62MOL0     C 8237   0.480  10.394   6.494  0.6926 -0.1231  0.0615
   62MOL0     O 8238   0.564  10.317   6.573 -0.3251 -0.7387 -0.1677
   62MOL0     C 8239   0.619  10.199   6.538 -0.2935 -0.2070  0.0515
   62MOL0     C 8240   0.743  10.171   6.585 -0.5679  0.4952  0.2295
   62MOL0     C 8241   0.798  10.041   6.567  0.3920  0.9954  0.2208
   62MOL0     C 8242   0.724   9.935   6.509 -0.6556 -0.3675 -0.2894
   62MOL0     O 8243   0.771   9.811   6.476 -0.1172 -0.6847  0.0698
   62MOL0     C 8244   0.915   9.803   6.468  0.5997  0.1339 -0.5323
   62MOL0     C 8245   0.937   9.657   6.421  0.7374 -0.3989  0.1095
   62MOL0     C 8246   0.827   9.591   6.343 -0.3850  0.7146  1.0406
   62MOL0     C 8247   0.841   9.439   6.313  0.2305  0.9178  0.7130
   62MOL0     C 8248   0.800   9.342   6.434 -0.2140  0.3803 -0.4510
   62MOL0     C 8249   0.795   9.193   6.399  0.0911  0.8181  0.2974
   62MOL0     C 8250   0.688   9.150   6.289  0.1838  0.2598 -0.0163
   62MOL0     C 8251   0.535   9.191   6.316  0.6305  0.1508 -0.2648
   62MOL0     N 8252   0.501   9.143   6.450 -0.1090 -0.5881  0.0677
   62MOL0     C 8253   0.436   9.221   6.545 -0.0028  0.1620  0.2201
   62MOL0     C 8254   0.405   9.141   6.646 -0.8625 -0.5808 -0.1125
   62MOL0     C 8255   0.334   9.180   6.777 -0.3066  0.2626 -0.6319
   62MOL0     C 8256   0.193   9.125   6.782 -0.1631 -0.2815 -0.7525
   62MOL0     C 8257   0.189   8.976   6.799 -0.3474  0.7059 -0.1487
   62MOL0     C 8258   0.282   8.912   6.907 -0.3958  0.0203  0.0072
   62MOL0     O 8259   0.268   8.976   7.032 -0.3566 -0.5033 -0.1012
   62MOL0     C 8260   0.143   9.004   7.091 -0.2545 -0.1186  0.7595
   62MOL0     C 8261   0.035   8.918   7.080  0.4444 -0.0957 -0.7395
   62MOL0     C 8262  -0.092   8.951   7.133 -0.6204 -0.1505 -0.2377
   62MOL0     C 8263  -0.191   8.838   7.121  0.8405 -0.2482 -0.4097
   62MOL0     C 8264  -0.108   9.069   7.200  0.0086 -0.5725  0.0582
   62MOL0     C 8265  -0.235   9.127   7.250  0.6342 -0.1018  0.3879
   62MOL0     O 8266  -0.232   9.237   7.333  0.2209  0.3425 -0.3188
   62MOL0     C 8267  -0.351   9.250   7.404  0.2468 -0.0886 -0.5591
   62MOL0     C 8268  -0.367   9.169   7.524  0.0424 -0.5208 -0.6039
   62MOL0     C 8269  -0.501   9.156   7.583 -0.1668  0.2322 -0.3966
   62MOL0     C 8270  -0.599   9.250   7.549 -0.3856 -0.2679  0.4975
   62MOL0     O 8271  -0.723   9.242   7.612 -0.0393  0.2620  0.3051
   62MOL0     C 8272  -0.819   9.355   7.609 -0.0854 -0.8023 -1.0249
   62MOL0     C 8273  -0.797   9.438   7.737  0.2997  0.6044  0.2441
   62MOL0     C 8274  -0.878   9.569   7.741  0.4315  0.4092  0.4956
   62MOL0     C 8275  -0.900   9.616   7.876 -0.5242 -0.1489  0.5486
   62MOL0     C 8276  -0.987   9.746   7.890 -0.7367 -0.0250 -0.0482
   62MOL0     C 8277  -1.009   9.803   8.038  0.8172 -0.6161 -0.0104
   62MOL0     C 8278  -1.095   9.933   8.032 -0.3570  0.3008  0.0013
   62MOL0     C 8279  -1.079  10.031   8.150  0.3684  1.0042  0.3763
   62MOL0    Cl 8280  -0.931  10.133   8.143 -0.1557  0.4289  0.5043
   62MOL0     C 8281  -0.574   9.326   7.427  0.6486 -0.5184 -1.4203
   62MOL0     C 8282  -0.450   9.333   7.361  0.2746  0.2243 -0.6629
   62MOL0     O 8283  -0.332   9.071   7.206 -0.4788 -0.0607  0.5317
   62MOL0     C 8284   0.001   9.152   7.216  0.3464 -0.2165  0.9537
   62MOL0     C 8285   0.121   9.117   7.175  0.3770 -0.1898 -0.0067
   62MOL0     N 8286   0.446   9.014   6.611 -0.5054 -0.5446  0.1025
   62MOL0     N 8287   0.505   9.014   6.498 -0.5082 -0.2808 -0.6452
   62MOL0     C 8288   0.596   9.964   6.456 -0.0257  0.2461 -0.7171
   62MOL0     C 8289   0.540  10.097   6.473 -0.2524  0.1203 -0.1559
   62MOL0     C 8290   0.410  10.488   6.577  0.1838 -0.0654  0.4426
   62MOL0     C 8291   0.424  10.479   6.715  0.3263  0.5379 -0.8544
   62MOL0     C 8292   0.369  10.571   6.803 -0.0582  0.5942  0.1510
   62MOL0     C 8293   0.277  10.664   6.750 -0.0206 -0.0415  0.3467
   62MOL0     O 8294   0.221  10.764   6.829  0.2642  0.6483  0.5867
   62MOL0     C 8295   0.152  10.724   6.943  0.6824 -0.3847  0.2732
   62MOL0     C 8296   0.147  10.851   7.024  0.0353  0.3656 -0.9403
   62MOL0     C 8297   0.092  10.966   6.952  0.2827 -0.4790  0.3966
   62MOL0     C 8298   0.066  11.089   7.044  0.1706  0.4292 -0.2900
   62MOL0     C 8299   0.199  11.103   7.109 -0.3134 -0.5511  0.3531
   62MOL0     C 8300   0.303  11.070   7.170  0.2519  0.7783  0.0790
   62MOL0     C 8301   0.264  10.671   6.608  0.5962 -0.4473 -0.3955
   62MOL0     C 8302   0.328  10.585   6.519  0.0023 -0.5202 -0.4036
   62MOL0     H 8303   0.789  10.253   6.639  1.4217 -0.2542 -0.2029
   62MOL0     H 8304   0.900  10.021   6.601  0.4881 -1.5715 -1.2830
   62MOL0     H 8305   0.961   9.872   6.396 -1.0969 -0.8795 -2.7271
   62MOL0     H 8306   0.966   9.817   6.563  1.7927  3.9890 -1.5380
   62MOL0     H 8307   1.029   9.646   6.364  0.1583 -0.3615 -0.8457
   62MOL0     H 8308   0.961   9.599   6.511 -2.6064  1.1657  2.2070
   62MOL0     H 8309   0.738   9.591   6.406 -0.5431 -0.6352  0.8484
   62MOL0     H 8310   0.816   9.649   6.251 -1.5163  0.9375  1.2952
   62MOL0     H 8311   0.780   9.423   6.224  1.3779  4.0774 -0.8023
   62MOL0     H 8312   0.940   9.408   6.276 -1.1618 -0.7931 -1.8600
   62MOL0     H 8313   0.876   9.354   6.512 -1.8812 -1.8257  1.6399
   62MOL0     H 8314   0.704   9.375   6.476 -0.3368  4.3470 -3.2291
   62MOL0     H 8315   0.885   9.150   6.355 -0.3046  0.4423 -0.1678
   62MOL0     H 8316   0.767   9.147   6.494 -3.0005  1.6695 -0.0906
   62MOL0     H 8317   0.704   9.192   6.189 -0.4062  2.9215  0.9107
   62MOL0     H 8318   0.710   9.043   6.282  0.4971  0.4194 -2.8969
   62MOL0     H 8319   0.471   9.133   6.248  1.1062  2.8344 -3.2791
   62MOL0     H 8320   0.522   9.298   6.297  2.6719  0.2062 -1.5758
   62MOL0     H 8321   0.403   9.324   6.533 -1.3004 -0.4660 -2.1446
   62MOL0     H 8322   0.391   9.145   6.863 -1.0483 -3.4465 -1.5014
   62MOL0     H 8323   0.313   9.286   6.759  0.7268  0.7153  0.7090
   62MOL0     H 8324   0.143   9.152   6.689 -1.5613 -1.3806 -0.3495
   62MOL0     H 8325   0.139   9.171   6.866  1.7469  3.3397 -1.2907
   62MOL0     H 8326   0.208   8.934   6.700  0.4921 -0.3732  0.4395
   62MOL0     H 8327   0.084   8.945   6.808  0.6475 -2.8865  0.4740
   62MOL0     H 8328   0.386   8.930   6.880 -0.5232  3.7079  1.3896
   62MOL0     H 8329   0.258   8.807   6.926  0.6981 -0.0635  1.0764
   62MOL0     H 8330   0.055   8.821   7.034 -0.8365 -2.1739  2.6837
   62MOL0     H 8331  -0.246   8.812   7.212  0.9526 -1.7792 -0.7520
   62MOL0     H 8332  -0.266   8.868   7.048  1.3545 -2.2584 -1.8517
   62MOL0     H 8333  -0.145   8.744   7.090 -0.9197 -2.3045  2.6345
   62MOL0     H 8334  -0.292   9.100   7.562 -0.4951  0.2475  2.0761
   62MOL0     H 8335  -0.533   9.068   7.637 -2.0870 -0.1795 -2.0677
   62MOL0     H 8336  -0.810   9.430   7.530 -3.4526  0.4860 -0.3776
   62MOL0     H 8337  -0.919   9.313   7.597 -0.6320  0.5564 -1.4189
   62MOL0     H 8338  -0.832   9.381   7.824  2.8526  0.8633  1.5190
   62MOL0     H 8339  -0.689   9.451   7.749  1.3746 -2.8919 -3.3659
   62MOL0     H 8340  -0.968   9.545   7.684  1.5356 -1.0067 -0.7467
   62MOL0     H 8341  -0.823   9.653   7.697 -1.4621  2.8224  2.4438
   62MOL0     H 8342  -0.957   9.538   7.927  1.6898 -2.2130  0.0343
   62MOL0     H 8343  -0.805   9.638   7.926  0.1692 -0.2775 -0.6675
   62MOL0     H 8344  -1.081   9.713   7.845 -1.1744 -0.3757  1.0942
   62MOL0     H 8345  -0.940   9.816   7.820 -0.0061  0.0724  0.5262
   62MOL0     H 8346  -1.073   9.730   8.090 -1.9715 -0.0499 -2.3578
   62MOL0     H 8347  -0.914   9.803   8.092  0.6509  1.0704  0.3413
   62MOL0     H 8348  -1.201   9.907   8.023  0.1586 -2.1229  0.2666
   62MOL0     H 8349  -1.060   9.983   7.941  3.6744 -0.9689  0.6603
   62MOL0     H 8350  -1.084   9.980   8.247 -0.9024  1.3986  0.5341
   62MOL0     H 8351  -1.157  10.108   8.150 -0.7625 -0.1179  0.4416
   62MOL0     H 8352  -0.660   9.374   7.381  0.8268  0.3767 -0.8333
   62MOL0     H 8353  -0.446   9.406   7.281 -0.7397 -0.2242 -1.1364
   62MOL0     H 8354  -0.005   9.242   7.277  0.2625 -1.4021  2.7764
   62MOL0     H 8355   0.207   9.179   7.198 -0.3594  0.1429  2.0600
   62MOL0     H 8356   0.552   9.884   6.396  0.0584 -0.0785 -0.3501
   62MOL0     H 8357   0.437  10.110   6.443 -1.7542 -3.3409  2.7881
   62MOL0     H 8358   0.497  10.417   6.766  0.2808  1.2093  0.0551
   62MOL0     H 8359   0.384  10.562   6.910 -2.7685 -1.9994  0.4332
   62MOL0     H 8360   0.052  10.681   6.928  0.4323  0.4407 -0.5266
   62MOL0     H 8361   0.211  10.649   6.997  1.6975  0.7603  0.8004
   62MOL0     H 8362   0.254  10.870   7.033 -0.1313  0.3934  1.6168
   62MOL0     H 8363   0.109  10.833   7.125  1.9625  1.1581 -0.0279
   62MOL0     H 8364  -0.012  10.943   6.928 -0.1917  0.2188  1.6662
   62MOL0     H 8365   0.151  10.988   6.863 -1.4032 -0.6054 -0.8023
   62MOL0     H 8366  -0.013  11.056   7.112 -0.9312  1.2988 -1.1047
   62MOL0     H 8367   0.034  11.181   6.994 -0.9136  0.9009  1.1967
   62MOL0     H 8368   0.389  11.046   7.229  2.0082  2.9898 -1.4152
   62MOL0     H 8369   0.188  10.741   6.575  0.6502  0.8403  1.9496
   62MOL0     H 8370   0.317  10.596   6.411 -3.7432 -0.6116 -0.1659
   63MOL0     O 8371   5.514   4.211   3.022  0.1891  0.5863  0.2326
   63MOL0     C 8372   5.499   4.328   3.055 -0.1557 -0.1539 -0.4248
   63MOL0     O 8373   5.417   4.422   2.993 -0.1743  0.6231 -0.0831
   63MOL0     C 8374   5.349   4.367   2.884 -0.0554 -0.5129  0.3386
   63MOL0     C 8375   5.236   4.297   2.902 -0.2866  0.3161 -1.1133
   63MOL0     C 8376   5.170   4.238   2.803 -0.2019  1.0281 -0.4488
   63MOL0     C 8377   5.210   4.242   2.671 -0.5733  0.2873  0.6833
   63MOL0     O 8378   5.176   4.158   2.567 -0.5770  0.3281 -0.1830
   63MOL0     C 8379   5.043   4.133   2.537  0.3099  0.4180  0.7073
   63MOL0     C 8380   4.987   4.248   2.445  1.1076 -0.6051 -0.7195
   63MOL0     C 8381   5.083   4.309   2.342  0.6248  0.6410 -0.0808
   63MOL0     C 8382   5.000   4.411   2.271 -0.0397 -0.0774  0.5521
   63MOL0     C 8383   5.063   4.515   2.178  0.3286 -0.4881  0.3795
   63MOL0     C 8384   5.163   4.455   2.076  0.2657 -1.0155 -0.7630
   63MOL0     C 8385   5.176   4.539   1.943 -0.6655 -0.3241 -0.3827
   63MOL0     C 8386   5.260   4.670   1.964 -0.2847 -0.5511  0.0313
   63MOL0     N 8387   5.231   4.762   1.858  0.6839  0.4075 -0.9837
   63MOL0     C 8388   5.300   4.765   1.747  0.3454  0.0534 -0.0541
   63MOL0     C 8389   5.215   4.839   1.664 -0.5016  0.6397  0.4588
   63MOL0     C 8390   5.265   4.874   1.528  0.3544 -0.1660  0.6918
   63MOL0     C 8391   5.272   5.029   1.525 -0.1394 -0.2859  0.5492
   63MOL0     C 8392   5.401   5.083   1.601 -0.4566 -0.5537 -0.0913
   63MOL0     C 8393   5.416   5.227   1.573  0.0240  0.1626  0.4738
   63MOL0     O 8394   5.552   5.252   1.611  0.1574  0.3253 -0.4140
   63MOL0     C 8395   5.580   5.377   1.654 -0.7658 -0.3608 -1.0828
   63MOL0     C 8396   5.683   5.403   1.747 -0.5343  0.2528  0.3823
   63MOL0     C 8397   5.739   5.532   1.779  0.2538  0.1524 -0.1313
   63MOL0     C 8398   5.839   5.520   1.892  0.5502 -0.7442 -0.4706
   63MOL0     C 8399   5.671   5.638   1.715 -0.1433 -0.8087  0.6463
   63MOL0     C 8400   5.699   5.787   1.738  0.8667 -0.7442 -0.2751
   63MOL0     O 8401   5.801   5.819   1.817 -0.0874 -0.0479  0.9820
   63MOL0     C 8402   5.825   5.955   1.836  0.9522  0.8302  0.6786
   63MOL0     C 8403   5.749   6.035   1.916 -0.0779 -0.0401 -0.7151
   63MOL0     C 8404   5.760   6.176   1.925 -0.0334  0.0205 -0.8404
   63MOL0     C 8405   5.879   6.232   1.863 -0.3760  0.5711  0.4527
   63MOL0     O 8406   5.913   6.366   1.857 -0.5012 -0.2348 -0.3581
   63MOL0     C 8407   5.876   6.427   1.979  0.0830 -0.7642 -1.3330
   63MOL0     C 8408   5.944   6.559   2.011 -0.0554 -0.0892  0.3056
   63MOL0     C 8409   6.010   6.615   1.885  0.2821 -0.2981  0.2778
   63MOL0     C 8410   6.023   6.762   1.893 -0.7839 -0.3014 -0.0892
   63MOL0     C 8411   6.140   6.805   1.994 -0.5482  0.0047 -0.2322
   63MOL0     C 8412   6.090   6.848   2.138 -0.0071 -0.7687  0.4683
   63MOL0     C 8413   6.210   6.830   2.235 -0.0575 -0.2112  0.6729
   63MOL0     C 8414   6.169   6.855   2.388  0.0641 -0.2241 -1.2305
   63MOL0    Cl 8415   6.318   6.872   2.482  0.0016 -0.0547 -0.3536
   63MOL0     C 8416   5.967   6.141   1.792 -0.9004  0.3121  0.1013
   63MOL0     C 8417   5.940   6.006   1.776 -0.8626  0.1396 -0.3085
   63MOL0     O 8418   5.626   5.868   1.684  0.6018 -0.1503 -0.3530
   63MOL0     C 8419   5.579   5.613   1.603  1.0204 -0.1321  0.7880
   63MOL0     C 8420   5.544   5.482   1.566  0.6002 -0.3835  0.5465
   63MOL0     N 8421   5.101   4.877   1.726 -0.3401 -0.1205 -0.5935
   63MOL0     N 8422   5.118   4.841   1.851  0.5687 -0.3744  0.6561
   63MOL0     C 8423   5.332   4.305   2.650  0.6597 -0.3502 -0.7656
   63MOL0     C 8424   5.405   4.367   2.758 -0.2623 -0.0408  0.5618
   63MOL0     C 8425   5.566   4.373   3.174 -0.7279  0.0409  0.8746
   63MOL0     C 8426   5.608   4.262   3.262 -0.1403  0.2705 -0.7004
   63MOL0     C 8427   5.681   4.295   3.383 -1.2937  0.6884  0.1614
   63MOL0     C 8428   5.694   4.432   3.425  0.1726 -0.4633  0.1999
   63MOL0     O 8429   5.728   4.485   3.550  0.2514 -0.4201 -0.4192
   63MOL0     C 8430   5.836   4.432   3.623  0.6657 -0.5704  0.3183
   63MOL0     C 8431   5.927   4.539   3.667 -0.3271 -0.1876 -0.1016
   63MOL0     C 8432   6.041   4.492   3.765  0.5096  0.2108  0.1206
   63MOL0     C 8433   6.168   4.439   3.688 -0.7500 -0.7622  0.9064
   63MOL0     C 8434   6.279   4.422   3.785 -0.1543  0.1783 -0.9471
   63MOL0     C 8435   6.374   4.385   3.870 -0.3345 -0.4808  0.2778
   63MOL0     C 8436   5.646   4.531   3.342 -0.1209 -0.0741  0.8515
   63MOL0     C 8437   5.578   4.508   3.217 -1.0206  1.0038 -0.1783
   63MOL0     H 8438   5.183   4.293   2.997 -0.1436 -0.1638 -1.0466
   63MOL0     H 8439   5.087   4.176   2.836 -1.9016  4.2836  1.8735
   63MOL0     H 8440   5.038   4.050   2.466  2.3798 -0.2144  1.2267
   63MOL0     H 8441   4.979   4.112   2.623 -3.5486 -1.2001 -2.2720
   63MOL0     H 8442   4.903   4.199   2.396  0.8871 -3.0383  1.8567
   63MOL0     H 8443   4.949   4.330   2.507  1.5058  0.3912 -1.7619
   63MOL0     H 8444   5.161   4.367   2.393 -0.1762  2.6879 -1.0671
   63MOL0     H 8445   5.129   4.229   2.283 -1.2619 -1.2926  0.9524
   63MOL0     H 8446   4.934   4.346   2.212  0.1679 -1.6516  1.9583
   63MOL0     H 8447   4.935   4.460   2.344  1.2967 -0.7760  2.2573
   63MOL0     H 8448   4.983   4.563   2.120 -0.5651 -0.5837  1.5141
   63MOL0     H 8449   5.105   4.600   2.232 -0.0596 -0.6765  0.9867
   63MOL0     H 8450   5.261   4.438   2.122  0.4458 -1.6497 -1.3669
   63MOL0     H 8451   5.117   4.361   2.044  1.6540 -2.0511  0.1831
   63MOL0     H 8452   5.217   4.475   1.864  3.2707  2.2222 -0.6931
   63MOL0     H 8453   5.076   4.557   1.900 -1.9482 -0.7395  2.2343
   63MOL0     H 8454   5.368   4.658   1.955 -0.0954  1.3657 -0.7017
   63MOL0     H 8455   5.238   4.711   2.063  1.1170 -1.2646  0.6680
   63MOL0     H 8456   5.397   4.720   1.727  1.2612  1.0457  1.8572
   63MOL0     H 8457   5.358   4.823   1.502  0.6021  1.7245 -2.6205
   63MOL0     H 8458   5.201   4.848   1.443  1.1628  1.3037 -0.4111
   63MOL0     H 8459   5.185   5.067   1.578 -2.4083 -0.2189 -2.9561
   63MOL0     H 8460   5.275   5.058   1.420 -0.3995 -2.1606 -0.0138
   63MOL0     H 8461   5.480   5.031   1.547 -0.9830 -1.2652 -0.1819
   63MOL0     H 8462   5.407   5.043   1.702  1.6773  2.4226  1.1200
   63MOL0     H 8463   5.346   5.280   1.639  4.1464  5.7572  1.0457
   63MOL0     H 8464   5.396   5.252   1.469 -3.4293  2.3639  1.4980
   63MOL0     H 8465   5.728   5.309   1.777  0.1445  0.1517 -0.8806
   63MOL0     H 8466   5.791   5.554   1.984 -0.1770 -2.1400 -0.2979
   63MOL0     H 8467   5.888   5.422   1.900  3.9034  0.9643  2.2892
   63MOL0     H 8468   5.925   5.586   1.880  0.2614 -0.1376  0.7099
   63MOL0     H 8469   5.673   5.995   1.983  0.8079 -0.8046 -0.1424
   63MOL0     H 8470   5.694   6.226   1.996 -2.2859 -1.8207 -1.5076
   63MOL0     H 8471   5.768   6.443   1.966  0.2148 -0.2326 -1.8395
   63MOL0     H 8472   5.884   6.362   2.067 -2.1096  3.5050  2.4382
   63MOL0     H 8473   5.874   6.634   2.049  1.8060  1.0929  1.5797
   63MOL0     H 8474   6.027   6.548   2.082  1.2895  4.4287 -0.2438
   63MOL0     H 8475   5.948   6.596   1.797 -0.2890 -1.0529  0.8218
   63MOL0     H 8476   6.107   6.568   1.871 -0.6438 -1.7933 -1.7085
   63MOL0     H 8477   6.044   6.803   1.794 -0.8632 -2.1375 -0.9199
   63MOL0     H 8478   5.940   6.825   1.923 -0.0075  1.4207 -1.4040
   63MOL0     H 8479   6.198   6.890   1.958  1.0205 -1.0926 -0.3667
   63MOL0     H 8480   6.213   6.725   2.004 -2.4545 -1.6590  1.3043
   63MOL0     H 8481   6.064   6.955   2.138  0.1235 -0.7363  0.4573
   63MOL0     H 8482   6.001   6.794   2.172  2.0681 -4.1016  1.0247
   63MOL0     H 8483   6.285   6.905   2.208 -2.2716  2.0566  0.4714
   63MOL0     H 8484   6.264   6.735   2.241  0.8081  0.3118  1.4114
   63MOL0     H 8485   6.101   6.783   2.434 -0.1475 -0.0016 -1.1890
   63MOL0     H 8486   6.122   6.953   2.397  0.0003 -0.0828 -2.8510
   63MOL0     H 8487   6.054   6.165   1.731 -0.5603  0.5475  0.6746
   63MOL0     H 8488   6.017   5.943   1.732  0.8784  0.2589  2.3381
   63MOL0     H 8489   5.543   5.677   1.524 -0.0339 -2.8147 -1.0567
   63MOL0     H 8490   5.501   5.459   1.470 -0.3229  4.9845 -0.6037
   63MOL0     H 8491   5.372   4.312   2.550  2.2219  3.0018 -0.0815
   63MOL0     H 8492   5.497   4.417   2.728 -0.3859 -1.1879 -2.0081
   63MOL0     H 8493   5.595   4.160   3.230  0.3929  1.1386 -3.9809
   63MOL0     H 8494   5.700   4.207   3.444  0.8450 -1.5567 -3.4195
   63MOL0     H 8495   5.798   4.395   3.719  2.0726  0.3673  1.2909
   63MOL0     H 8496   5.888   4.355   3.565 -1.0852 -1.2020 -0.4725
   63MOL0     H 8497   5.874   4.619   3.719 -0.8436 -1.7259  1.8838
   63MOL0     H 8498   5.967   4.579   3.574 -0.0116 -1.4604 -0.5318
   63MOL0     H 8499   6.007   4.415   3.835  0.8246 -0.1568 -0.1268
   63MOL0     H 8500   6.052   4.579   3.829 -2.2363 -0.9871  2.4659
   63MOL0     H 8501   6.195   4.493   3.597 -1.3647  0.3187  1.3493
   63MOL0     H 8502   6.148   4.338   3.651 -0.1710 -0.8801  0.9204
   63MOL0     H 8503   6.455   4.375   3.939  1.1728 -0.4432 -1.4142
   63MOL0     H 8504   5.652   4.634   3.377  2.9232  0.7512 -1.6298
   63MOL0     H 8505   5.538   4.589   3.158  0.3127  0.7917 -1.4491
   64MOL0     O 8506   5.817   8.195   5.139  0.1588  0.2988 -0.1344
   64MOL0     C 8507   5.819   8.266   5.037 -0.0828  0.1727  0.3402
   64MOL0     O 8508   5.709   8.321   4.975  0.4316 -0.0093 -0.5157
   64MOL0     C 8509   5.584   8.333   5.038  0.5757  0.4391 -0.0643
   64MOL0     C 8510   5.481   8.375   4.960  0.0653  0.2306 -0.2111
   64MOL0     C 8511   5.352   8.392   5.004  0.0691 -0.5092 -0.3775
   64MOL0     C 8512   5.319   8.356   5.135 -0.6093 -0.3216 -0.1283
   64MOL0     O 8513   5.195   8.366   5.189 -0.7246 -0.4169  0.6682
   64MOL0     C 8514   5.142   8.496   5.183  0.2581  0.7228  0.0628
   64MOL0     C 8515   5.039   8.532   5.290 -0.2353 -0.5214 -0.0745
   64MOL0     C 8516   5.083   8.537   5.440  0.6025  0.0530  0.6482
   64MOL0     C 8517   4.962   8.519   5.534  0.1131 -0.8205 -0.6458
   64MOL0     C 8518   4.869   8.642   5.538 -0.3200  0.2280 -0.3477
   64MOL0     C 8519   4.775   8.634   5.659  0.3628 -0.6180  0.2400
   64MOL0     C 8520   4.672   8.522   5.638  1.4462 -0.1087  0.5426
   64MOL0     C 8521   4.541   8.537   5.722  0.0343  0.1818  0.0322
   64MOL0     N 8522   4.444   8.431   5.688 -0.0591 -0.6767  0.0655
   64MOL0     C 8523   4.464   8.296   5.704 -0.3580 -0.9757  0.2846
   64MOL0     C 8524   4.341   8.244   5.675 -0.1339  0.0975  0.3102
   64MOL0     C 8525   4.316   8.097   5.674  0.7026 -0.2033  0.1225
   64MOL0     C 8526   4.305   8.049   5.814  0.5302 -0.4748 -0.5391
   64MOL0     C 8527   4.263   7.899   5.832  0.3057  0.0978 -0.3844
   64MOL0     C 8528   4.240   7.865   5.979 -1.3356  0.4031  0.8883
   64MOL0     O 8529   4.212   7.725   5.958 -0.1698  0.6160  0.1124
   64MOL0     C 8530   4.179   7.637   6.058  0.2329 -0.6640 -0.5351
   64MOL0     C 8531   4.124   7.678   6.183 -0.5936 -0.2292 -0.1989
   64MOL0     C 8532   4.123   7.599   6.296  0.4906  0.3598 -0.3146
   64MOL0     C 8533   4.068   7.657   6.427  0.0099 -0.6823  0.6563
   64MOL0     C 8534   4.168   7.467   6.288 -0.2704  0.3489  1.2374
   64MOL0     C 8535   4.189   7.367   6.402  0.0007  0.6491  1.0860
   64MOL0     O 8536   4.137   7.400   6.524  0.0105 -0.2680 -0.2784
   64MOL0     C 8537   4.171   7.318   6.630  0.1303 -0.4243  0.0644
   64MOL0     C 8538   4.302   7.279   6.650  0.6753 -0.8076  0.2716
   64MOL0     C 8539   4.343   7.199   6.764  0.6789  0.3905  0.3211
   64MOL0     C 8540   4.257   7.184   6.867  0.6065  0.6369 -0.0993
   64MOL0     O 8541   4.288   7.113   6.980 -0.2188  0.2872 -0.2378
   64MOL0     C 8542   4.418   7.127   7.033  0.0221  0.1602 -0.3191
   64MOL0     C 8543   4.423   7.026   7.149 -0.4790  0.4765 -0.2928
   64MOL0     C 8544   4.525   7.086   7.246  0.2175 -0.6561 -0.3652
   64MOL0     C 8545   4.546   6.985   7.360  0.1449  0.6032 -0.3360
   64MOL0     C 8546   4.669   7.034   7.450 -0.4127  0.6261  0.0984
   64MOL0     C 8547   4.674   6.964   7.594  0.1385  0.7524 -0.4614
   64MOL0     C 8548   4.767   7.041   7.691  0.1638 -0.9822 -0.0370
   64MOL0     C 8549   4.747   6.979   7.827  0.2608  0.7332 -0.4317
   64MOL0    Cl 8550   4.875   7.038   7.944  0.0775  0.5192  0.5429
   64MOL0     C 8551   4.127   7.218   6.852  0.5997  0.1774  0.1674
   64MOL0     C 8552   4.081   7.287   6.734  0.1350 -0.9098 -0.0358
   64MOL0     O 8553   4.244   7.255   6.374 -0.5281  0.0223 -1.0066
   64MOL0     C 8554   4.224   7.427   6.156  0.3559 -0.2428  0.5079
   64MOL0     C 8555   4.228   7.511   6.048 -0.2446  0.5733  0.3468
   64MOL0     N 8556   4.255   8.345   5.626  0.3594 -0.2884 -0.7287
   64MOL0     N 8557   4.324   8.453   5.636 -0.4688 -0.3709 -0.6547
   64MOL0     C 8558   5.422   8.319   5.219  0.6106  0.2401  1.2560
   64MOL0     C 8559   5.552   8.306   5.170  0.4353  0.1961  0.6439
   64MOL0     C 8560   5.941   8.279   4.955 -0.8047  0.2250 -0.2228
   64MOL0     C 8561   5.945   8.333   4.827 -0.5393 -0.8034  0.2048
   64MOL0     C 8562   6.064   8.363   4.756  0.3036  0.4670 -0.7313
   64MOL0     C 8563   6.186   8.331   4.814 -0.1546  0.6967 -0.2538
   64MOL0     O 8564   6.289   8.354   4.727  0.2891  0.7531  0.3385
   64MOL0     C 8565   6.394   8.418   4.786  0.3491  0.0074  0.3200
   64MOL0     C 8566   6.523   8.335   4.800 -0.4075  0.6865 -0.1328
   64MOL0     C 8567   6.648   8.416   4.855 -0.0836 -0.1075  0.2628
   64MOL0     C 8568   6.647   8.420   5.008 -0.4916  0.3322  0.2715
   64MOL0     C 8569   6.741   8.517   5.062 -0.4510 -0.2103  0.8391
   64MOL0     C 8570   6.821   8.597   5.095 -0.2604 -0.8291  0.3338
   64MOL0     C 8571   6.181   8.255   4.933 -0.4202 -1.0024  0.1638
   64MOL0     C 8572   6.066   8.234   5.005 -0.5570 -0.2896  0.1619
   64MOL0     H 8573   5.496   8.403   4.856 -1.9904 -0.4630 -0.7428
   64MOL0     H 8574   5.281   8.440   4.938  1.2591 -0.4830 -1.6808
   64MOL0     H 8575   5.223   8.569   5.187  1.1685 -0.2808  3.1375
   64MOL0     H 8576   5.096   8.502   5.084 -1.7570  1.0548  0.9658
   64MOL0     H 8577   5.002   8.631   5.264 -2.5801 -1.0601  0.9087
   64MOL0     H 8578   4.953   8.466   5.276  1.2450 -1.8489 -4.2848
   64MOL0     H 8579   5.151   8.458   5.474 -0.4096 -0.3502  1.8190
   64MOL0     H 8580   5.141   8.627   5.465  0.8496 -0.3301  1.5131
   64MOL0     H 8581   4.911   8.423   5.522 -0.1314 -0.6739 -0.7875
   64MOL0     H 8582   5.008   8.510   5.633 -2.1046  2.4103  0.8226
   64MOL0     H 8583   4.931   8.731   5.556 -1.5635  1.0215  0.1712
   64MOL0     H 8584   4.819   8.660   5.443  0.1197  1.4566 -0.3731
   64MOL0     H 8585   4.826   8.643   5.755  0.6777  0.5474 -0.0187
   64MOL0     H 8586   4.726   8.732   5.654  0.4988 -0.5670 -0.1417
   64MOL0     H 8587   4.638   8.543   5.536 -0.9343  1.8164  1.6180
   64MOL0     H 8588   4.708   8.419   5.645 -0.1843 -0.6641  1.0914
   64MOL0     H 8589   4.499   8.637   5.706  0.8187  0.4879 -0.2042
   64MOL0     H 8590   4.573   8.526   5.826 -0.7746 -0.9063  0.1723
   64MOL0     H 8591   4.545   8.231   5.736 -0.1960 -0.5211  0.8035
   64MOL0     H 8592   4.218   8.082   5.626 -0.7283  2.8016  1.8122
   64MOL0     H 8593   4.399   8.043   5.628 -0.1508 -3.1677  1.7422
   64MOL0     H 8594   4.230   8.115   5.858  0.9978 -0.3196  0.0452
   64MOL0     H 8595   4.394   8.065   5.875 -1.4437  0.1063  2.3688
   64MOL0     H 8596   4.332   7.826   5.788  0.0748  0.8006 -1.9724
   64MOL0     H 8597   4.166   7.882   5.786 -0.2518 -1.6738  1.2990
   64MOL0     H 8598   4.163   7.928   6.024  0.9059  3.4970  0.7395
   64MOL0     H 8599   4.333   7.886   6.033  0.8454 -0.7142 -2.1558
   64MOL0     H 8600   4.089   7.781   6.181 -1.2112 -0.4259  0.0550
   64MOL0     H 8601   4.058   7.764   6.406  2.0878 -1.1542 -3.9381
   64MOL0     H 8602   3.976   7.602   6.448 -0.0204 -0.5877  0.7688
   64MOL0     H 8603   4.132   7.642   6.515 -0.0816  0.8042  1.0017
   64MOL0     H 8604   4.377   7.311   6.578 -0.1648  0.4119 -0.1017
   64MOL0     H 8605   4.442   7.157   6.774  0.6149  0.5560  1.8701
   64MOL0     H 8606   4.500   7.102   6.965  1.4719 -2.6046  2.2051
   64MOL0     H 8607   4.445   7.228   7.064  2.5668 -1.1518  2.3333
   64MOL0     H 8608   4.324   7.027   7.195  0.1266 -0.7235  1.1174
   64MOL0     H 8609   4.461   6.931   7.110 -0.1043  0.0770  0.9817
   64MOL0     H 8610   4.491   7.181   7.287  2.5853  1.7368 -3.4430
   64MOL0     H 8611   4.623   7.114   7.205  1.0779 -2.5192  0.2677
   64MOL0     H 8612   4.458   6.949   7.414  0.6933  0.5580  0.5382
   64MOL0     H 8613   4.589   6.901   7.304 -1.8268 -1.3148  0.8400
   64MOL0     H 8614   4.667   7.143   7.451  1.4786  0.7212 -1.2627
   64MOL0     H 8615   4.757   7.019   7.387 -0.8749  1.9902 -0.9289
   64MOL0     H 8616   4.578   6.937   7.640 -0.6079  4.6828  0.5821
   64MOL0     H 8617   4.722   6.866   7.582 -1.1966  0.1970 -1.6387
   64MOL0     H 8618   4.735   7.145   7.697 -3.2101 -1.9717  1.4863
   64MOL0     H 8619   4.870   7.032   7.653  0.8222  2.9196  0.3987
   64MOL0     H 8620   4.742   6.870   7.818 -2.5832  0.6434  1.0488
   64MOL0     H 8621   4.648   7.009   7.864  0.3296  1.9531 -1.1797
   64MOL0     H 8622   4.050   7.175   6.915 -1.0879 -2.2841 -3.2360
   64MOL0     H 8623   3.976   7.310   6.724  0.7491  1.1532 -3.5031
   64MOL0     H 8624   4.284   7.336   6.146  1.3452  0.6361 -2.8785
   64MOL0     H 8625   4.282   7.479   5.959  1.3391 -1.0135  1.8049
   64MOL0     H 8626   5.407   8.316   5.326  1.3272 -0.4335  1.3528
   64MOL0     H 8627   5.629   8.278   5.242 -0.6718 -0.0316  1.7905
   64MOL0     H 8628   5.851   8.364   4.783  1.4270  2.0118 -2.4562
   64MOL0     H 8629   6.051   8.410   4.659  0.9776 -0.5885 -1.3545
   64MOL0     H 8630   6.422   8.504   4.724  0.4985 -0.8802 -0.8789
   64MOL0     H 8631   6.358   8.460   4.881 -0.8322 -2.2594  0.9556
   64MOL0     H 8632   6.551   8.296   4.702  1.9096  3.5348 -0.7477
   64MOL0     H 8633   6.522   8.243   4.858  0.8148  0.3876 -0.5661
   64MOL0     H 8634   6.644   8.516   4.809 -2.4081  0.2198  1.0019
   64MOL0     H 8635   6.739   8.364   4.825  0.5559  0.2542  1.4949
   64MOL0     H 8636   6.668   8.322   5.052  4.3911 -0.0479 -2.2787
   64MOL0     H 8637   6.548   8.454   5.040 -0.8914 -1.6151  1.2833
   64MOL0     H 8638   6.897   8.665   5.128  0.3871 -0.3723 -1.9070
   64MOL0     H 8639   6.272   8.215   4.977  0.2827 -1.7018 -1.8247
   64MOL0     H 8640   6.083   8.183   5.099 -4.0421  0.0102  1.1030
   65MOL0     O 8641  10.516   1.964   5.112 -0.7055  0.3499  0.0415
   65MOL0     C 8642  10.614   2.033   5.092 -0.5393 -0.8680 -0.1239
   65MOL0     O 8643  10.627   2.117   4.992 -1.6159  0.3139 -0.4086
   65MOL0     C 8644  10.542   2.126   4.884  0.3724  0.2601 -0.2228
   65MOL0     C 8645  10.564   2.243   4.808  0.0932 -1.2317 -0.5072
   65MOL0     C 8646  10.490   2.276   4.693 -0.4268  0.7583 -1.1316
   65MOL0     C 8647  10.397   2.176   4.657  0.0847 -0.5991 -1.0325
   65MOL0     O 8648  10.336   2.198   4.541 -0.6810  0.0571  1.0408
   65MOL0     C 8649  10.230   2.110   4.495 -0.1337  0.0417  0.7580
   65MOL0     C 8650  10.185   2.176   4.358  0.4986  0.0773 -0.4158
   65MOL0     C 8651  10.069   2.100   4.303 -0.4958 -0.0314 -0.0638
   65MOL0     C 8652  10.112   1.979   4.222 -0.2951  0.2759  0.8129
   65MOL0     C 8653  10.006   1.882   4.171 -0.6929 -0.2662 -0.5888
   65MOL0     C 8654   9.886   1.854   4.259  0.0087 -0.2143  0.3022
   65MOL0     C 8655   9.803   1.746   4.185 -0.5281  0.2158 -0.2704
   65MOL0     C 8656   9.728   1.795   4.064 -0.5286  0.0964 -0.1906
   65MOL0     N 8657   9.595   1.738   4.065 -0.3359  0.3370 -0.3566
   65MOL0     C 8658   9.590   1.604   4.069 -0.0032 -0.6128  0.5433
   65MOL0     C 8659   9.457   1.571   4.107  0.1635 -0.0301  0.3225
   65MOL0     C 8660   9.392   1.437   4.117  0.9062 -0.3592 -0.7456
   65MOL0     C 8661   9.427   1.372   4.253 -0.9375 -0.3662  0.1045
   65MOL0     C 8662   9.425   1.216   4.240  0.8635  0.5626 -0.5169
   65MOL0     C 8663   9.467   1.154   4.372  0.2050  0.0459  0.4140
   65MOL0     O 8664   9.457   1.008   4.365 -0.2988 -0.4133 -0.1983
   65MOL0     C 8665   9.554   0.951   4.290  0.5316  0.1936 -0.5009
   65MOL0     C 8666   9.685   0.957   4.325 -0.5141  0.1521 -0.4804
   65MOL0     C 8667   9.780   0.881   4.254  0.1192  0.8100 -0.0358
   65MOL0     C 8668   9.925   0.900   4.299 -0.1347  0.5319  0.1010
   65MOL0     C 8669   9.735   0.796   4.150 -0.5963 -0.2257 -1.0578
   65MOL0     C 8670   9.831   0.714   4.064  0.1101  0.4216 -0.2592
   65MOL0     O 8671   9.961   0.706   4.089  0.1656 -0.5850  0.6147
   65MOL0     C 8672  10.045   0.635   4.009 -0.2208  0.2599 -0.1489
   65MOL0     C 8673  10.172   0.688   3.968  0.2049  0.2245 -0.2041
   65MOL0     C 8674  10.261   0.622   3.883 -1.0305 -0.8833 -0.9733
   65MOL0     C 8675  10.228   0.498   3.831  0.0716  0.1189  0.0326
   65MOL0     O 8676  10.310   0.428   3.747  0.3391 -0.8345  0.1709
   65MOL0     C 8677  10.358   0.294   3.772  0.6003 -0.4166  0.4598
   65MOL0     C 8678  10.442   0.249   3.652 -0.0004 -0.2375 -0.1363
   65MOL0     C 8679  10.353   0.225   3.525 -0.2572  0.7308  0.3634
   65MOL0     C 8680  10.411   0.142   3.402  0.3446 -1.0663  0.9373
   65MOL0     C 8681  10.308   0.158   3.284  0.2475  0.4613 -1.3951
   65MOL0     C 8682  10.381   0.153   3.157 -0.1685  0.6010 -0.0549
   65MOL0     C 8683  10.291   0.176   3.036 -0.2724  0.4224 -1.0518
   65MOL0     C 8684  10.344   0.126   2.904  0.2570 -1.4127  0.0904
   65MOL0    Cl 8685  10.501   0.187   2.865  0.4804 -0.1777 -0.2958
   65MOL0     C 8686  10.104   0.445   3.881 -0.0561  0.9356 -0.0916
   65MOL0     C 8687  10.018   0.505   3.969 -0.2235 -0.2193 -0.1690
   65MOL0     O 8688   9.774   0.654   3.968 -0.0671 -0.2750 -0.0154
   65MOL0     C 8689   9.602   0.784   4.133  0.3846 -0.2972 -0.6403
   65MOL0     C 8690   9.507   0.850   4.202  0.6505  0.1475 -0.9132
   65MOL0     N 8691   9.401   1.692   4.124  0.1412  0.3721 -1.5283
   65MOL0     N 8692   9.483   1.793   4.112  0.1514  0.5667  0.0196
   65MOL0     C 8693  10.360   2.066   4.733 -0.8978  0.4120 -0.3185
   65MOL0     C 8694  10.440   2.031   4.840  0.2308 -0.2542 -0.1701
   65MOL0     C 8695  10.717   2.030   5.199  0.1477 -0.2964  0.1007
   65MOL0     C 8696  10.719   1.929   5.300  0.1827 -0.5154  0.8088
   65MOL0     C 8697  10.824   1.926   5.383 -1.4003  0.5539 -0.6288
   65MOL0     C 8698  10.918   2.028   5.392  0.1479 -0.9185 -0.9412
   65MOL0     O 8699  11.032   2.022   5.463 -0.6023 -0.1871 -0.1013
   65MOL0     C 8700  11.031   1.974   5.596 -1.3520  0.4293  0.6642
   65MOL0     C 8701  11.136   1.859   5.606 -0.3797  0.2956  0.3507
   65MOL0     C 8702  11.236   1.839   5.488 -0.1054 -0.2503  0.0417
   65MOL0     C 8703  11.344   1.730   5.528  0.0069 -0.1610  0.0175
   65MOL0     C 8704  11.449   1.771   5.623 -0.5391 -0.3882 -0.4886
   65MOL0     C 8705  11.531   1.791   5.710  0.4985 -0.1786  0.2780
   65MOL0     C 8706  10.908   2.141   5.314  0.1125  0.2777 -0.5728
   65MOL0     C 8707  10.809   2.132   5.213 -0.9671 -0.8016 -0.9454
   65MOL0     H 8708  10.639   2.313   4.842 -2.4774  0.1627  2.8216
   65MOL0     H 8709  10.519   2.361   4.632  1.3757 -1.1704 -3.0983
   65MOL0     H 8710  10.268   2.008   4.489 -0.1001  0.1145 -0.6749
   65MOL0     H 8711  10.149   2.111   4.569  2.0813 -0.5232  3.3079
   65MOL0     H 8712  10.154   2.278   4.384  2.5803  0.2014  1.9940
   65MOL0     H 8713  10.270   2.192   4.290  0.1906  2.6745 -0.3073
   65MOL0     H 8714  10.003   2.072   4.385  1.2558  0.7037  1.6616
   65MOL0     H 8715  10.007   2.153   4.230 -0.2060 -1.5807 -1.5035
   65MOL0     H 8716  10.172   2.011   4.136 -0.5488  2.4406  1.3762
   65MOL0     H 8717  10.181   1.929   4.291  0.5817  0.2399 -0.0612
   65MOL0     H 8718   9.948   1.920   4.086 -2.5299 -0.9324  0.3149
   65MOL0     H 8719  10.056   1.792   4.133 -2.6205 -0.8597 -1.9267
   65MOL0     H 8720   9.903   1.826   4.364  1.7138  1.3691  0.5057
   65MOL0     H 8721   9.827   1.946   4.250  0.9279  0.1620 -3.0701
   65MOL0     H 8722   9.874   1.668   4.159  1.2396  0.6343  2.7814
   65MOL0     H 8723   9.732   1.714   4.262  0.6489 -0.2131  0.6771
   65MOL0     H 8724   9.774   1.763   3.970 -2.2808  2.4682 -1.9758
   65MOL0     H 8725   9.721   1.903   4.053 -0.9619 -0.0833 -2.1940
   65MOL0     H 8726   9.671   1.535   4.044  0.9253  1.0749 -1.3588
   65MOL0     H 8727   9.283   1.440   4.108  0.4643 -5.8120 -0.4941
   65MOL0     H 8728   9.415   1.392   4.020 -0.0102  0.7338 -1.5026
   65MOL0     H 8729   9.347   1.401   4.322 -2.0718 -0.7930 -0.9944
   65MOL0     H 8730   9.524   1.410   4.288 -0.3920 -1.3329 -0.3334
   65MOL0     H 8731   9.485   1.180   4.156  2.8290 -0.3889  1.2131
   65MOL0     H 8732   9.318   1.206   4.217  0.6762 -0.0073  0.5266
   65MOL0     H 8733   9.401   1.194   4.449  0.7962  2.6505 -0.3412
   65MOL0     H 8734   9.569   1.191   4.388  0.7207 -1.0029 -0.2819
   65MOL0     H 8735   9.724   1.015   4.408 -1.0642  0.2383 -0.2810
   65MOL0     H 8736   9.957   0.801   4.333  2.0195  0.2407 -2.4197
   65MOL0     H 8737   9.969   0.927   4.203  0.1387 -1.6634 -0.4360
   65MOL0     H 8738   9.943   0.980   4.371 -1.6962 -0.1165  1.2850
   65MOL0     H 8739  10.203   0.787   4.001  0.7385 -0.3928  1.2137
   65MOL0     H 8740  10.355   0.665   3.851  0.3706 -3.3311 -0.4434
   65MOL0     H 8741  10.411   0.284   3.868  1.6039 -2.0985 -0.2366
   65MOL0     H 8742  10.269   0.232   3.776  0.9271 -0.8426  2.1058
   65MOL0     H 8743  10.520   0.325   3.637 -1.0534  1.3124  1.6926
   65MOL0     H 8744  10.485   0.150   3.669  0.5220  0.2434  1.5647
   65MOL0     H 8745  10.331   0.325   3.486 -1.4551  1.2148  2.1299
   65MOL0     H 8746  10.256   0.184   3.556  1.2611 -3.0739  0.5641
   65MOL0     H 8747  10.510   0.178   3.373 -0.8669  0.5650 -1.5378
   65MOL0     H 8748  10.417   0.035   3.425 -0.4860 -1.2018  0.5289
   65MOL0     H 8749  10.247   0.246   3.307 -2.3779 -1.4778 -0.4106
   65MOL0     H 8750  10.234   0.077   3.281  1.0440 -0.2480 -3.3861
   65MOL0     H 8751  10.461   0.228   3.165  1.9871 -1.6426  0.8156
   65MOL0     H 8752  10.428   0.054   3.150 -3.3843 -1.1441  1.0512
   65MOL0     H 8753  10.249   0.277   3.041 -0.1492  0.4329 -0.0455
   65MOL0     H 8754  10.199   0.119   3.049 -1.7895  2.6938 -1.1183
   65MOL0     H 8755  10.275   0.165   2.829  0.7354 -0.3503  0.1790
   65MOL0     H 8756  10.334   0.017   2.902  0.2548 -1.4684  1.6249
   65MOL0     H 8757  10.080   0.343   3.851 -0.7364  1.4984 -1.4870
   65MOL0     H 8758   9.929   0.459   4.009 -0.4286  2.8914  3.6034
   65MOL0     H 8759   9.562   0.715   4.060  1.4469 -1.5744 -0.0469
   65MOL0     H 8760   9.402   0.836   4.179 -0.2710  1.9046  1.8237
   65MOL0     H 8761  10.279   2.001   4.702 -0.7592 -0.8924  1.8529
   65MOL0     H 8762  10.408   1.950   4.904 -1.7765  1.1313  0.7072
   65MOL0     H 8763  10.652   1.844   5.309  1.7984 -1.8239  0.9038
   65MOL0     H 8764  10.832   1.839   5.448  0.2928 -0.4280 -2.0502
   65MOL0     H 8765  11.043   2.062   5.660 -6.3116  2.6852 -0.9845
   65MOL0     H 8766  10.938   1.918   5.613 -0.9215 -0.2302  0.8742
   65MOL0     H 8767  11.076   1.769   5.621 -4.0430  2.6706  1.2136
   65MOL0     H 8768  11.201   1.874   5.693  0.0594 -1.2845  0.3215
   65MOL0     H 8769  11.280   1.937   5.470 -1.5144  0.7441  1.7187
   65MOL0     H 8770  11.181   1.808   5.398  0.4430  0.5748 -0.5977
   65MOL0     H 8771  11.376   1.701   5.427 -0.1171  0.4313 -0.1979
   65MOL0     H 8772  11.295   1.640   5.565 -1.4767  1.2029  1.5495
   65MOL0     H 8773  11.592   1.838   5.784 -2.6617  1.8971  1.7853
   65MOL0     H 8774  10.984   2.216   5.333 -0.8911  1.4222 -0.9459
   65MOL0     H 8775  10.806   2.218   5.147 -3.1162 -0.4477 -0.4352
   66MOL0     O 8776   0.757   9.656   6.015  0.4238 -1.3103 -0.1327
   66MOL0     C 8777   0.788   9.704   5.905 -0.9883 -0.4236 -0.2909
   66MOL0     O 8778   0.908   9.753   5.870  0.5323 -0.4298 -0.6001
   66MOL0     C 8779   1.017   9.775   5.953  1.1438  0.4623 -0.0078
   66MOL0     C 8780   1.005   9.810   6.089  0.2986 -0.3555 -0.4216
   66MOL0     C 8781   1.120   9.845   6.166  0.7678  0.6541 -0.4199
   66MOL0     C 8782   1.247   9.840   6.103  1.3062 -0.9499 -0.1699
   66MOL0     O 8783   1.356   9.857   6.181 -0.9090 -0.9545  0.6093
   66MOL0     C 8784   1.483   9.900   6.111  0.3682  0.3809 -0.2724
   66MOL0     C 8785   1.575   9.974   6.205 -0.4497 -0.3999  0.9189
   66MOL0     C 8786   1.612   9.894   6.335  0.9833 -0.2683  0.9238
   66MOL0     C 8787   1.691   9.767   6.307  0.5826  0.0726  0.5113
   66MOL0     C 8788   1.832   9.785   6.280 -0.8212 -0.0960 -0.4824
   66MOL0     C 8789   1.902   9.644   6.276  0.2978 -0.0135 -0.1020
   66MOL0     C 8790   2.054   9.658   6.267  0.1050  0.7492 -0.3679
   66MOL0     C 8791   2.098   9.722   6.134 -0.3745  0.3429 -0.8017
   66MOL0     N 8792   2.243   9.690   6.129  0.7082  0.0937  0.3325
   66MOL0     C 8793   2.332   9.748   6.220 -0.4578  0.1021  0.7652
   66MOL0     C 8794   2.435   9.673   6.202 -0.1480  1.1317 -0.1593
   66MOL0     C 8795   2.569   9.676   6.277 -0.3187  0.0148  0.2687
   66MOL0     C 8796   2.566   9.562   6.394 -0.1994 -0.2145  0.7322
   66MOL0     C 8797   2.440   9.577   6.496  0.2973  0.3740 -0.7229
   66MOL0     C 8798   2.458   9.697   6.590 -0.8383  0.0990  0.6661
   66MOL0     O 8799   2.543   9.675   6.702  0.3333 -0.1015  0.3744
   66MOL0     C 8800   2.546   9.763   6.811  0.3506  0.3690  0.7987
   66MOL0     C 8801   2.619   9.720   6.918 -0.3958 -0.5038  0.0809
   66MOL0     C 8802   2.621   9.810   7.029 -0.9224  0.1754  0.2149
   66MOL0     C 8803   2.690   9.740   7.143  0.8923  1.0567  0.1309
   66MOL0     C 8804   2.565   9.943   7.028 -0.0475  0.5668 -0.2597
   66MOL0     C 8805   2.567  10.037   7.144 -0.6792  0.5594  0.2579
   66MOL0     O 8806   2.521  10.170   7.124 -0.1406  0.6150  0.5988
   66MOL0     C 8807   2.513  10.263   7.223 -0.3320 -0.0317  0.5398
   66MOL0     C 8808   2.468  10.225   7.349 -1.0743  0.0822 -0.2548
   66MOL0     C 8809   2.451  10.322   7.456  1.2020  0.4710  0.3485
   66MOL0     C 8810   2.475  10.452   7.428 -0.5396  0.5163 -0.5573
   66MOL0     O 8811   2.457  10.547   7.529 -0.0104 -0.4841 -0.5590
   66MOL0     C 8812   2.428  10.679   7.493  0.3920 -0.9337 -0.1589
   66MOL0     C 8813   2.368  10.747   7.618  0.1195  0.5243  0.6549
   66MOL0     C 8814   2.242  10.680   7.646  1.6459 -1.0964 -0.4373
   66MOL0     C 8815   2.149  10.735   7.754  0.8059  0.3588  0.0243
   66MOL0     C 8816   2.087  10.636   7.859 -0.8113  0.0144  0.1224
   66MOL0     C 8817   1.962  10.578   7.807 -0.4508  0.1010  0.0690
   66MOL0     C 8818   1.938  10.437   7.856 -0.4932  0.6515 -0.8237
   66MOL0     C 8819   1.919  10.414   8.002 -0.3733 -0.3678  0.3981
   66MOL0    Cl 8820   1.789  10.513   8.082 -0.0087  0.2767  0.0069
   66MOL0     C 8821   2.515  10.491   7.304 -0.3206 -0.0468  0.4820
   66MOL0     C 8822   2.538  10.402   7.197  0.4347 -0.1565  0.4210
   66MOL0     O 8823   2.612   9.997   7.251 -0.0432  0.0396 -0.1326
   66MOL0     C 8824   2.509   9.985   6.903 -0.4919  0.3368 -0.6999
   66MOL0     C 8825   2.496   9.896   6.800  0.3191 -0.0511 -0.4758
   66MOL0     N 8826   2.410   9.577   6.109 -0.2988 -0.9324 -0.2897
   66MOL0     N 8827   2.297   9.586   6.065 -0.2518 -0.2659 -0.2812
   66MOL0     C 8828   1.249   9.809   5.964  0.3736 -0.0219  0.5234
   66MOL0     C 8829   1.139   9.762   5.893 -0.0963  0.2207  0.1143
   66MOL0     C 8830   0.689   9.705   5.797  1.1379 -0.3211  0.6021
   66MOL0     C 8831   0.716   9.756   5.671  0.3207 -0.0991 -0.0676
   66MOL0     C 8832   0.618   9.749   5.564 -0.6151 -0.6476  0.3087
   66MOL0     C 8833   0.487   9.706   5.582  0.8789  0.6083  0.2782
   66MOL0     O 8834   0.398   9.686   5.473  0.5780  0.4910 -0.6161
   66MOL0     C 8835   0.265   9.733   5.497 -0.7301 -0.5539 -0.6089
   66MOL0     C 8836   0.195   9.718   5.360 -0.5358 -0.6025  0.7257
   66MOL0     C 8837   0.050   9.771   5.360 -0.0147  0.1381  1.0257
   66MOL0     C 8838   0.026   9.914   5.407 -0.0710 -0.1548  0.9463
   66MOL0     C 8839   0.071  10.004   5.304 -0.7415  0.2126  0.5019
   66MOL0     C 8840   0.114  10.076   5.216  0.6451 -0.7251 -1.1710
   66MOL0     C 8841   0.462   9.677   5.714  0.5266  0.3967 -0.0429
   66MOL0     C 8842   0.552   9.676   5.816  0.0743  0.5119  0.2246
   66MOL0     H 8843   0.908   9.820   6.137 -0.5770 -0.0011 -2.1950
   66MOL0     H 8844   1.125   9.865   6.272  0.5548  1.9267 -0.6330
   66MOL0     H 8845   1.534   9.822   6.054 -0.8330 -0.3929 -0.3227
   66MOL0     H 8846   1.449   9.973   6.037 -1.0984 -0.1144 -0.1297
   66MOL0     H 8847   1.668  10.013   6.162  0.0809  3.6084  4.9234
   66MOL0     H 8848   1.522  10.065   6.235 -2.2040 -1.0877  0.0064
   66MOL0     H 8849   1.659   9.958   6.410 -1.3249  0.2737  1.9978
   66MOL0     H 8850   1.517   9.862   6.380  0.2004 -0.9806 -1.1026
   66MOL0     H 8851   1.694   9.713   6.401  1.6002  1.8800  1.5831
   66MOL0     H 8852   1.651   9.705   6.227 -3.3008  1.6219  1.0324
   66MOL0     H 8853   1.856   9.855   6.200  1.3314 -3.0291 -2.6162
   66MOL0     H 8854   1.874   9.829   6.371 -1.1436  1.1444 -0.9254
   66MOL0     H 8855   1.872   9.579   6.359  1.1824  0.1609  0.3606
   66MOL0     H 8856   1.877   9.584   6.188  1.7434  1.0914 -1.3111
   66MOL0     H 8857   2.089   9.724   6.347 -0.7005  0.7359  0.0105
   66MOL0     H 8858   2.113   9.567   6.278 -2.7410 -1.0846  0.8693
   66MOL0     H 8859   2.096   9.832   6.142  1.2394  0.3829 -0.7479
   66MOL0     H 8860   2.047   9.681   6.047 -1.2386 -0.5132  0.0741
   66MOL0     H 8861   2.327   9.822   6.300 -0.4079 -0.8426  1.6557
   66MOL0     H 8862   2.654   9.651   6.214 -0.8476  0.2299 -0.5377
   66MOL0     H 8863   2.584   9.781   6.306 -0.5144  0.3500 -0.8047
   66MOL0     H 8864   2.658   9.561   6.454  0.3389 -0.1156 -0.0838
   66MOL0     H 8865   2.559   9.465   6.343  0.0519  2.1466 -4.3220
   66MOL0     H 8866   2.439   9.488   6.560 -2.9973  2.4301  2.5533
   66MOL0     H 8867   2.338   9.580   6.455 -1.4355  0.5488  3.1066
   66MOL0     H 8868   2.362   9.726   6.635 -0.9535 -1.7420  1.6802
   66MOL0     H 8869   2.480   9.786   6.530  0.8879 -1.9048 -1.8577
   66MOL0     H 8870   2.663   9.621   6.918  0.0782 -0.3777  2.9711
   66MOL0     H 8871   2.627   9.727   7.231  1.5414  0.1028  0.4749
   66MOL0     H 8872   2.709   9.635   7.120  1.7549  1.3108 -0.3773
   66MOL0     H 8873   2.783   9.792   7.168  0.5867  1.5160  0.3329
   66MOL0     H 8874   2.445  10.124   7.380 -0.3667  0.5375  1.9283
   66MOL0     H 8875   2.419  10.295   7.556 -3.5045  2.0054 -0.4965
   66MOL0     H 8876   2.521  10.728   7.462  0.5644  0.2183  1.9636
   66MOL0     H 8877   2.358  10.695   7.410  1.4987  3.1000 -0.5535
   66MOL0     H 8878   2.437  10.735   7.703  0.6733  2.8148  0.6010
   66MOL0     H 8879   2.353  10.856   7.613 -2.5216  0.1919 -0.2907
   66MOL0     H 8880   2.243  10.571   7.657  0.2525 -1.1236 -0.3348
   66MOL0     H 8881   2.177  10.703   7.560 -0.0210 -1.1835  0.7501
   66MOL0     H 8882   2.221  10.791   7.814  4.8267 -4.8134  0.7541
   66MOL0     H 8883   2.071  10.799   7.711 -2.3453 -2.1201  1.6628
   66MOL0     H 8884   2.061  10.685   7.953 -2.6966  1.4768 -1.0673
   66MOL0     H 8885   2.166  10.561   7.868  0.1835  1.1394  1.0899
   66MOL0     H 8886   1.883  10.643   7.843 -2.4851 -2.1495 -0.0520
   66MOL0     H 8887   1.951  10.575   7.698  0.2466  1.9758 -0.0845
   66MOL0     H 8888   2.017  10.369   7.823 -0.6455 -0.4377  0.9143
   66MOL0     H 8889   1.846  10.412   7.801 -3.6873  0.9216  3.7885
   66MOL0     H 8890   2.014  10.443   8.050  0.2833 -1.4962 -0.1686
   66MOL0     H 8891   1.892  10.310   8.022 -1.9614 -0.1872 -0.7365
   66MOL0     H 8892   2.551  10.593   7.290 -0.6366  0.2970  1.9592
   66MOL0     H 8893   2.571  10.430   7.098  2.3608 -0.4361  0.9425
   66MOL0     H 8894   2.471  10.086   6.894 -0.1595  0.5664  0.3074
   66MOL0     H 8895   2.455   9.932   6.706  0.7635 -0.0929 -0.6883
   66MOL0     H 8896   1.347   9.803   5.916 -0.5117  0.9103 -1.5258
   66MOL0     H 8897   1.138   9.733   5.788 -0.7730  3.8471 -1.0401
   66MOL0     H 8898   0.807   9.809   5.647 -1.2559  2.3965 -0.9503
   66MOL0     H 8899   0.649   9.786   5.467 -1.0518  0.3757  0.5442
   66MOL0     H 8900   0.207   9.679   5.573 -0.6690  0.6273  0.3069
   66MOL0     H 8901   0.265   9.836   5.533 -0.3550 -1.2782  1.6132
   66MOL0     H 8902   0.200   9.616   5.323 -0.6107 -0.3338 -0.0390
   66MOL0     H 8903   0.258   9.779   5.294 -0.0869 -0.1455  1.5515
   66MOL0     H 8904  -0.017   9.702   5.413  0.6077  0.0988  1.7863
   66MOL0     H 8905   0.028   9.758   5.254  2.2253  0.5494  0.4733
   66MOL0     H 8906   0.075   9.937   5.502  0.4730 -1.6050  1.0397
   66MOL0     H 8907  -0.083   9.918   5.412 -0.1490 -2.0781  1.7335
   66MOL0     H 8908   0.131  10.144   5.135 -0.4472  2.4880  1.1127
   66MOL0     H 8909   0.364   9.639   5.739  0.3013  0.7453 -0.3782
   66MOL0     H 8910   0.517   9.650   5.915 -3.7576  4.1724  0.1538
   67MOL0     O 8911   5.687   6.014   4.081  0.8731  0.3545  0.5388
   67MOL0     C 8912   5.670   6.119   4.021 -0.1861 -0.4683 -0.9517
   67MOL0     O 8913   5.654   6.244   4.074  0.0932  0.7380 -0.5342
   67MOL0     C 8914   5.639   6.281   4.207  0.2418  0.2162 -0.0551
   67MOL0     C 8915   5.648   6.189   4.315  0.7973  0.4832 -0.4931
   67MOL0     C 8916   5.658   6.261   4.444 -0.6337 -0.2523 -0.7290
   67MOL0     C 8917   5.650   6.404   4.451  0.3034 -0.1189  0.5953
   67MOL0     O 8918   5.644   6.458   4.576 -0.3345  0.1360 -0.4716
   67MOL0     C 8919   5.772   6.517   4.606  0.2600  1.5227  0.2115
   67MOL0     C 8920   5.810   6.490   4.751 -1.1119  0.5522 -0.7286
   67MOL0     C 8921   5.874   6.357   4.770 -1.1454  0.7620 -0.2908
   67MOL0     C 8922   5.885   6.331   4.929  0.7608  0.1210  0.0254
   67MOL0     C 8923   5.946   6.185   4.957  0.1593 -0.1705 -0.5661
   67MOL0     C 8924   6.005   6.169   5.095  0.1289  0.2507 -0.7188
   67MOL0     C 8925   6.112   6.275   5.125 -0.3160 -0.6910 -0.3428
   67MOL0     C 8926   6.195   6.239   5.250 -0.2264  0.0083  0.1347
   67MOL0     N 8927   6.104   6.230   5.367  0.3023  0.4487  0.0106
   67MOL0     C 8928   6.037   6.117   5.409 -0.3779 -0.0087 -0.2384
   67MOL0     C 8929   5.969   6.155   5.521 -0.4247 -0.7943 -0.0780
   67MOL0     C 8930   5.891   6.081   5.613  0.0875 -0.0637 -0.7754
   67MOL0     C 8931   5.974   5.991   5.709  0.0169  0.9182 -0.9057
   67MOL0     C 8932   5.885   5.897   5.802 -1.2627 -1.0781 -0.3496
   67MOL0     C 8933   5.962   5.800   5.894  0.1964 -0.1803  0.1379
   67MOL0     O 8934   6.036   5.884   5.989 -0.3520 -0.0267 -0.4151
   67MOL0     C 8935   6.123   5.821   6.079 -0.0809 -0.2001  0.5111
   67MOL0     C 8936   6.213   5.907   6.139  0.0369 -0.2334  0.7141
   67MOL0     C 8937   6.290   5.858   6.246 -0.1222  0.6757 -0.6208
   67MOL0     C 8938   6.367   5.966   6.324  0.6578  0.1541  0.8108
   67MOL0     C 8939   6.299   5.720   6.272 -1.3956  0.8393  0.3816
   67MOL0     C 8940   6.399   5.660   6.369  1.3464 -0.5027 -0.9743
   67MOL0     O 8941   6.372   5.527   6.398 -0.1555  0.4282  0.4413
   67MOL0     C 8942   6.460   5.463   6.479 -1.1292  0.7524 -0.0535
   67MOL0     C 8943   6.454   5.495   6.614  0.3771 -0.2179  0.0093
   67MOL0     C 8944   6.533   5.431   6.705  0.0831  0.0280  0.0053
   67MOL0     C 8945   6.606   5.320   6.677 -0.3740  0.1348 -1.3887
   67MOL0     O 8946   6.688   5.265   6.778 -0.1189 -0.7715 -0.1214
   67MOL0     C 8947   6.755   5.142   6.752 -0.0112  0.5671 -0.0678
   67MOL0     C 8948   6.889   5.169   6.691  0.1705  0.4140 -0.3011
   67MOL0     C 8949   6.946   5.038   6.636  0.0964  0.4539  0.0121
   67MOL0     C 8950   7.042   5.073   6.520  0.3080 -0.8161  0.3753
   67MOL0     C 8951   7.152   4.962   6.499  0.4030 -0.3260  0.1495
   67MOL0     C 8952   7.261   5.002   6.413 -0.7783 -1.0283  0.1934
   67MOL0     C 8953   7.377   4.892   6.393 -0.7126 -0.0559 -0.3595
   67MOL0     C 8954   7.500   4.964   6.322  0.4160 -0.1160  0.2356
   67MOL0    Cl 8955   7.430   5.016   6.159 -0.3754 -0.3495 -0.3674
   67MOL0     C 8956   6.593   5.266   6.547 -0.3975  0.1079 -0.2513
   67MOL0     C 8957   6.518   5.339   6.456  0.3809  0.1850  0.5065
   67MOL0     O 8958   6.497   5.722   6.398 -0.1374 -0.4523 -0.0189
   67MOL0     C 8959   6.204   5.636   6.217 -0.1930 -0.1792 -0.2693
   67MOL0     C 8960   6.115   5.681   6.111  0.0166  0.4257 -1.0488
   67MOL0     N 8961   6.017   6.281   5.548 -0.4904 -0.2383 -0.6136
   67MOL0     N 8962   6.097   6.330   5.456  0.1640  0.3742 -0.1638
   67MOL0     C 8963   5.632   6.480   4.332 -0.1199 -0.6062 -0.6974
   67MOL0     C 8964   5.622   6.416   4.209  0.1602 -0.2249  0.2420
   67MOL0     C 8965   5.682   6.100   3.871 -0.4690  0.1068 -0.3827
   67MOL0     C 8966   5.654   6.216   3.797 -0.9532 -0.8196  0.1069
   67MOL0     C 8967   5.646   6.209   3.658 -0.5403 -0.0272 -0.5837
   67MOL0     C 8968   5.663   6.083   3.588 -1.2398  0.3375  0.2526
   67MOL0     O 8969   5.654   6.067   3.455  0.6302 -0.7194 -0.3059
   67MOL0     C 8970   5.643   6.192   3.381  0.1005  0.0535 -0.0571
   67MOL0     C 8971   5.603   6.159   3.237  0.4303 -0.1724  0.7985
   67MOL0     C 8972   5.529   6.261   3.153 -0.5617  0.2689  0.3441
   67MOL0     C 8973   5.439   6.364   3.228  0.4498  0.1592  0.4228
   67MOL0     C 8974   5.328   6.312   3.312 -0.6437  0.3946  0.1815
   67MOL0     C 8975   5.250   6.247   3.376 -0.4494  0.8016 -0.4600
   67MOL0     C 8976   5.687   5.965   3.661  0.0931  1.0297 -0.1483
   67MOL0     C 8977   5.684   5.978   3.805  0.0488  0.8384  0.0762
   67MOL0     H 8978   5.657   6.083   4.293 -2.1526  0.2835 -1.0762
   67MOL0     H 8979   5.674   6.209   4.538  0.1204  1.5444  0.1855
   67MOL0     H 8980   5.849   6.471   4.544  0.6455  2.5803 -0.1174
   67MOL0     H 8981   5.766   6.625   4.587 -1.2382  2.0063  2.8972
   67MOL0     H 8982   5.883   6.563   4.786  0.4004 -1.6470  0.9496
   67MOL0     H 8983   5.725   6.493   4.819  0.8546  1.3622  1.8581
   67MOL0     H 8984   5.819   6.271   4.732 -0.5023  0.4267 -0.4751
   67MOL0     H 8985   5.974   6.352   4.725  0.5799  1.6108  3.0296
   67MOL0     H 8986   5.957   6.399   4.976 -1.9888  0.5917  4.0599
   67MOL0     H 8987   5.786   6.340   4.974  0.5187  3.1548 -0.8899
   67MOL0     H 8988   5.861   6.119   4.942  0.1170  0.2399 -2.2629
   67MOL0     H 8989   6.024   6.149   4.889  0.6762  0.4429 -0.3051
   67MOL0     H 8990   5.918   6.171   5.161 -0.1397  0.1699 -1.0683
   67MOL0     H 8991   6.038   6.066   5.118 -1.4885  0.3696  2.8324
   67MOL0     H 8992   6.187   6.270   5.046 -0.3249 -0.9823 -0.3329
   67MOL0     H 8993   6.070   6.373   5.149  0.0827 -0.7919  0.8628
   67MOL0     H 8994   6.272   6.317   5.261 -1.3712  1.2979 -0.6493
   67MOL0     H 8995   6.243   6.142   5.240 -2.2593 -1.2841  2.0689
   67MOL0     H 8996   6.045   6.024   5.354 -1.7718 -0.5151  0.3452
   67MOL0     H 8997   5.822   6.152   5.658 -1.2368 -1.3824 -0.6267
   67MOL0     H 8998   5.823   6.011   5.563  0.2468 -1.8994  1.3826
   67MOL0     H 8999   6.039   6.048   5.776  0.3024 -0.9850  0.5287
   67MOL0     H 9000   6.049   5.931   5.657  0.1287  0.1774  0.0754
   67MOL0     H 9001   5.805   5.837   5.756 -2.5981 -1.1908  1.9630
   67MOL0     H 9002   5.821   5.959   5.866  0.5744  1.1142 -0.5173
   67MOL0     H 9003   6.023   5.734   5.832  1.0177 -0.4924  1.2332
   67MOL0     H 9004   5.892   5.741   5.952 -0.3764  0.3867  0.0341
   67MOL0     H 9005   6.214   6.015   6.127  0.6701 -0.0553  2.2268
   67MOL0     H 9006   6.374   5.941   6.431 -0.7110  2.8948  1.6380
   67MOL0     H 9007   6.464   5.976   6.275 -0.4660 -0.4978 -1.6750
   67MOL0     H 9008   6.306   6.056   6.327 -2.9723 -2.1345  1.6708
   67MOL0     H 9009   6.396   5.582   6.644 -3.1016 -1.9895 -0.9931
   67MOL0     H 9010   6.544   5.467   6.807  1.2785  1.2026 -0.5097
   67MOL0     H 9011   6.782   5.104   6.852  0.8255  1.3367  0.0118
   67MOL0     H 9012   6.687   5.069   6.707  2.0641 -1.0821 -0.7391
   67MOL0     H 9013   6.879   5.248   6.616  2.7774  0.3352 -0.8296
   67MOL0     H 9014   6.949   5.208   6.773  0.2544 -4.2406  2.1943
   67MOL0     H 9015   6.864   4.973   6.605 -0.2445 -0.0046  1.7585
   67MOL0     H 9016   6.993   4.984   6.719 -2.0762  0.3630  1.2528
   67MOL0     H 9017   6.993   5.084   6.423  0.4149 -1.8010  0.2012
   67MOL0     H 9018   7.081   5.174   6.540 -0.3801 -0.3372 -0.6394
   67MOL0     H 9019   7.099   4.874   6.461 -1.0338  0.5687  0.0037
   67MOL0     H 9020   7.184   4.929   6.598  1.1190  0.2955  0.1307
   67MOL0     H 9021   7.225   5.034   6.315 -1.2643 -3.8244 -0.6275
   67MOL0     H 9022   7.299   5.092   6.462 -4.9344  2.2363 -1.8920
   67MOL0     H 9023   7.334   4.805   6.343 -2.5235  0.5979 -0.0149
   67MOL0     H 9024   7.412   4.867   6.493  2.1391  3.0619 -0.4081
   67MOL0     H 9025   7.578   4.888   6.307  0.3684  0.1167 -1.4966
   67MOL0     H 9026   7.536   5.053   6.372 -4.1980 -0.2070  4.5129
   67MOL0     H 9027   6.651   5.176   6.532  0.8855  0.4426  2.1797
   67MOL0     H 9028   6.488   5.293   6.362 -0.2708 -1.8985  1.6734
   67MOL0     H 9029   6.188   5.530   6.236  0.7878 -0.3457 -0.3258
   67MOL0     H 9030   6.045   5.615   6.060 -1.2546 -0.5323  1.7269
   67MOL0     H 9031   5.616   6.587   4.327 -1.1887 -0.6027  1.5140
   67MOL0     H 9032   5.624   6.472   4.116  0.7727  3.1804  2.1416
   67MOL0     H 9033   5.633   6.309   3.850  1.6221 -1.0312  1.6859
   67MOL0     H 9034   5.617   6.305   3.618  0.3830 -0.4144 -2.2706
   67MOL0     H 9035   5.566   6.259   3.420 -1.1368  1.0531 -3.8601
   67MOL0     H 9036   5.742   6.239   3.392  0.9259 -1.8771  1.4644
   67MOL0     H 9037   5.538   6.072   3.243  0.1035 -0.0996 -1.0884
   67MOL0     H 9038   5.691   6.123   3.182 -0.7424  1.6373 -2.5605
   67MOL0     H 9039   5.487   6.197   3.075 -3.5990  1.9996  0.4052
   67MOL0     H 9040   5.594   6.327   3.095 -2.8362 -0.8055 -3.8874
   67MOL0     H 9041   5.387   6.439   3.168 -0.4859  1.0449  2.2512
   67MOL0     H 9042   5.508   6.423   3.290 -0.1825 -0.5110  1.8280
   67MOL0     H 9043   5.169   6.200   3.429 -0.9894 -0.9171 -2.6259
   67MOL0     H 9044   5.694   5.868   3.613 -0.6746  1.5563 -1.3711
   67MOL0     H 9045   5.715   5.895   3.868  2.6629  1.1142 -0.7154
   68MOL0     O 9046   2.035   5.684   5.708  0.5064  0.1932  0.4057
   68MOL0     C 9047   2.054   5.806   5.692  0.7480 -0.1050 -0.1160
   68MOL0     O 9048   2.020   5.899   5.788 -0.4156 -0.2669 -0.1052
   68MOL0     C 9049   1.963   5.848   5.907 -0.5264  0.8836 -0.4579
   68MOL0     C 9050   1.836   5.783   5.906  0.1329  0.7728 -0.2394
   68MOL0     C 9051   1.774   5.744   6.026  0.2450  0.1086  0.5965
   68MOL0     C 9052   1.814   5.791   6.152 -0.0372 -0.8016  0.0416
   68MOL0     O 9053   1.732   5.765   6.255 -0.0807 -0.3895  0.4596
   68MOL0     C 9054   1.773   5.666   6.353  0.0645  0.1881  0.4896
   68MOL0     C 9055   1.782   5.725   6.498 -0.7223 -0.2585  0.6812
   68MOL0     C 9056   1.657   5.808   6.536 -0.6044 -0.2698  0.6551
   68MOL0     C 9057   1.666   5.870   6.678  0.8941  1.0103 -0.6039
   68MOL0     C 9058   1.542   5.956   6.711 -0.0215 -0.5587 -0.3352
   68MOL0     C 9059   1.545   6.033   6.840  0.1312 -0.1814 -0.2438
   68MOL0     C 9060   1.605   5.964   6.963  0.7033  0.3762 -0.4435
   68MOL0     C 9061   1.621   6.040   7.093  0.4942  0.8416 -0.2669
   68MOL0     N 9062   1.711   6.155   7.092  0.8301 -0.3126  0.5225
   68MOL0     C 9063   1.668   6.274   7.038  1.0528 -0.2347  0.1138
   68MOL0     C 9064   1.786   6.342   7.014 -0.5045 -0.8301 -0.3424
   68MOL0     C 9065   1.792   6.479   6.952  0.3466  0.4982 -0.9374
   68MOL0     C 9066   1.719   6.585   7.034  0.0907 -0.4900 -1.0719
   68MOL0     C 9067   1.763   6.733   7.005  0.5415  0.8853 -0.0455
   68MOL0     C 9068   1.705   6.785   6.873 -0.1764 -0.0799 -0.1727
   68MOL0     O 9069   1.784   6.727   6.763  0.2076 -0.2504 -0.1991
   68MOL0     C 9070   1.730   6.755   6.642  1.3365  0.2266  0.2137
   68MOL0     C 9071   1.676   6.879   6.593 -0.3149 -0.3693  0.0483
   68MOL0     C 9072   1.626   6.906   6.470  0.0632  0.8195  0.1337
   68MOL0     C 9073   1.567   7.037   6.443 -1.0998 -0.8582 -0.4955
   68MOL0     C 9074   1.627   6.793   6.374 -0.2010 -0.4342 -0.0999
   68MOL0     C 9075   1.574   6.817   6.241  0.1288  0.6255 -0.7226
   68MOL0     O 9076   1.645   6.752   6.138  0.0936 -0.3584  0.5356
   68MOL0     C 9077   1.592   6.755   6.008  0.7420  0.5562 -0.5023
   68MOL0     C 9078   1.461   6.720   5.971 -0.0588  0.6023 -0.2673
   68MOL0     C 9079   1.429   6.712   5.829  0.5470 -0.8383 -0.6544
   68MOL0     C 9080   1.523   6.743   5.723  0.8608 -0.0693 -0.4550
   68MOL0     O 9081   1.503   6.736   5.587 -1.1069  0.3737 -0.1704
   68MOL0     C 9082   1.376   6.678   5.539  0.7673 -0.2833  0.8846
   68MOL0     C 9083   1.363   6.692   5.386 -0.2357 -0.4091  0.0592
   68MOL0     C 9084   1.228   6.641   5.335  0.6366 -0.6770  0.5156
   68MOL0     C 9085   1.244   6.649   5.181 -0.2929 -0.0206 -0.3726
   68MOL0     C 9086   1.135   6.592   5.094  0.5803 -0.5485 -0.4588
   68MOL0     C 9087   1.081   6.456   5.141  0.7700  2.0776 -0.4685
   68MOL0     C 9088   0.976   6.402   5.042  1.3417  2.1279 -0.5477
   68MOL0     C 9089   0.947   6.252   5.061 -0.0614  0.0649 -0.0153
   68MOL0    Cl 9090   0.797   6.194   4.972 -0.4757  0.0811 -0.1000
   68MOL0     C 9091   1.640   6.783   5.769  0.4454  0.8609  0.2333
   68MOL0     C 9092   1.682   6.789   5.905  0.8516  0.0059  0.0723
   68MOL0     O 9093   1.466   6.869   6.234  1.0126 -0.6370 -0.6584
   68MOL0     C 9094   1.667   6.667   6.412  0.0717  0.3862 -1.1320
   68MOL0     C 9095   1.718   6.646   6.548 -0.1678  0.4423  0.8962
   68MOL0     N 9096   1.898   6.269   7.059  0.1065  0.4246  0.2793
   68MOL0     N 9097   1.850   6.159   7.110  0.5255  0.0859  0.8103
   68MOL0     C 9098   1.947   5.853   6.157 -1.0424 -0.6534  0.9387
   68MOL0     C 9099   2.007   5.881   6.031  0.7978 -0.1859  0.1032
   68MOL0     C 9100   2.104   5.846   5.562 -0.3069 -0.5825 -1.0637
   68MOL0     C 9101   2.045   5.952   5.499 -0.4733 -0.3363  0.7289
   68MOL0     C 9102   2.087   5.981   5.371 -0.3826 -0.3693 -0.5216
   68MOL0     C 9103   2.195   5.908   5.311  0.4427 -0.1919  0.1587
   68MOL0     O 9104   2.237   5.929   5.177  0.2032  0.1098 -0.7175
   68MOL0     C 9105   2.258   6.065   5.156 -0.5708  0.2247  0.6083
   68MOL0     C 9106   2.163   6.116   5.050  0.6147  0.6396  0.1959
   68MOL0     C 9107   2.227   6.099   4.908  0.1504 -0.1745  0.2588
   68MOL0     C 9108   2.127   6.120   4.799  0.1285 -0.0248  0.0837
   68MOL0     C 9109   2.019   6.010   4.807  0.4224 -0.8187 -0.0576
   68MOL0     C 9110   1.931   5.936   4.818  0.4042  0.2632 -0.0590
   68MOL0     C 9111   2.253   5.805   5.388 -0.2070  0.7306  0.2449
   68MOL0     C 9112   2.204   5.772   5.510  0.0042 -0.1635 -0.3079
   68MOL0     H 9113   1.800   5.749   5.809  0.2045 -1.3721  0.4344
   68MOL0     H 9114   1.681   5.689   6.016  0.6898 -0.8334  1.4511
   68MOL0     H 9115   1.685   5.601   6.351 -1.0067  1.6190 -0.4526
   68MOL0     H 9116   1.867   5.617   6.327  1.2364  1.4349  2.1456
   68MOL0     H 9117   1.788   5.629   6.550 -0.7384 -2.4463 -2.9717
   68MOL0     H 9118   1.875   5.781   6.510  0.0511 -1.5842  1.0774
   68MOL0     H 9119   1.646   5.891   6.466  1.1146  0.2644  0.9720
   68MOL0     H 9120   1.568   5.745   6.523 -1.5495  0.6066  2.5274
   68MOL0     H 9121   1.664   5.789   6.752 -2.0779  0.3469 -1.2966
   68MOL0     H 9122   1.762   5.920   6.691  1.8613 -0.6040 -1.2491
   68MOL0     H 9123   1.506   6.021   6.631  0.3500  0.0940  0.0178
   68MOL0     H 9124   1.462   5.883   6.724  2.2679 -2.7985  2.9339
   68MOL0     H 9125   1.626   6.104   6.823  2.1483 -2.1118  0.8487
   68MOL0     H 9126   1.450   6.085   6.854  0.4416  0.0160  1.2951
   68MOL0     H 9127   1.551   5.869   6.969  1.2388 -0.2023 -3.3336
   68MOL0     H 9128   1.706   5.931   6.940  0.7552 -0.2372  0.6031
   68MOL0     H 9129   1.636   5.965   7.171 -2.5354 -1.4775 -1.7037
   68MOL0     H 9130   1.518   6.068   7.115 -0.1501  0.4617 -2.5642
   68MOL0     H 9131   1.567   6.311   7.028  0.2360 -0.8074  4.2791
   68MOL0     H 9132   1.899   6.497   6.940  0.2297  1.5225 -0.5087
   68MOL0     H 9133   1.748   6.468   6.853  2.3141 -0.3272 -1.7735
   68MOL0     H 9134   1.746   6.571   7.139  1.3266  0.5421 -1.2214
   68MOL0     H 9135   1.611   6.573   7.034 -0.2565  1.5309  1.8794
   68MOL0     H 9136   1.872   6.739   7.004  0.7869 -1.9418  0.2825
   68MOL0     H 9137   1.718   6.797   7.080 -3.3124  0.7555 -2.0056
   68MOL0     H 9138   1.736   6.890   6.871  0.7955 -0.2790  2.0855
   68MOL0     H 9139   1.596   6.773   6.876 -0.6050  3.1102  2.2435
   68MOL0     H 9140   1.688   6.965   6.658 -0.3844 -1.6181  1.7943
   68MOL0     H 9141   1.646   7.101   6.402 -0.7930 -0.8164  0.1524
   68MOL0     H 9142   1.473   7.033   6.386 -1.5031 -2.3408  0.2423
   68MOL0     H 9143   1.541   7.074   6.543 -0.7561 -0.9335 -0.3799
   68MOL0     H 9144   1.395   6.691   6.051 -2.0886  3.4127 -0.7690
   68MOL0     H 9145   1.325   6.690   5.806  0.2976  0.1497 -0.5261
   68MOL0     H 9146   1.365   6.574   5.570 -3.6217 -0.7855 -1.5376
   68MOL0     H 9147   1.293   6.738   5.579 -1.1233  0.0205 -3.0256
   68MOL0     H 9148   1.388   6.795   5.359  1.1804 -0.8365 -0.3599
   68MOL0     H 9149   1.452   6.643   5.345  0.8165  0.4723  1.2281
   68MOL0     H 9150   1.149   6.699   5.385  1.6874  1.9362 -0.6552
   68MOL0     H 9151   1.238   6.542   5.380 -0.0853  0.2920  3.0223
   68MOL0     H 9152   1.266   6.754   5.158  0.7164 -0.0349  0.4588
   68MOL0     H 9153   1.335   6.590   5.165  2.2012  2.6512  2.5109
   68MOL0     H 9154   1.165   6.591   4.989  1.0949 -1.2648 -0.3075
   68MOL0     H 9155   1.049   6.660   5.092  1.1243  0.1428 -1.9881
   68MOL0     H 9156   1.166   6.387   5.136 -0.0927  1.0354 -1.2804
   68MOL0     H 9157   1.039   6.457   5.242  4.6693  1.0890  1.3709
   68MOL0     H 9158   1.006   6.404   4.937  0.1867 -1.2722 -1.0859
   68MOL0     H 9159   0.883   6.455   5.060  0.5066  0.5919 -0.1188
   68MOL0     H 9160   0.929   6.233   5.167 -2.1475 -3.0152 -0.7837
   68MOL0     H 9161   1.033   6.198   5.022  0.2228  1.9374 -2.2174
   68MOL0     H 9162   1.714   6.788   5.690 -1.8533  1.4203 -2.0218
   68MOL0     H 9163   1.781   6.827   5.927  1.6464  0.9706 -4.1959
   68MOL0     H 9164   1.660   6.587   6.338  3.0799  0.0026 -1.1198
   68MOL0     H 9165   1.772   6.556   6.575 -1.1909 -0.9052 -1.3288
   68MOL0     H 9166   1.976   5.911   6.244 -3.2927  1.8676  0.1614
   68MOL0     H 9167   2.089   5.952   6.032  0.1680  0.7230 -3.0955
   68MOL0     H 9168   1.976   6.017   5.551 -1.7499  0.0870 -1.3861
   68MOL0     H 9169   2.045   6.064   5.314  0.6256  1.4599  1.2485
   68MOL0     H 9170   2.238   6.127   5.245 -1.6151 -1.3421  1.5117
   68MOL0     H 9171   2.361   6.082   5.121 -0.3229 -2.7531 -0.3445
   68MOL0     H 9172   2.141   6.222   5.066  0.5351  0.8143 -0.9491
   68MOL0     H 9173   2.069   6.060   5.059 -0.0798  2.1394  4.3876
   68MOL0     H 9174   2.259   5.996   4.889 -1.6364 -0.2724 -2.6296
   68MOL0     H 9175   2.310   6.165   4.883 -0.7510  0.9928  0.2857
   68MOL0     H 9176   2.177   6.097   4.705 -1.0472 -3.6373  0.1827
   68MOL0     H 9177   2.089   6.223   4.801 -1.7362 -0.6711  0.5136
   68MOL0     H 9178   1.863   5.855   4.834  0.2687  0.0508 -1.5396
   68MOL0     H 9179   2.332   5.738   5.355 -4.2275 -2.2515 -4.9521
   68MOL0     H 9180   2.227   5.686   5.571 -0.9830  0.4111  0.9121
   69MOL0     O 9181   0.468   9.101   2.738 -0.1645  1.3411  0.1438
   69MOL0     C 9182   0.403   8.995   2.764  0.2828 -0.0886  0.5716
   69MOL0     O 9183   0.374   8.955   2.891  0.2435  0.5308 -0.4268
   69MOL0     C 9184   0.431   9.028   3.000  0.0435  0.8792 -0.3667
   69MOL0     C 9185   0.389   9.154   3.046 -0.9854 -0.2690 -0.1867
   69MOL0     C 9186   0.441   9.216   3.162 -0.3493 -0.1395 -0.7899
   69MOL0     C 9187   0.543   9.151   3.231 -0.7963  0.1269 -0.4437
   69MOL0     O 9188   0.604   9.188   3.346  0.6800 -0.2206  0.4634
   69MOL0     C 9189   0.596   9.316   3.405 -0.3787 -0.0581 -0.9811
   69MOL0     C 9190   0.646   9.306   3.562  0.4370  0.7074  1.6908
   69MOL0     C 9191   0.799   9.318   3.582  0.9843  0.1131  0.3349
   69MOL0     C 9192   0.842   9.312   3.725 -0.0309 -0.0313 -0.6848
   69MOL0     C 9193   0.984   9.388   3.735 -0.7556  0.1773 -0.6382
   69MOL0     C 9194   1.034   9.398   3.881  0.8002 -0.4813 -0.7372
   69MOL0     C 9195   0.962   9.517   3.959 -0.2778  0.0123  0.0029
   69MOL0     C 9196   1.029   9.539   4.094 -0.1487  0.7336 -0.5314
   69MOL0     N 9197   0.992   9.413   4.170  0.0944  0.2718  1.1222
   69MOL0     C 9198   0.883   9.390   4.242  0.2461 -0.4299  1.2369
   69MOL0     C 9199   0.898   9.264   4.290 -0.0620 -0.9465 -0.2537
   69MOL0     C 9200   0.829   9.183   4.402  0.1742  0.0902  0.7152
   69MOL0     C 9201   0.892   9.205   4.536 -0.1286 -0.1360 -0.3101
   69MOL0     C 9202   0.854   9.107   4.640  0.9451 -0.1399 -0.8531
   69MOL0     C 9203   0.723   9.140   4.710 -0.6894  0.1456  0.0885
   69MOL0     O 9204   0.604   9.142   4.628 -0.2522  0.2639 -1.0394
   69MOL0     C 9205   0.481   9.114   4.678 -0.6683  0.0991  0.6404
   69MOL0     C 9206   0.448   9.084   4.811 -0.1777  0.5627  0.5369
   69MOL0     C 9207   0.324   9.045   4.856 -0.1457 -0.4443 -0.0346
   69MOL0     C 9208   0.304   9.009   5.007 -0.3908 -0.3247 -0.0668
   69MOL0     C 9209   0.220   9.032   4.764 -0.3142 -0.2120 -0.1229
   69MOL0     C 9210   0.079   8.970   4.795 -0.4187 -0.3018  0.2793
   69MOL0     O 9211   0.044   8.954   4.931 -0.7545 -0.9383 -0.1623
   69MOL0     C 9212  -0.081   8.916   4.961 -0.5551  0.8070  0.3089
   69MOL0     C 9213  -0.182   9.011   4.927 -0.0663 -0.1948 -0.5676
   69MOL0     C 9214  -0.306   9.002   4.974 -0.4587  0.6560 -0.8826
   69MOL0     C 9215  -0.350   8.890   5.054 -0.5453  0.4578  0.1973
   69MOL0     O 9216  -0.474   8.866   5.112 -0.5458  0.4802  0.2261
   69MOL0     C 9217  -0.590   8.925   5.053 -0.3367 -0.4370  0.5822
   69MOL0     C 9218  -0.702   8.910   5.158  0.3312  0.2520 -0.5987
   69MOL0     C 9219  -0.696   8.772   5.231 -0.3241 -1.0304  0.1868
   69MOL0     C 9220  -0.821   8.725   5.296  0.1378 -0.0617 -0.2307
   69MOL0     C 9221  -0.812   8.605   5.394 -0.7135  0.7476  1.4901
   69MOL0     C 9222  -0.939   8.564   5.453 -0.1914  0.2238 -0.5533
   69MOL0     C 9223  -0.913   8.427   5.518 -0.5861  0.4940 -0.1754
   69MOL0     C 9224  -1.006   8.394   5.638 -0.3249  1.1957 -0.0377
   69MOL0    Cl 9225  -0.986   8.218   5.680  0.0346 -0.4932  0.4774
   69MOL0     C 9226  -0.251   8.802   5.084 -0.1098  1.0616  0.1244
   69MOL0     C 9227  -0.116   8.813   5.053 -0.5925  0.1998  0.6505
   69MOL0     O 9228  -0.002   8.948   4.697  0.2749  0.8229 -0.2202
   69MOL0     C 9229   0.242   9.064   4.621 -0.9509 -0.4119 -0.1793
   69MOL0     C 9230   0.375   9.096   4.582  0.0324 -0.3893 -1.6209
   69MOL0     N 9231   1.026   9.214   4.262 -0.4835 -0.0985 -0.3533
   69MOL0     N 9232   1.084   9.314   4.187  0.7216  0.2553 -0.4661
   69MOL0     C 9233   0.576   9.019   3.188 -0.7733 -0.3177  0.0930
   69MOL0     C 9234   0.518   8.950   3.081 -0.7840  0.3525  0.7149
   69MOL0     C 9235   0.331   8.930   2.661 -1.0024 -0.0344 -0.7768
   69MOL0     C 9236   0.317   8.787   2.671  0.3365  0.1327 -0.5916
   69MOL0     C 9237   0.252   8.713   2.574 -0.4750  0.7026  0.0962
   69MOL0     C 9238   0.215   8.774   2.456  0.3670 -0.1457  0.1131
   69MOL0     O 9239   0.136   8.695   2.362 -0.8120  0.0384 -1.4004
   69MOL0     C 9240   0.072   8.773   2.265  0.1251  0.2567  0.0646
   69MOL0     C 9241   0.003   8.675   2.164 -0.0295 -0.9866 -0.3031
   69MOL0     C 9242   0.090   8.574   2.089 -0.5423  0.7326 -0.6174
   69MOL0     C 9243   0.017   8.519   1.985  0.0654  0.8670 -0.0970
   69MOL0     C 9244   0.114   8.457   1.899 -0.8685 -0.1195  0.1419
   69MOL0     C 9245   0.196   8.386   1.837  0.3444 -0.7707 -0.1565
   69MOL0     C 9246   0.238   8.914   2.437 -0.8979 -0.8572 -0.6404
   69MOL0     C 9247   0.296   8.987   2.542  0.4907  0.0386 -0.2773
   69MOL0     H 9248   0.311   9.205   2.990 -2.6712  0.6400  2.7239
   69MOL0     H 9249   0.402   9.314   3.188  1.1780  0.7743 -1.7027
   69MOL0     H 9250   0.661   9.392   3.360  0.5286  1.0108  1.9421
   69MOL0     H 9251   0.492   9.345   3.395 -2.1067 -5.4433 -2.1262
   69MOL0     H 9252   0.597   9.385   3.620 -1.6889 -0.3088  1.3925
   69MOL0     H 9253   0.612   9.214   3.611 -4.3581  0.6736 -1.0526
   69MOL0     H 9254   0.852   9.239   3.528  1.9430 -0.8678  2.5959
   69MOL0     H 9255   0.838   9.413   3.544  1.4783 -0.2865 -0.1799
   69MOL0     H 9256   0.769   9.360   3.791 -1.6522 -3.8344  0.5803
   69MOL0     H 9257   0.844   9.209   3.762  0.7594  0.0803 -0.4057
   69MOL0     H 9258   1.064   9.330   3.688  2.3376  1.7238  2.3325
   69MOL0     H 9259   0.987   9.484   3.683 -0.9615  0.5628  0.0411
   69MOL0     H 9260   1.013   9.305   3.934  0.8423 -0.0368  0.0676
   69MOL0     H 9261   1.143   9.410   3.889  0.7779 -0.3695 -0.6056
   69MOL0     H 9262   0.979   9.610   3.903 -2.0436  0.0508 -0.5271
   69MOL0     H 9263   0.854   9.498   3.960 -0.3254  0.2819 -0.1053
   69MOL0     H 9264   0.983   9.618   4.154 -1.1634  2.9760 -4.0027
   69MOL0     H 9265   1.137   9.557   4.095  0.0976 -0.6242 -1.1142
   69MOL0     H 9266   0.798   9.455   4.254  0.1327 -0.7246  2.0983
   69MOL0     H 9267   0.723   9.210   4.395  0.1159 -0.1968  0.5271
   69MOL0     H 9268   0.851   9.077   4.390  0.4590 -0.6121  5.4970
   69MOL0     H 9269   0.870   9.308   4.567 -0.8102 -0.4133  0.1488
   69MOL0     H 9270   1.001   9.213   4.546 -0.3179  3.2689  0.4014
   69MOL0     H 9271   0.931   9.106   4.718  1.1297  1.6342 -0.9589
   69MOL0     H 9272   0.859   9.005   4.602  1.2836 -1.7214  2.9506
   69MOL0     H 9273   0.739   9.237   4.759  2.2042 -0.3613  0.3556
   69MOL0     H 9274   0.707   9.068   4.790 -0.1694  0.0036  0.0689
   69MOL0     H 9275   0.523   9.076   4.889  1.5391 -0.1139 -1.1029
   69MOL0     H 9276   0.225   9.072   5.048 -1.9438 -0.6489 -2.3853
   69MOL0     H 9277   0.266   8.907   5.019 -0.8899 -0.1463 -0.1235
   69MOL0     H 9278   0.394   9.030   5.066 -2.0896  1.4736  2.0764
   69MOL0     H 9279  -0.156   9.100   4.872 -1.2276  1.6066  1.6195
   69MOL0     H 9280  -0.383   9.077   4.963  0.9783  2.3280 -0.0396
   69MOL0     H 9281  -0.566   9.024   5.014  1.5845  0.1632  2.9752
   69MOL0     H 9282  -0.626   8.869   4.966  1.4989 -2.0467  0.7908
   69MOL0     H 9283  -0.699   8.999   5.223 -0.3617  1.2142 -1.8326
   69MOL0     H 9284  -0.802   8.913   5.112  0.7062 -1.8196 -1.6355
   69MOL0     H 9285  -0.608   8.770   5.296 -1.1847 -5.0336  1.5502
   69MOL0     H 9286  -0.669   8.698   5.155  1.6335  0.7396 -0.9564
   69MOL0     H 9287  -0.854   8.805   5.364 -3.4757 -1.9759  0.5045
   69MOL0     H 9288  -0.892   8.719   5.213 -1.8795  1.6253  1.2542
   69MOL0     H 9289  -0.733   8.634   5.464  2.4316 -0.4101 -1.3324
   69MOL0     H 9290  -0.762   8.523   5.341  1.1661  1.3177  2.3093
   69MOL0     H 9291  -0.985   8.640   5.518 -1.4988 -0.7290 -0.3063
   69MOL0     H 9292  -1.012   8.543   5.374 -0.0613 -4.3984  0.2856
   69MOL0     H 9293  -0.811   8.421   5.558 -1.1861 -3.3158  1.1001
   69MOL0     H 9294  -0.917   8.343   5.448 -2.5331 -0.7747  1.3740
   69MOL0     H 9295  -1.110   8.416   5.611 -0.1200  2.4810  0.1461
   69MOL0     H 9296  -0.984   8.456   5.725 -2.8117 -2.4570  3.5636
   69MOL0     H 9297  -0.285   8.726   5.154 -2.5592  1.3275 -0.6920
   69MOL0     H 9298  -0.047   8.735   5.083 -1.3981 -0.0151  2.0540
   69MOL0     H 9299   0.163   9.043   4.549  0.4823  1.3127 -2.4204
   69MOL0     H 9300   0.406   9.110   4.479  0.1723 -1.3066 -1.7093
   69MOL0     H 9301   0.661   8.971   3.236  0.9956  2.0904 -0.4263
   69MOL0     H 9302   0.557   8.853   3.051  2.7211  1.9218 -0.2345
   69MOL0     H 9303   0.348   8.729   2.757 -0.0049 -0.9251 -1.1725
   69MOL0     H 9304   0.232   8.606   2.583  4.9620 -0.5838  0.3910
   69MOL0     H 9305   0.001   8.844   2.308 -2.1739 -1.4419 -0.6887
   69MOL0     H 9306   0.148   8.824   2.205 -0.0500  0.5842  0.1203
   69MOL0     H 9307  -0.041   8.752   2.101  3.8450  1.4100 -0.4541
   69MOL0     H 9308  -0.078   8.623   2.215 -0.3931  0.8723  1.1346
   69MOL0     H 9309   0.125   8.494   2.155 -3.2430 -1.2704 -1.4538
   69MOL0     H 9310   0.179   8.630   2.058  0.3504 -1.6664 -2.7968
   69MOL0     H 9311  -0.046   8.591   1.932 -0.8733 -0.4017 -0.7961
   69MOL0     H 9312  -0.046   8.437   2.020 -0.7477 -0.2858 -3.7689
   69MOL0     H 9313   0.244   8.329   1.759  0.7894  1.2467 -1.4465
   69MOL0     H 9314   0.215   8.976   2.350  1.6242  2.2416  0.6975
   69MOL0     H 9315   0.299   9.096   2.535  0.6218  0.0693  0.2334
   70MOL0     O 9316   8.229   6.677   7.119 -0.3079 -0.0556  0.5114
   70MOL0     C 9317   8.205   6.745   7.016 -0.4028 -0.2765  0.2129
   70MOL0     O 9318   8.124   6.863   7.013 -0.5384  0.8865 -0.5861
   70MOL0     C 9319   8.036   6.886   7.116 -0.1657  0.3081 -0.8093
   70MOL0     C 9320   7.903   6.920   7.098 -0.1580  0.8237 -0.5679
   70MOL0     C 9321   7.815   6.944   7.195 -0.2820  0.1279  0.0601
   70MOL0     C 9322   7.851   6.913   7.333  0.9734 -0.3212  0.6018
   70MOL0     O 9323   7.764   6.901   7.448 -1.2424 -0.8622  0.5372
   70MOL0     C 9324   7.636   6.955   7.429  0.9533 -0.1469  0.2118
   70MOL0     C 9325   7.549   6.959   7.562  0.5957  0.0504 -0.2652
   70MOL0     C 9326   7.530   6.824   7.624 -0.5693  0.1170 -0.1138
   70MOL0     C 9327   7.376   6.816   7.667 -0.2823 -0.5674  0.1378
   70MOL0     C 9328   7.332   6.691   7.741  0.9773  0.4289 -0.6145
   70MOL0     C 9329   7.191   6.716   7.794  0.4810 -0.1792 -0.9007
   70MOL0     C 9330   7.123   6.587   7.844 -0.0834  0.4659 -0.5325
   70MOL0     C 9331   7.156   6.541   7.984 -0.3267  0.2888 -0.0423
   70MOL0     N 9332   7.251   6.432   7.979  0.0778  0.9621 -0.2224
   70MOL0     C 9333   7.376   6.461   8.030 -0.2219  0.6785  0.0380
   70MOL0     C 9334   7.426   6.341   8.065 -0.3922  0.3254 -0.3799
   70MOL0     C 9335   7.574   6.326   8.110  0.2945 -0.9492  0.4981
   70MOL0     C 9336   7.585   6.325   8.259 -0.0362  0.2398 -0.6768
   70MOL0     C 9337   7.729   6.314   8.320 -0.1535  0.4034  0.4774
   70MOL0     C 9338   7.813   6.196   8.271  0.0021 -0.5396  0.0401
   70MOL0     O 9339   7.947   6.179   8.336  0.4075 -0.0118  0.5120
   70MOL0     C 9340   8.030   6.083   8.283  0.1393  0.0182  0.3748
   70MOL0     C 9341   8.122   6.017   8.368  0.7819  0.5758  0.4556
   70MOL0     C 9342   8.200   5.910   8.324 -0.0171  0.5283 -0.1023
   70MOL0     C 9343   8.291   5.850   8.423 -0.1107  0.9996 -0.1172
   70MOL0     C 9344   8.203   5.868   8.185  0.0228  0.7040  0.8306
   70MOL0     C 9345   8.271   5.757   8.120 -0.0057 -0.3446  0.2123
   70MOL0     O 9346   8.258   5.625   8.172 -0.9471  0.3323  0.0698
   70MOL0     C 9347   8.313   5.526   8.092  0.2176  0.2247 -0.0727
   70MOL0     C 9348   8.440   5.486   8.121 -0.3528  0.6470 -1.0927
   70MOL0     C 9349   8.498   5.370   8.064 -0.7738 -0.7154  0.2484
   70MOL0     C 9350   8.428   5.295   7.971  0.2590  0.8255 -0.2953
   70MOL0     O 9351   8.488   5.185   7.929 -0.5314 -0.1534  1.3627
   70MOL0     C 9352   8.427   5.090   7.852 -0.3528 -0.4730  0.3874
   70MOL0     C 9353   8.532   4.982   7.799 -0.2041  0.8591  0.4455
   70MOL0     C 9354   8.543   4.880   7.903 -1.2081  0.0071 -0.0384
   70MOL0     C 9355   8.671   4.794   7.901 -0.9543 -0.2766  0.5546
   70MOL0     C 9356   8.705   4.740   7.754 -0.8144 -1.0982 -1.3005
   70MOL0     C 9357   8.806   4.618   7.779  0.4434 -0.3132  0.0616
   70MOL0     C 9358   8.896   4.564   7.659 -0.0049  0.0835  1.1502
   70MOL0     C 9359   9.003   4.456   7.699  0.0310 -0.5322 -0.6451
   70MOL0    Cl 9360   8.909   4.336   7.786  0.6423  0.0654 -0.3257
   70MOL0     C 9361   8.302   5.345   7.928  0.0719 -0.2131 -0.0923
   70MOL0     C 9362   8.252   5.461   7.987 -0.5998  0.2066  0.0012
   70MOL0     O 9363   8.311   5.784   8.006 -0.3881 -0.5211  0.1757
   70MOL0     C 9364   8.108   5.934   8.102 -0.4379  0.3677  0.0911
   70MOL0     C 9365   8.027   6.039   8.152 -0.6466  1.0570  0.6282
   70MOL0     N 9366   7.342   6.240   8.042 -0.3829 -0.1195 -0.0684
   70MOL0     N 9367   7.234   6.297   7.994 -0.2717 -0.7289  0.8029
   70MOL0     C 9368   7.987   6.880   7.354  0.7893  0.4261  0.6057
   70MOL0     C 9369   8.080   6.874   7.251  0.5415  0.1414  0.4292
   70MOL0     C 9370   8.262   6.716   6.890 -0.7039 -0.0359  0.2683
   70MOL0     C 9371   8.301   6.585   6.863  0.1663  0.2979  0.1814
   70MOL0     C 9372   8.370   6.544   6.747 -0.8006  0.5648 -0.4774
   70MOL0     C 9373   8.386   6.641   6.644 -0.2180 -0.6679  0.3011
   70MOL0     O 9374   8.445   6.591   6.529  0.0493 -0.5791 -0.8074
   70MOL0     C 9375   8.499   6.696   6.442  0.4088  0.8816  0.0481
   70MOL0     C 9376   8.599   6.623   6.347  0.5277  0.0608  0.1973
   70MOL0     C 9377   8.729   6.565   6.405 -0.1027  0.3612 -1.0462
   70MOL0     C 9378   8.711   6.440   6.494 -0.0929 -1.3998 -0.1364
   70MOL0     C 9379   8.654   6.330   6.416  0.3621  0.4627 -0.8402
   70MOL0     C 9380   8.598   6.231   6.376  0.2652  0.2664  0.1648
   70MOL0     C 9381   8.332   6.763   6.659  0.2737 -0.2049  0.1200
   70MOL0     C 9382   8.279   6.799   6.784  0.6802 -0.3002 -0.0795
   70MOL0     H 9383   7.877   6.931   6.993  0.8455 -1.9730 -1.2044
   70MOL0     H 9384   7.710   6.956   7.172 -0.9906  0.5750  3.0694
   70MOL0     H 9385   7.633   7.047   7.370  0.6955 -0.3295 -0.0644
   70MOL0     H 9386   7.582   6.899   7.352  1.5988  2.3817 -2.2100
   70MOL0     H 9387   7.594   7.036   7.626 -2.1150 -0.5234  2.5770
   70MOL0     H 9388   7.453   6.999   7.530  1.5779  1.6059 -1.4518
   70MOL0     H 9389   7.551   6.745   7.551  1.1305  0.6395 -0.2239
   70MOL0     H 9390   7.599   6.821   7.708 -1.0941  4.5471  0.6847
   70MOL0     H 9391   7.361   6.908   7.725  0.9592 -0.7124  0.7305
   70MOL0     H 9392   7.310   6.837   7.583 -0.9462  0.5728  0.9072
   70MOL0     H 9393   7.319   6.618   7.661  0.7690 -0.7982  0.5146
   70MOL0     H 9394   7.400   6.651   7.817 -0.4503 -2.0103 -0.5223
   70MOL0     H 9395   7.199   6.782   7.882 -0.7108 -0.6251 -0.4343
   70MOL0     H 9396   7.123   6.764   7.722  0.3894  0.1756 -0.5832
   70MOL0     H 9397   7.015   6.599   7.846  0.1066  2.3034  0.8221
   70MOL0     H 9398   7.132   6.508   7.768 -3.6769 -0.1261 -0.4932
   70MOL0     H 9399   7.061   6.504   8.022  0.1552 -0.4575  0.4505
   70MOL0     H 9400   7.192   6.621   8.050 -1.0379  0.9107 -0.3997
   70MOL0     H 9401   7.432   6.553   8.042 -1.8977  1.7339 -0.0096
   70MOL0     H 9402   7.610   6.235   8.060 -2.4730 -1.1953 -1.2980
   70MOL0     H 9403   7.626   6.410   8.063 -1.7376 -0.9516 -1.9794
   70MOL0     H 9404   7.519   6.247   8.297 -0.3487 -0.3071 -2.2722
   70MOL0     H 9405   7.545   6.419   8.299 -2.1163 -0.5902 -0.6740
   70MOL0     H 9406   7.729   6.329   8.428  0.3392  1.7399  0.3095
   70MOL0     H 9407   7.781   6.400   8.276 -0.2014  1.3870  2.2642
   70MOL0     H 9408   7.828   6.213   8.164 -0.3653  1.0980  0.2193
   70MOL0     H 9409   7.763   6.100   8.284 -0.5167 -0.4587 -1.2319
   70MOL0     H 9410   8.124   6.052   8.471  0.8555 -0.3532  0.7807
   70MOL0     H 9411   8.393   5.843   8.385 -0.1988 -2.3204 -0.0095
   70MOL0     H 9412   8.305   5.909   8.515 -5.0534 -1.1255  2.4050
   70MOL0     H 9413   8.267   5.748   8.452  0.8820  0.3976 -1.3436
   70MOL0     H 9414   8.503   5.547   8.185  0.5606 -1.5426  0.2063
   70MOL0     H 9415   8.595   5.340   8.103 -0.1817 -0.3611 -0.8963
   70MOL0     H 9416   8.342   5.056   7.913 -1.7893  1.8670 -0.1942
   70MOL0     H 9417   8.383   5.132   7.761 -1.7278 -2.3661  0.1010
   70MOL0     H 9418   8.506   4.930   7.706  1.6398  0.5627  0.0590
   70MOL0     H 9419   8.631   5.026   7.784  0.7379 -1.5087 -0.9280
   70MOL0     H 9420   8.457   4.815   7.887  0.7772 -2.0900 -3.2983
   70MOL0     H 9421   8.542   4.934   7.998  1.0896 -0.0641  0.0832
   70MOL0     H 9422   8.757   4.848   7.940 -0.7922  1.2411 -1.6865
   70MOL0     H 9423   8.652   4.713   7.971 -2.0916 -0.8345 -0.3693
   70MOL0     H 9424   8.751   4.815   7.689 -1.4010  1.4571  1.0271
   70MOL0     H 9425   8.627   4.698   7.691 -0.2559 -2.3187 -1.2071
   70MOL0     H 9426   8.879   4.666   7.845 -2.1180  2.8602  0.8319
   70MOL0     H 9427   8.748   4.540   7.829  0.3888 -0.4179 -0.1610
   70MOL0     H 9428   8.955   4.643   7.610  1.3469 -0.1342  2.3631
   70MOL0     H 9429   8.830   4.517   7.586  0.7536 -0.3495  0.7329
   70MOL0     H 9430   9.078   4.490   7.772 -0.7563  1.2588 -0.6281
   70MOL0     H 9431   9.049   4.422   7.606 -0.3049  1.4793 -1.6002
   70MOL0     H 9432   8.239   5.290   7.859 -0.9260 -0.4954  1.0021
   70MOL0     H 9433   8.160   5.511   7.958  0.2687  1.5360 -0.5467
   70MOL0     H 9434   8.091   5.900   8.000  2.4646 -0.8580 -0.0745
   70MOL0     H 9435   7.961   6.077   8.074 -0.0498 -0.4953 -0.7101
   70MOL0     H 9436   8.021   6.875   7.457  0.6717  0.8666  0.6723
   70MOL0     H 9437   8.184   6.859   7.275  0.4909 -0.1953  0.4340
   70MOL0     H 9438   8.295   6.512   6.943 -1.1969  2.1110  1.8284
   70MOL0     H 9439   8.400   6.440   6.739 -1.2477 -0.0212  3.4973
   70MOL0     H 9440   8.418   6.744   6.387 -0.9386  0.8577  1.8856
   70MOL0     H 9441   8.553   6.775   6.497 -0.2610 -0.0722  2.1961
   70MOL0     H 9442   8.623   6.691   6.265  0.6123  0.2385  0.3670
   70MOL0     H 9443   8.538   6.543   6.303 -2.1209  1.3101  1.3555
   70MOL0     H 9444   8.771   6.644   6.469 -3.5757  0.9970  0.6955
   70MOL0     H 9445   8.796   6.548   6.320  1.5787  0.9310  0.1054
   70MOL0     H 9446   8.643   6.460   6.578 -2.2648 -1.0584 -1.8737
   70MOL0     H 9447   8.800   6.417   6.554 -1.1341 -1.5829  1.3930
   70MOL0     H 9448   8.545   6.142   6.349 -1.5897  1.7773 -1.4340
   70MOL0     H 9449   8.341   6.837   6.580  0.1067 -0.7427 -0.4100
   70MOL0     H 9450   8.240   6.897   6.808  2.0316 -0.6860  4.6594
   71MOL0     O 9451   7.285   2.554  11.051  0.4749 -0.9264  0.4069
   71MOL0     C 9452   7.279   2.645  10.957  0.5702 -0.2785 -0.5628
   71MOL0     O 9453   7.171   2.673  10.878 -0.1832  0.1021  0.1707
   71MOL0     C 9454   7.074   2.580  10.861 -0.9856 -0.0939 -0.2099
   71MOL0     C 9455   6.935   2.602  10.884 -0.0734 -0.0317 -0.0647
   71MOL0     C 9456   6.843   2.498  10.851 -0.3098 -0.7610 -0.7502
   71MOL0     C 9457   6.888   2.375  10.812 -0.3802  0.0616  0.9066
   71MOL0     O 9458   6.793   2.273  10.807  0.5983 -0.2803 -0.4672
   71MOL0     C 9459   6.818   2.160  10.722  0.0743 -0.0663 -0.4682
   71MOL0     C 9460   6.704   2.067  10.710 -0.0906 -0.0980  0.7914
   71MOL0     C 9461   6.724   1.956  10.606  0.5192 -0.0439  0.5868
   71MOL0     C 9462   6.591   1.900  10.566  0.4233 -0.3309 -0.1445
   71MOL0     C 9463   6.581   1.792  10.465 -0.5662  0.5559  0.9007
   71MOL0     C 9464   6.574   1.849  10.319 -0.5075  0.9114 -1.1336
   71MOL0     C 9465   6.561   1.743  10.215 -0.8645  0.3464  0.7004
   71MOL0     C 9466   6.678   1.646  10.215 -0.2073  0.1694  0.6422
   71MOL0     N 9467   6.666   1.540  10.119 -0.2639 -0.7409  0.3838
   71MOL0     C 9468   6.618   1.554   9.991 -0.9983  0.4954  0.9258
   71MOL0     C 9469   6.603   1.430   9.941  0.1125 -0.6304  0.6315
   71MOL0     C 9470   6.540   1.402   9.806  0.1501  0.6919 -0.0376
   71MOL0     C 9471   6.642   1.332   9.701  0.0318 -0.4375 -0.4429
   71MOL0     C 9472   6.692   1.187   9.739 -1.0320 -0.8455 -0.6049
   71MOL0     C 9473   6.635   1.071   9.657  0.2533  0.4202 -0.2559
   71MOL0     O 9474   6.495   1.094   9.649 -0.3376 -1.4633  0.1523
   71MOL0     C 9475   6.413   1.074   9.533  0.1431 -0.1628 -0.4462
   71MOL0     C 9476   6.298   1.144   9.536  0.1998  0.0205 -0.3859
   71MOL0     C 9477   6.213   1.189   9.429 -0.4715 -0.3159  0.3574
   71MOL0     C 9478   6.093   1.275   9.455 -0.4648 -0.0452  0.6018
   71MOL0     C 9479   6.258   1.147   9.306  0.0898 -0.3488  0.5943
   71MOL0     C 9480   6.196   1.189   9.172 -0.2752 -0.6546 -0.1845
   71MOL0     O 9481   6.249   1.139   9.052  0.0045  0.2004 -0.0702
   71MOL0     C 9482   6.204   1.210   8.942  0.7628 -0.1847 -0.5275
   71MOL0     C 9483   6.129   1.147   8.845  0.3383 -0.5014 -0.9846
   71MOL0     C 9484   6.086   1.218   8.730  0.3325  0.8288 -0.8784
   71MOL0     C 9485   6.116   1.349   8.705 -0.1795 -0.0540  0.7600
   71MOL0     O 9486   6.059   1.421   8.601 -0.4742  0.4957 -0.2647
   71MOL0     C 9487   6.006   1.360   8.489 -0.0571 -0.7311 -0.2285
   71MOL0     C 9488   5.986   1.463   8.380  0.3891  0.0990 -0.6877
   71MOL0     C 9489   5.877   1.415   8.279 -0.1773 -0.7349 -0.5577
   71MOL0     C 9490   5.836   1.542   8.197  0.2494 -0.3576 -0.0695
   71MOL0     C 9491   5.766   1.498   8.066  0.0613 -0.7178 -0.3715
   71MOL0     C 9492   5.861   1.426   7.972 -0.0012  0.8042  0.5753
   71MOL0     C 9493   5.802   1.424   7.830  0.2063  0.4198 -0.0447
   71MOL0     C 9494   5.889   1.336   7.749  0.3336 -0.3378 -0.1944
   71MOL0    Cl 9495   5.918   1.399   7.589  0.0939 -0.0200 -0.1309
   71MOL0     C 9496   6.198   1.409   8.801 -0.0670  0.6109  0.4732
   71MOL0     C 9497   6.243   1.337   8.904  0.0162 -0.2442 -0.0937
   71MOL0     O 9498   6.105   1.271   9.184 -0.1884 -0.2931  0.2616
   71MOL0     C 9499   6.378   1.072   9.299  0.6367  0.1369  0.6305
   71MOL0     C 9500   6.460   1.028   9.407  1.0715 -0.9032 -0.1194
   71MOL0     N 9501   6.644   1.334  10.034  0.0682 -0.6023 -0.4408
   71MOL0     N 9502   6.688   1.402  10.139  0.3823  0.0341  0.5139
   71MOL0     C 9503   7.024   2.362  10.784  0.1336  0.2177  0.2727
   71MOL0     C 9504   7.115   2.459  10.813  0.3293  0.5331  0.5311
   71MOL0     C 9505   7.399   2.728  10.913 -0.7297  0.1794 -0.3707
   71MOL0     C 9506   7.423   2.766  10.778 -0.7535 -0.4629 -0.3316
   71MOL0     C 9507   7.537   2.827  10.734  0.2976 -0.0369 -0.9051
   71MOL0     C 9508   7.627   2.869  10.831 -0.2335  0.1065 -0.6331
   71MOL0     O 9509   7.756   2.923  10.805  0.0209 -0.2951  0.1555
   71MOL0     C 9510   7.829   2.860  10.710  0.3700  0.3419  0.2651
   71MOL0     C 9511   7.867   2.977  10.611  0.1945  0.9730  0.3070
   71MOL0     C 9512   7.969   2.923  10.509 -0.3741  0.0559  0.0246
   71MOL0     C 9513   8.020   3.039  10.425 -0.2096 -0.0127  0.4211
   71MOL0     C 9514   7.908   3.104  10.342  0.1758 -0.7014 -0.2556
   71MOL0     C 9515   7.840   3.186  10.281  0.2466 -0.5377 -0.4192
   71MOL0     C 9516   7.607   2.839  10.972  0.3170  1.3350 -0.3750
   71MOL0     C 9517   7.499   2.764  11.012  0.5638  0.5761  0.7893
   71MOL0     H 9518   6.903   2.694  10.931 -3.1078 -1.8708  1.8397
   71MOL0     H 9519   6.738   2.510  10.875 -0.3059 -1.3693 -0.4078
   71MOL0     H 9520   6.853   2.198  10.626 -1.7739  3.1951  0.0040
   71MOL0     H 9521   6.902   2.108  10.771  0.5577  0.4326 -0.7580
   71MOL0     H 9522   6.689   2.038  10.814  1.0457  0.1643  1.0430
   71MOL0     H 9523   6.620   2.122  10.666  2.1937  1.8518 -1.4456
   71MOL0     H 9524   6.750   2.006  10.512 -0.5804 -1.1591 -0.3430
   71MOL0     H 9525   6.795   1.882  10.643  0.5525 -1.0300 -1.3307
   71MOL0     H 9526   6.546   1.863  10.659 -2.6749  1.1144 -0.9318
   71MOL0     H 9527   6.524   1.980  10.534 -1.3394 -1.0205  1.5914
   71MOL0     H 9528   6.665   1.724  10.481 -1.5494 -0.2999  2.7988
   71MOL0     H 9529   6.489   1.736  10.485 -0.2764  0.4669  2.0274
   71MOL0     H 9530   6.486   1.908  10.293 -2.0591 -2.6110 -5.0699
   71MOL0     H 9531   6.665   1.909  10.304  1.1302 -0.8098  1.2127
   71MOL0     H 9532   6.471   1.692  10.253  0.6385  0.5411  5.1065
   71MOL0     H 9533   6.546   1.798  10.122 -1.5773  1.9743  1.7152
   71MOL0     H 9534   6.672   1.596  10.312 -1.5236 -1.5243 -0.2679
   71MOL0     H 9535   6.776   1.688  10.187  2.0832 -3.8797  1.7457
   71MOL0     H 9536   6.596   1.650   9.946 -0.6854  1.0550  1.9434
   71MOL0     H 9537   6.456   1.333   9.817  0.5308  0.2454  0.1337
   71MOL0     H 9538   6.505   1.491   9.755  1.3267  1.3141  0.2008
   71MOL0     H 9539   6.730   1.395   9.687 -0.0732  0.1897  1.4148
   71MOL0     H 9540   6.595   1.324   9.603  0.0893 -2.2807 -0.3582
   71MOL0     H 9541   6.665   1.169   9.844 -1.0614 -3.0506 -0.9491
   71MOL0     H 9542   6.801   1.194   9.737 -1.1171  0.7909 -1.3041
   71MOL0     H 9543   6.661   0.976   9.703 -3.1060  0.1619  1.4196
   71MOL0     H 9544   6.679   1.077   9.557 -1.1786 -0.5242 -0.9788
   71MOL0     H 9545   6.261   1.157   9.638 -2.6767 -3.4312 -0.7722
   71MOL0     H 9546   6.115   1.376   9.420 -2.6993 -0.0383 -0.9683
   71MOL0     H 9547   6.000   1.241   9.408  0.1222  1.8362 -2.1931
   71MOL0     H 9548   6.070   1.296   9.560 -2.3857  2.5573 -0.2382
   71MOL0     H 9549   6.125   1.038   8.846 -1.3244 -0.4679 -0.7969
   71MOL0     H 9550   6.015   1.164   8.667 -1.6629  3.5414 -1.1361
   71MOL0     H 9551   6.084   1.290   8.457  0.9292  0.7931 -1.3077
   71MOL0     H 9552   5.913   1.308   8.512 -0.3049  0.1137  0.7283
   71MOL0     H 9553   5.944   1.552   8.427 -2.9102 -3.8700  5.0828
   71MOL0     H 9554   6.084   1.479   8.334  1.0310  1.6346  1.1000
   71MOL0     H 9555   5.791   1.373   8.333  0.4979  1.3326  2.3681
   71MOL0     H 9556   5.927   1.343   8.214  2.4378  0.6676 -0.2296
   71MOL0     H 9557   5.773   1.610   8.256  1.6395  0.9985 -0.0596
   71MOL0     H 9558   5.925   1.604   8.178 -1.3355  1.2970 -2.7694
   71MOL0     H 9559   5.743   1.593   8.017  4.4734 -1.0996 -3.8139
   71MOL0     H 9560   5.673   1.443   8.081 -0.5969  0.4061 -0.2828
   71MOL0     H 9561   5.963   1.463   7.980 -0.1276  1.2250  0.3150
   71MOL0     H 9562   5.867   1.324   8.011  0.2651  0.1442 -1.1405
   71MOL0     H 9563   5.810   1.528   7.799 -2.3547  1.3393  2.0251
   71MOL0     H 9564   5.699   1.388   7.829 -0.1276  1.3593  0.2632
   71MOL0     H 9565   5.838   1.240   7.752  0.0889 -0.3074 -2.1614
   71MOL0     H 9566   5.983   1.307   7.798  1.2606 -0.1292 -1.7622
   71MOL0     H 9567   6.222   1.512   8.779  3.3816 -0.4363 -1.5178
   71MOL0     H 9568   6.313   1.385   8.972 -0.3044 -0.2804  0.2679
   71MOL0     H 9569   6.408   1.052   9.197 -3.1972 -0.2650 -0.5457
   71MOL0     H 9570   6.556   0.979   9.398  1.8280 -0.0840  2.6095
   71MOL0     H 9571   7.059   2.272  10.734  1.5117  0.7217  0.2888
   71MOL0     H 9572   7.215   2.447  10.772 -0.7144  0.0424 -2.0622
   71MOL0     H 9573   7.347   2.728  10.711 -1.2812  1.1611 -0.6991
   71MOL0     H 9574   7.561   2.824  10.629  1.5259 -2.2949 -0.6307
   71MOL0     H 9575   7.919   2.817  10.756 -1.1451 -2.6699  0.6536
   71MOL0     H 9576   7.775   2.779  10.659  0.8520 -0.7917  1.5035
   71MOL0     H 9577   7.902   3.066  10.664  1.2490 -0.3548  1.9323
   71MOL0     H 9578   7.780   3.000  10.549  1.3383 -0.0067 -1.7472
   71MOL0     H 9579   7.914   2.855  10.443 -0.0078  0.1564 -0.3894
   71MOL0     H 9580   8.050   2.868  10.558  0.1141  0.6398 -0.1216
   71MOL0     H 9581   8.104   2.997  10.370 -0.2856 -2.3946  1.9883
   71MOL0     H 9582   8.068   3.124  10.475  1.4963  0.2188 -1.4565
   71MOL0     H 9583   7.787   3.264  10.230  0.3417 -0.3751 -0.2703
   71MOL0     H 9584   7.683   2.861  11.046  0.3975 -2.1930  0.7898
   71MOL0     H 9585   7.496   2.717  11.110 -1.5791  1.8131  1.3827
   72MOL0     O 9586   1.882   0.304   2.436 -0.2644  0.4310  0.7374
   72MOL0     C 9587   1.987   0.241   2.454 -0.9798  0.3915 -0.3711
   72MOL0     O 9588   2.065   0.244   2.563 -0.1774 -0.3112 -0.6447
   72MOL0     C 9589   2.019   0.302   2.683  0.4884  0.9720  0.0954
   72MOL0     C 9590   1.982   0.436   2.696 -0.1886  0.2573  0.4046
   72MOL0     C 9591   1.933   0.483   2.817  0.7029  0.7093 -0.7695
   72MOL0     C 9592   1.916   0.398   2.930 -0.2379 -0.0215 -0.1611
   72MOL0     O 9593   1.876   0.440   3.057 -0.5958  0.1641 -0.0642
   72MOL0     C 9594   1.802   0.562   3.083  0.6545 -1.1109  0.5816
   72MOL0     C 9595   1.728   0.556   3.219 -0.2778 -0.2094 -1.2870
   72MOL0     C 9596   1.806   0.516   3.344  0.7905  0.1745  0.1603
   72MOL0     C 9597   1.959   0.556   3.341 -0.1126  0.4719 -0.7578
   72MOL0     C 9598   2.016   0.530   3.475 -0.8127 -0.5720  0.4093
   72MOL0     C 9599   2.157   0.593   3.474  0.5509 -1.4310  0.4847
   72MOL0     C 9600   2.236   0.561   3.593 -0.0212  0.3104 -0.3093
   72MOL0     C 9601   2.194   0.621   3.724 -0.1663 -0.0543 -0.5550
   72MOL0     N 9602   2.302   0.610   3.827 -0.4752 -0.4582  0.4425
   72MOL0     C 9603   2.400   0.524   3.843  0.1104  0.8261 -0.3439
   72MOL0     C 9604   2.461   0.554   3.951  0.3971 -0.0654 -0.1580
   72MOL0     C 9605   2.581   0.484   4.015 -0.1212  0.3842  0.2044
   72MOL0     C 9606   2.708   0.519   3.934  0.1299  0.0066 -0.7910
   72MOL0     C 9607   2.819   0.443   4.001 -0.9858  0.6346  0.1729
   72MOL0     C 9608   2.969   0.481   3.966 -0.0450  1.2418  0.1654
   72MOL0     O 9609   3.019   0.579   4.060  0.2603  0.0692  0.4996
   72MOL0     C 9610   3.146   0.613   4.046 -1.0056 -0.8431  0.2380
   72MOL0     C 9611   3.225   0.677   4.149 -0.4924 -0.2943  0.4209
   72MOL0     C 9612   3.356   0.716   4.143  0.2462 -0.1962  1.0778
   72MOL0     C 9613   3.402   0.799   4.254 -0.8099 -0.2737 -0.0709
   72MOL0     C 9614   3.430   0.675   4.030 -0.1132  0.6698  0.4168
   72MOL0     C 9615   3.577   0.699   4.021 -0.1787 -0.6575  0.4703
   72MOL0     O 9616   3.649   0.693   4.131  0.0140 -0.3027 -1.5876
   72MOL0     C 9617   3.780   0.734   4.133  0.4027 -0.0752 -0.1349
   72MOL0     C 9618   3.880   0.664   4.206 -0.4378 -0.0582 -0.1232
   72MOL0     C 9619   4.007   0.712   4.221 -0.1927 -0.2641  1.2788
   72MOL0     C 9620   4.041   0.823   4.144  0.2024  0.3064  1.0561
   72MOL0     O 9621   4.173   0.852   4.162 -0.5009  0.3121  0.2350
   72MOL0     C 9622   4.250   0.900   4.050 -1.5655  0.4985  0.1324
   72MOL0     C 9623   4.244   0.814   3.929 -0.1834  0.0220 -0.5612
   72MOL0     C 9624   4.349   0.845   3.815  0.0447 -0.0599 -0.8367
   72MOL0     C 9625   4.382   0.742   3.712  1.0993  0.6334 -0.3114
   72MOL0     C 9626   4.498   0.784   3.632 -0.2813  0.1789  0.2357
   72MOL0     C 9627   4.500   0.696   3.499  0.7558 -0.7436 -0.9749
   72MOL0     C 9628   4.615   0.739   3.414 -0.1493  0.0062 -0.1056
   72MOL0     C 9629   4.586   0.705   3.265  1.3979  1.2169  0.5501
   72MOL0    Cl 9630   4.556   0.523   3.265  0.3417  0.0072 -0.5381
   72MOL0     C 9631   3.952   0.889   4.058  0.3633 -0.1242 -0.4840
   72MOL0     C 9632   3.822   0.848   4.062  0.3032 -0.1721 -0.6873
   72MOL0     O 9633   3.625   0.707   3.908  0.3044 -0.1967 -0.4057
   72MOL0     C 9634   3.367   0.614   3.922  0.1116  0.6135  0.5637
   72MOL0     C 9635   3.226   0.576   3.938 -0.4695 -0.4009  0.8845
   72MOL0     N 9636   2.391   0.656   4.005 -0.0466 -0.3893 -0.0061
   72MOL0     N 9637   2.304   0.696   3.931 -0.5295 -0.2274 -0.1528
   72MOL0     C 9638   1.941   0.261   2.915 -0.2259  0.5363 -0.1489
   72MOL0     C 9639   1.995   0.214   2.793  0.7866 -0.4096 -0.3012
   72MOL0     C 9640   2.006   0.136   2.352 -0.1193 -0.2003 -1.0050
   72MOL0     C 9641   1.931   0.130   2.231 -0.0285  0.0388 -0.1895
   72MOL0     C 9642   1.950   0.020   2.141  0.6405 -0.0987  0.3913
   72MOL0     C 9643   2.060  -0.067   2.162  0.2916  0.5975  1.1097
   72MOL0     O 9644   2.106  -0.154   2.069  0.7520 -0.7232  0.3397
   72MOL0     C 9645   2.028  -0.193   1.955  0.2264  0.2815 -0.0361
   72MOL0     C 9646   2.115  -0.191   1.830 -0.6274 -0.0834  0.9900
   72MOL0     C 9647   2.201  -0.322   1.808 -0.3824  0.1984 -0.8510
   72MOL0     C 9648   2.336  -0.325   1.873  0.2201 -0.6014  0.4589
   72MOL0     C 9649   2.436  -0.241   1.798  0.4615  0.3933  0.4147
   72MOL0     C 9650   2.524  -0.186   1.738  0.6387  0.7988  0.8459
   72MOL0     C 9651   2.129  -0.065   2.277 -0.3133  0.2614 -0.4422
   72MOL0     C 9652   2.104   0.034   2.372 -0.6277 -0.7375 -0.1010
   72MOL0     H 9653   1.997   0.517   2.625  3.3393 -0.7572 -0.2141
   72MOL0     H 9654   1.933   0.590   2.831  1.7345  0.5371  0.8414
   72MOL0     H 9655   1.859   0.655   3.089 -0.5549 -0.3274  0.1548
   72MOL0     H 9656   1.730   0.590   3.006 -3.1375  1.3733  4.5974
   72MOL0     H 9657   1.686   0.657   3.228  3.4225  1.7341 -3.2871
   72MOL0     H 9658   1.645   0.485   3.211 -0.8111  0.2261  0.0825
   72MOL0     H 9659   1.769   0.562   3.436 -0.9438 -0.0820 -0.3722
   72MOL0     H 9660   1.810   0.407   3.351  0.0669  0.1602  0.4188
   72MOL0     H 9661   2.011   0.491   3.271  0.6014 -3.4670  3.0012
   72MOL0     H 9662   1.980   0.661   3.321  0.5024  0.0480 -2.4711
   72MOL0     H 9663   1.962   0.582   3.555 -1.2600 -1.1695  0.5014
   72MOL0     H 9664   2.017   0.424   3.503 -1.1288 -1.4201 -2.4606
   72MOL0     H 9665   2.220   0.561   3.391  1.7367  0.6063  0.5401
   72MOL0     H 9666   2.144   0.701   3.473  0.4240 -1.4507 -0.2984
   72MOL0     H 9667   2.231   0.452   3.600 -1.9629  0.3191 -0.9952
   72MOL0     H 9668   2.340   0.588   3.570  0.2239 -1.7530 -1.9595
   72MOL0     H 9669   2.099   0.580   3.759 -2.3013  1.2094 -4.3152
   72MOL0     H 9670   2.164   0.726   3.720 -0.3141 -0.0272  0.8256
   72MOL0     H 9671   2.407   0.435   3.782 -3.8735 -0.2722  0.5326
   72MOL0     H 9672   2.598   0.510   4.120  1.3730 -1.2161  0.4007
   72MOL0     H 9673   2.561   0.378   4.034 -0.0474  0.5962  1.6155
   72MOL0     H 9674   2.728   0.624   3.956 -0.4449 -0.3512  1.8160
   72MOL0     H 9675   2.710   0.495   3.827 -1.4704 -1.4322 -0.5455
   72MOL0     H 9676   2.816   0.339   3.968  0.2465  0.5434  0.2857
   72MOL0     H 9677   2.810   0.458   4.109  1.5500  0.8539  0.4104
   72MOL0     H 9678   2.986   0.509   3.862  1.1427  0.1856  0.0443
   72MOL0     H 9679   3.033   0.394   3.983  2.1017  2.8714  0.7635
   72MOL0     H 9680   3.175   0.703   4.242 -0.8674 -2.0992  0.7737
   72MOL0     H 9681   3.319   0.841   4.312  0.3872  3.3165 -0.7196
   72MOL0     H 9682   3.476   0.752   4.320 -0.9542  3.7528  3.4117
   72MOL0     H 9683   3.460   0.875   4.200 -0.6330 -0.2550  0.1426
   72MOL0     H 9684   3.839   0.588   4.272 -0.4319 -0.9460 -1.1047
   72MOL0     H 9685   4.088   0.670   4.279  2.5456  4.7837  1.6751
   72MOL0     H 9686   4.207   0.997   4.025  1.9417  1.7687 -1.5743
   72MOL0     H 9687   4.356   0.910   4.076 -0.1583 -4.4949 -2.3825
   72MOL0     H 9688   4.260   0.710   3.960  1.4404  1.1451  2.9147
   72MOL0     H 9689   4.144   0.829   3.890 -0.4162 -2.8141 -1.2750
   72MOL0     H 9690   4.448   0.874   3.853  2.5103 -2.2189 -4.8996
   72MOL0     H 9691   4.311   0.926   3.753 -0.6630 -0.8075 -1.3886
   72MOL0     H 9692   4.411   0.648   3.760  0.5256 -1.5365 -3.8770
   72MOL0     H 9693   4.291   0.726   3.655  0.8456  2.8301 -0.6052
   72MOL0     H 9694   4.590   0.759   3.685 -1.0994  0.6849  1.9433
   72MOL0     H 9695   4.479   0.889   3.606 -2.9741 -0.7893 -2.3695
   72MOL0     H 9696   4.507   0.589   3.524 -1.1394 -1.0238 -1.5106
   72MOL0     H 9697   4.411   0.712   3.438  0.2193 -0.5539 -0.1611
   72MOL0     H 9698   4.709   0.687   3.435  0.3819  0.2780 -1.6604
   72MOL0     H 9699   4.626   0.847   3.432 -1.6060 -0.1002  1.7150
   72MOL0     H 9700   4.671   0.731   3.201  2.1969  0.1262  1.1409
   72MOL0     H 9701   4.511   0.763   3.210  1.7463  0.5300 -0.6944
   72MOL0     H 9702   3.983   0.969   3.992 -2.7364  1.5017 -0.1507
   72MOL0     H 9703   3.751   0.904   4.001 -0.6434 -4.4046 -3.9649
   72MOL0     H 9704   3.428   0.595   3.834 -1.8636 -2.0515 -0.3908
   72MOL0     H 9705   3.197   0.534   3.842  3.3069 -0.4270 -0.4193
   72MOL0     H 9706   1.929   0.201   3.005  0.7785  0.3663 -0.1243
   72MOL0     H 9707   2.012   0.109   2.774 -0.2106 -1.2294  2.8039
   72MOL0     H 9708   1.862   0.212   2.213  1.1797  0.7384 -1.8957
   72MOL0     H 9709   1.889   0.027   2.052 -1.7552 -5.7352  1.1360
   72MOL0     H 9710   1.992  -0.295   1.972  1.2603  0.2033  2.0255
   72MOL0     H 9711   1.943  -0.125   1.954  0.2973  0.5765  3.2160
   72MOL0     H 9712   2.174  -0.099   1.839  0.0204 -0.3703 -0.0970
   72MOL0     H 9713   2.057  -0.167   1.740 -1.6062 -0.3942  1.5315
   72MOL0     H 9714   2.210  -0.338   1.700  0.6812  0.6009 -0.8346
   72MOL0     H 9715   2.141  -0.409   1.834  1.1284 -0.6644 -0.1302
   72MOL0     H 9716   2.384  -0.423   1.875 -1.0354 -1.2658 -0.5661
   72MOL0     H 9717   2.321  -0.276   1.969 -0.0360 -1.4752  0.8684
   72MOL0     H 9718   2.602  -0.129   1.691  2.5517 -1.7064  0.8307
   72MOL0     H 9719   2.217  -0.127   2.293  0.8949  2.1871  0.6650
   72MOL0     H 9720   2.157   0.028   2.466 -1.4578  0.2662  0.4575
   73MOL0     O 9721  10.660   7.892   3.820  0.6628  0.0954 -0.2072
   73MOL0     C 9722  10.775   7.856   3.849 -0.7246 -0.3237 -0.1364
   73MOL0     O 9723  10.887   7.871   3.761  0.4733  0.7476 -0.2261
   73MOL0     C 9724  10.860   7.867   3.627 -0.4051  0.2059 -0.1707
   73MOL0     C 9725  10.865   7.986   3.548  0.7694 -0.7679  0.3763
   73MOL0     C 9726  10.854   7.988   3.407  0.1467 -0.7657 -1.0986
   73MOL0     C 9727  10.812   7.869   3.343 -0.0241 -0.5369 -0.1476
   73MOL0     O 9728  10.823   7.865   3.211  0.1213 -0.1561  0.5501
   73MOL0     C 9729  10.964   7.848   3.157 -0.2309 -0.1737 -0.1715
   73MOL0     C 9730  11.028   7.969   3.100 -0.6938  0.3179  0.0117
   73MOL0     C 9731  11.172   7.942   3.063  0.1386  0.7333 -0.8592
   73MOL0     C 9732  11.255   7.933   3.188  0.0882  0.0175  0.5256
   73MOL0     C 9733  11.409   7.957   3.153  1.1912 -0.5123 -0.1328
   73MOL0     C 9734  11.458   7.847   3.068 -0.1756  0.1144  0.3596
   73MOL0     C 9735  11.608   7.853   3.030  0.2163 -0.6093  0.0313
   73MOL0     C 9736  11.690   7.856   3.162 -0.6145  0.2235  0.0506
   73MOL0     N 9737  11.703   7.719   3.223  0.8998 -0.1059 -0.1670
   73MOL0     C 9738  11.747   7.614   3.151 -0.0549  0.1243  0.7532
   73MOL0     C 9739  11.737   7.512   3.229 -0.4028  0.3130 -0.4558
   73MOL0     C 9740  11.759   7.364   3.197 -0.1453  0.4973 -0.6009
   73MOL0     C 9741  11.895   7.358   3.127 -0.3925 -0.7198  0.0136
   73MOL0     C 9742  11.975   7.222   3.143 -0.3440 -0.1176  0.1959
   73MOL0     C 9743  12.118   7.247   3.063 -0.2290  0.3759  0.6080
   73MOL0     O 9744  12.189   7.352   3.137 -0.5781  0.1440 -0.1188
   73MOL0     C 9745  12.250   7.451   3.063  0.5745  0.1028 -0.6042
   73MOL0     C 9746  12.286   7.570   3.119 -0.1946  0.3949  0.5394
   73MOL0     C 9747  12.349   7.679   3.054 -0.1085 -0.7665  0.9928
   73MOL0     C 9748  12.375   7.807   3.134 -0.0671  0.6659 -0.0651
   73MOL0     C 9749  12.379   7.668   2.916  0.2127 -0.2023 -0.1841
   73MOL0     C 9750  12.448   7.763   2.826 -0.6545 -1.5462 -0.5252
   73MOL0     O 9751  12.471   7.729   2.693  0.8274  0.6458  0.2192
   73MOL0     C 9752  12.543   7.822   2.617  0.7702 -0.6446 -0.2930
   73MOL0     C 9753  12.654   7.901   2.660  0.2919 -0.2282 -0.5672
   73MOL0     C 9754  12.724   7.989   2.569 -0.2431  0.6333 -0.5083
   73MOL0     C 9755  12.695   7.975   2.434 -0.0042  0.3975 -0.4909
   73MOL0     O 9756  12.771   8.024   2.335 -0.6436 -0.7161  0.1343
   73MOL0     C 9757  12.907   8.063   2.356 -0.0483 -0.3582  0.3026
   73MOL0     C 9758  12.952   8.135   2.229  0.6556 -0.5216 -0.2094
   73MOL0     C 9759  12.897   8.288   2.233 -0.1331  0.5139 -0.3076
   73MOL0     C 9760  12.981   8.372   2.134 -0.3310  0.8182  0.1282
   73MOL0     C 9761  12.968   8.519   2.184  0.0333  0.2716 -0.1118
   73MOL0     C 9762  12.849   8.602   2.114 -0.4754  0.7988  0.6086
   73MOL0     C 9763  12.875   8.757   2.125  0.6763 -0.4692  0.3901
   73MOL0     C 9764  12.781   8.835   2.034 -0.5743 -0.6942  0.8791
   73MOL0    Cl 9765  12.605   8.811   2.090 -0.2433  0.0452 -0.0879
   73MOL0     C 9766  12.589   7.895   2.394  1.0773  0.2942  1.1162
   73MOL0     C 9767  12.508   7.829   2.478 -1.1291 -0.4621  0.4413
   73MOL0     O 9768  12.465   7.878   2.871 -0.2553 -0.6258 -0.1750
   73MOL0     C 9769  12.342   7.545   2.863  0.5516  0.2038  0.1694
   73MOL0     C 9770  12.276   7.439   2.930 -0.7540  0.4528 -0.3546
   73MOL0     N 9771  11.688   7.557   3.352  0.6403  0.3333 -0.4616
   73MOL0     N 9772  11.672   7.688   3.347  0.4544  1.7088  0.1772
   73MOL0     C 9773  10.794   7.749   3.424  0.0081  0.5428  0.4648
   73MOL0     C 9774  10.823   7.746   3.561  0.7144 -0.5771 -0.5497
   73MOL0     C 9775  10.818   7.841   3.988  0.6597  1.7194  0.9423
   73MOL0     C 9776  10.721   7.848   4.081 -0.0138 -0.5346  0.0639
   73MOL0     C 9777  10.754   7.820   4.211 -0.3552  0.3572 -0.6511
   73MOL0     C 9778  10.876   7.772   4.250 -0.3893 -0.1035  0.5391
   73MOL0     O 9779  10.922   7.753   4.380 -0.2554 -0.3385 -0.0674
   73MOL0     C 9780  10.861   7.802   4.505 -0.4035  0.5252 -0.7187
   73MOL0     C 9781  10.886   7.956   4.523  0.3590 -0.1147  0.4790
   73MOL0     C 9782  10.885   8.018   4.667  0.3447  0.2844 -0.1017
   73MOL0     C 9783  10.746   8.028   4.745 -0.0319 -0.3560  0.9437
   73MOL0     C 9784  10.757   8.060   4.886  0.5308  0.9716 -0.3379
   73MOL0     C 9785  10.766   8.075   5.006  0.9854  0.3749  0.0329
   73MOL0     C 9786  10.969   7.751   4.149 -0.2067 -0.5186  0.4523
   73MOL0     C 9787  10.944   7.805   4.024 -0.0316  0.8781  0.0017
   73MOL0     H 9788  10.882   8.080   3.599  1.5010 -0.9048  0.3899
   73MOL0     H 9789  10.867   8.081   3.354  0.5768  0.5667  1.2069
   73MOL0     H 9790  11.022   7.800   3.237 -2.1287  3.2000  3.6195
   73MOL0     H 9791  10.964   7.790   3.065 -0.2561  1.0611 -0.9684
   73MOL0     H 9792  10.955   8.007   3.028 -1.0559  1.1921  0.8230
   73MOL0     H 9793  11.033   8.047   3.176  2.6788  0.2043  0.0853
   73MOL0     H 9794  11.176   7.845   3.012  4.0879  0.8461 -1.0700
   73MOL0     H 9795  11.216   8.014   2.994  3.4298 -1.1185 -0.8999
   73MOL0     H 9796  11.228   8.012   3.259 -0.5651  1.8466 -1.6202
   73MOL0     H 9797  11.248   7.834   3.235  0.5401 -0.3666 -0.2000
   73MOL0     H 9798  11.429   8.057   3.113 -0.1657 -0.9098 -1.9377
   73MOL0     H 9799  11.454   7.957   3.253  0.9403  0.1779 -0.0154
   73MOL0     H 9800  11.439   7.751   3.117 -1.8229 -0.7039 -1.7051
   73MOL0     H 9801  11.406   7.842   2.972  1.0632 -1.6442 -0.2515
   73MOL0     H 9802  11.616   7.766   2.963 -5.1090 -1.4005  0.0002
   73MOL0     H 9803  11.626   7.945   2.974  3.1297  0.4924  2.5014
   73MOL0     H 9804  11.666   7.934   3.235  1.6324  1.2702 -0.2184
   73MOL0     H 9805  11.791   7.885   3.128  0.4348 -1.3032  1.6959
   73MOL0     H 9806  11.788   7.607   3.050  1.0026  0.7210  1.1266
   73MOL0     H 9807  11.763   7.316   3.295 -0.8979  0.1146 -0.7488
   73MOL0     H 9808  11.675   7.333   3.134 -1.1611  2.9662 -0.5403
   73MOL0     H 9809  11.956   7.446   3.149 -1.7732 -0.0490  1.2927
   73MOL0     H 9810  11.875   7.368   3.020  1.4520 -0.2816 -0.3366
   73MOL0     H 9811  11.923   7.131   3.113 -1.2475 -0.5438  2.8441
   73MOL0     H 9812  11.984   7.206   3.250  0.7886 -1.7899 -0.1079
   73MOL0     H 9813  12.102   7.276   2.959  2.9187 -0.9425 -0.3709
   73MOL0     H 9814  12.171   7.152   3.053  2.6350  1.7083  1.7845
   73MOL0     H 9815  12.247   7.581   3.220 -1.7308 -3.0697  0.4766
   73MOL0     H 9816  12.352   7.789   3.239 -0.7800 -0.0735 -0.3375
   73MOL0     H 9817  12.478   7.843   3.122  1.1004 -2.1462  0.8883
   73MOL0     H 9818  12.301   7.883   3.106  1.1566  2.8963  2.3416
   73MOL0     H 9819  12.683   7.892   2.764  1.1898  0.8604 -0.7109
   73MOL0     H 9820  12.800   8.054   2.612 -0.9722  0.2536  1.4307
   73MOL0     H 9821  12.926   8.134   2.436  1.0517  0.7870 -0.9335
   73MOL0     H 9822  12.964   7.969   2.364 -2.8511 -2.3363 -1.1521
   73MOL0     H 9823  13.061   8.140   2.230  0.6416  3.7197  0.9729
   73MOL0     H 9824  12.919   8.085   2.137 -0.0400  3.4187 -2.3239
   73MOL0     H 9825  12.916   8.328   2.333  0.7247 -0.1856 -0.1733
   73MOL0     H 9826  12.794   8.297   2.197  0.4708 -1.1220 -2.6675
   73MOL0     H 9827  13.088   8.349   2.130 -0.7723 -1.5401 -4.0479
   73MOL0     H 9828  12.934   8.352   2.037 -3.9595  2.3163  1.3807
   73MOL0     H 9829  13.062   8.573   2.173  0.2923 -0.1699 -0.0767
   73MOL0     H 9830  12.965   8.520   2.293  0.6938 -2.7716  0.0368
   73MOL0     H 9831  12.831   8.578   2.009  1.7439 -0.7285  0.5166
   73MOL0     H 9832  12.752   8.575   2.157  0.6731 -1.2300  2.1057
   73MOL0     H 9833  12.977   8.791   2.101  1.8714 -3.9854 -0.0983
   73MOL0     H 9834  12.870   8.783   2.231  0.0984 -2.0236  0.7588
   73MOL0     H 9835  12.800   8.802   1.932  0.1772  2.1926  0.0090
   73MOL0     H 9836  12.805   8.941   2.039  1.5301 -0.9953 -1.0705
   73MOL0     H 9837  12.555   7.897   2.291 -0.7374 -1.3564  1.6401
   73MOL0     H 9838  12.426   7.764   2.448 -1.3822 -0.0409  0.2184
   73MOL0     H 9839  12.364   7.517   2.760 -1.9033 -3.1892  0.3970
   73MOL0     H 9840  12.249   7.357   2.865 -0.2818 -0.2802  0.3509
   73MOL0     H 9841  10.780   7.658   3.367 -0.6322  1.4588 -0.8732
   73MOL0     H 9842  10.810   7.652   3.615  1.5021  0.4641  1.5481
   73MOL0     H 9843  10.619   7.886   4.077  0.0153 -0.3753  0.7325
   73MOL0     H 9844  10.676   7.831   4.286 -2.3344  1.9196 -2.7911
   73MOL0     H 9845  10.757   7.770   4.511  0.2748 -2.0262 -1.3033
   73MOL0     H 9846  10.909   7.751   4.589  1.1764  2.0592 -0.6288
   73MOL0     H 9847  10.811   8.003   4.459  1.1928 -1.6321 -1.7527
   73MOL0     H 9848  10.983   7.971   4.475 -1.0485 -1.5802 -3.1459
   73MOL0     H 9849  10.927   8.117   4.683 -0.1381  0.0671  2.9682
   73MOL0     H 9850  10.936   7.947   4.733 -1.4110 -0.3518  0.6343
   73MOL0     H 9851  10.702   7.928   4.737  1.3821 -0.8533 -3.0906
   73MOL0     H 9852  10.675   8.095   4.695  0.8187 -2.4760 -3.6394
   73MOL0     H 9853  10.768   8.113   5.106 -0.3095  2.6154 -0.7035
   73MOL0     H 9854  11.067   7.709   4.170  1.3349  1.6550 -1.8427
   73MOL0     H 9855  11.020   7.797   3.946 -1.1871 -0.3330 -1.0611
   74MOL0     O 9856   4.230   1.778   7.591  0.3608  1.2162 -0.0427
   74MOL0     C 9857   4.207   1.810   7.710  0.6963 -0.0716  0.5038
   74MOL0     O 9858   4.293   1.874   7.789  0.4262 -0.4946  0.2389
   74MOL0     C 9859   4.384   1.960   7.733  0.7401 -0.1506 -0.4209
   74MOL0     C 9860   4.380   2.017   7.603  0.5094 -0.3728 -0.4713
   74MOL0     C 9861   4.481   2.101   7.563 -0.0417  0.2674 -0.2973
   74MOL0     C 9862   4.578   2.152   7.656  0.0657 -0.0683  1.2727
   74MOL0     O 9863   4.668   2.255   7.625 -0.4034 -0.2027  0.3387
   74MOL0     C 9864   4.663   2.313   7.495  0.7768  0.3364  0.0034
   74MOL0     C 9865   4.760   2.260   7.399  0.4202  0.3454 -0.1331
   74MOL0     C 9866   4.901   2.226   7.462  0.4298  0.0850 -0.3257
   74MOL0     C 9867   5.000   2.178   7.363  0.3539  0.6907 -1.3678
   74MOL0     C 9868   5.137   2.166   7.428  0.9233  0.5943  0.0134
   74MOL0     C 9869   5.255   2.148   7.335 -0.2154 -0.6138  0.7892
   74MOL0     C 9870   5.373   2.114   7.424 -0.0510  0.5238 -0.2791
   74MOL0     C 9871   5.445   2.245   7.467  0.8894 -1.3100 -0.3968
   74MOL0     N 9872   5.558   2.273   7.379  0.1595  0.6944  0.2486
   74MOL0     C 9873   5.688   2.225   7.391 -0.2540  0.2464  0.7567
   74MOL0     C 9874   5.758   2.257   7.278 -0.4381 -0.3133  0.4942
   74MOL0     C 9875   5.900   2.226   7.247  0.9609  0.8339  0.3611
   74MOL0     C 9876   5.994   2.226   7.366 -0.2635  0.6240  0.1127
   74MOL0     C 9877   6.125   2.175   7.329 -1.4092  0.0622  0.6624
   74MOL0     C 9878   6.226   2.166   7.453  0.1425 -0.0364 -0.6573
   74MOL0     O 9879   6.232   2.282   7.542 -0.1132  0.2558 -0.1476
   74MOL0     C 9880   6.328   2.259   7.642 -0.2410 -0.4048 -0.3495
   74MOL0     C 9881   6.464   2.270   7.610 -0.8659 -0.0884 -0.0461
   74MOL0     C 9882   6.572   2.231   7.693 -0.3685 -0.1979  0.9102
   74MOL0     C 9883   6.707   2.236   7.635 -0.0933 -0.6262  0.5420
   74MOL0     C 9884   6.534   2.170   7.816  0.6503 -0.6662 -0.4118
   74MOL0     C 9885   6.635   2.128   7.909 -0.6680 -0.6860  0.9714
   74MOL0     O 9886   6.578   2.081   8.027 -0.1182 -0.4599  0.5306
   74MOL0     C 9887   6.667   2.004   8.098 -0.4427  0.4664 -0.1942
   74MOL0     C 9888   6.741   2.065   8.198 -0.0336 -0.8445 -1.0161
   74MOL0     C 9889   6.820   1.989   8.288  0.4069  0.0026 -0.2654
   74MOL0     C 9890   6.834   1.855   8.277  0.8219 -0.3984  0.5081
   74MOL0     O 9891   6.910   1.778   8.364  0.8913  0.2492  0.2246
   74MOL0     C 9892   7.031   1.826   8.433 -0.4279 -0.8419  0.0240
   74MOL0     C 9893   7.109   1.721   8.512 -0.2622  0.1888 -0.0730
   74MOL0     C 9894   7.157   1.598   8.426 -0.2207 -0.1052  0.5547
   74MOL0     C 9895   7.226   1.637   8.295  0.0789  0.6848  0.1056
   74MOL0     C 9896   7.288   1.516   8.235 -0.2900 -0.0469  0.2316
   74MOL0     C 9897   7.187   1.438   8.145  0.7830  0.1428 -0.7926
   74MOL0     C 9898   7.246   1.321   8.060 -0.0170 -0.0963 -0.2118
   74MOL0     C 9899   7.159   1.280   7.939 -0.0434 -0.5096 -0.2269
   74MOL0    Cl 9900   7.031   1.173   7.973 -0.3491  0.1618 -0.1023
   74MOL0     C 9901   6.760   1.790   8.173  0.1011 -0.1527 -0.8364
   74MOL0     C 9902   6.679   1.858   8.084  0.3089  0.4076  0.5343
   74MOL0     O 9903   6.752   2.137   7.879 -0.3377 -0.1666  0.8317
   74MOL0     C 9904   6.395   2.167   7.839 -0.5727  0.3950 -0.8758
   74MOL0     C 9905   6.286   2.212   7.759 -0.0568 -0.0086  0.0074
   74MOL0     N 9906   5.666   2.318   7.197  0.1812 -0.2034 -0.0270
   74MOL0     N 9907   5.548   2.317   7.252 -1.0928 -0.1451  0.1192
   74MOL0     C 9908   4.580   2.096   7.789  0.6179 -0.7469 -0.1590
   74MOL0     C 9909   4.478   2.009   7.824 -0.1504  0.7213  0.7953
   74MOL0     C 9910   4.072   1.796   7.767  0.3742  0.1549 -0.0057
   74MOL0     C 9911   3.969   1.795   7.674 -0.3382 -0.1547 -0.5958
   74MOL0     C 9912   3.840   1.754   7.710 -0.7814  0.3123 -0.0392
   74MOL0     C 9913   3.810   1.721   7.840  0.0387 -0.4383  0.0037
   74MOL0     O 9914   3.676   1.692   7.868 -0.2526 -0.2182  0.2510
   74MOL0     C 9915   3.631   1.681   8.002 -0.0848  0.2168  0.0136
   74MOL0     C 9916   3.656   1.550   8.070 -0.6146 -0.0857 -0.8641
   74MOL0     C 9917   3.572   1.525   8.196  0.1322  0.6927 -0.1865
   74MOL0     C 9918   3.603   1.634   8.302  0.4935 -0.4377  0.1936
   74MOL0     C 9919   3.481   1.711   8.334 -0.2465 -0.4145  0.1025
   74MOL0     C 9920   3.378   1.770   8.334  0.0419 -0.0605 -0.2226
   74MOL0     C 9921   3.909   1.736   7.938 -0.2424  1.4417 -0.3829
   74MOL0     C 9922   4.042   1.765   7.901  0.8765 -0.9587 -0.5669
   74MOL0     H 9923   4.305   1.991   7.530  0.0141 -2.6694  0.7669
   74MOL0     H 9924   4.468   2.135   7.461  1.9360  0.8795 -0.3893
   74MOL0     H 9925   4.564   2.292   7.453  1.3071 -3.1100  0.1350
   74MOL0     H 9926   4.679   2.420   7.512  5.2016 -0.1664  0.2830
   74MOL0     H 9927   4.718   2.163   7.371 -1.4733  1.1333 -0.2382
   74MOL0     H 9928   4.759   2.314   7.304  0.2033 -3.0989 -2.2922
   74MOL0     H 9929   4.939   2.313   7.517 -0.8087  1.4654 -1.5430
   74MOL0     H 9930   4.897   2.148   7.538 -0.6842 -1.0629 -1.5015
   74MOL0     H 9931   4.968   2.079   7.329 -0.7557  0.4963  0.1531
   74MOL0     H 9932   5.005   2.249   7.280 -1.6945  1.8451 -0.5852
   74MOL0     H 9933   5.144   2.258   7.486 -1.7901  2.9224 -3.0125
   74MOL0     H 9934   5.124   2.073   7.485 -0.3947 -0.3261 -1.7045
   74MOL0     H 9935   5.238   2.063   7.268  1.7777 -0.9572  0.6599
   74MOL0     H 9936   5.257   2.244   7.282  0.8102 -1.3649 -0.5863
   74MOL0     H 9937   5.339   2.049   7.506 -0.5468 -2.7860 -2.8836
   74MOL0     H 9938   5.443   2.052   7.367 -0.0957 -2.5368  2.6201
   74MOL0     H 9939   5.472   2.232   7.572 -1.1757 -2.8277  0.0274
   74MOL0     H 9940   5.378   2.331   7.465  2.4556 -0.0236  0.3487
   74MOL0     H 9941   5.728   2.182   7.482 -1.3143  1.7280  1.9564
   74MOL0     H 9942   5.894   2.129   7.197 -2.7920  2.3033 -2.5307
   74MOL0     H 9943   5.933   2.296   7.170  1.1879  1.9048  1.3975
   74MOL0     H 9944   5.954   2.163   7.446  0.0460 -0.5003 -0.6016
   74MOL0     H 9945   5.995   2.327   7.407 -0.6360  0.1826  1.2597
   74MOL0     H 9946   6.174   2.238   7.254  0.4988  0.1029  1.8926
   74MOL0     H 9947   6.105   2.071   7.300  0.8467 -1.1675  3.1104
   74MOL0     H 9948   6.323   2.139   7.410 -0.0726 -2.9316  0.4549
   74MOL0     H 9949   6.180   2.085   7.510 -3.7259  1.2813 -1.5523
   74MOL0     H 9950   6.484   2.317   7.514 -0.1351 -0.3158 -0.0149
   74MOL0     H 9951   6.759   2.140   7.631  1.4264  0.1262  1.3231
   74MOL0     H 9952   6.708   2.270   7.531 -0.8330 -0.5405  0.5548
   74MOL0     H 9953   6.767   2.300   7.700 -0.6882  1.8569 -1.2097
   74MOL0     H 9954   6.733   2.168   8.232 -0.2197 -2.2276  3.8277
   74MOL0     H 9955   6.872   2.047   8.363 -0.9066  1.2082 -0.2315
   74MOL0     H 9956   7.097   1.870   8.357  0.2047 -1.8294 -0.0156
   74MOL0     H 9957   7.005   1.913   8.494  1.5346  0.9484 -1.5208
   74MOL0     H 9958   7.192   1.773   8.559 -0.6348 -0.1786  1.0146
   74MOL0     H 9959   7.038   1.688   8.588 -0.9796  3.1761  0.6859
   74MOL0     H 9960   7.062   1.555   8.390  1.1615 -1.5648 -1.6031
   74MOL0     H 9961   7.224   1.535   8.485 -1.4008  0.6794  2.8522
   74MOL0     H 9962   7.158   1.677   8.219 -1.5818 -0.4901  0.9180
   74MOL0     H 9963   7.304   1.705   8.331  1.1039 -0.4814  0.1316
   74MOL0     H 9964   7.323   1.441   8.307  0.5293  0.5321  0.4566
   74MOL0     H 9965   7.377   1.550   8.182  1.6159 -2.2181  1.8180
   74MOL0     H 9966   7.127   1.382   8.217  0.4036  0.5747 -0.7611
   74MOL0     H 9967   7.125   1.507   8.086 -0.0776 -1.2468 -1.5702
   74MOL0     H 9968   7.246   1.239   8.133 -3.5212 -1.6803 -1.7635
   74MOL0     H 9969   7.348   1.341   8.026 -0.5951  2.6876 -0.5310
   74MOL0     H 9970   7.220   1.230   7.862 -1.0560  0.3419 -1.6236
   74MOL0     H 9971   7.112   1.367   7.892 -3.1392 -2.1391 -0.3843
   74MOL0     H 9972   6.784   1.684   8.162  1.1130  0.0612 -0.8316
   74MOL0     H 9973   6.617   1.799   8.017 -0.1884 -0.9307  2.1338
   74MOL0     H 9974   6.359   2.138   7.937 -1.2884 -0.0048 -1.2464
   74MOL0     H 9975   6.179   2.196   7.768 -0.0031  0.3816  1.7312
   74MOL0     H 9976   4.653   2.149   7.849 -0.8877  1.7679 -0.4222
   74MOL0     H 9977   4.475   1.961   7.922  1.3110 -1.8525 -0.3250
   74MOL0     H 9978   3.992   1.807   7.569  3.4551 -2.1910 -0.1713
   74MOL0     H 9979   3.770   1.749   7.627  0.3328 -1.5507 -0.9322
   74MOL0     H 9980   3.667   1.762   8.067 -0.8083  1.1762 -0.7505
   74MOL0     H 9981   3.525   1.711   8.002  0.5045  2.5623  0.6688
   74MOL0     H 9982   3.763   1.555   8.093 -0.2025  0.8701 -2.7861
   74MOL0     H 9983   3.648   1.467   7.999 -2.0336 -1.6432  0.9830
   74MOL0     H 9984   3.588   1.423   8.234 -3.2011  0.1072 -0.0067
   74MOL0     H 9985   3.464   1.532   8.178 -0.0847 -0.9622  0.2712
   74MOL0     H 9986   3.681   1.701   8.266 -2.4999  2.7580 -0.9870
   74MOL0     H 9987   3.634   1.580   8.392  1.0351 -1.7569 -0.7731
   74MOL0     H 9988   3.288   1.826   8.319  0.1839  0.2709  0.1626
   74MOL0     H 9989   3.913   1.714   8.044  1.3112 -1.2951 -0.8926
   74MOL0     H 9990   4.121   1.748   7.974  1.5655  0.6579 -0.8916
   75MOL0     O 9991   8.860  10.823   2.850  0.2054  0.4430 -0.0592
   75MOL0     C 9992   8.816  10.780   2.740  0.4587 -0.3107 -0.3760
   75MOL0     O 9993   8.892  10.710   2.642  0.2692 -0.0928  0.2439
   75MOL0     C 9994   9.027  10.702   2.665  1.3821 -0.7613 -0.2662
   75MOL0     C 9995   9.077  10.612   2.762 -0.2072 -0.2597 -0.4321
   75MOL0     C 9996   9.212  10.607   2.774  0.2370 -0.2235  0.2579
   75MOL0     C 9997   9.297  10.680   2.692 -0.9087 -0.4068 -0.2653
   75MOL0     O 9998   9.438  10.673   2.686 -0.3979 -0.4529 -0.1462
   75MOL0     C 9999   9.501  10.571   2.766  0.4627  0.8303 -0.1493
   75MOL0     C10000   9.652  10.549   2.720 -0.4873  0.6239 -0.6241
   75MOL0     C10001   9.743  10.660   2.792 -0.7025  0.2778  0.5480
   75MOL0     C10002   9.884  10.641   2.741  0.5066 -0.0141 -0.4584
   75MOL0     C10003   9.976  10.743   2.811 -0.9404 -0.1920  0.7510
   75MOL0     C10004  10.119  10.737   2.747 -0.2181  0.3031  0.3414
   75MOL0     C10005  10.190  10.864   2.777  0.0703 -0.6390 -1.2307
   75MOL0     C10006  10.323  10.876   2.709 -0.4218 -0.1345  0.7895
   75MOL0     N10007  10.318  10.960   2.583 -0.0614  0.0678 -0.5576
   75MOL0     C10008  10.294  10.908   2.460 -0.5564  0.2794  0.2776
   75MOL0     C10009  10.256  11.009   2.382  0.3522  0.6738  0.4329
   75MOL0     C10010  10.205  11.000   2.237  0.3462 -0.3755 -0.0594
   75MOL0     C10011  10.085  11.079   2.208 -0.4478 -0.4086  0.0833
   75MOL0     C10012  10.108  11.216   2.147  0.6835 -0.2126  0.0408
   75MOL0     C10013  10.198  11.222   2.019  0.5266 -0.1134  0.4718
   75MOL0     O10014  10.124  11.285   1.911  0.2986 -0.1139 -0.1046
   75MOL0     C10015  10.109  11.418   1.897  0.2718  0.5000 -0.1085
   75MOL0     C10016  10.158  11.520   1.984 -0.4191  0.4860 -0.4865
   75MOL0     C10017  10.125  11.651   1.978  0.2280  0.5716  0.3607
   75MOL0     C10018  10.194  11.745   2.069  0.8272  1.4720  0.0678
   75MOL0     C10019  10.050  11.695   1.864 -0.1952  0.1368 -0.4020
   75MOL0     C10020  10.008  11.842   1.850  0.0629 -0.4088  0.2535
   75MOL0     O10021  10.020  11.937   1.946 -0.2621  0.4249 -0.6220
   75MOL0     C10022  10.020  12.070   1.928  0.1154 -0.8323  0.7160
   75MOL0     C10023   9.923  12.150   1.854  0.2009  0.0698  0.0262
   75MOL0     C10024   9.918  12.290   1.875  0.5106  0.3664 -0.7043
   75MOL0     C10025  10.003  12.356   1.963 -0.4777  0.2434  0.0198
   75MOL0     O10026   9.991  12.490   1.986 -0.8317 -0.3595 -0.2878
   75MOL0     C10027  10.085  12.552   2.072  0.4335 -0.1783  0.6460
   75MOL0     C10028  10.044  12.528   2.216 -0.2325 -0.6753  0.8968
   75MOL0     C10029  10.060  12.666   2.289  0.7380 -0.3346 -0.4896
   75MOL0     C10030  10.211  12.672   2.338  0.7746 -0.6450 -0.1120
   75MOL0     C10031  10.235  12.809   2.405  0.3505 -0.4314 -0.5667
   75MOL0     C10032  10.377  12.816   2.446  0.8410  0.5173  0.0157
   75MOL0     C10033  10.378  12.929   2.551 -0.5000 -0.1467  0.4104
   75MOL0     C10034  10.534  12.962   2.589  0.7366  0.5995  0.5922
   75MOL0    Cl10035  10.614  12.840   2.681  0.6038  0.5650 -0.1744
   75MOL0     C10036  10.088  12.274   2.036 -0.9827  0.6363 -0.0501
   75MOL0     C10037  10.103  12.136   2.022 -0.6707  0.1928  0.6456
   75MOL0     O10038   9.945  11.865   1.747  0.4314 -0.4070  0.0057
   75MOL0     C10039  10.007  11.601   1.773  0.0957 -0.3532  0.0712
   75MOL0     C10040  10.044  11.468   1.787  0.2713  1.0702 -0.3976
   75MOL0     N10041  10.268  11.127   2.457  0.6056 -0.5962 -0.2081
   75MOL0     N10042  10.303  11.091   2.577  0.3242 -0.4388 -0.0395
   75MOL0     C10043   9.245  10.774   2.607  0.2912 -0.3023  0.6199
   75MOL0     C10044   9.108  10.783   2.595  0.7250  0.2585  0.6707
   75MOL0     C10045   8.681  10.827   2.718  0.9788 -0.9229  0.2837
   75MOL0     C10046   8.632  10.864   2.590  0.9896 -0.4815 -0.2477
   75MOL0     C10047   8.506  10.928   2.575  0.9714 -0.1270 -0.0781
   75MOL0     C10048   8.428  10.953   2.693  0.0654 -0.5819 -0.5997
   75MOL0     O10049   8.309  11.013   2.703 -0.0681  0.4826 -0.2707
   75MOL0     C10050   8.246  11.074   2.590  0.0056  0.4711 -0.2356
   75MOL0     C10051   8.259  11.227   2.608  0.1512  0.3552 -0.0331
   75MOL0     C10052   8.402  11.279   2.596  0.1337  0.5854  0.5639
   75MOL0     C10053   8.417  11.404   2.518 -0.0261  0.4475  0.1632
   75MOL0     C10054   8.561  11.400   2.493  1.4191 -0.0341 -0.4632
   75MOL0     C10055   8.680  11.396   2.473 -0.1825  0.1643  0.0436
   75MOL0     C10056   8.473  10.906   2.821  0.3348 -0.0142  0.1467
   75MOL0     C10057   8.596  10.843   2.836 -0.4990  0.3004 -0.3089
   75MOL0     H10058   9.002  10.570   2.828 -0.0382 -0.5880 -0.4461
   75MOL0     H10059   9.261  10.551   2.853 -0.2941 -0.5353  0.3728
   75MOL0     H10060   9.488  10.582   2.874  3.6028  1.0103  0.2875
   75MOL0     H10061   9.452  10.477   2.737  0.3325  0.4518  1.2264
   75MOL0     H10062   9.699  10.455   2.751 -0.5140 -0.1722 -2.8780
   75MOL0     H10063   9.651  10.550   2.611 -1.4679 -2.0559 -0.6918
   75MOL0     H10064   9.713  10.760   2.760  2.2826  0.0922 -3.7040
   75MOL0     H10065   9.742  10.656   2.901  1.4260 -0.3227  0.6018
   75MOL0     H10066   9.914  10.539   2.766  0.8606 -0.7815 -3.6399
   75MOL0     H10067   9.894  10.657   2.633  0.9732 -1.2047 -0.6140
   75MOL0     H10068   9.934  10.843   2.807 -0.3535  0.1591  2.4770
   75MOL0     H10069   9.986  10.712   2.916  1.4317  0.7589  0.8728
   75MOL0     H10070  10.171  10.653   2.794 -0.7841  0.8968  2.1388
   75MOL0     H10071  10.112  10.715   2.641 -1.9522 -0.6660  0.6184
   75MOL0     H10072  10.133  10.949   2.741  4.3036  2.9219 -0.3722
   75MOL0     H10073  10.202  10.885   2.884  3.5998 -2.7437 -1.0286
   75MOL0     H10074  10.353  10.778   2.671  2.2440  1.2470 -0.9599
   75MOL0     H10075  10.403  10.915   2.771 -0.7689  1.1215  0.4769
   75MOL0     H10076  10.295  10.804   2.429  1.5942 -0.4123  2.3640
   75MOL0     H10077  10.290  11.034   2.177 -0.1390 -0.0008 -0.5438
   75MOL0     H10078  10.176  10.897   2.214 -1.0723 -0.7074  2.7139
   75MOL0     H10079  10.028  11.078   2.302  0.8462 -0.2452  0.8863
   75MOL0     H10080  10.023  11.013   2.146 -0.1333 -0.8886  0.2745
   75MOL0     H10081  10.134  11.295   2.218 -0.4304  0.5190 -0.3442
   75MOL0     H10082  10.014  11.256   2.109  0.3116 -0.8224  0.3216
   75MOL0     H10083  10.218  11.121   1.983 -2.4271 -0.1394 -1.4240
   75MOL0     H10084  10.292  11.275   2.035 -1.3154  4.1962 -1.3132
   75MOL0     H10085  10.213  11.483   2.071  0.8509  1.1794 -0.9673
   75MOL0     H10086  10.124  11.806   2.125 -1.3289 -1.0379  0.3347
   75MOL0     H10087  10.258  11.696   2.143  1.1138  3.5184  1.2494
   75MOL0     H10088  10.263  11.802   2.006 -1.9501  0.7624 -4.0341
   75MOL0     H10089   9.857  12.095   1.788 -0.3545  2.3066 -1.3783
   75MOL0     H10090   9.843  12.339   1.815 -1.4339 -0.5691  0.8096
   75MOL0     H10091  10.185  12.520   2.043  1.3011  3.5896 -1.1481
   75MOL0     H10092  10.073  12.657   2.044 -3.8962 -0.8775 -0.8777
   75MOL0     H10093   9.939  12.495   2.214  0.1121 -1.8118  1.1080
   75MOL0     H10094  10.106  12.456   2.270  3.3266  3.0812  2.2631
   75MOL0     H10095   9.998  12.656   2.379  0.1628  0.8282 -0.7412
   75MOL0     H10096  10.028  12.749   2.226 -4.6088 -2.7018 -1.4514
   75MOL0     H10097  10.234  12.581   2.395  1.3664  1.1497  2.7051
   75MOL0     H10098  10.272  12.668   2.246  1.0161  0.0054  0.0133
   75MOL0     H10099  10.171  12.820   2.493  0.5787  0.4923 -0.5119
   75MOL0     H10100  10.214  12.884   2.328  0.1003 -1.1195 -1.1920
   75MOL0     H10101  10.413  12.727   2.499  2.2790  2.2200  2.0678
   75MOL0     H10102  10.434  12.822   2.354  0.6456 -1.5190 -0.2811
   75MOL0     H10103  10.330  12.895   2.643  0.9715  1.3572  1.8045
   75MOL0     H10104  10.326  13.019   2.518 -0.9553 -0.0039  1.4828
   75MOL0     H10105  10.531  13.050   2.653 -2.1364  1.1155 -0.0935
   75MOL0     H10106  10.576  12.995   2.493 -0.3029  2.2067  0.6591
   75MOL0     H10107  10.154  12.307   2.115 -0.0779 -0.6837 -0.2237
   75MOL0     H10108  10.176  12.081   2.081 -0.8679  0.9021  1.5857
   75MOL0     H10109   9.949  11.637   1.688  0.8061  4.0436  1.1880
   75MOL0     H10110  10.020  11.398   1.708 -0.7120  0.3708  0.4913
   75MOL0     H10111   9.303  10.844   2.549 -1.0191 -0.2435 -0.6910
   75MOL0     H10112   9.067  10.861   2.531  0.5794  1.1801  1.8609
   75MOL0     H10113   8.688  10.842   2.499 -0.4963  1.5656 -1.7679
   75MOL0     H10114   8.465  10.965   2.481  1.4154 -1.7313 -0.9262
   75MOL0     H10115   8.281  11.044   2.491 -0.0832  3.1186 -1.1458
   75MOL0     H10116   8.137  11.062   2.594 -0.2415  2.0797 -1.1411
   75MOL0     H10117   8.232  11.249   2.712 -1.2806  1.1636 -0.5625
   75MOL0     H10118   8.190  11.275   2.538  0.3627 -1.7372 -1.7834
   75MOL0     H10119   8.459  11.203   2.542 -0.2115  1.3350 -0.9060
   75MOL0     H10120   8.444  11.290   2.697 -1.6921 -0.0310  1.4411
   75MOL0     H10121   8.394  11.484   2.590  2.0619  1.0116  0.2844
   75MOL0     H10122   8.350  11.416   2.433 -0.5519 -0.3020  0.4652
   75MOL0     H10123   8.780  11.431   2.456 -0.1666 -0.4195 -1.1021
   75MOL0     H10124   8.398  10.908   2.899 -2.0382 -0.8604 -1.9880
   75MOL0     H10125   8.626  10.810   2.935  0.1264 -0.3476 -0.7114
   76MOL0     O10126   0.256   6.074   7.588 -0.4283  0.6492  0.0728
   76MOL0     C10127   0.283   6.160   7.676  0.6292  0.4741 -0.4594
   76MOL0     O10128   0.395   6.239   7.669  0.1210  0.2862 -0.7095
   76MOL0     C10129   0.479   6.212   7.557 -0.5720  0.0043 -1.1187
   76MOL0     C10130   0.560   6.099   7.552 -0.3071 -0.2890 -0.3931
   76MOL0     C10131   0.633   6.058   7.446 -0.8834 -0.1092  0.7492
   76MOL0     C10132   0.626   6.139   7.328  0.2377 -1.2675  0.7698
   76MOL0     O10133   0.687   6.094   7.216 -0.1754 -0.2609  0.4396
   76MOL0     C10134   0.691   6.179   7.099  0.1193  0.4031  0.6146
   76MOL0     C10135   0.793   6.117   7.007  0.0592 -0.1375  1.0028
   76MOL0     C10136   0.816   6.180   6.867 -0.1372 -0.3355 -0.5402
   76MOL0     C10137   0.924   6.099   6.791  0.1820  0.3851  0.5020
   76MOL0     C10138   0.943   6.152   6.645  0.1325  0.9302  0.7269
   76MOL0     C10139   0.815   6.170   6.569  1.2078 -0.0679  0.0794
   76MOL0     C10140   0.820   6.113   6.425 -0.0308  0.4602  0.4935
   76MOL0     C10141   0.919   6.184   6.336 -0.2112 -0.4827 -0.2857
   76MOL0     N10142   0.913   6.136   6.207 -0.2068  0.7854  0.0459
   76MOL0     C10143   0.971   6.012   6.172 -0.4966  0.5160 -0.5415
   76MOL0     C10144   0.952   6.017   6.036 -0.7115 -0.2147 -0.1053
   76MOL0     C10145   1.010   5.928   5.924  0.4559 -0.4619 -0.6659
   76MOL0     C10146   0.918   5.812   5.885  0.4299 -0.1904 -0.7068
   76MOL0     C10147   0.984   5.723   5.780 -1.1839 -0.0040  0.3886
   76MOL0     C10148   0.977   5.576   5.805 -1.1241  0.8185 -0.6358
   76MOL0     O10149   0.852   5.538   5.864  0.3056  0.2112  0.3755
   76MOL0     C10150   0.854   5.501   6.003  0.6730  0.1907 -0.5549
   76MOL0     C10151   0.724   5.462   6.053 -0.4085 -0.0734  0.6713
   76MOL0     C10152   0.710   5.415   6.188 -0.0082  0.1822 -0.1282
   76MOL0     C10153   0.577   5.388   6.241 -0.2360 -0.4744  0.4841
   76MOL0     C10154   0.822   5.389   6.266  0.0950 -0.9010  0.5331
   76MOL0     C10155   0.830   5.322   6.398 -0.0462  0.4106  1.4679
   76MOL0     O10156   0.737   5.228   6.432 -0.6736  0.2118 -0.3372
   76MOL0     C10157   0.693   5.229   6.559  0.3515 -1.0970 -0.9546
   76MOL0     C10158   0.687   5.105   6.624 -1.0073 -0.3117 -0.4378
   76MOL0     C10159   0.634   5.093   6.745  0.6486  0.6860  0.0054
   76MOL0     C10160   0.582   5.202   6.813 -0.6120 -0.2482 -0.4108
   76MOL0     O10161   0.536   5.190   6.945 -0.4699 -0.9070 -0.2331
   76MOL0     C10162   0.621   5.126   7.028 -0.3789 -0.3129 -0.4793
   76MOL0     C10163   0.613   5.190   7.170 -0.1936  0.0114  0.2865
   76MOL0     C10164   0.469   5.195   7.226  1.1202 -0.9826 -0.3232
   76MOL0     C10165   0.377   5.076   7.225 -0.0985  0.0262 -0.2438
   76MOL0     C10166   0.434   4.944   7.273  0.3903  0.9248  0.2846
   76MOL0     C10167   0.420   4.927   7.429 -0.5200 -0.5269  0.6915
   76MOL0     C10168   0.454   4.785   7.481  0.0388  0.1460  0.3932
   76MOL0     C10169   0.357   4.681   7.419  0.9983 -0.7461 -0.3962
   76MOL0    Cl10170   0.375   4.528   7.512  0.3002  0.0190 -0.5604
   76MOL0     C10171   0.593   5.328   6.759 -0.6087 -0.4105 -0.0990
   76MOL0     C10172   0.647   5.343   6.632 -0.1055 -0.2675  1.1926
   76MOL0     O10173   0.916   5.368   6.474  0.1316 -0.5943 -0.4512
   76MOL0     C10174   0.945   5.435   6.213  0.1219  0.2458  0.9400
   76MOL0     C10175   0.964   5.490   6.083  0.4431  0.2344 -0.4650
   76MOL0     N10176   0.877   6.132   6.007 -0.5018  0.6096  1.1590
   76MOL0     N10177   0.859   6.201   6.107 -0.0338 -0.3269  0.5334
   76MOL0     C10178   0.544   6.255   7.330 -1.1584 -0.3905  0.0112
   76MOL0     C10179   0.475   6.295   7.448 -0.7371 -0.6659 -0.3009
   76MOL0     C10180   0.186   6.178   7.793 -0.2262  0.0712  1.0935
   76MOL0     C10181   0.063   6.111   7.789 -0.1135 -0.0977 -1.2327
   76MOL0     C10182  -0.030   6.128   7.887  0.7026  0.3226  0.7737
   76MOL0     C10183   0.002   6.219   7.990  1.1007  0.8759  0.0756
   76MOL0     O10184  -0.088   6.230   8.090  0.6689  0.3140 -0.4157
   76MOL0     C10185  -0.034   6.193   8.224 -0.0593  0.5720  0.4454
   76MOL0     C10186  -0.020   6.044   8.234 -0.0552  0.4489 -0.4104
   76MOL0     C10187  -0.159   5.980   8.207  0.4079  0.0765  0.0337
   76MOL0     C10188  -0.166   5.834   8.180  0.0709  0.3726 -0.4509
   76MOL0     C10189  -0.058   5.779   8.088 -0.8592  0.6793 -0.3542
   76MOL0     C10190   0.011   5.729   7.997 -0.2359  0.2587  0.3204
   76MOL0     C10191   0.125   6.280   7.995 -0.6103 -0.1094 -0.1096
   76MOL0     C10192   0.217   6.263   7.896 -0.2424 -0.2001  0.3841
   76MOL0     H10193   0.540   6.039   7.640 -2.0193  0.1228 -0.4587
   76MOL0     H10194   0.685   5.964   7.464  0.7446  0.5552 -0.2280
   76MOL0     H10195   0.594   6.175   7.049 -0.3280 -1.6058  1.5736
   76MOL0     H10196   0.724   6.282   7.119 -2.3694  1.5438 -0.7725
   76MOL0     H10197   0.891   6.109   7.055  1.0227 -1.5639 -1.0623
   76MOL0     H10198   0.760   6.013   7.001  1.0943 -0.4202 -0.3000
   76MOL0     H10199   0.720   6.193   6.816  1.4560  1.1506 -3.4008
   76MOL0     H10200   0.861   6.280   6.871 -0.7730  0.1171 -2.9206
   76MOL0     H10201   1.019   6.108   6.844 -1.1076  0.4052  2.9421
   76MOL0     H10202   0.899   5.994   6.808 -0.6531  0.9170  2.8751
   76MOL0     H10203   0.997   6.245   6.666 -1.4259  1.9532  0.4207
   76MOL0     H10204   1.001   6.074   6.594 -1.7875  0.1332 -0.3527
   76MOL0     H10205   0.726   6.125   6.614  1.0242 -1.2275 -1.3630
   76MOL0     H10206   0.801   6.279   6.575  4.9523  0.4767  4.7187
   76MOL0     H10207   0.856   6.009   6.427  1.1271  0.8115 -0.4749
   76MOL0     H10208   0.721   6.109   6.379 -0.2529  0.5180  0.9649
   76MOL0     H10209   1.019   6.163   6.376  0.6215  0.9219 -1.5206
   76MOL0     H10210   0.887   6.289   6.339  0.4699 -0.2461 -0.9171
   76MOL0     H10211   1.017   5.933   6.230 -2.0218 -0.4251 -0.5530
   76MOL0     H10212   1.013   5.984   5.830  0.6328  1.4706  0.4369
   76MOL0     H10213   1.110   5.893   5.952  0.9329 -1.0941 -2.9680
   76MOL0     H10214   0.821   5.857   5.859  0.1920 -1.7630 -2.9142
   76MOL0     H10215   0.904   5.749   5.973  2.5601  0.5338  0.2167
   76MOL0     H10216   1.087   5.758   5.770 -0.8082 -0.5295  2.0846
   76MOL0     H10217   0.942   5.745   5.681 -2.0560 -0.0084  0.7494
   76MOL0     H10218   1.064   5.546   5.864 -0.9958 -0.0023 -1.2281
   76MOL0     H10219   0.994   5.519   5.713  4.2268 -0.0227  0.5657
   76MOL0     H10220   0.644   5.474   5.981  1.7219  0.4456 -1.7551
   76MOL0     H10221   0.494   5.419   6.177 -3.7453 -2.3811  3.7213
   76MOL0     H10222   0.565   5.280   6.258  1.3373 -0.3241  3.0957
   76MOL0     H10223   0.574   5.447   6.333  4.1107  0.8613  0.0032
   76MOL0     H10224   0.719   5.022   6.562 -0.3518 -0.3108 -0.1083
   76MOL0     H10225   0.638   4.995   6.793 -1.7396  1.1533  1.2904
   76MOL0     H10226   0.587   5.022   7.034 -0.6732 -0.3086 -1.7822
   76MOL0     H10227   0.726   5.134   6.998  0.1184  0.7579  1.3576
   76MOL0     H10228   0.684   5.138   7.234  0.4843  0.7434  0.1465
   76MOL0     H10229   0.648   5.294   7.161  0.9158 -0.2712  1.1501
   76MOL0     H10230   0.413   5.281   7.189 -0.6809 -0.5765  3.0203
   76MOL0     H10231   0.467   5.222   7.332  0.2553 -0.5745 -0.4357
   76MOL0     H10232   0.286   5.090   7.283  1.7043 -1.9204  3.4290
   76MOL0     H10233   0.340   5.065   7.122  0.3429 -0.5182 -0.3538
   76MOL0     H10234   0.532   4.932   7.227 -0.8020 -2.4471 -1.7475
   76MOL0     H10235   0.371   4.871   7.221  1.4250  1.1193 -1.3065
   76MOL0     H10236   0.475   5.000   7.490 -1.7115  0.0605  1.0934
   76MOL0     H10237   0.319   4.960   7.453 -0.7563 -0.2332 -0.6719
   76MOL0     H10238   0.439   4.778   7.589  0.6473 -0.1668  0.4597
   76MOL0     H10239   0.559   4.760   7.468 -0.0116 -0.4135  0.9640
   76MOL0     H10240   0.394   4.654   7.320  1.4218 -1.9028  0.0572
   76MOL0     H10241   0.254   4.716   7.410  1.5299  0.4707 -2.2832
   76MOL0     H10242   0.569   5.423   6.807 -0.6289  2.3756 -4.9518
   76MOL0     H10243   0.653   5.439   6.581 -1.2739 -0.6091  0.3692
   76MOL0     H10244   1.043   5.413   6.256  0.5317 -1.0227 -0.5552
   76MOL0     H10245   1.065   5.517   6.055 -0.8514  2.8434 -3.1939
   76MOL0     H10246   0.522   6.313   7.241 -0.4367  1.1716  0.7959
   76MOL0     H10247   0.406   6.379   7.444 -1.2115 -0.8954  1.7729
   76MOL0     H10248   0.029   6.041   7.714 -0.4191  0.9696 -2.1085
   76MOL0     H10249  -0.116   6.062   7.876  1.2203 -0.6464  2.2886
   76MOL0     H10250   0.063   6.239   8.247 -0.0088  0.1212  1.1411
   76MOL0     H10251  -0.097   6.231   8.305 -0.7219 -0.7322  0.5697
   76MOL0     H10252   0.004   6.008   8.335 -4.3045 -1.4411  0.1118
   76MOL0     H10253   0.047   6.004   8.158 -0.4256 -3.3559  1.0383
   76MOL0     H10254  -0.212   6.027   8.123  0.7082 -0.8596 -0.6948
   76MOL0     H10255  -0.235   6.008   8.280  0.1808 -2.8019  0.9992
   76MOL0     H10256  -0.267   5.812   8.142 -1.1992 -2.5084  3.8214
   76MOL0     H10257  -0.174   5.769   8.268 -1.2367  0.8770 -0.1657
   76MOL0     H10258   0.065   5.689   7.914  3.7713 -0.7397  3.1236
   76MOL0     H10259   0.146   6.347   8.078 -0.8016  0.9319 -0.8737
   76MOL0     H10260   0.311   6.315   7.908 -0.2521  0.3431 -1.5622
   77MOL0     O10261   5.560   0.533   5.032  0.6431  0.2079 -0.1758
   77MOL0     C10262   5.461   0.482   4.978  0.3261 -0.4233  0.6637
   77MOL0     O10263   5.403   0.365   5.004  0.0934 -0.4097 -0.9897
   77MOL0     C10264   5.445   0.289   5.108 -1.1287 -0.3325 -0.1956
   77MOL0     C10265   5.440   0.349   5.233  0.4019  0.2190  0.0888
   77MOL0     C10266   5.492   0.271   5.343 -0.2376 -0.5044  0.3219
   77MOL0     C10267   5.544   0.147   5.327 -0.4070  0.2578  0.1234
   77MOL0     O10268   5.614   0.075   5.421 -0.0041  0.2047 -0.9487
   77MOL0     C10269   5.672   0.153   5.527 -0.2428 -0.5136 -0.3577
   77MOL0     C10270   5.745   0.071   5.636  0.2536 -0.2531 -0.9982
   77MOL0     C10271   5.651  -0.010   5.724 -0.2011 -0.8834 -0.5788
   77MOL0     C10272   5.693  -0.153   5.733  0.3093  0.6559  0.8595
   77MOL0     C10273   5.599  -0.248   5.804  0.1383 -0.0448 -0.8333
   77MOL0     C10274   5.461  -0.264   5.729  0.0129  0.5564  0.5247
   77MOL0     C10275   5.469  -0.286   5.578  0.3247 -0.1554  0.2235
   77MOL0     C10276   5.342  -0.358   5.519  0.3374 -0.4151  0.1839
   77MOL0     N10277   5.325  -0.345   5.375  0.2503  0.0864 -0.0546
   77MOL0     C10278   5.263  -0.244   5.317  0.2575  0.4834  0.3572
   77MOL0     C10279   5.234  -0.277   5.190  0.1484  0.4900  1.0657
   77MOL0     C10280   5.163  -0.217   5.069  0.2204 -0.3893  0.1625
   77MOL0     C10281   5.258  -0.133   4.973 -1.1596 -0.2327  0.1696
   77MOL0     C10282   5.189  -0.040   4.862 -0.4706  1.6799  0.6044
   77MOL0     C10283   5.069  -0.115   4.801 -0.1580  0.3570 -0.3757
   77MOL0     O10284   5.111  -0.240   4.759 -0.4709 -0.2368  0.2758
   77MOL0     C10285   5.025  -0.314   4.689  0.7788 -1.4035 -0.4840
   77MOL0     C10286   4.934  -0.396   4.760 -0.1268  0.6983  0.5339
   77MOL0     C10287   4.828  -0.464   4.696 -0.1383  0.3255  1.0046
   77MOL0     C10288   4.734  -0.558   4.770  0.1068  0.1623 -0.2596
   77MOL0     C10289   4.819  -0.452   4.555 -0.6032  0.4398 -0.5423
   77MOL0     C10290   4.716  -0.515   4.486 -0.1217  0.1727  0.6513
   77MOL0     O10291   4.601  -0.453   4.500  1.4479  0.3861 -0.4813
   77MOL0     C10292   4.502  -0.510   4.422 -0.8567 -0.6579  1.3946
   77MOL0     C10293   4.444  -0.630   4.462 -0.7679 -0.0154 -0.7149
   77MOL0     C10294   4.351  -0.689   4.372 -0.0480 -0.2731 -0.2537
   77MOL0     C10295   4.323  -0.651   4.248 -0.4130  0.4599  0.4967
   77MOL0     O10296   4.235  -0.714   4.161 -0.4057  0.2528  0.8183
   77MOL0     C10297   4.118  -0.780   4.205  0.1286 -0.4806 -0.7540
   77MOL0     C10298   4.032  -0.707   4.311 -0.0224  0.1559  0.3351
   77MOL0     C10299   3.969  -0.577   4.252 -0.3378  0.7268 -0.0918
   77MOL0     C10300   3.937  -0.473   4.367  0.6977  0.1745  0.4578
   77MOL0     C10301   3.879  -0.353   4.294 -0.0396 -0.0990 -0.4054
   77MOL0     C10302   3.901  -0.225   4.376  0.8726 -0.1731 -0.1539
   77MOL0     C10303   3.846  -0.094   4.317 -1.1314 -0.4091 -0.5742
   77MOL0     C10304   3.930   0.030   4.357  0.7242  0.0469 -0.3729
   77MOL0    Cl10305   3.919   0.055   4.529 -0.3398  0.1521 -0.6037
   77MOL0     C10306   4.382  -0.527   4.214  0.4033 -0.7476 -0.1840
   77MOL0     C10307   4.472  -0.453   4.297 -0.5480 -0.5694  0.6103
   77MOL0     O10308   4.743  -0.616   4.419 -0.7172 -0.2512 -0.5851
   77MOL0     C10309   4.911  -0.362   4.489  0.2480 -0.1721  1.1493
   77MOL0     C10310   5.001  -0.289   4.554 -0.6647 -0.3799  0.2683
   77MOL0     N10311   5.285  -0.401   5.174 -0.7901  0.4364  0.4469
   77MOL0     N10312   5.332  -0.447   5.291  0.3565  0.5625 -0.3029
   77MOL0     C10313   5.557   0.098   5.197  0.6439 -0.2581 -0.1511
   77MOL0     C10314   5.510   0.165   5.090  0.2005  0.7255 -0.3755
   77MOL0     C10315   5.390   0.570   4.880  0.2353 -0.1764 -0.0624
   77MOL0     C10316   5.411   0.710   4.879 -0.3678  1.2667 -0.2403
   77MOL0     C10317   5.349   0.785   4.788 -1.0822  0.4937 -0.9996
   77MOL0     C10318   5.273   0.729   4.683 -0.9811 -0.1770 -0.4929
   77MOL0     O10319   5.222   0.798   4.579  0.0833  0.4237  0.0789
   77MOL0     C10320   5.200   0.939   4.576 -0.6318  1.3147  0.5322
   77MOL0     C10321   5.143   0.966   4.438 -0.4071 -0.8564  0.3364
   77MOL0     C10322   5.154   1.112   4.393  0.1550 -0.1336 -0.1015
   77MOL0     C10323   5.097   1.133   4.252 -1.3006  0.1733  0.4124
   77MOL0     C10324   5.049   1.269   4.230  0.4506 -0.3925 -0.4191
   77MOL0     C10325   5.009   1.382   4.209 -0.4121  0.2008 -0.2978
   77MOL0     C10326   5.259   0.586   4.672 -0.2133 -0.4517 -0.6190
   77MOL0     C10327   5.314   0.509   4.775 -0.7799  0.8130 -0.2316
   77MOL0     H10328   5.392   0.444   5.257  2.0447  1.1552 -0.2258
   77MOL0     H10329   5.488   0.314   5.442  0.6531  0.8930 -0.2317
   77MOL0     H10330   5.746   0.216   5.476 -0.4417 -0.8481 -1.0661
   77MOL0     H10331   5.596   0.217   5.573  0.2707  2.5514 -3.3919
   77MOL0     H10332   5.807   0.001   5.579 -2.2672 -1.8527 -1.9693
   77MOL0     H10333   5.807   0.136   5.697 -0.3818 -2.4123  2.1945
   77MOL0     H10334   5.655   0.037   5.822  0.9342 -1.6281 -0.2516
   77MOL0     H10335   5.548   0.004   5.689 -1.3301 -0.2617  2.6155
   77MOL0     H10336   5.725  -0.202   5.640  4.7114  1.1181  1.8901
   77MOL0     H10337   5.794  -0.159   5.776  0.6707 -0.6977 -0.1127
   77MOL0     H10338   5.653  -0.342   5.789  1.2408  0.7767 -2.3407
   77MOL0     H10339   5.577  -0.208   5.903 -1.1830  2.2786 -1.9951
   77MOL0     H10340   5.415  -0.350   5.777  1.4696  0.0912  1.1652
   77MOL0     H10341   5.399  -0.175   5.741 -0.1320  0.9275 -2.2124
   77MOL0     H10342   5.486  -0.198   5.516 -0.1859  0.6923  1.2557
   77MOL0     H10343   5.552  -0.355   5.562 -1.0847 -1.4312 -2.3206
   77MOL0     H10344   5.251  -0.322   5.570  1.0126  0.5429  0.7495
   77MOL0     H10345   5.355  -0.463   5.544 -1.4597 -0.6053  0.4845
   77MOL0     H10346   5.236  -0.154   5.372 -0.7460 -0.0328  0.7179
   77MOL0     H10347   5.124  -0.299   5.009  3.6353 -2.5644  0.6541
   77MOL0     H10348   5.075  -0.163   5.106 -1.3365 -3.2732  1.0251
   77MOL0     H10349   5.317  -0.209   4.920  0.5401  0.2302  1.3162
   77MOL0     H10350   5.321  -0.072   5.039 -3.9041  2.8089  0.2158
   77MOL0     H10351   5.259  -0.007   4.786 -1.0881  2.0836  0.1993
   77MOL0     H10352   5.141   0.052   4.898 -1.8440  0.6877  1.4467
   77MOL0     H10353   5.022  -0.057   4.721  1.3976 -0.5352 -2.0184
   77MOL0     H10354   4.992  -0.132   4.876 -1.3510  4.1557 -0.5489
   77MOL0     H10355   4.946  -0.408   4.867  0.5668 -0.0208  0.3878
   77MOL0     H10356   4.793  -0.614   4.843  0.1278 -2.7343 -2.3267
   77MOL0     H10357   4.650  -0.502   4.812  0.3459  1.4822 -1.4743
   77MOL0     H10358   4.694  -0.640   4.709  1.2266 -0.8614  0.3271
   77MOL0     H10359   4.472  -0.669   4.559  0.4591  2.0360 -0.1719
   77MOL0     H10360   4.297  -0.776   4.407 -4.6313  0.5906 -4.1677
   77MOL0     H10361   4.059  -0.813   4.119 -0.0496 -1.4140 -0.2810
   77MOL0     H10362   4.159  -0.873   4.247 -0.3714 -0.6201 -0.5688
   77MOL0     H10363   3.949  -0.775   4.332 -1.1114  1.7793  1.5631
   77MOL0     H10364   4.089  -0.688   4.403  0.9793 -3.0176  0.4811
   77MOL0     H10365   3.875  -0.609   4.207 -2.4435  0.8572  3.7453
   77MOL0     H10366   4.034  -0.533   4.176 -0.8865  2.3899  0.3515
   77MOL0     H10367   3.879  -0.519   4.447  1.5956  0.0586  1.0637
   77MOL0     H10368   4.036  -0.443   4.405  1.5322  1.7663 -2.5954
   77MOL0     H10369   3.770  -0.364   4.290  0.1017 -2.5695  0.5227
   77MOL0     H10370   3.924  -0.343   4.195  2.2432  0.0081  0.5933
   77MOL0     H10371   3.855  -0.236   4.475 -2.3907  0.9723 -1.4142
   77MOL0     H10372   4.007  -0.211   4.401  0.3277 -1.0562  3.1586
   77MOL0     H10373   3.740  -0.083   4.343 -1.8159  2.0677 -3.7495
   77MOL0     H10374   3.850  -0.107   4.208 -0.9598  1.3013 -0.7936
   77MOL0     H10375   3.899   0.122   4.307 -0.1433 -0.3454 -0.5810
   77MOL0     H10376   4.032   0.014   4.322  0.9813  1.2210 -0.1919
   77MOL0     H10377   4.343  -0.469   4.131  4.9213 -0.3593 -2.3034
   77MOL0     H10378   4.534  -0.369   4.265 -0.6754 -0.6534  0.1352
   77MOL0     H10379   4.907  -0.350   4.381  2.7072 -2.1840  0.7500
   77MOL0     H10380   5.063  -0.205   4.525 -2.6416  1.6486  1.5439
   77MOL0     H10381   5.608   0.003   5.182  0.7574 -0.1030 -0.7783
   77MOL0     H10382   5.515   0.128   4.988 -3.3432  1.0081 -0.7853
   77MOL0     H10383   5.458   0.761   4.963 -5.0448  0.8886  2.9901
   77MOL0     H10384   5.391   0.885   4.781  1.7918 -0.7018 -2.8474
   77MOL0     H10385   5.136   0.976   4.656 -4.3249 -1.6266 -0.7759
   77MOL0     H10386   5.302   0.977   4.588  0.5511 -1.9114  1.8601
   77MOL0     H10387   5.041   0.926   4.438 -0.4067 -0.8823 -0.3402
   77MOL0     H10388   5.217   0.920   4.371  3.1558  2.9991  1.1616
   77MOL0     H10389   5.259   1.141   4.388 -0.1991  1.2105 -0.1569
   77MOL0     H10390   5.103   1.170   4.470 -1.0315 -2.0704  0.6448
   77MOL0     H10391   5.013   1.065   4.235 -1.7044  0.9881 -1.0101
   77MOL0     H10392   5.178   1.128   4.179 -0.5039  2.4460  1.0557
   77MOL0     H10393   4.974   1.481   4.187  1.6386  1.3421  1.1436
   77MOL0     H10394   5.211   0.538   4.587 -3.2929  0.4943  0.4839
   77MOL0     H10395   5.305   0.401   4.768  3.8874  0.1507  1.1508
   78MOL0     O10396   0.678   0.459   3.903  0.2420 -0.8301  0.0981
   78MOL0     C10397   0.618   0.356   3.866  0.5074 -0.8840 -0.2161
   78MOL0     O10398   0.482   0.343   3.855  0.1340  0.6731  0.1262
   78MOL0     C10399   0.394   0.435   3.897  0.0583 -0.6706 -0.7091
   78MOL0     C10400   0.380   0.453   4.039  0.2297 -0.4887  0.6044
   78MOL0     C10401   0.291   0.546   4.087  0.2992  0.0071 -0.5999
   78MOL0     C10402   0.213   0.629   4.004 -0.5546 -0.6413 -1.0503
   78MOL0     O10403   0.121   0.709   4.064 -0.7598 -0.3067  0.8267
   78MOL0     C10404   0.130   0.850   4.036  0.4159  0.1389 -0.8200
   78MOL0     C10405   0.027   0.936   4.107 -0.6136  1.0722  0.7728
   78MOL0     C10406   0.051   0.946   4.264 -0.3689  1.3082  0.4244
   78MOL0     C10407   0.014   0.815   4.347  0.7096  0.4415  0.4487
   78MOL0     C10408  -0.024   0.841   4.501 -0.0861  0.1534 -0.7588
   78MOL0     C10409  -0.050   0.692   4.570 -0.4291  0.6769 -0.6848
   78MOL0     C10410  -0.188   0.616   4.540  0.3352  0.2283 -0.2503
   78MOL0     C10411  -0.180   0.465   4.588  0.9011 -0.0146  0.1486
   78MOL0     N10412  -0.151   0.444   4.733 -1.1956  0.2561  0.4484
   78MOL0     C10413  -0.254   0.463   4.825 -0.0671  0.1708  0.0695
   78MOL0     C10414  -0.196   0.435   4.942 -0.5443 -0.5852  0.3142
   78MOL0     C10415  -0.272   0.434   5.071 -0.5501 -1.6914 -0.4963
   78MOL0     C10416  -0.224   0.316   5.154  0.0222 -0.6897 -0.7030
   78MOL0     C10417  -0.325   0.266   5.262 -0.8790  0.0332  0.5809
   78MOL0     C10418  -0.249   0.174   5.357 -1.0202  0.9509 -1.3780
   78MOL0     O10419  -0.356   0.121   5.445  0.8165 -0.9188  0.6040
   78MOL0     C10420  -0.331   0.097   5.572  0.4771 -0.9636 -0.7812
   78MOL0     C10421  -0.432   0.020   5.643 -0.1959 -0.6621  0.0363
   78MOL0     C10422  -0.436   0.002   5.774 -0.0557  0.4696  0.4962
   78MOL0     C10423  -0.538  -0.097   5.832  0.4373  1.2309 -0.2630
   78MOL0     C10424  -0.338   0.057   5.850  0.6691 -0.1961 -0.0268
   78MOL0     C10425  -0.334   0.051   6.007 -0.1051 -0.6161 -0.0436
   78MOL0     O10426  -0.451   0.008   6.071  0.0433 -0.1070 -0.0781
   78MOL0     C10427  -0.449  -0.047   6.194  0.0442 -0.4575  0.1153
   78MOL0     C10428  -0.576  -0.045   6.260 -0.6181  1.1066  0.2080
   78MOL0     C10429  -0.587  -0.105   6.383  0.0203 -0.1473 -0.7772
   78MOL0     C10430  -0.475  -0.174   6.439  0.5586 -0.6422  0.3904
   78MOL0     O10431  -0.485  -0.235   6.572 -0.3865 -0.4753  0.0149
   78MOL0     C10432  -0.608  -0.236   6.635  0.2316  0.6804 -0.3013
   78MOL0     C10433  -0.612  -0.325   6.765 -0.9435 -0.1327 -1.2111
   78MOL0     C10434  -0.748  -0.357   6.828 -0.3505 -0.2670 -0.3418
   78MOL0     C10435  -0.813  -0.227   6.883 -0.5212  0.1227 -0.1414
   78MOL0     C10436  -0.917  -0.265   6.999  0.7118 -0.4350  0.0502
   78MOL0     C10437  -1.055  -0.298   6.938  0.0868  0.1248 -0.4866
   78MOL0     C10438  -1.128  -0.395   7.038  0.0584  0.6698  0.3595
   78MOL0     C10439  -1.058  -0.542   7.045  0.9183  0.7289 -0.1295
   78MOL0    Cl10440  -1.083  -0.635   6.902 -0.0914 -0.0491  0.0639
   78MOL0     C10441  -0.350  -0.174   6.374  0.1261 -0.0663 -0.7354
   78MOL0     C10442  -0.338  -0.104   6.258  0.4996 -0.2204 -0.4008
   78MOL0     O10443  -0.229   0.078   6.066 -0.6177 -0.3151 -0.1369
   78MOL0     C10444  -0.229   0.119   5.790  0.4272 -0.1880 -0.4137
   78MOL0     C10445  -0.225   0.143   5.651  0.1420  1.0434 -0.6186
   78MOL0     N10446  -0.052   0.420   4.926  0.5886 -0.0488 -0.0177
   78MOL0     N10447  -0.031   0.414   4.798 -0.4807 -0.0692 -0.6358
   78MOL0     C10448   0.230   0.615   3.865 -0.4929 -0.3002 -0.0407
   78MOL0     C10449   0.327   0.526   3.810  0.7214  0.0704 -0.5093
   78MOL0     C10450   0.702   0.241   3.811 -0.9281 -0.3220  0.9828
   78MOL0     C10451   0.649   0.184   3.707 -0.1057 -0.3650  1.0883
   78MOL0     C10452   0.718   0.072   3.653  0.0331  0.9631  0.0461
   78MOL0     C10453   0.825   0.005   3.716  0.6742 -0.2272 -0.3477
   78MOL0     O10454   0.884  -0.104   3.661  0.0532  0.3028 -0.8060
   78MOL0     C10455   0.965  -0.190   3.743 -0.5578  0.7212 -0.3035
   78MOL0     C10456   1.019  -0.300   3.647 -1.4219 -0.6112  1.1613
   78MOL0     C10457   1.076  -0.416   3.728  0.0001  0.6329 -0.5353
   78MOL0     C10458   1.187  -0.500   3.655 -0.2368 -0.9845  0.6296
   78MOL0     C10459   1.154  -0.643   3.656 -0.3036 -0.2824  0.3199
   78MOL0     C10460   1.148  -0.763   3.643  0.2679  0.0506  0.5303
   78MOL0     C10461   0.883   0.077   3.827 -0.3864 -0.1127 -0.2098
   78MOL0     C10462   0.813   0.195   3.871  0.3783 -0.0978 -0.3905
   78MOL0     H10463   0.440   0.381   4.093  0.8488 -2.5908 -2.6216
   78MOL0     H10464   0.284   0.588   4.186  0.6561 -0.9473 -0.1548
   78MOL0     H10465   0.226   0.888   4.072  0.5181 -1.9339  1.3305
   78MOL0     H10466   0.111   0.869   3.930 -1.8167 -0.9323 -0.6678
   78MOL0     H10467   0.043   1.038   4.070  1.6769  0.7630  0.7581
   78MOL0     H10468  -0.076   0.907   4.084 -0.3143  1.1646 -0.7902
   78MOL0     H10469   0.159   0.954   4.278 -0.2849 -2.1397  3.2603
   78MOL0     H10470   0.011   1.033   4.316  2.5191  3.4263 -0.6961
   78MOL0     H10471  -0.077   0.779   4.298  1.9807 -0.6715 -1.2056
   78MOL0     H10472   0.083   0.731   4.333  1.7206  1.4974 -1.3673
   78MOL0     H10473   0.066   0.884   4.546 -0.7532 -0.3569  1.1309
   78MOL0     H10474  -0.109   0.909   4.502  0.5168  0.9380 -1.2311
   78MOL0     H10475   0.031   0.621   4.553 -2.9077 -2.6930  0.4178
   78MOL0     H10476  -0.054   0.702   4.679 -1.6994 -3.1931 -0.2107
   78MOL0     H10477  -0.273   0.674   4.576  0.2773  0.6864 -1.1077
   78MOL0     H10478  -0.192   0.617   4.431  1.3576  1.6059 -0.3083
   78MOL0     H10479  -0.113   0.413   4.518  1.2361  1.3745 -0.5982
   78MOL0     H10480  -0.267   0.405   4.558  1.7648 -2.1018  1.5662
   78MOL0     H10481  -0.358   0.482   4.801  0.4715  1.9299 -1.0617
   78MOL0     H10482  -0.265   0.529   5.125 -3.5006 -2.7528  2.0382
   78MOL0     H10483  -0.378   0.422   5.045 -0.5898 -2.0497 -0.1729
   78MOL0     H10484  -0.131   0.344   5.204 -0.6289  0.6861 -0.2001
   78MOL0     H10485  -0.197   0.236   5.084  1.3043  2.0891 -3.6650
   78MOL0     H10486  -0.404   0.209   5.214 -0.6054 -0.1611  0.3591
   78MOL0     H10487  -0.371   0.355   5.305  0.7198 -0.6202  4.0016
   78MOL0     H10488  -0.175   0.233   5.411 -1.3814  0.6841 -0.5694
   78MOL0     H10489  -0.215   0.086   5.302 -0.3438  0.2427  0.1309
   78MOL0     H10490  -0.512  -0.016   5.579  0.1551 -4.1864  1.3865
   78MOL0     H10491  -0.637  -0.053   5.849 -1.1474 -2.0113 -0.2806
   78MOL0     H10492  -0.550  -0.179   5.760  1.0300  0.1922  0.7869
   78MOL0     H10493  -0.514  -0.151   5.924 -0.4738 -2.6545 -2.0826
   78MOL0     H10494  -0.666  -0.006   6.212 -2.0559 -0.4095  1.5387
   78MOL0     H10495  -0.688  -0.115   6.419  0.2112  0.9679  0.1214
   78MOL0     H10496  -0.654  -0.137   6.635 -0.3249  0.4697 -2.3037
   78MOL0     H10497  -0.677  -0.295   6.573 -0.4684  0.0416  1.0513
   78MOL0     H10498  -0.558  -0.416   6.736 -0.7916  0.0271 -1.4378
   78MOL0     H10499  -0.552  -0.274   6.841 -1.8395 -3.1444  1.7684
   78MOL0     H10500  -0.722  -0.419   6.915 -1.5182  0.5909  0.6685
   78MOL0     H10501  -0.820  -0.413   6.769 -1.1682 -5.0670  4.3937
   78MOL0     H10502  -0.735  -0.159   6.917  1.9502 -1.7802 -1.6395
   78MOL0     H10503  -0.878  -0.184   6.807  0.7851 -0.8609 -1.8724
   78MOL0     H10504  -0.924  -0.179   7.066 -2.5284 -0.1472 -0.5194
   78MOL0     H10505  -0.868  -0.340   7.063  4.4289  4.3582  3.6014
   78MOL0     H10506  -1.115  -0.207   6.928  3.5355  2.7743  0.8546
   78MOL0     H10507  -1.039  -0.348   6.842 -0.4368 -3.0730  0.9615
   78MOL0     H10508  -1.229  -0.417   7.004 -0.2802 -3.4684  3.2488
   78MOL0     H10509  -1.128  -0.362   7.142  0.3944  1.9494 -0.0220
   78MOL0     H10510  -1.102  -0.597   7.129 -0.9670  0.5732 -1.1762
   78MOL0     H10511  -0.952  -0.541   7.073  0.2242 -0.0940  2.9941
   78MOL0     H10512  -0.267  -0.225   6.421  0.1110  0.0713 -0.5606
   78MOL0     H10513  -0.239  -0.113   6.216  0.7014  1.5563 -0.3720
   78MOL0     H10514  -0.153   0.171   5.847 -0.8440  1.4426 -0.1490
   78MOL0     H10515  -0.138   0.185   5.602  0.7850  1.2478  0.6463
   78MOL0     H10516   0.186   0.686   3.796 -2.2346 -2.2914 -1.0915
   78MOL0     H10517   0.343   0.515   3.703 -2.9053 -1.9711 -1.0359
   78MOL0     H10518   0.559   0.224   3.661  0.1281  0.0022  0.9533
   78MOL0     H10519   0.677   0.022   3.566  1.9104 -0.5735 -0.0041
   78MOL0     H10520   1.046  -0.129   3.784  0.8768  0.0686 -2.0547
   78MOL0     H10521   0.913  -0.232   3.830  2.8587  0.7824  1.9746
   78MOL0     H10522   1.092  -0.237   3.596 -1.1533 -0.2691  1.9520
   78MOL0     H10523   0.936  -0.328   3.581 -0.3397  0.0020 -0.5413
   78MOL0     H10524   1.001  -0.484   3.769  1.8483  1.1606  4.2808
   78MOL0     H10525   1.126  -0.366   3.811  0.8694  1.4589 -1.5299
   78MOL0     H10526   1.280  -0.488   3.711  0.6135  0.5112 -1.0133
   78MOL0     H10527   1.194  -0.453   3.557  0.1175 -0.2331  1.0063
   78MOL0     H10528   1.136  -0.869   3.636  3.8306 -0.5563  1.5101
   78MOL0     H10529   0.971   0.050   3.885 -0.1015  0.9721 -0.1186
   78MOL0     H10530   0.851   0.248   3.959 -0.0464 -2.6241  1.4226
   79MOL0     O10531   1.027  10.321   9.378  0.1474  0.1201 -0.3813
   79MOL0     C10532   0.954  10.334   9.289 -0.5841 -0.4102  0.4523
   79MOL0     O10533   0.831  10.290   9.290 -0.6762  0.5022  0.5904
   79MOL0     C10534   0.781  10.217   9.395  0.7574 -0.0801  0.3882
   79MOL0     C10535   0.678  10.122   9.374 -0.4411  0.6419 -0.6459
   79MOL0     C10536   0.628  10.035   9.480  0.4989 -0.5069 -0.3082
   79MOL0     C10537   0.657  10.056   9.613 -0.4423 -0.7965 -0.0744
   79MOL0     O10538   0.619   9.988   9.724 -0.2288  1.1079  0.1478
   79MOL0     C10539   0.552   9.860   9.703  0.0538  0.3714  0.4236
   79MOL0     C10540   0.516   9.790   9.833  0.1131 -0.1936 -0.4871
   79MOL0     C10541   0.406   9.868   9.911  0.2808  0.4804  0.2882
   79MOL0     C10542   0.322   9.771   9.990 -0.1769 -0.8639 -0.4770
   79MOL0     C10543   0.404   9.707  10.107  0.3966  0.0063  0.7848
   79MOL0     C10544   0.370   9.781  10.231  0.3687  0.6352  0.3287
   79MOL0     C10545   0.454   9.727  10.350 -0.0856 -0.0834 -0.0849
   79MOL0     C10546   0.548   9.836  10.406 -0.1489  0.2906 -1.1425
   79MOL0     N10547   0.657   9.808  10.508 -0.0806  0.7207  0.6374
   79MOL0     C10548   0.705   9.676  10.531 -0.2648  0.2840 -0.2160
   79MOL0     C10549   0.818   9.694  10.617 -0.6260 -0.4598  0.8891
   79MOL0     C10550   0.916   9.603  10.690  1.1021 -0.0752 -0.0087
   79MOL0     C10551   0.936   9.471  10.609 -0.9362  0.9918 -0.8696
   79MOL0     C10552   1.013   9.494  10.471 -0.2084  0.1071 -0.6543
   79MOL0     C10553   0.950   9.428  10.343 -0.5790 -0.0335 -0.2249
   79MOL0     O10554   1.014   9.473  10.230  0.1083 -0.0359  0.0323
   79MOL0     C10555   1.151   9.459  10.208  0.1287  0.7102  0.1481
   79MOL0     C10556   1.217   9.548  10.117  1.6704 -0.1444 -0.2700
   79MOL0     C10557   1.356   9.537  10.095  0.2758  0.7328  0.9090
   79MOL0     C10558   1.415   9.653  10.013 -0.3793  1.4163 -0.1133
   79MOL0     C10559   1.431   9.433  10.151 -0.4129  0.0953 -0.0835
   79MOL0     C10560   1.588   9.432  10.155 -0.1960 -0.7783  0.1581
   79MOL0     O10561   1.664   9.513  10.066  0.8237  0.3152  0.6042
   79MOL0     C10562   1.803   9.494  10.080 -0.5220 -0.5844  0.3844
   79MOL0     C10563   1.877   9.473   9.964 -0.6591  0.3941  0.6491
   79MOL0     C10564   2.020   9.458   9.974 -0.1399 -0.8736  1.0861
   79MOL0     C10565   2.083   9.483  10.094 -0.5720  0.3471 -0.9024
   79MOL0     O10566   2.224   9.490  10.094  0.7933 -0.1409 -0.2486
   79MOL0     C10567   2.316   9.399  10.037 -0.1855 -0.1913  0.2881
   79MOL0     C10568   2.440   9.470   9.991  0.0062 -0.2081  0.0361
   79MOL0     C10569   2.438   9.509   9.841 -0.8119 -0.4415  0.4600
   79MOL0     C10570   2.561   9.600   9.803 -0.1235  0.1320 -0.3966
   79MOL0     C10571   2.582   9.718   9.898 -0.6576  1.1429 -1.2468
   79MOL0     C10572   2.697   9.808   9.852 -0.4154 -0.3711 -0.3832
   79MOL0     C10573   2.714   9.928   9.941  0.3755  0.2952  0.3080
   79MOL0     C10574   2.838  10.001   9.909 -0.6229 -0.8229  0.5066
   79MOL0    Cl10575   2.902  10.101  10.045  0.2866  0.5385  0.2683
   79MOL0     C10576   2.005   9.533  10.200 -0.6653  0.1901 -0.1690
   79MOL0     C10577   1.865   9.537  10.190 -0.3675  0.2905 -1.3980
   79MOL0     O10578   1.632   9.352  10.234 -0.2525 -0.1884 -0.2317
   79MOL0     C10579   1.360   9.334  10.221 -0.4433 -0.4160 -1.0553
   79MOL0     C10580   1.220   9.341  10.249  0.2217  0.9976 -0.4128
   79MOL0     N10581   0.832   9.832  10.625 -0.3723 -0.2744  0.2700
   79MOL0     N10582   0.737   9.898  10.568  0.5614  0.4635  0.4834
   79MOL0     C10583   0.748  10.153   9.637  0.0620 -1.3300 -0.2535
   79MOL0     C10584   0.805  10.236   9.533 -0.2070 -0.9282  0.9185
   79MOL0     C10585   0.993  10.416   9.170  0.7261 -0.2411  0.2380
   79MOL0     C10586   1.110  10.481   9.179  0.6330 -0.1721 -0.6666
   79MOL0     C10587   1.140  10.576   9.078  0.3331 -0.1819  0.2563
   79MOL0     C10588   1.066  10.580   8.953 -0.4685 -0.4015  0.1787
   79MOL0     O10589   1.100  10.651   8.844  0.1790  0.2217  0.2188
   79MOL0     C10590   1.148  10.786   8.872  0.1592 -0.3744  0.1517
   79MOL0     C10591   1.120  10.887   8.764 -0.3451 -0.4912  0.9412
   79MOL0     C10592   1.236  10.984   8.740  0.1376  0.1359  0.2063
   79MOL0     C10593   1.266  11.074   8.869  0.6911  0.5920 -0.0558
   79MOL0     C10594   1.405  11.131   8.889  0.3375 -0.1305 -0.4878
   79MOL0     C10595   1.515  11.181   8.907  0.6575  0.4471  0.3615
   79MOL0     C10596   0.943  10.502   8.946  0.1263 -1.0804 -0.8858
   79MOL0     C10597   0.903  10.433   9.057  0.3252 -0.2524 -0.3026
   79MOL0     H10598   0.637  10.110   9.275 -1.1837  2.3765 -0.5784
   79MOL0     H10599   0.561   9.957   9.445  2.4702 -1.2495 -2.6696
   79MOL0     H10600   0.458   9.872   9.649  1.1842 -0.6392 -1.9119
   79MOL0     H10601   0.603   9.787   9.639 -2.4353  1.4334 -3.0394
   79MOL0     H10602   0.471   9.693   9.812  0.4729 -0.6477  0.7519
   79MOL0     H10603   0.602   9.780   9.900 -2.9546 -0.0704  3.9366
   79MOL0     H10604   0.469   9.938   9.967  1.3267  0.8776 -1.2981
   79MOL0     H10605   0.334   9.915   9.843 -1.9834 -0.5351  1.8950
   79MOL0     H10606   0.235   9.829  10.022 -0.1833 -0.0668 -1.8706
   79MOL0     H10607   0.291   9.680   9.938  2.8397 -1.4808 -1.4430
   79MOL0     H10608   0.391   9.599  10.105  1.3847 -0.1236 -1.4137
   79MOL0     H10609   0.512   9.712  10.094  0.3545 -1.8467 -0.6828
   79MOL0     H10610   0.371   9.889  10.216 -2.3410  0.3772 -3.0200
   79MOL0     H10611   0.266   9.760  10.259 -0.0684  2.5330  0.2450
   79MOL0     H10612   0.393   9.691  10.434  0.5033 -1.0993 -0.0785
   79MOL0     H10613   0.501   9.637  10.311 -1.2492 -0.2834 -1.0571
   79MOL0     H10614   0.486   9.917  10.446  3.0801  1.8505  1.1110
   79MOL0     H10615   0.596   9.883  10.320  1.1444 -0.8819 -1.1013
   79MOL0     H10616   0.660   9.583  10.498 -0.6409  1.2296 -2.5322
   79MOL0     H10617   1.010   9.658  10.694  0.7401  0.6608 -1.0710
   79MOL0     H10618   0.885   9.593  10.795  1.9620  3.9165  0.7822
   79MOL0     H10619   0.839   9.429  10.582 -0.5027  0.3406 -1.4454
   79MOL0     H10620   0.992   9.396  10.665 -3.1409  0.0266  0.1160
   79MOL0     H10621   1.104   9.437  10.488 -1.2490 -1.5727 -0.4760
   79MOL0     H10622   1.030   9.602  10.463 -2.5127  0.5035 -1.0707
   79MOL0     H10623   0.844   9.454  10.350 -0.1497  2.5281 -1.9941
   79MOL0     H10624   0.963   9.320  10.355  0.8009  0.3354  2.4544
   79MOL0     H10625   1.149   9.624  10.081 -1.7590 -1.5793  2.5366
   79MOL0     H10626   1.491   9.700  10.077  0.5596 -1.6189  1.1898
   79MOL0     H10627   1.460   9.597   9.930  1.4578  1.6175  0.7033
   79MOL0     H10628   1.344   9.726   9.973 -3.4380 -0.4004  1.5989
   79MOL0     H10629   1.828   9.450   9.869  2.9708 -0.7359 -1.1274
   79MOL0     H10630   2.091   9.428   9.897 -0.5830  1.3609 -0.2773
   79MOL0     H10631   2.345   9.316  10.102 -1.4119 -0.9402 -0.0994
   79MOL0     H10632   2.275   9.360   9.944 -0.3975  4.0120 -1.6384
   79MOL0     H10633   2.438   9.562  10.051 -1.9745 -0.9393  1.1678
   79MOL0     H10634   2.532   9.418  10.021  0.7340 -0.4018 -2.3585
   79MOL0     H10635   2.348   9.567   9.817  0.5798  2.6178  1.9786
   79MOL0     H10636   2.443   9.430   9.766  2.5372  1.3170 -1.4067
   79MOL0     H10637   2.647   9.534   9.788  0.7534  1.3582 -0.9397
   79MOL0     H10638   2.547   9.651   9.707 -0.3582 -0.8220 -0.8753
   79MOL0     H10639   2.612   9.688   9.998 -1.9486  0.5244 -1.0265
   79MOL0     H10640   2.485   9.768   9.900 -1.9108 -1.1646 -0.1965
   79MOL0     H10641   2.781   9.739   9.854  0.1358  0.2924  0.3591
   79MOL0     H10642   2.676   9.848   9.752 -1.0970 -4.1612 -1.9125
   79MOL0     H10643   2.727   9.897  10.046  1.1224  4.7920  1.7308
   79MOL0     H10644   2.632  10.000   9.942  0.8187  1.0318 -3.3218
   79MOL0     H10645   2.805  10.069   9.830  1.8959  1.0495  0.9392
   79MOL0     H10646   2.914   9.935   9.868 -0.3518 -1.4508  1.9409
   79MOL0     H10647   2.053   9.545  10.296 -0.8565  1.5382 -0.2091
   79MOL0     H10648   1.822   9.575  10.282  1.5563  1.4017 -0.9145
   79MOL0     H10649   1.412   9.256  10.275  0.8028  0.8958 -0.2809
   79MOL0     H10650   1.172   9.260  10.303  3.9010 -0.7898  0.5082
   79MOL0     H10651   0.770  10.183   9.739  1.5458 -1.7125 -0.4429
   79MOL0     H10652   0.860  10.326   9.559 -2.7475  2.2525 -3.4074
   79MOL0     H10653   1.188  10.469   9.252  1.3616 -0.3103 -1.4493
   79MOL0     H10654   1.217  10.653   9.091 -1.9610  2.4581 -0.7663
   79MOL0     H10655   1.108  10.822   8.967  1.8975  0.7988  0.4881
   79MOL0     H10656   1.256  10.781   8.889  0.2332  2.1919  0.8971
   79MOL0     H10657   1.030  10.947   8.779  1.2627  2.2140  0.4011
   79MOL0     H10658   1.110  10.828   8.672 -0.2286 -1.0726  1.3004
   79MOL0     H10659   1.210  11.047   8.655 -2.6303 -1.5388 -0.2901
   79MOL0     H10660   1.329  10.929   8.722 -1.1496 -2.8483  1.8869
   79MOL0     H10661   1.254  11.013   8.958 -2.8608 -1.0027 -1.4237
   79MOL0     H10662   1.189  11.152   8.879  0.8978  1.1234 -1.9956
   79MOL0     H10663   1.605  11.238   8.913  1.5436 -0.7425 -0.9834
   79MOL0     H10664   0.883  10.507   8.856  0.6618 -0.3784 -1.2203
   79MOL0     H10665   0.808  10.381   9.054  0.7581 -1.2542  1.7202
   80MOL0     O10666   2.018   9.063  10.572 -0.1051 -0.9573 -0.6892
   80MOL0     C10667   2.064   9.180  10.577  0.5247 -0.4436  0.4554
   80MOL0     O10668   2.056   9.274  10.480  0.3409 -0.7846  0.0112
   80MOL0     C10669   2.052   9.221  10.354  0.5152 -0.5113  1.1465
   80MOL0     C10670   1.931   9.224  10.283  0.3909  0.9119 -0.5021
   80MOL0     C10671   1.924   9.179  10.151  0.5313  0.1343  0.4995
   80MOL0     C10672   2.034   9.126  10.088  0.5281  0.6592 -0.2700
   80MOL0     O10673   2.044   9.081   9.959 -1.3562  0.2304 -0.2585
   80MOL0     C10674   1.959   9.143   9.862 -0.7816  0.0643  1.3928
   80MOL0     C10675   2.052   9.192   9.745 -0.2072 -0.9831  0.5029
   80MOL0     C10676   1.973   9.280   9.650 -0.1202  0.1634  0.6784
   80MOL0     C10677   2.056   9.356   9.553 -0.2101  0.0173 -0.0398
   80MOL0     C10678   2.128   9.260   9.463  0.3815  0.8614 -0.0835
   80MOL0     C10679   2.031   9.194   9.362  0.1345 -0.7299  0.1260
   80MOL0     C10680   2.098   9.201   9.226 -1.1487  0.8276 -0.6345
   80MOL0     C10681   2.101   9.344   9.163 -0.4261  0.4104  0.5563
   80MOL0     N10682   2.187   9.347   9.050 -0.6291  0.0033 -0.4878
   80MOL0     C10683   2.174   9.264   8.943  0.7996 -0.1528  0.8042
   80MOL0     C10684   2.264   9.314   8.854 -0.5939  0.1804 -0.3617
   80MOL0     C10685   2.293   9.247   8.723  0.2999 -0.5932  0.2709
   80MOL0     C10686   2.326   9.097   8.733 -0.0310  0.4670  0.6173
   80MOL0     C10687   2.471   9.053   8.783  0.2069 -0.7992 -0.3349
   80MOL0     C10688   2.512   8.906   8.786  0.0359 -0.4727  0.2210
   80MOL0     O10689   2.425   8.844   8.882 -0.6402  0.1705  0.9682
   80MOL0     C10690   2.460   8.870   9.017 -0.8569 -0.2185  0.4807
   80MOL0     C10691   2.572   8.803   9.070  0.3248  0.0442 -0.2565
   80MOL0     C10692   2.607   8.822   9.203 -0.0553 -0.8994 -1.2580
   80MOL0     C10693   2.746   8.759   9.243 -0.3108  0.2383  0.4113
   80MOL0     C10694   2.530   8.911   9.286 -0.0921 -0.0950  0.3237
   80MOL0     C10695   2.566   8.944   9.431  0.1477 -0.0548  0.6509
   80MOL0     O10696   2.482   9.040   9.487 -0.8255 -0.6545 -0.8030
   80MOL0     C10697   2.505   9.068   9.620  1.1778 -0.1885 -0.2160
   80MOL0     C10698   2.627   9.097   9.673 -0.3650  0.1640  0.7352
   80MOL0     C10699   2.646   9.118   9.807 -0.6726 -0.2518 -0.0501
   80MOL0     C10700   2.535   9.111   9.898  0.2792 -0.3366  0.2488
   80MOL0     O10701   2.543   9.138  10.037 -0.1913  0.0020  0.2207
   80MOL0     C10702   2.671   9.157  10.099 -0.3024 -1.4833  0.0709
   80MOL0     C10703   2.748   9.025  10.143 -0.1947  0.2180  0.1957
   80MOL0     C10704   2.698   8.975  10.284  0.2591  0.9187 -0.3339
   80MOL0     C10705   2.547   8.938  10.289  0.1615  0.0444 -0.4005
   80MOL0     C10706   2.494   8.895  10.427 -0.1887  0.3530 -0.6422
   80MOL0     C10707   2.544   8.990  10.542 -0.0295  0.0849  0.0756
   80MOL0     C10708   2.449   9.000  10.664  0.5404  0.4082  0.0919
   80MOL0     C10709   2.516   9.059  10.789 -0.4120 -0.0211  0.1663
   80MOL0    Cl10710   2.574   9.218  10.729  0.0164  0.1906 -0.1196
   80MOL0     C10711   2.410   9.087   9.848 -0.3436  0.5990  0.9785
   80MOL0     C10712   2.397   9.054   9.715  0.7262 -0.0125 -0.1827
   80MOL0     O10713   2.657   8.887   9.482 -0.2586  0.4635  0.2464
   80MOL0     C10714   2.409   8.959   9.236 -0.2470 -0.4568 -0.3306
   80MOL0     C10715   2.377   8.937   9.103 -0.0108  0.7086 -0.8124
   80MOL0     N10716   2.341   9.418   8.913 -0.8763 -1.2447 -0.2239
   80MOL0     N10717   2.288   9.439   9.028 -0.2957  0.0515  0.5873
   80MOL0     C10718   2.154   9.125  10.154 -0.7504 -0.9179  0.0858
   80MOL0     C10719   2.163   9.156  10.291 -0.0327  0.2285 -1.3181
   80MOL0     C10720   2.116   9.235  10.702  0.5350 -0.0139  0.1611
   80MOL0     C10721   2.088   9.159  10.819 -0.1302  0.9187  0.2458
   80MOL0     C10722   2.141   9.206  10.941  0.6468  1.4618  0.5349
   80MOL0     C10723   2.235   9.307  10.948 -0.0979  0.4281 -0.0153
   80MOL0     O10724   2.288   9.320  11.074 -0.3528  0.7422 -0.0008
   80MOL0     C10725   2.303   9.454  11.120  0.7405  0.3731  1.2003
   80MOL0     C10726   2.254   9.458  11.271  0.5034 -0.4422  0.8938
   80MOL0     C10727   2.101   9.487  11.292 -1.3637  0.0213  0.6295
   80MOL0     C10728   2.051   9.548  11.424  0.5463  0.4114 -0.0298
   80MOL0     C10729   1.908   9.566  11.449 -0.6284  0.9154  0.4422
   80MOL0     C10730   1.787   9.585  11.450 -1.3981  0.3999  0.0573
   80MOL0     C10731   2.272   9.373  10.825  0.1680 -0.5220  0.2657
   80MOL0     C10732   2.205   9.338  10.711  0.0632 -0.5162 -0.7437
   80MOL0     H10733   1.841   9.260  10.332 -0.9026  0.4567 -2.4421
   80MOL0     H10734   1.834   9.211  10.100  2.4857  2.7790 -1.5827
   80MOL0     H10735   1.902   9.058   9.823  0.1530 -0.0931  0.3214
   80MOL0     H10736   1.901   9.226   9.903 -1.1244  1.6667 -1.9944
   80MOL0     H10737   2.128   9.255   9.792 -0.0847 -0.6785 -0.0899
   80MOL0     H10738   2.096   9.104   9.696  3.3966  0.1425  1.4244
   80MOL0     H10739   1.890   9.219   9.612 -0.6592  0.9837  0.5027
   80MOL0     H10740   1.928   9.357   9.713  1.3726  0.3285  1.5992
   80MOL0     H10741   1.986   9.418   9.497  0.9788  0.2333 -1.3672
   80MOL0     H10742   2.116   9.426   9.613 -1.9803  0.3642  1.3998
   80MOL0     H10743   2.205   9.318   9.411 -0.1807  1.3167 -0.4082
   80MOL0     H10744   2.190   9.186   9.516  2.9137  1.6620 -1.7156
   80MOL0     H10745   2.001   9.097   9.402  2.2706 -1.2384  0.5857
   80MOL0     H10746   1.940   9.254   9.345  0.1034 -0.2302  1.8834
   80MOL0     H10747   2.202   9.170   9.241 -1.7130 -2.3018 -2.4189
   80MOL0     H10748   2.068   9.122   9.157  3.1257 -0.7589 -1.0032
   80MOL0     H10749   2.131   9.425   9.230 -0.1970 -1.6492  3.1105
   80MOL0     H10750   1.999   9.350   9.124 -0.9448 -3.1455  1.0784
   80MOL0     H10751   2.095   9.191   8.934 -0.4597  1.0501  1.7136
   80MOL0     H10752   2.199   9.254   8.668 -1.3293  1.8883  3.0257
   80MOL0     H10753   2.375   9.293   8.667 -2.2866  0.2813 -3.1103
   80MOL0     H10754   2.311   9.062   8.630 -0.4750 -2.0668  1.4717
   80MOL0     H10755   2.244   9.050   8.788 -1.6288  0.2540 -1.7621
   80MOL0     H10756   2.488   9.097   8.882 -0.9201  3.0473 -1.6448
   80MOL0     H10757   2.534   9.103   8.709 -1.3453  1.1230 -0.4449
   80MOL0     H10758   2.618   8.904   8.812  0.1284  1.1705  0.0854
   80MOL0     H10759   2.479   8.859   8.693 -3.1105 -0.0351  1.0001
   80MOL0     H10760   2.616   8.734   8.999 -4.0186 -1.3862 -1.9167
   80MOL0     H10761   2.788   8.705   9.158  1.2617  0.3630  1.0784
   80MOL0     H10762   2.824   8.830   9.273  1.2942 -0.7154 -1.3245
   80MOL0     H10763   2.728   8.689   9.326  0.3728  1.4510  1.6192
   80MOL0     H10764   2.707   9.118   9.604 -1.4796  3.5176  0.2834
   80MOL0     H10765   2.744   9.138   9.849 -2.3070  0.9982  3.5349
   80MOL0     H10766   2.733   9.213  10.028 -1.2810  1.1095  1.1526
   80MOL0     H10767   2.652   9.211  10.192  1.1508 -0.1644 -0.3568
   80MOL0     H10768   2.736   8.944  10.070 -2.4613  0.1859  0.5193
   80MOL0     H10769   2.855   9.045  10.145  0.2691 -2.0392  1.0409
   80MOL0     H10770   2.732   9.042  10.364 -0.5199  0.2861  0.5403
   80MOL0     H10771   2.752   8.885  10.314 -0.3274  0.8156  0.4623
   80MOL0     H10772   2.491   9.030  10.268  1.9165  1.3503  0.4068
   80MOL0     H10773   2.518   8.874  10.205  2.2372  0.5252 -1.5560
   80MOL0     H10774   2.508   8.788  10.445 -1.1340  0.6597  2.4546
   80MOL0     H10775   2.386   8.908  10.424 -0.2617 -0.3505 -2.7149
   80MOL0     H10776   2.646   8.968  10.576 -0.4546 -0.9285  0.7486
   80MOL0     H10777   2.560   9.089  10.496  0.5784 -0.7518 -1.6199
   80MOL0     H10778   2.436   8.895  10.694 -1.8110  0.6456  0.1046
   80MOL0     H10779   2.350   9.040  10.637  1.4949  1.9375 -1.3494
   80MOL0     H10780   2.596   8.989  10.817 -0.2995  0.0547  0.0382
   80MOL0     H10781   2.442   9.065  10.869  1.0253  0.4319  1.5187
   80MOL0     H10782   2.327   9.100   9.917  0.8507  0.5753  2.4922
   80MOL0     H10783   2.303   9.011   9.683  0.5355  1.6605 -2.0321
   80MOL0     H10784   2.351   9.028   9.297  1.1511  1.7086 -1.3097
   80MOL0     H10785   2.277   8.968   9.075 -0.8250  1.5848  2.5847
   80MOL0     H10786   2.237   9.096  10.091 -1.1158  0.9054 -1.3378
   80MOL0     H10787   2.252   9.138  10.349  0.6899  1.1527 -2.1196
   80MOL0     H10788   2.025   9.071  10.824  3.5242 -2.0305 -0.9244
   80MOL0     H10789   2.108   9.153  11.030  1.7725 -0.3326 -0.0651
   80MOL0     H10790   2.410   9.475  11.111  0.5630  0.4696 -1.2185
   80MOL0     H10791   2.250   9.528  11.059 -0.6881 -0.1423  1.7605
   80MOL0     H10792   2.298   9.545  11.321 -1.6906  2.2573 -1.4865
   80MOL0     H10793   2.287   9.361  11.308 -1.2987 -0.9440  1.2968
   80MOL0     H10794   2.036   9.401  11.272 -1.9130  0.8464 -1.3713
   80MOL0     H10795   2.071   9.566  11.223 -0.5553  0.4666  0.7735
   80MOL0     H10796   2.096   9.647  11.439  1.0277  0.7044 -2.9075
   80MOL0     H10797   2.084   9.487  11.509  0.8909  1.6408  0.7462
   80MOL0     H10798   1.683   9.604  11.466 -1.2141 -0.1954  2.2848
   80MOL0     H10799   2.365   9.427  10.818  0.4748 -1.2603 -3.0317
   80MOL0     H10800   2.240   9.387  10.620 -1.2912  2.3361  0.1724
   81MOL0     O10801   6.960   3.311   5.880 -0.4386  0.3493  0.5921
   81MOL0     C10802   7.040   3.320   5.969 -0.7316  0.5907 -0.9270
   81MOL0     O10803   7.108   3.439   6.004  0.0518  0.1364  0.3073
   81MOL0     C10804   7.094   3.560   5.945  0.2611  1.3014 -0.0095
   81MOL0     C10805   6.989   3.592   5.864  0.4721 -0.5221 -0.0674
   81MOL0     C10806   6.985   3.735   5.821 -0.4345  0.7644  0.1246
   81MOL0     C10807   7.091   3.818   5.846 -0.4474  0.2197  0.5071
   81MOL0     O10808   7.089   3.944   5.797 -0.5805  0.9610  0.3885
   81MOL0     C10809   7.204   4.002   5.763 -0.7304 -0.2920 -0.0684
   81MOL0     C10810   7.178   4.132   5.688  0.4603  0.1634 -0.6192
   81MOL0     C10811   7.074   4.130   5.574  0.1923  0.0681  0.6628
   81MOL0     C10812   7.069   4.257   5.474  0.2628 -0.6255 -0.8854
   81MOL0     C10813   6.957   4.259   5.379 -0.1363  0.5784 -0.8722
   81MOL0     C10814   6.962   4.369   5.269 -0.4785  0.5967 -0.0106
   81MOL0     C10815   7.063   4.337   5.154  0.9027 -0.2300 -0.1744
   81MOL0     C10816   7.034   4.430   5.028  0.9098 -0.4917  0.8144
   81MOL0     N10817   7.128   4.406   4.915 -0.2085 -1.0370 -0.0692
   81MOL0     C10818   7.105   4.370   4.778  0.3176  0.5457 -0.5683
   81MOL0     C10819   7.228   4.371   4.718  1.3304  0.5734  0.4482
   81MOL0     C10820   7.250   4.329   4.570 -0.4135 -0.0351  0.6848
   81MOL0     C10821   7.288   4.447   4.479 -0.2590  0.3109 -0.0263
   81MOL0     C10822   7.365   4.415   4.349  0.2930 -0.3703  0.1018
   81MOL0     C10823   7.389   4.548   4.265 -0.1189 -0.1734  0.4932
   81MOL0     O10824   7.440   4.496   4.138 -0.8209 -1.0533 -0.6434
   81MOL0     C10825   7.372   4.501   4.019  0.2583 -0.0209 -0.2235
   81MOL0     C10826   7.444   4.480   3.909 -0.2443 -0.3617 -1.0904
   81MOL0     C10827   7.390   4.463   3.782 -0.0494 -0.3171  0.9112
   81MOL0     C10828   7.493   4.423   3.676 -0.5134  0.2504 -0.5827
   81MOL0     C10829   7.254   4.488   3.768  0.8266  0.4234  1.0065
   81MOL0     C10830   7.185   4.486   3.627 -0.1846  0.4162  0.3907
   81MOL0     O10831   7.266   4.476   3.519  1.5474  0.7560 -0.5763
   81MOL0     C10832   7.230   4.477   3.385  0.5576 -0.0441 -0.2975
   81MOL0     C10833   7.114   4.525   3.329  0.3872  0.1251 -0.6559
   81MOL0     C10834   7.095   4.519   3.190  0.4627 -0.8537 -0.0848
   81MOL0     C10835   7.203   4.477   3.107 -0.5819 -0.4963 -0.0848
   81MOL0     O10836   7.181   4.466   2.972  0.0192  0.0608  0.2004
   81MOL0     C10837   7.226   4.334   2.932  0.0051 -1.0874  0.5930
   81MOL0     C10838   7.208   4.326   2.785  0.3117 -0.7223 -0.3107
   81MOL0     C10839   7.065   4.277   2.752  0.6938  0.3074 -0.1097
   81MOL0     C10840   7.047   4.299   2.600 -0.0097  1.0219 -0.7597
   81MOL0     C10841   6.906   4.280   2.555 -0.6007 -0.3970  0.4428
   81MOL0     C10842   6.913   4.289   2.408 -0.2050 -0.0247  0.3459
   81MOL0     C10843   6.769   4.298   2.348  0.9323 -0.3090 -0.9027
   81MOL0     C10844   6.771   4.296   2.194  0.7069 -0.3614 -0.0560
   81MOL0    Cl10845   6.611   4.330   2.116  0.5026 -0.1385 -0.8671
   81MOL0     C10846   7.325   4.439   3.163  0.3824 -0.6907 -0.0609
   81MOL0     C10847   7.330   4.433   3.298  0.9427  1.2822 -0.4860
   81MOL0     O10848   7.065   4.498   3.617  0.4351  0.5480  0.0395
   81MOL0     C10849   7.176   4.523   3.883 -0.8868  0.5632 -0.0713
   81MOL0     C10850   7.233   4.517   4.008  0.0385  0.1837  0.1743
   81MOL0     N10851   7.315   4.421   4.810 -0.2707 -0.0903  0.8715
   81MOL0     N10852   7.261   4.447   4.916  0.4728 -0.3821 -0.5807
   81MOL0     C10853   7.197   3.773   5.928 -0.2732 -0.1446 -1.1004
   81MOL0     C10854   7.198   3.639   5.975 -0.1236 -0.8913  0.5165
   81MOL0     C10855   7.069   3.210   6.057  0.2163  0.5996 -1.0048
   81MOL0     C10856   7.116   3.089   6.009  1.3054  0.1095 -0.3541
   81MOL0     C10857   7.152   2.983   6.099  0.0850 -0.3162  1.2989
   81MOL0     C10858   7.129   2.998   6.241  0.4408  0.3260  0.6173
   81MOL0     O10859   7.180   2.898   6.314 -0.2807 -0.1618  0.2079
   81MOL0     C10860   7.092   2.796   6.307  0.1559 -0.0672  0.1550
   81MOL0     C10861   7.157   2.681   6.394 -0.2845  0.0509 -0.3159
   81MOL0     C10862   7.065   2.569   6.431 -1.1129 -0.5976  0.5366
   81MOL0     C10863   7.135   2.459   6.512  0.4844  0.0098  0.8581
   81MOL0     C10864   7.024   2.376   6.570  0.9204  0.6721 -0.4033
   81MOL0     C10865   6.941   2.324   6.646  0.5162  0.1076 -0.5192
   81MOL0     C10866   7.076   3.117   6.293  0.1716  0.6846  0.2812
   81MOL0     C10867   7.052   3.219   6.201  0.7365 -0.6967 -0.3271
   81MOL0     H10868   6.904   3.530   5.837  0.3143 -0.0302 -0.7443
   81MOL0     H10869   6.907   3.771   5.755 -1.3323  1.6232  1.6002
   81MOL0     H10870   7.259   4.029   5.853 -3.4967  2.8173  0.8877
   81MOL0     H10871   7.265   3.941   5.695  0.0546  3.3305 -2.9643
   81MOL0     H10872   7.141   4.196   5.768  1.8278  0.4605 -0.1941
   81MOL0     H10873   7.275   4.167   5.652  2.0157 -1.7280  1.4703
   81MOL0     H10874   7.094   4.040   5.515 -3.5378  0.0542 -0.8295
   81MOL0     H10875   6.973   4.124   5.615  0.8037  2.2378  2.7463
   81MOL0     H10876   7.059   4.341   5.543 -1.5676 -3.4188  2.5657
   81MOL0     H10877   7.170   4.260   5.432  1.9425  0.7240  2.8272
   81MOL0     H10878   6.950   4.163   5.327 -0.4922  0.2985 -0.3170
   81MOL0     H10879   6.865   4.271   5.438 -0.7331  1.9599 -2.0169
   81MOL0     H10880   6.863   4.367   5.222 -1.1626 -3.6328  1.2028
   81MOL0     H10881   6.986   4.463   5.320 -1.4797  1.5210 -1.1747
   81MOL0     H10882   7.165   4.366   5.179  0.0872  0.1317  3.0982
   81MOL0     H10883   7.048   4.232   5.127 -1.0076  0.0859 -0.4887
   81MOL0     H10884   7.052   4.531   5.065 -0.0133 -0.9208  2.5079
   81MOL0     H10885   6.931   4.407   4.999  2.2136 -3.8717 -1.9560
   81MOL0     H10886   7.008   4.343   4.738  1.1367 -0.0288 -2.2778
   81MOL0     H10887   7.346   4.275   4.569  2.3050  4.2636  1.5305
   81MOL0     H10888   7.170   4.266   4.531 -1.3970  0.4393  1.8756
   81MOL0     H10889   7.356   4.514   4.532  0.3880  0.8017 -1.4066
   81MOL0     H10890   7.193   4.499   4.465  0.0697  0.6087 -1.2908
   81MOL0     H10891   7.313   4.342   4.286  1.0420  0.8616 -2.0265
   81MOL0     H10892   7.460   4.368   4.377 -1.3796 -2.7560  2.2692
   81MOL0     H10893   7.468   4.596   4.323  0.9589 -1.6205  0.2748
   81MOL0     H10894   7.306   4.614   4.240 -1.2986 -1.7316  0.0803
   81MOL0     H10895   7.550   4.463   3.929 -0.6718 -0.7357  1.0266
   81MOL0     H10896   7.535   4.509   3.624 -0.0641  1.0565  1.0319
   81MOL0     H10897   7.581   4.371   3.716 -0.9498 -0.5255 -0.6162
   81MOL0     H10898   7.453   4.353   3.602  1.3447 -0.6892 -0.7651
   81MOL0     H10899   7.028   4.554   3.389 -0.1121 -1.5774 -0.5047
   81MOL0     H10900   7.006   4.550   3.138  1.8046  4.6850  0.2299
   81MOL0     H10901   7.333   4.326   2.954 -0.0896 -0.6852  1.2507
   81MOL0     H10902   7.177   4.247   2.976  0.6359 -1.8554 -0.1991
   81MOL0     H10903   7.221   4.425   2.739  2.6020 -0.2761  1.1353
   81MOL0     H10904   7.277   4.259   2.733 -0.8542 -0.2363 -2.5984
   81MOL0     H10905   6.984   4.336   2.798  0.4879  1.6481 -2.0824
   81MOL0     H10906   7.057   4.170   2.773  0.6842 -0.5473 -3.7398
   81MOL0     H10907   7.085   4.400   2.582  0.8719  0.8350 -0.0050
   81MOL0     H10908   7.120   4.229   2.556  2.0823 -0.2503  4.1176
   81MOL0     H10909   6.840   4.361   2.585  0.3035  3.5285 -6.1684
   81MOL0     H10910   6.864   4.186   2.592 -2.1402  0.9368  2.2730
   81MOL0     H10911   6.967   4.374   2.364  1.1430 -0.1801  1.6503
   81MOL0     H10912   6.954   4.194   2.373 -0.6214 -1.8506  4.3722
   81MOL0     H10913   6.713   4.383   2.386  0.3036 -1.2767  0.4383
   81MOL0     H10914   6.703   4.214   2.373 -1.6556  1.7885 -0.2267
   81MOL0     H10915   6.794   4.195   2.159  1.4669  0.5114 -2.2848
   81MOL0     H10916   6.847   4.368   2.162 -0.9328  1.8690  0.8443
   81MOL0     H10917   7.416   4.398   3.121 -1.0986 -1.8135 -2.4018
   81MOL0     H10918   7.418   4.396   3.349  0.8477  3.3905  1.3750
   81MOL0     H10919   7.070   4.544   3.876 -0.7571  2.4936  2.2260
   81MOL0     H10920   7.171   4.527   4.097 -4.1224  1.7677 -2.5762
   81MOL0     H10921   7.276   3.842   5.955 -1.3765  0.8295 -0.3021
   81MOL0     H10922   7.292   3.610   6.019  0.5165  0.4764  0.1148
   81MOL0     H10923   7.128   3.068   5.903 -1.7174 -3.7139 -0.1507
   81MOL0     H10924   7.204   2.903   6.047 -2.5133 -1.1814 -0.1511
   81MOL0     H10925   6.991   2.821   6.343 -0.6579 -3.5075  0.5636
   81MOL0     H10926   7.076   2.758   6.205 -3.7166 -1.8833  1.2343
   81MOL0     H10927   7.189   2.725   6.489 -1.1492 -0.6876  0.3341
   81MOL0     H10928   7.247   2.644   6.345  0.2748 -1.6444  1.8363
   81MOL0     H10929   7.014   2.527   6.344  1.2309 -2.2161 -0.1848
   81MOL0     H10930   6.996   2.613   6.504  0.3805 -0.1571  1.7438
   81MOL0     H10931   7.196   2.504   6.592  1.7397 -2.1541  1.2119
   81MOL0     H10932   7.204   2.400   6.452 -0.8734 -0.3577 -0.3771
   81MOL0     H10933   6.865   2.265   6.693  0.7970 -0.0014 -0.1982
   81MOL0     H10934   7.071   3.124   6.402  1.5286  1.1729  0.3360
   81MOL0     H10935   7.014   3.315   6.233 -1.0339 -1.4096 -0.1631
   82MOL0     O10936   9.151   7.821   6.374 -0.8868  0.2863  1.0156
   82MOL0     C10937   9.211   7.884   6.287 -0.0016 -0.6634 -0.3047
   82MOL0     O10938   9.144   7.957   6.192  0.0314  0.2005  0.0966
   82MOL0     C10939   9.013   7.947   6.166  0.5243  1.0660 -0.1433
   82MOL0     C10940   8.965   7.846   6.079 -0.2785 -1.5374  0.2631
   82MOL0     C10941   8.826   7.839   6.038 -0.8096  0.5226 -0.1463
   82MOL0     C10942   8.735   7.925   6.095  0.1218  0.0435 -0.2215
   82MOL0     O10943   8.603   7.939   6.056  0.6177  0.5770 -0.5754
   82MOL0     C10944   8.549   7.808   6.009 -0.4200  0.2195 -0.4489
   82MOL0     C10945   8.396   7.807   6.019 -0.3257 -1.3731 -0.0114
   82MOL0     C10946   8.321   7.743   5.900  0.2493  0.8137 -0.8050
   82MOL0     C10947   8.327   7.585   5.904  0.3214 -0.0777  0.9735
   82MOL0     C10948   8.223   7.528   6.006  0.0292  0.0348 -0.3075
   82MOL0     C10949   8.213   7.376   5.988 -0.5321  0.1280 -0.4245
   82MOL0     C10950   8.336   7.299   6.058  0.2011 -0.0429 -0.0959
   82MOL0     C10951   8.308   7.160   6.061  1.1014 -0.0799  0.1526
   82MOL0     N10952   8.418   7.094   6.136  0.6039  0.9675  0.2548
   82MOL0     C10953   8.551   7.136   6.136  0.9812  0.5770 -0.4244
   82MOL0     C10954   8.611   7.065   6.243  0.5028 -0.0538 -0.6185
   82MOL0     C10955   8.760   7.072   6.262  0.2605  0.2384  0.2470
   82MOL0     C10956   8.791   7.131   6.391 -1.1710  0.9789 -0.9051
   82MOL0     C10957   8.733   7.051   6.509 -0.7198  0.1948  0.3405
   82MOL0     C10958   8.827   7.078   6.630 -0.3475  0.4842 -1.1549
   82MOL0     O10959   8.754   7.033   6.745 -0.2362 -0.9827  0.8060
   82MOL0     C10960   8.782   6.905   6.771 -0.3755 -0.0139 -0.8787
   82MOL0     C10961   8.909   6.869   6.822  0.3997 -0.2044  0.6910
   82MOL0     C10962   8.939   6.732   6.846 -0.0259  0.3938 -0.3313
   82MOL0     C10963   9.077   6.701   6.898  0.1023 -0.3907  0.4446
   82MOL0     C10964   8.843   6.622   6.822 -0.3077  0.3704  0.2560
   82MOL0     C10965   8.863   6.475   6.839 -0.5639 -0.4082 -0.7055
   82MOL0     O10966   8.753   6.404   6.821  0.7969  0.4968  0.2694
   82MOL0     C10967   8.742   6.269   6.870  0.0710 -0.2715  0.6462
   82MOL0     C10968   8.634   6.204   6.820  1.1357  1.1459  1.0878
   82MOL0     C10969   8.612   6.066   6.822  0.3855 -0.7757  0.7377
   82MOL0     C10970   8.716   5.988   6.878 -0.5704 -0.3781  0.3941
   82MOL0     O10971   8.699   5.853   6.885 -0.2708 -0.2278  0.3808
   82MOL0     C10972   8.792   5.766   6.954 -0.4870  0.0690 -0.2523
   82MOL0     C10973   8.719   5.629   6.973 -0.4355 -0.3539 -0.1621
   82MOL0     C10974   8.796   5.532   7.069 -1.0152 -0.8365 -0.0838
   82MOL0     C10975   8.766   5.390   7.029  0.0863  0.3766  0.1552
   82MOL0     C10976   8.765   5.295   7.139 -0.7833 -0.1393 -0.4257
   82MOL0     C10977   8.893   5.291   7.233  1.2531  0.0443 -0.2059
   82MOL0     C10978   9.017   5.233   7.170  0.4570 -0.3610 -0.4785
   82MOL0     C10979   9.144   5.247   7.256 -0.4940 -0.6312 -0.0885
   82MOL0    Cl10980   9.177   5.425   7.273  0.1419 -0.1574 -0.0590
   82MOL0     C10981   8.826   6.054   6.942 -0.0575  0.3440  0.3766
   82MOL0     C10982   8.838   6.191   6.940 -0.2465  0.4503  0.6251
   82MOL0     O10983   8.975   6.437   6.860  0.2323  0.4835  0.2244
   82MOL0     C10984   8.711   6.669   6.793 -0.3653  0.0598 -0.7372
   82MOL0     C10985   8.680   6.804   6.773  0.2746  0.4383 -0.0030
   82MOL0     N10986   8.513   6.974   6.297  0.7742 -0.1484  0.2370
   82MOL0     N10987   8.404   6.996   6.231  0.1059  0.1205 -0.6514
   82MOL0     C10988   8.777   8.014   6.193  0.3577 -0.5740 -0.0461
   82MOL0     C10989   8.916   8.027   6.225  0.7616  0.2288  0.7469
   82MOL0     C10990   9.356   7.903   6.289  1.0384 -0.4705  0.4341
   82MOL0     C10991   9.428   7.991   6.199  0.2887 -0.2583 -0.4686
   82MOL0     C10992   9.562   8.003   6.200  0.0781  0.9509  0.2128
   82MOL0     C10993   9.642   7.932   6.298 -0.0891  0.9311 -0.3670
   82MOL0     O10994   9.773   7.955   6.290 -0.0838  0.0375  0.0561
   82MOL0     C10995   9.874   7.873   6.368  0.4218 -0.0597  0.5420
   82MOL0     C10996   9.996   7.873   6.284 -0.2432  0.5115 -0.4951
   82MOL0     C10997  10.047   8.016   6.231  0.1601 -0.5998  0.1606
   82MOL0     C10998  10.163   8.056   6.314 -0.2734  0.2718 -0.0868
   82MOL0     C10999  10.182   8.199   6.298 -0.6616 -0.3616  0.0870
   82MOL0     C11000  10.194   8.314   6.273  0.1043  0.4116  0.2998
   82MOL0     C11001   9.576   7.860   6.398 -0.1356 -0.3388  0.1761
   82MOL0     C11002   9.434   7.843   6.393 -0.8114  1.2203  0.3495
   82MOL0     H11003   9.041   7.778   6.041 -1.0839 -1.3125 -1.9578
   82MOL0     H11004   8.810   7.765   5.960 -0.0042 -2.2946  2.1801
   82MOL0     H11005   8.588   7.806   5.907  0.9292 -2.5447  0.0493
   82MOL0     H11006   8.587   7.724   6.067 -1.5181 -0.1424 -0.2211
   82MOL0     H11007   8.354   7.765   6.111 -0.2398  1.6077  1.5323
   82MOL0     H11008   8.364   7.912   6.013  1.6665 -0.6920  0.4582
   82MOL0     H11009   8.218   7.780   5.898  0.0657  0.9975  3.5758
   82MOL0     H11010   8.369   7.766   5.804  2.4376 -3.2177 -0.8958
   82MOL0     H11011   8.311   7.551   5.801 -1.2393  3.2990 -0.0338
   82MOL0     H11012   8.427   7.549   5.928  2.7867  3.1292 -3.1334
   82MOL0     H11013   8.247   7.550   6.111 -4.4162  2.4869  0.4671
   82MOL0     H11014   8.123   7.571   5.993 -1.0924 -1.9408  1.1655
   82MOL0     H11015   8.125   7.348   6.048  0.6566  1.7168  2.2527
   82MOL0     H11016   8.205   7.352   5.882  0.8146  0.4313 -0.6202
   82MOL0     H11017   8.430   7.324   6.008  0.8282  2.3951  2.0708
   82MOL0     H11018   8.341   7.327   6.164 -1.1766 -4.0729  1.2008
   82MOL0     H11019   8.306   7.130   5.955 -1.0361  1.4320 -0.2871
   82MOL0     H11020   8.212   7.133   6.105  0.4087 -1.3632 -1.9750
   82MOL0     H11021   8.610   7.195   6.066  2.8120 -1.5561 -0.7886
   82MOL0     H11022   8.800   6.971   6.266  1.9723  0.7875 -1.6510
   82MOL0     H11023   8.814   7.122   6.181  0.8024 -1.1702 -0.2939
   82MOL0     H11024   8.740   7.228   6.399 -1.4901  0.6743  1.2780
   82MOL0     H11025   8.899   7.140   6.406 -1.2670  0.1988  0.3913
   82MOL0     H11026   8.725   6.945   6.483  1.5566 -0.1316  0.7688
   82MOL0     H11027   8.632   7.079   6.540 -1.3826 -1.5419 -0.1315
   82MOL0     H11028   8.844   7.184   6.652  1.2208 -0.7186  5.8994
   82MOL0     H11029   8.922   7.024   6.620  2.2229  4.0229  1.3171
   82MOL0     H11030   8.990   6.941   6.831  1.3090 -1.2824  1.3583
   82MOL0     H11031   9.143   6.672   6.815  2.2245  2.6777  0.8888
   82MOL0     H11032   9.117   6.795   6.935  2.4733 -0.6928 -1.0914
   82MOL0     H11033   9.067   6.630   6.980  0.5645 -1.2720 -0.2309
   82MOL0     H11034   8.558   6.257   6.763 -2.7124 -1.8732  2.9678
   82MOL0     H11035   8.523   6.011   6.791  1.1254 -1.8104  0.4181
   82MOL0     H11036   8.886   5.756   6.900  0.2469 -1.1422  1.1589
   82MOL0     H11037   8.813   5.817   7.048  2.3872  1.8742 -1.7494
   82MOL0     H11038   8.618   5.650   7.012  0.2908 -0.8811  2.1428
   82MOL0     H11039   8.707   5.593   6.871 -0.8325  1.1986 -0.6990
   82MOL0     H11040   8.772   5.566   7.170  1.7066  2.6739 -0.4130
   82MOL0     H11041   8.904   5.546   7.059 -0.2990 -4.2511  1.5217
   82MOL0     H11042   8.668   5.379   6.981  0.5100 -1.1791 -0.4047
   82MOL0     H11043   8.835   5.374   6.946  0.2130  2.6730 -0.2584
   82MOL0     H11044   8.733   5.201   7.095  1.0456 -1.2066  0.4032
   82MOL0     H11045   8.691   5.330   7.212  0.1316 -0.4528  0.6912
   82MOL0     H11046   8.914   5.391   7.271 -5.5613  0.5152  4.0072
   82MOL0     H11047   8.860   5.227   7.315 -3.0251  1.2650 -0.7330
   82MOL0     H11048   9.033   5.296   7.081  3.0621 -0.5721 -0.2123
   82MOL0     H11049   9.005   5.129   7.139 -2.1416 -0.2523 -0.0638
   82MOL0     H11050   9.227   5.196   7.205  0.6739 -0.1266  1.2637
   82MOL0     H11051   9.141   5.210   7.358  1.2166  2.8537  1.3841
   82MOL0     H11052   8.887   5.995   7.010 -2.1700 -0.0247  2.0763
   82MOL0     H11053   8.916   6.239   6.997  0.9057 -1.3061  0.6128
   82MOL0     H11054   8.629   6.598   6.784  0.1130 -0.5661 -0.2696
   82MOL0     H11055   8.573   6.824   6.763  0.2519 -0.2968 -1.3456
   82MOL0     H11056   8.700   8.075   6.240  1.5421  0.6258  0.3848
   82MOL0     H11057   8.938   8.103   6.299 -5.4545  1.9708  1.3504
   82MOL0     H11058   9.387   8.049   6.117 -0.2466  1.0825  0.7019
   82MOL0     H11059   9.610   8.065   6.126  3.9128 -1.5566  0.3381
   82MOL0     H11060   9.895   7.922   6.463  1.2316  1.4947 -0.4114
   82MOL0     H11061   9.839   7.772   6.395  0.7276  0.2045  2.0166
   82MOL0     H11062   9.961   7.820   6.195  0.1728  1.2593 -1.1141
   82MOL0     H11063  10.077   7.813   6.327  0.8925  0.1617 -2.9740
   82MOL0     H11064   9.961   8.080   6.249 -0.4426 -1.0413 -1.0449
   82MOL0     H11065  10.066   8.018   6.123 -0.0116  0.8253  0.1372
   82MOL0     H11066  10.248   7.995   6.284 -1.3892 -1.5862  0.4048
   82MOL0     H11067  10.146   8.025   6.417 -1.0462 -2.2498 -0.8977
   82MOL0     H11068  10.187   8.419   6.252 -2.9853 -0.2144 -2.7601
   82MOL0     H11069   9.637   7.808   6.471 -1.2718 -0.7245  0.8801
   82MOL0     H11070   9.389   7.756   6.439 -1.4477  1.4795  0.2344
   83MOL0     O11071   8.131   0.787   6.733 -0.1247  0.1744  0.6579
   83MOL0     C11072   8.217   0.694   6.745 -0.6689  0.3757 -1.4444
   83MOL0     O11073   8.344   0.689   6.694 -0.6940 -0.0349 -0.0200
   83MOL0     C11074   8.382   0.812   6.638  0.5954  0.4978 -0.5595
   83MOL0     C11075   8.479   0.890   6.705  0.1679  0.0802 -0.0838
   83MOL0     C11076   8.525   1.007   6.649 -0.8278  0.0043  0.3133
   83MOL0     C11077   8.481   1.046   6.518  1.0944 -0.3458  0.4222
   83MOL0     O11078   8.523   1.160   6.448  0.0821 -0.4650  0.0605
   83MOL0     C11079   8.525   1.284   6.525 -0.5839 -0.2672  0.2840
   83MOL0     C11080   8.398   1.367   6.496 -0.0638 -0.0409  0.6357
   83MOL0     C11081   8.421   1.453   6.370  0.4980 -0.1678 -0.8770
   83MOL0     C11082   8.285   1.499   6.312 -0.7774  0.4392  0.1584
   83MOL0     C11083   8.302   1.539   6.169 -0.3818 -0.5873 -0.3532
   83MOL0     C11084   8.172   1.560   6.088  0.1561  0.9335 -0.8983
   83MOL0     C11085   8.202   1.588   5.944 -0.3460  0.1740  0.1375
   83MOL0     C11086   8.080   1.612   5.859 -0.0096  0.2201  0.1818
   83MOL0     N11087   7.994   1.729   5.895  0.1299 -0.1535 -0.6097
   83MOL0     C11088   8.036   1.857   5.914 -0.6743 -0.4448 -0.2866
   83MOL0     C11089   7.932   1.927   5.969  0.9864  0.0978  0.1073
   83MOL0     C11090   7.939   2.066   6.030  0.9509 -0.0291 -0.3555
   83MOL0     C11091   7.994   2.178   5.931  0.1214  0.0502 -0.6758
   83MOL0     C11092   7.886   2.249   5.859  0.3248 -0.3312 -0.7378
   83MOL0     C11093   7.926   2.369   5.777  0.1726 -0.3812  0.3629
   83MOL0     O11094   7.963   2.483   5.859 -0.3456 -0.3532 -0.2873
   83MOL0     C11095   7.931   2.617   5.813  0.2474  0.2206  0.3849
   83MOL0     C11096   7.903   2.719   5.899  1.1601 -0.2994 -0.4867
   83MOL0     C11097   7.893   2.855   5.867 -1.2634  0.4516  0.4885
   83MOL0     C11098   7.827   2.962   5.964  0.4408  0.0460  0.3970
   83MOL0     C11099   7.914   2.888   5.729  0.4247  0.3054 -0.1968
   83MOL0     C11100   7.911   3.030   5.662  0.2698 -0.1751 -0.8910
   83MOL0     O11101   7.955   3.132   5.738 -0.2331  0.2786 -0.1826
   83MOL0     C11102   7.936   3.255   5.692 -0.1780  0.1079  0.2873
   83MOL0     C11103   8.049   3.317   5.634  0.8907 -0.7070  0.5978
   83MOL0     C11104   8.037   3.449   5.590  0.6778  0.0361 -0.6116
   83MOL0     C11105   7.924   3.526   5.613 -0.2341 -0.0969  0.5366
   83MOL0     O11106   7.944   3.665   5.594  0.5031  0.1868  0.4010
   83MOL0     C11107   7.874   3.719   5.474 -0.3758  0.6644 -0.4358
   83MOL0     C11108   7.834   3.862   5.506  0.0114  0.4739 -0.3862
   83MOL0     C11109   7.727   3.920   5.410 -0.1621  0.1600  0.2966
   83MOL0     C11110   7.677   4.059   5.439  0.0161 -0.6443 -0.1840
   83MOL0     C11111   7.552   4.104   5.367  0.1238  1.1169 -0.6623
   83MOL0     C11112   7.591   4.178   5.233  0.3749 -0.0753  0.6097
   83MOL0     C11113   7.460   4.204   5.152 -0.3874 -0.5917 -0.5891
   83MOL0     C11114   7.421   4.111   5.041 -0.7501  0.2228  0.5190
   83MOL0    Cl11115   7.354   3.966   5.114  0.8533 -0.2934  0.0744
   83MOL0     C11116   7.809   3.460   5.659 -0.0858 -0.8820  0.1611
   83MOL0     C11117   7.812   3.323   5.705 -0.3565 -1.0955 -0.2131
   83MOL0     O11118   7.855   3.032   5.554 -0.2637 -0.3722 -0.2564
   83MOL0     C11119   7.931   2.780   5.637  0.0671 -0.5093  0.4865
   83MOL0     C11120   7.951   2.646   5.675 -0.0910 -0.3121 -0.1868
   83MOL0     N11121   7.821   1.844   5.960 -1.0622  0.1319 -0.3090
   83MOL0     N11122   7.858   1.724   5.928 -0.4646 -0.2219 -0.1646
   83MOL0     C11123   8.384   0.963   6.449 -0.8780  0.0812 -0.5019
   83MOL0     C11124   8.347   0.842   6.508  0.0645 -0.3868  0.3652
   83MOL0     C11125   8.176   0.580   6.839  0.2773  0.2224 -0.0869
   83MOL0     C11126   8.045   0.582   6.903 -0.8990  0.6860  0.0245
   83MOL0     C11127   8.014   0.470   6.989 -0.5403 -0.5643 -0.2326
   83MOL0     C11128   8.101   0.376   7.015 -0.3384 -0.2518 -0.4399
   83MOL0     O11129   8.068   0.258   7.093 -0.3398 -0.7644 -0.2438
   83MOL0     C11130   8.000   0.161   7.010 -0.6168 -0.4887  0.0402
   83MOL0     C11131   8.083   0.036   7.014  0.8996  0.4136 -0.1356
   83MOL0     C11132   8.026  -0.071   6.917 -0.6923 -0.3518  0.4225
   83MOL0     C11133   8.088  -0.211   6.925 -0.6295 -0.3707  0.2686
   83MOL0     C11134   8.204  -0.243   6.847  0.3700 -0.0245  0.3539
   83MOL0     C11135   8.290  -0.265   6.766 -0.3495  0.1161 -1.0390
   83MOL0     C11136   8.228   0.384   6.961  0.9106  0.2882  0.7026
   83MOL0     C11137   8.272   0.483   6.880  0.2534  0.1147 -0.2297
   83MOL0     H11138   8.511   0.862   6.805 -1.7354  0.2623  0.6069
   83MOL0     H11139   8.602   1.060   6.703 -0.8943  0.4346 -0.0037
   83MOL0     H11140   8.541   1.274   6.632 -0.8706  2.6208  0.6702
   83MOL0     H11141   8.615   1.341   6.499 -1.1417 -0.8258 -3.6079
   83MOL0     H11142   8.314   1.297   6.489 -0.0194  0.0830 -2.4952
   83MOL0     H11143   8.372   1.434   6.579  1.4488  2.5895 -0.9048
   83MOL0     H11144   8.481   1.543   6.383  0.5185 -0.5433  2.8551
   83MOL0     H11145   8.490   1.398   6.305 -0.3364 -2.0005 -0.2965
   83MOL0     H11146   8.220   1.410   6.308 -1.2487  0.8181 -0.8340
   83MOL0     H11147   8.238   1.566   6.384  0.4279 -0.0260  1.4144
   83MOL0     H11148   8.366   1.628   6.159 -2.6340  1.0400 -1.0130
   83MOL0     H11149   8.355   1.459   6.117 -1.7580 -1.8352  0.1079
   83MOL0     H11150   8.115   1.468   6.087  1.3295  0.1814 -0.8901
   83MOL0     H11151   8.111   1.638   6.136 -1.4422 -0.4891 -0.5479
   83MOL0     H11152   8.279   1.666   5.931 -2.2655  1.9068 -1.4849
   83MOL0     H11153   8.254   1.505   5.895  0.2198  2.2055 -3.0572
   83MOL0     H11154   8.023   1.519   5.869  0.5969 -0.3547 -1.3738
   83MOL0     H11155   8.110   1.627   5.755  4.6234  2.0726  1.4999
   83MOL0     H11156   8.132   1.907   5.903 -0.5267 -0.6178  0.1931
   83MOL0     H11157   7.833   2.087   6.049  1.6905  2.1580  1.8006
   83MOL0     H11158   7.997   2.058   6.122 -0.8517  0.4514  0.8817
   83MOL0     H11159   8.068   2.146   5.857  0.7763  1.8177 -0.8112
   83MOL0     H11160   8.042   2.256   5.990 -2.4243  1.8620 -0.8639
   83MOL0     H11161   7.809   2.271   5.934 -2.9790 -1.5840 -3.4778
   83MOL0     H11162   7.830   2.177   5.797 -1.8285 -0.5296  1.3220
   83MOL0     H11163   7.836   2.398   5.723  0.5381 -0.0895 -0.0890
   83MOL0     H11164   8.012   2.339   5.717 -0.4186  0.2264 -0.8020
   83MOL0     H11165   7.894   2.689   6.003 -1.4603 -0.7832 -0.7921
   83MOL0     H11166   7.890   3.051   5.970  0.7506  0.0621 -2.1173
   83MOL0     H11167   7.731   2.986   5.918 -0.5144 -2.0350  1.1698
   83MOL0     H11168   7.803   2.922   6.063  2.9017 -2.1643  0.2325
   83MOL0     H11169   8.135   3.256   5.610  0.0312 -1.4999 -0.6076
   83MOL0     H11170   8.129   3.499   5.563  0.4294  1.6473  1.2592
   83MOL0     H11171   7.939   3.719   5.386 -1.4257  0.5151 -1.2301
   83MOL0     H11172   7.782   3.661   5.461  0.3646 -1.0071  1.1955
   83MOL0     H11173   7.788   3.868   5.605  1.6737  2.0814  0.3620
   83MOL0     H11174   7.926   3.921   5.510  2.1164 -2.6051  3.2853
   83MOL0     H11175   7.643   3.852   5.425 -1.2271  1.3110 -0.3174
   83MOL0     H11176   7.759   3.916   5.305 -3.9714 -2.9892 -0.9627
   83MOL0     H11177   7.650   4.070   5.544  0.3176  0.8283 -0.2418
   83MOL0     H11178   7.756   4.132   5.416 -1.4665  0.3441 -2.5211
   83MOL0     H11179   7.506   4.183   5.428 -0.7072  0.0174  0.1658
   83MOL0     H11180   7.488   4.021   5.339 -1.5048  1.8230  0.7545
   83MOL0     H11181   7.655   4.265   5.251 -2.0549  2.6879 -2.7220
   83MOL0     H11182   7.644   4.101   5.176  0.3976  0.8305 -0.6358
   83MOL0     H11183   7.469   4.302   5.105 -0.6115  0.0396  0.6459
   83MOL0     H11184   7.377   4.220   5.222 -3.4842 -0.9039 -3.8799
   83MOL0     H11185   7.500   4.081   4.971 -1.8593 -2.7158  0.3658
   83MOL0     H11186   7.348   4.165   4.981  0.5193  2.1819  0.6511
   83MOL0     H11187   7.725   3.528   5.670  2.2621  2.2132  0.3519
   83MOL0     H11188   7.722   3.271   5.738 -0.0645 -1.8666 -0.6130
   83MOL0     H11189   7.937   2.799   5.531 -3.0212  0.6557  0.4305
   83MOL0     H11190   7.973   2.563   5.610 -0.3859 -1.8347  1.5501
   83MOL0     H11191   8.351   0.979   6.347 -1.2905  0.1806 -0.3579
   83MOL0     H11192   8.284   0.777   6.448 -0.6566  1.2311 -0.7143
   83MOL0     H11193   7.967   0.652   6.875 -2.5711 -1.1500 -0.0879
   83MOL0     H11194   7.910   0.450   7.015 -1.3647  1.2222 -1.9073
   83MOL0     H11195   7.899   0.130   7.040  0.3602 -1.1795  2.8960
   83MOL0     H11196   7.992   0.201   6.908 -0.9928  0.1079  0.2965
   83MOL0     H11197   8.095  -0.001   7.116  2.1323  0.5947 -0.2057
   83MOL0     H11198   8.183   0.066   6.982  0.8353 -1.2673 -2.0823
   83MOL0     H11199   8.027  -0.050   6.810  3.0466 -1.7302  0.0564
   83MOL0     H11200   7.917  -0.073   6.918 -0.6816 -1.9322  0.6862
   83MOL0     H11201   8.011  -0.284   6.897  0.3675 -1.6228  0.6781
   83MOL0     H11202   8.108  -0.223   7.032 -2.4084  0.0936  0.6923
   83MOL0     H11203   8.370  -0.278   6.696 -1.4349  0.4060 -2.3607
   83MOL0     H11204   8.301   0.306   6.985  3.9717  3.3066  2.0835
   83MOL0     H11205   8.380   0.489   6.864  0.4427  0.4700  1.0561
   84MOL0     O11206  11.069   1.027   8.919  0.0766  0.1122 -0.7405
   84MOL0     C11207  11.073   1.040   9.038  0.0203 -0.1485 -0.7226
   84MOL0     O11208  10.962   1.009   9.118 -0.1608  0.0663  0.5151
   84MOL0     C11209  10.852   0.962   9.052 -0.4092 -0.1446 -0.2023
   84MOL0     C11210  10.759   1.040   8.976 -0.8113  0.2650 -0.5007
   84MOL0     C11211  10.652   0.981   8.909  0.8927  0.4992 -0.3038
   84MOL0     C11212  10.624   0.840   8.943  0.6926  1.1582 -0.5327
   84MOL0     O11213  10.512   0.768   8.899  0.4058 -0.0740  0.3754
   84MOL0     C11214  10.381   0.837   8.869 -0.3534  0.8107 -0.0109
   84MOL0     C11215  10.308   0.872   9.007  0.0192  0.2584 -0.3454
   84MOL0     C11216  10.263   0.744   9.089 -0.2426  0.1914  0.7795
   84MOL0     C11217  10.137   0.676   9.016 -0.2341 -0.5902  0.4678
   84MOL0     C11218  10.075   0.572   9.109  0.0950 -0.2604 -0.0641
   84MOL0     C11219   9.926   0.555   9.086  0.9298  0.2015 -1.4709
   84MOL0     C11220   9.879   0.454   9.194  0.6313 -1.1647  0.2063
   84MOL0     C11221   9.794   0.345   9.118  0.7275  0.4181  0.6992
   84MOL0     N11222   9.721   0.275   9.220  0.7104  1.2460  0.4091
   84MOL0     C11223   9.620   0.317   9.303  0.4509  0.5162  0.0154
   84MOL0     C11224   9.589   0.205   9.373 -0.1458  0.5100  0.5317
   84MOL0     C11225   9.516   0.203   9.504  0.3971  1.0549  0.4154
   84MOL0     C11226   9.367   0.172   9.493  1.1010  0.5141 -0.0205
   84MOL0     C11227   9.280   0.297   9.466  0.1839 -0.8975 -0.0266
   84MOL0     C11228   9.124   0.278   9.486 -0.4594  0.0905 -0.0817
   84MOL0     O11229   9.050   0.394   9.440  0.0935 -1.2701 -0.2013
   84MOL0     C11230   9.008   0.499   9.526 -1.3880  0.2656  1.0435
   84MOL0     C11231   9.044   0.504   9.653 -0.9951 -0.0133  0.6175
   84MOL0     C11232   9.020   0.616   9.732  0.1823  0.5829 -0.5023
   84MOL0     C11233   9.095   0.611   9.865  0.1301  0.1923  0.6001
   84MOL0     C11234   8.928   0.708   9.699  0.6874 -0.2345  0.8829
   84MOL0     C11235   8.888   0.829   9.780 -0.8207 -0.6920 -0.8914
   84MOL0     O11236   8.934   0.835   9.909  0.2439  0.5915  0.4555
   84MOL0     C11237   8.856   0.910  10.001 -0.9512  0.4386 -0.0755
   84MOL0     C11238   8.916   0.942  10.122  0.2332 -0.6769 -0.0658
   84MOL0     C11239   8.844   1.009  10.218  0.2511  1.2715 -0.1040
   84MOL0     C11240   8.708   1.037  10.200 -0.4637 -0.4160 -0.5419
   84MOL0     O11241   8.642   1.096  10.310 -0.5453  0.5690  0.7510
   84MOL0     C11242   8.559   1.208  10.265 -0.2478  0.9614  0.4823
   84MOL0     C11243   8.554   1.295  10.385  0.2657  0.7060 -0.8990
   84MOL0     C11244   8.467   1.429  10.382  0.3279 -0.0227 -0.3669
   84MOL0     C11245   8.332   1.407  10.442 -0.4578 -0.4823  0.5877
   84MOL0     C11246   8.233   1.340  10.358  0.1650 -1.1333 -0.4954
   84MOL0     C11247   8.096   1.374  10.417  0.4556  0.4149 -0.0656
   84MOL0     C11248   7.994   1.289  10.331 -0.9434  0.1375 -0.0819
   84MOL0     C11249   7.847   1.300  10.383 -0.5748 -0.0476 -0.1139
   84MOL0    Cl11250   7.795   1.465  10.324  0.0483  0.0450 -0.4618
   84MOL0     C11251   8.644   1.004  10.085 -0.9901  0.0160  0.1587
   84MOL0     C11252   8.720   0.947   9.981  0.2373 -1.2797  0.6896
   84MOL0     O11253   8.832   0.922   9.725  0.5740  0.5572 -0.2949
   84MOL0     C11254   8.872   0.694   9.567  0.8484 -0.2941 -0.3752
   84MOL0     C11255   8.917   0.591   9.480  1.8269 -0.3255 -0.6013
   84MOL0     N11256   9.663   0.096   9.332 -0.9808 -0.6595 -0.2225
   84MOL0     N11257   9.736   0.138   9.240  0.0500  0.5812 -0.3068
   84MOL0     C11258  10.716   0.768   9.018 -0.5261  0.6070  0.4783
   84MOL0     C11259  10.830   0.827   9.068  0.6557 -0.6772  0.7694
   84MOL0     C11260  11.193   1.094   9.108 -0.6301  0.3714 -0.2135
   84MOL0     C11261  11.287   1.164   9.030 -0.2342  0.7301 -0.6459
   84MOL0     C11262  11.384   1.235   9.093  0.1873  0.3734 -0.9354
   84MOL0     C11263  11.416   1.224   9.232 -0.4894  0.0034  0.3065
   84MOL0     O11264  11.527   1.275   9.279 -1.1031  0.6304 -0.0977
   84MOL0     C11265  11.534   1.314   9.422  0.8193  0.5453  0.6949
   84MOL0     C11266  11.637   1.429   9.420  0.6765  0.3569 -0.1547
   84MOL0     C11267  11.602   1.556   9.347  0.1390  0.3959  0.0125
   84MOL0     C11268  11.481   1.626   9.422 -0.1677 -0.3585 -0.0504
   84MOL0     C11269  11.438   1.739   9.336  0.4024 -0.0162 -0.2023
   84MOL0     C11270  11.415   1.837   9.265  0.5157  0.3549 -1.2816
   84MOL0     C11271  11.326   1.140   9.315 -0.5246  0.5744  1.1950
   84MOL0     C11272  11.218   1.075   9.248  0.8605  0.0541  0.9649
   84MOL0     H11273  10.794   1.143   8.971  1.0610 -0.2331  0.9573
   84MOL0     H11274  10.594   1.044   8.843  0.5582  0.2303 -0.2690
   84MOL0     H11275  10.386   0.921   8.800 -2.1534 -0.4954 -1.8691
   84MOL0     H11276  10.318   0.756   8.829  1.9005 -2.1546  1.9743
   84MOL0     H11277  10.358   0.942   9.074 -3.6256  1.7009  1.1594
   84MOL0     H11278  10.211   0.915   8.979  0.2306 -0.7539 -2.8586
   84MOL0     H11279  10.353   0.682   9.093  0.2978  0.9101  0.0740
   84MOL0     H11280  10.224   0.764   9.189  0.0201 -3.4232  1.7587
   84MOL0     H11281  10.056   0.746   8.993  0.8439 -0.2471 -2.6572
   84MOL0     H11282  10.170   0.637   8.919  0.1745  2.0551 -0.5464
   84MOL0     H11283  10.116   0.475   9.082  0.4930 -0.3077  0.6828
   84MOL0     H11284  10.101   0.587   9.214  0.0784 -0.3867 -0.0423
   84MOL0     H11285   9.888   0.656   9.105 -2.5913 -1.3792  0.8866
   84MOL0     H11286   9.902   0.517   8.987 -2.9665 -1.2165 -0.1592
   84MOL0     H11287   9.948   0.401   9.260  0.6575  1.0465  2.0948
   84MOL0     H11288   9.812   0.513   9.258 -0.3436 -1.3500 -0.6135
   84MOL0     H11289   9.861   0.277   9.065  1.4074  2.0756 -0.6119
   84MOL0     H11290   9.723   0.391   9.049  1.0768 -1.5283 -1.0702
   84MOL0     H11291   9.595   0.420   9.327  0.6759  0.6419 -0.2792
   84MOL0     H11292   9.570   0.137   9.572 -0.9034  0.1298  0.5951
   84MOL0     H11293   9.529   0.301   9.551  1.3618 -0.1364  2.7996
   84MOL0     H11294   9.332   0.137   9.591 -2.4515  2.1306 -0.5609
   84MOL0     H11295   9.345   0.097   9.417  3.4466  1.3699 -1.6362
   84MOL0     H11296   9.302   0.330   9.364 -2.5186 -1.8193 -0.9920
   84MOL0     H11297   9.312   0.377   9.533 -0.7881 -2.1361  2.0130
   84MOL0     H11298   9.108   0.246   9.589 -3.3219 -0.8372 -0.7336
   84MOL0     H11299   9.093   0.198   9.419 -0.3839 -1.1376  1.2932
   84MOL0     H11300   9.120   0.438   9.693 -0.1392 -1.3575 -2.8275
   84MOL0     H11301   9.125   0.709   9.903  1.5121 -0.4631  1.2383
   84MOL0     H11302   9.034   0.564   9.943 -2.2482  0.0898 -1.1759
   84MOL0     H11303   9.186   0.553   9.851 -1.8853 -3.3270  0.8518
   84MOL0     H11304   9.021   0.918  10.129  0.5197  1.0980  3.2487
   84MOL0     H11305   8.896   1.014  10.313  1.8957 -0.4312 -0.8307
   84MOL0     H11306   8.599   1.264  10.180  0.5248 -0.2900 -0.0053
   84MOL0     H11307   8.461   1.166  10.240 -0.6930  0.6543  2.5428
   84MOL0     H11308   8.522   1.239  10.473  0.1971  1.2324 -0.5867
   84MOL0     H11309   8.656   1.309  10.421  0.2326  1.6124 -1.1427
   84MOL0     H11310   8.462   1.484  10.288 -1.3340  3.0562  1.3460
   84MOL0     H11311   8.523   1.499  10.445  2.6493 -1.2223 -0.9870
   84MOL0     H11312   8.335   1.342  10.530  1.2425 -4.0050 -1.8434
   84MOL0     H11313   8.292   1.508  10.453 -0.1889 -0.4706  1.6020
   84MOL0     H11314   8.261   1.235  10.370 -0.5893 -1.4143 -1.1780
   84MOL0     H11315   8.234   1.372  10.254 -2.8663  0.1181 -0.2570
   84MOL0     H11316   8.098   1.338  10.521 -2.7235 -0.3943 -0.1826
   84MOL0     H11317   8.069   1.480  10.418  0.2496  0.4015  2.1867
   84MOL0     H11318   8.036   1.189  10.342  2.1195  1.1710 -1.2832
   84MOL0     H11319   8.000   1.327  10.229  0.8497  0.9635  0.2846
   84MOL0     H11320   7.855   1.290  10.492 -0.2799  0.0420 -0.1264
   84MOL0     H11321   7.799   1.214  10.337  0.2494 -1.0085  0.7694
   84MOL0     H11322   8.539   1.025  10.070 -1.1658 -2.8483 -5.7593
   84MOL0     H11323   8.670   0.920   9.889  0.7009 -0.6100  0.2364
   84MOL0     H11324   8.789   0.761   9.547 -1.5021 -2.1690  2.2977
   84MOL0     H11325   8.865   0.580   9.385 -0.4672 -3.1382  0.8024
   84MOL0     H11326  10.694   0.665   9.047 -2.3074  1.1869  1.3527
   84MOL0     H11327  10.904   0.769   9.123  1.9319 -1.5118 -1.6607
   84MOL0     H11328  11.284   1.173   8.922  0.1224 -0.0121 -0.7226
   84MOL0     H11329  11.453   1.285   9.026 -1.0670  3.6527  0.0046
   84MOL0     H11330  11.434   1.334   9.463 -1.2332  1.0369 -3.8846
   84MOL0     H11331  11.577   1.227   9.472  2.3215 -0.8815 -2.7312
   84MOL0     H11332  11.731   1.387   9.384  1.6753 -0.0460  2.6556
   84MOL0     H11333  11.652   1.464   9.523 -0.7396 -0.6793  0.4328
   84MOL0     H11334  11.584   1.546   9.239  0.3248 -1.8295  0.1414
   84MOL0     H11335  11.689   1.622   9.349 -0.9330  2.0432 -2.7295
   84MOL0     H11336  11.500   1.660   9.524  1.4373  3.5427 -1.4502
   84MOL0     H11337  11.396   1.557   9.412  0.2723 -0.8739 -0.2970
   84MOL0     H11338  11.373   1.921   9.214 -3.2724 -1.4770 -1.5455
   84MOL0     H11339  11.346   1.108   9.416 -1.4425  1.9735  1.8463
   84MOL0     H11340  11.159   1.012   9.313  2.5850 -3.0307 -0.2547
   85MOL0     O11341   9.052   1.066   0.855  0.2290  0.1394 -0.1074
   85MOL0     C11342   9.058   0.974   0.775 -0.1675 -0.0177  0.1758
   85MOL0     O11343   9.050   0.986   0.634 -0.7479 -0.7679  0.2650
   85MOL0     C11344   8.993   1.091   0.560 -0.1273 -0.8174  0.0670
   85MOL0     C11345   9.001   1.085   0.429 -0.1947 -0.0019  0.2342
   85MOL0     C11346   8.946   1.187   0.343 -0.0199  0.0141 -1.0115
   85MOL0     C11347   8.881   1.295   0.408 -0.6721  0.5918 -0.8068
   85MOL0     O11348   8.799   1.372   0.322 -0.2793  0.1393 -0.4015
   85MOL0     C11349   8.828   1.516   0.335  0.8185 -0.3909 -0.2323
   85MOL0     C11350   8.727   1.607   0.250 -0.2212 -0.4961  0.6627
   85MOL0     C11351   8.772   1.583   0.105  0.5788  0.5428 -0.2196
   85MOL0     C11352   8.660   1.618   0.008 -0.3684 -0.0091 -0.3768
   85MOL0     C11353   8.691   1.587  -0.141  0.8154 -0.3913 -0.6450
   85MOL0     C11354   8.570   1.622  -0.225 -0.7410  0.5139 -0.1692
   85MOL0     C11355   8.557   1.771  -0.232  0.7111  0.2541 -1.0887
   85MOL0     C11356   8.460   1.813  -0.334 -0.6607 -0.0553  0.6020
   85MOL0     N11357   8.402   1.941  -0.294 -0.2329  0.2148  0.3272
   85MOL0     C11358   8.289   1.959  -0.215 -0.0381 -0.6946 -0.1042
   85MOL0     C11359   8.240   2.088  -0.244  0.1337 -0.7700  0.3311
   85MOL0     C11360   8.121   2.166  -0.183  0.2520  0.8255  0.1534
   85MOL0     C11361   8.090   2.299  -0.262  0.4084  0.7836 -0.1287
   85MOL0     C11362   7.941   2.337  -0.267 -0.8650  0.9436  0.1503
   85MOL0     C11363   7.875   2.277  -0.386  0.2790  0.0077 -1.3531
   85MOL0     O11364   7.729   2.292  -0.365  0.2051  0.5207  1.0456
   85MOL0     C11365   7.639   2.219  -0.450  0.2518 -0.6304 -0.5921
   85MOL0     C11366   7.667   2.114  -0.534 -0.3737 -0.2325 -0.3032
   85MOL0     C11367   7.572   2.041  -0.608 -1.3412  0.2532 -0.5552
   85MOL0     C11368   7.627   1.936  -0.697  1.0464 -0.4563  0.8560
   85MOL0     C11369   7.435   2.083  -0.593 -0.4853 -0.2077 -0.1023
   85MOL0     C11370   7.326   2.024  -0.662 -0.2356 -0.3367  0.4030
   85MOL0     O11371   7.338   1.892  -0.692 -0.2900  0.2210  0.5542
   85MOL0     C11372   7.233   1.826  -0.755  0.1463 -1.0149  0.3073
   85MOL0     C11373   7.130   1.772  -0.681 -0.2588 -1.4905  0.1478
   85MOL0     C11374   7.031   1.700  -0.747 -0.2715 -0.0025  0.0701
   85MOL0     C11375   7.027   1.704  -0.886  0.6796 -1.0027  0.4054
   85MOL0     O11376   6.931   1.640  -0.962  0.8198  0.3644 -0.0852
   85MOL0     C11377   6.853   1.531  -0.906 -0.7926  0.0480  0.3895
   85MOL0     C11378   6.936   1.402  -0.871 -0.0620  0.2042 -0.5036
   85MOL0     C11379   6.982   1.338  -1.014 -0.2279 -0.4211  0.5344
   85MOL0     C11380   6.867   1.270  -1.090 -0.4558 -0.5587 -0.3978
   85MOL0     C11381   6.907   1.220  -1.234  0.3971  0.6739 -0.5527
   85MOL0     C11382   7.012   1.113  -1.230  0.0701  0.2130 -0.7767
   85MOL0     C11383   6.996   1.028  -1.357 -0.1693 -0.3516 -0.0317
   85MOL0     C11384   6.879   0.925  -1.354  0.3531  0.6658  0.2487
   85MOL0    Cl11385   6.747   0.961  -1.479  0.1148 -0.2136 -0.0127
   85MOL0     C11386   7.124   1.770  -0.959 -0.6084 -0.4582  0.0768
   85MOL0     C11387   7.227   1.824  -0.893  0.4531  0.1769 -0.8318
   85MOL0     O11388   7.233   2.087  -0.702  0.2328 -0.5757  0.2386
   85MOL0     C11389   7.399   2.196  -0.512  0.1643 -0.1182 -0.6104
   85MOL0     C11390   7.505   2.264  -0.444  0.8788 -0.7124  0.5318
   85MOL0     N11391   8.339   2.139  -0.330  0.3016 -0.1225  0.3251
   85MOL0     N11392   8.425   2.057  -0.360 -0.3397 -0.8077  1.0913
   85MOL0     C11393   8.873   1.297   0.545  0.7654 -1.3362  0.7157
   85MOL0     C11394   8.927   1.196   0.624  0.4257 -0.9108 -0.0720
   85MOL0     C11395   9.068   0.836   0.821 -0.2835 -0.2208 -0.8073
   85MOL0     C11396   9.058   0.804   0.965  0.0611  0.0733  0.9570
   85MOL0     C11397   9.040   0.668   1.006  1.2931 -0.1120  0.6244
   85MOL0     C11398   9.054   0.561   0.910 -0.5717  0.4139  0.1584
   85MOL0     O11399   9.068   0.430   0.956  0.0577  0.4487 -0.5099
   85MOL0     C11400   9.174   0.347   0.912 -0.0594  0.2998  1.1421
   85MOL0     C11401   9.297   0.336   1.003  0.7496  0.4041  0.0615
   85MOL0     C11402   9.256   0.222   1.098 -0.7921  0.5635 -0.3946
   85MOL0     C11403   9.362   0.206   1.208  0.0823  0.1858  0.0147
   85MOL0     C11404   9.337   0.084   1.292  0.6035  0.1824 -0.6097
   85MOL0     C11405   9.323  -0.012   1.360  0.1693  0.7009  0.1433
   85MOL0     C11406   9.065   0.590   0.775 -1.3015  0.3304  0.2263
   85MOL0     C11407   9.066   0.727   0.732  0.2509 -0.1478 -0.1090
   85MOL0     H11408   9.051   0.998   0.387  0.6149  0.4664  0.2066
   85MOL0     H11409   8.938   1.182   0.235  4.6195 -0.0792 -1.5728
   85MOL0     H11410   8.823   1.547   0.440  1.7742 -0.0513 -0.2781
   85MOL0     H11411   8.931   1.544   0.310  1.5252  0.2327  2.9619
   85MOL0     H11412   8.627   1.575   0.280 -0.2788 -1.3420 -0.3618
   85MOL0     H11413   8.729   1.714   0.269  2.9926 -0.3536  0.0239
   85MOL0     H11414   8.849   1.655   0.077 -0.3559  1.7798  0.3133
   85MOL0     H11415   8.803   1.480   0.085  0.4933 -0.4219  3.7935
   85MOL0     H11416   8.563   1.574   0.033  0.0673  0.8106  3.4155
   85MOL0     H11417   8.631   1.724   0.016 -0.5225 -0.0794  0.0390
   85MOL0     H11418   8.774   1.654  -0.167  1.3766 -1.2602 -1.1265
   85MOL0     H11419   8.717   1.482  -0.157 -3.4273 -1.0836 -5.1878
   85MOL0     H11420   8.574   1.579  -0.325  2.3204  0.1140  0.0296
   85MOL0     H11421   8.481   1.585  -0.174 -0.7545 -0.9206 -1.1907
   85MOL0     H11422   8.521   1.808  -0.135 -0.7432 -1.9956 -0.6986
   85MOL0     H11423   8.654   1.815  -0.258  0.6351  0.5048 -0.9566
   85MOL0     H11424   8.376   1.743  -0.330 -0.9331  0.2971  1.4035
   85MOL0     H11425   8.507   1.813  -0.433  2.6696 -1.5103  2.0246
   85MOL0     H11426   8.259   1.886  -0.141  2.5809 -2.3159 -0.5200
   85MOL0     H11427   8.033   2.102  -0.175  1.4635 -1.5995 -3.3050
   85MOL0     H11428   8.153   2.191  -0.081 -2.5845  1.4116  0.9956
   85MOL0     H11429   8.127   2.295  -0.365 -0.6328  0.6539 -0.5128
   85MOL0     H11430   8.156   2.381  -0.232  0.4442  0.6757  0.0879
   85MOL0     H11431   7.941   2.445  -0.278  1.1388  0.8864 -1.0936
   85MOL0     H11432   7.915   2.314  -0.163 -0.7496  2.9569  0.6524
   85MOL0     H11433   7.903   2.172  -0.382 -0.4626 -0.1456  0.8520
   85MOL0     H11434   7.903   2.322  -0.482 -0.7387  2.9304 -0.3875
   85MOL0     H11435   7.768   2.077  -0.543  0.0152  0.4750  0.9011
   85MOL0     H11436   7.575   1.841  -0.677 -2.3656  0.8019 -1.2222
   85MOL0     H11437   7.602   1.954  -0.802  0.6067 -0.8776  0.8816
   85MOL0     H11438   7.736   1.931  -0.697  1.0898  0.1091 -0.3066
   85MOL0     H11439   7.126   1.787  -0.574  1.0028  1.5795 -0.1263
   85MOL0     H11440   6.947   1.672  -0.684 -0.1709 -1.8952 -0.5711
   85MOL0     H11441   6.808   1.567  -0.813  2.0731  3.2735  0.7187
   85MOL0     H11442   6.768   1.518  -0.975  1.1392  3.6060 -3.0152
   85MOL0     H11443   7.024   1.426  -0.811  2.0557  0.6131 -3.5287
   85MOL0     H11444   6.874   1.330  -0.816 -2.3458  2.7642  0.4951
   85MOL0     H11445   7.057   1.262  -0.988  2.2808  0.9529 -2.1095
   85MOL0     H11446   7.033   1.408  -1.081  1.4868 -1.2575  0.8868
   85MOL0     H11447   6.821   1.189  -1.033  1.1456  0.5796  2.7035
   85MOL0     H11448   6.786   1.343  -1.090  1.2286  1.3890  0.4791
   85MOL0     H11449   6.946   1.306  -1.290 -1.1627  0.8312 -1.4492
   85MOL0     H11450   6.812   1.186  -1.275 -0.7846  2.5763  0.4411
   85MOL0     H11451   7.111   1.161  -1.226  0.1385  0.1215 -1.3839
   85MOL0     H11452   6.998   1.032  -1.158  1.1683 -1.5978 -2.5175
   85MOL0     H11453   7.086   0.970  -1.381  0.6403  1.1164 -0.7250
   85MOL0     H11454   6.989   1.105  -1.435 -1.2848  0.0933  0.4886
   85MOL0     H11455   6.825   0.934  -1.259  0.3996  0.1165  0.3310
   85MOL0     H11456   6.908   0.821  -1.372 -2.9523 -0.4626  0.7559
   85MOL0     H11457   7.121   1.781  -1.067 -0.0754  0.4589  0.1443
   85MOL0     H11458   7.308   1.870  -0.947  2.6077  0.7497  2.5544
   85MOL0     H11459   7.296   2.230  -0.505  0.8812  2.2282 -0.7623
   85MOL0     H11460   7.489   2.347  -0.376 -2.7727 -0.9454  0.1386
   85MOL0     H11461   8.813   1.382   0.575  0.6526 -0.3404 -2.1086
   85MOL0     H11462   8.910   1.203   0.731  0.3659  1.4547 -0.1892
   85MOL0     H11463   9.045   0.882   1.039 -2.6478  0.0200  0.6087
   85MOL0     H11464   9.015   0.656   1.111 -0.4230  1.6762  0.4899
   85MOL0     H11465   9.139   0.252   0.869  1.5962  0.0883  0.1684
   85MOL0     H11466   9.216   0.405   0.829 -2.4776  0.4196 -0.0708
   85MOL0     H11467   9.327   0.425   1.059 -0.2490 -0.1238  1.4967
   85MOL0     H11468   9.386   0.302   0.949  1.0446  1.4249 -0.1167
   85MOL0     H11469   9.247   0.128   1.043 -2.0285  2.8660 -4.4893
   85MOL0     H11470   9.161   0.238   1.149 -1.0785  3.3290 -1.6262
   85MOL0     H11471   9.359   0.290   1.277  1.2700 -0.1707  0.5229
   85MOL0     H11472   9.461   0.200   1.162  0.8899 -1.3303  1.8569
   85MOL0     H11473   9.302  -0.090   1.431  2.5508  0.6262  0.8781
   85MOL0     H11474   9.063   0.513   0.699 -4.5225  1.3689 -0.9093
   85MOL0     H11475   9.056   0.738   0.625 -2.1584 -1.6044 -0.1074
   86MOL0     O11476   9.533   7.946   9.073  0.3458 -0.0932 -0.2427
   86MOL0     C11477   9.488   8.057   9.051  0.2008 -0.1429 -0.3600
   86MOL0     O11478   9.567   8.178   9.066  0.0654  0.3990  0.7596
   86MOL0     C11479   9.690   8.174   9.122  0.5151  0.2821 -0.2647
   86MOL0     C11480   9.793   8.113   9.056  0.4240  0.8135  0.1741
   86MOL0     C11481   9.922   8.134   9.074  0.5258 -0.2664 -0.4161
   86MOL0     C11482   9.959   8.235   9.167  1.3838 -0.2069 -0.6080
   86MOL0     O11483  10.083   8.281   9.188 -0.9645  0.5490 -0.1488
   86MOL0     C11484  10.194   8.227   9.116  0.4421  0.0711 -0.4136
   86MOL0     C11485  10.328   8.305   9.167 -1.0554 -0.0026  0.2021
   86MOL0     C11486  10.364   8.271   9.306 -0.1217 -0.5762 -1.5224
   86MOL0     C11487  10.493   8.345   9.349  0.3053 -0.4999 -0.3726
   86MOL0     C11488  10.580   8.272   9.459 -0.5312 -0.1327  0.6900
   86MOL0     C11489  10.638   8.363   9.571 -0.0659 -0.8396  0.1706
   86MOL0     C11490  10.770   8.423   9.511 -0.0484 -0.4061 -0.8025
   86MOL0     C11491  10.861   8.488   9.620 -0.6871 -0.5482 -0.2182
   86MOL0     N11492  10.799   8.605   9.698 -0.4823 -0.4623 -0.7415
   86MOL0     C11493  10.795   8.598   9.839  0.4835 -0.0916 -0.1224
   86MOL0     C11494  10.785   8.733   9.864  0.7667 -0.6841  0.5507
   86MOL0     C11495  10.767   8.792   9.999  0.4385 -0.7204  0.3821
   86MOL0     C11496  10.625   8.785  10.059  0.2116  0.3490 -0.6798
   86MOL0     C11497  10.524   8.881  10.003 -0.7563 -0.4156  0.2865
   86MOL0     C11498  10.411   8.919  10.087  0.4010  0.0763  0.0345
   86MOL0     O11499  10.337   8.798  10.123 -0.0731 -0.6412 -0.9932
   86MOL0     C11500  10.206   8.807  10.162 -0.2125 -0.1755  0.0802
   86MOL0     C11501  10.131   8.921  10.188 -0.1083 -0.8450 -0.1944
   86MOL0     C11502   9.997   8.912  10.226 -0.3618  0.2786 -1.3262
   86MOL0     C11503   9.941   9.050  10.250  0.4812  0.0292 -0.8248
   86MOL0     C11504   9.925   8.792  10.227 -0.6191  0.4398 -0.5768
   86MOL0     C11505   9.780   8.784  10.263 -1.0131  0.3272  0.3775
   86MOL0     O11506   9.733   8.655  10.245  0.0555 -1.1450 -0.0353
   86MOL0     C11507   9.604   8.617  10.276  0.2678  0.4041 -0.3568
   86MOL0     C11508   9.517   8.573  10.182 -0.2935  0.8780 -0.4322
   86MOL0     C11509   9.392   8.532  10.217  0.8820 -0.3986  0.1162
   86MOL0     C11510   9.345   8.529  10.350  0.8049  0.8800  0.1800
   86MOL0     O11511   9.217   8.485  10.385  0.1783  0.7433  0.5228
   86MOL0     C11512   9.103   8.507  10.303 -0.2626 -0.4198 -0.3982
   86MOL0     C11513   9.020   8.614  10.375 -0.0922 -1.2360 -0.4313
   86MOL0     C11514   8.964   8.559  10.511 -0.4397  0.1229  0.2149
   86MOL0     C11515   8.876   8.666  10.569 -1.0787 -0.3782  0.4660
   86MOL0     C11516   8.819   8.625  10.708  0.5261 -1.1526  1.0933
   86MOL0     C11517   8.747   8.739  10.775  0.6757 -0.8730 -0.3597
   86MOL0     C11518   8.618   8.781  10.697  0.0872  0.6954 -0.0456
   86MOL0     C11519   8.607   8.929  10.654 -0.5613  0.3537  0.6618
   86MOL0    Cl11520   8.574   9.027  10.803 -0.3015  0.0595 -0.0142
   86MOL0     C11521   9.443   8.565  10.446 -0.1251  0.8734 -0.9339
   86MOL0     C11522   9.565   8.618  10.413 -0.8439 -1.0068  0.6454
   86MOL0     O11523   9.729   8.882  10.314 -0.2218  0.0399 -0.6214
   86MOL0     C11524   9.995   8.677  10.201 -0.6355 -0.1308  0.3826
   86MOL0     C11525  10.131   8.690  10.174 -0.5359  0.8676  0.3173
   86MOL0     N11526  10.770   8.802   9.748  0.3325  0.0021  0.0847
   86MOL0     N11527  10.805   8.731   9.654 -0.1519  0.8012 -0.5174
   86MOL0     C11528   9.859   8.295   9.243 -0.7964  0.9812  0.4866
   86MOL0     C11529   9.725   8.265   9.218  0.4575 -0.0587 -0.3011
   86MOL0     C11530   9.344   8.077   9.005  0.4191 -1.1291  0.5932
   86MOL0     C11531   9.295   8.194   8.955 -0.3091 -0.1816  0.0830
   86MOL0     C11532   9.164   8.215   8.917 -0.4500  0.5699 -0.3951
   86MOL0     C11533   9.077   8.109   8.939  0.5609  0.3011 -0.0723
   86MOL0     O11534   8.946   8.139   8.904 -0.0128 -0.4887  0.5687
   86MOL0     C11535   8.845   8.040   8.922 -0.0477  0.6717 -0.7232
   86MOL0     C11536   8.838   7.935   8.807 -0.2421 -0.6079 -0.0894
   86MOL0     C11537   8.721   7.829   8.818  0.9257  0.1853  0.1805
   86MOL0     C11538   8.568   7.844   8.775 -1.0948  1.2337  0.2376
   86MOL0     C11539   8.492   7.736   8.840  0.1339  0.0344 -0.6514
   86MOL0     C11540   8.418   7.646   8.871  0.4854  0.0001  0.7832
   86MOL0     C11541   9.119   7.988   8.997 -0.2007  0.1903  0.5194
   86MOL0     C11542   9.256   7.975   9.024 -0.2883  0.1939 -0.2439
   86MOL0     H11543   9.745   8.054   8.979 -0.7785  4.3081 -1.9761
   86MOL0     H11544   9.999   8.091   9.011  2.3709  2.0969  0.0808
   86MOL0     H11545  10.203   8.118   9.125  1.8579  0.2327  0.5198
   86MOL0     H11546  10.182   8.241   9.009 -2.0947 -2.8923 -0.6695
   86MOL0     H11547  10.411   8.293   9.097 -3.2363  1.8599 -2.9580
   86MOL0     H11548  10.308   8.412   9.162 -1.3261 -0.0097  0.9401
   86MOL0     H11549  10.279   8.298   9.370  1.1612 -1.3002  0.5929
   86MOL0     H11550  10.388   8.164   9.312 -1.3172 -0.8486 -1.3632
   86MOL0     H11551  10.551   8.340   9.256 -2.5907 -0.7594 -2.3280
   86MOL0     H11552  10.474   8.451   9.371  0.4969 -0.9694  2.4016
   86MOL0     H11553  10.515   8.197   9.506 -0.8833 -0.3668 -0.1464
   86MOL0     H11554  10.659   8.219   9.403  0.4160 -1.3659  3.0405
   86MOL0     H11555  10.571   8.442   9.606  3.0105  0.4287  3.9319
   86MOL0     H11556  10.669   8.299   9.654  1.1409 -0.1766  0.2594
   86MOL0     H11557  10.825   8.344   9.460  1.4842  0.1874 -0.1647
   86MOL0     H11558  10.749   8.505   9.442  0.5754  2.3748  2.0719
   86MOL0     H11559  10.951   8.525   9.570 -1.3784 -2.0062 -2.6700
   86MOL0     H11560  10.891   8.414   9.695  1.3057  1.0132  0.6316
   86MOL0     H11561  10.791   8.510   9.903  0.3848 -0.3569 -0.4914
   86MOL0     H11562  10.839   8.748  10.067  0.6258  0.6205  1.0910
   86MOL0     H11563  10.804   8.895   9.994  1.7263 -1.1428 -4.5873
   86MOL0     H11564  10.628   8.780  10.168  2.2519  2.9157 -0.5418
   86MOL0     H11565  10.579   8.688  10.035 -1.0945  0.8403 -0.2190
   86MOL0     H11566  10.486   8.847   9.906  0.0710  1.0398 -0.5889
   86MOL0     H11567  10.573   8.976   9.981 -2.2792  0.1356 -0.8417
   86MOL0     H11568  10.350   8.996  10.039  0.2490  0.2606  0.5267
   86MOL0     H11569  10.452   8.959  10.180  2.5077  0.2276 -0.8887
   86MOL0     H11570  10.186   9.014  10.186  2.9549 -2.3518  2.8353
   86MOL0     H11571  10.012   9.132  10.247  2.5072 -1.2255  3.8443
   86MOL0     H11572   9.868   9.083  10.176 -1.8528  0.4693  1.5379
   86MOL0     H11573   9.894   9.044  10.348  0.1465 -1.7743 -1.0438
   86MOL0     H11574   9.544   8.564  10.077 -0.4323  1.4989 -0.5205
   86MOL0     H11575   9.332   8.493  10.136  0.1499 -2.9394  1.7494
   86MOL0     H11576   9.134   8.543  10.204  2.1117 -1.7236 -0.2057
   86MOL0     H11577   9.043   8.417  10.295  1.5678 -1.9064  1.5141
   86MOL0     H11578   9.074   8.707  10.394 -2.6324  0.2718 -0.0000
   86MOL0     H11579   8.934   8.647  10.316  1.5028  3.6476 -0.4875
   86MOL0     H11580   9.050   8.542  10.576  0.7972 -1.8088 -1.7546
   86MOL0     H11581   8.910   8.465  10.495  0.8647 -0.3455 -1.9389
   86MOL0     H11582   8.935   8.758  10.571  1.7600 -2.0717  0.6447
   86MOL0     H11583   8.794   8.686  10.500  0.7426 -0.7052 -1.9244
   86MOL0     H11584   8.904   8.586  10.765  0.4568 -1.3514  1.0617
   86MOL0     H11585   8.742   8.548  10.696  0.0777 -1.0250  2.8449
   86MOL0     H11586   8.717   8.708  10.875 -0.9598 -1.9651 -1.1385
   86MOL0     H11587   8.814   8.825  10.785 -1.6352  1.2475 -1.7870
   86MOL0     H11588   8.538   8.750  10.765 -1.0565 -2.1118 -2.4505
   86MOL0     H11589   8.611   8.727  10.602  1.5775  3.6025 -1.9572
   86MOL0     H11590   8.517   8.939  10.592 -0.9329  0.8081  1.2651
   86MOL0     H11591   8.694   8.955  10.593 -2.1219 -0.4114 -2.0727
   86MOL0     H11592   9.414   8.548  10.550 -1.6388 -0.9336 -1.5794
   86MOL0     H11593   9.628   8.645  10.496  1.2935 -1.3851 -0.7856
   86MOL0     H11594   9.958   8.576  10.217  0.3998 -0.7466 -0.9141
   86MOL0     H11595  10.185   8.596  10.166  0.0635  1.1132  1.2954
   86MOL0     H11596   9.886   8.364   9.323  2.3704 -1.2425  1.5194
   86MOL0     H11597   9.641   8.315   9.267 -2.2151 -2.2854 -2.3083
   86MOL0     H11598   9.361   8.280   8.955  0.3317 -0.6504 -0.7735
   86MOL0     H11599   9.135   8.311   8.875  4.4416  1.1557 -3.2566
   86MOL0     H11600   8.865   8.002   9.023 -0.7776  2.4602  0.1435
   86MOL0     H11601   8.748   8.090   8.932  0.3036  1.0159  1.4031
   86MOL0     H11602   8.925   7.868   8.807  0.2740  0.0375  0.9067
   86MOL0     H11603   8.821   7.995   8.718 -1.6490  0.8561  1.0934
   86MOL0     H11604   8.699   7.822   8.925  0.3328  3.4295  0.3730
   86MOL0     H11605   8.762   7.737   8.775 -0.4937 -0.0506 -0.7159
   86MOL0     H11606   8.548   7.841   8.668  1.6570  1.2006 -0.3408
   86MOL0     H11607   8.539   7.946   8.804  4.4312  2.8978  1.0716
   86MOL0     H11608   8.358   7.561   8.897  0.0413 -0.5935 -1.8977
   86MOL0     H11609   9.055   7.902   9.017  0.8287 -1.6197 -3.1738
   86MOL0     H11610   9.280   7.874   9.058  0.9833  1.1386  1.9457
   87MOL0     O11611   2.639   1.860   7.975  0.0311 -0.0255  0.3124
   87MOL0     C11612   2.613   1.849   8.091 -0.0075  0.0876  0.1378
   87MOL0     O11613   2.490   1.823   8.135  0.2390 -0.3920 -0.0562
   87MOL0     C11614   2.395   1.805   8.030 -0.5900  0.3388 -0.4301
   87MOL0     C11615   2.346   1.907   7.956  0.1655 -0.4049  0.0178
   87MOL0     C11616   2.242   1.892   7.865 -0.4926 -0.3258  0.0071
   87MOL0     C11617   2.191   1.761   7.837 -0.1782  0.1447 -0.6478
   87MOL0     O11618   2.087   1.719   7.754 -0.6463  0.0334 -0.5987
   87MOL0     C11619   2.092   1.800   7.635 -0.5677  0.1303  0.6292
   87MOL0     C11620   1.999   1.738   7.527 -0.1070 -0.2810 -0.5948
   87MOL0     C11621   2.040   1.596   7.479 -0.6926  0.5034  0.2359
   87MOL0     C11622   2.182   1.588   7.431 -0.5584 -0.3842 -0.7667
   87MOL0     C11623   2.197   1.461   7.326 -0.5248 -0.5848 -0.0117
   87MOL0     C11624   2.326   1.461   7.248 -0.5167 -0.0588 -0.2131
   87MOL0     C11625   2.330   1.355   7.143 -0.5353  0.6647  0.2014
   87MOL0     C11626   2.450   1.372   7.049  0.6162  0.6512  0.1623
   87MOL0     N11627   2.567   1.372   7.132  0.2493 -0.2626  0.8735
   87MOL0     C11628   2.618   1.254   7.159 -0.7678  0.8171 -1.0947
   87MOL0     C11629   2.733   1.277   7.230 -0.7736 -0.3349  0.3580
   87MOL0     C11630   2.821   1.167   7.274  0.3996  0.5906 -0.8625
   87MOL0     C11631   2.858   1.169   7.420 -0.4948  0.5732 -0.6949
   87MOL0     C11632   2.967   1.067   7.444  0.2816 -0.3008  0.4110
   87MOL0     C11633   2.985   1.052   7.588  0.1438  0.1711 -1.0288
   87MOL0     O11634   3.038   1.168   7.653  0.1617 -0.1494 -0.7712
   87MOL0     C11635   3.051   1.169   7.785  0.9748  0.3490  0.4846
   87MOL0     C11636   3.098   1.293   7.834  1.5120  0.6602  0.1170
   87MOL0     C11637   3.123   1.312   7.967 -0.6064  0.6198 -0.2665
   87MOL0     C11638   3.164   1.453   8.009 -0.8515  0.2870 -0.2205
   87MOL0     C11639   3.090   1.206   8.057  0.4437 -0.2907 -0.5690
   87MOL0     C11640   3.103   1.223   8.204 -0.2829 -0.4925 -0.1191
   87MOL0     O11641   3.182   1.146   8.287 -1.0290  0.3326  0.8608
   87MOL0     C11642   3.283   1.061   8.232  0.2727 -0.3748 -0.0002
   87MOL0     C11643   3.299   0.929   8.285  0.6084 -0.7191  0.0017
   87MOL0     C11644   3.404   0.847   8.235 -0.6191  0.1940  0.0329
   87MOL0     C11645   3.488   0.894   8.135  0.2382 -0.5278  0.2227
   87MOL0     O11646   3.584   0.823   8.075  0.2968 -0.0212  0.8074
   87MOL0     C11647   3.597   0.682   8.095  0.2061 -1.4367  0.8680
   87MOL0     C11648   3.693   0.629   7.994 -0.1729 -1.1160  0.0601
   87MOL0     C11649   3.694   0.478   7.982 -0.7922 -0.6492 -0.0674
   87MOL0     C11650   3.823   0.412   7.920  0.6733  0.3631  0.7666
   87MOL0     C11651   3.822   0.259   7.884  0.0777  0.0625  0.1466
   87MOL0     C11652   3.722   0.182   7.969  0.6915 -0.7866  0.0914
   87MOL0     C11653   3.693   0.042   7.920  0.2669  0.3903 -0.2956
   87MOL0     C11654   3.651  -0.055   8.038  0.8270  0.8580  0.8317
   87MOL0    Cl11655   3.792  -0.129   8.102  0.0426 -0.7093 -0.0725
   87MOL0     C11656   3.478   1.026   8.097  0.0646  0.2081  0.0490
   87MOL0     C11657   3.388   1.108   8.148 -0.1879 -0.6255  0.7199
   87MOL0     O11658   3.026   1.303   8.246 -0.4373  0.1019  0.2839
   87MOL0     C11659   3.057   1.078   8.010  0.4623  0.5329  0.4687
   87MOL0     C11660   3.051   1.054   7.872 -0.0759 -0.0177 -0.5440
   87MOL0     N11661   2.735   1.414   7.263 -0.8800  0.8204 -0.3684
   87MOL0     N11662   2.646   1.471   7.184  0.4005 -0.2429 -0.1693
   87MOL0     C11663   2.249   1.649   7.898  0.1588  0.1928 -0.4602
   87MOL0     C11664   2.349   1.664   7.999  0.5684 -0.6531 -0.1852
   87MOL0     C11665   2.725   1.857   8.185 -0.7637 -0.7127 -0.2660
   87MOL0     C11666   2.860   1.815   8.151 -1.3474 -0.2652  0.6056
   87MOL0     C11667   2.959   1.806   8.242 -0.4796  0.3439  0.2892
   87MOL0     C11668   2.938   1.826   8.378 -0.1119 -0.3227 -0.1381
   87MOL0     O11669   3.060   1.810   8.444  0.1334  0.0674 -0.8272
   87MOL0     C11670   3.069   1.864   8.579 -0.0716 -0.8085  0.7135
   87MOL0     C11671   3.210   1.922   8.618 -0.0076 -0.1109  0.9453
   87MOL0     C11672   3.199   1.966   8.759 -0.1695  0.5924 -0.3666
   87MOL0     C11673   3.331   2.016   8.829 -0.3390  0.0009 -0.4001
   87MOL0     C11674   3.294   2.112   8.927 -1.6033  0.4580 -0.4025
   87MOL0     C11675   3.254   2.170   9.029  0.7898 -0.0021  0.4636
   87MOL0     C11676   2.811   1.873   8.420 -0.2150  0.3400 -1.3316
   87MOL0     C11677   2.702   1.888   8.326 -0.4638  0.8039  0.5480
   87MOL0     H11678   2.399   2.001   7.971 -2.2713  0.7962  1.8890
   87MOL0     H11679   2.204   1.979   7.810  0.6241 -0.5334 -1.1240
   87MOL0     H11680   2.058   1.903   7.647 -0.4060  0.3609 -0.6926
   87MOL0     H11681   2.196   1.794   7.600 -0.3045  1.0127  1.2126
   87MOL0     H11682   1.896   1.739   7.564  0.2798 -4.1716  1.0547
   87MOL0     H11683   2.009   1.801   7.438 -3.6675 -1.5496 -2.0602
   87MOL0     H11684   2.031   1.515   7.552 -1.8672 -0.3448 -0.8067
   87MOL0     H11685   1.970   1.570   7.399 -0.3949  1.0611 -0.2096
   87MOL0     H11686   2.207   1.684   7.385 -2.1934  0.4738  0.0504
   87MOL0     H11687   2.252   1.573   7.513  0.7471  2.3256 -1.2673
   87MOL0     H11688   2.172   1.368   7.376 -0.8429 -0.6302 -0.2506
   87MOL0     H11689   2.119   1.462   7.248  0.3854 -3.6774 -1.1126
   87MOL0     H11690   2.334   1.553   7.189  1.2572  0.4122  0.6885
   87MOL0     H11691   2.406   1.447   7.321 -0.0388  0.3546 -0.6425
   87MOL0     H11692   2.340   1.253   7.181  3.6431  0.3480 -1.2307
   87MOL0     H11693   2.238   1.353   7.085 -0.2086 -3.9454 -0.5289
   87MOL0     H11694   2.450   1.473   7.007  0.6927  0.2381 -0.8638
   87MOL0     H11695   2.443   1.307   6.962  2.0703  1.3137 -0.4795
   87MOL0     H11696   2.604   1.152   7.127  3.0032 -0.3429  0.3854
   87MOL0     H11697   2.772   1.070   7.261  4.1084 -1.6304  0.1190
   87MOL0     H11698   2.901   1.172   7.200  1.3828  1.3673  0.2106
   87MOL0     H11699   2.768   1.149   7.479 -1.6964  0.8494 -2.3576
   87MOL0     H11700   2.902   1.267   7.440  2.0208 -0.6678  0.2858
   87MOL0     H11701   3.061   1.095   7.397 -0.3960  1.0968 -0.1831
   87MOL0     H11702   2.938   0.971   7.401 -0.8492  0.9080 -1.6689
   87MOL0     H11703   3.050   0.966   7.603  1.4375  1.4671  1.3701
   87MOL0     H11704   2.885   1.039   7.631 -0.0625  2.5119 -0.6526
   87MOL0     H11705   3.120   1.360   7.752  2.8126 -1.9260 -1.7921
   87MOL0     H11706   3.237   1.443   8.091 -0.8525 -1.1667 -0.3675
   87MOL0     H11707   3.203   1.498   7.918 -5.5415 -0.4077 -2.8754
   87MOL0     H11708   3.077   1.505   8.048 -0.7409 -1.3850  2.5548
   87MOL0     H11709   3.229   0.898   8.362  1.4431  0.4448  1.2821
   87MOL0     H11710   3.412   0.744   8.268 -0.8032 -0.4550 -1.8139
   87MOL0     H11711   3.629   0.667   8.198  0.0027 -1.8670  0.8754
   87MOL0     H11712   3.503   0.626   8.087  0.0795 -1.3671  1.7432
   87MOL0     H11713   3.660   0.675   7.900  4.0002  1.1918 -0.5226
   87MOL0     H11714   3.796   0.660   8.015  0.2655 -0.9464 -2.1119
   87MOL0     H11715   3.614   0.433   7.922 -0.2732  0.5411 -1.7234
   87MOL0     H11716   3.685   0.439   8.084  1.2821 -1.4059 -0.1263
   87MOL0     H11717   3.844   0.467   7.828  0.6446 -2.2018 -0.9059
   87MOL0     H11718   3.910   0.427   7.985  0.3525 -0.8852  1.5117
   87MOL0     H11719   3.920   0.213   7.898 -0.9525 -1.7778  1.6619
   87MOL0     H11720   3.783   0.250   7.782  1.1806  1.8141 -0.4835
   87MOL0     H11721   3.735   0.181   8.078 -0.6538 -3.1890  0.2996
   87MOL0     H11722   3.624   0.227   7.955 -0.0165 -1.3633  2.5835
   87MOL0     H11723   3.763  -0.011   7.855 -3.1012 -1.8946 -2.3825
   87MOL0     H11724   3.615   0.052   7.844 -0.1533  0.5488  0.1491
   87MOL0     H11725   3.580  -0.128   7.998  1.8097 -1.0728  2.3899
   87MOL0     H11726   3.600  -0.003   8.120 -0.7254  0.0600  0.4118
   87MOL0     H11727   3.549   1.051   8.019 -0.4678 -0.4439 -0.6528
   87MOL0     H11728   3.394   1.214   8.123 -0.9719 -0.0164  2.8739
   87MOL0     H11729   3.037   0.997   8.079  1.3085 -1.7698 -1.8244
   87MOL0     H11730   3.032   0.950   7.850 -0.3010 -0.7747  2.7330
   87MOL0     H11731   2.219   1.545   7.885 -1.1769  0.2388  1.7715
   87MOL0     H11732   2.377   1.579   8.059 -1.0557  0.0692  1.7211
   87MOL0     H11733   2.888   1.780   8.052  1.7887  3.0550  0.1157
   87MOL0     H11734   3.059   1.796   8.201 -1.2850  1.7296 -2.2328
   87MOL0     H11735   3.010   1.955   8.566 -1.4911 -2.0950 -4.3753
   87MOL0     H11736   3.035   1.809   8.667  3.5458  1.4435  3.8702
   87MOL0     H11737   3.237   2.008   8.555 -2.9227 -1.4548 -2.5251
   87MOL0     H11738   3.287   1.846   8.608  1.7063  1.3149  2.5993
   87MOL0     H11739   3.154   1.875   8.800  3.1340 -0.8563  0.3864
   87MOL0     H11740   3.114   2.035   8.756 -2.3216 -1.9759 -1.8916
   87MOL0     H11741   3.402   2.058   8.756  0.8239 -4.2173 -1.9937
   87MOL0     H11742   3.368   1.927   8.880 -2.3277  1.2019  3.5712
   87MOL0     H11743   3.187   2.215   9.099  1.1611  1.7691 -0.2827
   87MOL0     H11744   2.802   1.905   8.523  0.6634  3.0506 -2.0264
   87MOL0     H11745   2.613   1.931   8.369 -0.2285  0.2525  1.6194
   88MOL0     O11746   8.602   1.172   0.887  0.1677  0.1346 -0.1041
   88MOL0     C11747   8.589   1.251   0.980  0.3672 -0.1009 -0.2215
   88MOL0     O11748   8.543   1.383   0.985  1.0455  0.0658  0.4296
   88MOL0     C11749   8.461   1.409   0.875 -0.0634  0.0467 -0.6416
   88MOL0     C11750   8.514   1.426   0.755 -0.4663 -0.0946 -0.6736
   88MOL0     C11751   8.435   1.452   0.644 -0.1666  0.2194 -0.6653
   88MOL0     C11752   8.295   1.461   0.661 -0.1800 -0.0955 -1.4964
   88MOL0     O11753   8.202   1.493   0.559 -0.6894  0.1895 -0.5083
   88MOL0     C11754   8.246   1.518   0.436  0.9113 -0.0998  0.3836
   88MOL0     C11755   8.287   1.389   0.360  0.0111 -0.4623 -1.1159
   88MOL0     C11756   8.367   1.402   0.233  0.3581  0.4831  0.2937
   88MOL0     C11757   8.403   1.265   0.184 -0.3231  0.3736 -0.2427
   88MOL0     C11758   8.499   1.283   0.071 -0.5145  0.5927 -0.6664
   88MOL0     C11759   8.564   1.139   0.039  0.6486 -0.6491  0.6094
   88MOL0     C11760   8.629   1.148  -0.095  0.4843 -0.0700 -0.4984
   88MOL0     C11761   8.666   1.010  -0.142 -0.2553  0.8657  0.5457
   88MOL0     N11762   8.799   0.971  -0.083  0.1263 -0.5878  0.2333
   88MOL0     C11763   8.867   0.859  -0.117 -0.8540  0.6886  0.1912
   88MOL0     C11764   8.976   0.850  -0.032  0.1385 -0.8164  0.1368
   88MOL0     C11765   9.082   0.746  -0.020 -0.5936 -1.1176  0.2513
   88MOL0     C11766   9.206   0.781  -0.107 -0.0431  0.1836 -0.3882
   88MOL0     C11767   9.284   0.646  -0.116 -0.1554  0.5484 -0.0897
   88MOL0     C11768   9.408   0.672  -0.203 -0.2200 -0.1509 -0.8341
   88MOL0     O11769   9.375   0.686  -0.340  0.3554 -0.3441  0.1741
   88MOL0     C11770   9.362   0.589  -0.437 -0.3036  0.4140 -0.4284
   88MOL0     C11771   9.372   0.624  -0.567  0.2132 -0.1241  1.1578
   88MOL0     C11772   9.366   0.530  -0.673  1.2218  0.1909 -0.1058
   88MOL0     C11773   9.405   0.595  -0.813  0.3405 -0.5565 -0.5324
   88MOL0     C11774   9.338   0.395  -0.639  0.7711 -0.1766  0.0883
   88MOL0     C11775   9.329   0.279  -0.743 -0.8779 -0.8661  0.3885
   88MOL0     O11776   9.359   0.308  -0.868 -0.4266  0.1612  0.1100
   88MOL0     C11777   9.303   0.231  -0.966  0.3328  0.5262 -0.9529
   88MOL0     C11778   9.197   0.147  -0.961 -0.8881  0.3743  0.4001
   88MOL0     C11779   9.176   0.052  -1.070  0.7284  0.1998 -0.6960
   88MOL0     C11780   9.255   0.058  -1.182 -0.6120  0.4876  0.5355
   88MOL0     O11781   9.240  -0.037  -1.289 -0.5223  0.2311  0.1950
   88MOL0     C11782   9.213  -0.171  -1.260 -0.0796 -0.5912 -0.7154
   88MOL0     C11783   9.228  -0.258  -1.389  0.8152  0.3514  0.5858
   88MOL0     C11784   9.360  -0.237  -1.455  0.2427 -0.3539 -0.9173
   88MOL0     C11785   9.353  -0.155  -1.580  0.2200 -0.1687  0.1570
   88MOL0     C11786   9.506  -0.147  -1.625 -0.6111 -0.8478  0.0685
   88MOL0     C11787   9.522  -0.087  -1.765  0.4201  0.0739  0.5825
   88MOL0     C11788   9.639  -0.152  -1.848  0.4001  1.6781 -1.0230
   88MOL0     C11789   9.625  -0.301  -1.875 -0.1614  0.0737  0.1242
   88MOL0    Cl11790   9.742  -0.350  -1.996  0.3231  0.6716  0.8865
   88MOL0     C11791   9.331   0.169  -1.194  0.5671 -0.5142  0.7886
   88MOL0     C11792   9.360   0.264  -1.093  0.2511  0.1095 -0.6507
   88MOL0     O11793   9.304   0.164  -0.697  0.3100  0.8799 -0.5611
   88MOL0     C11794   9.334   0.364  -0.503 -0.0598  0.3655 -0.5831
   88MOL0     C11795   9.349   0.450  -0.403  0.2740  1.0154 -0.3251
   88MOL0     N11796   8.980   0.965   0.039 -0.0063 -0.2271  1.0210
   88MOL0     N11797   8.877   1.038   0.006  0.2409  0.4585 -0.0826
   88MOL0     C11798   8.245   1.443   0.788 -0.3414 -0.0373  0.1493
   88MOL0     C11799   8.323   1.420   0.897  0.0183  1.6997  0.1868
   88MOL0     C11800   8.661   1.222   1.105 -0.2930  0.2876  0.5375
   88MOL0     C11801   8.763   1.125   1.108 -0.1722  0.1254 -0.8310
   88MOL0     C11802   8.826   1.099   1.229  0.5485  0.2236  1.1314
   88MOL0     C11803   8.784   1.162   1.345 -1.6045 -0.5411 -0.6100
   88MOL0     O11804   8.841   1.133   1.466  0.6703  0.9033  0.0350
   88MOL0     C11805   8.781   1.018   1.527  0.4117 -0.2999 -0.6851
   88MOL0     C11806   8.664   1.048   1.626  1.4433  0.2382 -0.3116
   88MOL0     C11807   8.556   0.940   1.598  0.1426  0.4977  0.2053
   88MOL0     C11808   8.429   0.954   1.683  0.4992 -0.2028  0.4215
   88MOL0     C11809   8.359   1.084   1.665  0.5927 -1.0162 -0.5048
   88MOL0     C11810   8.291   1.186   1.653 -0.2799 -0.7553  0.2885
   88MOL0     C11811   8.675   1.244   1.342 -0.3052 -0.0202 -0.8917
   88MOL0     C11812   8.609   1.276   1.223 -0.5612  0.0976  0.6041
   88MOL0     H11813   8.622   1.426   0.748 -0.5473 -0.1747 -2.2315
   88MOL0     H11814   8.486   1.472   0.551  1.0491 -2.1868 -0.5741
   88MOL0     H11815   8.167   1.570   0.382  0.6805  0.7431  1.4990
   88MOL0     H11816   8.320   1.598   0.447 -0.2711  1.1526 -0.3858
   88MOL0     H11817   8.351   1.330   0.426 -0.1811  2.1093  1.5973
   88MOL0     H11818   8.193   1.338   0.336 -2.4613  3.7876 -1.5595
   88MOL0     H11819   8.307   1.461   0.164  0.5002 -0.6027 -0.7854
   88MOL0     H11820   8.461   1.456   0.246  0.8428  0.2408 -1.8498
   88MOL0     H11821   8.441   1.199   0.263  1.3731  1.8153  0.2224
   88MOL0     H11822   8.310   1.214   0.159 -0.0719 -2.1913  3.2039
   88MOL0     H11823   8.430   1.316  -0.007 -1.2022 -0.1364 -0.3770
   88MOL0     H11824   8.576   1.360   0.081  2.8472 -2.5330 -0.2293
   88MOL0     H11825   8.637   1.117   0.118 -1.2621 -1.0648  2.3513
   88MOL0     H11826   8.486   1.063   0.031  0.1436  0.0429 -1.8121
   88MOL0     H11827   8.544   1.181  -0.155  0.7033 -0.8223 -1.2303
   88MOL0     H11828   8.702   1.229  -0.097  0.0746  0.3588  0.6929
   88MOL0     H11829   8.672   1.017  -0.251  0.5643 -1.6185  0.3562
   88MOL0     H11830   8.591   0.931  -0.128  0.6369 -0.1036  0.0453
   88MOL0     H11831   8.830   0.789  -0.191 -1.1206 -0.0898  1.0510
   88MOL0     H11832   9.124   0.754   0.081 -0.5906 -0.6402  0.2161
   88MOL0     H11833   9.044   0.649  -0.053  0.6600 -2.2555  1.9565
   88MOL0     H11834   9.264   0.861  -0.059 -0.0169 -0.3208  0.4279
   88MOL0     H11835   9.178   0.821  -0.205  0.8321  1.8264 -0.0166
   88MOL0     H11836   9.217   0.575  -0.166  1.8007  0.8954 -3.4222
   88MOL0     H11837   9.318   0.618  -0.015 -0.7385  1.0295  0.2454
   88MOL0     H11838   9.481   0.591  -0.189  1.6661  1.2203 -2.2450
   88MOL0     H11839   9.457   0.761  -0.163 -0.2081 -0.1249 -0.9046
   88MOL0     H11840   9.393   0.730  -0.583  1.3056 -0.3174  1.3035
   88MOL0     H11841   9.439   0.513  -0.877 -1.4147 -2.1596  0.4917
   88MOL0     H11842   9.322   0.644  -0.866  1.6310  1.8835 -0.4442
   88MOL0     H11843   9.479   0.675  -0.805 -0.2100 -0.2469  2.4889
   88MOL0     H11844   9.143   0.143  -0.867  0.9986 -1.2841  1.4810
   88MOL0     H11845   9.097  -0.021  -1.057  0.1563  0.9005 -0.1734
   88MOL0     H11846   9.271  -0.204  -1.173 -0.8379  3.1234  1.4003
   88MOL0     H11847   9.112  -0.181  -1.218  1.9556 -2.0265  4.7010
   88MOL0     H11848   9.220  -0.361  -1.350 -0.7699 -0.3271 -1.3682
   88MOL0     H11849   9.142  -0.230  -1.451 -0.2227 -0.0626  1.7810
   88MOL0     H11850   9.401  -0.335  -1.482  2.3785  0.0220  0.6786
   88MOL0     H11851   9.420  -0.189  -1.377  0.6670 -0.7100 -1.0255
   88MOL0     H11852   9.301  -0.202  -1.664  1.3764  0.2496 -0.8257
   88MOL0     H11853   9.305  -0.059  -1.555 -2.1897 -0.5974 -2.2817
   88MOL0     H11854   9.557  -0.243  -1.635  2.5307  0.7918 -0.8619
   88MOL0     H11855   9.561  -0.088  -1.551 -0.8773 -1.6540  0.9397
   88MOL0     H11856   9.434  -0.085  -1.829 -1.0531  1.1315  2.5455
   88MOL0     H11857   9.542   0.019  -1.745  0.3729 -0.2066  2.2636
   88MOL0     H11858   9.729  -0.140  -1.787  0.3569  0.0561 -0.5799
   88MOL0     H11859   9.632  -0.107  -1.947  1.4723 -0.7545 -2.2821
   88MOL0     H11860   9.522  -0.325  -1.901  0.6796 -0.6584 -3.0392
   88MOL0     H11861   9.643  -0.365  -1.788 -2.0610 -2.4448 -1.2070
   88MOL0     H11862   9.360   0.197  -1.295 -2.1259  0.8672  0.3086
   88MOL0     H11863   9.443   0.333  -1.098  0.7502  0.6913  6.1739
   88MOL0     H11864   9.325   0.261  -0.470 -1.1203  0.7877  0.5447
   88MOL0     H11865   9.345   0.426  -0.297  0.6749  1.2114 -0.2615
   88MOL0     H11866   8.141   1.459   0.814 -0.0374  2.0350  0.2009
   88MOL0     H11867   8.283   1.391   0.993 -3.6330  1.3757 -1.2565
   88MOL0     H11868   8.791   1.075   1.016  2.5082 -2.6872  1.3196
   88MOL0     H11869   8.905   1.025   1.235  0.5110 -0.5120 -3.5236
   88MOL0     H11870   8.762   0.949   1.445 -0.6080  0.6779 -1.2990
   88MOL0     H11871   8.856   0.966   1.588  0.3028  1.0340  0.6781
   88MOL0     H11872   8.619   1.146   1.606 -0.7412 -0.8839 -1.2341
   88MOL0     H11873   8.693   1.044   1.732  0.4811  0.2090 -0.0442
   88MOL0     H11874   8.599   0.840   1.608 -0.1900  0.4314  1.0457
   88MOL0     H11875   8.528   0.945   1.493 -1.2262  3.1413  0.6059
   88MOL0     H11876   8.459   0.939   1.787 -0.0829 -3.4611  0.1979
   88MOL0     H11877   8.353   0.882   1.653 -0.0503  0.3504  0.4710
   88MOL0     H11878   8.242   1.281   1.653 -0.5272 -0.8826  0.1743
   88MOL0     H11879   8.650   1.294   1.434  1.7992 -1.5804  0.6287
   88MOL0     H11880   8.522   1.340   1.238  1.7263  2.7261  4.2834
   89MOL0     O11881   6.049   7.367   8.217  0.9338  0.4194 -0.2396
   89MOL0     C11882   6.041   7.241   8.223 -0.0337 -0.0508 -0.4759
   89MOL0     O11883   5.940   7.169   8.171  0.2082 -0.0614  0.3760
   89MOL0     C11884   5.825   7.228   8.124  0.1266 -0.6931  0.1161
   89MOL0     C11885   5.745   7.309   8.201 -0.3138 -0.4908  0.1779
   89MOL0     C11886   5.614   7.346   8.152 -0.4997  0.2733 -0.1248
   89MOL0     C11887   5.571   7.306   8.028  1.3647 -0.1542  0.5433
   89MOL0     O11888   5.434   7.331   7.974  0.0583 -0.1367  0.3879
   89MOL0     C11889   5.325   7.345   8.062 -0.5157 -0.4484  0.1698
   89MOL0     C11890   5.201   7.390   7.981 -0.4545  0.5953 -0.6370
   89MOL0     C11891   5.086   7.438   8.069 -0.6608  0.3463 -0.3259
   89MOL0     C11892   4.975   7.488   7.988 -0.3887 -0.5964 -0.8379
   89MOL0     C11893   4.859   7.527   8.087  0.2360 -0.2545  0.1937
   89MOL0     C11894   4.734   7.587   8.019 -0.2224  0.5409  0.2316
   89MOL0     C11895   4.756   7.719   7.943 -0.8979  0.0910 -0.4074
   89MOL0     C11896   4.626   7.789   7.897 -0.5589  0.0509  0.1364
   89MOL0     N11897   4.555   7.709   7.794  0.0088 -0.1559 -0.5586
   89MOL0     C11898   4.586   7.704   7.662  0.3733  0.0278  0.6332
   89MOL0     C11899   4.500   7.604   7.609  0.2306 -0.4273  0.0629
   89MOL0     C11900   4.467   7.583   7.458 -0.4327 -0.4550 -0.6136
   89MOL0     C11901   4.537   7.474   7.389 -0.2671 -0.2825  0.4719
   89MOL0     C11902   4.692   7.509   7.361  0.0562  0.2055  0.4327
   89MOL0     C11903   4.710   7.619   7.253 -0.2326 -0.2952 -0.4787
   89MOL0     O11904   4.618   7.599   7.135 -0.0164  0.1462 -0.5371
   89MOL0     C11905   4.574   7.698   7.060 -0.3113 -0.1374  0.5319
   89MOL0     C11906   4.515   7.656   6.939 -0.9760 -0.0039 -0.7240
   89MOL0     C11907   4.487   7.737   6.833  0.3410  0.7272  0.0591
   89MOL0     C11908   4.445   7.663   6.705 -0.0172  0.3334 -0.2719
   89MOL0     C11909   4.502   7.873   6.855 -0.9818 -0.1601 -0.0655
   89MOL0     C11910   4.458   7.975   6.754  0.5151  0.1681  0.5478
   89MOL0     O11911   4.497   8.096   6.779  1.2762 -0.3078 -0.1196
   89MOL0     C11912   4.446   8.203   6.707 -0.6022 -0.2593  1.1000
   89MOL0     C11913   4.522   8.270   6.614  0.9368 -0.7273  0.6399
   89MOL0     C11914   4.474   8.384   6.550  0.2808 -0.4527  0.8616
   89MOL0     C11915   4.349   8.431   6.585 -0.6497  1.0426 -0.3561
   89MOL0     O11916   4.275   8.531   6.529  0.3641  0.5425 -0.9084
   89MOL0     C11917   4.344   8.641   6.473  0.7398  1.0334  0.3669
   89MOL0     C11918   4.385   8.752   6.554  0.4556 -0.8529 -0.6848
   89MOL0     C11919   4.286   8.802   6.665  0.1738  1.4705  1.1660
   89MOL0     C11920   4.333   8.925   6.733 -0.3708  0.2500 -0.1281
   89MOL0     C11921   4.235   8.975   6.840 -0.0350  0.4523  0.0310
   89MOL0     C11922   4.105   9.029   6.785 -0.1889  0.7362 -1.0632
   89MOL0     C11923   4.002   9.070   6.902  0.6574  0.5554  0.2178
   89MOL0     C11924   4.003   9.228   6.931 -0.2916 -0.0537 -0.3548
   89MOL0    Cl11925   3.907   9.301   6.809  0.2036 -0.0557 -0.3203
   89MOL0     C11926   4.270   8.355   6.671 -0.1978 -0.1775  0.8861
   89MOL0     C11927   4.319   8.243   6.733  1.2815  0.4984 -0.1644
   89MOL0     O11928   4.398   7.938   6.646  0.0955 -0.4212  0.1209
   89MOL0     C11929   4.557   7.920   6.975  0.4800 -0.3175 -0.6001
   89MOL0     C11930   4.590   7.834   7.073 -1.1709  0.6088 -1.1748
   89MOL0     N11931   4.431   7.546   7.711  0.1210 -0.0284 -0.8730
   89MOL0     N11932   4.473   7.600   7.822  0.0365 -0.1476 -0.2175
   89MOL0     C11933   5.658   7.246   7.944  0.2950 -0.0877  0.1511
   89MOL0     C11934   5.791   7.211   7.990  0.3316 -0.7824  0.1843
   89MOL0     C11935   6.146   7.175   8.294 -0.6854 -0.6531 -0.5047
   89MOL0     C11936   6.260   7.238   8.344 -0.2433  0.3781  0.5897
   89MOL0     C11937   6.359   7.165   8.406  0.2803  0.4847 -0.0392
   89MOL0     C11938   6.346   7.033   8.437  0.1320  0.7220  0.1755
   89MOL0     O11939   6.434   6.959   8.516  0.5760  0.0457  0.6909
   89MOL0     C11940   6.503   6.855   8.440  0.8508  0.7233  0.4902
   89MOL0     C11941   6.568   6.776   8.549  0.1086 -0.1238 -0.5124
   89MOL0     C11942   6.680   6.863   8.617  0.3140  0.2393 -0.7748
   89MOL0     C11943   6.760   6.802   8.731  0.0228 -0.0929 -0.7601
   89MOL0     C11944   6.839   6.907   8.795 -0.0202 -0.1805 -0.6291
   89MOL0     C11945   6.900   6.996   8.850 -0.5381 -0.2138 -0.7084
   89MOL0     C11946   6.233   6.968   8.391 -0.3205 -0.3633 -0.0203
   89MOL0     C11947   6.133   7.036   8.310 -0.2503  0.2146 -1.4523
   89MOL0     H11948   5.788   7.345   8.294 -1.1195 -3.3760  1.7761
   89MOL0     H11949   5.551   7.402   8.221 -1.8849 -0.7786 -0.5042
   89MOL0     H11950   5.299   7.249   8.108  0.9862 -0.8827  0.1714
   89MOL0     H11951   5.355   7.411   8.144 -0.1579 -1.0337  0.5237
   89MOL0     H11952   5.233   7.479   7.925  0.6924 -1.1405 -2.8695
   89MOL0     H11953   5.163   7.326   7.900  0.7852 -2.4289  1.0393
   89MOL0     H11954   5.049   7.358   8.134 -0.9503  2.1895  1.9286
   89MOL0     H11955   5.132   7.513   8.135  2.7694 -1.5311 -0.3520
   89MOL0     H11956   5.008   7.586   7.953 -0.4529 -0.3156 -0.1327
   89MOL0     H11957   4.942   7.420   7.909 -0.5008 -0.4501 -0.9158
   89MOL0     H11958   4.834   7.441   8.149  1.7836 -1.1998 -0.4459
   89MOL0     H11959   4.893   7.595   8.166  0.4619  1.3266 -1.1989
   89MOL0     H11960   4.684   7.521   7.948  0.9489  0.9260 -0.9996
   89MOL0     H11961   4.666   7.599   8.104  0.5881  1.0389  0.8277
   89MOL0     H11962   4.826   7.784   7.996  0.4667 -0.6086 -1.2996
   89MOL0     H11963   4.811   7.689   7.854  0.4889  2.2983 -0.3708
   89MOL0     H11964   4.646   7.883   7.845 -2.9986  0.9262  0.6563
   89MOL0     H11965   4.570   7.816   7.987  2.8448  2.1471  1.8244
   89MOL0     H11966   4.667   7.757   7.613  0.6975 -0.1413  0.9823
   89MOL0     H11967   4.358   7.571   7.458 -0.9082  2.9824 -0.6481
   89MOL0     H11968   4.495   7.680   7.418  0.6496  1.6137  4.3230
   89MOL0     H11969   4.496   7.466   7.289  0.5985  0.7014  0.0248
   89MOL0     H11970   4.519   7.379   7.441  1.6723 -1.1532 -0.3319
   89MOL0     H11971   4.749   7.421   7.330  1.0002  0.0910  2.3354
   89MOL0     H11972   4.732   7.551   7.454  0.7441  0.9011 -0.1631
   89MOL0     H11973   4.813   7.629   7.216 -0.8969 -1.9046 -3.0543
   89MOL0     H11974   4.676   7.712   7.299  2.2167  0.5204 -0.1897
   89MOL0     H11975   4.509   7.548   6.926 -1.9389  0.2032 -2.1660
   89MOL0     H11976   4.466   7.556   6.717  0.2297  0.3624 -0.4494
   89MOL0     H11977   4.338   7.682   6.699 -0.7085 -2.4619  1.3294
   89MOL0     H11978   4.504   7.698   6.620 -1.2200  0.6982 -0.9616
   89MOL0     H11979   4.622   8.235   6.590  0.6193 -1.0376 -0.2651
   89MOL0     H11980   4.536   8.448   6.488  0.2074 -1.1678  0.0222
   89MOL0     H11981   4.419   8.600   6.404 -0.6501  2.2819 -2.0575
   89MOL0     H11982   4.271   8.693   6.409 -0.8142 -2.6239 -1.1386
   89MOL0     H11983   4.458   8.704   6.619  2.3312  1.1759 -1.1735
   89MOL0     H11984   4.424   8.838   6.499  1.6870 -0.1897  1.1521
   89MOL0     H11985   4.277   8.722   6.739  3.6014 -1.4693 -1.2076
   89MOL0     H11986   4.188   8.803   6.617  0.9615 -0.2694 -0.6496
   89MOL0     H11987   4.427   8.899   6.781 -1.1647  0.4886  1.6015
   89MOL0     H11988   4.356   8.996   6.653 -0.9042  1.4443  0.7650
   89MOL0     H11989   4.276   9.061   6.894 -3.7348  1.6946  1.1392
   89MOL0     H11990   4.227   8.889   6.906  4.2659 -0.4377 -0.2985
   89MOL0     H11991   4.106   9.119   6.723 -0.6472  1.3964 -0.1451
   89MOL0     H11992   4.057   8.953   6.723  1.5990 -2.0612  0.7407
   89MOL0     H11993   4.031   9.003   6.983 -1.9332 -2.3415 -1.0515
   89MOL0     H11994   3.901   9.042   6.872 -0.1586  1.9949  1.4865
   89MOL0     H11995   4.103   9.271   6.942 -1.3072  2.2832  0.4225
   89MOL0     H11996   3.951   9.254   7.024  2.3887 -1.5399  1.7243
   89MOL0     H11997   4.168   8.392   6.671  0.2795  1.4157 -1.9251
   89MOL0     H11998   4.264   8.185   6.806 -0.1608 -0.0961 -1.6716
   89MOL0     H11999   4.578   8.026   6.982 -0.9331  0.0489 -1.5128
   89MOL0     H12000   4.620   7.877   7.168 -4.0699 -0.2987  0.2626
   89MOL0     H12001   5.621   7.221   7.845 -0.5340  0.8087  0.2149
   89MOL0     H12002   5.858   7.174   7.913  1.5932 -1.5342  1.5947
   89MOL0     H12003   6.272   7.346   8.338  0.8180  0.2049 -1.4635
   89MOL0     H12004   6.443   7.217   8.450  1.0581  0.5544 -1.5345
   89MOL0     H12005   6.436   6.795   8.377 -0.0663  3.5203 -1.4001
   89MOL0     H12006   6.579   6.901   8.376 -0.2284  0.3928 -1.0993
   89MOL0     H12007   6.611   6.679   8.522  0.2233 -0.0149 -0.7299
   89MOL0     H12008   6.489   6.743   8.616 -0.0933 -3.2368 -2.1055
   89MOL0     H12009   6.643   6.960   8.651 -1.1882 -0.6948  0.3628
   89MOL0     H12010   6.750   6.865   8.533  0.2858 -3.5623 -1.0586
   89MOL0     H12011   6.820   6.721   8.688 -0.0821  0.2563 -1.5824
   89MOL0     H12012   6.686   6.753   8.796  0.3183 -0.2546 -0.5428
   89MOL0     H12013   6.941   7.084   8.895  0.4343  0.1736 -2.2684
   89MOL0     H12014   6.218   6.862   8.411 -0.4140 -0.1641  1.0417
   89MOL0     H12015   6.055   6.970   8.272 -0.8376 -2.1905  3.1957
   90MOL0     O12016   8.537   0.393   0.536 -0.2272 -0.2871  0.1939
   90MOL0     C12017   8.450   0.350   0.613 -0.1180 -0.5033 -0.0832
   90MOL0     O12018   8.481   0.317   0.738  0.0103  0.2434 -0.2213
   90MOL0     C12019   8.499   0.185   0.767 -0.4441 -0.4614  0.9331
   90MOL0     C12020   8.568   0.173   0.881 -0.0492  0.2128 -0.5920
   90MOL0     C12021   8.618   0.054   0.923 -0.1780 -0.1725 -0.3979
   90MOL0     C12022   8.603  -0.062   0.850  0.5692  0.1816 -0.9978
   90MOL0     O12023   8.665  -0.179   0.868  0.4797  0.9423 -0.2429
   90MOL0     C12024   8.706  -0.210   1.001 -0.1083  0.2362  0.2770
   90MOL0     C12025   8.692  -0.357   1.052  0.4431 -0.8875 -0.0517
   90MOL0     C12026   8.809  -0.430   1.019 -0.1701  0.7667  0.0258
   90MOL0     C12027   8.783  -0.581   1.030  0.3469 -0.6339  0.2850
   90MOL0     C12028   8.897  -0.670   0.977  0.7770  0.6220  0.3462
   90MOL0     C12029   8.936  -0.659   0.832  0.3242 -0.0359 -0.0189
   90MOL0     C12030   9.045  -0.762   0.799  0.4342  0.6110  0.3317
   90MOL0     C12031   9.052  -0.774   0.644 -0.5528 -0.8584 -0.2371
   90MOL0     N12032   9.152  -0.678   0.583 -0.6938 -0.6210  0.3456
   90MOL0     C12033   9.287  -0.660   0.608 -0.1733  0.1507  0.0671
   90MOL0     C12034   9.336  -0.571   0.514  0.2784 -0.1771 -0.8207
   90MOL0     C12035   9.474  -0.518   0.498 -0.2200 -0.4266 -0.2161
   90MOL0     C12036   9.479  -0.367   0.531  0.1754 -0.3426  0.2569
   90MOL0     C12037   9.516  -0.333   0.669  0.6189  0.7986 -0.5235
   90MOL0     C12038   9.659  -0.361   0.704  0.2846  0.3606 -0.1307
   90MOL0     O12039   9.674  -0.312   0.839  0.1922  0.5477  0.0444
   90MOL0     C12040   9.809  -0.308   0.858  0.2963 -0.7893 -0.4159
   90MOL0     C12041   9.882  -0.200   0.833 -0.7672  0.1685 -0.6201
   90MOL0     C12042  10.024  -0.187   0.858 -0.0631 -0.5548  0.0158
   90MOL0     C12043  10.109  -0.067   0.810  1.2394 -0.4304  0.6810
   90MOL0     C12044  10.084  -0.295   0.927  0.2226 -0.2831 -0.4408
   90MOL0     C12045  10.233  -0.302   0.972  0.2817 -0.4344  0.3550
   90MOL0     O12046  10.261  -0.326   1.107 -1.4925 -0.6754  0.1516
   90MOL0     C12047  10.395  -0.307   1.148  0.2083 -0.9537  0.0997
   90MOL0     C12048  10.435  -0.370   1.257  0.0317  0.0005  1.2167
   90MOL0     C12049  10.569  -0.376   1.304 -0.3355  0.5265 -0.6590
   90MOL0     C12050  10.668  -0.312   1.231  0.7500 -0.5326 -0.0757
   90MOL0     O12051  10.806  -0.308   1.273 -0.1954 -0.0233 -0.3492
   90MOL0     C12052  10.894  -0.423   1.275 -0.5276 -0.0967 -0.8405
   90MOL0     C12053  10.973  -0.436   1.150 -0.3848  1.2014  0.5956
   90MOL0     C12054  10.898  -0.450   1.015 -1.2770  0.3646 -0.2056
   90MOL0     C12055  10.943  -0.577   0.934 -0.6276  0.0265 -0.1412
   90MOL0     C12056  10.903  -0.716   0.965  0.4421  0.0512  0.0413
   90MOL0     C12057  10.968  -0.824   0.877  0.5375 -0.3240 -0.2079
   90MOL0     C12058  10.972  -0.948   0.965  0.8457 -0.5400 -0.3686
   90MOL0     C12059  11.056  -1.057   0.907  0.0620  0.2096  0.3058
   90MOL0    Cl12060  10.965  -1.146   0.777  0.0697  0.0758  0.7737
   90MOL0     C12061  10.626  -0.239   1.118  0.1526 -0.7713  0.3182
   90MOL0     C12062  10.487  -0.228   1.077 -0.1094  0.3323  0.7205
   90MOL0     O12063  10.308  -0.322   0.875 -0.5819 -0.3194  0.1016
   90MOL0     C12064  10.012  -0.417   0.952  0.8025  0.4547  0.8492
   90MOL0     C12065   9.876  -0.418   0.911  0.9634 -0.3266  0.4597
   90MOL0     N12066   9.218  -0.534   0.434 -0.7393  0.7962 -0.8914
   90MOL0     N12067   9.122  -0.608   0.471 -0.1562 -0.6541  0.6105
   90MOL0     C12068   8.531  -0.044   0.730  0.2909  0.6659  0.2392
   90MOL0     C12069   8.467   0.073   0.692  0.5899  0.9603 -0.3380
   90MOL0     C12070   8.307   0.339   0.566 -0.3589  0.9532  0.2331
   90MOL0     C12071   8.276   0.338   0.429  0.3822  0.8986  0.5585
   90MOL0     C12072   8.140   0.324   0.385  0.2880 -0.4530 -0.3965
   90MOL0     C12073   8.028   0.312   0.478 -0.0229 -0.5896  0.3993
   90MOL0     O12074   7.897   0.290   0.430 -0.1841 -0.2736 -0.5331
   90MOL0     C12075   7.795   0.242   0.516  0.4543  0.5341 -0.1875
   90MOL0     C12076   7.668   0.311   0.459 -0.1198 -0.7182  0.5033
   90MOL0     C12077   7.546   0.327   0.552 -0.3175  0.2989 -0.5900
   90MOL0     C12078   7.493   0.196   0.610  0.7145 -0.2249  0.4846
   90MOL0     C12079   7.374   0.229   0.686 -0.0593 -1.0920 -0.2974
   90MOL0     C12080   7.274   0.277   0.745  0.2330 -0.5912 -0.6246
   90MOL0     C12081   8.067   0.322   0.614 -0.2540 -0.4907 -0.0925
   90MOL0     C12082   8.200   0.333   0.654  0.6945  0.0675 -0.3732
   90MOL0     H12083   8.568   0.266   0.939 -1.4933  0.2298 -0.5866
   90MOL0     H12084   8.685   0.058   1.008 -1.3906 -1.8431  0.6782
   90MOL0     H12085   8.812  -0.189   1.013 -0.0343 -0.4817  0.9700
   90MOL0     H12086   8.648  -0.152   1.073  0.1755 -0.9042  1.4500
   90MOL0     H12087   8.706  -0.363   1.161  1.4916  1.8745  0.0614
   90MOL0     H12088   8.599  -0.409   1.027  1.2734 -2.4796  0.0975
   90MOL0     H12089   8.825  -0.402   0.914 -3.0993  3.7318  0.1986
   90MOL0     H12090   8.897  -0.395   1.075  0.6467 -1.0105 -0.0771
   90MOL0     H12091   8.757  -0.612   1.131 -0.6739  0.2212  0.3048
   90MOL0     H12092   8.697  -0.611   0.969  0.3494 -2.1675  1.0049
   90MOL0     H12093   8.981  -0.649   1.044  1.6479  1.1883 -0.8747
   90MOL0     H12094   8.872  -0.777   0.982 -2.1181  1.1060 -1.5166
   90MOL0     H12095   8.855  -0.671   0.759  3.0777  1.4189 -3.6286
   90MOL0     H12096   8.987  -0.566   0.807  1.0264 -0.0331  1.3679
   90MOL0     H12097   9.133  -0.735   0.857 -0.7803 -0.4213  2.8264
   90MOL0     H12098   9.021  -0.865   0.827  1.3101  0.7225  1.5801
   90MOL0     H12099   8.957  -0.754   0.594 -0.5832 -0.8980 -0.1944
   90MOL0     H12100   9.085  -0.872   0.608 -0.9687 -0.1891 -2.6784
   90MOL0     H12101   9.340  -0.715   0.684 -1.4235  1.9754  2.4297
   90MOL0     H12102   9.543  -0.577   0.559  0.8189  0.4113 -0.5597
   90MOL0     H12103   9.507  -0.542   0.397  1.5722 -1.1219  0.4874
   90MOL0     H12104   9.385  -0.312   0.512 -0.1608 -0.7545  0.7164
   90MOL0     H12105   9.551  -0.323   0.461 -0.7943 -1.3464 -1.4625
   90MOL0     H12106   9.457  -0.394   0.738 -1.2991  2.3736 -0.6786
   90MOL0     H12107   9.501  -0.227   0.695  1.6649  0.6925  0.6113
   90MOL0     H12108   9.736  -0.323   0.636  3.2779  2.2267  3.8980
   90MOL0     H12109   9.666  -0.470   0.705 -0.5195  0.2375 -2.4166
   90MOL0     H12110   9.842  -0.110   0.786 -0.6198  1.1680  1.0865
   90MOL0     H12111  10.138  -0.078   0.705  0.5728 -2.2054  0.6425
   90MOL0     H12112  10.049   0.024   0.812  1.4591 -0.2837  0.6267
   90MOL0     H12113  10.195  -0.056   0.876 -0.1610 -3.4563  3.2851
   90MOL0     H12114  10.371  -0.433   1.319 -0.7801  1.1596  1.5843
   90MOL0     H12115  10.586  -0.430   1.396  0.8011 -3.2960 -2.8958
   90MOL0     H12116  10.954  -0.416   1.366 -1.6327 -3.5568  0.3140
   90MOL0     H12117  10.834  -0.513   1.291 -0.8198 -0.1322 -1.9973
   90MOL0     H12118  11.039  -0.349   1.150  2.0342 -0.5200  2.1252
   90MOL0     H12119  11.033  -0.526   1.170  2.4006  3.6060  4.5543
   90MOL0     H12120  10.913  -0.362   0.952  0.8409 -1.2417 -2.0918
   90MOL0     H12121  10.789  -0.455   1.018 -1.3579  0.4765 -2.0449
   90MOL0     H12122  10.907  -0.567   0.832  3.4210 -5.8245 -2.7011
   90MOL0     H12123  11.052  -0.589   0.938 -0.9608 -4.4460  2.9307
   90MOL0     H12124  10.795  -0.728   0.949  0.5940 -0.4160 -0.6464
   90MOL0     H12125  10.920  -0.742   1.070  0.6558 -1.5605 -0.3717
   90MOL0     H12126  10.910  -0.835   0.785 -0.5430  1.3262  0.2368
   90MOL0     H12127  11.066  -0.784   0.849  0.2384  0.5975  0.0301
   90MOL0     H12128  10.864  -0.966   0.969  0.1801  2.8542  0.6130
   90MOL0     H12129  11.006  -0.932   1.068 -1.8142 -1.2804  0.7306
   90MOL0     H12130  11.086  -1.124   0.988 -1.0537 -0.2250  0.3827
   90MOL0     H12131  11.142  -1.014   0.855 -0.5552 -0.0759 -1.0025
   90MOL0     H12132  10.700  -0.179   1.067 -0.9745  0.7111  0.3654
   90MOL0     H12133  10.461  -0.159   0.997  1.7290  1.0284  0.6780
   90MOL0     H12134  10.041  -0.510   0.999 -5.3200 -3.0608 -1.1308
   90MOL0     H12135   9.822  -0.509   0.935 -1.4286  0.4106 -1.5535
   90MOL0     H12136   8.508  -0.121   0.656  0.8437  0.1097  0.6317
   90MOL0     H12137   8.405   0.065   0.602  3.3731 -0.4240 -2.2842
   90MOL0     H12138   8.352   0.354   0.354  0.4061 -0.0664  0.3633
   90MOL0     H12139   8.109   0.315   0.281 -2.2377 -1.4318  0.3668
   90MOL0     H12140   7.777   0.136   0.493 -1.0560  0.7288 -0.0250
   90MOL0     H12141   7.811   0.244   0.624 -1.6841  0.3402  0.1749
   90MOL0     H12142   7.651   0.267   0.361 -1.4215  0.2674  0.2460
   90MOL0     H12143   7.683   0.415   0.429 -1.4501  0.1702  2.6800
   90MOL0     H12144   7.467   0.368   0.489  1.3959  1.4628 -2.0860
   90MOL0     H12145   7.574   0.398   0.631  0.4101  2.2037 -2.4614
   90MOL0     H12146   7.559   0.135   0.673 -0.0323  0.2174  1.7528
   90MOL0     H12147   7.473   0.133   0.523 -2.3543 -1.7197  2.1018
   90MOL0     H12148   7.187   0.318   0.792  0.6105 -1.7526  1.1527
   90MOL0     H12149   7.993   0.326   0.694  2.7919 -0.1100  2.9837
   90MOL0     H12150   8.211   0.326   0.762  1.8372 -3.4231 -0.6112
   91MOL0     O12151  10.508   0.307   6.488  0.2263 -0.5599 -1.0079
   91MOL0     C12152  10.569   0.409   6.523  0.9408 -0.0053 -0.6656
   91MOL0     O12153  10.511   0.519   6.576  1.3692 -0.1322 -0.4835
   91MOL0     C12154  10.373   0.521   6.582  0.2637 -0.1400  0.0622
   91MOL0     C12155  10.302   0.542   6.467  0.5706 -0.7253  1.2603
   91MOL0     C12156  10.161   0.516   6.466  1.0338  0.0770 -0.2742
   91MOL0     C12157  10.096   0.480   6.586  0.0676 -0.2389  0.5601
   91MOL0     O12158   9.964   0.452   6.584  0.0685 -0.0191 -1.0764
   91MOL0     C12159   9.890   0.500   6.700  1.3606 -0.3370 -0.0514
   91MOL0     C12160   9.753   0.551   6.666  0.2084  0.6294  0.1422
   91MOL0     C12161   9.702   0.497   6.531 -0.0222 -0.4658 -0.3358
   91MOL0     C12162   9.561   0.537   6.485 -0.4958  0.5054 -0.7334
   91MOL0     C12163   9.520   0.472   6.347 -0.6265 -0.4503 -0.4603
   91MOL0     C12164   9.610   0.512   6.229  0.2466  0.2908 -0.5432
   91MOL0     C12165   9.624   0.663   6.221 -0.0719  0.8739  0.2321
   91MOL0     C12166   9.675   0.708   6.081 -0.6548  0.3690  0.1364
   91MOL0     N12167   9.562   0.759   5.992  0.6771  0.6689 -0.0414
   91MOL0     C12168   9.500   0.885   5.998 -0.6440  0.1893 -0.5615
   91MOL0     C12169   9.402   0.877   5.905 -0.7471 -0.0161 -0.0792
   91MOL0     C12170   9.341   1.001   5.861  0.6152  0.0492 -0.0416
   91MOL0     C12171   9.249   1.060   5.969 -0.5167  1.2135 -0.9380
   91MOL0     C12172   9.131   0.975   6.029 -0.4238 -0.5768  0.2194
   91MOL0     C12173   9.054   1.037   6.155 -0.8197 -0.0551  0.3861
   91MOL0     O12174   8.975   1.154   6.132  0.4733 -0.8438 -0.9994
   91MOL0     C12175   8.933   1.230   6.240  0.0646 -1.0670 -0.6088
   91MOL0     C12176   8.888   1.360   6.217 -0.2979  0.0874  0.8701
   91MOL0     C12177   8.854   1.446   6.326 -0.7002 -0.0710 -0.2394
   91MOL0     C12178   8.809   1.592   6.290 -0.0280 -0.2084  0.1047
   91MOL0     C12179   8.858   1.390   6.459 -0.4883  0.7331 -0.5125
   91MOL0     C12180   8.843   1.464   6.586  0.2571 -0.4109  0.0904
   91MOL0     O12181   8.923   1.429   6.686  0.2680  0.7611 -0.8055
   91MOL0     C12182   8.899   1.484   6.813  0.0234 -0.4089 -1.0193
   91MOL0     C12183   8.772   1.515   6.869 -0.3401 -0.0268  0.2044
   91MOL0     C12184   8.753   1.570   7.000  0.1773 -0.6781 -0.5340
   91MOL0     C12185   8.868   1.586   7.078 -0.4960 -0.3002 -0.3647
   91MOL0     O12186   8.852   1.643   7.204 -0.5256  0.5720 -0.2544
   91MOL0     C12187   8.908   1.566   7.314  0.4504  0.2356 -0.6938
   91MOL0     C12188   8.833   1.596   7.448 -0.2286 -0.3934 -0.6776
   91MOL0     C12189   8.921   1.530   7.553  0.4167  0.9128 -0.6949
   91MOL0     C12190   8.837   1.500   7.686 -0.2121  0.1577  0.5552
   91MOL0     C12191   8.912   1.443   7.803  0.0575  0.3331 -0.3858
   91MOL0     C12192   8.969   1.295   7.777 -0.2145  0.8170  0.2472
   91MOL0     C12193   9.078   1.261   7.880  0.5397  0.6931 -0.0250
   91MOL0     C12194   9.182   1.162   7.822  0.2944  0.7032  0.2998
   91MOL0    Cl12195   9.121   0.991   7.811 -0.3165 -0.1373  0.2677
   91MOL0     C12196   8.995   1.550   7.027  1.1124 -0.1466 -0.0816
   91MOL0     C12197   9.009   1.516   6.894  0.3946  0.1384 -0.4555
   91MOL0     O12198   8.770   1.560   6.583 -0.7530 -0.1552 -0.1004
   91MOL0     C12199   8.902   1.253   6.473  0.6307 -0.0039  0.1958
   91MOL0     C12200   8.933   1.170   6.367 -0.2813 -0.3558  0.2613
   91MOL0     N12201   9.395   0.756   5.850 -0.5013  0.9670 -0.6952
   91MOL0     N12202   9.485   0.682   5.905 -0.3398 -0.3999 -0.4351
   91MOL0     C12203  10.176   0.456   6.704  0.3125 -0.7522  0.3785
   91MOL0     C12204  10.312   0.481   6.706  0.5092  0.1912  0.2447
   91MOL0     C12205  10.723   0.382   6.534 -0.5307 -0.3023  1.2259
   91MOL0     C12206  10.786   0.277   6.481 -0.6986 -0.8844  0.7725
   91MOL0     C12207  10.916   0.264   6.456 -0.8648  0.2876  0.8309
   91MOL0     C12208  11.002   0.369   6.508  0.5825  0.0550  0.5813
   91MOL0     O12209  11.138   0.360   6.504  0.1552  0.5849 -0.1899
   91MOL0     C12210  11.208   0.255   6.433  0.0387 -0.0191 -0.3947
   91MOL0     C12211  11.352   0.255   6.468  0.5218 -0.3841  0.1863
   91MOL0     C12212  11.420   0.391   6.459 -0.1725  0.0869  0.2013
   91MOL0     C12213  11.567   0.380   6.502  0.2661 -0.1164 -0.1859
   91MOL0     C12214  11.615   0.520   6.490  0.1834 -0.4480 -0.2254
   91MOL0     C12215  11.663   0.634   6.479  0.9356  0.3427  0.3167
   91MOL0     C12216  10.939   0.477   6.570  0.3781  0.4283  0.7418
   91MOL0     C12217  10.800   0.485   6.582  0.1227 -0.6645 -0.7314
   91MOL0     H12218  10.354   0.579   6.379 -1.6279  0.0205  0.1916
   91MOL0     H12219  10.112   0.534   6.371  1.6510  1.6665 -0.3173
   91MOL0     H12220   9.876   0.409   6.759 -1.0088 -1.1299 -1.6838
   91MOL0     H12221   9.944   0.576   6.758  0.6340  2.4471 -2.7770
   91MOL0     H12222   9.672   0.528   6.736 -1.5529  1.9787 -1.3176
   91MOL0     H12223   9.760   0.660   6.657 -0.0665  0.5330 -1.6157
   91MOL0     H12224   9.765   0.529   6.447 -2.3504 -1.7943 -2.7459
   91MOL0     H12225   9.706   0.388   6.537  2.7740 -0.3461  2.1108
   91MOL0     H12226   9.487   0.505   6.559  0.9330  2.1519  1.5403
   91MOL0     H12227   9.543   0.644   6.474 -1.5323  0.2584 -1.5654
   91MOL0     H12228   9.515   0.365   6.367  0.8015 -0.3257  0.7383
   91MOL0     H12229   9.415   0.492   6.325 -1.5810 -5.2998 -1.2918
   91MOL0     H12230   9.708   0.463   6.234  0.5208  0.7868 -0.9986
   91MOL0     H12231   9.572   0.480   6.132  0.1064 -2.6491  0.3724
   91MOL0     H12232   9.529   0.709   6.248  0.1869  2.4635 -1.3831
   91MOL0     H12233   9.687   0.691   6.306 -2.5137 -2.6016  3.5456
   91MOL0     H12234   9.725   0.626   6.028  0.5824 -0.7737  2.8882
   91MOL0     H12235   9.752   0.786   6.090  1.1281 -0.8509 -2.8751
   91MOL0     H12236   9.530   0.969   6.060  1.3518  0.1040 -1.3430
   91MOL0     H12237   9.416   1.077   5.836 -1.7258  2.5903  0.0763
   91MOL0     H12238   9.275   0.971   5.779  0.7836 -0.8987  0.1670
   91MOL0     H12239   9.214   1.157   5.935 -2.0510  1.1893  0.4093
   91MOL0     H12240   9.324   1.083   6.046  1.2149 -2.2266 -1.3978
   91MOL0     H12241   9.167   0.881   6.071 -0.6715 -0.7824 -0.0280
   91MOL0     H12242   9.058   0.953   5.950  2.0610 -3.3511 -1.4723
   91MOL0     H12243   9.130   1.068   6.228 -2.4741  1.0491  1.7343
   91MOL0     H12244   9.004   0.951   6.200  2.5955 -1.8627  1.0341
   91MOL0     H12245   8.889   1.403   6.117 -0.7167 -0.5002  0.6103
   91MOL0     H12246   8.703   1.601   6.264  0.7251  3.1544 -2.6145
   91MOL0     H12247   8.832   1.676   6.357  1.5465  1.6230 -2.5152
   91MOL0     H12248   8.859   1.622   6.197  1.6592 -0.7030  0.8182
   91MOL0     H12249   8.678   1.487   6.822 -0.6775 -1.5323  1.6823
   91MOL0     H12250   8.658   1.585   7.049  0.3310 -0.3642 -0.3312
   91MOL0     H12251   8.906   1.459   7.291  0.5563  0.5086 -2.0919
   91MOL0     H12252   9.014   1.577   7.339 -0.0191  0.9680  1.1103
   91MOL0     H12253   8.824   1.703   7.470  4.5859 -0.5515  3.9569
   91MOL0     H12254   8.736   1.545   7.456 -1.3651  1.6585 -0.5130
   91MOL0     H12255   9.005   1.595   7.578  2.8320 -1.9299 -0.8847
   91MOL0     H12256   8.943   1.427   7.523 -2.3063 -0.1198  0.5278
   91MOL0     H12257   8.799   1.597   7.720  0.1220  0.4424  0.1252
   91MOL0     H12258   8.760   1.425   7.667 -1.0449  0.8929  0.9939
   91MOL0     H12259   8.845   1.431   7.888 -1.8227  0.4737 -1.7801
   91MOL0     H12260   8.984   1.514   7.843 -0.2060 -0.0879  0.8712
   91MOL0     H12261   8.889   1.222   7.787  2.8604 -2.7129  1.4153
   91MOL0     H12262   9.007   1.294   7.674 -0.5865  1.1378  0.1050
   91MOL0     H12263   9.032   1.212   7.966 -0.9978 -0.1288 -1.2489
   91MOL0     H12264   9.129   1.352   7.913  2.6030 -0.6981  0.8508
   91MOL0     H12265   9.278   1.160   7.874  1.3093  1.7356 -1.4232
   91MOL0     H12266   9.206   1.216   7.729 -1.6273  0.9675 -0.0817
   91MOL0     H12267   9.086   1.565   7.085  2.8081 -3.2222 -1.6862
   91MOL0     H12268   9.112   1.518   6.861  0.3496  0.3065 -0.5921
   91MOL0     H12269   8.895   1.217   6.575  0.3371 -0.2431  0.0923
   91MOL0     H12270   8.953   1.068   6.398  0.2894  0.2118  1.9319
   91MOL0     H12271  10.141   0.413   6.797  0.1096  0.2017  0.7559
   91MOL0     H12272  10.363   0.454   6.798  0.4565 -3.4591 -0.6525
   91MOL0     H12273  10.718   0.205   6.436 -2.3886  1.4736 -0.7076
   91MOL0     H12274  10.952   0.177   6.401 -2.5574  0.0966 -0.0304
   91MOL0     H12275  11.172   0.153   6.449 -0.4587 -0.5496 -3.9314
   91MOL0     H12276  11.195   0.274   6.326  0.8579  1.5525 -0.2366
   91MOL0     H12277  11.406   0.178   6.412 -1.3442 -1.1563 -0.6295
   91MOL0     H12278  11.365   0.211   6.568  2.8231 -1.8288 -0.6757
   91MOL0     H12279  11.377   0.468   6.524  1.0495  0.7578  0.2379
   91MOL0     H12280  11.415   0.426   6.356  0.1475  1.1194  0.5229
   91MOL0     H12281  11.617   0.309   6.435 -1.1744 -1.8956  0.5293
   91MOL0     H12282  11.573   0.335   6.602  1.4919  1.8101  0.6617
   91MOL0     H12283  11.697   0.734   6.495 -4.0022  2.5956 -1.3784
   91MOL0     H12284  11.009   0.554   6.601  1.6624  0.4846 -2.0177
   91MOL0     H12285  10.745   0.563   6.634 -0.6194 -1.6991  0.0780
   92MOL0     O12286   6.950   1.372   8.732 -0.2492  0.0361 -0.7938
   92MOL0     C12287   6.958   1.314   8.620 -0.8883  0.2862 -0.1044
   92MOL0     O12288   6.853   1.301   8.525 -0.2288  0.0337  0.0739
   92MOL0     C12289   6.749   1.380   8.552  0.0447 -0.0164 -0.4051
   92MOL0     C12290   6.762   1.493   8.471  0.3709  0.8227  0.4264
   92MOL0     C12291   6.655   1.585   8.485  0.8447  0.7757  0.8364
   92MOL0     C12292   6.546   1.568   8.573  0.0941 -0.5548 -0.2108
   92MOL0     O12293   6.438   1.656   8.598  0.0967 -0.5665 -0.9878
   92MOL0     C12294   6.363   1.677   8.475 -0.4581 -0.0307 -0.3750
   92MOL0     C12295   6.226   1.740   8.514  0.1213  0.8950  0.0547
   92MOL0     C12296   6.148   1.788   8.379  0.0562 -1.0018 -0.0782
   92MOL0     C12297   6.159   1.939   8.357 -0.2535  0.0758 -0.2455
   92MOL0     C12298   6.114   1.987   8.214 -0.7039 -0.5762  0.4773
   92MOL0     C12299   5.981   1.925   8.176 -0.4742 -0.3463 -0.6026
   92MOL0     C12300   5.939   1.977   8.041 -0.6813 -0.1933 -0.5981
   92MOL0     C12301   5.824   1.905   7.975  0.4693  0.6436  0.0756
   92MOL0     N12302   5.834   1.919   7.833 -0.1075  0.5405  0.4777
   92MOL0     C12303   5.888   1.820   7.750  0.5191  1.2448 -0.0351
   92MOL0     C12304   5.874   1.851   7.622 -0.0657  0.1254  0.1832
   92MOL0     C12305   5.924   1.782   7.501 -0.1012  0.2264  0.4738
   92MOL0     C12306   5.801   1.720   7.435 -0.9334  0.9515  0.1009
   92MOL0     C12307   5.847   1.616   7.324 -1.2349  0.4798 -0.9461
   92MOL0     C12308   5.944   1.676   7.215 -0.1903 -0.5936  0.6672
   92MOL0     O12309   5.887   1.796   7.159 -0.0118 -0.1166 -0.3125
   92MOL0     C12310   5.775   1.782   7.088 -0.5639  1.2738  1.1962
   92MOL0     C12311   5.687   1.889   7.080  0.3485  1.0895 -1.7081
   92MOL0     C12312   5.580   1.903   6.996 -1.5401  0.1146 -0.6841
   92MOL0     C12313   5.514   2.038   7.006 -0.3683  0.7436  0.5433
   92MOL0     C12314   5.553   1.797   6.899 -1.5073 -0.0220  0.3389
   92MOL0     C12315   5.455   1.809   6.787 -0.4722 -0.8588  0.1494
   92MOL0     O12316   5.453   1.711   6.692  0.0665  0.5563  0.2531
   92MOL0     C12317   5.328   1.670   6.638  0.1869 -0.4233  1.3041
   92MOL0     C12318   5.337   1.584   6.531  0.4538 -0.2161 -0.3965
   92MOL0     C12319   5.226   1.532   6.457 -0.0889 -0.1146 -0.1469
   92MOL0     C12320   5.101   1.574   6.497  0.0911  0.2212 -1.5251
   92MOL0     O12321   4.987   1.548   6.428 -0.4391 -0.8297  1.0757
   92MOL0     C12322   4.956   1.647   6.324  0.0451  0.4032  0.5702
   92MOL0     C12323   4.805   1.616   6.281 -0.7655 -0.4673  0.0475
   92MOL0     C12324   4.739   1.749   6.209 -0.3854 -0.3668 -0.1538
   92MOL0     C12325   4.797   1.780   6.072 -0.8055 -0.4751 -0.3719
   92MOL0     C12326   4.692   1.831   5.971 -1.3925 -0.5967  0.2965
   92MOL0     C12327   4.639   1.969   6.001 -0.4730 -0.6755  0.2387
   92MOL0     C12328   4.523   2.005   5.921  0.3154  0.0164  0.4297
   92MOL0     C12329   4.472   2.152   5.938 -0.2903  0.0760 -0.2917
   92MOL0    Cl12330   4.314   2.156   5.851 -0.0106 -0.1716 -0.2110
   92MOL0     C12331   5.089   1.655   6.609  0.7160 -0.2413  0.5399
   92MOL0     C12332   5.197   1.703   6.684  0.3157  0.4337  0.2010
   92MOL0     O12333   5.372   1.903   6.789  0.3256  0.5225 -0.3391
   92MOL0     C12334   5.634   1.680   6.912  0.4290  0.8628 -0.7369
   92MOL0     C12335   5.739   1.673   7.002 -0.4879  0.6146 -0.1001
   92MOL0     N12336   5.808   1.974   7.637 -0.2598 -0.4104  0.3736
   92MOL0     N12337   5.771   2.009   7.752  0.4888 -1.0486 -0.1918
   92MOL0     C12338   6.543   1.450   8.642  1.0128 -0.0958 -0.5228
   92MOL0     C12339   6.637   1.344   8.627  0.1863  0.1764 -0.0343
   92MOL0     C12340   7.089   1.259   8.585 -0.4379 -0.5428  0.3695
   92MOL0     C12341   7.109   1.192   8.459 -0.1175 -0.3323 -0.0106
   92MOL0     C12342   7.233   1.145   8.427 -0.4944 -0.3648 -0.0526
   92MOL0     C12343   7.344   1.168   8.511 -0.2444 -0.5634  0.7984
   92MOL0     O12344   7.460   1.107   8.482 -0.3094 -0.4608 -0.1646
   92MOL0     C12345   7.507   1.019   8.604 -0.4776 -0.1102  0.5693
   92MOL0     C12346   7.615   0.915   8.567 -0.2426  1.0416 -0.2401
   92MOL0     C12347   7.733   0.967   8.485  0.0099 -0.2721 -0.1898
   92MOL0     C12348   7.762   0.883   8.354 -0.1690 -0.2579 -0.0486
   92MOL0     C12349   7.786   0.740   8.377 -0.9319  0.6590 -0.5418
   92MOL0     C12350   7.815   0.622   8.372  0.0329 -0.4230 -0.5622
   92MOL0     C12351   7.323   1.240   8.628  0.5322 -0.0709 -0.1776
   92MOL0     C12352   7.198   1.276   8.661  0.5464  0.2496  0.1917
   92MOL0     H12353   6.850   1.524   8.416 -0.1912  3.6598  0.9733
   92MOL0     H12354   6.672   1.680   8.435  1.1345 -0.2726 -1.1970
   92MOL0     H12355   6.423   1.736   8.405  0.3539 -1.4119 -0.8919
   92MOL0     H12356   6.334   1.584   8.425 -1.4223 -0.2603  0.5811
   92MOL0     H12357   6.170   1.656   8.559 -1.3252  2.4083  1.2381
   92MOL0     H12358   6.248   1.806   8.598  0.8303 -0.6225  1.1189
   92MOL0     H12359   6.182   1.731   8.292  0.2120 -1.5092  0.3082
   92MOL0     H12360   6.044   1.761   8.400 -0.6304  0.9189 -0.7889
   92MOL0     H12361   6.095   1.988   8.431 -3.5582 -3.5290 -0.4105
   92MOL0     H12362   6.264   1.967   8.370 -0.1328  1.1096 -2.9267
   92MOL0     H12363   6.106   2.096   8.217 -1.9225 -0.5017 -2.3751
   92MOL0     H12364   6.181   1.966   8.130 -0.8279 -2.2883  0.7696
   92MOL0     H12365   5.996   1.816   8.176  0.5521 -0.2174 -0.1941
   92MOL0     H12366   5.911   1.958   8.253  1.1387 -0.4885  0.9826
   92MOL0     H12367   5.911   2.082   8.050 -2.6185 -0.6400 -1.0161
   92MOL0     H12368   6.028   1.974   7.977  0.4405  2.9914  0.5936
   92MOL0     H12369   5.725   1.941   8.004 -0.0201 -0.6779  0.1328
   92MOL0     H12370   5.829   1.798   7.998 -0.5607 -0.9313 -5.4395
   92MOL0     H12371   5.943   1.735   7.788  1.3971  1.5719 -0.5283
   92MOL0     H12372   5.974   1.857   7.439  0.6292  0.3143  1.1401
   92MOL0     H12373   6.005   1.712   7.523  1.6837  2.3199  0.9415
   92MOL0     H12374   5.727   1.792   7.400 -2.3316 -0.4743 -0.0291
   92MOL0     H12375   5.761   1.661   7.518  0.0861  3.5067  2.5534
   92MOL0     H12376   5.756   1.579   7.276  0.5028 -3.0078 -1.8445
   92MOL0     H12377   5.902   1.534   7.371 -0.9431  0.9973 -0.3622
   92MOL0     H12378   5.970   1.605   7.136  0.9110 -0.7020  1.1125
   92MOL0     H12379   6.041   1.694   7.262 -1.5867 -0.3772  3.7924
   92MOL0     H12380   5.700   1.966   7.156 -1.1175  0.2739 -0.5901
   92MOL0     H12381   5.563   2.106   7.077 -0.5520 -0.2578  1.6686
   92MOL0     H12382   5.494   2.089   6.912 -2.3643  0.5952  0.8542
   92MOL0     H12383   5.411   2.024   7.039 -0.2351 -1.0397  0.3215
   92MOL0     H12384   5.432   1.545   6.494 -0.1197 -2.4277  0.3143
   92MOL0     H12385   5.229   1.470   6.368 -0.0270  0.9820 -0.9274
   92MOL0     H12386   4.981   1.749   6.352  1.0671  0.3337 -0.0409
   92MOL0     H12387   5.026   1.636   6.241  1.4375  2.0852  1.4662
   92MOL0     H12388   4.791   1.522   6.227  1.1312 -0.8545  0.1856
   92MOL0     H12389   4.744   1.606   6.372  0.5807  0.4421  1.0849
   92MOL0     H12390   4.749   1.831   6.281 -2.6954 -1.1471  1.1575
   92MOL0     H12391   4.632   1.732   6.199 -0.5916 -0.1928  1.5640
   92MOL0     H12392   4.884   1.845   6.087  1.0972 -3.1493  0.9418
   92MOL0     H12393   4.847   1.692   6.031  1.8394  1.8519 -2.5970
   92MOL0     H12394   4.611   1.761   5.949 -2.0494  0.7884 -1.9222
   92MOL0     H12395   4.742   1.845   5.875 -1.6150 -0.3058  0.2226
   92MOL0     H12396   4.605   1.983   6.104  1.4171 -2.2314  1.1518
   92MOL0     H12397   4.726   2.034   5.986 -1.7372  1.2678  0.8961
   92MOL0     H12398   4.442   1.932   5.933  1.8906 -1.4721  3.2679
   92MOL0     H12399   4.554   1.996   5.816  0.2527 -1.2164  0.5024
   92MOL0     H12400   4.549   2.217   5.896 -0.5994  1.0208  0.5471
   92MOL0     H12401   4.465   2.178   6.044 -0.6670 -1.1366  0.0038
   92MOL0     H12402   4.991   1.668   6.652 -0.4828 -3.7502 -0.7332
   92MOL0     H12403   5.184   1.762   6.774  1.6991 -2.3473  2.3774
   92MOL0     H12404   5.615   1.594   6.849  2.2364  2.2707 -3.4140
   92MOL0     H12405   5.801   1.584   7.004  0.9963  1.4465 -3.1158
   92MOL0     H12406   6.463   1.432   8.713  1.0285  1.7147  0.0038
   92MOL0     H12407   6.612   1.247   8.669 -1.5754  0.0544 -1.2510
   92MOL0     H12408   7.030   1.155   8.396 -1.2557 -1.5202  1.9902
   92MOL0     H12409   7.240   1.088   8.335 -0.3649 -1.5941  0.6900
   92MOL0     H12410   7.557   1.085   8.675  1.9176 -0.0745 -1.0397
   92MOL0     H12411   7.427   0.966   8.657  0.4566  0.7370  2.9537
   92MOL0     H12412   7.575   0.830   8.511  0.8486  0.7635 -0.6180
   92MOL0     H12413   7.636   0.879   8.669 -0.1009 -0.0031 -0.6261
   92MOL0     H12414   7.820   0.995   8.545 -0.1322  0.2278 -0.2147
   92MOL0     H12415   7.701   1.064   8.445  0.7119 -0.2850 -0.8073
   92MOL0     H12416   7.846   0.935   8.306  1.5865  0.2914  3.3530
   92MOL0     H12417   7.673   0.892   8.291 -0.8761 -2.4783  0.5482
   92MOL0     H12418   7.838   0.518   8.366 -1.3199 -0.9105  1.5143
   92MOL0     H12419   7.404   1.271   8.694  1.1934  0.2471 -1.1135
   92MOL0     H12420   7.192   1.329   8.756 -1.6950 -0.3084  0.4275
   93MOL0     O12421   1.063  11.044   8.270 -0.7804  0.5626  0.0921
   93MOL0     C12422   1.069  11.093   8.155  0.8303 -1.1306 -0.1079
   93MOL0     O12423   0.965  11.094   8.060  0.3149  0.8720  0.1928
   93MOL0     C12424   0.835  11.044   8.070 -0.6999 -1.3229  0.4897
   93MOL0     C12425   0.779  10.983   7.965 -0.6708  0.1050  0.5704
   93MOL0     C12426   0.652  10.935   7.975 -0.5659  0.3280  0.2034
   93MOL0     C12427   0.581  10.933   8.094  0.4365  0.2351  0.4078
   93MOL0     O12428   0.475  10.854   8.096 -0.7569  0.1514 -0.1228
   93MOL0     C12429   0.497  10.712   8.142  1.1490 -0.6593  0.5745
   93MOL0     C12430   0.422  10.683   8.267 -0.0749  0.7166 -0.1615
   93MOL0     C12431   0.280  10.743   8.290  0.0288 -0.7697  0.9157
   93MOL0     C12432   0.248  10.736   8.437 -0.2993 -0.0833  0.5486
   93MOL0     C12433   0.115  10.812   8.467 -0.3274  0.1857 -0.3371
   93MOL0     C12434  -0.005  10.716   8.455  0.3239  0.7801  1.2937
   93MOL0     C12435  -0.138  10.768   8.510 -0.2184 -0.0875 -0.8387
   93MOL0     C12436  -0.142  10.769   8.670 -0.8612 -0.2012 -0.5220
   93MOL0     N12437  -0.150  10.631   8.723  0.6748  0.0436  0.1955
   93MOL0     C12438  -0.048  10.541   8.766  0.3596 -0.5497  0.0273
   93MOL0     C12439  -0.107  10.436   8.818 -0.0682 -0.0269  1.0274
   93MOL0     C12440  -0.025  10.330   8.900 -0.6668  1.0884 -0.0343
   93MOL0     C12441   0.016  10.199   8.832 -0.3076  0.6030  0.2952
   93MOL0     C12442   0.125  10.235   8.723 -0.2587  1.3625 -0.5984
   93MOL0     C12443   0.176  10.113   8.658  0.7146 -0.1632 -0.0085
   93MOL0     O12444   0.072  10.025   8.594 -0.1039 -0.4160 -0.2306
   93MOL0     C12445   0.117   9.931   8.503 -0.2809  0.0949 -0.7541
   93MOL0     C12446   0.251   9.894   8.490 -0.2586 -1.2154 -0.4257
   93MOL0     C12447   0.291   9.796   8.415  0.6454 -0.3930  0.4255
   93MOL0     C12448   0.435   9.775   8.404  0.5326  0.7706 -0.5009
   93MOL0     C12449   0.201   9.730   8.321 -0.6454 -0.0571 -0.5081
   93MOL0     C12450   0.244   9.619   8.233 -0.6669 -0.1822 -1.2324
   93MOL0     O12451   0.294   9.505   8.292 -0.7176  0.2986  0.9269
   93MOL0     C12452   0.337   9.392   8.221  0.3157  0.0826  0.5054
   93MOL0     C12453   0.384   9.399   8.085 -0.1552 -0.0955 -0.4946
   93MOL0     C12454   0.429   9.287   8.012  0.1316  0.6252  0.1122
   93MOL0     C12455   0.430   9.161   8.084 -0.1303 -0.1248  0.6916
   93MOL0     O12456   0.469   9.060   8.001  0.7005 -0.6202  0.7000
   93MOL0     C12457   0.446   8.931   8.051  0.3989  0.7472  0.0045
   93MOL0     C12458   0.466   8.817   7.948  0.4406  0.8381  0.3104
   93MOL0     C12459   0.608   8.821   7.893 -0.3166  0.6088  0.9436
   93MOL0     C12460   0.635   8.733   7.770 -0.1227 -0.8100  0.7412
   93MOL0     C12461   0.783   8.735   7.737 -0.6888  0.0775 -0.3848
   93MOL0     C12462   0.819   8.632   7.631  0.8218 -0.0568 -0.7036
   93MOL0     C12463   0.966   8.644   7.613  0.6961 -0.3231  0.0021
   93MOL0     C12464   1.020   8.535   7.525 -0.2739  0.1348 -0.0121
   93MOL0    Cl12465   0.915   8.490   7.374  0.5089  0.0989 -0.2318
   93MOL0     C12466   0.394   9.159   8.221 -0.2756  0.3629  0.2564
   93MOL0     C12467   0.346   9.271   8.285  0.0035  0.0065 -0.4175
   93MOL0     O12468   0.209   9.629   8.118  0.5384 -0.0174 -0.3182
   93MOL0     C12469   0.073   9.765   8.332 -0.4574 -0.2436 -0.4531
   93MOL0     C12470   0.030   9.870   8.415  0.2399 -0.9183  0.9378
   93MOL0     N12471  -0.240  10.441   8.787 -0.7612  0.0162  0.4611
   93MOL0     N12472  -0.264  10.561   8.738  1.5088 -0.2031 -0.2518
   93MOL0     C12473   0.637  10.992   8.205  0.1568 -0.9399 -0.4021
   93MOL0     C12474   0.767  11.050   8.191  1.0481  0.4460  0.0841
   93MOL0     C12475   1.193  11.165   8.113 -0.3060  0.1375  0.2226
   93MOL0     C12476   1.308  11.166   8.190  0.9119  0.1993  0.3391
   93MOL0     C12477   1.423  11.222   8.147  0.3045 -0.2334  0.1086
   93MOL0     C12478   1.436  11.281   8.021  0.2828 -0.4596 -0.1603
   93MOL0     O12479   1.546  11.344   7.980  0.2064 -0.2628  0.3406
   93MOL0     C12480   1.642  11.409   8.067 -0.6294 -0.0129 -0.8343
   93MOL0     C12481   1.590  11.527   8.152 -0.4326  0.2836  0.0604
   93MOL0     C12482   1.509  11.636   8.086 -0.1595  0.3418 -0.7032
   93MOL0     C12483   1.461  11.743   8.191 -0.0298  0.0321 -0.9026
   93MOL0     C12484   1.321  11.727   8.222  0.2872  0.1328  0.0953
   93MOL0     C12485   1.201  11.723   8.249 -0.0530  0.2255  0.3184
   93MOL0     C12486   1.327  11.282   7.953 -0.0318 -0.1205  1.4073
   93MOL0     C12487   1.200  11.236   7.989 -0.3047  0.0417 -0.5032
   93MOL0     H12488   0.832  10.987   7.871 -1.2589 -1.0655  0.1815
   93MOL0     H12489   0.601  10.895   7.888 -0.5046 -0.9484  0.7327
   93MOL0     H12490   0.447  10.654   8.064 -0.9845  0.9852  0.6292
   93MOL0     H12491   0.599  10.675   8.150  0.8268 -1.5894  0.5213
   93MOL0     H12492   0.415  10.574   8.272  3.4950  0.4382  3.1272
   93MOL0     H12493   0.489  10.706   8.350 -1.5781  2.0317  0.7588
   93MOL0     H12494   0.282  10.848   8.259 -0.7128 -2.0152 -4.2626
   93MOL0     H12495   0.212  10.683   8.229 -0.6616 -0.7569  1.6468
   93MOL0     H12496   0.251  10.635   8.478  4.8379 -1.3000 -1.9576
   93MOL0     H12497   0.328  10.789   8.490  0.4212 -0.3475 -0.2512
   93MOL0     H12498   0.112  10.846   8.571 -0.9605 -3.0109  0.8138
   93MOL0     H12499   0.110  10.891   8.392  1.7725  0.4330 -0.2590
   93MOL0     H12500  -0.018  10.695   8.348 -0.2290 -0.8379  1.6396
   93MOL0     H12501   0.010  10.614   8.491 -3.1906 -1.5017 -2.7830
   93MOL0     H12502  -0.145  10.872   8.477  1.9631  0.5854  0.6053
   93MOL0     H12503  -0.231  10.723   8.474 -1.1777  0.6830  0.5772
   93MOL0     H12504  -0.234  10.810   8.711  0.3184  1.7267  0.3512
   93MOL0     H12505  -0.057  10.823   8.712 -1.5589  0.6749 -0.1977
   93MOL0     H12506   0.053  10.579   8.775 -0.1005  0.4798  1.0922
   93MOL0     H12507   0.067  10.372   8.942 -0.4483 -0.7015  1.4247
   93MOL0     H12508  -0.079  10.302   8.991  1.2638 -2.8283  0.1316
   93MOL0     H12509  -0.067  10.160   8.772  0.0812 -1.7766  1.1894
   93MOL0     H12510   0.060  10.119   8.893 -0.2555  0.9213  0.6810
   93MOL0     H12511   0.207  10.295   8.764  0.3447  2.8460 -3.6814
   93MOL0     H12512   0.083  10.292   8.640  0.7831  3.1506  0.0474
   93MOL0     H12513   0.220  10.056   8.740  0.1359  0.5430  0.7987
   93MOL0     H12514   0.245  10.130   8.574 -0.1128  1.7974 -0.3492
   93MOL0     H12515   0.327   9.944   8.549 -2.2609 -1.3565  2.5168
   93MOL0     H12516   0.482   9.874   8.403  0.0951  0.9782 -0.9332
   93MOL0     H12517   0.470   9.717   8.489 -3.2086 -0.9187  0.0943
   93MOL0     H12518   0.465   9.720   8.314 -1.1653 -1.6366  0.3040
   93MOL0     H12519   0.386   9.493   8.032  0.2597  1.0832  1.5054
   93MOL0     H12520   0.482   9.300   7.918  1.9309 -0.9531  0.8272
   93MOL0     H12521   0.512   8.923   8.138  0.5738  0.9084 -0.1155
   93MOL0     H12522   0.338   8.921   8.071 -0.1586  2.2751 -1.9091
   93MOL0     H12523   0.448   8.722   7.998  1.1156 -1.4501 -3.4154
   93MOL0     H12524   0.394   8.818   7.865 -0.1533 -0.7064  0.7706
   93MOL0     H12525   0.677   8.797   7.975  1.1855 -0.5253 -0.5735
   93MOL0     H12526   0.634   8.920   7.856  2.0709 -1.0953 -2.5768
   93MOL0     H12527   0.607   8.628   7.784  1.8412 -1.6149 -0.8250
   93MOL0     H12528   0.573   8.769   7.688  0.2854  0.7651  1.0879
   93MOL0     H12529   0.847   8.710   7.823 -0.3671  0.0346 -0.6366
   93MOL0     H12530   0.826   8.833   7.713  0.1153 -0.1423  0.1096
   93MOL0     H12531   0.776   8.536   7.659  0.2477  0.6939  1.2116
   93MOL0     H12532   0.770   8.663   7.538 -3.3517 -2.4730  0.4417
   93MOL0     H12533   1.016   8.654   7.709 -2.2742  1.0277  1.5507
   93MOL0     H12534   0.997   8.738   7.566  0.0112 -0.1758 -0.1663
   93MOL0     H12535   1.040   8.449   7.590 -3.6993 -2.6825 -2.2594
   93MOL0     H12536   1.115   8.567   7.482 -0.1389  1.0390  0.9284
   93MOL0     H12537   0.403   9.064   8.273  1.6432  1.4993  2.1066
   93MOL0     H12538   0.322   9.266   8.391  2.5186 -1.0382  0.1974
   93MOL0     H12539  -0.014   9.725   8.280 -2.4679 -2.1163  3.8783
   93MOL0     H12540  -0.075   9.898   8.410  0.2149 -1.2122 -2.5304
   93MOL0     H12541   0.589  10.992   8.303 -1.9002  3.6724 -1.1199
   93MOL0     H12542   0.822  11.096   8.273  3.4280  0.8485 -1.6275
   93MOL0     H12543   1.311  11.124   8.291 -0.1168 -0.3466  0.1637
   93MOL0     H12544   1.511  11.225   8.211  1.0074  1.2689 -0.8524
   93MOL0     H12545   1.692  11.333   8.128  0.9237  0.1793 -1.7892
   93MOL0     H12546   1.711  11.450   7.992 -0.9419 -0.5089 -1.3966
   93MOL0     H12547   1.678  11.572   8.198 -0.2855  0.0826 -0.0233
   93MOL0     H12548   1.530  11.476   8.228  2.1039 -3.0080  0.0665
   93MOL0     H12549   1.426  11.588   8.033  0.2935  0.9382 -1.9867
   93MOL0     H12550   1.580  11.685   8.020 -0.6790  0.6994 -1.0030
   93MOL0     H12551   1.496  11.845   8.173 -0.9831  0.4781 -0.3224
   93MOL0     H12552   1.519  11.716   8.280 -0.1702  0.7173 -0.5943
   93MOL0     H12553   1.095  11.728   8.264  0.0375 -1.5648  1.8724
   93MOL0     H12554   1.338  11.335   7.859 -2.4459  3.6612  2.9945
   93MOL0     H12555   1.112  11.241   7.926 -1.9593  0.5723  1.7399
   94MOL0     O12556   4.661   5.057   7.579  0.4536  0.0054 -0.0779
   94MOL0     C12557   4.615   4.941   7.590  0.7013 -0.8882  0.2088
   94MOL0     O12558   4.495   4.911   7.644 -0.0292 -0.3142  0.0124
   94MOL0     C12559   4.419   5.019   7.698  0.1379  0.0430 -0.3972
   94MOL0     C12560   4.469   5.096   7.805 -0.1517  0.4265  0.1897
   94MOL0     C12561   4.394   5.204   7.856 -0.2187  0.9525 -0.6210
   94MOL0     C12562   4.268   5.233   7.808 -0.3808 -0.1778 -0.0315
   94MOL0     O12563   4.195   5.338   7.848 -0.5571  0.2003 -0.5709
   94MOL0     C12564   4.111   5.294   7.958  0.8928  0.0142  0.1230
   94MOL0     C12565   4.013   5.407   7.991  0.5470 -0.1787  0.5249
   94MOL0     C12566   3.896   5.357   8.086  0.7183 -0.2411  0.9209
   94MOL0     C12567   3.925   5.379   8.236  0.4625 -1.0627 -0.4826
   94MOL0     C12568   3.848   5.277   8.313 -0.3993 -0.5673 -1.0094
   94MOL0     C12569   3.684   5.284   8.311  0.5846 -0.1390 -0.2040
   94MOL0     C12570   3.619   5.213   8.434 -0.0409 -1.0866 -0.0438
   94MOL0     C12571   3.642   5.064   8.442  0.8812 -0.6729  0.0671
   94MOL0     N12572   3.590   4.995   8.323 -0.3620  0.2966 -0.8101
   94MOL0     C12573   3.458   4.955   8.308 -0.5268 -0.6595 -0.5610
   94MOL0     C12574   3.446   4.912   8.179 -0.1734 -0.0547  0.8568
   94MOL0     C12575   3.315   4.864   8.126 -0.5682 -0.3919  0.2451
   94MOL0     C12576   3.333   4.779   8.002 -0.2696  0.5925  0.3162
   94MOL0     C12577   3.407   4.647   8.033 -0.2430  0.1962  0.4879
   94MOL0     C12578   3.381   4.547   7.925  0.2845 -1.0885  0.1017
   94MOL0     O12579   3.440   4.425   7.966 -0.4067 -0.3069  0.7119
   94MOL0     C12580   3.376   4.313   7.935 -0.4503  0.3362  0.3766
   94MOL0     C12581   3.364   4.214   8.028  0.9666  0.6205  0.1817
   94MOL0     C12582   3.295   4.090   8.007 -0.1380 -0.5518 -0.7235
   94MOL0     C12583   3.287   3.991   8.124  0.4879  0.0498 -0.1304
   94MOL0     C12584   3.232   4.063   7.882  0.6227 -0.0637 -0.7451
   94MOL0     C12585   3.174   3.934   7.838 -0.3307  0.7371 -0.7712
   94MOL0     O12586   3.104   3.935   7.712 -0.2574  0.8741  0.6004
   94MOL0     C12587   3.034   3.823   7.687 -0.4563 -0.2043 -0.3109
   94MOL0     C12588   3.089   3.695   7.669 -0.7729 -0.2618 -0.0430
   94MOL0     C12589   3.005   3.580   7.669 -1.3846 -0.0875  0.1003
   94MOL0     C12590   2.875   3.590   7.658  0.0557  0.8643  0.0676
   94MOL0     O12591   2.788   3.485   7.630  0.1765  0.6439 -0.0137
   94MOL0     C12592   2.822   3.360   7.689  0.3260  0.3351 -0.2655
   94MOL0     C12593   2.722   3.263   7.640  0.7539  0.2232 -0.6274
   94MOL0     C12594   2.750   3.127   7.712  0.4780  0.5161  0.7955
   94MOL0     C12595   2.646   3.025   7.658 -0.2494  0.1929  0.8609
   94MOL0     C12596   2.662   2.891   7.728 -0.1899 -1.0285  0.1950
   94MOL0     C12597   2.553   2.798   7.684  0.0008  0.8441  0.0231
   94MOL0     C12598   2.581   2.648   7.732 -0.5073 -0.2952 -0.4716
   94MOL0     C12599   2.464   2.555   7.681 -0.0140 -0.3006  0.4476
   94MOL0    Cl12600   2.493   2.532   7.504 -0.4049 -0.1138  0.0410
   94MOL0     C12601   2.822   3.715   7.647  0.5221  0.3092 -0.8197
   94MOL0     C12602   2.894   3.829   7.667  0.0760 -0.7824 -0.3512
   94MOL0     O12603   3.190   3.838   7.914 -0.3065  0.6105  0.7121
   94MOL0     C12604   3.242   4.167   7.794 -0.6287 -0.8009  0.7208
   94MOL0     C12605   3.309   4.290   7.815  0.1310 -0.3072 -0.5296
   94MOL0     N12606   3.572   4.929   8.116  0.1238 -0.3173  0.4806
   94MOL0     N12607   3.655   4.970   8.203  0.6163  1.2005 -0.1180
   94MOL0     C12608   4.214   5.154   7.707 -0.5094  0.3771  0.3917
   94MOL0     C12609   4.285   5.045   7.654 -1.3084 -0.0260  0.3518
   94MOL0     C12610   4.704   4.823   7.575  0.6475 -0.3463 -0.2571
   94MOL0     C12611   4.660   4.688   7.593 -1.2318  0.2475 -0.0217
   94MOL0     C12612   4.752   4.581   7.582 -0.3390  0.1019  0.5084
   94MOL0     C12613   4.884   4.598   7.532 -0.1330 -0.7820  0.1612
   94MOL0     O12614   4.959   4.482   7.516  0.7831  0.3886  0.1813
   94MOL0     C12615   5.096   4.491   7.491 -0.1780 -0.6614 -0.1737
   94MOL0     C12616   5.171   4.356   7.506 -0.1450 -0.8608 -0.6640
   94MOL0     C12617   5.105   4.239   7.440 -0.3392  0.2242  0.3574
   94MOL0     C12618   5.122   4.260   7.291 -0.3500  0.0238 -1.0639
   94MOL0     C12619   5.044   4.155   7.236 -0.2686  0.3748  0.7771
   94MOL0     C12620   4.981   4.055   7.188  0.8908 -0.1685 -0.7600
   94MOL0     C12621   4.933   4.733   7.522 -0.0382  0.9464  0.0661
   94MOL0     C12622   4.840   4.841   7.536  0.8137 -0.5151  0.0871
   94MOL0     H12623   4.568   5.096   7.851 -1.0603 -3.6302  2.6036
   94MOL0     H12624   4.455   5.267   7.920  0.3516 -0.2033  0.0134
   94MOL0     H12625   4.047   5.208   7.938 -1.0501  1.3645  0.2256
   94MOL0     H12626   4.171   5.280   8.049  0.6590  0.6844  0.3920
   94MOL0     H12627   4.052   5.504   8.023 -0.8590  0.0624  1.5836
   94MOL0     H12628   3.971   5.434   7.894  2.4275 -1.6053 -0.7682
   94MOL0     H12629   3.797   5.399   8.066  1.3191  1.2184  0.8736
   94MOL0     H12630   3.890   5.251   8.061 -0.6390  0.5298 -2.7337
   94MOL0     H12631   4.033   5.373   8.252  0.4459  2.3838  2.0843
   94MOL0     H12632   3.901   5.484   8.258  1.6967  0.0223 -3.6909
   94MOL0     H12633   3.881   5.181   8.274  1.9421  0.9638 -3.0738
   94MOL0     H12634   3.883   5.287   8.416 -0.0853 -0.8051 -1.0931
   94MOL0     H12635   3.642   5.385   8.310 -1.0146 -0.6533  2.6393
   94MOL0     H12636   3.652   5.237   8.218  0.1445 -3.0619  1.3020
   94MOL0     H12637   3.654   5.249   8.531 -0.9597 -2.2767  0.7534
   94MOL0     H12638   3.511   5.234   8.434  0.2379  0.6542 -1.1366
   94MOL0     H12639   3.587   5.025   8.528 -0.7620  0.6279 -0.3433
   94MOL0     H12640   3.749   5.038   8.442  1.1595  0.1644  2.4890
   94MOL0     H12641   3.377   4.955   8.381 -1.2074 -0.8411 -1.3077
   94MOL0     H12642   3.247   4.812   8.195 -0.4736 -0.6178  0.1700
   94MOL0     H12643   3.272   4.951   8.076  1.6070 -1.4540 -3.9786
   94MOL0     H12644   3.395   4.846   7.941  0.6745 -1.6367 -1.3060
   94MOL0     H12645   3.245   4.761   7.941  0.3173 -1.1658 -0.0744
   94MOL0     H12646   3.369   4.593   8.120  0.3558 -2.1459 -0.6388
   94MOL0     H12647   3.515   4.660   8.029 -0.3958  1.2730 -1.8090
   94MOL0     H12648   3.429   4.585   7.834 -2.5055 -4.0686 -2.9023
   94MOL0     H12649   3.274   4.532   7.913  0.6396 -1.6985 -3.6283
   94MOL0     H12650   3.417   4.235   8.120 -2.2951 -1.4209  2.7765
   94MOL0     H12651   3.192   3.944   8.153  2.9145 -5.3095  0.4378
   94MOL0     H12652   3.352   3.904   8.108  0.6529  0.0911  0.3127
   94MOL0     H12653   3.338   4.035   8.210  0.7981  1.7901 -1.1636
   94MOL0     H12654   3.197   3.687   7.666 -0.7842 -0.7658  0.7021
   94MOL0     H12655   3.060   3.487   7.662 -0.3049  0.0146  4.3159
   94MOL0     H12656   2.918   3.328   7.647  0.4215  1.3662 -0.8818
   94MOL0     H12657   2.822   3.365   7.798 -4.0924  2.3155 -0.1203
   94MOL0     H12658   2.626   3.288   7.685  0.6408  0.3282 -0.9288
   94MOL0     H12659   2.719   3.246   7.532  0.3663  1.8392 -0.8978
   94MOL0     H12660   2.741   3.130   7.821 -1.0081  0.0481  0.7073
   94MOL0     H12661   2.852   3.097   7.686  0.3555  1.8293 -1.5168
   94MOL0     H12662   2.546   3.066   7.670  0.0759  0.8273  1.4100
   94MOL0     H12663   2.659   3.013   7.550 -1.7684 -1.2970  0.8071
   94MOL0     H12664   2.643   2.909   7.834  0.1425 -2.3432  0.4911
   94MOL0     H12665   2.763   2.849   7.718  0.2027 -0.3235  1.0452
   94MOL0     H12666   2.460   2.829   7.732  0.7739  2.6781  0.4085
   94MOL0     H12667   2.542   2.819   7.577 -0.5703  1.4623  0.1978
   94MOL0     H12668   2.580   2.648   7.842  0.2050 -2.5028 -0.4223
   94MOL0     H12669   2.676   2.609   7.694 -0.3139 -0.5092  0.2119
   94MOL0     H12670   2.369   2.609   7.685 -0.6007 -1.3275  0.7792
   94MOL0     H12671   2.464   2.453   7.720  1.8804 -0.1978  0.7956
   94MOL0     H12672   2.713   3.717   7.645  0.4054 -1.8887 -0.0090
   94MOL0     H12673   2.851   3.929   7.668 -0.3896 -0.9811 -0.6087
   94MOL0     H12674   3.213   4.163   7.689  0.5670 -3.4259  0.3993
   94MOL0     H12675   3.305   4.363   7.735  1.0783 -0.5974 -0.8540
   94MOL0     H12676   4.117   5.179   7.665 -0.8657  1.6169  1.8640
   94MOL0     H12677   4.247   4.987   7.570  0.2421  1.8449 -1.7533
   94MOL0     H12678   4.556   4.662   7.613 -0.7667 -0.3300  1.8343
   94MOL0     H12679   4.719   4.479   7.572  0.6336 -0.3511  1.6870
   94MOL0     H12680   5.110   4.539   7.394  2.2730 -2.1848 -0.6690
   94MOL0     H12681   5.137   4.559   7.566  4.1760 -0.9153 -2.0459
   94MOL0     H12682   5.169   4.319   7.609 -0.7924  1.6457  0.2774
   94MOL0     H12683   5.268   4.386   7.467 -1.4692 -0.6055 -4.1509
   94MOL0     H12684   5.000   4.238   7.469 -0.6155  1.4999 -0.4738
   94MOL0     H12685   5.157   4.146   7.462  4.0417  1.6674 -2.4865
   94MOL0     H12686   5.227   4.244   7.265 -0.1977  0.3014 -0.6272
   94MOL0     H12687   5.082   4.353   7.251  1.2493  0.9302 -0.6393
   94MOL0     H12688   4.933   3.988   7.120  0.9878 -1.2410  0.1991
   94MOL0     H12689   5.039   4.737   7.497  0.2894 -0.5106  1.0985
   94MOL0     H12690   4.878   4.940   7.518 -0.5266 -0.2229 -1.3584
   95MOL0     O12691   4.303   3.801   6.586  0.4373  0.0567  0.1936
   95MOL0     C12692   4.310   3.715   6.499  0.8638  0.6978  1.3167
   95MOL0     O12693   4.260   3.586   6.508  0.2414  0.2101  0.3173
   95MOL0     C12694   4.233   3.542   6.632 -0.7629 -0.6818 -0.2446
   95MOL0     C12695   4.128   3.594   6.713 -0.3624 -0.0603  0.2058
   95MOL0     C12696   4.091   3.533   6.833 -0.9488 -0.3356 -0.9971
   95MOL0     C12697   4.176   3.438   6.888 -0.2033  0.3910  0.9998
   95MOL0     O12698   4.132   3.384   7.008  0.7356 -1.2664  0.3247
   95MOL0     C12699   4.216   3.302   7.085 -0.4913  0.0026 -0.1287
   95MOL0     C12700   4.163   3.289   7.226 -0.0019 -0.4710  0.6023
   95MOL0     C12701   4.236   3.181   7.308 -0.1359 -1.0332  1.2898
   95MOL0     C12702   4.149   3.163   7.431 -0.4156 -0.7026 -0.6230
   95MOL0     C12703   4.236   3.123   7.558 -0.1014  0.6362 -0.0900
   95MOL0     C12704   4.157   3.086   7.680  0.2315  0.1857 -0.1731
   95MOL0     C12705   4.045   2.976   7.657  0.7726 -0.3657 -0.2144
   95MOL0     C12706   3.965   2.947   7.788  0.3462 -0.2508  0.1455
   95MOL0     N12707   4.049   2.904   7.902 -0.0634 -0.0378  0.1139
   95MOL0     C12708   4.101   2.782   7.932 -0.2519  0.4610  0.7525
   95MOL0     C12709   4.135   2.790   8.058  1.6639 -0.1034  0.1107
   95MOL0     C12710   4.206   2.683   8.136 -0.1284 -0.4365 -0.1988
   95MOL0     C12711   4.256   2.555   8.065  0.2964 -0.4230 -0.5455
   95MOL0     C12712   4.143   2.462   8.013 -1.0505 -1.0998 -0.0919
   95MOL0     C12713   4.032   2.425   8.104  0.2625 -0.3592 -0.5206
   95MOL0     O12714   4.096   2.367   8.225 -0.6003  0.2627 -0.2807
   95MOL0     C12715   4.042   2.360   8.348  0.5794 -0.2467 -0.2683
   95MOL0     C12716   4.129   2.331   8.456 -0.5327  0.4955 -0.5522
   95MOL0     C12717   4.077   2.344   8.589 -0.8819  0.7015  0.4297
   95MOL0     C12718   4.164   2.300   8.698  0.2821  0.4684 -0.5487
   95MOL0     C12719   3.945   2.387   8.615 -0.5743  0.5562  0.0637
   95MOL0     C12720   3.878   2.405   8.746  0.1936 -0.4072  0.7530
   95MOL0     O12721   3.746   2.441   8.737 -0.1166  0.2156  0.0398
   95MOL0     C12722   3.694   2.455   8.867 -0.7129 -1.3401  0.3595
   95MOL0     C12723   3.698   2.351   8.965  0.0770 -0.6408  0.6232
   95MOL0     C12724   3.671   2.375   9.099 -0.3319  0.3075  0.1457
   95MOL0     C12725   3.639   2.504   9.138  0.3920 -0.3622 -0.6271
   95MOL0     O12726   3.633   2.555   9.264  0.1905  0.4834  0.4946
   95MOL0     C12727   3.650   2.462   9.378  0.5308 -0.7391  0.8052
   95MOL0     C12728   3.542   2.364   9.406 -0.4527 -0.1998  0.0302
   95MOL0     C12729   3.549   2.311   9.553 -0.4372 -1.2463 -0.3860
   95MOL0     C12730   3.701   2.267   9.591 -0.1314  0.5299 -0.0602
   95MOL0     C12731   3.706   2.210   9.732 -0.6385 -0.8727  0.8153
   95MOL0     C12732   3.682   2.322   9.835 -0.7513 -0.0540  1.0605
   95MOL0     C12733   3.703   2.260   9.981  0.1886 -0.1526 -0.7942
   95MOL0     C12734   3.660   2.358  10.094  0.2182 -0.7239 -0.0326
   95MOL0    Cl12735   3.481   2.383  10.096 -0.0717  0.2823 -0.3584
   95MOL0     C12736   3.630   2.607   9.037  0.5406  0.3754  0.7752
   95MOL0     C12737   3.654   2.582   8.906  0.6541  0.0309  0.1588
   95MOL0     O12738   3.951   2.424   8.842 -0.3021 -0.0441  0.8085
   95MOL0     C12739   3.862   2.415   8.502 -1.7439 -0.2455  0.6595
   95MOL0     C12740   3.914   2.409   8.374  0.6422  0.2458 -1.0036
   95MOL0     N12741   4.109   2.917   8.107 -0.6344 -0.3708 -1.1040
   95MOL0     N12742   4.066   2.983   8.014  0.2498  0.4448  0.0742
   95MOL0     C12743   4.298   3.392   6.819  0.1516  0.4804  0.4685
   95MOL0     C12744   4.314   3.432   6.681 -0.8145 -1.5286  0.1486
   95MOL0     C12745   4.370   3.754   6.371 -1.2135  0.0261 -0.0922
   95MOL0     C12746   4.416   3.885   6.349  0.0183 -0.9498 -0.1198
   95MOL0     C12747   4.474   3.930   6.228 -0.5418 -0.7622  0.4904
   95MOL0     C12748   4.499   3.840   6.118 -0.1016 -0.7861  0.4356
   95MOL0     O12749   4.557   3.893   6.008  0.1000  0.7040  0.7511
   95MOL0     C12750   4.488   3.858   5.886  0.3380 -0.3542  1.1379
   95MOL0     C12751   4.364   3.932   5.871 -0.1462 -0.1599 -1.1608
   95MOL0     C12752   4.383   4.079   5.853 -0.8742 -0.6020  0.1153
   95MOL0     C12753   4.261   4.151   5.864  1.1533 -0.6749  0.5580
   95MOL0     C12754   4.293   4.296   5.824  0.4324  0.3222 -0.2424
   95MOL0     C12755   4.312   4.408   5.786  0.5827 -0.3282 -0.3858
   95MOL0     C12756   4.450   3.706   6.136 -0.0065  0.0015 -0.8550
   95MOL0     C12757   4.397   3.663   6.263  0.3534 -0.6404  0.0455
   95MOL0     H12758   4.074   3.673   6.663 -0.4637 -0.0284  0.3659
   95MOL0     H12759   4.010   3.556   6.902 -0.4039 -3.3466  0.8131
   95MOL0     H12760   4.220   3.203   7.038 -0.7174  1.3599 -3.2820
   95MOL0     H12761   4.317   3.342   7.096 -0.5752 -0.0212  0.7626
   95MOL0     H12762   4.176   3.388   7.269  2.4537 -1.0122  1.2604
   95MOL0     H12763   4.055   3.269   7.225 -0.5102  1.2916  4.1514
   95MOL0     H12764   4.245   3.088   7.252 -0.5665 -1.7199  2.3423
   95MOL0     H12765   4.338   3.215   7.330  0.5707 -1.2478 -1.3437
   95MOL0     H12766   4.089   3.247   7.468 -0.7588 -0.8405 -0.8724
   95MOL0     H12767   4.084   3.077   7.413 -0.2814 -0.8772 -0.2834
   95MOL0     H12768   4.299   3.038   7.532 -0.1308  1.4418 -3.1427
   95MOL0     H12769   4.318   3.196   7.567  2.1248 -1.8743  1.4681
   95MOL0     H12770   4.228   3.048   7.755 -2.1836  0.2603  2.2821
   95MOL0     H12771   4.121   3.181   7.722 -1.6818  1.0553 -3.4264
   95MOL0     H12772   3.980   3.005   7.574  1.4783  2.1009  0.0229
   95MOL0     H12773   4.101   2.883   7.642  1.8807 -0.0914  1.8842
   95MOL0     H12774   3.891   2.868   7.769  0.2322 -0.9831  3.1827
   95MOL0     H12775   3.912   3.041   7.800 -0.1232 -0.2822 -1.4212
   95MOL0     H12776   4.124   2.706   7.859 -0.6972  1.7906 -0.8321
   95MOL0     H12777   4.294   2.730   8.180 -1.0306  0.7174  0.4394
   95MOL0     H12778   4.154   2.648   8.225  0.7219 -0.1725  0.4041
   95MOL0     H12779   4.325   2.500   8.130  0.5347  0.1582 -0.3038
   95MOL0     H12780   4.321   2.589   7.984  0.4177 -1.5951 -0.9648
   95MOL0     H12781   4.184   2.361   7.999  3.6674  0.1266  2.9042
   95MOL0     H12782   4.105   2.493   7.915 -1.3754 -1.9711 -0.2551
   95MOL0     H12783   3.967   2.352   8.056  0.0733 -0.2096 -0.4959
   95MOL0     H12784   3.971   2.514   8.126  1.1103  0.0747  0.1386
   95MOL0     H12785   4.227   2.290   8.432 -1.7408 -1.9732 -1.6132
   95MOL0     H12786   4.184   2.391   8.757 -3.3201 -0.3603  2.3428
   95MOL0     H12787   4.114   2.227   8.763  2.4001  0.8750  1.7123
   95MOL0     H12788   4.252   2.256   8.651 -1.0746  0.4183 -3.1746
   95MOL0     H12789   3.722   2.248   8.937  1.6334 -0.2136  0.3111
   95MOL0     H12790   3.689   2.294   9.169  0.6383  0.1865 -0.2252
   95MOL0     H12791   3.738   2.400   9.358  1.3629  0.3118  1.1282
   95MOL0     H12792   3.662   2.522   9.469 -2.8697  1.4867 -0.0309
   95MOL0     H12793   3.442   2.404   9.386 -0.1092  0.1225 -1.1086
   95MOL0     H12794   3.569   2.278   9.344 -0.0088 -1.4736  1.9068
   95MOL0     H12795   3.468   2.241   9.570 -0.1172 -1.1229  2.0717
   95MOL0     H12796   3.523   2.390   9.625  0.8841 -3.5188  2.8299
   95MOL0     H12797   3.733   2.187   9.525  0.8099  1.0306 -0.2391
   95MOL0     H12798   3.771   2.350   9.573 -0.3802  1.0024  1.0589
   95MOL0     H12799   3.809   2.173   9.736 -0.5365 -1.0744 -1.9723
   95MOL0     H12800   3.627   2.137   9.752 -0.9926 -0.5481  0.5894
   95MOL0     H12801   3.750   2.406   9.820  0.0873 -1.1849 -2.1463
   95MOL0     H12802   3.577   2.352   9.828 -0.7532 -0.3859 -0.7598
   95MOL0     H12803   3.808   2.239  10.002 -0.6296 -2.3174  1.6362
   95MOL0     H12804   3.648   2.166   9.981  1.7644 -1.1094  0.1351
   95MOL0     H12805   3.706   2.455  10.072 -0.2282 -0.7344 -1.0623
   95MOL0     H12806   3.693   2.331  10.194 -2.1018 -1.0967  0.7020
   95MOL0     H12807   3.608   2.707   9.075 -3.3676 -0.5431  1.4040
   95MOL0     H12808   3.639   2.648   8.821 -2.7416  0.8696  1.2653
   95MOL0     H12809   3.769   2.470   8.498  0.0918  3.0556 -0.8422
   95MOL0     H12810   3.845   2.432   8.293  3.1506  3.6728 -2.4050
   95MOL0     H12811   4.368   3.327   6.871 -0.1062 -1.7190 -1.7621
   95MOL0     H12812   4.399   3.393   6.626 -0.9355  0.2904 -1.3937
   95MOL0     H12813   4.420   3.961   6.427 -0.5700 -1.9236  0.8810
   95MOL0     H12814   4.499   4.034   6.211  0.5920 -1.2107 -0.7929
   95MOL0     H12815   4.547   3.866   5.795 -1.8829  1.4792 -0.2576
   95MOL0     H12816   4.474   3.750   5.883 -1.3957 -0.2587  3.0855
   95MOL0     H12817   4.297   3.914   5.956  2.5053  2.0514  1.6373
   95MOL0     H12818   4.301   3.895   5.789  0.1561 -0.6356 -1.1770
   95MOL0     H12819   4.446   4.090   5.764 -0.3242 -1.4452  0.3825
   95MOL0     H12820   4.446   4.111   5.935 -0.7240 -0.0885 -0.1980
   95MOL0     H12821   4.216   4.150   5.963 -0.2995 -1.1564 -0.0904
   95MOL0     H12822   4.197   4.097   5.793  0.4862  0.2618  0.4282
   95MOL0     H12823   4.362   4.501   5.768  1.9827 -0.9924 -0.0723
   95MOL0     H12824   4.480   3.632   6.062 -0.3276 -3.4319  2.1881
   95MOL0     H12825   4.371   3.557   6.263  0.3321 -0.7420 -3.1320
   96MOL0     O12826   3.469   8.965  10.763  0.2374 -0.8986 -0.1802
   96MOL0     C12827   3.572   8.928  10.711  0.6975 -0.9390 -0.5596
   96MOL0     O12828   3.603   8.800  10.695  0.3782  0.4488 -0.7265
   96MOL0     C12829   3.513   8.699  10.741  0.7032 -0.3057  0.4970
   96MOL0     C12830   3.478   8.681  10.876 -0.6759 -0.3444  1.0481
   96MOL0     C12831   3.409   8.569  10.920  0.2793 -0.0772  0.2879
   96MOL0     C12832   3.371   8.469  10.831  0.9467 -0.6999  0.4073
   96MOL0     O12833   3.313   8.360  10.887  0.0852 -0.1877 -0.0369
   96MOL0     C12834   3.361   8.226  10.869 -0.0995  0.5376  0.5584
   96MOL0     C12835   3.485   8.198  10.943  1.2683 -0.1519  0.2884
   96MOL0     C12836   3.530   8.054  10.936  0.6013 -0.4591 -0.5157
   96MOL0     C12837   3.472   7.944  11.027  0.2444 -0.4827 -0.1339
   96MOL0     C12838   3.513   7.791  11.021  0.9367  0.1238  1.6244
   96MOL0     C12839   3.663   7.777  11.029  0.1452 -0.9815  0.6588
   96MOL0     C12840   3.712   7.635  10.997  0.0159  0.2184  1.5271
   96MOL0     C12841   3.671   7.525  11.101 -0.1201 -0.7834  0.0328
   96MOL0     N12842   3.693   7.389  11.048 -0.2050  0.1463 -0.2992
   96MOL0     C12843   3.619   7.327  10.950 -0.6600 -0.0914  0.0075
   96MOL0     C12844   3.680   7.210  10.921  0.2554  0.5124 -0.1864
   96MOL0     C12845   3.630   7.084  10.842 -1.1066  1.0579 -0.2742
   96MOL0     C12846   3.524   7.120  10.732  0.5898  0.4462  0.1789
   96MOL0     C12847   3.577   7.232  10.635 -0.1328  0.4761 -0.7171
   96MOL0     C12848   3.485   7.252  10.521 -0.0976 -0.6197  1.0444
   96MOL0     O12849   3.360   7.304  10.583 -0.2010  0.5159  0.2298
   96MOL0     C12850   3.233   7.259  10.538 -0.7661 -0.0656 -0.2998
   96MOL0     C12851   3.118   7.302  10.611 -0.4343  0.0845  1.1743
   96MOL0     C12852   2.991   7.261  10.578 -0.6137  0.9114  1.5065
   96MOL0     C12853   2.876   7.301  10.661  0.0313  0.8556  0.7851
   96MOL0     C12854   2.979   7.163  10.469  0.2707 -0.5507 -0.1342
   96MOL0     C12855   2.847   7.110  10.417 -0.7254  0.4137  0.0116
   96MOL0     O12856   2.859   6.996  10.337  0.2680 -1.0692 -1.1687
   96MOL0     C12857   2.740   6.924  10.309 -0.2433 -1.7458  0.8749
   96MOL0     C12858   2.713   6.793  10.363  0.3125 -0.0126 -0.4088
   96MOL0     C12859   2.591   6.737  10.327  0.4262  1.1737  0.5276
   96MOL0     C12860   2.494   6.801  10.253 -0.0402  0.8358 -0.2608
   96MOL0     O12861   2.376   6.729  10.242  0.4129 -0.5721  0.6880
   96MOL0     C12862   2.266   6.799  10.187  0.5796  0.4060 -0.6275
   96MOL0     C12863   2.157   6.699  10.157 -0.3531 -0.7545  0.1299
   96MOL0     C12864   2.201   6.591  10.052  0.0533 -0.3439  1.0690
   96MOL0     C12865   2.090   6.490  10.048 -0.7987 -0.3621  1.4006
   96MOL0     C12866   2.100   6.406   9.911  0.3796 -0.3166  0.1175
   96MOL0     C12867   2.224   6.318   9.916 -0.7027  0.3516  0.4088
   96MOL0     C12868   2.224   6.204   9.814  0.5604  1.2795  0.1001
   96MOL0     C12869   2.185   6.239   9.665 -0.4358  0.5557 -0.6847
   96MOL0    Cl12870   2.294   6.357   9.595 -0.1321  0.2261  0.3733
   96MOL0     C12871   2.525   6.931  10.196  0.1312  0.6874  0.3475
   96MOL0     C12872   2.648   6.991  10.218 -0.8926 -0.2711  0.9141
   96MOL0     O12873   2.742   7.170  10.442 -0.1485 -0.7290 -0.2893
   96MOL0     C12874   3.094   7.126  10.407 -0.0451 -0.6811 -0.0175
   96MOL0     C12875   3.224   7.169  10.435  0.7231 -0.2826 -0.3100
   96MOL0     N12876   3.789   7.197  11.008  0.9715  0.6870 -0.4823
   96MOL0     N12877   3.801   7.317  11.073  0.1555  0.8180 -0.3218
   96MOL0     C12878   3.387   8.505  10.691 -0.2045  0.7257  0.0947
   96MOL0     C12879   3.458   8.613  10.647 -0.2248  0.1117 -1.0507
   96MOL0     C12880   3.653   9.033  10.658 -0.1373 -0.6502  0.0497
   96MOL0     C12881   3.787   8.999  10.617 -0.1833  0.2939  0.0531
   96MOL0     C12882   3.855   9.102  10.552  1.1984  0.0431 -0.3903
   96MOL0     C12883   3.807   9.229  10.520 -0.0452 -1.0475  0.8154
   96MOL0     O12884   3.893   9.310  10.459 -0.1445 -0.4645 -0.6796
   96MOL0     C12885   3.864   9.453  10.442  0.0617 -0.1365  0.3754
   96MOL0     C12886   3.995   9.524  10.459  0.2436  0.2657  0.3166
   96MOL0     C12887   4.064   9.504  10.327 -0.3409  0.0084  0.4624
   96MOL0     C12888   4.186   9.588  10.317  0.5908  0.0672 -0.2398
   96MOL0     C12889   4.250   9.563  10.193 -1.2439  0.3360  0.3660
   96MOL0     C12890   4.308   9.547  10.086 -0.1003 -0.5309  0.2205
   96MOL0     C12891   3.677   9.256  10.547 -0.3770 -0.3769 -0.3799
   96MOL0     C12892   3.602   9.160  10.612 -0.2355 -0.1761 -0.7271
   96MOL0     H12893   3.511   8.755  10.949  0.8009 -0.6974  0.7529
   96MOL0     H12894   3.404   8.556  11.027  1.9615 -0.0950  0.3956
   96MOL0     H12895   3.289   8.153  10.908 -0.5375  0.5244 -0.2429
   96MOL0     H12896   3.368   8.213  10.760  1.2630  5.5231 -0.1676
   96MOL0     H12897   3.563   8.272  10.926  0.8231  0.5787  1.3732
   96MOL0     H12898   3.459   8.225  11.045 -0.7854 -1.8203  0.2984
   96MOL0     H12899   3.509   8.015  10.836  0.1239 -3.0569  0.5253
   96MOL0     H12900   3.636   8.058  10.964  0.7308  0.8510 -1.1179
   96MOL0     H12901   3.487   7.973  11.131 -3.1847  1.5816 -0.0357
   96MOL0     H12902   3.364   7.962  11.015  0.2145  1.5346  2.3010
   96MOL0     H12903   3.472   7.736  11.106 -1.5217 -0.6340  0.0659
   96MOL0     H12904   3.473   7.742  10.932  0.8791  1.3719  0.9449
   96MOL0     H12905   3.703   7.844  10.952 -0.9874  1.7138  2.2710
   96MOL0     H12906   3.692   7.819  11.125 -2.0120  1.9601  0.1625
   96MOL0     H12907   3.691   7.596  10.897  2.1272 -2.4947  2.0265
   96MOL0     H12908   3.821   7.638  11.001  0.0011  3.3476  1.3144
   96MOL0     H12909   3.565   7.536  11.127 -0.1718 -0.7650 -0.1887
   96MOL0     H12910   3.729   7.539  11.193  0.0894 -2.6849  0.2270
   96MOL0     H12911   3.518   7.355  10.921 -2.2605 -5.1177 -0.2577
   96MOL0     H12912   3.723   7.040  10.804 -1.8816 -1.0596  0.0994
   96MOL0     H12913   3.599   7.004  10.909  1.9617  0.6837  0.8827
   96MOL0     H12914   3.424   7.132  10.774 -0.8690 -1.2107 -2.4782
   96MOL0     H12915   3.503   7.033  10.668 -0.7579  0.4310  0.5981
   96MOL0     H12916   3.665   7.195  10.582  1.1801 -2.0464  2.8439
   96MOL0     H12917   3.604   7.316  10.699 -0.5734 -2.1836  3.3143
   96MOL0     H12918   3.487   7.156  10.468  2.6899 -0.2135  0.2696
   96MOL0     H12919   3.516   7.334  10.457 -1.1597 -1.3555 -0.4820
   96MOL0     H12920   3.145   7.372  10.689  0.0290  1.9872 -0.5877
   96MOL0     H12921   2.802   7.364  10.613 -2.1974  1.7095  4.8463
   96MOL0     H12922   2.823   7.209  10.687  0.4963  0.6976  1.1968
   96MOL0     H12923   2.896   7.369  10.746  0.6424  3.8443 -1.5660
   96MOL0     H12924   2.777   6.742  10.433  2.1143  0.2446 -1.7883
   96MOL0     H12925   2.564   6.639  10.364  3.4065  0.0745  0.0579
   96MOL0     H12926   2.229   6.882  10.247 -2.2496 -2.7414  2.4266
   96MOL0     H12927   2.289   6.838  10.087 -1.6190  0.6052 -1.1018
   96MOL0     H12928   2.144   6.661  10.258  2.0076  0.1765  0.8525
   96MOL0     H12929   2.058   6.737  10.129 -1.0718 -2.7181 -0.1239
   96MOL0     H12930   2.287   6.532  10.085  0.3531 -0.0965  0.7425
   96MOL0     H12931   2.229   6.624   9.952 -0.6808 -0.3156  0.8645
   96MOL0     H12932   2.098   6.438  10.143  0.6996 -0.1579  1.4087
   96MOL0     H12933   1.994   6.543  10.047 -0.4928  0.2301 -0.5002
   96MOL0     H12934   2.105   6.474   9.825 -0.8909 -0.7844 -0.3401
   96MOL0     H12935   2.008   6.348   9.904 -0.2665  0.5401  1.1880
   96MOL0     H12936   2.313   6.375   9.889  0.1743 -1.0435  0.2684
   96MOL0     H12937   2.228   6.277  10.018  1.3192 -0.1017  0.1807
   96MOL0     H12938   2.161   6.123   9.853  2.0584 -0.1457 -0.3340
   96MOL0     H12939   2.326   6.165   9.818  1.6714  4.0326  1.4326
   96MOL0     H12940   2.081   6.272   9.667 -0.9358 -0.8823 -1.8382
   96MOL0     H12941   2.191   6.150   9.603 -1.8138 -1.7684  2.2716
   96MOL0     H12942   2.440   6.980  10.149 -1.9103 -1.8254  1.1713
   96MOL0     H12943   2.673   7.088  10.177  1.5395 -1.7780 -1.4893
   96MOL0     H12944   3.097   7.061  10.321  0.7413  1.6302 -1.8282
   96MOL0     H12945   3.306   7.129  10.376  0.6977  1.8359 -1.8494
   96MOL0     H12946   3.373   8.435  10.610  2.6881 -2.0139  1.7149
   96MOL0     H12947   3.479   8.637  10.543 -0.4978 -1.3761 -1.4816
   96MOL0     H12948   3.847   8.915  10.651 -0.4248  1.0711  2.6490
   96MOL0     H12949   3.958   9.070  10.535  1.2893  0.4683 -0.6539
   96MOL0     H12950   3.820   9.468  10.343 -1.4511  2.6930  1.3388
   96MOL0     H12951   3.799   9.484  10.525 -1.2107 -0.7513 -0.3624
   96MOL0     H12952   4.038   9.462  10.538 -2.6897 -1.6316  0.5997
   96MOL0     H12953   3.982   9.632  10.472 -0.9757  0.4451 -1.9646
   96MOL0     H12954   3.994   9.520  10.245  2.5633  0.2062 -2.1218
   96MOL0     H12955   4.101   9.402  10.316 -1.9541 -0.3255 -3.3004
   96MOL0     H12956   4.259   9.579  10.397 -1.2645  2.8109  1.9378
   96MOL0     H12957   4.146   9.690  10.322 -2.6168 -0.9602 -1.7653
   96MOL0     H12958   4.368   9.536   9.998  0.3322 -0.0158  0.4468
   96MOL0     H12959   3.633   9.348  10.512  0.8591  0.2807 -0.2567
   96MOL0     H12960   3.496   9.163  10.632 -0.0082 -1.3123  0.9130
   97MOL0     O12961   5.014   7.050   2.750  0.1257  0.1909 -0.3976
   97MOL0     C12962   4.914   7.120   2.721 -0.9814  0.1654  0.0554
   97MOL0     O12963   4.801   7.116   2.781  0.7165 -0.0106  0.3054
   97MOL0     C12964   4.747   7.008   2.851  0.7046 -1.2385  0.7230
   97MOL0     C12965   4.705   7.036   2.983  0.6213  0.3175 -0.2919
   97MOL0     C12966   4.650   6.927   3.054  0.6998 -0.7568 -0.6922
   97MOL0     C12967   4.621   6.802   2.998 -0.4152 -0.6652  1.0870
   97MOL0     O12968   4.558   6.699   3.053  0.4458 -1.0111 -0.8995
   97MOL0     C12969   4.518   6.720   3.192  0.7192 -0.0740  0.1054
   97MOL0     C12970   4.480   6.586   3.246 -0.1020 -0.0393  0.0005
   97MOL0     C12971   4.339   6.545   3.174  0.0348 -0.5011 -0.9948
   97MOL0     C12972   4.262   6.454   3.274  0.3499  0.4555 -0.2523
   97MOL0     C12973   4.321   6.312   3.272 -0.0557  0.3967  0.1407
   97MOL0     C12974   4.231   6.221   3.361  0.1565  0.7307 -0.5566
   97MOL0     C12975   4.279   6.210   3.512  0.2764 -1.1276 -0.8215
   97MOL0     C12976   4.200   6.110   3.592 -0.5862 -0.9897  0.4484
   97MOL0     N12977   4.218   6.127   3.737 -0.6733 -0.5642 -0.0526
   97MOL0     C12978   4.137   6.073   3.824 -0.4145 -0.0253 -0.0322
   97MOL0     C12979   4.173   6.108   3.946  0.3707  0.6870 -0.6055
   97MOL0     C12980   4.101   6.077   4.073 -0.8384 -0.5987  0.2586
   97MOL0     C12981   4.105   5.924   4.102 -0.5530  0.0850 -0.6086
   97MOL0     C12982   4.046   5.899   4.241  0.4118 -0.8223  0.3545
   97MOL0     C12983   3.996   5.753   4.263  0.0226 -0.5803  0.3010
   97MOL0     O12984   4.092   5.655   4.228 -0.1927 -0.2155 -0.0456
   97MOL0     C12985   4.048   5.526   4.263  0.6942 -0.2449 -0.2879
   97MOL0     C12986   4.140   5.435   4.308  0.4269 -0.0053  0.9937
   97MOL0     C12987   4.102   5.300   4.341 -0.1647  0.3928  0.9738
   97MOL0     C12988   4.208   5.213   4.386 -0.1882  0.5534  0.2367
   97MOL0     C12989   3.966   5.260   4.311 -0.6419  0.4113 -0.2133
   97MOL0     C12990   3.906   5.124   4.325 -0.4541  1.1931  1.0137
   97MOL0     O12991   3.770   5.107   4.326  0.2688 -1.1175 -0.5105
   97MOL0     C12992   3.745   5.005   4.412  0.1758  0.3382 -0.2161
   97MOL0     C12993   3.740   4.876   4.359 -0.1358 -0.5606  0.3906
   97MOL0     C12994   3.733   4.776   4.455  0.1198  0.2680 -1.2880
   97MOL0     C12995   3.719   4.785   4.590  0.2606 -1.1694  0.7158
   97MOL0     O12996   3.698   4.676   4.669  0.8852 -0.9401  0.7009
   97MOL0     C12997   3.670   4.689   4.812 -0.3494 -0.3298 -0.6304
   97MOL0     C12998   3.610   4.563   4.879 -0.5433 -0.1352  0.4436
   97MOL0     C12999   3.627   4.435   4.798  0.5361 -0.2330  0.8692
   97MOL0     C13000   3.746   4.355   4.840 -0.9610  1.0547  0.1053
   97MOL0     C13001   3.880   4.421   4.794 -0.1423  0.5034  0.1852
   97MOL0     C13002   3.999   4.332   4.838  0.8028  0.8656  0.5887
   97MOL0     C13003   4.017   4.357   4.985 -0.5941 -0.3274 -0.6571
   97MOL0     C13004   4.033   4.226   5.067  0.4649 -0.0930 -1.1473
   97MOL0    Cl13005   4.205   4.183   5.050 -0.0855 -0.0335 -0.4149
   97MOL0     C13006   3.722   4.918   4.641  0.3177 -0.6921 -0.1619
   97MOL0     C13007   3.739   5.024   4.550 -0.6528 -0.2129  0.2803
   97MOL0     O13008   3.991   5.033   4.304  0.1098  0.3306  1.0080
   97MOL0     C13009   3.879   5.359   4.274 -0.4216 -0.3040  0.3062
   97MOL0     C13010   3.910   5.490   4.248  0.1361  0.4822 -0.2765
   97MOL0     N13011   4.281   6.193   3.932  0.4912 -0.3065 -0.1576
   97MOL0     N13012   4.319   6.191   3.814 -0.6425 -0.1508 -0.0435
   97MOL0     C13013   4.670   6.779   2.864  0.0320  0.4796  0.1298
   97MOL0     C13014   4.734   6.881   2.794  0.5277  0.8539  0.1892
   97MOL0     C13015   4.934   7.218   2.609 -0.0886 -0.0765 -0.6037
   97MOL0     C13016   4.830   7.273   2.533  0.5038 -0.3636  0.3652
   97MOL0     C13017   4.853   7.378   2.436 -0.2791  0.3284 -0.5376
   97MOL0     C13018   4.983   7.424   2.417  0.5507  0.4043  0.4903
   97MOL0     O13019   5.004   7.520   2.315 -0.7697 -0.6516  0.0750
   97MOL0     C13020   4.900   7.589   2.248  0.3941 -0.4918 -0.1976
   97MOL0     C13021   4.960   7.684   2.142 -0.1141 -1.0308 -0.3671
   97MOL0     C13022   4.842   7.718   2.054  0.2581  0.2868  0.1536
   97MOL0     C13023   4.886   7.833   1.959  0.0414 -0.4318 -0.1162
   97MOL0     C13024   4.780   7.871   1.861 -0.8241  0.1224 -0.4857
   97MOL0     C13025   4.680   7.893   1.798 -0.9920 -0.4431 -1.1983
   97MOL0     C13026   5.088   7.359   2.488 -0.7476 -0.2052  0.5597
   97MOL0     C13027   5.064   7.265   2.584 -0.5582  0.2198  0.8126
   97MOL0     H13028   4.718   7.131   3.034 -0.1622 -0.4190  1.3394
   97MOL0     H13029   4.608   6.956   3.149 -0.9969 -0.2920 -1.5509
   97MOL0     H13030   4.609   6.757   3.240  0.5735 -1.3758  1.4287
   97MOL0     H13031   4.433   6.786   3.212 -0.3906 -1.9318  1.8091
   97MOL0     H13032   4.556   6.508   3.235  0.9826  1.0123 -0.1793
   97MOL0     H13033   4.465   6.612   3.351 -2.3480  4.0129 -1.0787
   97MOL0     H13034   4.280   6.635   3.157 -2.7308 -2.4592 -2.6024
   97MOL0     H13035   4.356   6.490   3.081  0.2281 -2.6752  0.2460
   97MOL0     H13036   4.272   6.483   3.379 -3.9802 -0.0300  0.4802
   97MOL0     H13037   4.156   6.447   3.247  0.3571 -2.3054  0.1250
   97MOL0     H13038   4.330   6.285   3.166 -0.5851  0.1227  0.1570
   97MOL0     H13039   4.421   6.312   3.314  0.2175  2.8866 -0.3806
   97MOL0     H13040   4.129   6.257   3.345  0.2138  1.0753 -0.1671
   97MOL0     H13041   4.247   6.119   3.325  1.4086  0.6887  0.0805
   97MOL0     H13042   4.387   6.192   3.509  0.6538  0.4179  1.2692
   97MOL0     H13043   4.276   6.306   3.564 -0.0168 -1.1174 -0.8554
   97MOL0     H13044   4.228   6.009   3.564 -3.5296 -1.5353 -0.8809
   97MOL0     H13045   4.098   6.120   3.552 -0.7268  3.7223  1.3546
   97MOL0     H13046   4.043   6.027   3.795 -1.5087  0.6267  2.2439
   97MOL0     H13047   4.146   6.146   4.145  3.1535 -1.4420 -1.2186
   97MOL0     H13048   3.995   6.101   4.058 -0.8578 -0.8967 -0.0845
   97MOL0     H13049   4.207   5.887   4.098 -0.6968 -0.7101  1.8728
   97MOL0     H13050   4.054   5.860   4.029  2.0472  0.5484 -3.0075
   97MOL0     H13051   3.957   5.959   4.260  1.2000  0.1134  1.2044
   97MOL0     H13052   4.135   5.927   4.298  2.0709  0.1192 -2.5364
   97MOL0     H13053   3.910   5.746   4.196  0.6235 -0.8943 -0.4446
   97MOL0     H13054   3.959   5.741   4.366 -2.5178 -0.9841 -0.5698
   97MOL0     H13055   4.235   5.471   4.347  0.5960  1.1248 -0.3850
   97MOL0     H13056   4.184   5.181   4.488  0.3727 -2.3934 -0.4705
   97MOL0     H13057   4.231   5.122   4.331  2.7933 -0.6477  3.0911
   97MOL0     H13058   4.307   5.258   4.375  1.5759 -2.6309  1.8432
   97MOL0     H13059   3.732   4.854   4.253 -2.0095 -3.1592  0.9835
   97MOL0     H13060   3.734   4.675   4.414  0.0140 -1.4338  2.4793
   97MOL0     H13061   3.760   4.713   4.870 -1.0664  0.3520  0.2159
   97MOL0     H13062   3.590   4.762   4.824 -2.7586 -2.9327  0.0618
   97MOL0     H13063   3.657   4.544   4.976  2.8248  2.2335 -0.5467
   97MOL0     H13064   3.504   4.587   4.875 -0.5391 -0.1897 -3.1304
   97MOL0     H13065   3.625   4.451   4.690 -0.4165  4.9915  1.4067
   97MOL0     H13066   3.544   4.373   4.832  0.9946  0.5250  3.6626
   97MOL0     H13067   3.741   4.337   4.947 -1.6972 -2.4133 -0.3733
   97MOL0     H13068   3.743   4.257   4.791 -2.4934  1.2159 -0.1760
   97MOL0     H13069   3.887   4.522   4.834 -1.8183  0.8023 -0.2156
   97MOL0     H13070   3.873   4.425   4.685  2.2846  0.5586 -0.0323
   97MOL0     H13071   3.969   4.229   4.817 -2.0972  1.8747 -0.7530
   97MOL0     H13072   4.090   4.342   4.777  1.2737 -5.9902 -0.6378
   97MOL0     H13073   3.929   4.407   5.028  1.5406  0.5076  3.2388
   97MOL0     H13074   4.103   4.423   4.995 -2.2630  2.2010 -1.7792
   97MOL0     H13075   3.973   4.144   5.025  2.6364 -1.3416 -1.9713
   97MOL0     H13076   4.009   4.233   5.174  1.2862 -2.6883 -0.7183
   97MOL0     H13077   3.717   4.954   4.743 -1.3392 -0.3130 -0.3433
   97MOL0     H13078   3.743   5.126   4.586  0.5461  0.1200 -0.7365
   97MOL0     H13079   3.777   5.331   4.252  0.0030 -1.6674 -0.0686
   97MOL0     H13080   3.831   5.538   4.191  0.8833  1.2057 -0.7280
   97MOL0     H13081   4.671   6.673   2.841 -1.6103 -0.1233  2.4362
   97MOL0     H13082   4.777   6.850   2.699  0.6145  0.5497  0.3275
   97MOL0     H13083   4.734   7.231   2.562  0.6042 -0.2530  0.8699
   97MOL0     H13084   4.769   7.424   2.385  0.8550  1.3981 -1.5063
   97MOL0     H13085   4.853   7.513   2.185 -0.2875  1.5375 -2.2645
   97MOL0     H13086   4.823   7.643   2.304 -0.5599 -1.2389 -0.7776
   97MOL0     H13087   5.028   7.612   2.096  0.7129 -1.6046  1.6744
   97MOL0     H13088   5.012   7.776   2.170 -2.2123 -0.4566  2.0282
   97MOL0     H13089   4.756   7.754   2.110 -1.3096 -0.6511 -1.5495
   97MOL0     H13090   4.804   7.631   1.999 -0.7840  1.0245 -0.3216
   97MOL0     H13091   4.973   7.816   1.894  1.0531  0.6161  0.9149
   97MOL0     H13092   4.910   7.920   2.021 -0.2494 -0.7548  0.4508
   97MOL0     H13093   4.593   7.903   1.736 -1.2247  2.4336 -0.5691
   97MOL0     H13094   5.194   7.377   2.475 -0.2291 -0.6839  3.3943
   97MOL0     H13095   5.137   7.208   2.640 -1.6495  0.1242  2.1992
   98MOL0     O13096   0.282   5.160  10.965  0.7497 -0.7351 -0.1088
   98MOL0     C13097   0.226   5.050  10.932  0.0679 -0.3074 -0.4243
   98MOL0     O13098   0.290   4.951  10.856  0.1937  0.5252 -0.8793
   98MOL0     C13099   0.423   4.973  10.842 -0.0273 -0.5432  0.0951
   98MOL0     C13100   0.508   4.927  10.939  0.4566 -0.3040  0.3862
   98MOL0     C13101   0.646   4.942  10.926 -0.2510  0.3337 -0.3706
   98MOL0     C13102   0.701   5.017  10.826  0.4216 -0.5837 -0.3714
   98MOL0     O13103   0.841   5.038  10.815  0.0303 -0.0128 -0.1460
   98MOL0     C13104   0.926   4.987  10.915  0.5396  0.5671  0.6034
   98MOL0     C13105   1.063   5.038  10.864  0.8950  1.0399  0.2300
   98MOL0     C13106   1.096   5.175  10.917  0.0798 -0.4693  1.0847
   98MOL0     C13107   1.221   5.243  10.858 -0.2436  0.3198  0.1032
   98MOL0     C13108   1.251   5.385  10.911  1.4555 -0.0149 -0.8730
   98MOL0     C13109   1.382   5.422  10.866 -0.8720 -0.7208 -0.0747
   98MOL0     C13110   1.496   5.388  10.963  0.5558 -0.4653 -0.0450
   98MOL0     C13111   1.644   5.404  10.904 -0.5364 -0.3216  0.1343
   98MOL0     N13112   1.674   5.542  10.852  0.5212  0.1528  0.3700
   98MOL0     C13113   1.663   5.589  10.730  0.9143  0.1060  0.9553
   98MOL0     C13114   1.679   5.731  10.744 -0.4284  0.1369 -0.0745
   98MOL0     C13115   1.682   5.843  10.646 -0.6092 -0.4462  0.2159
   98MOL0     C13116   1.562   5.843  10.559 -0.3301 -0.3837 -0.2184
   98MOL0     C13117   1.426   5.881  10.623  0.3626  0.3284  0.3718
   98MOL0     C13118   1.304   5.852  10.540  0.0195  0.0930  0.0745
   98MOL0     O13119   1.284   5.705  10.541 -0.7721 -0.3483  0.6630
   98MOL0     C13120   1.160   5.653  10.514 -0.0694  0.4581 -1.0650
   98MOL0     C13121   1.102   5.566  10.597 -0.2069 -0.1510 -0.8509
   98MOL0     C13122   0.974   5.510  10.581  0.5782  0.8870  0.9174
   98MOL0     C13123   0.906   5.414  10.672  0.4079  0.9970 -0.8011
   98MOL0     C13124   0.898   5.541  10.464 -1.0240 -0.5925 -0.4067
   98MOL0     C13125   0.769   5.496  10.418 -0.1336 -0.7543  0.3275
   98MOL0     O13126   0.686   5.595  10.372 -0.4246 -0.6718 -0.0725
   98MOL0     C13127   0.556   5.568  10.316 -0.4315 -0.6263  0.4931
   98MOL0     C13128   0.525   5.650  10.211 -0.0494  0.2689  0.0855
   98MOL0     C13129   0.409   5.643  10.146 -0.0460 -0.5212 -0.4355
   98MOL0     C13130   0.318   5.541  10.178  0.3288  0.4346 -0.0120
   98MOL0     O13131   0.211   5.547  10.096  0.8776  0.1073 -0.0090
   98MOL0     C13132   0.126   5.434  10.098  0.0906  0.3516 -0.5127
   98MOL0     C13133  -0.009   5.468  10.048  0.2557 -1.1793  0.4556
   98MOL0     C13134  -0.083   5.564  10.136  0.5413  0.1552 -0.3062
   98MOL0     C13135  -0.140   5.511  10.272 -0.0807  0.1445 -0.0140
   98MOL0     C13136  -0.246   5.599  10.328 -0.6465  0.7482 -0.1720
   98MOL0     C13137  -0.183   5.676  10.436  0.4206  0.0692 -0.9238
   98MOL0     C13138  -0.287   5.775  10.497  0.3331  0.1351 -0.0797
   98MOL0     C13139  -0.242   5.830  10.633 -0.4537  0.3116 -0.2343
   98MOL0    Cl13140  -0.349   5.958  10.660 -0.1862  0.5101 -0.0581
   98MOL0     C13141   0.347   5.458  10.288 -0.5117  0.9616  0.0525
   98MOL0     C13142   0.467   5.473  10.361 -1.3700  0.2687  0.1721
   98MOL0     O13143   0.752   5.376  10.402 -0.3314 -0.5992 -0.0196
   98MOL0     C13144   0.957   5.638  10.381 -0.1850  0.4167  0.0836
   98MOL0     C13145   1.089   5.686  10.402  0.3627  0.0668 -0.0537
   98MOL0     N13146   1.699   5.750  10.880 -0.1993 -0.0582 -0.7503
   98MOL0     N13147   1.697   5.631  10.941 -0.3463  0.1376  0.7198
   98MOL0     C13148   0.618   5.080  10.733 -0.2150 -0.0695  0.6987
   98MOL0     C13149   0.480   5.059  10.736  0.4432 -0.5011 -0.6369
   98MOL0     C13150   0.090   5.022  10.971  0.2115  0.0512  0.3912
   98MOL0     C13151   0.006   5.129  11.012 -0.7189 -0.1022  0.5448
   98MOL0     C13152  -0.128   5.106  11.034  0.1708  0.1756 -1.1366
   98MOL0     C13153  -0.187   4.982  11.016  0.1767 -0.0092 -0.4940
   98MOL0     O13154  -0.322   4.967  11.051  0.1116  0.0995  0.5128
   98MOL0     C13155  -0.393   4.867  10.978  1.0604 -0.4378 -0.4504
   98MOL0     C13156  -0.422   4.751  11.077  0.9438  0.2657  0.0792
   98MOL0     C13157  -0.516   4.647  11.011  0.5654 -0.1090  1.1261
   98MOL0     C13158  -0.635   4.598  11.088 -0.4475  0.9001 -0.5565
   98MOL0     C13159  -0.588   4.550  11.220 -0.1033 -0.6867  0.0536
   98MOL0     C13160  -0.573   4.526  11.336 -0.6906  0.6401  0.2431
   98MOL0     C13161  -0.109   4.882  10.978  0.3824  0.2974  0.0904
   98MOL0     C13162   0.029   4.893  10.954 -0.7169 -0.6984 -0.2308
   98MOL0     H13163   0.453   4.867  11.011  2.8570 -3.2895 -0.0724
   98MOL0     H13164   0.705   4.907  11.011  0.3581  0.7609 -0.6089
   98MOL0     H13165   0.891   5.031  11.010 -2.2194 -3.3339  1.6206
   98MOL0     H13166   0.914   4.879  10.920  3.5400  0.0616 -0.9038
   98MOL0     H13167   1.137   4.967  10.903 -0.5232 -0.3116  0.5608
   98MOL0     H13168   1.067   5.028  10.755  0.9160  0.5797  0.2707
   98MOL0     H13169   1.006   5.233  10.896  0.4162 -0.9011 -2.0539
   98MOL0     H13170   1.100   5.171  11.026  1.6780  3.0050  1.2731
   98MOL0     H13171   1.309   5.179  10.873 -1.0009 -0.7932 -0.1459
   98MOL0     H13172   1.211   5.248  10.749  2.8508 -1.1984 -0.3722
   98MOL0     H13173   1.169   5.450  10.879 -0.0267  0.0580  2.6486
   98MOL0     H13174   1.245   5.391  11.020 -1.3889  2.4857 -1.0242
   98MOL0     H13175   1.384   5.369  10.770 -1.6133  2.5793 -2.0776
   98MOL0     H13176   1.384   5.531  10.860 -0.6631 -0.7862 -1.4924
   98MOL0     H13177   1.476   5.446  11.053 -3.4712 -0.0716 -0.9744
   98MOL0     H13178   1.491   5.283  10.996  3.0428  0.1673  2.7187
   98MOL0     H13179   1.655   5.334  10.821  0.0115 -0.2696  0.1635
   98MOL0     H13180   1.722   5.386  10.979 -0.4011  1.9325  0.6249
   98MOL0     H13181   1.644   5.534  10.639  0.6570  2.4477 -0.4566
   98MOL0     H13182   1.699   5.939  10.697 -0.0710  0.6693 -1.9159
   98MOL0     H13183   1.773   5.819  10.591  2.6107 -0.0777  4.8904
   98MOL0     H13184   1.548   5.747  10.507 -0.0077 -0.0697 -0.8902
   98MOL0     H13185   1.584   5.921  10.486 -0.9903 -1.8531 -2.0678
   98MOL0     H13186   1.429   5.988  10.645  2.4147  0.0363  1.8003
   98MOL0     H13187   1.416   5.833  10.721 -2.1561  0.0780  0.0509
   98MOL0     H13188   1.310   5.881  10.435 -1.0276 -5.2923 -1.7622
   98MOL0     H13189   1.227   5.913  10.590  0.3549 -0.1213  0.8733
   98MOL0     H13190   1.167   5.551  10.682 -0.9699  1.8407  0.1375
   98MOL0     H13191   0.937   5.311  10.650  1.4107  0.6668  1.8184
   98MOL0     H13192   0.939   5.436  10.773 -2.6262 -5.8607  2.3651
   98MOL0     H13193   0.796   5.415  10.678  0.4654  0.6963  0.5249
   98MOL0     H13194   0.579   5.742  10.196 -2.1616  2.5611  4.5623
   98MOL0     H13195   0.374   5.722  10.080 -2.8243 -2.7090 -1.7646
   98MOL0     H13196   0.171   5.360  10.031  1.3595  0.8275 -0.2166
   98MOL0     H13197   0.107   5.383  10.192 -2.0397  0.2042 -0.9609
   98MOL0     H13198   0.002   5.509   9.947 -2.9727 -1.7416 -0.2280
   98MOL0     H13199  -0.073   5.380  10.042 -0.7177 -0.3916 -1.6868
   98MOL0     H13200  -0.165   5.598  10.073 -0.8801 -0.8887  0.9002
   98MOL0     H13201  -0.022   5.649  10.168 -2.2529  2.6136 -1.0339
   98MOL0     H13202  -0.184   5.412  10.259  2.7127 -1.3747  1.3565
   98MOL0     H13203  -0.049   5.497  10.331 -0.7243  0.8019  1.1573
   98MOL0     H13204  -0.334   5.544  10.362  2.1260 -1.2818  4.7915
   98MOL0     H13205  -0.263   5.676  10.252  0.7598  0.5692 -0.6806
   98MOL0     H13206  -0.137   5.604  10.505 -3.2044 -3.6823 -1.9650
   98MOL0     H13207  -0.103   5.732  10.387  0.1463 -0.1152 -1.5927
   98MOL0     H13208  -0.386   5.730  10.511  0.3866  0.6437  2.3621
   98MOL0     H13209  -0.303   5.865  10.437  2.6457  1.3536  1.0137
   98MOL0     H13210  -0.142   5.874  10.630  0.1340 -0.9484  0.3529
   98MOL0     H13211  -0.248   5.739  10.694 -1.0280 -3.4814 -5.2809
   98MOL0     H13212   0.291   5.367  10.310 -0.0059  0.1331 -1.8567
   98MOL0     H13213   0.493   5.407  10.444  0.3859 -0.6691 -1.0717
   98MOL0     H13214   0.905   5.681  10.297  2.4744  0.3367 -1.7276
   98MOL0     H13215   1.132   5.757  10.332  3.0260 -1.5895 -0.2287
   98MOL0     H13216   0.662   5.152  10.665 -1.6977  0.5666  0.3679
   98MOL0     H13217   0.414   5.108  10.664  1.7636  2.5428  0.0625
   98MOL0     H13218   0.039   5.232  11.014  1.1472 -0.5415 -2.2595
   98MOL0     H13219  -0.195   5.181  11.076  2.6894  0.9235  1.9757
   98MOL0     H13220  -0.485   4.915  10.943  1.6142 -1.4210 -3.5545
   98MOL0     H13221  -0.351   4.828  10.885 -0.5123 -1.5162 -0.7463
   98MOL0     H13222  -0.465   4.796  11.166  2.4411 -2.0857  2.1266
   98MOL0     H13223  -0.331   4.700  11.112 -1.3490 -2.6552  2.2884
   98MOL0     H13224  -0.455   4.563  10.977  1.2144  0.3569  1.1284
   98MOL0     H13225  -0.572   4.698  10.932  0.0632 -1.1618  0.7751
   98MOL0     H13226  -0.676   4.518  11.026 -0.9474  0.8685 -0.1931
   98MOL0     H13227  -0.708   4.679  11.098  2.9402  4.0985  0.4020
   98MOL0     H13228  -0.549   4.513  11.440  1.1529 -4.0225 -0.4920
   98MOL0     H13229  -0.142   4.779  10.965  1.7127 -0.2600  0.9477
   98MOL0     H13230   0.077   4.801  10.922  0.8380 -0.2633  0.7169
   99MOL0     O13231   7.654  10.545   4.769 -1.3018 -0.7032  0.4561
   99MOL0     C13232   7.564  10.466   4.739 -0.1514 -0.0559 -0.3757
   99MOL0     O13233   7.505  10.388   4.830 -0.1616 -0.1094 -0.5120
   99MOL0     C13234   7.561  10.354   4.951 -0.2522  0.9090 -0.3363
   99MOL0     C13235   7.704  10.342   4.987  0.2593 -0.9922 -0.2131
   99MOL0     C13236   7.730  10.278   5.112 -0.4372 -0.2887  0.9932
   99MOL0     C13237   7.626  10.228   5.198  0.2477  0.3888  0.4052
   99MOL0     O13238   7.662  10.167   5.315  0.3359  0.2297  0.0002
   99MOL0     C13239   7.686  10.023   5.321 -0.4655  0.2585 -0.1818
   99MOL0     C13240   7.794   9.968   5.421 -0.9555  0.8802 -0.9488
   99MOL0     C13241   7.931  10.047   5.409  0.2451 -0.2020 -1.3145
   99MOL0     C13242   8.032  10.018   5.517 -0.0340  0.0777 -0.4089
   99MOL0     C13243   8.104   9.878   5.502  0.9235 -0.8283 -0.1562
   99MOL0     C13244   8.221   9.873   5.596  0.4470 -0.9128  0.5403
   99MOL0     C13245   8.306   9.751   5.562  0.3195  1.1277  0.6188
   99MOL0     C13246   8.401   9.713   5.672 -0.3414 -0.0035  0.0626
   99MOL0     N13247   8.344   9.726   5.805  0.1641  0.0629  0.6133
   99MOL0     C13248   8.227   9.663   5.832 -0.9358 -0.1931  0.5511
   99MOL0     C13249   8.209   9.689   5.961  0.2034  0.6756 -0.2497
   99MOL0     C13250   8.093   9.631   6.046  0.0835 -0.3665 -0.7205
   99MOL0     C13251   8.099   9.481   6.072  0.1304 -0.8022  0.3768
   99MOL0     C13252   8.200   9.447   6.184  0.7442  0.1853 -0.2754
   99MOL0     C13253   8.246   9.302   6.197 -0.7713 -0.1879 -0.9018
   99MOL0     O13254   8.142   9.214   6.251 -0.0509 -0.7700  0.0627
   99MOL0     C13255   8.067   9.155   6.149 -0.0453 -0.3322 -0.4808
   99MOL0     C13256   7.932   9.181   6.128  0.0516 -0.6440  0.2108
   99MOL0     C13257   7.871   9.108   6.023  0.4056 -0.0749  0.3802
   99MOL0     C13258   7.726   9.126   6.004  0.0679 -0.1228  0.4349
   99MOL0     C13259   7.939   9.019   5.932 -0.5954  0.1414  0.2176
   99MOL0     C13260   7.887   8.971   5.801  0.8332 -0.1715 -0.2985
   99MOL0     O13261   7.962   8.882   5.738 -0.2287 -0.1479  0.2913
   99MOL0     C13262   7.917   8.833   5.611 -0.0307  1.0196  0.1973
   99MOL0     C13263   8.006   8.860   5.506  0.5764  0.7732  0.1724
   99MOL0     C13264   7.985   8.796   5.377  0.2014  0.0314  0.2201
   99MOL0     C13265   7.875   8.704   5.373  0.5229  1.2553  1.1206
   99MOL0     O13266   7.840   8.640   5.246  0.0711  0.2608 -1.4298
   99MOL0     C13267   7.909   8.683   5.132  0.0633 -1.0130  0.4467
   99MOL0     C13268   7.848   8.626   5.004 -0.5256  0.6817 -0.2225
   99MOL0     C13269   7.699   8.656   4.977  0.5560  0.8494 -0.1096
   99MOL0     C13270   7.658   8.802   4.967 -0.5673 -0.1795 -0.4065
   99MOL0     C13271   7.499   8.824   4.928 -0.7854 -0.2881  0.8438
   99MOL0     C13272   7.445   8.963   4.960 -0.4895 -0.5093  0.1195
   99MOL0     C13273   7.529   9.071   4.888  0.3827 -1.0178  0.4581
   99MOL0     C13274   7.461   9.214   4.908 -0.0858  0.1617  0.1771
   99MOL0    Cl13275   7.562   9.342   4.832 -0.0025 -0.2685 -0.2267
   99MOL0     C13276   7.784   8.680   5.478  0.6673 -1.0091  1.0656
   99MOL0     C13277   7.810   8.747   5.596  0.4108 -0.6659  0.1882
   99MOL0     O13278   7.779   9.017   5.757 -0.0319 -0.3927 -0.1714
   99MOL0     C13279   8.078   9.003   5.959 -0.3703 -0.2688  1.8096
   99MOL0     C13280   8.138   9.075   6.067  0.5735  0.1460  0.2637
   99MOL0     N13281   8.321   9.755   6.013  0.6889 -0.0157 -1.1933
   99MOL0     N13282   8.399   9.780   5.920 -1.6020  0.6722 -0.6637
   99MOL0     C13283   7.500  10.242   5.169  0.6168  0.3252  0.9640
   99MOL0     C13284   7.468  10.296   5.045 -0.1615  0.4136  0.2805
   99MOL0     C13285   7.511  10.450   4.606  0.3393  0.0338  1.1756
   99MOL0     C13286   7.378  10.401   4.586  0.0525  0.0993 -0.9144
   99MOL0     C13287   7.334  10.363   4.458 -0.8890 -0.2380  0.1096
   99MOL0     C13288   7.419  10.381   4.346 -0.5833 -0.4185  0.3414
   99MOL0     O13289   7.375  10.357   4.218  0.2234  0.8893 -0.0136
   99MOL0     C13290   7.466  10.338   4.108  0.6045  0.4742 -0.7478
   99MOL0     C13291   7.547  10.215   4.117  0.3345 -0.0120  0.2307
   99MOL0     C13292   7.593  10.159   3.977  0.4708  0.2660  0.9160
   99MOL0     C13293   7.654  10.017   3.994  0.4573 -1.1513  0.5308
   99MOL0     C13294   7.788  10.020   4.044 -0.6612  0.5464  0.0310
   99MOL0     C13295   7.901  10.015   4.092  0.1862  0.3079  0.7833
   99MOL0     C13296   7.547  10.442   4.362 -0.0298  0.1024  0.1573
   99MOL0     C13297   7.592  10.472   4.491 -0.2142  0.0046 -0.6125
   99MOL0     H13298   7.787  10.377   4.927 -0.8043  0.6446 -0.8048
   99MOL0     H13299   7.837  10.265   5.131 -0.3025  2.0131  2.2764
   99MOL0     H13300   7.594   9.971   5.348  0.2056 -0.3022  1.0993
   99MOL0     H13301   7.722   9.984   5.225  0.7109 -1.2108  0.8091
   99MOL0     H13302   7.749   9.962   5.520  0.3750 -3.6202 -0.4000
   99MOL0     H13303   7.813   9.862   5.403  1.0752  1.0015  0.2004
   99MOL0     H13304   7.973  10.032   5.309 -0.2761  0.5128 -1.6419
   99MOL0     H13305   7.916  10.153   5.429  1.4568 -0.2420  0.0482
   99MOL0     H13306   8.113  10.091   5.506  1.6263 -1.3286  1.6534
   99MOL0     H13307   7.988  10.036   5.615  0.1449  2.5282 -0.7149
   99MOL0     H13308   8.036   9.795   5.524  0.5023 -0.3274  0.4818
   99MOL0     H13309   8.152   9.873   5.404 -2.1199 -1.8511 -1.7077
   99MOL0     H13310   8.278   9.965   5.580 -2.5834  1.0904  0.5164
   99MOL0     H13311   8.173   9.877   5.694 -3.7510 -2.6255 -1.2401
   99MOL0     H13312   8.233   9.672   5.540  2.2570 -0.2256 -1.4678
   99MOL0     H13313   8.359   9.768   5.468  0.0532  0.5292  0.3537
   99MOL0     H13314   8.491   9.773   5.663  0.1665 -1.0339 -2.6028
   99MOL0     H13315   8.429   9.607   5.663  0.3187  0.2568 -1.0382
   99MOL0     H13316   8.170   9.599   5.765  3.6447 -1.7016 -2.3930
   99MOL0     H13317   8.084   9.689   6.138 -0.3850 -0.6728 -0.5711
   99MOL0     H13318   7.997   9.664   6.003 -0.8709  0.2573  1.7018
   99MOL0     H13319   8.122   9.427   5.980 -3.4587  0.8603 -1.6885
   99MOL0     H13320   7.993   9.460   6.090  0.0263  0.4698  1.4519
   99MOL0     H13321   8.166   9.498   6.274  1.6442 -0.1299  0.2530
   99MOL0     H13322   8.288   9.506   6.156  2.8332 -2.0483  1.2157
   99MOL0     H13323   8.328   9.303   6.270  1.6491 -0.4342 -3.4593
   99MOL0     H13324   8.282   9.265   6.100  1.5394  0.1088 -0.2377
   99MOL0     H13325   7.873   9.251   6.186  0.4873  1.7090 -2.0407
   99MOL0     H13326   7.672   9.033   5.987  0.7938 -1.0936  2.9181
   99MOL0     H13327   7.689   9.168   6.099 -0.5419 -0.7616  0.4869
   99MOL0     H13328   7.709   9.198   5.923  1.1991 -1.0715 -0.6673
   99MOL0     H13329   8.090   8.923   5.532  2.8522 -1.2070 -1.8764
   99MOL0     H13330   8.051   8.835   5.300  1.5396 -2.4726  0.0030
   99MOL0     H13331   7.913   8.792   5.128 -1.2019 -0.9714 -0.0915
   99MOL0     H13332   8.010   8.646   5.147  0.9388  1.1251  0.1380
   99MOL0     H13333   7.909   8.667   4.922  1.4349  1.6263  1.6110
   99MOL0     H13334   7.858   8.518   5.019 -0.1949  0.6928 -0.3469
   99MOL0     H13335   7.639   8.611   5.057  0.2305  1.0498 -0.2351
   99MOL0     H13336   7.683   8.599   4.885  3.8102 -1.8585  0.8065
   99MOL0     H13337   7.674   8.844   5.066 -1.1744 -0.1118 -0.3320
   99MOL0     H13338   7.728   8.851   4.898 -2.5129  2.4224 -0.6916
   99MOL0     H13339   7.440   8.758   4.992  0.0147  2.0940  4.3362
   99MOL0     H13340   7.477   8.786   4.827 -0.8847 -1.1780  1.1890
   99MOL0     H13341   7.344   8.973   4.920 -0.7518 -1.7147  0.4445
   99MOL0     H13342   7.464   8.969   5.068  3.0144  2.1808 -0.4638
   99MOL0     H13343   7.528   9.034   4.785  0.2941  1.4061 -0.4749
   99MOL0     H13344   7.633   9.057   4.922 -0.2204 -0.9513  2.4816
   99MOL0     H13345   7.439   9.239   5.012  0.4548  1.9060 -0.0885
   99MOL0     H13346   7.365   9.215   4.854  2.0788  3.7548 -4.3478
   99MOL0     H13347   7.691   8.630   5.454  0.1524  1.0091 -1.5664
   99MOL0     H13348   7.731   8.740   5.671 -1.1237  4.2787 -0.6430
   99MOL0     H13349   8.145   8.953   5.889  1.5558  0.4283  3.0594
   99MOL0     H13350   8.245   9.063   6.081  0.6809  1.1158  0.3560
   99MOL0     H13351   7.416  10.208   5.229  0.2328  0.5949  0.5854
   99MOL0     H13352   7.361  10.289   5.024 -0.1834 -0.6689  0.6558
   99MOL0     H13353   7.314  10.401   4.673  2.8628  1.1221  1.2996
   99MOL0     H13354   7.230  10.333   4.456 -0.6917 -1.1490  1.6073
   99MOL0     H13355   7.393  10.322   4.028  0.1724 -1.8644  0.0524
   99MOL0     H13356   7.538  10.416   4.079  0.1208  1.1699 -0.1167
   99MOL0     H13357   7.492  10.137   4.170  0.6916 -0.6464 -0.3266
   99MOL0     H13358   7.629  10.246   4.183 -2.7974  1.8676  3.5931
   99MOL0     H13359   7.667  10.225   3.932 -0.7770  1.7439  0.9577
   99MOL0     H13360   7.516  10.157   3.900  0.8046 -0.9004  0.5908
   99MOL0     H13361   7.651   9.962   3.899 -4.5464 -1.6071  0.6820
   99MOL0     H13362   7.593   9.962   4.065 -0.4843 -0.1755  0.5007
   99MOL0     H13363   7.995  10.004   4.143  0.2826 -0.6498  0.4099
   99MOL0     H13364   7.610  10.458   4.274 -2.0411 -4.3731 -2.4416
   99MOL0     H13365   7.695  10.503   4.498  0.4731 -1.9163 -1.6235
  100MOL0     O13366   0.227   6.001   1.724 -0.3959  0.1222 -0.3979
  100MOL0     C13367   0.264   5.889   1.694  0.6902  0.3053  0.1387
  100MOL0     O13368   0.209   5.777   1.741 -0.4233  0.0581  0.0047
  100MOL0     C13369   0.098   5.794   1.824 -0.9538 -0.3201  0.1637
  100MOL0     C13370  -0.024   5.785   1.761 -0.4676 -0.7910  0.5523
  100MOL0     C13371  -0.141   5.810   1.833 -0.6733  0.2071 -0.6025
  100MOL0     C13372  -0.144   5.819   1.976  0.3143  1.1564  0.8337
  100MOL0     O13373  -0.245   5.861   2.052  0.9416 -0.4330 -0.2361
  100MOL0     C13374  -0.335   5.754   2.099 -0.9671 -0.8268 -0.2696
  100MOL0     C13375  -0.464   5.811   2.167 -0.1237 -0.4136  0.2696
  100MOL0     C13376  -0.496   5.734   2.295  0.1273  0.4017 -0.7034
  100MOL0     C13377  -0.636   5.777   2.353  0.0679  0.0550  0.3285
  100MOL0     C13378  -0.698   5.677   2.449  0.1277 -0.6173 -0.2390
  100MOL0     C13379  -0.759   5.557   2.371 -0.6518 -0.3812 -0.2405
  100MOL0     C13380  -0.792   5.439   2.452  0.1164  0.2451 -0.2784
  100MOL0     C13381  -0.671   5.363   2.513  1.0912  0.6952  0.6406
  100MOL0     N13382  -0.731   5.259   2.605  0.0467 -0.3659  0.6476
  100MOL0     C13383  -0.776   5.134   2.570  0.3451  0.0271  0.0251
  100MOL0     C13384  -0.816   5.080   2.690 -0.3220  0.2258 -0.1298
  100MOL0     C13385  -0.876   4.946   2.730  0.2136 -0.2481  0.4149
  100MOL0     C13386  -1.028   4.974   2.778 -0.9728 -0.3485  0.0213
  100MOL0     C13387  -1.104   4.845   2.789  0.3528 -0.2025 -0.8567
  100MOL0     C13388  -1.038   4.747   2.886 -0.2131 -0.2612  0.5290
  100MOL0     O13389  -1.027   4.794   3.019 -0.3226  0.8194 -0.6033
  100MOL0     C13390  -0.993   4.700   3.115  0.5740  0.0389  0.0376
  100MOL0     C13391  -1.078   4.595   3.156  1.4840  0.6831 -0.0780
  100MOL0     C13392  -1.036   4.489   3.240  0.1722 -0.2441 -0.0005
  100MOL0     C13393  -1.135   4.384   3.278  0.6509 -0.1825 -0.2657
  100MOL0     C13394  -0.903   4.489   3.284 -0.7336 -0.9312  0.2654
  100MOL0     C13395  -0.844   4.384   3.378  0.0937  0.2421 -0.4052
  100MOL0     O13396  -0.730   4.418   3.438  0.5736  0.3454 -0.2916
  100MOL0     C13397  -0.679   4.329   3.532  0.0255 -0.4240 -0.3317
  100MOL0     C13398  -0.659   4.378   3.666  0.7372  0.1666 -0.7067
  100MOL0     C13399  -0.613   4.303   3.770 -0.7033  0.5154 -0.7956
  100MOL0     C13400  -0.568   4.174   3.751 -0.7449 -0.1476 -0.4123
  100MOL0     O13401  -0.511   4.111   3.851 -0.0385  0.3534 -0.0870
  100MOL0     C13402  -0.390   4.186   3.892 -0.2174 -0.0295  0.0741
  100MOL0     C13403  -0.314   4.108   3.995  0.0012  0.5296 -0.0428
  100MOL0     C13404  -0.291   3.952   3.970 -0.2958 -0.7232 -0.1987
  100MOL0     C13405  -0.192   3.886   4.079 -1.0308 -0.3990  0.8150
  100MOL0     C13406  -0.247   3.888   4.212 -0.9248 -1.1344  0.8178
  100MOL0     C13407  -0.140   3.840   4.313  0.0873 -0.1014 -0.2194
  100MOL0     C13408  -0.150   3.875   4.470  0.3537 -0.0432 -0.1029
  100MOL0     C13409  -0.276   3.799   4.520 -0.3791  0.5443 -0.4624
  100MOL0    Cl13410  -0.268   3.626   4.468  0.2117  0.4994 -0.2276
  100MOL0     C13411  -0.588   4.116   3.623 -0.3223 -0.1360  0.6031
  100MOL0     C13412  -0.633   4.197   3.510 -0.0848  1.1569  0.1217
  100MOL0     O13413  -0.906   4.277   3.397  0.0863 -0.2776 -0.1996
  100MOL0     C13414  -0.815   4.600   3.253 -0.2392  0.6017 -0.5699
  100MOL0     C13415  -0.865   4.706   3.169  0.1037 -0.1870 -0.1047
  100MOL0     N13416  -0.783   5.171   2.787 -0.4626  0.1220  0.8404
  100MOL0     N13417  -0.735   5.277   2.735 -0.9598 -0.0076 -0.3439
  100MOL0     C13418  -0.025   5.808   2.036 -0.1676 -0.0951  1.1490
  100MOL0     C13419   0.096   5.803   1.958  0.6654  0.3201 -0.5445
  100MOL0     C13420   0.372   5.867   1.600  0.3198  0.2301  0.0241
  100MOL0     C13421   0.422   5.737   1.585 -0.3575 -0.2878  0.3943
  100MOL0     C13422   0.544   5.721   1.528 -1.8228 -0.0048  1.1186
  100MOL0     C13423   0.602   5.820   1.442 -0.1107 -0.3612  0.6909
  100MOL0     O13424   0.723   5.809   1.380 -0.2342  0.1704 -0.0976
  100MOL0     C13425   0.771   5.672   1.369  0.2116 -0.0304 -0.2157
  100MOL0     C13426   0.916   5.668   1.322 -0.3775  0.3775  0.0916
  100MOL0     C13427   1.027   5.682   1.429 -0.2330 -0.3292 -0.3914
  100MOL0     C13428   1.169   5.681   1.383  0.4347  0.8079  0.4514
  100MOL0     C13429   1.258   5.709   1.491 -0.0279 -0.5195  0.4063
  100MOL0     C13430   1.310   5.732   1.599 -0.0942  0.6872 -0.6910
  100MOL0     C13431   0.543   5.943   1.448  0.8999 -0.7807  0.4142
  100MOL0     C13432   0.434   5.970   1.536 -0.5306 -0.1362 -0.1477
  100MOL0     H13433  -0.028   5.781   1.653 -3.6424  4.4548  0.0864
  100MOL0     H13434  -0.234   5.825   1.778 -2.4206 -0.1458  2.0536
  100MOL0     H13435  -0.363   5.691   2.013  1.0738  1.3027 -2.6650
  100MOL0     H13436  -0.286   5.692   2.175  1.6435 -0.5181 -1.5870
  100MOL0     H13437  -0.442   5.918   2.176  1.3068 -0.4169 -2.3943
  100MOL0     H13438  -0.543   5.814   2.092  1.6380  1.9878 -1.6763
  100MOL0     H13439  -0.494   5.625   2.283 -1.6720  0.1385  0.8328
  100MOL0     H13440  -0.412   5.762   2.360 -0.0268 -1.0174  0.1408
  100MOL0     H13441  -0.632   5.870   2.410 -1.8222  1.1060 -1.1439
  100MOL0     H13442  -0.712   5.791   2.275 -2.9232  3.6504  3.4908
  100MOL0     H13443  -0.634   5.648   2.533 -1.2540 -0.7855  0.7762
  100MOL0     H13444  -0.782   5.722   2.502  0.6732 -0.5390  0.5689
  100MOL0     H13445  -0.842   5.595   2.311 -0.8427 -0.8820 -0.3038
  100MOL0     H13446  -0.690   5.515   2.297 -1.5573 -3.0818  0.3332
  100MOL0     H13447  -0.857   5.480   2.530 -0.0169  2.0729 -1.2848
  100MOL0     H13448  -0.846   5.373   2.385  2.8492  1.3756 -3.9176
  100MOL0     H13449  -0.607   5.432   2.568  2.4461 -1.9993  2.6929
  100MOL0     H13450  -0.607   5.317   2.437  2.6250 -0.2309  2.3950
  100MOL0     H13451  -0.787   5.099   2.468  0.5582 -2.8134  0.9088
  100MOL0     H13452  -0.878   4.873   2.649 -3.0533  1.2150 -0.9874
  100MOL0     H13453  -0.818   4.911   2.816  0.1007 -1.2034  0.1094
  100MOL0     H13454  -1.081   5.033   2.703 -2.1024 -1.5783 -0.1885
  100MOL0     H13455  -1.040   5.030   2.872 -0.0797 -0.8056  0.4271
  100MOL0     H13456  -1.113   4.800   2.690 -0.3749  0.5518 -1.1484
  100MOL0     H13457  -1.204   4.863   2.831  0.3296 -0.0989 -0.9556
  100MOL0     H13458  -0.935   4.743   2.850 -0.2386  0.5919  0.3397
  100MOL0     H13459  -1.095   4.654   2.881  1.8916 -1.5676 -2.6107
  100MOL0     H13460  -1.180   4.603   3.121  1.9472 -0.6556 -1.8982
  100MOL0     H13461  -1.141   4.369   3.387 -1.7776  1.3691 -0.0991
  100MOL0     H13462  -1.235   4.408   3.239  0.7769  2.4542  0.8260
  100MOL0     H13463  -1.109   4.285   3.241  2.5682 -0.9899  2.8500
  100MOL0     H13464  -0.693   4.476   3.698 -2.6321 -0.2148 -2.5921
  100MOL0     H13465  -0.606   4.361   3.861  3.0917 -1.4632  0.3527
  100MOL0     H13466  -0.329   4.190   3.801  1.2706 -0.8258  0.9847
  100MOL0     H13467  -0.414   4.279   3.943 -0.5896  0.5062 -1.0360
  100MOL0     H13468  -0.213   4.149   4.007 -0.4153  1.5238  0.1744
  100MOL0     H13469  -0.360   4.119   4.093  2.3020 -0.9354  1.2874
  100MOL0     H13470  -0.247   3.935   3.872  0.2962  1.5860 -0.3925
  100MOL0     H13471  -0.392   3.909   3.974 -1.8770  2.3105 -2.4030
  100MOL0     H13472  -0.183   3.779   4.060 -0.0020 -0.5416  1.9604
  100MOL0     H13473  -0.092   3.930   4.072 -0.3797 -1.7108  1.4858
  100MOL0     H13474  -0.335   3.824   4.207 -1.2918 -0.6326  0.8012
  100MOL0     H13475  -0.279   3.988   4.241  0.1886 -1.3920  3.2497
  100MOL0     H13476  -0.119   3.733   4.309 -0.6398 -0.3743  1.9195
  100MOL0     H13477  -0.049   3.887   4.272 -0.8348  0.7501 -1.3713
  100MOL0     H13478  -0.157   3.983   4.488 -1.2656  0.0339 -0.9944
  100MOL0     H13479  -0.060   3.840   4.519 -0.2193 -2.4465 -0.6402
  100MOL0     H13480  -0.365   3.839   4.469 -0.6092  1.5576  0.6803
  100MOL0     H13481  -0.300   3.807   4.626 -3.7234  1.5748 -1.1613
  100MOL0     H13482  -0.576   4.011   3.600 -1.1671 -0.1964  0.3950
  100MOL0     H13483  -0.635   4.155   3.411 -1.4386 -5.2177  2.3865
  100MOL0     H13484  -0.709   4.605   3.275  0.1007 -0.2597 -1.8720
  100MOL0     H13485  -0.791   4.781   3.144  0.8683 -1.3475 -1.4822
  100MOL0     H13486  -0.014   5.835   2.140  0.2712 -0.7690  1.2871
  100MOL0     H13487   0.190   5.797   2.012  0.8119 -1.6894 -0.9521
  100MOL0     H13488   0.382   5.647   1.631 -0.1788 -0.1197  0.8788
  100MOL0     H13489   0.579   5.619   1.527 -0.9640  0.2893  0.4596
  100MOL0     H13490   0.772   5.630   1.470 -2.9127  0.1315 -0.0276
  100MOL0     H13491   0.701   5.613   1.310 -1.2803 -0.2205  1.6592
  100MOL0     H13492   0.944   5.754   1.260  1.4707  0.3111  0.7535
  100MOL0     H13493   0.935   5.577   1.264  0.4508  0.7112 -0.1806
  100MOL0     H13494   1.016   5.593   1.493  1.4429 -1.8077 -2.0458
  100MOL0     H13495   0.999   5.768   1.490 -2.4380 -1.4385  0.2819
  100MOL0     H13496   1.189   5.758   1.307  2.6116 -0.3874 -0.2590
  100MOL0     H13497   1.184   5.578   1.350 -0.3865  0.4102  1.2651
  100MOL0     H13498   1.355   5.730   1.696  1.8633 -2.8314 -1.5071
  100MOL0     H13499   0.583   6.028   1.394 -0.1618 -1.1834 -1.0642
  100MOL0     H13500   0.401   6.072   1.551  0.9231  0.9129 -3.2607
  101MOL0     O13501   7.540   0.976   3.352 -0.3906 -0.1445 -0.4274
  101MOL0     C13502   7.579   0.870   3.306 -0.2506  0.9194 -0.3839
  101MOL0     O13503   7.506   0.758   3.311  0.3087 -0.5962 -0.2878
  101MOL0     C13504   7.424   0.723   3.419  0.7241 -0.2228  0.2258
  101MOL0     C13505   7.299   0.666   3.390 -0.7613  0.4253 -0.6966
  101MOL0     C13506   7.205   0.634   3.491  0.1039 -0.4901  0.0856
  101MOL0     C13507   7.224   0.679   3.622 -0.1780 -0.3742 -0.3940
  101MOL0     O13508   7.134   0.685   3.733 -0.6426 -0.4310  1.1681
  101MOL0     C13509   7.048   0.574   3.747 -0.0076 -0.1536  0.0594
  101MOL0     C13510   6.998   0.550   3.887  0.6273  0.2332  0.0403
  101MOL0     C13511   6.938   0.404   3.901 -0.2747 -1.4192  0.5240
  101MOL0     C13512   7.043   0.321   3.969 -0.1802  0.1928  0.2780
  101MOL0     C13513   7.003   0.171   3.963  0.2348 -0.0698 -1.1278
  101MOL0     C13514   7.096   0.084   4.047  0.1100 -0.6373  0.4222
  101MOL0     C13515   7.099  -0.056   4.004 -0.3475  0.0768  0.0791
  101MOL0     C13516   7.218  -0.133   4.060  0.7262  0.5629 -0.5514
  101MOL0     N13517   7.214  -0.277   4.012  0.4538 -0.2596  0.4632
  101MOL0     C13518   7.109  -0.363   4.025 -0.5791  0.3288 -0.5039
  101MOL0     C13519   7.133  -0.461   3.941  0.8597  0.2004  0.4474
  101MOL0     C13520   7.041  -0.576   3.931 -0.2944 -0.1287  0.6826
  101MOL0     C13521   6.896  -0.573   4.008 -0.2350  0.1404  0.3148
  101MOL0     C13522   6.787  -0.523   3.920  0.1846 -1.0422  0.4387
  101MOL0     C13523   6.647  -0.598   3.935 -1.0560  0.6784  0.5739
  101MOL0     O13524   6.588  -0.602   4.065 -0.4829 -0.7938 -0.1260
  101MOL0     C13525   6.545  -0.483   4.114  0.3340 -0.3878  0.9094
  101MOL0     C13526   6.542  -0.484   4.248 -0.7574  0.2421 -0.7968
  101MOL0     C13527   6.521  -0.361   4.322  0.3794  0.9377 -0.1464
  101MOL0     C13528   6.547  -0.380   4.469  0.1054 -0.9280 -0.5053
  101MOL0     C13529   6.470  -0.244   4.256 -1.4413  0.3842  0.8920
  101MOL0     C13530   6.434  -0.118   4.336 -0.0666 -1.0735  0.7599
  101MOL0     O13531   6.369  -0.025   4.258  0.3930  0.5519 -0.5398
  101MOL0     C13532   6.363   0.111   4.288 -0.0661 -0.8706 -0.7581
  101MOL0     C13533   6.265   0.180   4.210 -0.4458  0.2399  0.3575
  101MOL0     C13534   6.239   0.319   4.227 -0.5317  0.8090  0.3730
  101MOL0     C13535   6.303   0.388   4.328  0.2159 -0.7025  0.2249
  101MOL0     O13536   6.251   0.517   4.356 -0.1953  0.5155  0.0674
  101MOL0     C13537   6.328   0.618   4.293 -0.3166  0.5650 -0.1852
  101MOL0     C13538   6.336   0.751   4.367 -0.0216 -0.4897  0.2672
  101MOL0     C13539   6.195   0.815   4.360 -0.3411 -0.5195 -0.2407
  101MOL0     C13540   6.219   0.957   4.404 -0.6687  0.3461 -0.3395
  101MOL0     C13541   6.092   1.040   4.398  0.3100  0.7344  0.5180
  101MOL0     C13542   5.973   0.972   4.477 -0.5872  0.2273  0.1568
  101MOL0     C13543   5.848   1.072   4.473  0.1290 -0.0335  0.6034
  101MOL0     C13544   5.736   0.996   4.542 -0.5022 -0.1528 -0.4143
  101MOL0    Cl13545   5.585   1.072   4.502  0.3323  0.5720 -0.1325
  101MOL0     C13546   6.393   0.329   4.413 -0.4207  0.3894 -0.3392
  101MOL0     C13547   6.421   0.190   4.394  0.1061 -0.1276 -0.3481
  101MOL0     O13548   6.493  -0.092   4.441  0.1826 -0.0992  0.3270
  101MOL0     C13549   6.468  -0.247   4.113  0.2626 -0.0758  0.2806
  101MOL0     C13550   6.497  -0.373   4.044  0.5919 -1.3498  0.1160
  101MOL0     N13551   7.259  -0.439   3.886  0.4930  0.2795  0.9076
  101MOL0     N13552   7.302  -0.322   3.922  0.2225 -0.5331  1.0263
  101MOL0     C13553   7.349   0.735   3.654  0.2732  0.7152  0.6305
  101MOL0     C13554   7.448   0.753   3.552  0.3026 -0.0167 -0.7338
  101MOL0     C13555   7.698   0.860   3.228 -0.1775  0.3610  0.1794
  101MOL0     C13556   7.792   0.962   3.241 -0.4994 -0.2116 -0.1234
  101MOL0     C13557   7.906   0.956   3.161 -0.1713 -0.7027 -0.5306
  101MOL0     C13558   7.926   0.867   3.058 -1.0454 -0.6603 -0.1130
  101MOL0     O13559   8.029   0.873   2.971 -0.1108 -0.0817  1.0496
  101MOL0     C13560   8.158   0.889   3.044 -0.5608  0.2413  0.9322
  101MOL0     C13561   8.280   0.856   2.967 -0.2424  0.2127  0.1851
  101MOL0     C13562   8.254   0.734   2.885 -0.1937  0.9527  0.3247
  101MOL0     C13563   8.371   0.680   2.812 -0.4249  0.2870 -0.3590
  101MOL0     C13564   8.430   0.783   2.718 -0.1803 -0.5006  0.7938
  101MOL0     C13565   8.478   0.865   2.636  1.3675  0.6334 -0.5560
  101MOL0     C13566   7.827   0.766   3.055 -0.4231 -1.0766  0.4923
  101MOL0     C13567   7.702   0.768   3.127  0.9381  0.5841  0.7586
  101MOL0     H13568   7.283   0.641   3.286 -1.7892 -2.6087  0.0892
  101MOL0     H13569   7.107   0.596   3.465 -0.1058 -0.6886  1.1068
  101MOL0     H13570   6.968   0.585   3.674 -0.2315  1.7615  0.5531
  101MOL0     H13571   7.104   0.482   3.725 -1.0092 -0.5229 -1.0915
  101MOL0     H13572   7.078   0.578   3.957  0.6050  1.9343 -0.5611
  101MOL0     H13573   6.912   0.612   3.912  0.8065  1.2290 -1.6645
  101MOL0     H13574   6.844   0.396   3.956 -1.8302 -2.8111 -2.1426
  101MOL0     H13575   6.917   0.374   3.798  1.2240  2.2341 -1.0016
  101MOL0     H13576   7.138   0.324   3.915  0.1759  0.8974  0.9257
  101MOL0     H13577   7.061   0.357   4.071  0.4959  0.9707 -0.1023
  101MOL0     H13578   6.899   0.161   3.996 -0.2219 -2.0437 -2.9838
  101MOL0     H13579   6.993   0.136   3.860  0.0007 -1.0245 -0.7920
  101MOL0     H13580   7.196   0.124   4.030 -0.2733  0.3752  0.4465
  101MOL0     H13581   7.069   0.088   4.153 -0.6802  2.1626  0.2222
  101MOL0     H13582   7.007  -0.111   4.026  0.4288 -1.4264 -0.2612
  101MOL0     H13583   7.115  -0.069   3.896 -0.4045  1.1306 -0.0665
  101MOL0     H13584   7.217  -0.136   4.170  5.0341  0.3880 -0.3745
  101MOL0     H13585   7.313  -0.085   4.035  0.0427  0.8454 -2.7890
  101MOL0     H13586   7.026  -0.337   4.090 -1.6443  1.0243 -2.0928
  101MOL0     H13587   7.034  -0.621   3.832 -1.6058 -1.6695  1.4256
  101MOL0     H13588   7.098  -0.653   3.983  1.3729  1.3333  1.1054
  101MOL0     H13589   6.891  -0.529   4.108 -1.8215  1.6504 -0.3662
  101MOL0     H13590   6.862  -0.677   4.019 -1.4801  0.3536 -1.1756
  101MOL0     H13591   6.810  -0.537   3.814 -1.6858  3.2357 -0.7388
  101MOL0     H13592   6.780  -0.414   3.917  1.3100 -0.9725 -1.8556
  101MOL0     H13593   6.671  -0.702   3.907  1.8381  1.4003 -0.0095
  101MOL0     H13594   6.573  -0.563   3.862 -0.1537  1.1792 -0.1248
  101MOL0     H13595   6.577  -0.575   4.296 -0.6051  1.4485  1.5306
  101MOL0     H13596   6.569  -0.485   4.492 -1.6019 -0.8304  2.0205
  101MOL0     H13597   6.633  -0.321   4.501 -2.9643  2.8252  1.6356
  101MOL0     H13598   6.461  -0.345   4.527 -2.1470  0.4951 -4.3648
  101MOL0     H13599   6.204   0.122   4.141 -0.0283  0.2142  0.0093
  101MOL0     H13600   6.155   0.359   4.172 -1.4983 -0.4478  0.8783
  101MOL0     H13601   6.429   0.583   4.272  0.0706  2.3268 -1.4524
  101MOL0     H13602   6.275   0.637   4.199 -1.2961  0.0530  0.2382
  101MOL0     H13603   6.369   0.727   4.468 -4.1073 -0.3622  1.8418
  101MOL0     H13604   6.404   0.814   4.309 -0.7320  1.0103  0.9865
  101MOL0     H13605   6.125   0.756   4.420 -0.9234  0.5216  0.1401
  101MOL0     H13606   6.164   0.824   4.255  0.7004  1.3859 -0.4366
  101MOL0     H13607   6.259   0.954   4.506 -0.2195  1.3987 -0.4729
  101MOL0     H13608   6.292   1.007   4.339 -2.9057  1.1417 -2.3962
  101MOL0     H13609   6.068   1.065   4.294  3.2619 -1.6687 -0.9044
  101MOL0     H13610   6.124   1.134   4.443  2.5252  0.5963 -0.6440
  101MOL0     H13611   5.951   0.876   4.431  2.5292 -1.1747  1.3215
  101MOL0     H13612   6.007   0.955   4.580  2.5402 -1.8764 -1.0980
  101MOL0     H13613   5.833   1.081   4.365 -0.0093 -0.6852  0.5670
  101MOL0     H13614   5.856   1.169   4.525 -0.2826  0.7779 -0.8042
  101MOL0     H13615   5.751   1.011   4.650 -2.8903  3.4469 -0.3788
  101MOL0     H13616   5.736   0.888   4.528  4.6850 -0.4743  0.1478
  101MOL0     H13617   6.429   0.383   4.500  0.1509 -0.0163 -0.3126
  101MOL0     H13618   6.479   0.144   4.472 -2.6733 -0.7328  1.5282
  101MOL0     H13619   6.433  -0.155   4.067  2.2069  1.5317  1.8672
  101MOL0     H13620   6.502  -0.384   3.936  1.9082 -1.3999  0.1715
  101MOL0     H13621   7.363   0.750   3.761 -4.0621 -1.0315  1.6481
  101MOL0     H13622   7.544   0.794   3.585  0.4749  1.7966 -3.1879
  101MOL0     H13623   7.771   1.037   3.317 -2.7789  1.2199 -2.0095
  101MOL0     H13624   7.977   1.036   3.177 -0.7357  0.0459 -1.6438
  101MOL0     H13625   8.169   0.991   3.084 -1.2608  1.7165 -2.3478
  101MOL0     H13626   8.152   0.821   3.130  0.3884 -0.2889  0.5912
  101MOL0     H13627   8.361   0.841   3.039 -0.9224  2.7819  1.6454
  101MOL0     H13628   8.299   0.947   2.909 -0.7791 -1.2377 -2.3531
  101MOL0     H13629   8.176   0.760   2.812 -0.7256 -2.5697 -0.5301
  101MOL0     H13630   8.220   0.650   2.946 -0.2744  1.1845  0.6001
  101MOL0     H13631   8.336   0.599   2.747 -1.3971 -0.8514  1.4840
  101MOL0     H13632   8.442   0.634   2.882  0.0040  0.0756 -0.9258
  101MOL0     H13633   8.530   0.927   2.565  1.1370 -0.2796 -1.5572
  101MOL0     H13634   7.847   0.678   2.995  1.1291 -1.3129  1.2827
  101MOL0     H13635   7.626   0.699   3.094  0.2312  1.4834  0.4767
  102MOL0     O13636   9.377   8.128   7.701 -0.1331 -0.1944  0.3653
  102MOL0     C13637   9.459   8.032   7.706 -0.0903  0.1654 -0.3220
  102MOL0     O13638   9.454   7.927   7.618 -1.0860  0.2892  0.7745
  102MOL0     C13639   9.355   7.915   7.523 -0.4711 -0.7759 -0.3116
  102MOL0     C13640   9.386   7.915   7.386  0.1662 -0.1284  0.6694
  102MOL0     C13641   9.276   7.918   7.301  1.5139 -0.3840  0.3138
  102MOL0     C13642   9.146   7.919   7.348  0.3526 -0.5558  0.9846
  102MOL0     O13643   9.041   7.935   7.259  0.4547  0.9245  0.1519
  102MOL0     C13644   8.992   8.068   7.258 -0.1225  0.2874 -0.0755
  102MOL0     C13645   8.895   8.074   7.141  0.0740  0.1045 -0.5014
  102MOL0     C13646   8.886   7.953   7.042 -0.6486 -0.6654 -0.1447
  102MOL0     C13647   8.762   7.985   6.947  0.4213  0.2670 -0.5875
  102MOL0     C13648   8.729   7.873   6.840 -0.1312 -0.5545 -0.1643
  102MOL0     C13649   8.841   7.883   6.739 -0.1169 -0.1807  0.7648
  102MOL0     C13650   8.821   7.779   6.621 -0.7950  0.5226  1.1096
  102MOL0     C13651   8.712   7.819   6.503 -0.2685 -0.1285 -0.0632
  102MOL0     N13652   8.692   7.724   6.393 -0.2343  0.0018  0.2675
  102MOL0     C13653   8.798   7.657   6.335  0.0038 -0.4999  0.2017
  102MOL0     C13654   8.746   7.569   6.244  0.3373  1.0812 -0.9112
  102MOL0     C13655   8.830   7.510   6.137  0.3398 -0.4334  0.2489
  102MOL0     C13656   8.752   7.460   6.020  0.0484  0.2736 -0.4832
  102MOL0     C13657   8.853   7.407   5.927 -0.0336  0.5308 -0.9862
  102MOL0     C13658   8.791   7.338   5.803  0.4038 -0.1943  0.2533
  102MOL0     O13659   8.660   7.289   5.832  0.0044  0.7730 -0.1802
  102MOL0     C13660   8.615   7.186   5.744 -0.4997  0.2738  0.0134
  102MOL0     C13661   8.493   7.200   5.682 -0.0720 -0.0753  0.5958
  102MOL0     C13662   8.442   7.094   5.601  0.3345 -0.9061  0.0598
  102MOL0     C13663   8.313   7.143   5.534  0.6016  1.1581  0.0559
  102MOL0     C13664   8.509   6.975   5.594  0.7942 -0.0413 -0.3894
  102MOL0     C13665   8.448   6.855   5.533 -0.3425 -0.6448  0.1347
  102MOL0     O13666   8.536   6.753   5.510  0.0827 -1.0500  0.7569
  102MOL0     C13667   8.491   6.634   5.472  1.0637  1.1060  0.3889
  102MOL0     C13668   8.376   6.573   5.530 -0.4813 -0.3605 -0.7200
  102MOL0     C13669   8.342   6.441   5.524 -0.6431 -1.1479  0.8994
  102MOL0     C13670   8.411   6.366   5.440 -0.3977  0.9179 -0.9148
  102MOL0     O13671   8.361   6.237   5.427  0.5958  0.1157 -0.4433
  102MOL0     C13672   8.386   6.170   5.309 -1.3301 -0.2566 -0.5504
  102MOL0     C13673   8.300   6.234   5.202  0.4562  0.1838 -0.1666
  102MOL0     C13674   8.327   6.176   5.058  0.0626 -0.6181 -1.0773
  102MOL0     C13675   8.253   6.258   4.957 -0.1800  0.2100 -0.1640
  102MOL0     C13676   8.307   6.218   4.822 -0.4127 -0.9118  0.6852
  102MOL0     C13677   8.368   6.347   4.752 -1.3214  0.2122 -0.3807
  102MOL0     C13678   8.376   6.318   4.597 -0.1292 -0.1865 -1.1681
  102MOL0     C13679   8.445   6.428   4.512 -0.2827 -0.2821 -0.3864
  102MOL0    Cl13680   8.574   6.364   4.418  0.2912 -0.4052 -0.1540
  102MOL0     C13681   8.527   6.412   5.376 -0.1087  0.1317  0.0199
  102MOL0     C13682   8.554   6.548   5.384  0.6259 -0.5136 -0.2182
  102MOL0     O13683   8.323   6.847   5.523  0.7053 -0.0006  0.5387
  102MOL0     C13684   8.629   6.968   5.653  0.3205  0.2702 -0.0582
  102MOL0     C13685   8.683   7.065   5.737 -0.1320  0.3369  0.8123
  102MOL0     N13686   8.613   7.572   6.269  0.0483 -0.1117  0.2087
  102MOL0     N13687   8.579   7.672   6.349  0.3244  0.2647  1.1457
  102MOL0     C13688   9.117   7.911   7.489 -1.3242 -0.2559 -0.0626
  102MOL0     C13689   9.222   7.891   7.572 -0.6945 -0.4723 -1.0297
  102MOL0     C13690   9.536   8.014   7.831 -0.1401 -0.2282 -0.1123
  102MOL0     C13691   9.571   8.126   7.911 -1.0194  0.2538 -0.0975
  102MOL0     C13692   9.639   8.110   8.039  0.1368  0.6113  1.3553
  102MOL0     C13693   9.661   7.974   8.078 -0.3888  0.1990 -1.0946
  102MOL0     O13694   9.741   7.952   8.189  0.7644 -0.5786 -0.2455
  102MOL0     C13695   9.855   8.034   8.204 -0.4101  0.1609  0.2671
  102MOL0     C13696   9.941   7.971   8.311  0.0693  0.4169  0.4389
  102MOL0     C13697  10.078   8.028   8.332 -1.1077 -1.0176 -0.1424
  102MOL0     C13698  10.140   7.972   8.459  0.5239 -0.0104  0.6493
  102MOL0     C13699  10.083   8.027   8.576  0.3402  0.6361 -0.4406
  102MOL0     C13700  10.036   8.081   8.676  0.6420 -0.7982 -0.3035
  102MOL0     C13701   9.617   7.864   8.002  0.4450  0.3083  0.4901
  102MOL0     C13702   9.553   7.885   7.875 -0.1588  0.3497  0.3418
  102MOL0     H13703   9.486   7.920   7.343 -1.0251  1.1826 -2.1802
  102MOL0     H13704   9.287   7.919   7.193 -2.2221 -1.1359 -0.2004
  102MOL0     H13705   8.940   8.092   7.351  1.2592  2.5924  0.1667
  102MOL0     H13706   9.069   8.144   7.244  1.1354 -0.7880  0.6989
  102MOL0     H13707   8.798   8.094   7.188  0.0359  0.7455 -0.8387
  102MOL0     H13708   8.914   8.165   7.083 -2.8171  0.7876 -0.5134
  102MOL0     H13709   8.973   7.944   6.977 -1.1882 -3.3065 -0.5901
  102MOL0     H13710   8.877   7.861   7.101  2.1319 -0.4472  0.7647
  102MOL0     H13711   8.673   8.006   7.006 -0.5604  1.5200 -2.4261
  102MOL0     H13712   8.781   8.077   6.891  1.6932 -1.8455 -3.9666
  102MOL0     H13713   8.713   7.779   6.894 -2.8068  1.8690  3.8498
  102MOL0     H13714   8.630   7.896   6.800 -0.6324 -4.1464 -1.3567
  102MOL0     H13715   8.854   7.979   6.689 -4.4564  0.0227 -0.3612
  102MOL0     H13716   8.935   7.864   6.791 -0.1153 -1.7771  0.2459
  102MOL0     H13717   8.918   7.779   6.571 -1.7390 -1.3590 -0.8887
  102MOL0     H13718   8.794   7.678   6.653  2.1961 -0.2908  1.3401
  102MOL0     H13719   8.737   7.917   6.462 -1.6935  1.2427  2.1146
  102MOL0     H13720   8.616   7.840   6.551  1.4176  3.5344  2.1716
  102MOL0     H13721   8.898   7.683   6.366  0.7134 -0.5314 -1.8622
  102MOL0     H13722   8.896   7.589   6.100 -2.5040  0.5954 -3.2197
  102MOL0     H13723   8.877   7.420   6.177 -3.7739 -2.7388  0.5246
  102MOL0     H13724   8.691   7.539   5.976 -0.5487  2.3217  3.5495
  102MOL0     H13725   8.692   7.379   6.063 -1.3952  1.6413  0.1953
  102MOL0     H13726   8.903   7.324   5.979 -3.2834 -0.2511  1.1931
  102MOL0     H13727   8.918   7.489   5.896 -0.4817  0.6812 -1.5537
  102MOL0     H13728   8.852   7.252   5.773 -1.0515 -0.9345 -0.7258
  102MOL0     H13729   8.783   7.409   5.720 -4.1023  2.2841  2.3807
  102MOL0     H13730   8.450   7.298   5.700 -1.8169 -0.6310 -0.3708
  102MOL0     H13731   8.276   7.243   5.556 -0.8213  0.6773 -0.0244
  102MOL0     H13732   8.327   7.137   5.425 -3.7647 -0.9528 -0.6275
  102MOL0     H13733   8.229   7.074   5.543  1.2873  0.1491 -0.9532
  102MOL0     H13734   8.328   6.627   5.610  1.1933 -0.0564  0.1364
  102MOL0     H13735   8.261   6.392   5.578  0.0082 -1.2566  1.8039
  102MOL0     H13736   8.492   6.179   5.284 -1.4833  0.0188 -1.1250
  102MOL0     H13737   8.365   6.063   5.321  0.4073 -0.5317  0.3163
  102MOL0     H13738   8.194   6.218   5.222  0.3315  0.5104 -0.5437
  102MOL0     H13739   8.322   6.341   5.193  3.3459 -0.1576  1.7950
  102MOL0     H13740   8.299   6.071   5.047  0.1044 -0.7490 -0.0288
  102MOL0     H13741   8.432   6.176   5.030  1.4340 -4.3978  2.9501
  102MOL0     H13742   8.147   6.233   4.962 -0.5456  1.6218 -0.4307
  102MOL0     H13743   8.261   6.367   4.968  2.8372  0.5570 -3.7996
  102MOL0     H13744   8.222   6.174   4.768 -0.9453  0.1859  0.6018
  102MOL0     H13745   8.387   6.144   4.819  1.1790  0.7146  1.1826
  102MOL0     H13746   8.316   6.442   4.771 -2.2402 -0.4447  0.4336
  102MOL0     H13747   8.472   6.368   4.779 -0.7543  1.3426 -3.0184
  102MOL0     H13748   8.270   6.326   4.571 -1.1997 -2.0150  2.0504
  102MOL0     H13749   8.424   6.222   4.579 -0.4317 -0.0339 -2.9512
  102MOL0     H13750   8.494   6.512   4.562  0.9252 -1.4271  0.4149
  102MOL0     H13751   8.373   6.466   4.439 -1.7119 -0.5825  0.8347
  102MOL0     H13752   8.594   6.357   5.311  1.8597  4.1170 -1.6859
  102MOL0     H13753   8.636   6.594   5.329  2.0669 -1.6797  0.8798
  102MOL0     H13754   8.680   6.873   5.655 -0.9884 -0.5430  3.5097
  102MOL0     H13755   8.782   7.045   5.777  1.3337  3.2064 -1.0134
  102MOL0     H13756   9.015   7.916   7.526 -1.6941  2.1146 -1.2461
  102MOL0     H13757   9.214   7.883   7.680 -3.9304  2.1529 -0.9160
  102MOL0     H13758   9.556   8.218   7.856 -1.6106  0.2533  0.0514
  102MOL0     H13759   9.677   8.196   8.093 -0.1133  1.6198 -0.0075
  102MOL0     H13760   9.912   8.042   8.111 -1.9291  2.1056 -0.5903
  102MOL0     H13761   9.828   8.138   8.227 -0.5218  0.0167  0.7929
  102MOL0     H13762   9.953   7.869   8.274  2.1289 -0.4807  3.2196
  102MOL0     H13763   9.880   7.961   8.401  1.3653 -2.0491  1.1348
  102MOL0     H13764  10.071   8.136   8.347 -1.2336 -0.1993 -4.6173
  102MOL0     H13765  10.135   8.017   8.239 -3.4628 -0.3031 -1.7700
  102MOL0     H13766  10.244   8.006   8.455  0.0824  1.2227 -1.0828
  102MOL0     H13767  10.130   7.863   8.465  1.7440 -0.2340 -0.9033
  102MOL0     H13768   9.999   8.119   8.769 -5.0663 -3.8500 -0.9036
  102MOL0     H13769   9.651   7.772   8.049 -4.8030 -1.4996  1.4660
  102MOL0     H13770   9.533   7.801   7.809  4.7418 -0.8839  0.0292
  103MOL0     O13771   5.851   0.457   1.769 -0.3721  0.3269 -0.1883
  103MOL0     C13772   5.850   0.461   1.889 -0.0303 -0.8976  0.4169
  103MOL0     O13773   5.790   0.370   1.969  0.1253  0.4364 -0.0315
  103MOL0     C13774   5.708   0.280   1.921  0.1572  0.3259  0.2524
  103MOL0     C13775   5.759   0.171   1.849 -0.8309  0.1893  0.5841
  103MOL0     C13776   5.669   0.083   1.807  0.3850  1.0430  0.3674
  103MOL0     C13777   5.538   0.078   1.853 -0.3941  0.6580 -0.9448
  103MOL0     O13778   5.448  -0.017   1.797  0.4081 -0.6860 -0.0161
  103MOL0     C13779   5.392   0.036   1.675 -0.3922 -0.4175  0.0229
  103MOL0     C13780   5.295  -0.069   1.607 -0.5665  0.1042  0.9534
  103MOL0     C13781   5.367  -0.203   1.590 -0.5622  0.4512  1.3275
  103MOL0     C13782   5.320  -0.279   1.466  0.4618 -0.0052 -0.3775
  103MOL0     C13783   5.390  -0.421   1.466 -0.1133 -0.9735  0.5447
  103MOL0     C13784   5.308  -0.519   1.381 -1.0620 -1.2412 -0.2562
  103MOL0     C13785   5.397  -0.633   1.326  0.6704  0.0089  0.1004
  103MOL0     C13786   5.451  -0.721   1.438 -0.6418  0.1912  0.0640
  103MOL0     N13787   5.346  -0.806   1.495 -0.1891 -1.3061  0.0365
  103MOL0     C13788   5.275  -0.783   1.614  0.6581 -0.1986  0.8183
  103MOL0     C13789   5.179  -0.885   1.615 -0.1882 -0.0069  0.1027
  103MOL0     C13790   5.079  -0.878   1.718  1.1328 -0.4968  0.0154
  103MOL0     C13791   4.968  -0.767   1.699 -0.3562  1.8143  0.3164
  103MOL0     C13792   4.877  -0.745   1.824 -0.1318  0.5770  0.2653
  103MOL0     C13793   4.809  -0.594   1.813  0.3732 -0.3080 -0.0816
  103MOL0     O13794   4.760  -0.552   1.935  0.6213  0.2412  0.2930
  103MOL0     C13795   4.718  -0.420   1.930  0.4708  0.4081 -0.6404
  103MOL0     C13796   4.702  -0.352   2.050 -0.1880 -0.2767 -0.6185
  103MOL0     C13797   4.671  -0.215   2.051  0.7329 -0.2176 -0.7349
  103MOL0     C13798   4.652  -0.152   2.190 -0.5426  0.7762  0.0437
  103MOL0     C13799   4.646  -0.148   1.926  0.4663  0.5234  0.3657
  103MOL0     C13800   4.605  -0.008   1.914  0.5365  0.9727  1.6566
  103MOL0     O13801   4.518   0.047   2.002 -0.0335 -0.0384 -0.0794
  103MOL0     C13802   4.532   0.179   2.028 -0.1376  0.0990 -0.8960
  103MOL0     C13803   4.654   0.250   2.046  1.2987  1.2618  0.1245
  103MOL0     C13804   4.651   0.388   2.077  0.7395 -0.5934 -0.0837
  103MOL0     C13805   4.524   0.453   2.080 -0.6550 -0.3166  0.0476
  103MOL0     O13806   4.520   0.580   2.109  0.7274 -0.1948  0.2240
  103MOL0     C13807   4.424   0.670   2.043  0.3677  0.1173  0.0213
  103MOL0     C13808   4.421   0.797   2.125  0.5099  0.6488 -0.4155
  103MOL0     C13809   4.367   0.799   2.275  0.0459 -1.2578  0.7061
  103MOL0     C13810   4.398   0.941   2.320  0.8569  0.0025  0.8043
  103MOL0     C13811   4.375   0.957   2.470 -0.7013  0.3972  0.2390
  103MOL0     C13812   4.376   1.104   2.523  0.5650  0.4050 -0.1653
  103MOL0     C13813   4.320   1.104   2.682 -0.5590 -1.0675  0.1089
  103MOL0     C13814   4.228   1.219   2.722  0.2074  0.1263  0.0899
  103MOL0    Cl13815   4.052   1.185   2.690  0.2224 -0.3767  0.3321
  103MOL0     C13816   4.413   0.378   2.054  0.1790  0.1868 -0.2711
  103MOL0     C13817   4.408   0.238   2.031 -0.7418  0.3403 -0.0251
  103MOL0     O13818   4.655   0.048   1.818  0.3702  0.1293  0.3027
  103MOL0     C13819   4.676  -0.220   1.811 -0.3906  0.4532 -0.9050
  103MOL0     C13820   4.699  -0.351   1.812  0.4011  0.1598  0.2971
  103MOL0     N13821   5.202  -0.966   1.503  0.1541  0.0081  0.3438
  103MOL0     N13822   5.309  -0.923   1.434  0.4472  0.1184 -0.1330
  103MOL0     C13823   5.485   0.178   1.934  0.2590  0.1807 -0.0972
  103MOL0     C13824   5.577   0.280   1.970  0.1235 -0.1748  0.0727
  103MOL0     C13825   5.934   0.569   1.953 -0.0457  0.0680  0.1623
  103MOL0     C13826   6.002   0.677   1.888  0.5378  0.6354  0.1983
  103MOL0     C13827   6.077   0.772   1.945  0.0384 -0.8405  0.1952
  103MOL0     C13828   6.082   0.779   2.087 -0.1077 -0.1658  0.6280
  103MOL0     O13829   6.154   0.865   2.163  0.1014 -0.3282 -0.5464
  103MOL0     C13830   6.234   0.970   2.102 -0.2579  0.1476  0.8938
  103MOL0     C13831   6.282   1.057   2.220 -1.4683 -0.3785  0.1521
  103MOL0     C13832   6.168   1.144   2.265 -0.9666 -0.3256 -0.1719
  103MOL0     C13833   6.221   1.250   2.363  0.1938 -0.1912  0.4105
  103MOL0     C13834   6.135   1.368   2.353  0.2199 -0.0446  0.2303
  103MOL0     C13835   6.053   1.461   2.335 -1.4650  0.1039 -0.7291
  103MOL0     C13836   6.002   0.681   2.156  0.4809  0.2671  0.0281
  103MOL0     C13837   5.947   0.569   2.093  0.2404  0.0440 -0.9651
  103MOL0     H13838   5.866   0.163   1.829 -0.9638 -2.6160  0.5849
  103MOL0     H13839   5.709   0.005   1.742  0.1388 -1.6051  3.1462
  103MOL0     H13840   5.336   0.129   1.691  3.1595  3.1437 -5.0307
  103MOL0     H13841   5.466   0.076   1.605 -0.8441  3.6609  1.5602
  103MOL0     H13842   5.216  -0.098   1.677 -1.1485  1.7113  0.9889
  103MOL0     H13843   5.256  -0.024   1.515  0.4951 -0.8464  0.0075
  103MOL0     H13844   5.471  -0.176   1.569 -0.2952  0.2331  2.3309
  103MOL0     H13845   5.360  -0.263   1.680  1.1452 -1.4206  0.2967
  103MOL0     H13846   5.213  -0.299   1.481  0.3418 -1.0603 -2.2828
  103MOL0     H13847   5.333  -0.230   1.369 -1.3143 -0.4657 -0.8825
  103MOL0     H13848   5.496  -0.414   1.441 -0.0211  0.7951  1.2656
  103MOL0     H13849   5.383  -0.471   1.564 -2.5141 -0.0557  0.9182
  103MOL0     H13850   5.222  -0.557   1.437  0.4729 -0.6583  2.6956
  103MOL0     H13851   5.259  -0.465   1.299 -0.1451  1.7479  1.0072
  103MOL0     H13852   5.346  -0.695   1.252 -0.8027  1.5581 -0.2507
  103MOL0     H13853   5.483  -0.591   1.274  0.8150 -2.6440 -2.0297
  103MOL0     H13854   5.505  -0.659   1.510 -0.6356 -1.0987  1.2210
  103MOL0     H13855   5.515  -0.795   1.390 -2.6608 -1.7900  0.2836
  103MOL0     H13856   5.303  -0.721   1.699 -1.5532 -0.7735  2.0491
  103MOL0     H13857   5.039  -0.978   1.739 -1.3048  0.5968  0.9630
  103MOL0     H13858   5.128  -0.845   1.810  1.8190 -0.7682 -0.2448
  103MOL0     H13859   4.900  -0.793   1.617  0.0084  2.4824 -0.2045
  103MOL0     H13860   5.029  -0.680   1.672  3.0447 -0.5037 -0.0768
  103MOL0     H13861   4.949  -0.744   1.906  0.1439  3.9216  0.1509
  103MOL0     H13862   4.823  -0.838   1.841 -0.0778  0.3568 -0.6824
  103MOL0     H13863   4.726  -0.605   1.743  0.7589 -1.4805 -0.3946
  103MOL0     H13864   4.888  -0.528   1.776  1.2995 -0.5114  1.4627
  103MOL0     H13865   4.717  -0.419   2.134 -1.0947  2.6912  2.0916
  103MOL0     H13866   4.752  -0.148   2.235 -0.8285 -3.6719  1.5637
  103MOL0     H13867   4.598  -0.057   2.183  0.6623  1.3870 -1.3008
  103MOL0     H13868   4.607  -0.231   2.252  2.2731 -0.3487  0.8059
  103MOL0     H13869   4.744   0.191   2.062 -0.0438 -0.9769 -0.1915
  103MOL0     H13870   4.749   0.434   2.082  0.1210  0.8194 -0.3979
  103MOL0     H13871   4.455   0.698   1.942  1.1442 -3.4900 -0.8797
  103MOL0     H13872   4.324   0.626   2.041  1.1376 -1.7013 -2.0261
  103MOL0     H13873   4.527   0.827   2.121  1.0929 -0.3428  3.7393
  103MOL0     H13874   4.351   0.863   2.073  0.1344  0.3724 -0.2615
  103MOL0     H13875   4.421   0.722   2.331  1.5221 -1.9240 -1.5088
  103MOL0     H13876   4.260   0.779   2.280 -0.0606 -0.6092  1.1838
  103MOL0     H13877   4.501   0.970   2.298  0.4586 -0.2560 -1.6784
  103MOL0     H13878   4.326   0.985   2.251 -1.3043 -5.6549 -1.1356
  103MOL0     H13879   4.444   0.888   2.520  0.4582  0.9807 -0.4980
  103MOL0     H13880   4.274   0.918   2.484 -0.1034 -0.5292  2.2852
  103MOL0     H13881   4.475   1.151   2.526  0.7148  0.0371  0.9652
  103MOL0     H13882   4.300   1.155   2.463 -1.7965 -1.5534  1.0036
  103MOL0     H13883   4.406   1.131   2.744 -1.9653  4.8835  0.1348
  103MOL0     H13884   4.276   1.008   2.707 -1.9099 -0.3324  0.6605
  103MOL0     H13885   4.257   1.308   2.666 -3.1775  0.6692 -1.0654
  103MOL0     H13886   4.239   1.230   2.831 -0.4056  0.9381  0.0796
  103MOL0     H13887   4.316   0.428   2.052  0.8396  1.5376  0.4193
  103MOL0     H13888   4.307   0.200   2.014 -1.6588  2.3322  0.5935
  103MOL0     H13889   4.655  -0.180   1.712 -0.9909  0.6771 -0.6936
  103MOL0     H13890   4.703  -0.403   1.717  1.0381 -2.7745  1.8061
  103MOL0     H13891   5.378   0.192   1.946  0.1391 -0.9050  0.1566
  103MOL0     H13892   5.537   0.354   2.040 -3.2947  0.1258 -1.9661
  103MOL0     H13893   5.992   0.668   1.780  0.2450  2.1381  0.0762
  103MOL0     H13894   6.130   0.837   1.876 -0.4085 -3.6045 -2.9920
  103MOL0     H13895   6.323   0.923   2.059  1.8424  0.2016  4.7604
  103MOL0     H13896   6.171   1.019   2.028  1.1279  0.2139 -0.2723
  103MOL0     H13897   6.359   1.127   2.186 -0.5670 -0.5646  1.7132
  103MOL0     H13898   6.333   0.998   2.297  0.0418 -1.4312 -1.5352
  103MOL0     H13899   6.093   1.080   2.314  0.1369 -2.5720 -1.2812
  103MOL0     H13900   6.123   1.193   2.178  0.2153  2.0740  0.4989
  103MOL0     H13901   6.320   1.287   2.334 -1.5724  4.4046 -0.5357
  103MOL0     H13902   6.209   1.215   2.466 -0.5202 -0.0228  0.3925
  103MOL0     H13903   5.981   1.541   2.332 -2.0117 -0.3087  0.5858
  103MOL0     H13904   6.012   0.680   2.264  3.4017  0.0998 -0.1503
  103MOL0     H13905   5.894   0.496   2.154 -3.8307  1.6696 -2.2611
  104MOL0     O13906  11.303   7.921   5.308 -0.0018 -0.3334  0.1031
  104MOL0     C13907  11.342   7.810   5.311  0.0212  0.4856 -0.2454
  104MOL0     O13908  11.334   7.726   5.415  0.0785 -0.1097  0.5469
  104MOL0     C13909  11.235   7.733   5.512  0.2398  0.2593 -0.9093
  104MOL0     C13910  11.119   7.807   5.490  0.1404  0.0088  0.8533
  104MOL0     C13911  11.021   7.807   5.586  0.5528  0.7654 -0.6476
  104MOL0     C13912  11.042   7.737   5.707 -0.0291  0.7392 -1.0600
  104MOL0     O13913  10.927   7.719   5.787 -0.2471 -0.6170 -0.3041
  104MOL0     C13914  10.916   7.602   5.879 -0.0281  0.3331 -0.1501
  104MOL0     C13915  10.780   7.589   5.930  0.7402  0.4567 -0.2164
  104MOL0     C13916  10.697   7.528   5.819  1.5076 -0.2447 -0.9394
  104MOL0     C13917  10.552   7.556   5.854  0.3142 -0.7747 -0.0177
  104MOL0     C13918  10.456   7.503   5.751 -0.8738  0.2637 -0.2227
  104MOL0     C13919  10.481   7.533   5.606  1.3396  0.3538 -0.1656
  104MOL0     C13920  10.462   7.682   5.588 -0.6682 -0.8204 -0.2710
  104MOL0     C13921  10.311   7.721   5.581 -0.5057 -0.1534 -0.6455
  104MOL0     N13922  10.269   7.806   5.700  0.1077  0.3042 -0.1760
  104MOL0     C13923  10.326   7.927   5.729 -0.3685 -0.0200  1.1657
  104MOL0     C13924  10.307   7.934   5.862 -0.2151 -0.2996 -0.1667
  104MOL0     C13925  10.351   8.043   5.945  0.3879 -0.1543 -0.5857
  104MOL0     C13926  10.494   8.052   5.990  0.2116 -0.0946  0.0721
  104MOL0     C13927  10.511   8.189   6.044 -0.8008  0.3126 -0.2671
  104MOL0     C13928  10.654   8.222   6.079 -0.9347  0.5341 -0.7985
  104MOL0     O13929  10.750   8.158   5.997  0.1749 -0.7264  0.0882
  104MOL0     C13930  10.832   8.236   5.913 -0.4538  0.2959  0.0597
  104MOL0     C13931  10.805   8.370   5.872  0.2171 -0.7269 -0.6499
  104MOL0     C13932  10.895   8.442   5.792 -1.2017  0.2177  0.8715
  104MOL0     C13933  10.877   8.586   5.792  0.3152 -0.8793 -0.1107
  104MOL0     C13934  10.997   8.363   5.729 -0.1589  0.0120 -0.1733
  104MOL0     C13935  11.082   8.419   5.619 -1.6871 -0.6661  0.3893
  104MOL0     O13936  11.190   8.346   5.576  0.4911 -0.0294 -0.2953
  104MOL0     C13937  11.278   8.383   5.480 -0.4656  0.2351  0.2837
  104MOL0     C13938  11.373   8.285   5.451 -0.4898  0.1511 -0.2398
  104MOL0     C13939  11.474   8.303   5.360  0.2218  0.2503  0.2689
  104MOL0     C13940  11.499   8.426   5.304  0.1134  0.1821 -0.5055
  104MOL0     O13941  11.608   8.468   5.226 -0.2954 -0.5028  0.1269
  104MOL0     C13942  11.732   8.408   5.250 -0.1696  0.0481  0.4773
  104MOL0     C13943  11.839   8.468   5.158  0.1195  0.6367  0.8362
  104MOL0     C13944  11.902   8.586   5.218 -0.1870 -0.8662 -0.5689
  104MOL0     C13945  11.979   8.659   5.106  0.2302 -0.5329  0.2385
  104MOL0     C13946  12.063   8.785   5.145 -0.2794  0.1810 -0.1238
  104MOL0     C13947  12.139   8.839   5.021 -0.4599  0.2225 -0.5082
  104MOL0     C13948  12.272   8.762   5.001  0.1736 -0.4555 -1.1301
  104MOL0     C13949  12.347   8.819   4.883  0.5306 -0.3380 -0.4559
  104MOL0    Cl13950  12.512   8.779   4.890  0.0033  0.1850  0.1148
  104MOL0     C13951  11.414   8.528   5.330  1.3052 -1.0689  0.0301
  104MOL0     C13952  11.304   8.513   5.420  1.0128 -0.2967  1.1875
  104MOL0     O13953  11.042   8.522   5.560  0.0791  0.2577 -0.2695
  104MOL0     C13954  11.018   8.228   5.767  0.7890 -0.4487 -0.4120
  104MOL0     C13955  10.931   8.164   5.855 -0.1492  0.2723  0.5438
  104MOL0     N13956  10.231   7.834   5.904  0.8464  0.0049 -0.4912
  104MOL0     N13957  10.202   7.760   5.807  0.2096  0.0952 -1.3160
  104MOL0     C13958  11.159   7.662   5.732 -0.4332  1.4989 -1.3839
  104MOL0     C13959  11.261   7.670   5.633  0.3779  0.2618 -0.1281
  104MOL0     C13960  11.409   7.757   5.195 -0.0808 -0.1530  0.4268
  104MOL0     C13961  11.488   7.855   5.119 -0.1870  0.6688 -0.7363
  104MOL0     C13962  11.567   7.822   5.005  0.0141  0.3265 -0.6073
  104MOL0     C13963  11.542   7.689   4.952  0.4332 -0.5479  0.1616
  104MOL0     O13964  11.615   7.652   4.845 -0.1588  0.2581  0.2143
  104MOL0     C13965  11.724   7.564   4.872 -0.5829  0.0390 -0.4621
  104MOL0     C13966  11.764   7.479   4.743  0.1577 -0.6853 -0.2389
  104MOL0     C13967  11.776   7.567   4.623  0.1310  0.3855  0.7591
  104MOL0     C13968  11.856   7.498   4.504  0.4106 -0.1830  0.1391
  104MOL0     C13969  11.800   7.368   4.465  0.5524  0.2759  0.6413
  104MOL0     C13970  11.761   7.267   4.400  0.0155 -0.0705  0.4519
  104MOL0     C13971  11.453   7.596   5.023 -0.4379  0.8842 -0.1820
  104MOL0     C13972  11.395   7.634   5.139 -0.2518  0.7971  0.1522
  104MOL0     H13973  11.103   7.849   5.392  4.1146 -1.0117 -0.3988
  104MOL0     H13974  10.926   7.850   5.554  1.4762  0.9918 -3.3441
  104MOL0     H13975  10.938   7.512   5.821 -2.6169 -2.0241  2.2117
  104MOL0     H13976  10.976   7.614   5.970 -0.0600  0.8735 -0.1933
  104MOL0     H13977  10.775   7.526   6.020  1.4145  0.3103 -0.2740
  104MOL0     H13978  10.749   7.689   5.962  0.8105  1.0695 -1.9760
  104MOL0     H13979  10.708   7.594   5.733 -2.9393  1.8648 -0.1903
  104MOL0     H13980  10.710   7.419   5.815  0.4661 -0.4873  0.8172
  104MOL0     H13981  10.528   7.508   5.950 -0.6812  1.0625  0.7110
  104MOL0     H13982  10.545   7.663   5.876  1.9461 -0.6287 -0.0559
  104MOL0     H13983  10.472   7.396   5.764 -0.5320  0.5039  1.5270
  104MOL0     H13984  10.359   7.541   5.785 -1.0834  1.3877 -1.9387
  104MOL0     H13985  10.584   7.498   5.589  0.8495 -1.8635  1.0011
  104MOL0     H13986  10.415   7.462   5.556  1.4461  0.9385 -1.1630
  104MOL0     H13987  10.509   7.738   5.670 -2.1629  1.9703 -1.1840
  104MOL0     H13988  10.514   7.708   5.495  2.5219  3.8175  2.3936
  104MOL0     H13989  10.244   7.634   5.583 -0.7479 -0.1090 -3.2852
  104MOL0     H13990  10.279   7.767   5.487  0.8451  0.6663 -0.7224
  104MOL0     H13991  10.378   7.999   5.665 -0.4155 -0.6950  0.3422
  104MOL0     H13992  10.331   8.131   5.883 -0.7454 -1.0014 -1.4602
  104MOL0     H13993  10.291   8.045   6.036  2.0603  2.3163  0.5770
  104MOL0     H13994  10.550   8.044   5.896  1.3553  0.5864  0.6707
  104MOL0     H13995  10.534   7.965   6.042 -0.9505 -0.5949  0.1587
  104MOL0     H13996  10.448   8.205   6.131 -1.8077 -1.9020 -0.5141
  104MOL0     H13997  10.487   8.252   5.957 -3.0934 -0.4931 -0.2790
  104MOL0     H13998  10.668   8.187   6.182 -0.4658 -0.8172 -1.2990
  104MOL0     H13999  10.655   8.332   6.079  0.6916  0.5437 -2.0228
  104MOL0     H14000  10.719   8.420   5.915  1.1876 -0.7701  1.4589
  104MOL0     H14001  10.806   8.622   5.867 -0.9192 -2.1875 -0.6055
  104MOL0     H14002  10.975   8.632   5.812  0.2369 -0.2157 -1.2025
  104MOL0     H14003  10.831   8.614   5.697  0.9965 -1.9080 -0.7642
  104MOL0     H14004  11.361   8.199   5.516 -0.9644  1.3544  1.3285
  104MOL0     H14005  11.545   8.226   5.332  0.0455  0.8083 -1.8584
  104MOL0     H14006  11.759   8.425   5.355  4.5145  2.1409 -0.8241
  104MOL0     H14007  11.725   8.301   5.226  0.5853  0.4431 -1.7093
  104MOL0     H14008  11.906   8.383   5.146 -3.7469 -2.4626 -1.4126
  104MOL0     H14009  11.795   8.489   5.060 -1.4574 -1.9530  0.8739
  104MOL0     H14010  11.966   8.551   5.299 -0.4662 -1.2323 -0.5052
  104MOL0     H14011  11.830   8.654   5.265  1.8311  1.4322 -0.5832
  104MOL0     H14012  12.053   8.583   5.079  0.5684 -0.6124  1.3307
  104MOL0     H14013  11.917   8.672   5.017  1.1665 -1.6976 -0.6155
  104MOL0     H14014  12.138   8.750   5.217  1.0747 -1.1468 -2.1026
  104MOL0     H14015  11.987   8.849   5.192  0.4777  1.9324 -1.1712
  104MOL0     H14016  12.081   8.811   4.933 -0.7550  0.7849 -0.4962
  104MOL0     H14017  12.151   8.947   5.021 -2.6978  0.5457 -2.5655
  104MOL0     H14018  12.242   8.659   4.977  0.9355 -0.3949 -2.4025
  104MOL0     H14019  12.326   8.760   5.096 -2.5533  1.5980  0.6405
  104MOL0     H14020  12.344   8.928   4.897 -2.5155 -0.6939  3.8646
  104MOL0     H14021  12.302   8.777   4.792  0.2838 -0.4091 -0.3039
  104MOL0     H14022  11.435   8.629   5.295 -1.5582 -0.1801  0.6163
  104MOL0     H14023  11.237   8.598   5.424  1.5735  0.2103  0.2434
  104MOL0     H14024  11.097   8.171   5.720  2.4853  0.8318  0.7737
  104MOL0     H14025  10.953   8.060   5.877 -0.5782 -0.4867 -2.1964
  104MOL0     H14026  11.174   7.590   5.813 -1.2159  1.4802 -1.2488
  104MOL0     H14027  11.349   7.611   5.653 -0.9006 -1.0479  2.0294
  104MOL0     H14028  11.485   7.954   5.163 -2.0275  1.0863 -1.6891
  104MOL0     H14029  11.622   7.892   4.943 -2.4874  2.2612 -0.8154
  104MOL0     H14030  11.814   7.624   4.892 -0.8011 -0.4246  2.2819
  104MOL0     H14031  11.693   7.497   4.952  1.5872 -0.8750 -0.3189
  104MOL0     H14032  11.696   7.394   4.734 -0.3531 -0.1595 -1.6384
  104MOL0     H14033  11.858   7.428   4.767 -0.5165 -1.7227  0.2896
  104MOL0     H14034  11.828   7.660   4.647  2.5538 -1.0533  1.3833
  104MOL0     H14035  11.680   7.603   4.584  1.0847  0.4122 -1.7173
  104MOL0     H14036  11.962   7.483   4.531  0.2725  0.6808  1.2311
  104MOL0     H14037  11.844   7.561   4.416 -1.7148 -2.0316 -0.9844
  104MOL0     H14038  11.736   7.184   4.337  2.3334 -0.8132  0.4456
  104MOL0     H14039  11.444   7.494   4.989 -1.9864  1.1684 -0.7068
  104MOL0     H14040  11.354   7.548   5.192 -0.4067 -0.1182 -1.4076
  105MOL0     O14041   7.726   2.155   9.816  0.0394 -0.6367 -0.8640
  105MOL0     C14042   7.719   2.205   9.928  0.3408 -0.8114 -0.3890
  105MOL0     O14043   7.660   2.320   9.951 -0.3917 -0.5227  0.5682
  105MOL0     C14044   7.562   2.367   9.873 -0.1990  0.1110 -0.1672
  105MOL0     C14045   7.588   2.470   9.783  0.3844  0.0178  0.3213
  105MOL0     C14046   7.499   2.520   9.698 -0.0284 -0.2170  0.4538
  105MOL0     C14047   7.365   2.474   9.694  0.2366 -0.2072 -0.4460
  105MOL0     O14048   7.263   2.537   9.625  0.2420 -0.3103 -0.3272
  105MOL0     C14049   7.231   2.476   9.495 -0.3581 -0.2840  0.0670
  105MOL0     C14050   7.285   2.568   9.384 -0.2648 -0.0529  0.1294
  105MOL0     C14051   7.289   2.504   9.247  1.1374 -0.3516 -0.0995
  105MOL0     C14052   7.147   2.485   9.181 -0.4797 -0.6002 -0.2330
  105MOL0     C14053   7.171   2.443   9.037 -0.1943 -0.1822  0.0649
  105MOL0     C14054   7.220   2.303   9.026 -0.1067  0.9533 -0.0940
  105MOL0     C14055   7.232   2.248   8.885 -0.1752 -0.2366  0.7472
  105MOL0     C14056   7.341   2.317   8.799  0.5518 -0.2358 -0.0725
  105MOL0     N14057   7.467   2.247   8.834  0.1798  1.4774 -0.1534
  105MOL0     C14058   7.541   2.187   8.741  0.7654  0.1529  0.8692
  105MOL0     C14059   7.670   2.191   8.791 -0.4608  0.0575 -0.2928
  105MOL0     C14060   7.792   2.136   8.716 -0.7979 -1.0316 -0.3465
  105MOL0     C14061   7.900   2.246   8.720  0.4040  0.4884 -0.4625
  105MOL0     C14062   7.872   2.350   8.617 -0.9841 -0.7557  0.5782
  105MOL0     C14063   7.886   2.305   8.473 -0.2289  0.4478 -0.6265
  105MOL0     O14064   8.019   2.263   8.446 -0.1554  0.4366  0.0707
  105MOL0     C14065   8.059   2.230   8.320 -0.0178  0.5579  0.0835
  105MOL0     C14066   8.192   2.206   8.291 -0.1249  0.9428 -0.6295
  105MOL0     C14067   8.239   2.171   8.167 -0.3490  0.7776 -0.9547
  105MOL0     C14068   8.380   2.140   8.169 -0.0169  0.1407 -0.2707
  105MOL0     C14069   8.156   2.157   8.055 -0.1473 -0.0348  0.4875
  105MOL0     C14070   8.199   2.120   7.922 -0.6452 -0.5240  0.2725
  105MOL0     O14071   8.126   2.160   7.821  0.3228  0.2148  0.7778
  105MOL0     C14072   8.174   2.171   7.691  1.0194 -0.7906 -0.2305
  105MOL0     C14073   8.115   2.285   7.615 -0.3640 -0.2420  0.0324
  105MOL0     C14074   8.164   2.316   7.488 -1.2135 -0.3979  0.2515
  105MOL0     C14075   8.261   2.249   7.428 -0.6006  0.2206  0.1246
  105MOL0     O14076   8.287   2.283   7.298  0.0916 -0.7201  0.8298
  105MOL0     C14077   8.400   2.212   7.234  0.3318 -0.2390 -0.3558
  105MOL0     C14078   8.440   2.270   7.095  0.1132 -0.9789  0.2306
  105MOL0     C14079   8.503   2.411   7.121 -0.3339 -0.0660  0.7576
  105MOL0     C14080   8.572   2.466   6.996 -0.7862  0.1122  0.0702
  105MOL0     C14081   8.661   2.581   7.035 -0.4127 -0.2355 -0.4126
  105MOL0     C14082   8.802   2.542   7.101 -0.7868  1.2312 -0.4344
  105MOL0     C14083   8.882   2.424   7.038 -0.4163  0.4245 -0.5777
  105MOL0     C14084   8.923   2.455   6.895  0.4658  0.3477  0.5242
  105MOL0    Cl14085   8.999   2.296   6.839 -0.3871 -0.0667  0.1164
  105MOL0     C14086   8.325   2.146   7.503  0.5400  0.2434 -0.4039
  105MOL0     C14087   8.285   2.113   7.635 -0.2648 -1.5550 -0.9115
  105MOL0     O14088   8.292   2.041   7.923 -0.1321 -0.8516 -0.2840
  105MOL0     C14089   8.017   2.188   8.075 -0.1156  0.4165 -0.3002
  105MOL0     C14090   7.979   2.230   8.208 -0.2994 -0.0113 -0.1328
  105MOL0     N14091   7.672   2.232   8.926 -0.8024 -0.0975 -0.6261
  105MOL0     N14092   7.544   2.263   8.944 -0.4479 -0.4711 -0.6400
  105MOL0     C14093   7.340   2.379   9.788 -0.4146 -0.0589 -0.1843
  105MOL0     C14094   7.437   2.321   9.879  0.7732  0.7705 -0.2360
  105MOL0     C14095   7.781   2.123  10.042  0.4316 -0.2088 -0.5335
  105MOL0     C14096   7.770   2.174  10.168  0.3733 -0.6572 -0.5854
  105MOL0     C14097   7.807   2.108  10.286 -0.2946  0.6296  0.0038
  105MOL0     C14098   7.870   1.982  10.272 -0.6712  0.1547 -0.0719
  105MOL0     O14099   7.895   1.908  10.385 -0.2880 -0.3465 -0.9327
  105MOL0     C14100   7.906   1.765  10.376  0.1101  0.8678 -0.5111
  105MOL0     C14101   7.901   1.697  10.518 -0.5041 -0.6777  0.4172
  105MOL0     C14102   7.748   1.698  10.559 -0.7924  0.3845 -0.2458
  105MOL0     C14103   7.738   1.613  10.691  0.6734  0.1853  0.0403
  105MOL0     C14104   7.601   1.569  10.723  1.4425 -1.2925  0.1019
  105MOL0     C14105   7.481   1.559  10.736 -0.4459 -0.3384 -0.8304
  105MOL0     C14106   7.883   1.931  10.139  0.0302 -0.7057 -1.3265
  105MOL0     C14107   7.835   1.992  10.031  0.2767  0.2774  0.1699
  105MOL0     H14108   7.683   2.523   9.786  1.2785 -1.5657  1.1439
  105MOL0     H14109   7.532   2.602   9.636  0.4556 -1.5034 -1.0407
  105MOL0     H14110   7.283   2.380   9.496  3.9882  1.8043  1.1569
  105MOL0     H14111   7.123   2.462   9.499 -0.4105 -1.0866 -2.3335
  105MOL0     H14112   7.232   2.664   9.382 -0.9230 -0.4040  0.3492
  105MOL0     H14113   7.386   2.585   9.421 -1.0114  1.4122  1.6179
  105MOL0     H14114   7.354   2.570   9.190 -0.8622  2.6820  0.8967
  105MOL0     H14115   7.336   2.406   9.256  0.6859 -0.4176  2.1449
  105MOL0     H14116   7.079   2.425   9.242 -0.0892 -0.7953  0.0172
  105MOL0     H14117   7.096   2.581   9.181  1.5537  0.5814  1.9484
  105MOL0     H14118   7.075   2.459   8.986  0.2892 -1.4511 -1.2898
  105MOL0     H14119   7.244   2.514   8.996  1.6576 -1.5792  0.8245
  105MOL0     H14120   7.315   2.273   9.073 -0.7430 -1.5371 -0.2385
  105MOL0     H14121   7.145   2.235   9.066  2.6465 -2.8330 -0.7577
  105MOL0     H14122   7.234   2.140   8.871  2.7685 -0.5473  2.7860
  105MOL0     H14123   7.133   2.272   8.843 -0.4199 -1.9622  0.2909
  105MOL0     H14124   7.346   2.423   8.826  2.3022  0.0538 -1.3236
  105MOL0     H14125   7.329   2.325   8.690  0.5278 -0.0637 -0.0573
  105MOL0     H14126   7.508   2.173   8.639 -3.0990  2.9534  1.5326
  105MOL0     H14127   7.830   2.043   8.758 -0.4331 -1.3795 -1.4095
  105MOL0     H14128   7.759   2.118   8.613  0.3293  2.4567 -1.4643
  105MOL0     H14129   7.994   2.190   8.715 -0.2298 -0.6979  0.2886
  105MOL0     H14130   7.908   2.291   8.819  2.4001 -1.1966  0.2171
  105MOL0     H14131   7.943   2.432   8.629 -1.7999  0.4044 -1.8297
  105MOL0     H14132   7.779   2.407   8.624 -0.9186 -0.3390 -1.4827
  105MOL0     H14133   7.849   2.387   8.411 -0.6139  0.0318 -0.9548
  105MOL0     H14134   7.824   2.216   8.453  2.4842 -1.7111 -0.0675
  105MOL0     H14135   8.257   2.199   8.378  0.5050  0.9172 -1.0959
  105MOL0     H14136   8.438   2.196   8.243 -0.7339 -0.0934  0.4976
  105MOL0     H14137   8.402   2.042   8.211  1.0677  0.2466 -0.5669
  105MOL0     H14138   8.438   2.151   8.077  1.5454  5.7814  0.9760
  105MOL0     H14139   8.040   2.352   7.655  0.4771 -0.8404  2.8052
  105MOL0     H14140   8.125   2.390   7.419  1.2666  1.0009  0.2471
  105MOL0     H14141   8.485   2.210   7.302 -0.9530 -0.0940  1.3271
  105MOL0     H14142   8.372   2.109   7.208 -1.5774 -0.1473  1.0791
  105MOL0     H14143   8.520   2.208   7.055 -1.1655 -2.1980 -0.5462
  105MOL0     H14144   8.363   2.280   7.018  2.5721  0.7467 -2.1702
  105MOL0     H14145   8.586   2.404   7.192  0.8096  2.6999 -0.1633
  105MOL0     H14146   8.435   2.491   7.152  1.2117  1.1565  1.1055
  105MOL0     H14147   8.611   2.386   6.934  1.4789  0.5388  0.8535
  105MOL0     H14148   8.499   2.518   6.933 -2.0542 -0.6554  0.8401
  105MOL0     H14149   8.612   2.665   7.086  1.1603 -0.7659  2.1039
  105MOL0     H14150   8.701   2.619   6.940  3.4002 -0.1772  1.0740
  105MOL0     H14151   8.867   2.628   7.088  0.3385  0.0586 -3.4822
  105MOL0     H14152   8.776   2.517   7.204 -3.4357  1.9003 -0.8757
  105MOL0     H14153   8.817   2.336   7.037 -1.5846  1.2437 -0.0021
  105MOL0     H14154   8.964   2.383   7.097 -1.1505 -0.6101 -0.2335
  105MOL0     H14155   8.993   2.538   6.899  2.2989 -1.1595  1.4953
  105MOL0     H14156   8.832   2.487   6.842 -1.8544 -2.0375  2.7392
  105MOL0     H14157   8.408   2.095   7.456  0.2965 -0.0848 -0.4800
  105MOL0     H14158   8.341   2.038   7.690  1.3548 -1.8319 -2.8115
  105MOL0     H14159   7.945   2.189   7.994 -0.4119 -3.3164 -0.2591
  105MOL0     H14160   7.875   2.258   8.222 -0.1095  0.3432  0.6294
  105MOL0     H14161   7.241   2.336   9.783 -0.3561 -0.1925 -0.1946
  105MOL0     H14162   7.409   2.241   9.948 -2.3455  3.3145  1.7062
  105MOL0     H14163   7.720   2.270  10.179 -0.7574 -1.1707 -1.0872
  105MOL0     H14164   7.797   2.150  10.386 -0.7576 -0.4615  0.4322
  105MOL0     H14165   7.814   1.723  10.334  0.6954 -3.3465  1.8627
  105MOL0     H14166   8.002   1.735  10.333  1.7841  2.7200  1.6665
  105MOL0     H14167   7.965   1.758  10.581  2.4187 -2.4381 -0.6794
  105MOL0     H14168   7.946   1.597  10.518 -0.3799 -0.6512 -1.1269
  105MOL0     H14169   7.675   1.666  10.484  0.1732 -2.7303  0.0122
  105MOL0     H14170   7.719   1.797  10.596 -0.5276  0.0269  0.9517
  105MOL0     H14171   7.794   1.660  10.772 -0.3022 -2.4159  2.4087
  105MOL0     H14172   7.802   1.526  10.674  0.9417  0.0731  1.5244
  105MOL0     H14173   7.385   1.529  10.773  0.4916 -1.7391  0.6158
  105MOL0     H14174   7.930   1.836  10.119  0.2951 -1.1248  1.0613
  105MOL0     H14175   7.861   1.951   9.934  0.0582  0.9930 -0.1997
  106MOL0     O14176   3.023   6.464   7.904 -0.2724  0.0334  0.0357
  106MOL0     C14177   2.982   6.365   7.844 -0.4088 -0.2873 -0.9411
  106MOL0     O14178   2.897   6.370   7.747  0.1921 -0.5068  0.5995
  106MOL0     C14179   2.863   6.487   7.686  0.3035 -0.4627 -0.2035
  106MOL0     C14180   2.735   6.550   7.695  0.3687 -0.4171  0.1791
  106MOL0     C14181   2.714   6.667   7.614 -0.7890 -0.1233  0.7700
  106MOL0     C14182   2.807   6.717   7.528 -0.3688 -0.0622 -0.2889
  106MOL0     O14183   2.774   6.832   7.461  0.3990 -0.4666  0.1265
  106MOL0     C14184   2.789   6.827   7.319  1.1352  0.0145 -0.5716
  106MOL0     C14185   2.784   6.952   7.232 -0.3851  0.2681 -0.7653
  106MOL0     C14186   2.670   7.046   7.296 -1.2947 -0.1577  0.9069
  106MOL0     C14187   2.666   7.175   7.211  0.0016 -0.0994 -0.0676
  106MOL0     C14188   2.545   7.268   7.222  0.2948  0.1445  0.5361
  106MOL0     C14189   2.547   7.384   7.115  0.5252  0.2716 -0.5159
  106MOL0     C14190   2.549   7.326   6.969  0.6802  0.7968 -0.5490
  106MOL0     C14191   2.437   7.218   6.937 -0.1280 -0.5850  0.3118
  106MOL0     N14192   2.453   7.171   6.805 -0.7928 -0.2577  0.7198
  106MOL0     C14193   2.503   7.046   6.765 -0.4082  0.4289  0.3239
  106MOL0     C14194   2.460   7.029   6.631  0.5175  0.0015 -0.4559
  106MOL0     C14195   2.478   6.908   6.544 -0.9760 -0.6657 -0.5277
  106MOL0     C14196   2.625   6.872   6.513 -0.8092  0.2755 -0.4739
  106MOL0     C14197   2.649   6.763   6.415  0.3600 -0.1179  0.3318
  106MOL0     C14198   2.610   6.631   6.481  0.2242  0.4264 -0.3002
  106MOL0     O14199   2.686   6.613   6.599 -0.3448  0.5437 -0.1993
  106MOL0     C14200   2.682   6.482   6.648 -0.5491 -0.4097  1.0024
  106MOL0     C14201   2.564   6.400   6.639 -0.2962 -0.0083 -0.0375
  106MOL0     C14202   2.580   6.267   6.699  0.7943 -0.6984  0.0918
  106MOL0     C14203   2.455   6.190   6.691  0.9803 -0.2311  0.5339
  106MOL0     C14204   2.700   6.220   6.758 -0.0295  0.3194 -0.3646
  106MOL0     C14205   2.703   6.079   6.810 -0.0902  0.1016 -0.6622
  106MOL0     O14206   2.810   6.000   6.786 -0.4683 -0.3438 -0.4902
  106MOL0     C14207   2.821   5.867   6.831  0.5126  0.2588  0.6776
  106MOL0     C14208   2.917   5.780   6.778  0.4922 -0.7009  0.6952
  106MOL0     C14209   2.937   5.654   6.830 -0.0926  0.3264 -0.3514
  106MOL0     C14210   2.860   5.604   6.931  0.0678 -0.5105 -0.7134
  106MOL0     O14211   2.871   5.475   6.971 -0.5320  0.5354  0.0463
  106MOL0     C14212   2.767   5.394   7.033 -0.4725  0.8546  0.1258
  106MOL0     C14213   2.855   5.287   7.106 -0.2194 -0.1446  0.5417
  106MOL0     C14214   2.893   5.339   7.239  0.9230 -0.5874  0.2039
  106MOL0     C14215   3.003   5.252   7.298 -0.0744 -0.9887  0.1918
  106MOL0     C14216   3.014   5.274   7.446 -0.1236 -0.3783  1.3566
  106MOL0     C14217   3.092   5.157   7.517  0.4169 -0.2399 -0.7874
  106MOL0     C14218   3.083   5.154   7.668  0.4719  0.0177  0.9042
  106MOL0     C14219   3.127   5.022   7.724  0.1007  0.1918  0.0019
  106MOL0    Cl14220   2.986   4.923   7.735  0.0714 -0.1570  0.0707
  106MOL0     C14221   2.761   5.684   6.986  0.6971  0.3242  0.3609
  106MOL0     C14222   2.747   5.821   6.941 -0.5619  0.8389 -0.8106
  106MOL0     O14223   2.614   6.060   6.894 -0.2182 -0.0870 -0.4136
  106MOL0     C14224   2.807   6.306   6.772  1.0979  0.6232  0.3849
  106MOL0     C14225   2.798   6.429   6.719  0.3830 -0.6630 -0.0180
  106MOL0     N14226   2.390   7.147   6.595 -0.2048 -0.8428 -0.2450
  106MOL0     N14227   2.388   7.230   6.699 -0.0372 -0.0756  0.5586
  106MOL0     C14228   2.934   6.658   7.532 -0.5610  0.5762 -1.4369
  106MOL0     C14229   2.961   6.551   7.619  0.2064 -0.2251 -0.0420
  106MOL0     C14230   3.039   6.230   7.865 -0.3386  0.2327  0.5765
  106MOL0     C14231   3.106   6.212   7.986 -0.0931  0.0935 -0.7243
  106MOL0     C14232   3.168   6.094   8.018  0.2987  0.7167  0.8056
  106MOL0     C14233   3.143   5.983   7.938  0.1783 -0.3714  0.9631
  106MOL0     O14234   3.196   5.865   7.966  0.0228  0.0501 -0.2205
  106MOL0     C14235   3.239   5.779   7.859  0.6345 -0.7639  0.1538
  106MOL0     C14236   3.179   5.634   7.856  0.2707 -0.2431 -0.8699
  106MOL0     C14237   3.029   5.630   7.861 -0.4165  0.1434 -0.1037
  106MOL0     C14238   2.964   5.495   7.851 -0.3611 -0.5386 -0.8313
  106MOL0     C14239   3.017   5.396   7.955  0.1107 -0.2351 -0.3720
  106MOL0     C14240   3.062   5.331   8.052 -0.5799  0.4413 -0.2960
  106MOL0     C14241   3.061   5.994   7.822 -0.1810  0.7326 -1.7554
  106MOL0     C14242   3.015   6.123   7.786  0.2085 -0.1465  0.3445
  106MOL0     H14243   2.654   6.508   7.752 -0.9515 -2.0960 -2.6902
  106MOL0     H14244   2.614   6.710   7.612  0.5718  3.3567 -0.7294
  106MOL0     H14245   2.889   6.789   7.294  1.1044 -0.7812  0.4415
  106MOL0     H14246   2.715   6.748   7.304  1.5157 -1.1817  2.9010
  106MOL0     H14247   2.875   7.012   7.246  0.1773 -0.4227 -1.3844
  106MOL0     H14248   2.772   6.922   7.127 -1.8943  1.2759 -0.9176
  106MOL0     H14249   2.575   6.992   7.297 -0.3297 -1.9319  0.2101
  106MOL0     H14250   2.687   7.078   7.400 -0.3593 -1.5291  1.1930
  106MOL0     H14251   2.749   7.242   7.234 -0.2214 -0.0776  0.6936
  106MOL0     H14252   2.665   7.156   7.103 -0.1098  0.9947 -0.2712
  106MOL0     H14253   2.448   7.219   7.212  0.6042 -0.1438 -1.4956
  106MOL0     H14254   2.553   7.315   7.321  0.1608 -1.8186  1.5452
  106MOL0     H14255   2.465   7.452   7.140 -0.2626 -1.5567  2.2705
  106MOL0     H14256   2.633   7.451   7.124  0.4079  0.3171  0.4282
  106MOL0     H14257   2.533   7.410   6.901  1.4773  2.0295  0.7082
  106MOL0     H14258   2.648   7.293   6.937  0.2932 -0.3182 -0.6515
  106MOL0     H14259   2.337   7.263   6.933  1.1902  2.5123  0.3561
  106MOL0     H14260   2.423   7.144   7.017  0.9927  0.0648  1.1381
  106MOL0     H14261   2.554   6.973   6.827  0.3402  0.4773 -0.2296
  106MOL0     H14262   2.426   6.822   6.587  0.8185 -2.2650 -1.3788
  106MOL0     H14263   2.427   6.924   6.449  1.9953 -3.3936 -2.7651
  106MOL0     H14264   2.668   6.844   6.609 -1.9748  0.3640  0.0907
  106MOL0     H14265   2.678   6.956   6.467  1.1250 -2.9599 -4.8741
  106MOL0     H14266   2.751   6.773   6.377  0.3671  1.2629  0.6581
  106MOL0     H14267   2.593   6.788   6.325  0.0865  1.0151  0.8007
  106MOL0     H14268   2.631   6.559   6.402  0.0302  1.5808 -1.4399
  106MOL0     H14269   2.503   6.628   6.506 -0.4889  2.5307 -2.7156
  106MOL0     H14270   2.470   6.427   6.593 -0.6932  1.3206  1.4568
  106MOL0     H14271   2.466   6.084   6.665  1.2785 -1.1785  4.0143
  106MOL0     H14272   2.390   6.215   6.775  2.0069  3.1087  0.4723
  106MOL0     H14273   2.401   6.227   6.604 -0.8709  0.7225  2.0181
  106MOL0     H14274   2.982   5.816   6.699 -1.6570 -2.4681 -2.1019
  106MOL0     H14275   3.018   5.589   6.798  0.1419  1.2261 -1.6705
  106MOL0     H14276   2.704   5.441   7.109  0.5741  2.3874  0.0898
  106MOL0     H14277   2.699   5.345   6.963  1.7733 -0.2487 -1.4087
  106MOL0     H14278   2.800   5.192   7.109 -1.1705  0.3919  0.3910
  106MOL0     H14279   2.943   5.263   7.045  0.1812 -0.7140  1.3177
  106MOL0     H14280   2.799   5.333   7.294 -0.0571 -4.6658 -1.5047
  106MOL0     H14281   2.919   5.445   7.238  1.5830 -0.7317  0.7960
  106MOL0     H14282   2.977   5.148   7.275 -1.3426 -0.1640 -2.5761
  106MOL0     H14283   3.095   5.283   7.248 -2.2675  0.8747 -3.0702
  106MOL0     H14284   2.916   5.305   7.484 -0.3565  0.8319 -0.1224
  106MOL0     H14285   3.070   5.365   7.472 -1.6137  0.7682  0.6994
  106MOL0     H14286   3.033   5.070   7.486 -0.0458  0.3427 -1.6020
  106MOL0     H14287   3.197   5.146   7.486  0.5739  0.7471 -0.6401
  106MOL0     H14288   2.978   5.165   7.697 -0.7781 -1.8964 -2.3684
  106MOL0     H14289   3.143   5.239   7.700  0.8127  1.0326 -2.1195
  106MOL0     H14290   3.165   5.030   7.827 -1.7548 -1.2337  0.8657
  106MOL0     H14291   3.208   4.983   7.661 -1.1083 -2.2285 -0.1382
  106MOL0     H14292   2.696   5.671   7.072  0.6754 -1.2704  0.1241
  106MOL0     H14293   2.683   5.881   7.004  0.6495  1.3876 -0.0651
  106MOL0     H14294   2.884   6.273   6.841  2.0253 -1.7362 -1.6503
  106MOL0     H14295   2.880   6.499   6.727 -0.6883  0.6766 -0.2898
  106MOL0     H14296   3.015   6.703   7.476 -0.1510  3.5389  1.2189
  106MOL0     H14297   3.060   6.507   7.619 -0.9801 -3.1695 -1.6090
  106MOL0     H14298   3.103   6.301   8.047 -0.2624  2.0699 -3.4042
  106MOL0     H14299   3.231   6.081   8.105  2.8201 -0.0830 -1.0258
  106MOL0     H14300   3.235   5.839   7.767 -1.2540  4.2719  3.1085
  106MOL0     H14301   3.347   5.769   7.874  1.0124  3.5157  1.4628
  106MOL0     H14302   3.211   5.579   7.945  1.4768  2.4408  0.4805
  106MOL0     H14303   3.205   5.581   7.765 -0.6235  2.6921 -2.9936
  106MOL0     H14304   2.985   5.677   7.773  1.7921  3.1536  0.2104
  106MOL0     H14305   2.998   5.685   7.951 -0.6176  0.2125 -0.2143
  106MOL0     H14306   2.974   5.454   7.750 -2.7789 -1.6809 -0.6881
  106MOL0     H14307   2.857   5.502   7.873  0.0058  2.2105  0.4306
  106MOL0     H14308   3.077   5.265   8.134 -0.9737  2.7461  1.7531
  106MOL0     H14309   3.034   5.905   7.765  2.9363 -2.7411  1.5801
  106MOL0     H14310   2.952   6.135   7.699  1.6386  2.0907 -0.4614
  107MOL0     O14311  10.353   6.050  10.183  0.8350 -0.3972 -0.3189
  107MOL0     C14312  10.331   6.147  10.104  1.2568  0.0613  0.3985
  107MOL0     O14313  10.243   6.155   9.996  0.7480  0.4714 -0.2483
  107MOL0     C14314  10.171   6.046   9.954 -1.3754  0.2521 -0.7236
  107MOL0     C14315  10.140   6.033   9.820  0.3601  0.2244  0.0986
  107MOL0     C14316  10.049   5.938   9.776 -0.9156 -0.2528  0.5663
  107MOL0     C14317   9.991   5.840   9.857 -0.6430 -0.8251  0.3438
  107MOL0     O14318   9.885   5.758   9.831 -0.6579 -0.0316 -0.7039
  107MOL0     C14319   9.935   5.627   9.810 -0.8585  0.3868  0.4362
  107MOL0     C14320   9.841   5.525   9.758  0.7999 -0.8993  0.5942
  107MOL0     C14321   9.726   5.506   9.857  0.5400  0.8430  0.6158
  107MOL0     C14322   9.683   5.359   9.827 -0.9422  0.5615  0.6600
  107MOL0     C14323   9.612   5.306   9.943 -0.7882  0.6365 -0.0489
  107MOL0     C14324   9.488   5.396   9.977  0.4075  0.4721  0.8146
  107MOL0     C14325   9.408   5.316  10.086 -0.4402 -0.2496  1.0227
  107MOL0     C14326   9.485   5.321  10.224 -0.1322  1.0144  0.2563
  107MOL0     N14327   9.407   5.268  10.335  0.3661  0.0855 -0.2453
  107MOL0     C14328   9.341   5.144  10.340 -0.0384  0.6631  0.6216
  107MOL0     C14329   9.322   5.118  10.475 -0.8107 -0.3646 -0.3605
  107MOL0     C14330   9.254   4.993  10.526 -0.3151  0.2913  0.1410
  107MOL0     C14331   9.342   4.869  10.543  0.2355 -0.1785 -0.2026
  107MOL0     C14332   9.285   4.752  10.629 -0.3785  0.4981  0.0445
  107MOL0     C14333   9.261   4.795  10.775 -1.3192  0.0746  0.7947
  107MOL0     O14334   9.365   4.877  10.819  0.1705  0.5067 -0.3635
  107MOL0     C14335   9.375   4.901  10.956  0.1907  0.5765  0.6581
  107MOL0     C14336   9.264   4.931  11.037  0.4711  0.0148 -0.3197
  107MOL0     C14337   9.269   4.980  11.179 -0.3388 -0.2197 -0.5911
  107MOL0     C14338   9.133   5.013  11.244  0.7587  0.0691 -0.4024
  107MOL0     C14339   9.399   5.015  11.216 -0.5218  0.1264  0.5006
  107MOL0     C14340   9.436   5.083  11.339  0.9521  0.0773 -0.0867
  107MOL0     O14341   9.337   5.084  11.430 -0.5519  0.6762 -1.2668
  107MOL0     C14342   9.369   5.106  11.564  0.4166  0.5919  0.0432
  107MOL0     C14343   9.299   5.194  11.641  0.3293  0.7972 -0.5388
  107MOL0     C14344   9.321   5.228  11.776  0.5187  0.8267  0.5382
  107MOL0     C14345   9.417   5.155  11.841 -0.1268 -0.0888 -0.4678
  107MOL0     O14346   9.447   5.161  11.975 -0.3054  0.6933 -0.3092
  107MOL0     C14347   9.335   5.141  12.068  1.0259 -0.1348 -0.1805
  107MOL0     C14348   9.384   5.162  12.214  0.5552  0.9251 -0.2304
  107MOL0     C14349   9.495   5.270  12.221 -0.4602 -0.1590  0.6158
  107MOL0     C14350   9.436   5.405  12.183  0.6218 -0.3002 -0.6092
  107MOL0     C14351   9.507   5.523  12.254 -0.9069  0.5931  0.5697
  107MOL0     C14352   9.644   5.532  12.212 -0.4368 -0.0360 -0.2986
  107MOL0     C14353   9.706   5.659  12.267  0.1032  0.3829  0.3710
  107MOL0     C14354   9.848   5.670  12.240  0.3578 -0.3040 -1.2397
  107MOL0    Cl14355   9.906   5.838  12.274  0.5589  0.0662  0.2992
  107MOL0     C14356   9.503   5.068  11.762  0.0139 -0.1992 -0.7604
  107MOL0     C14357   9.473   5.047  11.630  0.0122  1.2995 -0.2156
  107MOL0     O14358   9.550   5.115  11.358  0.0133  0.0416 -0.0775
  107MOL0     C14359   9.508   4.990  11.131 -0.1204  0.2799 -0.5747
  107MOL0     C14360   9.501   4.935  11.004  0.3156 -0.7214  0.4337
  107MOL0     N14361   9.402   5.202  10.546 -0.3266  1.3861 -0.0514
  107MOL0     N14362   9.442   5.295  10.465 -0.4758 -0.2190 -0.4033
  107MOL0     C14363  10.024   5.851   9.992 -0.3410 -0.2262  0.8999
  107MOL0     C14364  10.124   5.942  10.034 -0.4905 -0.1594  0.1205
  107MOL0     C14365  10.398   6.273  10.130  0.3235  0.0586 -0.4009
  107MOL0     C14366  10.525   6.277  10.187  0.3803  0.0747  1.0312
  107MOL0     C14367  10.574   6.389  10.243  0.2157  0.2271 -0.8227
  107MOL0     C14368  10.503   6.511  10.228 -0.7256  0.1916 -0.2315
  107MOL0     O14369  10.560   6.620  10.271 -0.2715 -0.1674 -0.1420
  107MOL0     C14370  10.695   6.634  10.300 -0.0612 -0.4550  0.3267
  107MOL0     C14371  10.727   6.605  10.443 -0.0554  0.7534  0.8595
  107MOL0     C14372  10.874   6.559  10.447 -0.1830 -0.0509 -1.1123
  107MOL0     C14373  10.916   6.533  10.593 -0.5567 -0.1390 -0.2678
  107MOL0     C14374  11.016   6.435  10.626  0.5006  0.1416 -1.4626
  107MOL0     C14375  11.095   6.341  10.640 -0.6125 -0.2082 -0.1427
  107MOL0     C14376  10.389   6.510  10.156  0.0632 -0.9485  0.0892
  107MOL0     C14377  10.321   6.398  10.120 -0.6610 -0.3858 -1.3146
  107MOL0     H14378  10.190   6.103   9.754  2.3310 -1.3705 -0.2330
  107MOL0     H14379  10.017   5.941   9.672  1.7032 -1.8722 -0.3679
  107MOL0     H14380  10.015   5.636   9.735 -1.0724  1.4413  0.3123
  107MOL0     H14381   9.985   5.597   9.903 -0.7825  0.9610  0.5918
  107MOL0     H14382   9.812   5.570   9.662  2.0857 -4.0561 -1.4418
  107MOL0     H14383   9.884   5.426   9.738 -3.7515 -3.3999  1.8718
  107MOL0     H14384   9.768   5.511   9.958  1.9204 -5.0828  0.6853
  107MOL0     H14385   9.647   5.582   9.852 -2.0744 -1.6524  0.6316
  107MOL0     H14386   9.621   5.348   9.737 -0.0584 -1.2534  0.2353
  107MOL0     H14387   9.773   5.297   9.823 -1.7212 -0.9008  3.4064
  107MOL0     H14388   9.579   5.208   9.908 -0.2369  0.3329  0.2639
  107MOL0     H14389   9.682   5.287  10.025  1.2093  2.0543 -1.3269
  107MOL0     H14390   9.526   5.490  10.019  2.4981  1.3400 -2.6184
  107MOL0     H14391   9.427   5.431   9.893  2.9281  1.9734 -0.5168
  107MOL0     H14392   9.309   5.355  10.111 -0.0100  2.8175 -1.5159
  107MOL0     H14393   9.388   5.215  10.047  3.3702 -0.0416 -2.1217
  107MOL0     H14394   9.532   5.412  10.263  4.9782 -1.1102 -0.2397
  107MOL0     H14395   9.567   5.250  10.216  0.9150  2.2300 -6.7924
  107MOL0     H14396   9.295   5.092  10.257  1.3803 -0.9172  0.7612
  107MOL0     H14397   9.206   5.021  10.620 -0.6551 -2.3697  0.8484
  107MOL0     H14398   9.173   4.954  10.463 -0.2637 -1.3174  1.0110
  107MOL0     H14399   9.445   4.892  10.573  0.4993 -0.6867 -0.6999
  107MOL0     H14400   9.358   4.827  10.443 -1.9030  0.7520 -0.9892
  107MOL0     H14401   9.361   4.674  10.635  0.0215  0.5121 -3.3109
  107MOL0     H14402   9.193   4.708  10.589  2.5405 -4.9122 -1.6988
  107MOL0     H14403   9.259   4.709  10.842 -1.8725  1.3278  2.4384
  107MOL0     H14404   9.167   4.851  10.769 -1.1927  0.1349 -2.2511
  107MOL0     H14405   9.161   4.910  11.011  0.2948  0.9280 -0.3837
  107MOL0     H14406   9.054   5.001  11.169  1.3260  2.7486 -1.5438
  107MOL0     H14407   9.099   4.947  11.325  1.6343  0.2291  0.1051
  107MOL0     H14408   9.146   5.114  11.285  0.1117 -1.2970  3.6770
  107MOL0     H14409   9.219   5.259  11.605 -2.9210 -1.3980  2.1186
  107MOL0     H14410   9.261   5.295  11.838  0.2581 -0.6655  1.9483
  107MOL0     H14411   9.259   5.214  12.039 -1.3804 -2.4803 -0.2175
  107MOL0     H14412   9.290   5.042  12.051 -3.1378  1.3223  0.9760
  107MOL0     H14413   9.301   5.195  12.278  1.9368 -0.0714  2.2373
  107MOL0     H14414   9.427   5.067  12.246  1.6164  0.9148 -1.6296
  107MOL0     H14415   9.579   5.251  12.154  0.0685  1.2858  0.8389
  107MOL0     H14416   9.536   5.264  12.322  0.2368 -3.6565  0.2460
  107MOL0     H14417   9.430   5.400  12.074 -2.5002  2.8991 -0.7576
  107MOL0     H14418   9.331   5.408  12.214  0.5958 -1.4701 -0.5380
  107MOL0     H14419   9.509   5.523  12.364 -0.8395  0.3234  0.5713
  107MOL0     H14420   9.456   5.613  12.220 -2.2902 -0.7503 -1.0640
  107MOL0     H14421   9.699   5.442  12.242 -3.7410 -1.9382  0.4687
  107MOL0     H14422   9.639   5.541  12.103  0.2998  1.9653 -0.2118
  107MOL0     H14423   9.680   5.671  12.372 -1.4796 -1.1845  0.2194
  107MOL0     H14424   9.655   5.743  12.220 -0.6109 -0.7266 -0.9506
  107MOL0     H14425   9.860   5.648  12.134 -2.5173 -0.1796 -1.6788
  107MOL0     H14426   9.895   5.594  12.303  0.0837 -0.4776 -1.2426
  107MOL0     H14427   9.578   5.013  11.816 -1.1544 -1.3274 -0.2280
  107MOL0     H14428   9.524   4.967  11.577  3.5581  3.5741 -0.6141
  107MOL0     H14429   9.608   5.003  11.171  0.1837 -1.6482 -0.6146
  107MOL0     H14430   9.599   4.932  10.958  1.5217  3.4777  2.2586
  107MOL0     H14431   9.983   5.782  10.065 -0.8529 -1.2195 -0.2945
  107MOL0     H14432  10.131   5.940  10.143 -1.4778 -2.4740  0.1987
  107MOL0     H14433  10.590   6.190  10.196 -0.2119 -0.4220  0.6451
  107MOL0     H14434  10.678   6.385  10.276 -0.5802 -1.9873  1.7962
  107MOL0     H14435  10.761   6.571  10.239  1.1032 -2.8251  3.6943
  107MOL0     H14436  10.733   6.733  10.275  1.0855 -0.4764  1.7783
  107MOL0     H14437  10.662   6.522  10.472  2.0629 -0.6181  1.9377
  107MOL0     H14438  10.717   6.687  10.514 -2.1438  1.5905 -0.3275
  107MOL0     H14439  10.936   6.633  10.395  1.8561 -0.5471  0.5005
  107MOL0     H14440  10.895   6.476  10.379  0.5222 -1.2218  0.4737
  107MOL0     H14441  10.824   6.504  10.644 -1.1027  0.7429 -0.7448
  107MOL0     H14442  10.938   6.629  10.640 -1.0460 -0.7732  1.3193
  107MOL0     H14443  11.168   6.263  10.627 -0.0725  0.2227  0.2606
  107MOL0     H14444  10.345   6.608  10.137 -2.6169 -1.5196  2.6028
  107MOL0     H14445  10.222   6.407  10.078 -1.4432 -1.5331  0.1872
  108MOL0     O14446   9.997   1.119   7.175  0.3949 -0.1594  0.3994
  108MOL0     C14447   9.986   1.001   7.201  0.5257 -0.6355  1.5071
  108MOL0     O14448  10.036   0.904   7.128  0.4081  0.2386  0.4150
  108MOL0     C14449  10.032   0.910   6.994 -0.0561  1.0053 -0.4296
  108MOL0     C14450   9.924   0.970   6.921 -0.9069 -0.3271  0.0412
  108MOL0     C14451   9.913   0.942   6.783  0.1868  0.0337 -0.3708
  108MOL0     C14452  10.010   0.878   6.711  0.0283  0.2988 -0.5397
  108MOL0     O14453  10.002   0.861   6.575 -0.5756 -0.5463  0.5466
  108MOL0     C14454   9.931   0.950   6.481  0.1962 -1.0425 -0.4866
  108MOL0     C14455  10.006   0.968   6.346  0.1573 -0.2367 -0.9308
  108MOL0     C14456  10.142   1.025   6.346 -0.0105  0.5228  0.1626
  108MOL0     C14457  10.138   1.181   6.345 -0.2697 -0.0878 -0.2466
  108MOL0     C14458  10.286   1.221   6.376 -0.4144  0.1684  0.5340
  108MOL0     C14459  10.303   1.362   6.434  0.4070  0.6465 -0.1979
  108MOL0     C14460  10.238   1.478   6.350  0.9697 -0.0381  0.1326
  108MOL0     C14461  10.301   1.616   6.373 -0.0332  0.0072 -0.2947
  108MOL0     N14462  10.268   1.671   6.506 -0.1127  1.0498  0.6220
  108MOL0     C14463  10.282   1.608   6.635 -0.6493 -0.8538  0.3546
  108MOL0     C14464  10.238   1.712   6.716  0.0038  0.4195 -0.1601
  108MOL0     C14465  10.248   1.696   6.872  0.3967 -0.3756  0.6396
  108MOL0     C14466  10.125   1.629   6.944  0.1969  0.7674 -0.3866
  108MOL0     C14467  10.164   1.517   7.044 -0.0410 -0.0639  0.6662
  108MOL0     C14468  10.180   1.556   7.190  0.4721 -0.0394  0.3720
  108MOL0     O14469  10.230   1.444   7.277  1.1082 -0.4609  0.6023
  108MOL0     C14470  10.204   1.439   7.412  0.2598  0.0450  0.9865
  108MOL0     C14471  10.245   1.319   7.474  0.5904 -0.0519  1.1551
  108MOL0     C14472  10.258   1.309   7.615  0.2906  0.1835 -0.0446
  108MOL0     C14473  10.344   1.189   7.666 -0.0174  0.0325  0.8197
  108MOL0     C14474  10.201   1.417   7.695 -1.5223  0.9406  0.3347
  108MOL0     C14475  10.212   1.411   7.834  0.1764 -0.4318 -0.6746
  108MOL0     O14476  10.264   1.522   7.906 -0.8421 -0.3656 -0.2599
  108MOL0     C14477  10.230   1.541   8.041  0.5912 -0.3890 -0.2907
  108MOL0     C14478  10.313   1.601   8.128 -0.0772 -0.4610  0.2778
  108MOL0     C14479  10.289   1.618   8.267 -0.2094  0.3027  0.4786
  108MOL0     C14480  10.163   1.591   8.307 -1.2547  0.0939  0.0524
  108MOL0     O14481  10.119   1.611   8.432 -0.0357 -0.0765  0.6837
  108MOL0     C14482  10.126   1.750   8.476  0.1332  0.8837 -0.4571
  108MOL0     C14483  10.060   1.768   8.616  0.3923  0.1391 -0.1859
  108MOL0     C14484  10.134   1.692   8.726  0.4102 -0.1293  0.8438
  108MOL0     C14485  10.262   1.752   8.764  0.4530  0.1770 -0.5275
  108MOL0     C14486  10.332   1.669   8.879  0.1799  0.7710  0.0793
  108MOL0     C14487  10.372   1.525   8.851  0.1304  1.0546 -0.2490
  108MOL0     C14488  10.450   1.459   8.972 -0.2038 -0.0445  0.4165
  108MOL0     C14489  10.474   1.315   8.913 -0.0982 -0.2792  1.0298
  108MOL0    Cl14490  10.335   1.211   8.893 -0.0101 -0.2363 -0.0937
  108MOL0     C14491  10.061   1.542   8.225 -0.3684 -0.6419  0.1969
  108MOL0     C14492  10.095   1.511   8.093 -0.7080  1.0791 -0.2511
  108MOL0     O14493  10.168   1.303   7.879 -0.8797 -0.7446  0.9798
  108MOL0     C14494  10.156   1.533   7.633 -0.6256 -0.2183 -0.0286
  108MOL0     C14495  10.160   1.544   7.491 -0.3489 -0.1036 -0.7314
  108MOL0     N14496  10.184   1.819   6.642  0.6829 -0.3674  1.1040
  108MOL0     N14497  10.203   1.785   6.520  0.8587  0.1362  0.5366
  108MOL0     C14498  10.121   0.826   6.773 -0.3904 -0.3768 -0.0005
  108MOL0     C14499  10.140   0.851   6.915  0.0773 -0.2727 -0.3390
  108MOL0     C14500   9.945   0.953   7.336  0.2016  0.0465 -0.1053
  108MOL0     C14501   9.982   1.032   7.438 -0.0880 -0.3366 -0.0934
  108MOL0     C14502   9.962   0.992   7.575  0.9183 -0.3524  0.4119
  108MOL0     C14503   9.878   0.878   7.600  0.1890  0.2271  0.3113
  108MOL0     O14504   9.849   0.834   7.722 -0.3850  0.5429 -0.6288
  108MOL0     C14505   9.893   0.904   7.841 -0.1317 -0.4544 -0.5441
  108MOL0     C14506   9.840   1.046   7.858  0.2325 -0.8403  0.5646
  108MOL0     C14507   9.816   1.078   8.003  1.0254 -0.5602 -0.9638
  108MOL0     C14508   9.940   1.099   8.083 -0.6918 -0.3091 -0.9360
  108MOL0     C14509   9.890   1.149   8.210  0.4253  1.0012 -0.0502
  108MOL0     C14510   9.849   1.197   8.321 -0.3956  0.9208  0.7630
  108MOL0     C14511   9.841   0.791   7.494  0.1250  1.3131 -0.4536
  108MOL0     C14512   9.883   0.827   7.364  0.6759 -0.0870 -0.7129
  108MOL0     H14513   9.843   1.021   6.972  1.0473  1.8755  1.1426
  108MOL0     H14514   9.832   0.985   6.725 -1.1575 -1.5730  0.2423
  108MOL0     H14515   9.832   0.908   6.458 -1.0539  2.6092 -2.5837
  108MOL0     H14516   9.917   1.051   6.520  1.8820  0.5445 -3.6588
  108MOL0     H14517  10.012   0.864   6.311  2.1070 -0.0104 -1.3690
  108MOL0     H14518   9.954   1.029   6.272  1.6967  2.2752 -0.0653
  108MOL0     H14519  10.189   0.988   6.438  0.3836  1.1505  0.2178
  108MOL0     H14520  10.207   0.995   6.263  1.0056 -2.7106  1.9484
  108MOL0     H14521  10.106   1.220   6.248  1.7612  0.3514 -0.7845
  108MOL0     H14522  10.078   1.216   6.430 -0.1962  0.3780 -0.3888
  108MOL0     H14523  10.328   1.155   6.453  0.0816 -0.4617 -0.2517
  108MOL0     H14524  10.337   1.212   6.279 -3.8182  0.6546 -1.4549
  108MOL0     H14525  10.246   1.365   6.527 -0.8677 -0.5611 -0.8906
  108MOL0     H14526  10.411   1.376   6.446  0.3458  1.1344 -0.2209
  108MOL0     H14527  10.253   1.459   6.243  1.2765  5.0816 -1.0029
  108MOL0     H14528  10.131   1.480   6.371  1.3487  0.1728  2.1817
  108MOL0     H14529  10.273   1.687   6.295  0.8857  1.7242  0.8982
  108MOL0     H14530  10.408   1.594   6.359 -0.2078 -0.8861 -0.3087
  108MOL0     H14531  10.316   1.512   6.673 -2.0953 -1.3764  0.3817
  108MOL0     H14532  10.341   1.643   6.890  0.9323 -0.7022 -2.5468
  108MOL0     H14533  10.262   1.796   6.915 -2.7351  0.5775 -0.2848
  108MOL0     H14534  10.066   1.573   6.870 -1.7751 -1.4067  2.6093
  108MOL0     H14535  10.058   1.699   6.993 -1.0615 -0.5645 -0.1494
  108MOL0     H14536  10.252   1.457   7.018 -0.6932 -2.8513  4.1055
  108MOL0     H14537  10.079   1.448   7.044  1.1729 -1.6171  1.0262
  108MOL0     H14538  10.081   1.582   7.227  1.5699  0.1389  3.4975
  108MOL0     H14539  10.253   1.637   7.204  0.9931 -0.9175  3.6123
  108MOL0     H14540  10.285   1.243   7.408 -3.2280 -0.8527 -0.5516
  108MOL0     H14541  10.408   1.239   7.739 -0.3739  2.3536 -0.3697
  108MOL0     H14542  10.288   1.110   7.718 -0.5603  1.6561  2.8466
  108MOL0     H14543  10.401   1.145   7.584 -1.7196 -1.5092  0.3724
  108MOL0     H14544  10.415   1.606   8.091 -0.6488 -2.7013 -1.8937
  108MOL0     H14545  10.374   1.665   8.313  1.3961 -1.1639 -0.8339
  108MOL0     H14546  10.232   1.777   8.481  0.4593 -0.5025  0.9470
  108MOL0     H14547  10.087   1.820   8.402 -0.9885  2.0813  1.2001
  108MOL0     H14548  10.040   1.871   8.649 -2.1297 -0.8941  1.8650
  108MOL0     H14549   9.963   1.718   8.619  0.7925 -0.6156  0.7710
  108MOL0     H14550  10.147   1.591   8.688  3.3535  1.4339 -2.9214
  108MOL0     H14551  10.064   1.691   8.810 -2.2256  0.2778 -1.2424
  108MOL0     H14552  10.333   1.748   8.680 -1.7360  2.2328 -2.6267
  108MOL0     H14553  10.239   1.858   8.775 -2.5179  0.1721 -4.4685
  108MOL0     H14554  10.253   1.657   8.954  0.0987  0.3118 -0.0799
  108MOL0     H14555  10.412   1.720   8.933 -1.6659  4.1177 -0.0558
  108MOL0     H14556  10.274   1.477   8.846  0.3342  0.1794  2.3988
  108MOL0     H14557  10.429   1.520   8.758  3.1699 -0.1376  1.5130
  108MOL0     H14558  10.391   1.474   9.062 -0.3971  0.5775  0.1968
  108MOL0     H14559  10.543   1.516   8.972  0.1136 -0.5479 -0.1044
  108MOL0     H14560  10.530   1.255   8.984 -3.2346 -0.9496  3.1633
  108MOL0     H14561  10.528   1.336   8.821 -2.0122  0.5698  0.0286
  108MOL0     H14562   9.959   1.535   8.262 -0.3957  1.0304  0.5035
  108MOL0     H14563  10.024   1.465   8.026 -1.6776  0.3354  1.2237
  108MOL0     H14564  10.122   1.618   7.691  0.3462  1.6826 -2.1061
  108MOL0     H14565  10.139   1.641   7.448 -1.4351  0.6726  1.4349
  108MOL0     H14566  10.207   0.784   6.721  1.9668  2.9262  0.9127
  108MOL0     H14567  10.236   0.828   6.960  0.1648  2.4871  1.0824
  108MOL0     H14568  10.047   1.116   7.417  0.7339 -0.8680  0.2780
  108MOL0     H14569  10.005   1.050   7.656  1.1098  0.1800 -0.0662
  108MOL0     H14570   9.868   0.843   7.928  3.1256 -1.4613 -0.1994
  108MOL0     H14571  10.002   0.918   7.842 -0.0101 -1.2581 -1.3128
  108MOL0     H14572   9.748   1.048   7.799  0.7134  0.7473 -0.1968
  108MOL0     H14573   9.902   1.126   7.817  0.7253 -2.8872 -3.0265
  108MOL0     H14574   9.764   0.986   8.031  1.4149 -0.2583  0.9106
  108MOL0     H14575   9.741   1.157   8.010  0.8034 -0.6127 -2.4452
  108MOL0     H14576  10.004   1.177   8.039 -2.8369  3.5882  2.1181
  108MOL0     H14577   9.991   1.003   8.093  0.0549  0.1103 -0.6507
  108MOL0     H14578   9.817   1.230   8.417  1.8214 -3.4646  3.3144
  108MOL0     H14579   9.790   0.696   7.507 -0.8495  1.6844 -1.4375
  108MOL0     H14580   9.849   0.755   7.290  0.9567 -1.4230  0.4212
  109MOL0     O14581   9.232   2.451   8.402 -0.1729 -0.0939  0.0866
  109MOL0     C14582   9.333   2.399   8.343 -0.1836 -0.6657  0.2306
  109MOL0     O14583   9.335   2.283   8.278  0.3914  0.1619 -0.3439
  109MOL0     C14584   9.227   2.203   8.279 -0.8038 -1.4340 -0.7963
  109MOL0     C14585   9.199   2.110   8.383  0.8122 -0.0579  0.2245
  109MOL0     C14586   9.084   2.032   8.376 -0.2170 -0.3881  0.6470
  109MOL0     C14587   8.987   2.049   8.283 -0.5436 -0.3698  0.0057
  109MOL0     O14588   8.871   1.977   8.293  0.3689 -1.3046 -0.5417
  109MOL0     C14589   8.760   1.984   8.200 -0.7259 -0.2729  0.2959
  109MOL0     C14590   8.769   1.881   8.092  0.8042  0.6674 -0.0958
  109MOL0     C14591   8.640   1.889   7.998 -0.5187 -1.1482  0.9870
  109MOL0     C14592   8.656   1.804   7.872 -0.6087  0.0749 -0.5580
  109MOL0     C14593   8.523   1.770   7.812  0.9474 -0.3482 -0.1059
  109MOL0     C14594   8.524   1.718   7.663  0.5642  0.0495 -0.5168
  109MOL0     C14595   8.380   1.702   7.593  0.1299 -0.5859 -0.5239
  109MOL0     C14596   8.382   1.620   7.465 -0.4343  1.0279 -0.0661
  109MOL0     N14597   8.405   1.470   7.478  0.5606 -0.7926 -0.4277
  109MOL0     C14598   8.374   1.386   7.588 -0.8896 -0.4702  0.5006
  109MOL0     C14599   8.449   1.277   7.564  0.0458  0.9802 -0.0517
  109MOL0     C14600   8.465   1.166   7.661 -0.2298  0.4104  1.2798
  109MOL0     C14601   8.422   1.041   7.593  0.1296  0.2718 -0.9723
  109MOL0     C14602   8.437   0.923   7.700 -0.4167  0.0591 -0.5327
  109MOL0     C14603   8.362   0.794   7.678 -1.6308  0.3706 -0.4464
  109MOL0     O14604   8.232   0.829   7.643  0.1415 -0.9105  0.8021
  109MOL0     C14605   8.140   0.731   7.657 -0.6866  0.5312 -0.2054
  109MOL0     C14606   8.175   0.587   7.661 -0.2414  0.6130 -0.5218
  109MOL0     C14607   8.076   0.488   7.658  0.2467 -0.2600 -0.9599
  109MOL0     C14608   8.123   0.348   7.675 -0.0580  0.3608 -0.4359
  109MOL0     C14609   7.940   0.526   7.642  0.1253  0.9769  1.2055
  109MOL0     C14610   7.823   0.433   7.642  0.4010  0.2475 -0.5087
  109MOL0     O14611   7.697   0.493   7.661 -0.9100  0.1214  0.6329
  109MOL0     C14612   7.593   0.412   7.650  0.3920  0.8446 -0.7291
  109MOL0     C14613   7.542   0.352   7.762 -0.3442  0.4905  0.0692
  109MOL0     C14614   7.429   0.256   7.735  0.3024  0.5794  0.4934
  109MOL0     C14615   7.353   0.247   7.606 -0.5828 -0.0812 -0.6869
  109MOL0     O14616   7.240   0.171   7.594 -0.3514 -0.5779  0.5800
  109MOL0     C14617   7.122   0.254   7.571 -0.5278 -0.9751 -0.6439
  109MOL0     C14618   6.990   0.168   7.551 -0.3386  0.5887 -0.6207
  109MOL0     C14619   6.964   0.106   7.683 -0.7815  0.1395  0.0393
  109MOL0     C14620   6.858  -0.003   7.664 -0.1607  0.2507 -0.0455
  109MOL0     C14621   6.711   0.049   7.625 -0.0260  1.4537  0.0583
  109MOL0     C14622   6.644   0.171   7.693 -1.6275  0.4675 -1.2241
  109MOL0     C14623   6.516   0.192   7.629  0.6268  1.0339 -0.0131
  109MOL0     C14624   6.388   0.138   7.688 -0.2121  0.2008 -0.2777
  109MOL0    Cl14625   6.381   0.194   7.874 -0.2203 -0.2384  0.5276
  109MOL0     C14626   7.411   0.312   7.499  0.3348 -0.4867 -0.5385
  109MOL0     C14627   7.534   0.384   7.521  0.3399 -0.3838 -0.2450
  109MOL0     O14628   7.837   0.312   7.643 -0.1708  0.0778  1.1014
  109MOL0     C14629   7.913   0.668   7.642 -0.5069 -0.2014  0.6380
  109MOL0     C14630   8.006   0.759   7.653 -0.5478 -0.2837 -0.0447
  109MOL0     N14631   8.519   1.295   7.446 -1.0138  0.0288 -0.4300
  109MOL0     N14632   8.505   1.412   7.405  0.3341  0.3624 -0.7617
  109MOL0     C14633   9.011   2.146   8.184 -0.1588  0.0897  1.0342
  109MOL0     C14634   9.135   2.211   8.173  0.7987 -0.6596  0.6342
  109MOL0     C14635   9.462   2.472   8.360 -0.6776 -0.3643  0.6240
  109MOL0     C14636   9.561   2.459   8.256 -0.5636 -0.0437  0.1000
  109MOL0     C14637   9.689   2.507   8.271  0.4050 -0.3057  0.3575
  109MOL0     C14638   9.726   2.568   8.388 -0.0441 -0.2932 -0.2977
  109MOL0     O14639   9.849   2.627   8.399 -0.8308 -0.2942 -0.3165
  109MOL0     C14640   9.868   2.736   8.496 -0.0614 -0.7499 -0.1404
  109MOL0     C14641   9.994   2.818   8.474  0.5706 -0.7355 -0.4387
  109MOL0     C14642   9.987   2.928   8.377 -0.8560 -0.3299  0.7952
  109MOL0     C14643   9.964   2.884   8.228 -0.2306 -0.1666 -0.8713
  109MOL0     C14644  10.053   2.782   8.168 -1.3344 -0.5360 -0.4804
  109MOL0     C14645  10.138   2.722   8.122  0.2216 -0.2054  0.2304
  109MOL0     C14646   9.629   2.571   8.491 -1.3145  0.4502  0.8945
  109MOL0     C14647   9.501   2.523   8.485 -0.3965 -0.7553 -0.4724
  109MOL0     H14648   9.255   2.105   8.476 -0.9042 -0.0833  1.3060
  109MOL0     H14649   9.051   1.961   8.451 -2.3005 -2.7873 -2.2691
  109MOL0     H14650   8.670   1.978   8.262 -0.2577 -0.3946  0.9799
  109MOL0     H14651   8.740   2.082   8.156 -3.1451 -1.4276 -1.4515
  109MOL0     H14652   8.866   1.877   8.040  0.6286 -3.4658 -0.4599
  109MOL0     H14653   8.756   1.792   8.154 -0.0088 -0.7028 -2.1212
  109MOL0     H14654   8.554   1.858   8.057 -1.7169 -1.4171 -0.8309
  109MOL0     H14655   8.631   1.990   7.959 -1.5231 -0.4709  2.8746
  109MOL0     H14656   8.714   1.859   7.797  0.5492 -0.5581 -0.1528
  109MOL0     H14657   8.711   1.711   7.887  2.3491  1.7929  0.3013
  109MOL0     H14658   8.471   1.701   7.879 -0.0123  1.8173  1.5127
  109MOL0     H14659   8.470   1.866   7.812  3.4358  1.1074 -0.4936
  109MOL0     H14660   8.587   1.778   7.596 -1.5420 -0.5277 -3.2174
  109MOL0     H14661   8.581   1.624   7.660 -1.7591 -1.4291 -2.9582
  109MOL0     H14662   8.315   1.661   7.671 -0.8669  0.8398 -0.5833
  109MOL0     H14663   8.361   1.806   7.565 -2.0125 -1.6728 -3.6473
  109MOL0     H14664   8.466   1.651   7.403  1.1724  1.6445  2.2830
  109MOL0     H14665   8.293   1.632   7.403  0.7772  0.3495 -2.0443
  109MOL0     H14666   8.319   1.408   7.679 -0.5628  2.7360  0.0609
  109MOL0     H14667   8.572   1.166   7.683  0.2335  5.8182  0.4713
  109MOL0     H14668   8.423   1.187   7.760  0.5173 -2.1820  2.2211
  109MOL0     H14669   8.475   1.021   7.500 -1.1172  1.2207 -1.9169
  109MOL0     H14670   8.317   1.037   7.564  0.4485  1.2704 -2.4050
  109MOL0     H14671   8.424   0.959   7.802  0.9367  0.9972 -0.6614
  109MOL0     H14672   8.544   0.902   7.708 -0.5630  0.0628  3.5586
  109MOL0     H14673   8.384   0.721   7.756  1.1217  1.0705 -0.4518
  109MOL0     H14674   8.404   0.745   7.589  2.6407  0.1023  1.4644
  109MOL0     H14675   8.276   0.547   7.667 -1.3228 -2.3051 -0.1597
  109MOL0     H14676   8.068   0.294   7.752  1.9989 -0.6983  0.3592
  109MOL0     H14677   8.103   0.292   7.582 -2.3456 -0.4556  0.4848
  109MOL0     H14678   8.231   0.335   7.692  0.3763  0.1455 -2.9068
  109MOL0     H14679   7.584   0.381   7.858 -0.9811  0.0296  0.4907
  109MOL0     H14680   7.378   0.198   7.811 -0.2631 -0.6464 -0.7623
  109MOL0     H14681   7.101   0.319   7.657 -2.0491 -0.8506 -1.0890
  109MOL0     H14682   7.142   0.317   7.484  1.6572 -2.7167 -1.5159
  109MOL0     H14683   6.905   0.230   7.524 -0.8160 -0.2760 -1.1618
  109MOL0     H14684   7.014   0.091   7.477  0.5894 -0.5831  0.8337
  109MOL0     H14685   6.928   0.173   7.762  0.9014 -1.6491  2.4406
  109MOL0     H14686   7.051   0.057   7.727 -2.8642 -2.7387  1.3034
  109MOL0     H14687   6.899  -0.072   7.589  0.5763  1.6050 -0.9248
  109MOL0     H14688   6.858  -0.055   7.760  2.2327 -1.4643 -0.8818
  109MOL0     H14689   6.641  -0.034   7.638  2.1358 -0.1316  2.5643
  109MOL0     H14690   6.722   0.075   7.520 -1.0473 -0.3132 -0.5190
  109MOL0     H14691   6.623   0.159   7.800 -3.8231  1.6776 -1.4740
  109MOL0     H14692   6.722   0.247   7.681  0.2800 -1.6343 -3.0757
  109MOL0     H14693   6.504   0.154   7.527 -1.8623  0.5819  0.3818
  109MOL0     H14694   6.502   0.300   7.635 -1.6934  0.7484  0.7534
  109MOL0     H14695   6.381   0.029   7.679 -1.4764  0.3536 -1.5508
  109MOL0     H14696   6.305   0.183   7.632  1.1723  3.5961  0.2074
  109MOL0     H14697   7.370   0.327   7.400  0.2392  1.3222 -0.2729
  109MOL0     H14698   7.591   0.431   7.442 -0.4717  2.0305  0.5157
  109MOL0     H14699   7.815   0.712   7.625 -2.0842 -3.7755 -0.6032
  109MOL0     H14700   7.975   0.862   7.636 -1.9516 -0.7991 -0.6856
  109MOL0     H14701   8.942   2.156   8.101 -1.4399 -1.2480  1.8806
  109MOL0     H14702   9.164   2.267   8.085 -0.6676 -2.0762 -0.8283
  109MOL0     H14703   9.544   2.409   8.162  2.7183  2.7389 -2.2301
  109MOL0     H14704   9.769   2.497   8.198 -0.6103  1.7505 -1.1278
  109MOL0     H14705   9.781   2.803   8.493  1.1789  1.1282  2.4927
  109MOL0     H14706   9.871   2.689   8.595  0.8787 -2.4066 -0.9157
  109MOL0     H14707  10.071   2.744   8.451  0.3514 -1.6813  1.6372
  109MOL0     H14708  10.026   2.853   8.573  2.5546 -1.8137 -0.6485
  109MOL0     H14709  10.076   2.992   8.384 -0.8234 -0.2674 -0.1002
  109MOL0     H14710   9.897   2.983   8.404 -1.9465 -1.4215 -0.4823
  109MOL0     H14711   9.982   2.973   8.168  1.9675  0.1331  0.1606
  109MOL0     H14712   9.858   2.866   8.204 -0.6102  2.9147 -2.0091
  109MOL0     H14713  10.199   2.644   8.082 -2.1587 -3.3148  2.1613
  109MOL0     H14714   9.666   2.601   8.588  2.9399  1.4001 -0.7827
  109MOL0     H14715   9.432   2.511   8.568 -0.3108 -1.2385 -0.4644
  110MOL0     O14716   3.334   7.159   9.106 -0.7574 -0.1340 -0.3515
  110MOL0     C14717   3.451   7.162   9.143  0.0277  0.1033 -0.4973
  110MOL0     O14718   3.510   7.267   9.202 -0.3283 -0.5246  0.7596
  110MOL0     C14719   3.436   7.359   9.266  0.7238  0.0389 -0.1692
  110MOL0     C14720   3.369   7.326   9.387  0.1468 -0.5657  0.4071
  110MOL0     C14721   3.264   7.419   9.433 -0.6387  0.2172  0.3398
  110MOL0     C14722   3.256   7.545   9.382  0.5115 -0.6583 -0.2536
  110MOL0     O14723   3.169   7.642   9.423 -0.5471  0.6482 -0.7091
  110MOL0     C14724   3.154   7.645   9.565 -0.4360 -0.4294 -0.8819
  110MOL0     C14725   3.134   7.787   9.626  0.5879  0.4564  0.3100
  110MOL0     C14726   2.990   7.845   9.593  0.8569 -0.7160 -0.8851
  110MOL0     C14727   2.886   7.762   9.672 -0.2308 -0.5458  0.3393
  110MOL0     C14728   2.739   7.801   9.622  0.2477 -0.4625  0.0604
  110MOL0     C14729   2.693   7.756   9.483  0.3109 -0.8716 -0.5018
  110MOL0     C14730   2.712   7.610   9.449  0.1638 -0.5144 -0.4687
  110MOL0     C14731   2.578   7.529   9.430 -0.1271 -0.5453 -0.9206
  110MOL0     N14732   2.501   7.565   9.318  0.9092 -0.2800  0.2801
  110MOL0     C14733   2.375   7.600   9.322  0.1503 -0.5129 -0.5046
  110MOL0     C14734   2.329   7.569   9.196  0.3992  0.4874 -0.3189
  110MOL0     C14735   2.181   7.569   9.184  0.4885 -0.9707  0.4559
  110MOL0     C14736   2.117   7.431   9.219  0.0306  0.4369 -0.1294
  110MOL0     C14737   2.149   7.380   9.356  0.2848  0.3934 -0.4229
  110MOL0     C14738   2.095   7.466   9.469  0.2835 -0.6054  0.3931
  110MOL0     O14739   1.953   7.471   9.470 -0.1600 -0.2816  0.4434
  110MOL0     C14740   1.881   7.504   9.584  0.0441  0.2386 -0.2440
  110MOL0     C14741   1.939   7.540   9.702  0.5706 -0.8140  0.2179
  110MOL0     C14742   1.871   7.557   9.821  0.0401 -0.0979 -1.0867
  110MOL0     C14743   1.953   7.543   9.956  0.1984  0.0831 -0.1688
  110MOL0     C14744   1.725   7.568   9.821 -0.5418 -0.0245  0.0589
  110MOL0     C14745   1.644   7.588   9.938  0.0448 -0.0982 -0.7460
  110MOL0     O14746   1.699   7.664  10.045  0.7555  0.1291 -0.1764
  110MOL0     C14747   1.604   7.689  10.141 -0.7486 -0.5017  0.5722
  110MOL0     C14748   1.581   7.825  10.158 -0.0068 -0.0578  0.5715
  110MOL0     C14749   1.473   7.863  10.244  0.1031  0.1016  0.6489
  110MOL0     C14750   1.409   7.759  10.319 -0.4950  0.0188 -0.3831
  110MOL0     O14751   1.297   7.800  10.395 -1.2605 -0.1105  0.0021
  110MOL0     C14752   1.300   7.792  10.533  0.0203 -0.8379 -0.3810
  110MOL0     C14753   1.232   7.680  10.587  0.6438  1.3699 -0.5722
  110MOL0     C14754   1.158   7.719  10.718 -0.0777 -0.0992  0.3145
  110MOL0     C14755   1.255   7.774  10.824  0.3102  0.0810  0.5733
  110MOL0     C14756   1.334   7.674  10.891 -0.5181 -0.1735  0.0673
  110MOL0     C14757   1.424   7.723  11.006  0.1736 -0.1292  0.5703
  110MOL0     C14758   1.473   7.604  11.099 -0.3135  0.6673 -0.4124
  110MOL0     C14759   1.596   7.627  11.186 -0.2577 -0.1628 -0.0206
  110MOL0    Cl14760   1.633   7.479  11.281  0.3519 -0.3975 -0.2213
  110MOL0     C14761   1.450   7.628  10.315 -0.6414  0.4528 -0.1960
  110MOL0     C14762   1.549   7.590  10.224 -0.2797 -0.1752 -0.1977
  110MOL0     O14763   1.536   7.551   9.935  0.5500  0.1323  0.9366
  110MOL0     C14764   1.658   7.547   9.692  0.7521  0.7106  0.5631
  110MOL0     C14765   1.738   7.513   9.576  0.3695  0.8318  0.5758
  110MOL0     N14766   2.427   7.515   9.121 -0.8400  0.2431 -0.7493
  110MOL0     N14767   2.535   7.526   9.189 -0.5313  1.0373  0.3062
  110MOL0     C14768   3.346   7.584   9.281  0.5543  0.0778  0.2895
  110MOL0     C14769   3.430   7.488   9.222 -0.0285 -0.5315 -0.0529
  110MOL0     C14770   3.529   7.041   9.097 -0.4506 -1.2420  0.8273
  110MOL0     C14771   3.660   7.025   9.150  0.8257  0.3527 -1.1514
  110MOL0     C14772   3.739   6.918   9.105 -1.5228  0.6991  0.4814
  110MOL0     C14773   3.692   6.817   9.010  0.3423  0.3349  0.2180
  110MOL0     O14774   3.780   6.707   8.983  0.0691 -0.0561  0.0290
  110MOL0     C14775   3.724   6.603   8.892 -0.2800 -0.2896  0.4480
  110MOL0     C14776   3.647   6.502   8.974 -0.0596  0.1802 -0.4615
  110MOL0     C14777   3.737   6.411   9.060  0.8572 -0.5730  0.1476
  110MOL0     C14778   3.815   6.484   9.166 -0.3743  0.2927  0.2908
  110MOL0     C14779   3.818   6.403   9.289  0.0490 -0.3399  0.1216
  110MOL0     C14780   3.822   6.339   9.393 -0.2505  0.0418 -0.7798
  110MOL0     C14781   3.557   6.832   8.966  0.6677  0.2037  0.5277
  110MOL0     C14782   3.482   6.947   9.006  0.1814  0.6466 -1.0616
  110MOL0     H14783   3.401   7.239   9.442 -0.2159 -1.5708 -0.9068
  110MOL0     H14784   3.210   7.388   9.522  0.3537 -1.8066  0.2877
  110MOL0     H14785   3.071   7.580   9.593  0.9488 -1.1340  1.8477
  110MOL0     H14786   3.245   7.611   9.614  1.1124  4.0096 -0.2229
  110MOL0     H14787   3.154   7.774   9.733  0.7085 -1.6881  0.0704
  110MOL0     H14788   3.216   7.851   9.592  1.6013 -0.8579  0.1649
  110MOL0     H14789   2.985   7.950   9.626 -1.2820 -0.7716 -0.9033
  110MOL0     H14790   2.958   7.828   9.490 -2.7479  0.4267 -0.0859
  110MOL0     H14791   2.894   7.655   9.649 -0.3903 -0.7588  1.2551
  110MOL0     H14792   2.891   7.772   9.781 -0.2508 -1.7991  0.4692
  110MOL0     H14793   2.672   7.756   9.696  1.2431  1.1904  2.0946
  110MOL0     H14794   2.728   7.909   9.613 -0.8632 -0.6429 -0.8898
  110MOL0     H14795   2.585   7.771   9.487  0.2840 -1.2042  3.1999
  110MOL0     H14796   2.731   7.825   9.406 -0.6132 -0.6607 -0.7855
  110MOL0     H14797   2.775   7.599   9.360 -0.4166  1.6773 -1.2344
  110MOL0     H14798   2.767   7.560   9.528  0.2015  2.6676  1.7244
  110MOL0     H14799   2.523   7.527   9.524 -1.3366 -0.1086 -1.6014
  110MOL0     H14800   2.601   7.424   9.407  1.1282 -1.2489  2.8730
  110MOL0     H14801   2.319   7.638   9.407  1.0246  0.8413 -0.5072
  110MOL0     H14802   2.140   7.643   9.253  1.8611  1.3103 -1.0422
  110MOL0     H14803   2.155   7.612   9.086  1.2315 -3.7392 -1.0559
  110MOL0     H14804   2.134   7.355   9.142 -1.8824 -0.4110  0.2188
  110MOL0     H14805   2.009   7.437   9.205  0.0374 -1.8061 -1.6464
  110MOL0     H14806   2.256   7.372   9.375  0.1668 -1.3796 -0.2865
  110MOL0     H14807   2.110   7.279   9.375  2.3496  0.3053  5.2242
  110MOL0     H14808   2.136   7.567   9.465  0.9930 -0.8225  1.6350
  110MOL0     H14809   2.135   7.420   9.560 -0.5395 -2.0338  0.0602
  110MOL0     H14810   2.047   7.530   9.709  0.7469  0.7994  0.0818
  110MOL0     H14811   2.006   7.450   9.932 -2.6273 -1.8351  0.5345
  110MOL0     H14812   2.030   7.620   9.971 -0.3138  0.1692  2.4241
  110MOL0     H14813   1.904   7.528  10.052  0.6169 -0.4032 -0.0249
  110MOL0     H14814   1.620   7.901  10.092 -0.6945  1.1958  1.5667
  110MOL0     H14815   1.424   7.960  10.247  0.9218  0.5144  0.8995
  110MOL0     H14816   1.407   7.798  10.558 -0.4088  1.0917  1.2445
  110MOL0     H14817   1.254   7.880  10.579  5.0211  0.1834  3.6399
  110MOL0     H14818   1.171   7.633  10.510  1.3630  4.3397 -3.1257
  110MOL0     H14819   1.313   7.606  10.593  0.0027  0.6116 -1.0922
  110MOL0     H14820   1.099   7.636  10.756  1.0612 -0.1599  2.0644
  110MOL0     H14821   1.091   7.803  10.700  3.9502  3.4821  0.3631
  110MOL0     H14822   1.327   7.844  10.781  1.6377 -2.3033 -1.3263
  110MOL0     H14823   1.202   7.834  10.898 -0.6698 -1.7721  1.4402
  110MOL0     H14824   1.397   7.617  10.822  0.1153  1.9979 -1.2537
  110MOL0     H14825   1.268   7.597  10.932 -3.1703  1.4243 -0.9309
  110MOL0     H14826   1.512   7.779  10.974  0.9081  0.6750  3.7199
  110MOL0     H14827   1.363   7.790  11.067 -0.7779 -0.0785 -0.4002
  110MOL0     H14828   1.510   7.528  11.029  1.4077  0.7653  0.3658
  110MOL0     H14829   1.390   7.560  11.155 -0.2982  0.5100 -0.5105
  110MOL0     H14830   1.578   7.710  11.256 -0.5179 -1.6216  1.7100
  110MOL0     H14831   1.681   7.663  11.126 -1.7657  1.1118 -1.4812
  110MOL0     H14832   1.406   7.554  10.381 -1.3068  0.1726 -0.9427
  110MOL0     H14833   1.590   7.490  10.221  0.1369  0.0015 -2.0393
  110MOL0     H14834   1.550   7.543   9.684  0.8533  0.5636 -1.0276
  110MOL0     H14835   1.694   7.487   9.480  2.3146 -2.8651  0.5018
  110MOL0     H14836   3.353   7.691   9.267  2.1846 -0.0685 -0.1358
  110MOL0     H14837   3.487   7.517   9.134  0.2661  1.1732  0.6480
  110MOL0     H14838   3.708   7.103   9.208 -0.4616  0.6913 -0.5030
  110MOL0     H14839   3.843   6.905   9.133 -1.5525  2.7959  1.7952
  110MOL0     H14840   3.668   6.645   8.808 -2.9092 -0.0172  2.2299
  110MOL0     H14841   3.809   6.551   8.846 -0.9181 -1.7722  0.8823
  110MOL0     H14842   3.585   6.442   8.907 -0.3415  2.3832 -2.2566
  110MOL0     H14843   3.582   6.564   9.036  2.7927  1.7038  1.2206
  110MOL0     H14844   3.798   6.344   8.998 -0.2646 -0.8091 -0.7654
  110MOL0     H14845   3.657   6.357   9.112  1.1616  1.5572  3.0625
  110MOL0     H14846   3.774   6.584   9.185 -0.3932 -0.1920  3.4007
  110MOL0     H14847   3.920   6.489   9.136 -0.7561  1.0636 -1.0258
  110MOL0     H14848   3.839   6.286   9.485  3.6737 -0.7117 -1.7354
  110MOL0     H14849   3.511   6.757   8.902 -0.8941  0.8797  0.8172
  110MOL0     H14850   3.382   6.955   8.965 -0.5632  1.2064  0.7830
  111MOL0     O14851   3.717   1.536  11.476 -0.3469 -0.0930 -1.0333
  111MOL0     C14852   3.596   1.519  11.476  0.1895 -0.6006 -0.6505
  111MOL0     O14853   3.538   1.401  11.450  0.7846 -0.1529  0.3611
  111MOL0     C14854   3.600   1.285  11.419 -0.1619  0.8480 -0.5598
  111MOL0     C14855   3.533   1.215  11.317  0.0968  0.2587 -0.1638
  111MOL0     C14856   3.588   1.090  11.282  1.1829 -0.0071  0.1870
  111MOL0     C14857   3.703   1.045  11.341 -0.5445  0.8994  0.9854
  111MOL0     O14858   3.768   0.926  11.305  0.4817  0.7417  0.0900
  111MOL0     C14859   3.702   0.822  11.231  0.0451 -0.9240 -0.7767
  111MOL0     C14860   3.754   0.685  11.253 -0.8173 -0.1295 -0.2036
  111MOL0     C14861   3.743   0.619  11.392  0.2560  0.5916  0.8617
  111MOL0     C14862   3.822   0.671  11.515  0.1227  0.6849 -0.7353
  111MOL0     C14863   3.973   0.662  11.492 -0.0564 -0.4506  0.7743
  111MOL0     C14864   4.062   0.659  11.621 -0.5580  0.6174 -0.3133
  111MOL0     C14865   4.030   0.775  11.715  0.1886  0.5871  0.3588
  111MOL0     C14866   4.118   0.767  11.840  0.1869  0.4818  0.0006
  111MOL0     N14867   4.258   0.819  11.817 -0.0666  0.0286 -0.0929
  111MOL0     C14868   4.306   0.879  11.702 -1.5078 -0.3758  0.8667
  111MOL0     C14869   4.397   0.969  11.745 -0.5219  0.4305 -0.1186
  111MOL0     C14870   4.443   1.094  11.672 -0.4327  0.3502  0.0486
  111MOL0     C14871   4.461   1.060  11.521  0.1004 -0.2658 -0.6682
  111MOL0     C14872   4.536   1.176  11.447 -0.8105 -0.5571  0.2539
  111MOL0     C14873   4.576   1.127  11.309 -0.0623  0.4410  0.0489
  111MOL0     O14874   4.644   1.234  11.251  0.1276  0.5276  0.7496
  111MOL0     C14875   4.649   1.233  11.118 -0.0504 -0.0903 -0.1937
  111MOL0     C14876   4.728   1.332  11.047  0.1816 -0.0360  0.0565
  111MOL0     C14877   4.762   1.321  10.912 -0.6037  0.5722 -0.2895
  111MOL0     C14878   4.875   1.409  10.864  0.4228  1.2453  0.3301
  111MOL0     C14879   4.696   1.216  10.833  0.3055 -0.5100  0.1282
  111MOL0     C14880   4.736   1.190  10.698  0.0679  1.0511  0.6007
  111MOL0     O14881   4.697   1.058  10.658  0.0657  0.0895  0.7742
  111MOL0     C14882   4.715   1.018  10.528  0.4518 -0.0332 -0.0389
  111MOL0     C14883   4.801   0.915  10.514 -0.2928  0.7624 -0.0999
  111MOL0     C14884   4.819   0.852  10.385  0.3878 -0.6390 -0.0986
  111MOL0     C14885   4.767   0.913  10.269 -0.6375 -0.1041 -0.3969
  111MOL0     O14886   4.796   0.850  10.149 -0.5312 -1.3902 -0.3717
  111MOL0     C14887   4.745   0.912  10.028 -0.3042  0.4253 -0.3093
  111MOL0     C14888   4.782   0.815   9.915 -0.5873 -0.4781  0.7272
  111MOL0     C14889   4.680   0.837   9.800 -0.1341 -0.8169 -0.2586
  111MOL0     C14890   4.701   0.729   9.700 -0.3189  0.5484  1.0817
  111MOL0     C14891   4.603   0.763   9.581 -0.0966 -0.1786  0.5431
  111MOL0     C14892   4.609   0.647   9.475  0.1322 -0.3298 -0.8208
  111MOL0     C14893   4.513   0.532   9.510  0.5324  0.1419  0.6840
  111MOL0     C14894   4.547   0.409   9.428  0.4871  0.8138  0.1142
  111MOL0    Cl14895   4.719   0.361   9.440 -0.1118 -0.1145 -0.0271
  111MOL0     C14896   4.694   1.024  10.289  0.0097 -0.4535  0.4287
  111MOL0     C14897   4.664   1.082  10.415 -1.1492  0.2890 -1.0228
  111MOL0     O14898   4.769   1.281  10.623  0.2672  0.7289  0.2184
  111MOL0     C14899   4.605   1.136  10.901 -0.2985 -1.0179 -0.2866
  111MOL0     C14900   4.581   1.136  11.037  0.3784  0.9068 -0.0520
  111MOL0     N14901   4.416   0.949  11.881 -0.1091  0.5963 -0.0198
  111MOL0     N14902   4.339   0.854  11.922 -0.6820 -0.2818 -0.6126
  111MOL0     C14903   3.767   1.121  11.439 -0.9656  0.0280 -0.4718
  111MOL0     C14904   3.724   1.252  11.477 -0.1844  1.4183 -0.3625
  111MOL0     C14905   3.515   1.635  11.466 -0.2538 -0.0924  0.1680
  111MOL0     C14906   3.376   1.627  11.450  0.3164 -0.2843  1.1941
  111MOL0     C14907   3.304   1.751  11.435 -0.1125  0.3678 -0.6307
  111MOL0     C14908   3.358   1.877  11.449 -0.5046 -0.1080  0.0442
  111MOL0     O14909   3.278   1.993  11.442 -0.1887 -0.3461  0.0960
  111MOL0     C14910   3.347   2.120  11.441  0.4730  0.2616 -0.5605
  111MOL0     C14911   3.380   2.185  11.581  0.4647 -0.2461 -0.1571
  111MOL0     C14912   3.260   2.259  11.647  0.7174 -0.2041 -0.1888
  111MOL0     C14913   3.281   2.316  11.781 -0.7975  0.5400  0.0110
  111MOL0     C14914   3.158   2.371  11.846  0.9930 -0.3403  0.0003
  111MOL0     C14915   3.047   2.409  11.893  0.5656 -0.0834  0.1154
  111MOL0     C14916   3.497   1.882  11.468 -0.4344  0.3683 -0.8945
  111MOL0     C14917   3.575   1.767  11.475 -0.2389  0.3654 -0.9309
  111MOL0     H14918   3.440   1.248  11.272 -1.0625  1.0865  2.5966
  111MOL0     H14919   3.529   1.038  11.206  0.1429 -0.6156  1.3663
  111MOL0     H14920   3.600   0.820  11.272  1.3811 -1.6361  2.8985
  111MOL0     H14921   3.704   0.834  11.122 -1.8996  1.3375 -0.6541
  111MOL0     H14922   3.698   0.616  11.189  1.2518 -4.3999  2.1566
  111MOL0     H14923   3.859   0.682  11.222 -0.4098  0.5832  1.0329
  111MOL0     H14924   3.634   0.620  11.397 -0.3935  2.9888 -5.1229
  111MOL0     H14925   3.774   0.515  11.384  0.1644  0.6938 -1.3781
  111MOL0     H14926   3.798   0.776  11.537 -2.9890 -0.3179  1.2561
  111MOL0     H14927   3.797   0.609  11.602  1.6061 -0.4275 -1.0645
  111MOL0     H14928   3.997   0.568  11.440  1.3898 -0.0596  0.6880
  111MOL0     H14929   4.019   0.739  11.430 -3.8958  1.8954  0.4999
  111MOL0     H14930   4.040   0.571  11.682 -1.1776  2.3352  2.0793
  111MOL0     H14931   4.163   0.657  11.580 -0.7456 -0.9877 -0.7585
  111MOL0     H14932   4.032   0.868  11.657 -1.0123 -0.2944 -1.1887
  111MOL0     H14933   3.928   0.763  11.752  0.6299  0.9299  1.7371
  111MOL0     H14934   4.120   0.663  11.876 -1.6192 -1.3987 -4.5022
  111MOL0     H14935   4.071   0.825  11.919  0.2578 -0.0154  0.4173
  111MOL0     H14936   4.255   0.883  11.606 -2.1071 -1.5522  1.1209
  111MOL0     H14937   4.367   1.172  11.677 -0.2010  0.5439  0.6356
  111MOL0     H14938   4.536   1.132  11.716 -0.5037  1.6727 -0.9222
  111MOL0     H14939   4.365   1.034  11.475 -0.4488 -0.3140  0.4680
  111MOL0     H14940   4.524   0.971  11.509  1.3222  0.7560 -2.2889
  111MOL0     H14941   4.628   1.196  11.502 -0.6212 -1.2404  0.1986
  111MOL0     H14942   4.470   1.261  11.428 -3.0479 -1.7256  2.2382
  111MOL0     H14943   4.487   1.086  11.259  0.1110 -0.4778  0.4745
  111MOL0     H14944   4.634   1.034  11.308 -2.8330 -1.5195  2.1621
  111MOL0     H14945   4.750   1.413  11.116 -0.6162  2.5270 -2.5139
  111MOL0     H14946   4.834   1.495  10.810  0.3642 -0.2325 -2.1439
  111MOL0     H14947   4.936   1.441  10.949  1.6557  0.0690 -0.0632
  111MOL0     H14948   4.946   1.346  10.808  0.5408 -0.7859  2.5905
  111MOL0     H14949   4.848   0.859  10.594  0.5663  0.3400 -0.8645
  111MOL0     H14950   4.869   0.756  10.369 -2.9966 -2.7785  1.0433
  111MOL0     H14951   4.636   0.920  10.037 -0.0896  0.8628  4.8923
  111MOL0     H14952   4.791   1.012  10.022 -0.3859  0.4533 -0.4764
  111MOL0     H14953   4.883   0.826   9.875  0.4081  0.1650  3.2634
  111MOL0     H14954   4.762   0.713   9.949  2.3015 -2.1081 -1.9309
  111MOL0     H14955   4.688   0.936   9.753  3.4492 -0.6327  0.4209
  111MOL0     H14956   4.577   0.823   9.832 -0.5681 -3.6239 -2.5036
  111MOL0     H14957   4.804   0.748   9.670 -0.8134  2.1076  0.2444
  111MOL0     H14958   4.676   0.634   9.747  0.1158  1.9975  4.5646
  111MOL0     H14959   4.636   0.858   9.539  0.5860 -0.2421  0.9072
  111MOL0     H14960   4.498   0.776   9.610 -0.7353  0.1872 -1.7925
  111MOL0     H14961   4.562   0.693   9.388  1.6796  1.1307 -0.9354
  111MOL0     H14962   4.715   0.622   9.460  0.9994  2.8222 -0.6163
  111MOL0     H14963   4.417   0.563   9.468  2.3365  1.1503 -3.1352
  111MOL0     H14964   4.502   0.510   9.617  0.7970  0.4828  0.7838
  111MOL0     H14965   4.509   0.445   9.332 -2.6648 -0.9514  0.5659
  111MOL0     H14966   4.489   0.319   9.451  0.5936  0.3423 -1.3414
  111MOL0     H14967   4.653   1.075  10.203 -0.4304  2.0095  2.0031
  111MOL0     H14968   4.595   1.166  10.426  0.3383  1.1775  2.8370
  111MOL0     H14969   4.581   1.043  10.851  0.4982 -1.8013  0.7310
  111MOL0     H14970   4.527   1.046  11.060  1.0466  0.1640 -1.2942
  111MOL0     H14971   3.844   1.081  11.503  0.1786  3.6757  0.6662
  111MOL0     H14972   3.777   1.313  11.549 -1.8570 -1.0313  3.2546
  111MOL0     H14973   3.325   1.532  11.465 -3.4811  1.8888  3.8899
  111MOL0     H14974   3.197   1.744  11.419 -0.6132  0.5641  2.1367
  111MOL0     H14975   3.432   2.117  11.373  0.7103  0.7651 -0.2900
  111MOL0     H14976   3.276   2.186  11.390 -0.1150  1.4299  1.6774
  111MOL0     H14977   3.456   2.263  11.567 -0.7181  1.3709  1.9535
  111MOL0     H14978   3.415   2.106  11.647  2.8365  1.0031  0.1914
  111MOL0     H14979   3.185   2.182  11.665 -0.6504  1.1584  0.1607
  111MOL0     H14980   3.211   2.324  11.574  0.5826  1.7794  1.5655
  111MOL0     H14981   3.361   2.389  11.764  0.8070 -0.8953  1.0424
  111MOL0     H14982   3.312   2.230  11.842  2.2286  2.2703  1.1124
  111MOL0     H14983   2.945   2.428  11.917  0.0637  0.3430 -2.1408
  111MOL0     H14984   3.556   1.972  11.449  1.0494 -0.7388 -1.6955
  111MOL0     H14985   3.684   1.770  11.481 -0.2313 -1.5288  1.5013
  112MOL0     O14986   2.891   8.684   2.877  0.0235 -0.3532  0.4833
  112MOL0     C14987   2.869   8.790   2.824 -0.5351  0.2187  1.0275
  112MOL0     O14988   2.762   8.862   2.845 -0.1544  1.2077 -0.2739
  112MOL0     C14989   2.673   8.852   2.953  0.1569 -0.2101 -0.2668
  112MOL0     C14990   2.547   8.810   2.931  0.2314 -0.6130  0.6095
  112MOL0     C14991   2.458   8.791   3.035 -0.0665 -0.0059  0.1657
  112MOL0     C14992   2.474   8.837   3.165  0.8139  0.4848  0.5062
  112MOL0     O14993   2.364   8.842   3.241  0.2112 -0.3524 -0.4741
  112MOL0     C14994   2.377   8.943   3.341  0.2417  0.4270 -0.8037
  112MOL0     C14995   2.243   8.977   3.416  0.4588  0.1161  1.1787
  112MOL0     C14996   2.140   9.022   3.318  0.5238 -0.6828 -0.5746
  112MOL0     C14997   2.029   9.096   3.394 -0.3727  0.1155  0.3782
  112MOL0     C14998   1.926   9.137   3.296 -0.1111 -0.1817 -0.5835
  112MOL0     C14999   1.835   9.236   3.368 -0.8168  0.9433 -0.0017
  112MOL0     C15000   1.718   9.287   3.279  0.1986 -0.3861 -0.0673
  112MOL0     C15001   1.626   9.375   3.362  0.7015 -0.0014  0.7717
  112MOL0     N15002   1.686   9.468   3.456 -0.9039  0.1872 -0.1957
  112MOL0     C15003   1.746   9.585   3.422  0.1198  0.4809  0.0135
  112MOL0     C15004   1.763   9.655   3.537 -0.3132 -0.6627  0.8332
  112MOL0     C15005   1.821   9.801   3.550 -0.2420 -0.1264 -0.2570
  112MOL0     C15006   1.754   9.861   3.679 -0.2210  0.1471  0.3983
  112MOL0     C15007   1.601   9.871   3.668  0.2462  0.4223 -0.3441
  112MOL0     C15008   1.530   9.938   3.787  0.3801  0.7458  0.0275
  112MOL0     O15009   1.598  10.058   3.821  0.3490 -0.0829  0.2441
  112MOL0     C15010   1.546  10.131   3.925  0.6404 -0.5577  0.7019
  112MOL0     C15011   1.575  10.271   3.924  0.0968  0.8920  0.0108
  112MOL0     C15012   1.536  10.355   4.031  0.1212  0.5709  0.0795
  112MOL0     C15013   1.557  10.503   4.002 -0.0193 -0.6317  0.3728
  112MOL0     C15014   1.489  10.297   4.153 -1.1746  0.2958  0.6763
  112MOL0     C15015   1.466  10.380   4.275  0.2965  0.5531  0.4827
  112MOL0     O15016   1.493  10.310   4.390  0.5070  0.0795 -0.4373
  112MOL0     C15017   1.465  10.346   4.521 -0.1786  0.7921 -0.2538
  112MOL0     C15018   1.511  10.468   4.562  0.0987  0.0469 -0.5884
  112MOL0     C15019   1.474  10.519   4.686  0.1710  0.5970  0.4231
  112MOL0     C15020   1.386  10.449   4.768 -0.5961  0.7437 -0.6731
  112MOL0     O15021   1.358  10.506   4.886 -0.1929 -1.0403 -0.1215
  112MOL0     C15022   1.369  10.426   5.001 -1.0207  0.3562 -0.2579
  112MOL0     C15023   1.264  10.487   5.092  0.0328  1.0752  0.3676
  112MOL0     C15024   1.239  10.422   5.221  0.3685 -0.0222 -0.8097
  112MOL0     C15025   1.364  10.399   5.309 -0.3165 -0.0812  1.0876
  112MOL0     C15026   1.327  10.366   5.454 -0.1147  0.1165 -0.6536
  112MOL0     C15027   1.278  10.231   5.488 -0.6824  0.1826 -0.3916
  112MOL0     C15028   1.393  10.130   5.468 -0.6906 -0.2091  1.2614
  112MOL0     C15029   1.360   9.985   5.492  0.4113  0.6938 -0.3138
  112MOL0    Cl15030   1.324   9.955   5.658  0.3515  0.3562 -0.6603
  112MOL0     C15031   1.340  10.324   4.726  0.6537 -0.1571  0.4921
  112MOL0     C15032   1.376  10.271   4.598  0.2890 -0.4762  0.3031
  112MOL0     O15033   1.419  10.496   4.269 -0.2247 -1.4879  0.2897
  112MOL0     C15034   1.474  10.154   4.155 -0.3356  0.4059  0.1756
  112MOL0     C15035   1.499  10.081   4.040 -0.2654 -0.3629 -0.4189
  112MOL0     N15036   1.723   9.567   3.640  0.6219 -0.5422 -0.7228
  112MOL0     N15037   1.667   9.461   3.589  0.1908  0.1803  0.0965
  112MOL0     C15038   2.606   8.890   3.194  0.0501 -0.6682 -0.7127
  112MOL0     C15039   2.704   8.890   3.094  0.3315  0.1728 -0.3049
  112MOL0     C15040   2.956   8.844   2.716 -0.3926 -0.0005  0.0796
  112MOL0     C15041   2.927   8.966   2.643 -0.2250  0.4199 -0.8014
  112MOL0     C15042   3.015   9.012   2.541  0.5559 -0.3744  0.4202
  112MOL0     C15043   3.137   8.941   2.515 -0.5065 -0.1977 -0.3416
  112MOL0     O15044   3.223   8.999   2.424  0.3883  0.4518  0.9371
  112MOL0     C15045   3.362   8.983   2.396 -0.5997 -0.9376  0.0606
  112MOL0     C15046   3.397   8.859   2.311  0.2185 -0.6092  0.3208
  112MOL0     C15047   3.535   8.872   2.248  0.3892  0.0300 -0.5712
  112MOL0     C15048   3.655   8.878   2.352  0.7743  1.0387  0.4151
  112MOL0     C15049   3.712   9.004   2.348 -0.2432  0.7090 -0.5862
  112MOL0     C15050   3.760   9.114   2.327  0.4606 -0.7188  0.4567
  112MOL0     C15051   3.163   8.820   2.588  0.7295  0.0519 -0.0989
  112MOL0     C15052   3.077   8.778   2.691 -0.8361  0.6230 -0.4027
  112MOL0     H15053   2.523   8.783   2.829  1.8062  0.5293 -0.0996
  112MOL0     H15054   2.363   8.746   3.007 -1.4123  0.8572  2.9300
  112MOL0     H15055   2.455   8.907   3.409 -0.4217  2.1640  0.9647
  112MOL0     H15056   2.421   9.036   3.303  1.0239 -0.2682 -1.6496
  112MOL0     H15057   2.209   8.884   3.462 -2.4975 -0.2079 -1.3987
  112MOL0     H15058   2.263   9.057   3.489  2.3066 -0.1964  1.0776
  112MOL0     H15059   2.193   9.085   3.246  3.6695 -0.7978  1.4813
  112MOL0     H15060   2.110   8.926   3.275  2.9027 -3.0584  2.6376
  112MOL0     H15061   1.990   9.029   3.470  1.1857 -2.1081 -0.6827
  112MOL0     H15062   2.059   9.184   3.451  0.2871 -1.4817  2.6015
  112MOL0     H15063   1.973   9.190   3.213  0.1991  1.4394  0.5665
  112MOL0     H15064   1.882   9.044   3.259  3.2033 -1.0600 -2.7327
  112MOL0     H15065   1.785   9.186   3.451 -1.0298  0.9109 -0.1486
  112MOL0     H15066   1.899   9.321   3.394  0.4289 -0.1579  0.6151
  112MOL0     H15067   1.767   9.343   3.199 -0.2514  0.1842  0.0507
  112MOL0     H15068   1.652   9.208   3.242 -1.9085  1.8206 -1.3497
  112MOL0     H15069   1.550   9.315   3.413 -2.6134  2.9350 -0.3336
  112MOL0     H15070   1.575   9.441   3.292  1.8105 -1.4616 -1.5274
  112MOL0     H15071   1.769   9.618   3.321 -2.0565  1.6332 -0.1799
  112MOL0     H15072   1.929   9.793   3.570 -0.4300  1.7616  1.9472
  112MOL0     H15073   1.809   9.856   3.457  2.9343 -1.2972 -1.5047
  112MOL0     H15074   1.806   9.956   3.686  0.4404  0.5315 -5.3500
  112MOL0     H15075   1.769   9.794   3.765  0.6726 -0.3482 -0.1359
  112MOL0     H15076   1.571   9.766   3.670 -1.3691  0.8800  0.5176
  112MOL0     H15077   1.562   9.913   3.575  0.4686  1.1432 -0.1171
  112MOL0     H15078   1.526   9.870   3.873  0.1923  1.4076  0.5494
  112MOL0     H15079   1.426   9.964   3.767 -0.4472 -1.8865  0.5473
  112MOL0     H15080   1.622  10.295   3.829  0.1927 -1.4063 -0.5814
  112MOL0     H15081   1.601  10.510   3.903 -0.7524 -0.2703  0.0661
  112MOL0     H15082   1.460  10.554   4.009 -0.1331 -0.8280  0.2431
  112MOL0     H15083   1.634  10.547   4.067 -2.1901  3.6615  0.4017
  112MOL0     H15084   1.569  10.525   4.491  1.9682  0.6688  1.3279
  112MOL0     H15085   1.505  10.613   4.729 -0.9947  1.2929 -0.2206
  112MOL0     H15086   1.357  10.318   4.991  0.2429 -0.0459  1.8638
  112MOL0     H15087   1.464  10.438   5.053 -0.1199 -1.9959 -1.2569
  112MOL0     H15088   1.286  10.592   5.116  1.2200  0.3260  2.8586
  112MOL0     H15089   1.171  10.488   5.033 -1.3018 -1.0563  2.2726
  112MOL0     H15090   1.181  10.329   5.211 -1.2826  0.3683  3.1742
  112MOL0     H15091   1.174  10.488   5.279  0.9272  2.4063 -2.7609
  112MOL0     H15092   1.439  10.335   5.263 -0.8051  0.0463  0.0927
  112MOL0     H15093   1.409  10.498   5.309 -0.6946  0.0963  0.2482
  112MOL0     H15094   1.253  10.432   5.501 -0.2457 -1.9854  2.4209
  112MOL0     H15095   1.420  10.386   5.509 -0.5769 -2.8998  1.4867
  112MOL0     H15096   1.236  10.220   5.588  0.7933 -0.5197  0.1684
  112MOL0     H15097   1.202  10.218   5.410  0.9923 -0.9080 -1.9244
  112MOL0     H15098   1.482  10.144   5.530 -0.1584  1.1568  0.2328
  112MOL0     H15099   1.430  10.130   5.365 -2.1452  1.2521  0.6994
  112MOL0     H15100   1.451   9.936   5.457  0.3239  0.2463  0.0769
  112MOL0     H15101   1.274   9.952   5.434 -0.6571  1.5775  0.7149
  112MOL0     H15102   1.274  10.270   4.792  1.1316 -0.7137  0.5226
  112MOL0     H15103   1.325  10.180   4.566 -1.2845  0.4749  0.0253
  112MOL0     H15104   1.438  10.108   4.246 -0.2855 -0.2242 -0.1140
  112MOL0     H15105   1.486   9.973   4.047  0.2120 -0.3443  5.0120
  112MOL0     H15106   2.627   8.926   3.294  0.3468 -0.9664 -0.6628
  112MOL0     H15107   2.796   8.945   3.106  1.1948 -1.6885  2.9502
  112MOL0     H15108   2.826   9.001   2.664 -0.9432 -2.0300  0.2125
  112MOL0     H15109   2.974   9.081   2.468 -2.2936  0.1133  2.3502
  112MOL0     H15110   3.387   9.081   2.355 -3.4645 -0.8701 -1.8590
  112MOL0     H15111   3.415   8.966   2.490 -2.8027 -2.4683  1.1326
  112MOL0     H15112   3.323   8.844   2.233 -0.2320  2.0971  0.1612
  112MOL0     H15113   3.386   8.771   2.376  0.1275 -0.3028  0.7194
  112MOL0     H15114   3.533   8.962   2.186 -2.2952  0.9323  0.6481
  112MOL0     H15115   3.541   8.784   2.184 -2.3647 -2.2716  1.9646
  112MOL0     H15116   3.733   8.816   2.308 -0.0803 -0.4214  0.8726
  112MOL0     H15117   3.644   8.846   2.456  3.6397 -0.5099  0.3337
  112MOL0     H15118   3.789   9.210   2.289 -2.8694 -1.3909 -4.7367
  112MOL0     H15119   3.256   8.765   2.577 -0.4152 -2.0965  0.3155
  112MOL0     H15120   3.107   8.694   2.753  2.2608 -0.7570 -3.4370
  113MOL0     O15121   9.718   1.098   5.661 -0.6223  0.0561 -0.0781
  113MOL0     C15122   9.738   0.976   5.702  0.5947  0.1077  0.1696
  113MOL0     O15123   9.835   0.938   5.781 -0.4315  0.8395 -0.9882
  113MOL0     C15124   9.903   1.034   5.847 -0.2991 -0.4655 -0.0140
  113MOL0     C15125  10.021   1.072   5.780 -0.2805  0.9532  0.2850
  113MOL0     C15126  10.102   1.175   5.830  0.2259 -0.5411  0.1461
  113MOL0     C15127  10.075   1.231   5.954  0.3377 -0.4994 -0.1826
  113MOL0     O15128  10.147   1.328   6.022  0.7205 -0.4377  0.3152
  113MOL0     C15129  10.200   1.435   5.942  0.0533 -0.0310 -0.5758
  113MOL0     C15130  10.344   1.430   5.901 -0.6259 -0.5552  0.3811
  113MOL0     C15131  10.442   1.406   6.008  0.6491  0.9343 -0.6425
  113MOL0     C15132  10.510   1.539   6.065 -0.1952 -0.8939  0.3520
  113MOL0     C15133  10.598   1.511   6.181 -0.4843 -0.7609 -0.2362
  113MOL0     C15134  10.723   1.437   6.131 -0.2692  0.0241 -0.1575
  113MOL0     C15135  10.833   1.415   6.250 -0.6989  0.3909  0.0155
  113MOL0     C15136  10.789   1.299   6.344 -0.3510 -0.7361  0.1736
  113MOL0     N15137  10.878   1.280   6.460 -0.4700  0.2652 -0.0223
  113MOL0     C15138  10.957   1.172   6.495 -0.0523 -0.1972 -0.3543
  113MOL0     C15139  11.016   1.201   6.611  0.4133  0.0825 -0.2033
  113MOL0     C15140  11.123   1.127   6.699 -0.4733 -0.1676 -0.1521
  113MOL0     C15141  11.046   1.061   6.816  0.4260 -0.3149 -1.1361
  113MOL0     C15142  10.928   0.972   6.781  0.4723  0.6000  0.3707
  113MOL0     C15143  10.948   0.828   6.745  0.3531 -0.5082 -0.2164
  113MOL0     O15144  10.826   0.760   6.770  0.7205 -0.1650 -0.6753
  113MOL0     C15145  10.802   0.720   6.897  0.1209  0.8074 -0.4844
  113MOL0     C15146  10.666   0.705   6.924 -0.3941  0.4411  0.7043
  113MOL0     C15147  10.630   0.658   7.048 -0.0513 -0.1996 -0.1937
  113MOL0     C15148  10.475   0.647   7.056  0.3626  0.2835 -0.0922
  113MOL0     C15149  10.713   0.620   7.157  0.1555 -0.1777  0.0900
  113MOL0     C15150  10.665   0.543   7.277 -0.3401  0.3438 -0.2141
  113MOL0     O15151  10.771   0.461   7.324 -0.4006 -0.2595 -0.6846
  113MOL0     C15152  10.750   0.369   7.424  0.3750 -0.1011  0.1181
  113MOL0     C15153  10.870   0.328   7.477  0.0423 -0.0514 -1.0810
  113MOL0     C15154  10.868   0.230   7.578 -0.1648 -0.8746 -0.2317
  113MOL0     C15155  10.746   0.165   7.629 -0.3759 -0.2757  0.3786
  113MOL0     O15156  10.758   0.066   7.722 -0.1225  0.0618  0.3075
  113MOL0     C15157  10.647  -0.009   7.773 -0.2867 -0.1581  1.0266
  113MOL0     C15158  10.569   0.075   7.881 -0.5223  0.0626  0.7210
  113MOL0     C15159  10.442  -0.002   7.928 -0.3941  1.1952  0.0331
  113MOL0     C15160  10.331  -0.029   7.812 -0.4872 -0.1368  0.0250
  113MOL0     C15161  10.219  -0.108   7.876  0.2419 -0.3665  0.4337
  113MOL0     C15162  10.109  -0.129   7.767  0.6520  0.0862  0.7889
  113MOL0     C15163  10.031  -0.004   7.738 -0.1340 -0.3405  0.1325
  113MOL0     C15164   9.919  -0.046   7.645  0.8983 -0.1649 -0.2525
  113MOL0    Cl15165   9.831   0.101   7.599  0.4993 -0.5404 -0.1077
  113MOL0     C15166  10.628   0.212   7.566  0.0432 -0.0440 -0.8816
  113MOL0     C15167  10.624   0.307   7.462 -0.6351 -0.1453  0.5992
  113MOL0     O15168  10.568   0.578   7.339 -0.2329  0.9167  0.0978
  113MOL0     C15169  10.846   0.637   7.132 -1.4018  0.1430 -1.9551
  113MOL0     C15170  10.893   0.686   7.009 -0.0516 -0.0243  0.0557
  113MOL0     N15171  10.980   1.328   6.636  0.6717 -0.0156 -0.6190
  113MOL0     N15172  10.897   1.377   6.550 -0.2336  1.0925  0.3588
  113MOL0     C15173   9.950   1.195   6.016 -0.3879 -0.1981 -0.2799
  113MOL0     C15174   9.870   1.091   5.970 -0.2022 -1.2588 -0.3911
  113MOL0     C15175   9.670   0.872   5.612 -0.3623 -0.2746  0.4211
  113MOL0     C15176   9.741   0.752   5.573 -0.0382 -0.2964 -0.3256
  113MOL0     C15177   9.682   0.670   5.480 -0.8124  0.0169  0.4734
  113MOL0     C15178   9.563   0.697   5.411  0.0788 -0.2885  1.0967
  113MOL0     O15179   9.516   0.609   5.317  0.8971  0.8640  0.6426
  113MOL0     C15180   9.436   0.502   5.386 -0.0899 -0.7449  0.7040
  113MOL0     C15181   9.381   0.417   5.274  1.0381  0.1653  0.4054
  113MOL0     C15182   9.247   0.483   5.224 -0.5093  0.0015 -0.1308
  113MOL0     C15183   9.181   0.424   5.105  0.6255  0.2435  1.0111
  113MOL0     C15184   9.228   0.456   4.971 -0.1163 -0.1614  0.4131
  113MOL0     C15185   9.273   0.468   4.861 -0.0932 -0.3117  1.0034
  113MOL0     C15186   9.492   0.810   5.451  0.6838  0.8285  0.2831
  113MOL0     C15187   9.541   0.895   5.548  0.5308 -0.8630 -1.2041
  113MOL0     H15188  10.044   1.029   5.683 -1.5920  1.8213 -0.4538
  113MOL0     H15189  10.179   1.220   5.768 -2.2483 -0.0754 -2.7740
  113MOL0     H15190  10.131   1.444   5.857 -0.1397  1.2901 -0.2938
  113MOL0     H15191  10.176   1.528   5.994 -1.0371  0.6701 -2.2580
  113MOL0     H15192  10.353   1.350   5.827 -2.0869  0.6766 -1.2222
  113MOL0     H15193  10.364   1.529   5.857  1.0857  0.9015  4.0051
  113MOL0     H15194  10.402   1.360   6.098 -1.3606  2.4113 -0.7192
  113MOL0     H15195  10.513   1.341   5.957 -1.7917 -2.9009  0.4821
  113MOL0     H15196  10.561   1.600   5.990 -1.6727  0.0641  0.0838
  113MOL0     H15197  10.427   1.596   6.109 -0.4675 -1.8583  1.1164
  113MOL0     H15198  10.623   1.597   6.243 -1.9658 -0.7415  0.3856
  113MOL0     H15199  10.549   1.445   6.254  0.3695 -2.1081 -0.8369
  113MOL0     H15200  10.681   1.342   6.096 -0.2193  0.8773 -2.7581
  113MOL0     H15201  10.780   1.481   6.049 -1.7835  1.1919 -0.6199
  113MOL0     H15202  10.925   1.376   6.206 -0.1263  0.1780  1.3436
  113MOL0     H15203  10.855   1.513   6.294  1.8739 -1.5797  3.7398
  113MOL0     H15204  10.774   1.211   6.281 -0.5989  0.5374 -1.6346
  113MOL0     H15205  10.691   1.313   6.391 -0.4375 -1.6477  0.2825
  113MOL0     H15206  10.968   1.083   6.433 -1.5871 -0.9951  0.4624
  113MOL0     H15207  11.176   1.051   6.641  2.1813 -0.7277  2.7432
  113MOL0     H15208  11.195   1.206   6.722  0.5765 -0.9094 -0.8157
  113MOL0     H15209  11.016   1.146   6.878  4.7944 -0.9726  2.3709
  113MOL0     H15210  11.111   1.014   6.890  1.9781  1.6136 -1.2027
  113MOL0     H15211  10.846   1.008   6.717  1.2251  2.0888  0.2122
  113MOL0     H15212  10.867   0.979   6.871  0.1230 -1.0057  0.3023
  113MOL0     H15213  11.037   0.788   6.795 -0.3956  1.4805  2.9912
  113MOL0     H15214  10.960   0.832   6.636 -0.2499 -1.4245 -0.3296
  113MOL0     H15215  10.594   0.700   6.844 -0.0423 -3.4961  0.4216
  113MOL0     H15216  10.420   0.678   6.967  0.6790  0.4823 -0.2205
  113MOL0     H15217  10.438   0.544   7.060  1.4857 -0.0930  2.1575
  113MOL0     H15218  10.445   0.709   7.141  0.1740 -0.0209  0.0657
  113MOL0     H15219  10.962   0.375   7.445  2.1116 -3.0898 -0.0144
  113MOL0     H15220  10.958   0.192   7.625  0.0272  1.5616  1.5352
  113MOL0     H15221  10.584  -0.036   7.687 -2.3636  2.8092  1.4567
  113MOL0     H15222  10.682  -0.107   7.803  0.2136 -0.4570 -0.4329
  113MOL0     H15223  10.636   0.076   7.967  0.3474 -3.0487  0.2296
  113MOL0     H15224  10.554   0.177   7.846  0.9391  1.1217  3.0098
  113MOL0     H15225  10.403   0.057   8.011 -1.9101  0.9128 -0.4344
  113MOL0     H15226  10.468  -0.101   7.965 -1.3524  1.8022  2.5183
  113MOL0     H15227  10.302   0.072   7.782  3.0087  0.3186 -2.4304
  113MOL0     H15228  10.365  -0.095   7.732 -1.4291  0.3409 -0.7799
  113MOL0     H15229  10.166  -0.057   7.957 -2.7412 -1.1720 -0.8841
  113MOL0     H15230  10.256  -0.197   7.928  1.8148 -0.6096 -1.0259
  113MOL0     H15231  10.157  -0.163   7.675 -0.4258 -0.4454  0.4032
  113MOL0     H15232  10.044  -0.214   7.790 -1.3281  0.2690 -3.1773
  113MOL0     H15233  10.082   0.083   7.697 -2.3816  1.3430  0.6790
  113MOL0     H15234   9.988   0.027   7.834  0.4449 -3.2895  1.4421
  113MOL0     H15235   9.840  -0.094   7.703  1.7129  1.1054  2.0623
  113MOL0     H15236   9.938  -0.098   7.551 -1.2477 -1.5357 -0.0175
  113MOL0     H15237  10.535   0.164   7.593  0.5415 -0.8025 -0.4884
  113MOL0     H15238  10.531   0.350   7.425 -0.5421 -1.5677 -1.4382
  113MOL0     H15239  10.913   0.611   7.213 -1.1467  0.6286 -2.0082
  113MOL0     H15240  10.999   0.691   6.986  0.0927 -2.1902  0.1011
  113MOL0     H15241   9.927   1.255   6.103  2.9977 -0.9204  1.2671
  113MOL0     H15242   9.776   1.067   6.017 -0.5726  0.3211 -0.3040
  113MOL0     H15243   9.840   0.728   5.610  1.5759  3.6224 -1.6070
  113MOL0     H15244   9.741   0.584   5.447 -0.4336  0.4922 -0.1080
  113MOL0     H15245   9.504   0.441   5.446 -0.7569 -1.7103  0.5148
  113MOL0     H15246   9.353   0.541   5.446  0.9488  3.6686 -0.3821
  113MOL0     H15247   9.368   0.313   5.304 -1.5932  0.3290  0.1030
  113MOL0     H15248   9.458   0.412   5.196  0.7697 -0.5944  0.1779
  113MOL0     H15249   9.255   0.592   5.224 -3.4311  0.3062 -0.1719
  113MOL0     H15250   9.191   0.450   5.313  1.0028 -1.1313  0.4440
  113MOL0     H15251   9.074   0.443   5.096  0.2527 -0.5294  3.2987
  113MOL0     H15252   9.195   0.317   5.122  0.8241  0.4720  2.3589
  113MOL0     H15253   9.335   0.487   4.775 -0.3550  0.9288  1.0622
  113MOL0     H15254   9.395   0.828   5.406  0.1975 -2.0219 -0.0198
  113MOL0     H15255   9.487   0.987   5.569 -0.3879 -2.1837  3.3010
  114MOL0     O15256  10.580  11.189   4.809 -0.7177  0.0500  0.4159
  114MOL0     C15257  10.656  11.284   4.790 -1.1894 -0.9665 -0.6871
  114MOL0     O15258  10.784  11.307   4.835 -0.0807  0.4063  0.1157
  114MOL0     C15259  10.864  11.205   4.876  0.4472  0.2389  0.2788
  114MOL0     C15260  10.815  11.094   4.951 -0.6330 -0.2228  1.3087
  114MOL0     C15261  10.899  10.982   4.972  0.2404 -0.3567 -0.5005
  114MOL0     C15262  11.023  10.980   4.917  0.4112 -0.5541 -0.3555
  114MOL0     O15263  11.077  10.860   4.919 -0.3284  0.6002  0.5164
  114MOL0     C15264  11.216  10.839   4.883 -0.1873 -0.0387 -0.3578
  114MOL0     C15265  11.274  10.724   4.963  0.2183  0.6922  1.1068
  114MOL0     C15266  11.305  10.764   5.109  0.1419  0.0077 -0.4672
  114MOL0     C15267  11.396  10.656   5.179 -0.0071 -0.3308  0.5952
  114MOL0     C15268  11.424  10.700   5.330  0.7012  0.5620  0.4416
  114MOL0     C15269  11.503  10.595   5.419 -0.2957 -0.6656 -0.1808
  114MOL0     C15270  11.515  10.655   5.562  0.6182 -0.7545 -0.5271
  114MOL0     C15271  11.518  10.550   5.666 -0.2002 -0.0868  0.7207
  114MOL0     N15272  11.513  10.608   5.803  0.1273 -0.1351  0.1881
  114MOL0     C15273  11.629  10.604   5.873  0.1591 -0.6315  0.7884
  114MOL0     C15274  11.603  10.668   5.993 -0.9949  0.3619 -0.2413
  114MOL0     C15275  11.701  10.687   6.110  0.7674 -0.4480 -0.5245
  114MOL0     C15276  11.682  10.825   6.167  0.6061 -0.1783 -0.4204
  114MOL0     C15277  11.805  10.872   6.260  0.0913 -0.8118  0.1708
  114MOL0     C15278  11.767  10.983   6.366  0.2940 -0.3395  0.1544
  114MOL0     O15279  11.638  10.946   6.436  0.0132 -0.8718  0.5933
  114MOL0     C15280  11.568  11.037   6.499  0.0982 -0.1243 -0.1486
  114MOL0     C15281  11.462  10.988   6.577 -0.0945  0.0274 -0.0291
  114MOL0     C15282  11.397  11.075   6.669  2.1488 -1.1945 -0.2900
  114MOL0     C15283  11.277  11.030   6.734  0.0773  0.0585  0.2034
  114MOL0     C15284  11.434  11.213   6.679 -0.3562 -0.5121  0.1562
  114MOL0     C15285  11.362  11.307   6.762 -0.3809  0.2062  0.7325
  114MOL0     O15286  11.364  11.430   6.712 -0.3691  0.5588 -0.4482
  114MOL0     C15287  11.290  11.518   6.787  0.1554  1.0142  0.3028
  114MOL0     C15288  11.173  11.558   6.737 -0.4015 -0.1864  0.5535
  114MOL0     C15289  11.089  11.650   6.806  0.7421 -0.5872  0.0780
  114MOL0     C15290  11.133  11.702   6.929  0.4018  0.4143 -0.2126
  114MOL0     O15291  11.039  11.781   6.992  0.1855  0.5040 -0.1151
  114MOL0     C15292  10.992  11.719   7.121 -0.4096 -0.7855 -0.2805
  114MOL0     C15293  10.859  11.650   7.105  0.1653 -0.6853  0.1895
  114MOL0     C15294  10.752  11.744   7.044 -0.7073  0.6059  0.4012
  114MOL0     C15295  10.607  11.707   7.081 -0.5137 -1.0234  0.6440
  114MOL0     C15296  10.486  11.775   7.000 -0.1584  0.1116 -0.1422
  114MOL0     C15297  10.393  11.671   6.911 -0.8110 -0.0864  0.0068
  114MOL0     C15298  10.493  11.595   6.822  0.1086  0.8049  0.0333
  114MOL0     C15299  10.413  11.533   6.711 -0.2779 -0.2055  0.4424
  114MOL0    Cl15300  10.541  11.439   6.612  0.0449 -0.2742 -0.4071
  114MOL0     C15301  11.263  11.661   6.977  0.8450 -0.6159  0.1770
  114MOL0     C15302  11.343  11.578   6.901 -0.2519 -0.9565  0.0826
  114MOL0     O15303  11.304  11.272   6.867 -1.0318  0.3033 -0.1273
  114MOL0     C15304  11.531  11.260   6.589 -0.4203  0.6168 -0.1065
  114MOL0     C15305  11.607  11.169   6.520  0.8105  0.2580 -0.5065
  114MOL0     N15306  11.469  10.707   5.984  0.1850 -0.6661  0.2506
  114MOL0     N15307  11.419  10.682   5.868 -0.0181 -0.4822 -1.1746
  114MOL0     C15308  11.071  11.091   4.839 -0.0749  0.7484  0.4887
  114MOL0     C15309  10.989  11.195   4.821  0.9345  0.0372  0.1697
  114MOL0     C15310  10.591  11.404   4.740  0.4639  0.2301  0.1895
  114MOL0     C15311  10.667  11.514   4.707 -0.5845 -0.5478 -1.1051
  114MOL0     C15312  10.626  11.628   4.642  1.1071  0.2894  0.7643
  114MOL0     C15313  10.487  11.632   4.599 -0.2357  1.0547 -0.4739
  114MOL0     O15314  10.426  11.733   4.527 -0.0039 -0.2893 -0.9879
  114MOL0     C15315  10.492  11.863   4.530  0.0544 -0.0340  0.4148
  114MOL0     C15316  10.386  11.955   4.466 -0.4200  0.0366  0.0735
  114MOL0     C15317  10.390  11.943   4.318 -0.3979  0.3034 -0.2964
  114MOL0     C15318  10.277  12.007   4.237 -1.6618  0.4955 -0.0660
  114MOL0     C15319  10.257  12.139   4.270  0.0110 -0.7286 -1.0004
  114MOL0     C15320  10.254  12.251   4.316  0.7218 -0.1776  0.6863
  114MOL0     C15321  10.408  11.520   4.633 -0.1020 -0.8985 -0.6501
  114MOL0     C15322  10.456  11.416   4.701 -0.1277  0.5466  0.2693
  114MOL0     H15323  10.716  11.087   4.993 -1.5074 -1.5895 -0.8244
  114MOL0     H15324  10.874  10.901   5.039 -1.0634  1.7590  1.7170
  114MOL0     H15325  11.223  10.833   4.774 -0.2578 -0.3247 -0.3478
  114MOL0     H15326  11.270  10.930   4.913  2.4371 -1.9914  1.3674
  114MOL0     H15327  11.212  10.635   4.949  0.3534  0.9217 -1.6257
  114MOL0     H15328  11.375  10.700   4.927  0.1882  2.4327 -0.2831
  114MOL0     H15329  11.354  10.862   5.120  0.2912 -0.0531 -0.5682
  114MOL0     H15330  11.209  10.775   5.160 -0.8131 -0.4597 -2.0854
  114MOL0     H15331  11.341  10.563   5.166  4.6955 -3.1923 -1.3143
  114MOL0     H15332  11.488  10.640   5.122 -0.7254 -0.9721 -0.3917
  114MOL0     H15333  11.485  10.790   5.341 -0.2064  1.0099  2.3358
  114MOL0     H15334  11.324  10.709   5.374  0.8316 -0.4729  0.9964
  114MOL0     H15335  11.457  10.496   5.410 -0.9745 -0.2364 -1.9041
  114MOL0     H15336  11.607  10.581   5.385  0.3119  1.7512  0.4865
  114MOL0     H15337  11.599  10.726   5.565 -0.7191  1.1371 -3.4473
  114MOL0     H15338  11.429  10.719   5.582  1.3400  0.3370 -0.7899
  114MOL0     H15339  11.604  10.485   5.653 -2.9735 -4.6423  2.6882
  114MOL0     H15340  11.427  10.489   5.661  1.6458 -3.0599  1.0517
  114MOL0     H15341  11.720  10.551   5.845  0.1060  0.0036 -0.6814
  114MOL0     H15342  11.671  10.617   6.188 -0.7295  1.6105  0.8462
  114MOL0     H15343  11.803  10.660   6.083 -0.0303 -2.1066 -2.0552
  114MOL0     H15344  11.581  10.823   6.208 -0.4815 -3.7301 -2.8613
  114MOL0     H15345  11.681  10.895   6.082  1.7265 -0.4728 -0.7019
  114MOL0     H15346  11.882  10.917   6.196 -1.7283  2.9960  0.3324
  114MOL0     H15347  11.851  10.788   6.313  3.2337 -0.4957 -1.8013
  114MOL0     H15348  11.751  11.077   6.312  0.7622  0.0715  0.7207
  114MOL0     H15349  11.845  10.995   6.442 -0.2886 -0.1001  0.7212
  114MOL0     H15350  11.428  10.888   6.554 -0.5853 -0.3889  2.2413
  114MOL0     H15351  11.230  10.936   6.702 -2.2505  0.3533  2.4038
  114MOL0     H15352  11.296  11.014   6.841 -4.6000 -2.8887  0.8791
  114MOL0     H15353  11.203  11.110   6.721 -0.7978 -0.6597  0.6383
  114MOL0     H15354  11.130  11.519   6.645  1.3954 -0.3734 -0.2429
  114MOL0     H15355  10.995  11.679   6.760 -0.0602 -1.7053  0.9438
  114MOL0     H15356  11.067  11.652   7.163 -0.1831 -0.5201 -0.2513
  114MOL0     H15357  10.982  11.801   7.193 -0.0458 -1.0507  0.0758
  114MOL0     H15358  10.866  11.559   7.045 -1.7955 -2.8535  2.9542
  114MOL0     H15359  10.829  11.610   7.203 -1.2595 -0.1189  0.0020
  114MOL0     H15360  10.748  11.734   6.936 -0.9234  0.7335  0.3951
  114MOL0     H15361  10.779  11.846   7.073 -0.0042  0.8175 -0.9588
  114MOL0     H15362  10.603  11.598   7.081  1.8620 -1.1725 -0.1724
  114MOL0     H15363  10.589  11.729   7.187  0.2219 -0.3456  0.6406
  114MOL0     H15364  10.527  11.847   6.927 -3.4810  1.0783 -1.2603
  114MOL0     H15365  10.423  11.812   7.081  0.5873 -1.2314  1.0927
  114MOL0     H15366  10.339  11.610   6.984 -0.4419 -0.4299 -0.0077
  114MOL0     H15367  10.336  11.736   6.844  0.0118  0.5663 -0.0744
  114MOL0     H15368  10.551  11.525   6.883 -0.9141  1.0004  1.2911
  114MOL0     H15369  10.560  11.667   6.775  1.4858 -1.1176 -1.0848
  114MOL0     H15370  10.367  11.604   6.642  1.8970 -0.8690 -1.8471
  114MOL0     H15371  10.343  11.453   6.738 -0.7745  0.1445  0.2106
  114MOL0     H15372  11.288  11.711   7.069  1.4730  0.2905 -0.4752
  114MOL0     H15373  11.448  11.565   6.927  1.0963 -1.1588 -4.5133
  114MOL0     H15374  11.560  11.365   6.595 -0.4351  0.7317 -1.7523
  114MOL0     H15375  11.699  11.209   6.478 -0.0063  1.6098 -1.0761
  114MOL0     H15376  11.165  11.081   4.784 -0.1528  0.2032  0.4510
  114MOL0     H15377  11.030  11.269   4.753  0.7029 -2.6581 -3.1614
  114MOL0     H15378  10.774  11.507   4.727 -1.1778  0.9103  3.7279
  114MOL0     H15379  10.704  11.699   4.618  1.2840 -0.8562 -2.6498
  114MOL0     H15380  10.504  11.888   4.636  0.3979  3.2635 -0.3199
  114MOL0     H15381  10.588  11.855   4.478  2.3199  0.7421  4.1120
  114MOL0     H15382  10.397  12.062   4.488 -0.2399 -0.0768  0.5443
  114MOL0     H15383  10.293  11.924   4.515  0.5321 -0.3072  1.7416
  114MOL0     H15384  10.390  11.836   4.296 -2.1805  0.5392 -1.6889
  114MOL0     H15385  10.487  11.980   4.283 -0.5202 -1.1376 -2.3282
  114MOL0     H15386  10.187  11.947   4.253 -1.1925  0.2662  2.0407
  114MOL0     H15387  10.316  11.999   4.135  0.3913 -1.1508  0.7895
  114MOL0     H15388  10.286  12.337   4.372  2.0747 -0.0485 -0.2386
  114MOL0     H15389  10.303  11.515   4.604 -0.8197  1.5720  1.1225
  114MOL0     H15390  10.386  11.335   4.719 -1.0797  0.6376 -2.5434
  115MOL0     O15391   5.221  10.476   5.165  0.8660  0.2417 -0.9107
  115MOL0     C15392   5.270  10.588   5.186 -1.9197 -1.1595  0.3347
  115MOL0     O15393   5.280  10.684   5.095 -0.7087 -0.2508  0.6004
  115MOL0     C15394   5.224  10.662   4.969 -0.2463  0.5338 -0.0811
  115MOL0     C15395   5.127  10.753   4.924  0.3744  0.1911  0.0269
  115MOL0     C15396   5.063  10.741   4.801  0.2978  0.2408  0.1482
  115MOL0     C15397   5.101  10.641   4.714  0.2734  0.5088 -0.5410
  115MOL0     O15398   5.045  10.611   4.587 -0.1424  0.5021  0.2913
  115MOL0     C15399   4.912  10.661   4.567 -0.3839  0.3993 -0.0236
  115MOL0     C15400   4.830  10.585   4.454  0.1126 -1.3327  0.8290
  115MOL0     C15401   4.835  10.433   4.464  0.7034  0.6853 -0.6348
  115MOL0     C15402   4.774  10.368   4.336  0.2796  0.2639 -0.3303
  115MOL0     C15403   4.752  10.221   4.355 -0.5710  0.0304 -0.3130
  115MOL0     C15404   4.879  10.138   4.376 -0.5593  0.2809 -0.4474
  115MOL0     C15405   4.840   9.995   4.404 -0.3389  0.5783 -0.9217
  115MOL0     C15406   4.960   9.906   4.434  0.4742  0.2237 -0.8919
  115MOL0     N15407   5.086   9.918   4.348  0.5133  0.0363  0.0136
  115MOL0     C15408   5.195   9.836   4.365 -0.2678 -0.2449 -0.2184
  115MOL0     C15409   5.263   9.842   4.250 -0.5809 -0.4449 -0.0641
  115MOL0     C15410   5.385   9.759   4.214 -0.1730 -0.2762 -0.4824
  115MOL0     C15411   5.349   9.616   4.158 -0.2683  0.7805 -0.0411
  115MOL0     C15412   5.228   9.548   4.236  0.5913  0.3020 -0.5650
  115MOL0     C15413   5.269   9.461   4.355 -0.5616  0.4403  0.5493
  115MOL0     O15414   5.289   9.554   4.472 -0.0243  0.8767  0.5544
  115MOL0     C15415   5.346   9.500   4.587  0.0823 -1.0720  0.0688
  115MOL0     C15416   5.390   9.596   4.680 -0.7666 -0.2058 -0.5750
  115MOL0     C15417   5.461   9.557   4.798  0.1939  0.1033  0.0255
  115MOL0     C15418   5.494   9.667   4.898 -1.2272 -0.7905  0.6264
  115MOL0     C15419   5.503   9.421   4.820 -1.1988  0.4115  0.6301
  115MOL0     C15420   5.586   9.368   4.935  0.3914 -0.4768 -0.0226
  115MOL0     O15421   5.648   9.251   4.899  0.3685  0.4716 -1.4166
  115MOL0     C15422   5.754   9.209   4.977  1.1229  0.9141 -0.0183
  115MOL0     C15423   5.765   9.067   5.001  0.4654 -0.3233  0.7977
  115MOL0     C15424   5.874   9.028   5.070 -0.4749  0.4510 -0.3610
  115MOL0     C15425   5.980   9.117   5.113  0.8445  2.4065  0.6730
  115MOL0     O15426   6.101   9.086   5.179  0.7828 -0.4757 -0.6721
  115MOL0     C15427   6.095   8.973   5.262  0.2588  0.9018 -0.3925
  115MOL0     C15428   6.239   8.948   5.313  0.0808 -0.1660  0.2662
  115MOL0     C15429   6.297   9.044   5.420  0.3383  0.6502  0.3802
  115MOL0     C15430   6.440   9.003   5.461 -0.8147  0.2034  0.3980
  115MOL0     C15431   6.521   9.093   5.551  0.0083  0.5671 -0.5329
  115MOL0     C15432   6.451   9.128   5.690 -0.0294  0.6574  0.5673
  115MOL0     C15433   6.518   9.243   5.774 -0.0416  0.4116  0.4406
  115MOL0     C15434   6.474   9.387   5.741  0.5668  0.0974 -1.1626
  115MOL0    Cl15435   6.578   9.503   5.836  0.2693 -0.2580  0.3258
  115MOL0     C15436   5.971   9.248   5.069  0.5305  0.0367 -0.2480
  115MOL0     C15437   5.855   9.292   5.010 -0.3555  0.8583  0.4695
  115MOL0     O15438   5.602   9.429   5.038  0.8751  0.5051  0.0252
  115MOL0     C15439   5.457   9.326   4.718 -0.3314  0.6571 -0.3005
  115MOL0     C15440   5.383   9.365   4.604 -0.7628 -0.5525 -0.0508
  115MOL0     N15441   5.192   9.920   4.157 -0.6373  0.2632  0.7615
  115MOL0     N15442   5.091   9.966   4.218  0.2082 -0.4707 -0.1290
  115MOL0     C15443   5.202  10.544   4.759  0.7112 -0.2918 -0.9843
  115MOL0     C15444   5.260  10.554   4.883  0.0183 -0.2390  0.0415
  115MOL0     C15445   5.325  10.611   5.321  0.0317 -0.8682  0.7782
  115MOL0     C15446   5.387  10.732   5.347 -0.9856  0.4165 -0.4305
  115MOL0     C15447   5.424  10.750   5.484 -0.1308  0.1645 -0.3306
  115MOL0     C15448   5.403  10.653   5.589 -0.1056  1.0101 -0.3180
  115MOL0     O15449   5.437  10.668   5.720  0.2783  0.7633  0.2257
  115MOL0     C15450   5.319  10.672   5.797  0.4824 -0.0119  0.4699
  115MOL0     C15451   5.346  10.637   5.938 -0.7987  0.8062 -0.1976
  115MOL0     C15452   5.385  10.484   5.943  0.4229 -0.1215  0.9991
  115MOL0     C15453   5.385  10.431   6.086 -0.4059 -0.0782  0.1654
  115MOL0     C15454   5.401  10.285   6.078 -0.3968 -0.1267  0.2736
  115MOL0     C15455   5.418  10.161   6.070 -0.8657  0.2599 -1.7387
  115MOL0     C15456   5.371  10.525   5.543 -0.6459  1.2154 -0.3042
  115MOL0     C15457   5.323  10.506   5.414  0.2374  0.2119 -0.2919
  115MOL0     H15458   5.098  10.839   4.983 -0.9821  0.5421 -1.1152
  115MOL0     H15459   4.979  10.806   4.779  3.0067  4.4950  1.2321
  115MOL0     H15460   4.846  10.653   4.653 -1.9121  0.3524 -1.1564
  115MOL0     H15461   4.922  10.765   4.534  0.1030  0.2444 -0.3912
  115MOL0     H15462   4.734  10.636   4.464 -0.0929 -2.1584  4.6379
  115MOL0     H15463   4.873  10.613   4.357  1.3442 -0.8172  1.5016
  115MOL0     H15464   4.935  10.396   4.486 -0.0350 -1.6572 -0.9262
  115MOL0     H15465   4.775  10.399   4.550  0.0574  0.6762 -1.0840
  115MOL0     H15466   4.682  10.422   4.311 -0.9888 -1.9055 -0.6395
  115MOL0     H15467   4.843  10.383   4.253  0.3189  1.8672 -0.0368
  115MOL0     H15468   4.688  10.208   4.443  0.4172  1.8376  0.7254
  115MOL0     H15469   4.698  10.185   4.267 -0.4587 -1.5312  0.2216
  115MOL0     H15470   4.946  10.149   4.291 -0.0776  3.5356  0.2284
  115MOL0     H15471   4.945  10.172   4.456 -1.5846 -0.4170  0.7438
  115MOL0     H15472   4.769   9.978   4.485  0.8088  0.7492  0.1595
  115MOL0     H15473   4.778   9.960   4.321 -3.5768 -2.0892  2.3379
  115MOL0     H15474   4.910   9.809   4.436 -0.5349  0.6372  3.5609
  115MOL0     H15475   4.980   9.917   4.541  0.3957  0.9290 -0.9465
  115MOL0     H15476   5.200   9.774   4.454 -0.4527  0.7371  0.4929
  115MOL0     H15477   5.459   9.809   4.151  0.1789 -0.6781 -0.3891
  115MOL0     H15478   5.437   9.732   4.306 -0.1237 -1.0016 -0.7216
  115MOL0     H15479   5.437   9.551   4.158  0.3531  1.3624 -3.9591
  115MOL0     H15480   5.315   9.634   4.055 -2.4392  1.1241  0.6759
  115MOL0     H15481   5.178   9.483   4.163 -2.9056  2.2822 -0.1308
  115MOL0     H15482   5.155   9.623   4.264 -0.0845 -1.5683  3.2767
  115MOL0     H15483   5.365   9.416   4.327  0.0277  0.7855  1.9106
  115MOL0     H15484   5.202   9.377   4.378  0.2525 -0.8467 -1.4642
  115MOL0     H15485   5.358   9.697   4.657  1.2245  0.5976  0.0297
  115MOL0     H15486   5.576   9.727   4.855  0.4361 -3.5831 -0.3409
  115MOL0     H15487   5.400   9.719   4.918 -0.8279 -0.2174  1.0506
  115MOL0     H15488   5.533   9.634   4.994  0.5171  1.2091  0.6814
  115MOL0     H15489   5.695   8.997   4.957 -1.1215  0.0934  2.5576
  115MOL0     H15490   5.876   8.919   5.063 -4.6203  0.1074  1.0910
  115MOL0     H15491   6.029   8.982   5.349 -2.0724 -1.2785 -1.7918
  115MOL0     H15492   6.057   8.882   5.215 -0.2288 -1.6657  4.2952
  115MOL0     H15493   6.229   8.850   5.361 -1.8566 -0.2326 -0.1970
  115MOL0     H15494   6.311   8.943   5.231  0.7502  2.0065  0.6706
  115MOL0     H15495   6.238   9.047   5.512  0.7405  0.1452  0.6666
  115MOL0     H15496   6.299   9.146   5.381  1.3288  0.0362 -1.2681
  115MOL0     H15497   6.435   8.913   5.523 -0.0140 -0.5217 -0.5626
  115MOL0     H15498   6.488   8.982   5.365 -1.4231 -0.1136  0.1589
  115MOL0     H15499   6.545   9.185   5.497  0.4453  0.8743  0.1585
  115MOL0     H15500   6.622   9.054   5.563  0.1583 -0.2211 -3.5980
  115MOL0     H15501   6.346   9.143   5.663 -0.0932  0.2406  0.5820
  115MOL0     H15502   6.460   9.040   5.755 -2.7849  2.6281  3.9709
  115MOL0     H15503   6.626   9.238   5.757 -0.2352  1.9082 -1.6337
  115MOL0     H15504   6.494   9.219   5.878 -1.1275 -2.2223 -0.3424
  115MOL0     H15505   6.369   9.394   5.768  0.0643  0.8394 -3.0943
  115MOL0     H15506   6.468   9.402   5.632  1.8030  3.2570 -0.8999
  115MOL0     H15507   6.042   9.327   5.091  2.1273 -0.4409 -3.1676
  115MOL0     H15508   5.872   9.397   4.988  0.8622  0.1546 -2.5264
  115MOL0     H15509   5.489   9.223   4.718 -1.3270  0.3201 -1.6254
  115MOL0     H15510   5.372   9.282   4.536  2.2185 -0.1842 -1.1356
  115MOL0     H15511   5.220  10.474   4.678 -3.0099 -1.0226 -1.3476
  115MOL0     H15512   5.355  10.504   4.904 -0.7599 -2.5985 -1.6121
  115MOL0     H15513   5.405  10.804   5.267  1.3611  1.6391  1.0899
  115MOL0     H15514   5.470  10.845   5.508 -2.1962  1.3116 -0.7042
  115MOL0     H15515   5.284  10.776   5.790 -3.3843 -1.2435 -1.0366
  115MOL0     H15516   5.239  10.608   5.759  1.4441  0.5487 -2.8062
  115MOL0     H15517   5.254  10.659   5.993 -2.9774 -1.2599 -2.7628
  115MOL0     H15518   5.421  10.703   5.983  0.3835 -2.0643  2.4074
  115MOL0     H15519   5.489  10.473   5.911  0.0748  2.3044 -1.3771
  115MOL0     H15520   5.318  10.416   5.891  0.9955 -0.6336  0.9229
  115MOL0     H15521   5.296  10.452   6.146 -1.4742  0.2384 -1.4842
  115MOL0     H15522   5.471  10.477   6.136 -0.1812  0.8156 -0.9923
  115MOL0     H15523   5.449  10.058   6.079  3.3379  1.4934  1.3715
  115MOL0     H15524   5.370  10.441   5.613  0.7399  1.0303 -0.4814
  115MOL0     H15525   5.266  10.418   5.389  0.2749  0.6829 -2.2424
  116MOL0     O15526  10.603   3.851   2.705 -0.1943 -0.4199 -0.4874
  116MOL0     C15527  10.507   3.918   2.673  0.4956  0.3229 -0.2075
  116MOL0     O15528  10.379   3.913   2.724 -0.5318  0.7227  0.4712
  116MOL0     C15529  10.357   3.814   2.820  0.3604 -0.5356  0.0994
  116MOL0     C15530  10.261   3.851   2.905  0.3506  0.3302  1.2079
  116MOL0     C15531  10.230   3.782   3.020 -0.6109  0.4695  0.2457
  116MOL0     C15532  10.296   3.662   3.047  0.9718 -0.4014 -1.1412
  116MOL0     O15533  10.277   3.588   3.167 -0.5249  0.0186 -0.3725
  116MOL0     C15534  10.161   3.608   3.251 -0.1897 -0.1674 -0.0211
  116MOL0     C15535  10.166   3.730   3.345 -0.6849 -0.6485 -0.8581
  116MOL0     C15536  10.254   3.687   3.467  0.5247 -0.0948 -1.0776
  116MOL0     C15537  10.271   3.800   3.571  0.7985 -0.5646  0.6247
  116MOL0     C15538  10.353   3.763   3.702  0.1297  0.3826  0.1436
  116MOL0     C15539  10.371   3.890   3.779 -0.6621 -0.4989 -0.5614
  116MOL0     C15540  10.510   3.894   3.847 -0.6288  0.3066 -0.4519
  116MOL0     C15541  10.626   3.914   3.742  1.4568  0.1224  0.0434
  116MOL0     N15542  10.715   3.799   3.734  0.4502  0.1169 -0.2246
  116MOL0     C15543  10.840   3.795   3.777 -0.9791 -0.2373 -0.5784
  116MOL0     C15544  10.892   3.687   3.719 -0.5120  0.3592  0.2022
  116MOL0     C15545  11.041   3.638   3.707  0.9954 -0.9391  0.4083
  116MOL0     C15546  11.143   3.744   3.653 -0.7864  0.1104 -1.1902
  116MOL0     C15547  11.143   3.764   3.501  0.3394  0.1361 -0.0200
  116MOL0     C15548  11.262   3.851   3.459  0.3217  0.2296  0.5242
  116MOL0     O15549  11.258   3.981   3.505  0.1702  0.6188  0.3351
  116MOL0     C15550  11.206   4.079   3.424  0.2966 -0.1810  0.3305
  116MOL0     C15551  11.214   4.217   3.464 -0.4758 -0.5436 -0.4756
  116MOL0     C15552  11.168   4.323   3.388  0.9293 -0.3531 -0.4050
  116MOL0     C15553  11.177   4.460   3.448 -0.6873 -0.3280 -1.5991
  116MOL0     C15554  11.100   4.287   3.262  0.3085  0.6481 -0.4643
  116MOL0     C15555  11.076   4.392   3.157 -0.2330 -0.8883 -0.5380
  116MOL0     O15556  11.077   4.520   3.194  0.6848 -0.1261 -0.4875
  116MOL0     C15557  11.071   4.609   3.090 -0.2454  0.4439 -0.7285
  116MOL0     C15558  10.962   4.642   3.016  0.0792 -0.5677  0.2689
  116MOL0     C15559  10.976   4.738   2.913 -0.4038  0.2180 -0.0443
  116MOL0     C15560  11.097   4.810   2.896  0.1180  1.0935  0.7232
  116MOL0     O15561  11.111   4.912   2.808  0.7829  0.6416  0.2741
  116MOL0     C15562  11.020   4.914   2.697  0.6578 -0.6676 -0.3289
  116MOL0     C15563  11.056   5.029   2.603 -0.0152  0.4064  0.5016
  116MOL0     C15564  11.204   5.037   2.577  0.6911  0.4971 -0.8200
  116MOL0     C15565  11.238   5.170   2.503 -0.7622 -0.5142 -0.0029
  116MOL0     C15566  11.384   5.186   2.461 -0.2112  0.3466 -0.7804
  116MOL0     C15567  11.430   5.317   2.401 -0.1338  0.5718  0.6525
  116MOL0     C15568  11.466   5.425   2.512  1.7558  0.4538  0.0931
  116MOL0     C15569  11.527   5.548   2.460 -0.0128 -0.2563  0.0821
  116MOL0    Cl15570  11.405   5.606   2.351  0.1796 -0.3352  0.6585
  116MOL0     C15571  11.205   4.778   2.982 -0.5081 -0.8525 -0.1773
  116MOL0     C15572  11.187   4.678   3.077 -0.6976  0.3599  0.2721
  116MOL0     O15573  11.048   4.346   3.046  0.5200 -0.3778  1.1705
  116MOL0     C15574  11.076   4.160   3.225 -0.6313  0.1144  0.5742
  116MOL0     C15575  11.126   4.056   3.307 -0.2948 -0.5652 -0.0363
  116MOL0     N15576  10.797   3.627   3.650  0.5311 -0.2302  0.8523
  116MOL0     N15577  10.683   3.690   3.661 -0.2623 -0.2069  0.2770
  116MOL0     C15578  10.385   3.619   2.947  0.6870 -0.5210 -0.2364
  116MOL0     C15579  10.410   3.692   2.835 -0.6774  0.0357  0.3584
  116MOL0     C15580  10.530   4.015   2.567  0.6622 -0.6776  0.6177
  116MOL0     C15581  10.437   4.123   2.540 -0.1853 -0.2900  1.2764
  116MOL0     C15582  10.476   4.218   2.447  0.2351  0.0573  0.1459
  116MOL0     C15583  10.589   4.206   2.365  0.9438  0.0842 -0.1499
  116MOL0     O15584  10.607   4.302   2.262 -0.4324  0.4537 -0.0139
  116MOL0     C15585  10.724   4.283   2.177  0.2476 -0.4996  0.6509
  116MOL0     C15586  10.731   4.394   2.076 -0.0200  0.6595 -0.1124
  116MOL0     C15587  10.749   4.536   2.132  0.0687  0.7638 -0.3494
  116MOL0     C15588  10.770   4.641   2.027 -0.1278  0.0708  0.0350
  116MOL0     C15589  10.646   4.667   1.951  0.4312 -0.4996  0.4307
  116MOL0     C15590  10.548   4.680   1.884  0.3068 -0.1627  0.7773
  116MOL0     C15591  10.672   4.096   2.383 -0.2968  0.3986  0.0996
  116MOL0     C15592  10.647   4.011   2.494  0.0901  0.0171  0.4489
  116MOL0     H15593  10.212   3.948   2.903 -0.4009  0.0103  2.7139
  116MOL0     H15594  10.163   3.833   3.088  0.3867  1.4933  0.4739
  116MOL0     H15595  10.081   3.617   3.177 -0.8981 -0.3536  0.7077
  116MOL0     H15596  10.149   3.517   3.311 -0.8931  1.0034  1.6775
  116MOL0     H15597  10.211   3.814   3.291 -1.3721  3.2840  3.9205
  116MOL0     H15598  10.066   3.750   3.385 -1.4436 -2.3642 -1.8008
  116MOL0     H15599  10.229   3.596   3.523  1.2561  2.4880  4.0756
  116MOL0     H15600  10.358   3.678   3.432  0.4504 -3.3593 -0.7725
  116MOL0     H15601  10.306   3.891   3.523  1.5864 -0.2680  1.7169
  116MOL0     H15602  10.172   3.831   3.607  1.4546  0.3256  1.7251
  116MOL0     H15603  10.299   3.688   3.760 -1.0952  0.8953 -0.2977
  116MOL0     H15604  10.452   3.725   3.674  0.8205  1.8256  0.5125
  116MOL0     H15605  10.351   3.978   3.718 -0.6726 -0.5894 -0.6892
  116MOL0     H15606  10.296   3.889   3.858 -0.7118  1.0599 -0.5619
  116MOL0     H15607  10.521   3.968   3.926  0.0386 -1.8198  1.5787
  116MOL0     H15608  10.525   3.801   3.903  2.0476  1.1129  0.3648
  116MOL0     H15609  10.686   3.997   3.782 -0.3901  1.7786 -0.4619
  116MOL0     H15610  10.597   3.950   3.643  1.7472 -0.2154 -0.1676
  116MOL0     H15611  10.912   3.863   3.822  0.8914 -0.6116 -2.8000
  116MOL0     H15612  11.090   3.611   3.800  1.6366 -0.2055  0.2889
  116MOL0     H15613  11.038   3.546   3.649  2.1069 -0.3479 -0.6326
  116MOL0     H15614  11.238   3.708   3.695  0.6131  1.8095 -2.7530
  116MOL0     H15615  11.135   3.840   3.705 -0.6948 -1.7477  2.6134
  116MOL0     H15616  11.054   3.814   3.462  0.9973 -1.2318 -3.6133
  116MOL0     H15617  11.146   3.670   3.445 -0.8908 -0.8205  1.4282
  116MOL0     H15618  11.273   3.855   3.350 -0.8163 -1.5031  0.3184
  116MOL0     H15619  11.356   3.808   3.495  0.2537  2.4674  3.8437
  116MOL0     H15620  11.276   4.241   3.550 -2.6620  0.5723  0.8804
  116MOL0     H15621  11.220   4.547   3.398 -2.2409  0.8093 -1.0500
  116MOL0     H15622  11.083   4.504   3.483  0.0976  2.4036 -2.6415
  116MOL0     H15623  11.240   4.454   3.537 -6.2257 -2.1104  2.8562
  116MOL0     H15624  10.866   4.595   3.036 -0.9384  1.8537  1.5276
  116MOL0     H15625  10.889   4.748   2.849 -2.2515 -1.6518  1.9923
  116MOL0     H15626  11.033   4.822   2.639 -0.1359 -1.1548  0.2485
  116MOL0     H15627  10.915   4.922   2.725 -0.2395 -0.8877 -3.2492
  116MOL0     H15628  10.996   5.027   2.511 -1.7635  1.1231  1.5628
  116MOL0     H15629  11.038   5.122   2.656  2.2385 -0.2823  2.6434
  116MOL0     H15630  11.242   4.955   2.516 -1.0986 -0.4665 -0.7322
  116MOL0     H15631  11.261   5.054   2.668  0.9747  0.9442 -1.0799
  116MOL0     H15632  11.178   5.180   2.413 -2.7106  0.4747  1.3463
  116MOL0     H15633  11.231   5.256   2.570  2.3028 -0.5622  0.5438
  116MOL0     H15634  11.399   5.109   2.384  0.8029 -0.4142  0.1521
  116MOL0     H15635  11.451   5.153   2.541  1.8489  2.8831 -1.3259
  116MOL0     H15636  11.519   5.297   2.341 -2.3712  2.1820 -3.7405
  116MOL0     H15637  11.357   5.364   2.333  1.3123  1.5778 -0.2680
  116MOL0     H15638  11.549   5.387   2.572  1.7131  1.5351  0.8545
  116MOL0     H15639  11.377   5.448   2.570  1.2786 -1.9348  0.4127
  116MOL0     H15640  11.625   5.541   2.413  0.9179  2.5067  1.4028
  116MOL0     H15641  11.541   5.628   2.534 -2.6435 -0.3839  0.8327
  116MOL0     H15642  11.298   4.834   2.979 -0.6079 -0.4057  2.2700
  116MOL0     H15643  11.271   4.641   3.135 -2.4452 -1.8265  1.5517
  116MOL0     H15644  11.016   4.131   3.139 -0.3740  0.7804  0.1655
  116MOL0     H15645  11.094   3.960   3.268  1.0734  0.8675 -5.5864
  116MOL0     H15646  10.429   3.521   2.957 -0.5763 -0.9442  2.1264
  116MOL0     H15647  10.475   3.654   2.756  0.1723  0.9778  0.5706
  116MOL0     H15648  10.352   4.151   2.602  0.8793  2.7961  1.5406
  116MOL0     H15649  10.421   4.311   2.443 -0.3198 -0.2423  0.7132
  116MOL0     H15650  10.821   4.287   2.228  2.5468  3.0520 -3.2709
  116MOL0     H15651  10.718   4.187   2.125 -0.5575  1.1339 -2.5814
  116MOL0     H15652  10.635   4.387   2.024 -1.4012  1.0925  2.2333
  116MOL0     H15653  10.819   4.390   2.011  1.0599  0.0158  1.3454
  116MOL0     H15654  10.841   4.524   2.190  0.1769 -2.6398 -0.9978
  116MOL0     H15655  10.666   4.577   2.191 -0.5274  0.9315 -1.2795
  116MOL0     H15656  10.855   4.619   1.962  0.4604 -1.5069  1.2736
  116MOL0     H15657  10.801   4.732   2.080 -2.5320 -1.9747  5.8058
  116MOL0     H15658  10.470   4.715   1.819 -0.1964 -3.6978 -0.7174
  116MOL0     H15659  10.758   4.080   2.319  0.1872  0.2729  0.7761
  116MOL0     H15660  10.724   3.939   2.520 -1.7095 -1.4432  2.0880
  117MOL0     O15661   9.475   6.043  11.227  0.6597  0.3454 -0.1126
  117MOL0     C15662   9.407   5.962  11.298 -1.0174 -1.0463 -0.5562
  117MOL0     O15663   9.427   5.830  11.306 -1.1118  0.2584 -0.3644
  117MOL0     C15664   9.542   5.785  11.236 -0.6564  0.4211 -0.3314
  117MOL0     C15665   9.525   5.725  11.116  0.7926  0.7126  0.6673
  117MOL0     C15666   9.632   5.662  11.042 -0.0727  0.4443  0.5133
  117MOL0     C15667   9.758   5.655  11.109  0.1425 -0.6576  0.2777
  117MOL0     O15668   9.855   5.601  11.017  0.6688  0.6430 -0.0807
  117MOL0     C15669   9.982   5.561  11.062  0.2586  1.1695 -0.0127
  117MOL0     C15670  10.102   5.668  11.077 -0.1831 -0.1342 -0.3056
  117MOL0     C15671  10.168   5.699  10.939 -0.7911 -1.8757 -0.8068
  117MOL0     C15672  10.123   5.835  10.876 -0.4607 -0.9871 -0.6923
  117MOL0     C15673  10.212   5.898  10.768 -0.1036 -0.5580 -0.4409
  117MOL0     C15674  10.137   5.997  10.688  0.7484  1.1678 -0.2052
  117MOL0     C15675  10.216   6.087  10.595 -0.6573 -1.1047  0.8670
  117MOL0     C15676  10.117   6.178  10.512  0.1166  0.7256 -1.2467
  117MOL0     N15677  10.013   6.261  10.589 -0.4933 -0.0513  0.8346
  117MOL0     C15678  10.024   6.314  10.710  0.3689  0.7933  0.3757
  117MOL0     C15679   9.945   6.423  10.702  1.2838 -0.5059 -0.6408
  117MOL0     C15680   9.947   6.530  10.807 -0.8122 -0.0379  0.5507
  117MOL0     C15681  10.095   6.563  10.861  0.5922  0.1162 -0.1381
  117MOL0     C15682  10.091   6.713  10.899  0.2857 -0.6336 -0.5154
  117MOL0     C15683  10.192   6.737  11.015 -0.4640 -0.4959 -0.2766
  117MOL0     O15684  10.315   6.648  10.996  0.0636 -0.6306 -0.2831
  117MOL0     C15685  10.427   6.661  11.071 -0.2679  0.2083  0.1985
  117MOL0     C15686  10.540   6.593  11.016  0.1795 -0.5707 -0.9234
  117MOL0     C15687  10.668   6.608  11.075  0.0587  0.4805 -1.2379
  117MOL0     C15688  10.778   6.525  11.013  0.6779  0.3696 -0.2671
  117MOL0     C15689  10.672   6.686  11.195  0.3328  0.9203 -0.3017
  117MOL0     C15690  10.799   6.698  11.275 -0.0847 -0.3096 -0.1381
  117MOL0     O15691  10.785   6.784  11.378  1.1126 -0.0410 -0.4087
  117MOL0     C15692  10.896   6.829  11.448  0.4338  1.0310  0.5872
  117MOL0     C15693  10.994   6.912  11.387  0.3645 -0.6473 -0.2920
  117MOL0     C15694  11.102   6.959  11.448 -0.4588  0.5062 -0.6437
  117MOL0     C15695  11.127   6.919  11.582 -1.1843 -0.2650  0.3024
  117MOL0     O15696  11.235   6.962  11.642 -0.0809  0.0158 -0.3201
  117MOL0     C15697  11.267   7.095  11.633  0.4644 -0.0783  0.1441
  117MOL0     C15698  11.167   7.195  11.702 -0.0009  0.1286  0.7969
  117MOL0     C15699  11.195   7.342  11.646 -0.5486  0.2731  0.4859
  117MOL0     C15700  11.078   7.436  11.669  0.3378 -0.2916 -0.0716
  117MOL0     C15701  11.109   7.565  11.741  0.0859 -0.5674 -0.5986
  117MOL0     C15702  11.110   7.540  11.895 -0.3262 -0.0457  1.2506
  117MOL0     C15703  11.142   7.669  11.971 -0.2632 -0.3003 -0.2875
  117MOL0     C15704  11.016   7.768  11.972 -0.4147  0.2106  1.1001
  117MOL0    Cl15705  10.865   7.734  12.061 -0.3666  0.1608 -0.2262
  117MOL0     C15706  11.040   6.835  11.649 -0.0206  0.3899 -0.3117
  117MOL0     C15707  10.921   6.787  11.583 -0.8510 -0.6531 -0.2325
  117MOL0     O15708  10.905   6.666  11.216  0.3482  0.0140  0.0484
  117MOL0     C15709  10.554   6.737  11.256  0.0013 -0.0082  0.3436
  117MOL0     C15710  10.431   6.736  11.179 -0.4104  0.5537 -0.1422
  117MOL0     N15711   9.880   6.433  10.573 -0.4309 -0.4038 -0.0662
  117MOL0     N15712   9.917   6.323  10.516 -0.9846 -0.1875  0.5558
  117MOL0     C15713   9.775   5.714  11.238 -1.3912 -0.1320  0.4675
  117MOL0     C15714   9.670   5.776  11.294  0.1913 -0.1001 -0.7419
  117MOL0     C15715   9.303   6.016  11.385  0.6163 -0.0625  1.0961
  117MOL0     C15716   9.261   5.930  11.492 -0.5984  0.0495  0.4710
  117MOL0     C15717   9.167   5.984  11.579 -0.4238  0.8276  0.2093
  117MOL0     C15718   9.116   6.116  11.563 -0.6981  0.2705 -0.0771
  117MOL0     O15719   9.018   6.174  11.636 -0.6687  0.9235 -0.0010
  117MOL0     C15720   8.954   6.125  11.744  0.8290 -0.0849 -0.2770
  117MOL0     C15721   8.857   6.242  11.779  0.6318 -0.1476 -0.3843
  117MOL0     C15722   8.928   6.364  11.842 -0.2487 -0.7918  0.0743
  117MOL0     C15723   8.833   6.486  11.865  0.1523 -0.0490  0.5000
  117MOL0     C15724   8.915   6.585  11.930 -0.9247 -0.6007  0.5698
  117MOL0     C15725   8.978   6.675  11.986  0.2795  0.6223 -0.2668
  117MOL0     C15726   9.151   6.189  11.452  0.0302 -0.0600  0.1775
  117MOL0     C15727   9.250   6.143  11.367  0.9473 -0.2361  0.8562
  117MOL0     H15728   9.425   5.727  11.072  0.2136 -0.4882  1.8929
  117MOL0     H15729   9.626   5.626  10.940 -1.6367  1.0023  0.3743
  117MOL0     H15730   9.972   5.506  11.156  0.5254  1.4121  0.1601
  117MOL0     H15731  10.017   5.480  10.998 -0.4543 -1.8697  3.1380
  117MOL0     H15732  10.065   5.757  11.129 -3.5628 -1.3838 -0.3038
  117MOL0     H15733  10.160   5.618  11.154  0.0921  1.5103  0.6091
  117MOL0     H15734  10.276   5.694  10.953 -0.9126 -1.1538  0.5797
  117MOL0     H15735  10.137   5.621  10.869 -2.2248  1.2076 -3.8589
  117MOL0     H15736  10.020   5.822  10.842 -0.9868  0.5467  0.2218
  117MOL0     H15737  10.119   5.909  10.956  0.1746 -0.5065 -1.0922
  117MOL0     H15738  10.286   5.950  10.828  1.9632 -2.4761 -1.1953
  117MOL0     H15739  10.267   5.823  10.711  1.9797 -1.0115  1.9898
  117MOL0     H15740  10.057   5.945  10.635 -0.5046  1.8864  0.9234
  117MOL0     H15741  10.086   6.064  10.758 -3.8089 -2.2476  0.1585
  117MOL0     H15742  10.283   6.155  10.649 -0.4581 -0.1853 -0.4974
  117MOL0     H15743  10.277   6.024  10.530 -0.4898 -1.3125  1.2208
  117MOL0     H15744  10.062   6.112  10.444 -2.1687  0.5096  0.6515
  117MOL0     H15745  10.169   6.243  10.442 -0.6130  1.5665 -1.0309
  117MOL0     H15746  10.096   6.298  10.789 -0.6978 -0.2226  1.1921
  117MOL0     H15747   9.921   6.616  10.744  0.6336 -0.8531 -1.2463
  117MOL0     H15748   9.865   6.523  10.880 -0.2721  2.2671  1.4807
  117MOL0     H15749  10.161   6.534  10.779 -1.2251 -3.1895 -0.6177
  117MOL0     H15750  10.120   6.507  10.952  1.4091  1.2789  0.3847
  117MOL0     H15751   9.996   6.744  10.942  0.7737 -2.4852  2.1032
  117MOL0     H15752  10.120   6.774  10.813 -1.0506  0.4565 -0.2359
  117MOL0     H15753  10.154   6.710  11.114  0.1055 -0.3900 -0.0216
  117MOL0     H15754  10.222   6.842  11.022 -0.6484 -0.3073 -1.9506
  117MOL0     H15755  10.532   6.529  10.928  2.8732  1.0223 -2.4568
  117MOL0     H15756  10.805   6.434  11.068 -2.3920  0.0737  0.9515
  117MOL0     H15757  10.740   6.494  10.916  0.2336  0.2501 -0.0547
  117MOL0     H15758  10.873   6.579  11.000  1.2115 -0.1907  1.0682
  117MOL0     H15759  10.967   6.954  11.291 -3.9251  1.4850  1.5686
  117MOL0     H15760  11.170   7.027  11.397  1.1366 -1.5273 -1.3981
  117MOL0     H15761  11.362   7.121  11.679  0.3733  0.0326  0.2702
  117MOL0     H15762  11.270   7.123  11.527 -1.1727 -0.9872 -0.1779
  117MOL0     H15763  11.066   7.177  11.666  0.2017 -0.3473  0.4508
  117MOL0     H15764  11.176   7.185  11.811 -2.1339 -1.0198  0.9086
  117MOL0     H15765  11.218   7.339  11.539 -1.1747  2.5580  0.2235
  117MOL0     H15766  11.286   7.383  11.692  0.2269 -2.3371  1.4360
  117MOL0     H15767  11.055   7.455  11.564  0.2929  0.3626  0.0518
  117MOL0     H15768  10.994   7.387  11.719  0.5058  1.2401  1.7935
  117MOL0     H15769  11.025   7.632  11.723 -0.6789 -1.8583 -2.1048
  117MOL0     H15770  11.200   7.609  11.699 -0.7209  0.0895 -1.6997
  117MOL0     H15771  11.017   7.499  11.937  0.2244 -0.8927  1.6890
  117MOL0     H15772  11.183   7.459  11.911 -1.8649 -1.5371  1.0556
  117MOL0     H15773  11.231   7.714  11.927  1.7311 -3.3802  0.3108
  117MOL0     H15774  11.176   7.655  12.074 -3.6069  2.0244  1.3225
  117MOL0     H15775  10.982   7.783  11.869  2.1641  1.4647  0.3537
  117MOL0     H15776  11.049   7.867  12.003  2.4984 -0.3042 -0.0210
  117MOL0     H15777  11.058   6.802  11.751 -0.6888 -1.3555 -0.7099
  117MOL0     H15778  10.853   6.717  11.630 -1.4486  1.5551  2.4465
  117MOL0     H15779  10.551   6.790  11.350 -0.4666 -2.0886  1.5473
  117MOL0     H15780  10.345   6.789  11.219 -0.7467 -0.3197  0.3032
  117MOL0     H15781   9.869   5.710  11.292 -0.9340 -0.1215 -0.3270
  117MOL0     H15782   9.700   5.824  11.387  0.8712 -2.8087  0.5369
  117MOL0     H15783   9.296   5.829  11.510 -0.2272  0.2757  1.0422
  117MOL0     H15784   9.140   5.923  11.665  1.2800 -0.7982 -0.3302
  117MOL0     H15785   8.899   6.035  11.715  2.7117 -0.6586 -2.2884
  117MOL0     H15786   9.025   6.114  11.827  2.5617  0.9518 -1.5383
  117MOL0     H15787   8.780   6.215  11.851 -1.2534  0.7394 -1.9443
  117MOL0     H15788   8.797   6.288  11.700 -0.9904  0.6704  1.2383
  117MOL0     H15789   9.014   6.400  11.785 -1.5196 -0.5049 -1.7799
  117MOL0     H15790   8.965   6.324  11.936  0.9908 -1.3467 -0.6252
  117MOL0     H15791   8.743   6.462  11.923 -0.2511 -2.2106 -0.9404
  117MOL0     H15792   8.802   6.521  11.767  1.6694 -0.7140 -0.2521
  117MOL0     H15793   9.034   6.752  12.036 -1.6324  0.7246  1.9006
  117MOL0     H15794   9.101   6.283  11.434 -1.0530 -0.6774 -0.1546
  117MOL0     H15795   9.290   6.195  11.281 -0.8883  1.6792  1.0941
  118MOL0     O15796   9.628   9.262   9.546 -1.2995 -0.1887  0.2767
  118MOL0     C15797   9.677   9.203   9.642 -0.3439 -0.6014 -0.5993
  118MOL0     O15798   9.604   9.149   9.748 -0.2280 -0.2911  0.6755
  118MOL0     C15799   9.474   9.122   9.728 -0.2914  0.0269 -0.2904
  118MOL0     C15800   9.378   9.219   9.741  0.5252 -0.0195  0.1659
  118MOL0     C15801   9.248   9.193   9.701 -1.6437 -1.3450  0.1888
  118MOL0     C15802   9.207   9.069   9.653  1.0260 -0.7911 -0.3758
  118MOL0     O15803   9.084   9.015   9.617  0.4844 -0.3065 -0.2003
  118MOL0     C15804   8.960   9.097   9.628 -0.6030  0.2478  0.0684
  118MOL0     C15805   8.855   9.020   9.703  1.2085  0.1869  0.7374
  118MOL0     C15806   8.812   8.885   9.630 -0.3936 -0.0938 -0.1925
  118MOL0     C15807   8.692   8.829   9.701  0.1617 -0.5685  0.7057
  118MOL0     C15808   8.634   8.701   9.631  0.1044  0.3740  0.5195
  118MOL0     C15809   8.534   8.718   9.510  0.4146 -0.1799  0.5376
  118MOL0     C15810   8.484   8.580   9.469  0.5621  0.3135  0.3197
  118MOL0     C15811   8.402   8.593   9.344 -0.5083 -0.7677  0.7873
  118MOL0     N15812   8.377   8.469   9.276 -0.0676  0.8142  0.3262
  118MOL0     C15813   8.315   8.358   9.332  0.9064  0.1718 -0.0298
  118MOL0     C15814   8.298   8.266   9.236 -0.7256 -0.4355  0.4844
  118MOL0     C15815   8.251   8.125   9.247 -0.8654  0.2713 -0.2588
  118MOL0     C15816   8.329   8.019   9.165  0.3770  1.0243 -0.1708
  118MOL0     C15817   8.466   7.974   9.211 -0.0481  1.2197  0.6860
  118MOL0     C15818   8.554   8.093   9.229  0.3730 -0.1729 -0.5600
  118MOL0     O15819   8.695   8.061   9.207 -0.6190 -0.0980  0.8208
  118MOL0     C15820   8.780   8.171   9.234 -0.6055  0.9052 -0.6836
  118MOL0     C15821   8.739   8.305   9.247 -0.6682  0.3213 -1.0099
  118MOL0     C15822   8.833   8.411   9.260 -0.3714  0.5327 -0.5661
  118MOL0     C15823   8.777   8.551   9.280 -0.4612 -0.2367  0.0825
  118MOL0     C15824   8.971   8.381   9.275  0.2592 -0.3558  0.7132
  118MOL0     C15825   9.081   8.475   9.308  0.0265  0.3064  0.4147
  118MOL0     O15826   9.215   8.441   9.297  0.5089  0.1709 -0.0122
  118MOL0     C15827   9.322   8.536   9.307  0.2412 -0.4730  0.1456
  118MOL0     C15828   9.339   8.646   9.393  0.0589  0.4982 -0.4942
  118MOL0     C15829   9.454   8.729   9.393  0.0124  0.3832 -0.0267
  118MOL0     C15830   9.560   8.702   9.297  0.7652  0.9923 -0.9192
  118MOL0     O15831   9.671   8.775   9.285  0.6330  0.2940 -0.5842
  118MOL0     C15832   9.626   8.897   9.223 -0.7114 -0.6161 -0.5592
  118MOL0     C15833   9.739   8.977   9.161 -0.2466 -0.8710 -0.8844
  118MOL0     C15834   9.853   9.010   9.258  0.3778 -0.4730  0.6566
  118MOL0     C15835   9.966   9.086   9.181  1.1302 -1.1179 -1.3661
  118MOL0     C15836  10.086   9.112   9.280  0.0702  0.1406 -0.7164
  118MOL0     C15837  10.197   9.190   9.199  0.1999 -0.0819  0.5495
  118MOL0     C15838  10.308   9.217   9.300  0.5224 -1.0077  1.4571
  118MOL0     C15839  10.432   9.288   9.235 -0.2983  1.2003 -0.1732
  118MOL0    Cl15840  10.399   9.409   9.106 -0.1904  0.1335  0.5915
  118MOL0     C15841   9.543   8.596   9.211  0.5659 -0.3911 -0.5014
  118MOL0     C15842   9.431   8.519   9.220 -0.4606 -1.3878  0.5498
  118MOL0     O15843   9.048   8.589   9.343 -0.3081 -0.2371  0.0326
  118MOL0     C15844   9.001   8.244   9.266 -0.2541 -0.2761 -0.2946
  118MOL0     C15845   8.912   8.145   9.247 -0.5260  0.4435 -0.2658
  118MOL0     N15846   8.341   8.334   9.113  0.4539  0.3125 -0.3159
  118MOL0     N15847   8.381   8.456   9.137 -0.0038 -0.8043  0.0257
  118MOL0     C15848   9.306   8.976   9.655  0.5933 -0.1784  0.4967
  118MOL0     C15849   9.440   8.993   9.684 -0.0148  0.4852 -1.0269
  118MOL0     C15850   9.824   9.185   9.646 -0.7747 -0.1216  0.6698
  118MOL0     C15851   9.903   9.287   9.585  0.4158  0.0837  0.2893
  118MOL0     C15852  10.035   9.301   9.607  0.3244  0.9548 -0.6261
  118MOL0     C15853  10.100   9.201   9.679 -0.3187 -0.2554 -0.1459
  118MOL0     O15854  10.241   9.214   9.679 -0.2354 -0.3291  0.6320
  118MOL0     C15855  10.331   9.098   9.681 -0.0920  0.2589  0.8597
  118MOL0     C15856  10.458   9.134   9.731 -0.5768 -0.1647 -0.1601
  118MOL0     C15857  10.526   9.253   9.661  0.5652 -0.9828 -0.9759
  118MOL0     C15858  10.623   9.212   9.547  1.1312 -0.0019 -0.1988
  118MOL0     C15859  10.726   9.318   9.514  0.1494 -0.4262 -0.2136
  118MOL0     C15860  10.802   9.414   9.495  0.5663 -0.8136  0.3350
  118MOL0     C15861  10.030   9.101   9.735 -0.3340  0.3877 -0.9909
  118MOL0     C15862   9.890   9.093   9.721  0.0088 -0.3216  0.3051
  118MOL0     H15863   9.410   9.313   9.785 -1.1007  0.3021  0.7220
  118MOL0     H15864   9.180   9.277   9.707  0.5243  0.4267  1.3711
  118MOL0     H15865   8.959   9.185   9.693 -0.5020  0.5308 -0.3134
  118MOL0     H15866   8.909   9.104   9.532  3.0578  0.0288 -2.1000
  118MOL0     H15867   8.883   9.004   9.808  1.6995 -0.2747  0.5387
  118MOL0     H15868   8.760   9.072   9.722 -0.1700 -2.8417  3.1151
  118MOL0     H15869   8.796   8.893   9.522  0.1345  0.8416 -0.2137
  118MOL0     H15870   8.891   8.810   9.643  1.8891  2.1815 -0.1104
  118MOL0     H15871   8.720   8.793   9.801 -1.8504  2.3518  2.5113
  118MOL0     H15872   8.605   8.894   9.716  0.6046  0.2178 -0.0637
  118MOL0     H15873   8.719   8.635   9.611 -0.4940 -0.2915  0.1079
  118MOL0     H15874   8.577   8.649   9.709 -0.4791  0.0261 -0.1331
  118MOL0     H15875   8.458   8.792   9.536  1.0663 -0.2761  2.9100
  118MOL0     H15876   8.596   8.750   9.426 -1.4051 -4.7871 -2.9814
  118MOL0     H15877   8.562   8.505   9.457 -1.7293 -1.9153 -1.9886
  118MOL0     H15878   8.424   8.558   9.558 -1.2444  1.0801 -0.6555
  118MOL0     H15879   8.439   8.669   9.274 -3.8088  0.8707  0.6117
  118MOL0     H15880   8.308   8.629   9.387  1.0650  2.3624  1.9750
  118MOL0     H15881   8.300   8.348   9.439  1.3118  0.5210  0.0641
  118MOL0     H15882   8.244   8.098   9.352 -3.7569  2.1588  0.1469
  118MOL0     H15883   8.151   8.121   9.204  0.2728 -0.2810 -3.1642
  118MOL0     H15884   8.325   8.057   9.063 -2.7228  3.0685  0.5712
  118MOL0     H15885   8.266   7.930   9.158  2.5037 -0.4539 -1.8947
  118MOL0     H15886   8.515   7.927   9.125  2.1674  4.7484 -0.2082
  118MOL0     H15887   8.460   7.905   9.296 -2.3903 -2.2672 -2.0144
  118MOL0     H15888   8.541   8.135   9.329 -1.2824  1.2223 -1.3070
  118MOL0     H15889   8.520   8.171   9.161 -3.4937 -1.3193 -0.1705
  118MOL0     H15890   8.633   8.326   9.242 -1.5760 -3.1935  0.3611
  118MOL0     H15891   8.815   8.589   9.375  1.4897  0.1629 -0.8161
  118MOL0     H15892   8.819   8.617   9.204  1.0105 -0.3429  0.7704
  118MOL0     H15893   8.667   8.546   9.274 -0.3371 -2.3847 -1.9158
  118MOL0     H15894   9.265   8.662   9.471 -0.0303 -0.2488 -0.4189
  118MOL0     H15895   9.464   8.813   9.462  0.9628  1.9379 -1.9487
  118MOL0     H15896   9.551   8.879   9.146 -0.0255  0.9735 -1.6676
  118MOL0     H15897   9.574   8.955   9.300 -1.5169  1.7207 -2.7249
  118MOL0     H15898   9.774   8.922   9.074  0.1266 -3.0409  0.5621
  118MOL0     H15899   9.695   9.070   9.123 -3.5514 -0.7157  2.7311
  118MOL0     H15900   9.896   8.923   9.308 -0.6533 -1.1191  0.4744
  118MOL0     H15901   9.815   9.070   9.341  1.9304 -0.6008  1.4776
  118MOL0     H15902   9.998   9.019   9.101  0.6295 -2.3268 -0.5726
  118MOL0     H15903   9.931   9.182   9.141 -0.9252  0.1292  2.7964
  118MOL0     H15904  10.132   9.023   9.324 -1.6413  0.0918  1.1773
  118MOL0     H15905  10.056   9.190   9.350  0.1937 -0.0269 -0.4744
  118MOL0     H15906  10.237   9.132   9.115  2.4672  0.3117  1.2966
  118MOL0     H15907  10.148   9.280   9.161  2.2928  0.9220  0.1216
  118MOL0     H15908  10.330   9.122   9.350 -2.2847 -2.7166 -0.3406
  118MOL0     H15909  10.265   9.297   9.361 -0.0408 -0.0371 -0.1494
  118MOL0     H15910  10.502   9.213   9.195 -0.8677  0.6750 -0.1886
  118MOL0     H15911  10.481   9.343   9.316 -3.0405  1.3674  1.4927
  118MOL0     H15912   9.611   8.566   9.132  1.7922 -1.2007  0.8135
  118MOL0     H15913   9.430   8.429   9.159  0.9531 -1.1076  0.0757
  118MOL0     H15914   9.101   8.203   9.272  0.0953  0.5745 -0.2181
  118MOL0     H15915   8.938   8.039   9.243 -0.9824  0.2710  0.7868
  118MOL0     H15916   9.290   8.871   9.636  2.5166 -0.5022  0.4234
  118MOL0     H15917   9.510   8.911   9.673 -0.9507 -0.3398 -0.9946
  118MOL0     H15918   9.847   9.370   9.544  0.1644 -1.8366 -3.6859
  118MOL0     H15919  10.111   9.372   9.575 -0.4868  1.0611 -2.4655
  118MOL0     H15920  10.287   9.007   9.721 -1.2713 -0.0503 -0.9972
  118MOL0     H15921  10.346   9.055   9.581  2.0745 -1.8409  1.9648
  118MOL0     H15922  10.523   9.047   9.716  1.9958  2.0101 -3.1227
  118MOL0     H15923  10.429   9.147   9.835  1.4034 -3.7875  1.0059
  118MOL0     H15924  10.585   9.304   9.738 -0.9032  2.8103 -2.1427
  118MOL0     H15925  10.455   9.322   9.615  2.1932  0.9562 -0.7402
  118MOL0     H15926  10.563   9.197   9.457 -0.2603 -1.8367  0.9623
  118MOL0     H15927  10.677   9.119   9.567  0.5836  0.0889  1.9800
  118MOL0     H15928  10.864   9.496   9.466  0.0794 -0.7154 -0.4612
  118MOL0     H15929  10.070   9.025   9.800 -2.4436  0.0937  0.0526
  118MOL0     H15930   9.830   9.021   9.776 -0.2433 -1.4878 -1.4208
  119MOL0     O15931   8.336   4.023   5.089 -0.1297 -0.2962  0.4947
  119MOL0     C15932   8.278   3.961   5.170  0.1516  0.3942  0.7305
  119MOL0     O15933   8.140   3.949   5.178  0.0553  0.2456  0.3744
  119MOL0     C15934   8.057   4.040   5.117  0.0505  0.7334  0.9051
  119MOL0     C15935   7.978   3.995   5.010  0.5831  0.3662  0.6753
  119MOL0     C15936   7.885   4.067   4.951  0.7563  0.5625  0.1581
  119MOL0     C15937   7.878   4.201   4.993  0.6812 -0.4180 -0.4385
  119MOL0     O15938   7.797   4.290   4.932 -0.6023 -0.2184  0.1441
  119MOL0     C15939   7.755   4.262   4.796 -0.5730 -0.8148 -0.4786
  119MOL0     C15940   7.760   4.389   4.717  0.0621  1.0301 -1.2767
  119MOL0     C15941   7.678   4.490   4.782  0.3403  0.2506 -0.4832
  119MOL0     C15942   7.643   4.606   4.673 -0.4012  0.0163  0.5935
  119MOL0     C15943   7.532   4.694   4.741  0.1325  0.1334 -0.3786
  119MOL0     C15944   7.490   4.813   4.651 -0.1300 -0.3168  0.1925
  119MOL0     C15945   7.380   4.893   4.725 -0.0594 -1.3931 -0.0223
  119MOL0     C15946   7.262   4.825   4.789  0.6314  0.0734 -0.7350
  119MOL0     N15947   7.261   4.811   4.936  0.2792  0.4451  0.2287
  119MOL0     C15948   7.332   4.725   5.016  0.3130  0.4030 -0.2144
  119MOL0     C15949   7.322   4.780   5.141 -0.6355 -0.3075 -0.8738
  119MOL0     C15950   7.381   4.723   5.266 -0.7942  0.2553  0.4539
  119MOL0     C15951   7.539   4.738   5.275  0.0990  0.4612 -0.5966
  119MOL0     C15952   7.613   4.644   5.371 -0.6577 -0.7095  0.6440
  119MOL0     C15953   7.607   4.701   5.515  0.8196 -0.7764  0.3668
  119MOL0     O15954   7.474   4.682   5.559 -0.2071 -0.5744 -0.5085
  119MOL0     C15955   7.453   4.667   5.694  0.5911  0.5209  0.5832
  119MOL0     C15956   7.544   4.701   5.801  0.4818 -0.4585  0.3104
  119MOL0     C15957   7.503   4.686   5.935  0.7419  0.5485  1.1155
  119MOL0     C15958   7.605   4.737   6.042 -1.1726 -0.5408  0.3869
  119MOL0     C15959   7.383   4.617   5.960  0.9901 -1.0552 -0.0716
  119MOL0     C15960   7.338   4.567   6.090  0.1700 -0.2242  0.3078
  119MOL0     O15961   7.205   4.568   6.112 -0.1593 -0.3323 -0.7353
  119MOL0     C15962   7.163   4.504   6.218 -0.7232 -0.3738 -0.8423
  119MOL0     C15963   7.060   4.575   6.274 -0.4701  0.2196 -0.3342
  119MOL0     C15964   6.997   4.519   6.387  0.3667 -0.8184  0.5775
  119MOL0     C15965   7.040   4.408   6.447 -0.1698  0.4112 -0.5018
  119MOL0     O15966   6.978   4.370   6.565  0.2778  0.3104  0.3861
  119MOL0     C15967   6.947   4.232   6.572  0.0937 -0.1042 -0.6224
  119MOL0     C15968   6.891   4.193   6.708 -0.4243 -0.3969 -0.0924
  119MOL0     C15969   6.990   4.154   6.821 -0.3765 -0.6887  0.9650
  119MOL0     C15970   6.986   4.001   6.862  0.0313  0.1474  0.8227
  119MOL0     C15971   7.108   3.981   6.958  0.9536  0.2104  0.3012
  119MOL0     C15972   7.106   3.844   7.020  0.6536  0.0703  0.3593
  119MOL0     C15973   7.232   3.823   7.109  0.1104  0.0997 -1.2299
  119MOL0     C15974   7.245   3.669   7.150 -0.2076  0.8780 -0.6760
  119MOL0    Cl15975   7.273   3.580   6.997  0.2162 -0.2113 -0.5527
  119MOL0     C15976   7.148   4.336   6.387  0.0579  0.4944 -0.6261
  119MOL0     C15977   7.203   4.383   6.275 -0.2040 -0.3187 -0.6484
  119MOL0     O15978   7.424   4.515   6.172  0.0740 -0.5521 -0.3671
  119MOL0     C15979   7.288   4.587   5.852  0.2230  0.4688  0.8189
  119MOL0     C15980   7.329   4.604   5.714 -0.4826  0.3976 -0.5040
  119MOL0     N15981   7.241   4.898   5.139 -0.5424  0.8673 -0.1154
  119MOL0     N15982   7.210   4.915   5.013  0.3148 -0.0752  0.6218
  119MOL0     C15983   7.961   4.257   5.089 -0.2639  0.0164 -1.2040
  119MOL0     C15984   8.050   4.176   5.148 -0.6708 -0.2641  0.2021
  119MOL0     C15985   8.345   3.880   5.274  0.7699 -0.3993  0.3458
  119MOL0     C15986   8.269   3.828   5.381 -0.5712  0.3010 -0.8786
  119MOL0     C15987   8.332   3.730   5.472 -0.2400 -0.5266 -0.7941
  119MOL0     C15988   8.471   3.709   5.455  0.3041  1.0486 -0.3032
  119MOL0     O15989   8.528   3.618   5.539 -0.4669 -0.2803 -0.1356
  119MOL0     C15990   8.670   3.623   5.564  1.2914 -0.0431  0.3536
  119MOL0     C15991   8.731   3.497   5.497  0.9025  0.2243  0.6885
  119MOL0     C15992   8.878   3.492   5.526 -0.3005 -0.4233  0.4180
  119MOL0     C15993   8.960   3.606   5.452 -0.2884  0.3728 -0.3401
  119MOL0     C15994   8.966   3.726   5.539 -0.7495  0.2067 -0.2123
  119MOL0     C15995   8.980   3.822   5.605  0.7986  0.6150  0.0990
  119MOL0     C15996   8.543   3.780   5.360  0.1332 -0.7433 -0.5004
  119MOL0     C15997   8.479   3.857   5.265  0.5731  0.0642 -0.3743
  119MOL0     H15998   7.995   3.892   4.978  1.4413  0.9422 -0.8341
  119MOL0     H15999   7.830   4.024   4.868 -1.5522 -0.8352  2.2861
  119MOL0     H16000   7.816   4.195   4.736  0.1837  0.8518 -1.6515
  119MOL0     H16001   7.651   4.229   4.806 -0.5911 -0.7162 -0.3356
  119MOL0     H16002   7.859   4.431   4.695  0.0304  1.2275 -1.0581
  119MOL0     H16003   7.731   4.360   4.616 -2.6267  0.8231 -0.5100
  119MOL0     H16004   7.579   4.463   4.820 -0.0408  2.5649  0.3790
  119MOL0     H16005   7.731   4.533   4.867  0.9950 -0.4868 -0.5126
  119MOL0     H16006   7.728   4.672   4.652 -1.7089  1.8080  0.7185
  119MOL0     H16007   7.596   4.567   4.581  1.3117  1.4349 -0.9582
  119MOL0     H16008   7.444   4.631   4.758  1.3862 -1.2027  1.4407
  119MOL0     H16009   7.550   4.731   4.842 -2.8650  1.1776 -0.1282
  119MOL0     H16010   7.573   4.877   4.620 -1.2232  0.0950 -2.0866
  119MOL0     H16011   7.440   4.768   4.564 -0.2821  1.7638 -0.8479
  119MOL0     H16012   7.440   4.956   4.791  0.7551 -3.0810  0.8949
  119MOL0     H16013   7.327   4.958   4.655 -3.2903 -2.0136  1.6901
  119MOL0     H16014   7.246   4.737   4.726  0.2344 -0.6695  0.3745
  119MOL0     H16015   7.175   4.886   4.764  0.8722  0.4062 -0.7659
  119MOL0     H16016   7.384   4.632   4.995 -0.3310  0.3527 -1.7204
  119MOL0     H16017   7.336   4.769   5.354 -2.0936 -1.3467  0.6717
  119MOL0     H16018   7.354   4.617   5.266 -0.4471  0.1561 -0.3662
  119MOL0     H16019   7.556   4.846   5.284 -0.4854  0.4545  0.9563
  119MOL0     H16020   7.586   4.710   5.181  0.9605  2.4667 -0.8160
  119MOL0     H16021   7.720   4.642   5.350  0.1571 -3.5210  4.1539
  119MOL0     H16022   7.578   4.541   5.367 -1.7080 -0.3469 -0.4335
  119MOL0     H16023   7.632   4.807   5.510 -0.8571 -0.3927 -2.4701
  119MOL0     H16024   7.675   4.636   5.571 -1.1041 -1.6386  1.8454
  119MOL0     H16025   7.634   4.759   5.787 -0.7174  2.1421  2.5038
  119MOL0     H16026   7.697   4.677   6.040 -0.6609  0.2348 -1.3698
  119MOL0     H16027   7.641   4.838   6.020  1.5720 -1.5451 -0.2278
  119MOL0     H16028   7.558   4.733   6.141  0.3690  0.5593  1.2115
  119MOL0     H16029   7.037   4.675   6.239 -0.7632  0.0878 -0.5253
  119MOL0     H16030   6.919   4.580   6.431  1.4744 -1.2025  3.2407
  119MOL0     H16031   6.869   4.217   6.497 -1.1422  1.1708  0.3446
  119MOL0     H16032   7.036   4.176   6.544  0.4709  0.7253 -1.1456
  119MOL0     H16033   6.847   4.282   6.754  1.9478 -0.6761  3.0256
  119MOL0     H16034   6.808   4.122   6.693 -1.4321  0.8000 -0.3465
  119MOL0     H16035   6.962   4.207   6.913 -0.3816 -0.8957  1.0828
  119MOL0     H16036   7.092   4.185   6.799  0.2060 -2.1048  1.6111
  119MOL0     H16037   6.887   3.971   6.897 -1.8179  1.7389 -2.5648
  119MOL0     H16038   7.005   3.942   6.772  1.6791 -0.5477  1.5799
  119MOL0     H16039   7.106   4.056   7.038  2.5523  2.0745 -1.3041
  119MOL0     H16040   7.193   4.005   6.894 -0.5868  2.4237 -1.0801
  119MOL0     H16041   7.018   3.837   7.085 -2.7909 -0.1091 -3.8790
  119MOL0     H16042   7.102   3.764   6.946 -0.9884  2.2338 -2.0390
  119MOL0     H16043   7.226   3.893   7.193  0.2794  0.9527 -1.9198
  119MOL0     H16044   7.321   3.843   7.049 -0.3814 -0.4497 -2.1587
  119MOL0     H16045   7.170   3.623   7.215  2.9824  0.6656  3.2635
  119MOL0     H16046   7.336   3.652   7.209 -1.5053 -2.1645  0.6645
  119MOL0     H16047   7.199   4.256   6.440  0.1886  1.5303  0.8611
  119MOL0     H16048   7.290   4.341   6.225 -0.2089  1.1514 -1.9751
  119MOL0     H16049   7.199   4.530   5.877  0.1729  0.5632  0.8566
  119MOL0     H16050   7.276   4.568   5.627  3.0933 -0.1101 -2.6334
  119MOL0     H16051   7.967   4.352   5.142 -1.4072 -0.9038  0.6665
  119MOL0     H16052   8.126   4.217   5.215 -0.3727  1.2948 -1.0270
  119MOL0     H16053   8.165   3.845   5.409 -0.2336  0.6067  0.2577
  119MOL0     H16054   8.270   3.686   5.550  0.4560 -0.8185 -0.3953
  119MOL0     H16055   8.722   3.712   5.528  1.8635  0.0550  1.3670
  119MOL0     H16056   8.699   3.631   5.669  0.8244  0.8142  0.4192
  119MOL0     H16057   8.716   3.499   5.389 -1.8100  2.5589  0.9760
  119MOL0     H16058   8.677   3.410   5.535 -1.1385  0.2329 -1.8865
  119MOL0     H16059   8.922   3.398   5.490 -1.0985 -0.4098 -0.6317
  119MOL0     H16060   8.891   3.495   5.635  0.4964 -1.0763  0.3468
  119MOL0     H16061   8.909   3.635   5.360 -0.2465  1.1778 -0.1200
  119MOL0     H16062   9.057   3.564   5.424 -1.3289 -0.3005 -3.2582
  119MOL0     H16063   8.986   3.916   5.656  1.5442  1.3432 -1.2751
  119MOL0     H16064   8.651   3.775   5.360  0.1867  0.3455 -0.5488
  119MOL0     H16065   8.530   3.898   5.178 -1.0085 -1.5205 -2.1350
  120MOL0     O16066   0.637   6.967   0.759  0.1044 -0.2527  0.2441
  120MOL0     C16067   0.647   7.076   0.828 -0.1598  0.8167  0.5492
  120MOL0     O16068   0.638   7.202   0.774  0.8029  0.6950  0.1631
  120MOL0     C16069   0.601   7.215   0.649  0.6240  0.2992  1.1784
  120MOL0     C16070   0.464   7.239   0.628  0.6573  0.4289  0.9270
  120MOL0     C16071   0.397   7.251   0.501 -0.2910  1.0533 -0.7818
  120MOL0     C16072   0.480   7.246   0.391  0.0496 -0.8947 -0.7469
  120MOL0     O16073   0.429   7.241   0.266  0.3909 -0.9565 -0.0346
  120MOL0     C16074   0.337   7.136   0.234  0.6803 -0.1185 -0.4350
  120MOL0     C16075   0.301   7.110   0.076 -0.2237  1.4211 -0.3796
  120MOL0     C16076   0.402   7.153  -0.026 -0.4839 -0.7993 -0.0553
  120MOL0     C16077   0.358   7.104  -0.164  0.0046 -0.5422  0.6928
  120MOL0     C16078   0.449   7.177  -0.269 -0.2962 -0.7970  0.2523
  120MOL0     C16079   0.398   7.141  -0.410  0.2630  0.7348  0.0426
  120MOL0     C16080   0.467   7.202  -0.530  0.0063  0.1921 -0.8537
  120MOL0     C16081   0.606   7.153  -0.558 -0.1593  0.6116 -0.5216
  120MOL0     N16082   0.665   7.233  -0.662 -0.5341 -0.1091  0.7557
  120MOL0     C16083   0.707   7.185  -0.783  0.3810  1.3424  0.0183
  120MOL0     C16084   0.781   7.285  -0.845  0.4400 -0.0333 -0.3357
  120MOL0     C16085   0.844   7.283  -0.981 -0.7210  0.4311  0.0913
  120MOL0     C16086   0.991   7.316  -0.970 -0.0625 -0.2506 -0.1819
  120MOL0     C16087   1.088   7.198  -0.947 -0.4413 -1.1750 -0.3754
  120MOL0     C16088   1.231   7.247  -0.969  0.4005 -0.3822  0.1204
  120MOL0     O16089   1.251   7.315  -1.091  0.2162 -0.7474 -0.1626
  120MOL0     C16090   1.275   7.243  -1.204  0.2988  0.4133 -0.2112
  120MOL0     C16091   1.255   7.110  -1.223 -0.7537 -0.0038  0.4075
  120MOL0     C16092   1.283   7.030  -1.329  0.0431 -0.0880 -0.3496
  120MOL0     C16093   1.236   6.887  -1.326 -0.0599  0.0013 -0.0179
  120MOL0     C16094   1.347   7.095  -1.437  0.3159  0.1143  0.2881
  120MOL0     C16095   1.391   7.042  -1.560  0.5338 -0.1550  0.9292
  120MOL0     O16096   1.375   7.108  -1.669  0.8083 -0.8554 -0.1723
  120MOL0     C16097   1.408   7.050  -1.783 -0.2425 -0.4553  0.4054
  120MOL0     C16098   1.540   7.046  -1.832 -0.7857 -0.1358 -0.9730
  120MOL0     C16099   1.587   6.982  -1.951 -0.3961 -0.3229 -0.1992
  120MOL0     C16100   1.505   6.909  -2.025  1.1384 -0.6550  0.1068
  120MOL0     O16101   1.528   6.854  -2.152 -0.0823 -0.6756  0.6551
  120MOL0     C16102   1.663   6.822  -2.190 -0.2291  0.2924  0.4731
  120MOL0     C16103   1.647   6.743  -2.323 -1.0781  0.5738 -0.4413
  120MOL0     C16104   1.763   6.656  -2.357 -0.2925 -0.6465 -0.8864
  120MOL0     C16105   1.694   6.548  -2.436 -0.5850 -0.5993 -0.7649
  120MOL0     C16106   1.694   6.583  -2.583 -0.2306  0.4522  0.0453
  120MOL0     C16107   1.649   6.467  -2.670 -0.0934  0.3890 -0.1753
  120MOL0     C16108   1.732   6.335  -2.654  0.1302  0.5862 -0.2549
  120MOL0     C16109   1.732   6.255  -2.784 -0.6273  0.2595  0.0690
  120MOL0    Cl16110   1.564   6.226  -2.848 -0.0117  0.3706 -0.6144
  120MOL0     C16111   1.363   6.911  -1.981 -0.2792  1.0718  0.9279
  120MOL0     C16112   1.318   6.985  -1.873 -0.6654  0.6373 -0.3206
  120MOL0     O16113   1.444   6.934  -1.549  0.1183 -0.5043  0.6562
  120MOL0     C16114   1.360   7.231  -1.431  0.2507  0.4231  1.2547
  120MOL0     C16115   1.322   7.307  -1.321 -1.1339  0.3411 -0.0203
  120MOL0     N16116   0.779   7.384  -0.761 -0.6772 -0.5536 -0.2929
  120MOL0     N16117   0.722   7.357  -0.645 -0.0710 -0.2427  0.0140
  120MOL0     C16118   0.616   7.239   0.409  0.1348 -1.1393 -0.5038
  120MOL0     C16119   0.681   7.231   0.533 -0.5486  0.6892 -0.5164
  120MOL0     C16120   0.701   7.068   0.969 -0.7728  0.3744 -0.5424
  120MOL0     C16121   0.668   6.966   1.057  0.3296  0.3618 -0.0188
  120MOL0     C16122   0.693   6.953   1.188  1.1863 -0.2889  0.2152
  120MOL0     C16123   0.770   7.052   1.245 -0.2855 -0.6605  0.6972
  120MOL0     O16124   0.800   7.043   1.376 -0.6277  0.0948 -0.1679
  120MOL0     C16125   0.893   6.936   1.415 -0.3196 -0.1070  0.3498
  120MOL0     C16126   1.026   6.936   1.331 -0.0369  1.7756 -0.4415
  120MOL0     C16127   1.109   7.061   1.362 -0.0347 -0.4068  0.1440
  120MOL0     C16128   1.237   7.043   1.284 -0.0745  0.6168 -0.5071
  120MOL0     C16129   1.348   7.130   1.324  0.5093  0.0864  0.1432
  120MOL0     C16130   1.431   7.194   1.380  0.1876  0.1662  0.2797
  120MOL0     C16131   0.809   7.164   1.170 -0.0826 -0.6064 -0.2496
  120MOL0     C16132   0.776   7.171   1.032  0.6129 -0.0395 -0.3955
  120MOL0     H16133   0.403   7.241   0.718  0.7480  0.1046  0.9951
  120MOL0     H16134   0.291   7.265   0.485  0.2762  2.7821 -3.5725
  120MOL0     H16135   0.382   7.050   0.285  2.6506  0.3270 -1.3035
  120MOL0     H16136   0.242   7.154   0.285 -1.1817 -2.2456 -2.8757
  120MOL0     H16137   0.277   7.003   0.073 -1.2891  1.5536  1.6795
  120MOL0     H16138   0.215   7.169   0.043 -0.8644  1.3081  1.0030
  120MOL0     H16139   0.432   7.258  -0.021 -1.2124 -0.5699 -0.2476
  120MOL0     H16140   0.495   7.100  -0.006  0.0676 -0.1681 -0.8625
  120MOL0     H16141   0.359   6.995  -0.174 -1.9386 -0.6635  1.3223
  120MOL0     H16142   0.252   7.128  -0.173 -0.4433 -1.8232  1.9900
  120MOL0     H16143   0.444   7.285  -0.257 -3.4130 -0.8672  0.2918
  120MOL0     H16144   0.555   7.151  -0.258  0.5979  2.3861 -0.0110
  120MOL0     H16145   0.409   7.033  -0.418  3.8375  1.0066 -0.1790
  120MOL0     H16146   0.289   7.156  -0.410  0.1693  0.0856 -0.0576
  120MOL0     H16147   0.394   7.175  -0.607 -1.1100  1.0482 -0.1271
  120MOL0     H16148   0.463   7.310  -0.517  1.9608  0.5145 -2.5295
  120MOL0     H16149   0.608   7.046  -0.582 -1.6672 -0.0971  2.1899
  120MOL0     H16150   0.672   7.165  -0.472  1.1878  0.2827 -1.4636
  120MOL0     H16151   0.689   7.093  -0.837 -0.0542  0.9085  0.8848
  120MOL0     H16152   0.825   7.186  -1.026  0.7635  0.5177 -0.7583
  120MOL0     H16153   0.803   7.359  -1.048  1.0381  2.9867  1.7154
  120MOL0     H16154   1.002   7.382  -0.884  1.1498  2.3467 -2.1901
  120MOL0     H16155   1.022   7.381  -1.052  1.4695  0.3854  0.8542
  120MOL0     H16156   1.068   7.119  -1.019 -1.6968 -2.2112  1.0350
  120MOL0     H16157   1.076   7.168  -0.842  1.1938  1.7901  0.7908
  120MOL0     H16158   1.299   7.162  -0.957 -0.3272 -0.8616  1.0179
  120MOL0     H16159   1.264   7.314  -0.888  1.0745  0.2947 -0.6926
  120MOL0     H16160   1.207   7.051  -1.146  0.6154 -1.2773  0.3451
  120MOL0     H16161   1.154   6.857  -1.392  0.3192 -4.8674  1.2976
  120MOL0     H16162   1.322   6.827  -1.359 -0.1006 -0.0521 -0.0288
  120MOL0     H16163   1.207   6.851  -1.227 -1.2774  2.2981  0.5302
  120MOL0     H16164   1.601   7.113  -1.771  1.1632  0.5466 -3.4986
  120MOL0     H16165   1.688   6.999  -1.986 -0.8982  0.5817 -1.2812
  120MOL0     H16166   1.734   6.904  -2.206  1.8530 -0.4000  4.6276
  120MOL0     H16167   1.708   6.755  -2.116  1.0763  0.0348 -0.5203
  120MOL0     H16168   1.547   6.699  -2.322 -0.6495 -0.5397 -2.3826
  120MOL0     H16169   1.645   6.825  -2.395 -0.1342  1.5768  0.6203
  120MOL0     H16170   1.809   6.615  -2.266  3.0221  1.1137 -1.6105
  120MOL0     H16171   1.835   6.712  -2.417 -0.9944  0.8693 -0.3664
  120MOL0     H16172   1.754   6.457  -2.431  0.9916  0.3944 -1.2324
  120MOL0     H16173   1.599   6.520  -2.388  0.0562  1.3248  1.9074
  120MOL0     H16174   1.797   6.604  -2.613 -0.7458  1.7194 -0.9086
  120MOL0     H16175   1.634   6.672  -2.603  0.0189  0.4372 -0.8275
  120MOL0     H16176   1.546   6.443  -2.641 -0.8735  2.6021 -0.8980
  120MOL0     H16177   1.651   6.505  -2.772  0.5513  1.2171  0.1374
  120MOL0     H16178   1.686   6.285  -2.569  0.7263  3.5103  1.9247
  120MOL0     H16179   1.838   6.351  -2.628  0.5455 -0.0238 -1.4892
  120MOL0     H16180   1.784   6.160  -2.772  0.7407  0.7558 -1.4497
  120MOL0     H16181   1.781   6.314  -2.862  1.3623  1.4955  2.1444
  120MOL0     H16182   1.298   6.845  -2.038  0.3311  0.6511  0.7042
  120MOL0     H16183   1.210   6.975  -1.860 -0.8437 -1.0537 -2.5952
  120MOL0     H16184   1.399   7.297  -1.508 -0.8495  0.0408  0.3568
  120MOL0     H16185   1.337   7.414  -1.317 -0.0862  0.1559  2.0170
  120MOL0     H16186   0.667   7.235   0.314  1.5254  4.1748 -0.2873
  120MOL0     H16187   0.787   7.218   0.553 -0.9812 -0.7184  1.1090
  120MOL0     H16188   0.606   6.896   1.003 -2.7992  4.0193 -1.5439
  120MOL0     H16189   0.641   6.868   1.232 -2.7356  1.7851  0.0489
  120MOL0     H16190   0.916   6.943   1.522 -1.6108  1.7134  0.5517
  120MOL0     H16191   0.836   6.846   1.393 -1.0184  0.8157 -1.9244
  120MOL0     H16192   1.005   6.927   1.224 -0.0239 -3.1295 -0.2139
  120MOL0     H16193   1.079   6.845   1.359  1.4021  2.9188  0.6723
  120MOL0     H16194   1.120   7.070   1.470 -2.0183 -2.7733  0.6334
  120MOL0     H16195   1.052   7.150   1.335 -0.3013  0.0647  2.0932
  120MOL0     H16196   1.229   7.068   1.178  1.6307 -1.1076 -1.1061
  120MOL0     H16197   1.272   6.940   1.296  0.5439  0.2563 -4.2592
  120MOL0     H16198   1.496   7.256   1.439 -0.9153  1.5248  0.1205
  120MOL0     H16199   0.866   7.245   1.214  0.7324 -0.8795 -0.7776
  120MOL0     H16200   0.825   7.247   0.973 -0.5602  1.3787  0.3985
  121MOL0     O16201   9.552   1.436   6.708 -0.3123 -0.9821 -0.0876
  121MOL0     C16202   9.508   1.540   6.768 -0.8161  0.1792 -0.5207
  121MOL0     O16203   9.415   1.625   6.723  1.4594 -0.4757 -0.6325
  121MOL0     C16204   9.368   1.620   6.595 -0.4515 -0.5672  0.4305
  121MOL0     C16205   9.245   1.555   6.564 -0.1354 -1.3029 -0.6494
  121MOL0     C16206   9.190   1.566   6.429 -0.2022 -0.6447 -0.0651
  121MOL0     C16207   9.249   1.635   6.323  0.7395 -0.0522 -0.2712
  121MOL0     O16208   9.190   1.627   6.200  0.9759  0.2297  0.0785
  121MOL0     C16209   9.236   1.718   6.090  0.2713  0.6896  0.0500
  121MOL0     C16210   9.110   1.734   6.011  0.3982 -1.3108  1.0301
  121MOL0     C16211   9.034   1.612   5.953 -0.1591  0.2570  0.1128
  121MOL0     C16212   9.067   1.573   5.814 -0.4319 -0.5776 -0.4162
  121MOL0     C16213   9.003   1.446   5.766 -0.3332 -0.2666  0.6389
  121MOL0     C16214   8.860   1.464   5.741  0.1403  1.4394  0.0751
  121MOL0     C16215   8.777   1.331   5.721  0.2509  0.0090 -0.1742
  121MOL0     C16216   8.748   1.301   5.576  0.3209 -0.5576  0.3249
  121MOL0     N16217   8.702   1.163   5.553  0.1970  0.6388 -0.7659
  121MOL0     C16218   8.786   1.051   5.563 -0.0291 -0.4470  0.4160
  121MOL0     C16219   8.706   0.941   5.574 -0.3700 -0.3079 -0.9130
  121MOL0     C16220   8.755   0.795   5.581  1.1113 -0.1735 -0.3543
  121MOL0     C16221   8.913   0.777   5.587  0.3805 -0.0754 -0.3461
  121MOL0     C16222   8.957   0.624   5.608 -0.1127  0.0883 -0.1828
  121MOL0     C16223   9.111   0.606   5.630  0.3287 -0.0576 -0.0796
  121MOL0     O16224   9.132   0.469   5.585  0.5039 -0.5394  0.6071
  121MOL0     C16225   9.233   0.386   5.617 -0.7074  0.5385 -0.2073
  121MOL0     C16226   9.259   0.268   5.546  0.2997  0.1043 -0.0804
  121MOL0     C16227   9.372   0.183   5.569 -0.4845 -0.5824 -0.5775
  121MOL0     C16228   9.393   0.062   5.482  0.2865  0.1812  0.4810
  121MOL0     C16229   9.468   0.220   5.675 -0.3565 -0.0834 -0.5806
  121MOL0     C16230   9.593   0.143   5.708 -0.1484  0.2005 -0.2337
  121MOL0     O16231   9.648   0.061   5.625 -0.6070  0.0664  0.2742
  121MOL0     C16232   9.773  -0.004   5.629 -0.3129  0.2373  0.6862
  121MOL0     C16233   9.883   0.047   5.704  1.1870 -0.0247 -0.5772
  121MOL0     C16234  10.006  -0.020   5.698  0.8606 -1.3923 -0.1562
  121MOL0     C16235  10.021  -0.134   5.619  0.5399 -0.7560 -0.2901
  121MOL0     O16236  10.145  -0.185   5.607  0.4069  0.2014 -0.7943
  121MOL0     C16237  10.179  -0.312   5.545  0.3119 -0.3559 -0.4529
  121MOL0     C16238  10.332  -0.332   5.546  0.1552  0.3386 -1.0888
  121MOL0     C16239  10.386  -0.378   5.679 -0.2435 -0.7216 -0.0953
  121MOL0     C16240  10.344  -0.522   5.709 -0.7971  0.1805 -0.0068
  121MOL0     C16241  10.411  -0.585   5.833  0.3362 -0.5884 -0.2677
  121MOL0     C16242  10.358  -0.723   5.856 -0.7710  0.1281  0.0466
  121MOL0     C16243  10.234  -0.713   5.941  0.0120  0.0891 -0.2418
  121MOL0     C16244  10.180  -0.854   5.977  0.0826  0.1832  0.9299
  121MOL0    Cl16245  10.159  -0.958   5.836  0.0787 -0.2226  0.1338
  121MOL0     C16246   9.918  -0.178   5.547  0.2073 -0.0958  0.7562
  121MOL0     C16247   9.785  -0.117   5.545 -0.2775  0.7059 -0.0409
  121MOL0     O16248   9.637   0.157   5.820  0.9168 -0.2968 -0.3792
  121MOL0     C16249   9.438   0.338   5.747  0.3093  0.2230 -0.0148
  121MOL0     C16250   9.324   0.416   5.713  0.1503 -0.2354 -0.2715
  121MOL0     N16251   8.572   0.986   5.573  0.4687 -0.2163 -0.3707
  121MOL0     N16252   8.570   1.119   5.558 -0.9705  0.5923 -0.0913
  121MOL0     C16253   9.370   1.694   6.356 -0.3583 -0.5808 -0.5212
  121MOL0     C16254   9.429   1.684   6.491 -0.1784 -0.3074  0.2841
  121MOL0     C16255   9.560   1.585   6.901 -0.7447  0.0075 -0.2429
  121MOL0     C16256   9.545   1.712   6.961 -0.6869  0.3031 -0.2283
  121MOL0     C16257   9.597   1.732   7.093  0.5718 -0.4482 -0.6043
  121MOL0     C16258   9.692   1.642   7.144  1.3537  0.7672  0.9298
  121MOL0     O16259   9.755   1.684   7.252  0.3650 -0.0410 -0.1723
  121MOL0     C16260   9.799   1.589   7.351 -0.0124 -0.5213  0.3876
  121MOL0     C16261   9.691   1.500   7.407 -0.5878 -0.2033 -0.7430
  121MOL0     C16262   9.758   1.364   7.450 -0.8042  0.6783 -0.6609
  121MOL0     C16263   9.864   1.357   7.558  0.3383 -0.1093 -0.0543
  121MOL0     C16264   9.840   1.458   7.657 -0.3706 -0.0599 -0.4631
  121MOL0     C16265   9.842   1.535   7.753 -0.3106 -1.0008  0.7129
  121MOL0     C16266   9.716   1.525   7.081  0.2400  0.2785  0.8898
  121MOL0     C16267   9.656   1.499   6.958 -0.0115  0.0522  0.4328
  121MOL0     H16268   9.193   1.498   6.641 -0.1237 -0.6555 -0.1572
  121MOL0     H16269   9.095   1.516   6.413 -0.7135  0.9709 -2.5925
  121MOL0     H16270   9.265   1.817   6.128  0.2491  0.7643 -0.1245
  121MOL0     H16271   9.312   1.672   6.025 -0.7737  0.8154 -1.3056
  121MOL0     H16272   9.039   1.768   6.088  0.7348  0.8909  0.4383
  121MOL0     H16273   9.104   1.813   5.935 -2.2153 -2.4615 -0.0985
  121MOL0     H16274   9.056   1.536   6.029  2.4548 -1.1917 -1.9315
  121MOL0     H16275   8.927   1.632   5.954 -0.6088 -1.8426 -0.3476
  121MOL0     H16276   9.049   1.652   5.740 -1.2124 -1.8406 -1.6059
  121MOL0     H16277   9.175   1.561   5.804 -0.3277  1.1694 -2.0146
  121MOL0     H16278   9.046   1.408   5.673  0.1573  1.6646  0.0454
  121MOL0     H16279   9.022   1.372   5.845 -0.3980 -1.6115 -0.5623
  121MOL0     H16280   8.808   1.511   5.824 -2.8542 -5.2474  2.7611
  121MOL0     H16281   8.850   1.542   5.665  0.4480  1.0217 -0.3992
  121MOL0     H16282   8.834   1.256   5.777  0.1067  0.8110  1.0914
  121MOL0     H16283   8.683   1.336   5.776 -0.7449 -0.9459 -1.7121
  121MOL0     H16284   8.831   1.326   5.509  0.1791 -1.4259 -0.1872
  121MOL0     H16285   8.672   1.378   5.558 -1.4001 -1.7088  2.1974
  121MOL0     H16286   8.893   1.057   5.574 -0.1541  0.1522  1.5011
  121MOL0     H16287   8.720   0.757   5.677  1.0957 -0.6251 -0.5374
  121MOL0     H16288   8.701   0.744   5.500 -0.6924  2.0802 -0.6497
  121MOL0     H16289   8.961   0.827   5.671  2.2536 -2.8472  0.3742
  121MOL0     H16290   8.951   0.821   5.494 -1.5508 -0.8835 -1.5742
  121MOL0     H16291   8.909   0.576   5.522 -0.7107 -0.6066  0.5153
  121MOL0     H16292   8.903   0.584   5.695  0.7773  1.3567  0.9872
  121MOL0     H16293   9.116   0.606   5.740 -2.8788 -0.4280  0.1796
  121MOL0     H16294   9.181   0.674   5.582 -0.9385  2.5545  1.5115
  121MOL0     H16295   9.198   0.237   5.462 -1.8343  0.3061  1.3211
  121MOL0     H16296   9.303   0.042   5.423  1.6903 -2.8602 -0.8836
  121MOL0     H16297   9.474   0.089   5.413  0.3127  1.4898  0.9966
  121MOL0     H16298   9.417  -0.030   5.535  4.5848  0.0359 -1.3161
  121MOL0     H16299   9.869   0.126   5.777 -3.4187  0.4906 -1.7514
  121MOL0     H16300  10.092   0.010   5.755  0.8339  1.1334 -1.2987
  121MOL0     H16301  10.121  -0.395   5.587  2.2203 -1.3554  0.3340
  121MOL0     H16302  10.155  -0.298   5.439 -1.4550  3.0679  0.2747
  121MOL0     H16303  10.365  -0.409   5.476 -0.4459 -2.2070  1.2322
  121MOL0     H16304  10.379  -0.240   5.512 -2.7501  2.5216  0.3447
  121MOL0     H16305  10.349  -0.329   5.770  1.4086 -3.1447  2.0186
  121MOL0     H16306  10.495  -0.384   5.676 -0.3407 -3.2360 -0.3778
  121MOL0     H16307  10.237  -0.540   5.723 -0.3280 -1.4629  1.9035
  121MOL0     H16308  10.378  -0.583   5.625  1.1043  2.2970 -0.8813
  121MOL0     H16309  10.394  -0.512   5.913 -3.6644 -1.8037  0.1944
  121MOL0     H16310  10.517  -0.608   5.815  0.4910  1.3058 -2.1110
  121MOL0     H16311  10.340  -0.777   5.763  0.6411  0.4885 -0.4690
  121MOL0     H16312  10.437  -0.764   5.920 -3.4974  1.0748  4.5183
  121MOL0     H16313  10.160  -0.647   5.896 -1.8166 -1.9082 -0.3265
  121MOL0     H16314  10.264  -0.664   6.034  1.9109  1.5218 -1.5489
  121MOL0     H16315  10.085  -0.852   6.030 -1.4435  0.3745 -1.6603
  121MOL0     H16316  10.267  -0.897   6.029  1.1618  0.8567 -0.2585
  121MOL0     H16317   9.926  -0.270   5.489  2.5081 -1.0579  2.4691
  121MOL0     H16318   9.698  -0.157   5.494 -1.7887  2.2111  1.2342
  121MOL0     H16319   9.501   0.375   5.827  2.7717 -0.1726 -1.6379
  121MOL0     H16320   9.324   0.519   5.749  2.7570 -0.3720  0.3313
  121MOL0     H16321   9.416   1.740   6.268  1.7887 -0.5238  0.5657
  121MOL0     H16322   9.514   1.750   6.510 -0.0154  0.8059 -3.3974
  121MOL0     H16323   9.490   1.792   6.913 -0.6631  1.1023  1.0292
  121MOL0     H16324   9.579   1.824   7.149  0.7565 -0.5805 -0.3223
  121MOL0     H16325   9.867   1.521   7.300 -1.6003 -1.8625 -0.0195
  121MOL0     H16326   9.846   1.641   7.435 -2.5784 -2.7849  3.4675
  121MOL0     H16327   9.609   1.486   7.336 -0.6181  0.8049 -0.9189
  121MOL0     H16328   9.664   1.556   7.496  1.6847  0.5294 -0.4404
  121MOL0     H16329   9.798   1.304   7.368  0.0161  0.9746 -0.4821
  121MOL0     H16330   9.683   1.295   7.488 -0.3445  1.2791  1.4740
  121MOL0     H16331   9.963   1.376   7.515  0.7059 -2.2436 -0.2604
  121MOL0     H16332   9.869   1.260   7.608 -1.1884 -0.1230  0.1233
  121MOL0     H16333   9.840   1.603   7.836  0.9434  1.2471 -0.9772
  121MOL0     H16334   9.797   1.464   7.120  1.4174  1.2204  0.0160
  121MOL0     H16335   9.687   1.409   6.905  0.5063  0.6492 -0.2941
  122MOL0     O16336   5.747   1.520  10.420  0.3336  0.1628 -0.0096
  122MOL0     C16337   5.824   1.535  10.518  0.0970  0.4522 -0.2338
  122MOL0     O16338   5.917   1.436  10.555 -0.2803 -0.4301 -0.2311
  122MOL0     C16339   5.928   1.310  10.500  0.1151 -0.0028 -0.4304
  122MOL0     C16340   5.904   1.283  10.366 -0.4926 -0.2606 -0.6568
  122MOL0     C16341   5.910   1.153  10.322 -0.4262 -0.2921 -0.0341
  122MOL0     C16342   5.932   1.041  10.399  0.2050  0.5916 -0.0964
  122MOL0     O16343   5.938   0.908  10.349  0.1703  0.3612  0.1440
  122MOL0     C16344   5.849   0.879  10.239  0.1877 -0.3847  0.7626
  122MOL0     C16345   5.915   0.885  10.102 -0.5628 -0.2819  0.2476
  122MOL0     C16346   6.045   0.790  10.087  0.6060 -0.2854  0.3972
  122MOL0     C16347   6.100   0.804   9.938 -1.0101 -0.3300  0.4519
  122MOL0     C16348   6.236   0.735   9.936  0.1278  0.2159  0.2776
  122MOL0     C16349   6.308   0.756   9.800  0.4353  0.1531 -0.4354
  122MOL0     C16350   6.422   0.652   9.769  0.6607 -0.4037  0.3522
  122MOL0     C16351   6.518   0.640   9.890  0.3739 -0.7861 -0.4766
  122MOL0     N16352   6.647   0.589   9.839  0.3128  0.1420  0.2433
  122MOL0     C16353   6.695   0.458   9.861 -0.0433  0.2784 -0.5655
  122MOL0     C16354   6.808   0.447   9.782 -0.2694  0.8608 -0.0062
  122MOL0     C16355   6.913   0.344   9.803 -0.1643  0.4356  1.1831
  122MOL0     C16356   6.993   0.361   9.928  0.6830  1.0686  0.4641
  122MOL0     C16357   7.069   0.494   9.957  0.8431 -0.2286 -0.4073
  122MOL0     C16358   7.179   0.531   9.865  0.4557  0.0463 -0.6633
  122MOL0     O16359   7.264   0.626   9.931  0.6197  0.1050  0.0893
  122MOL0     C16360   7.254   0.760   9.896 -1.1372  0.6627  0.0638
  122MOL0     C16361   7.137   0.825   9.856 -0.1936 -0.8829  0.4065
  122MOL0     C16362   7.124   0.963   9.834 -0.2903  0.0900  0.0844
  122MOL0     C16363   6.988   1.009   9.794 -0.3804  0.2243  0.5188
  122MOL0     C16364   7.232   1.049   9.868  0.1626 -0.4081 -0.1851
  122MOL0     C16365   7.223   1.194   9.873 -0.2314  0.1668 -0.2752
  122MOL0     O16366   7.115   1.255   9.808 -0.0733  0.2661  0.1728
  122MOL0     C16367   7.097   1.388   9.820 -0.4260 -0.3239 -0.5323
  122MOL0     C16368   7.188   1.483   9.762  0.5271  0.1431 -1.3354
  122MOL0     C16369   7.191   1.617   9.809 -0.1761 -0.1931 -0.4885
  122MOL0     C16370   7.104   1.668   9.906  0.2794  0.5949 -0.3773
  122MOL0     O16371   7.109   1.794   9.939  0.0891 -0.2358 -0.3920
  122MOL0     C16372   6.996   1.873   9.885  0.1930 -0.1362 -0.9729
  122MOL0     C16373   7.027   2.010   9.941  0.6177  1.3246  0.2589
  122MOL0     C16374   6.958   2.121   9.862 -0.2436  1.0531  0.3456
  122MOL0     C16375   6.981   2.253   9.926 -0.0943 -0.4854 -0.5701
  122MOL0     C16376   6.943   2.369   9.833 -0.1777  0.5266 -0.5044
  122MOL0     C16377   6.985   2.501   9.888  0.1120 -0.4047 -0.7805
  122MOL0     C16378   6.948   2.617   9.787  0.2534  1.3711 -0.2178
  122MOL0     C16379   7.018   2.745   9.808  0.4926 -0.7800  0.1832
  122MOL0    Cl16380   6.940   2.840   9.947 -0.0418  0.1949 -0.1728
  122MOL0     C16381   7.013   1.584   9.958  1.5636 -0.2661  0.0842
  122MOL0     C16382   7.003   1.450   9.909  0.0807 -0.0878 -0.7751
  122MOL0     O16383   7.311   1.257   9.933  0.1804  0.0693  0.3073
  122MOL0     C16384   7.344   0.984   9.911 -0.4987 -0.0443 -0.2435
  122MOL0     C16385   7.358   0.848   9.924  0.0808  0.4071 -0.7632
  122MOL0     N16386   6.814   0.562   9.707 -0.4492  0.8279  0.1958
  122MOL0     N16387   6.728   0.647   9.742  0.3304  0.7291 -0.9965
  122MOL0     C16388   5.956   1.066  10.532  0.0642 -0.0057 -0.0208
  122MOL0     C16389   5.946   1.201  10.592 -1.0555 -0.5183 -0.0833
  122MOL0     C16390   5.818   1.656  10.607  0.0393  0.2727 -0.4406
  122MOL0     C16391   5.714   1.751  10.584 -0.2604  0.4477  0.3022
  122MOL0     C16392   5.710   1.867  10.651 -1.4586  0.5161 -0.4798
  122MOL0     C16393   5.800   1.901  10.753 -0.0211 -0.1917 -0.9584
  122MOL0     O16394   5.825   2.021  10.818  0.2353 -0.6455 -0.1074
  122MOL0     C16395   5.710   2.116  10.821 -0.4097 -0.3597  0.5009
  122MOL0     C16396   5.725   2.243  10.735 -0.5237  1.4054 -0.7015
  122MOL0     C16397   5.730   2.231  10.582 -0.7486  0.4879 -0.5500
  122MOL0     C16398   5.585   2.241  10.530  0.2831 -0.0552  0.1324
  122MOL0     C16399   5.610   2.243  10.389  0.2251 -0.2060 -0.2485
  122MOL0     C16400   5.622   2.242  10.267 -0.2146 -0.2924  0.7602
  122MOL0     C16401   5.883   1.798  10.780 -0.4901 -0.2723 -0.1631
  122MOL0     C16402   5.898   1.678  10.720  0.5049 -0.6411  0.5521
  122MOL0     H16403   5.878   1.362  10.296 -3.5357  0.0583  0.6705
  122MOL0     H16404   5.898   1.135  10.215 -1.3682  2.2915 -0.4468
  122MOL0     H16405   5.805   0.779  10.250  1.2604 -0.7504  1.8496
  122MOL0     H16406   5.765   0.950  10.234  0.4322 -0.1603 -1.7683
  122MOL0     H16407   5.843   0.846  10.029 -3.0623 -1.8076  3.2524
  122MOL0     H16408   5.937   0.990  10.079  2.2179  0.0242  3.4493
  122MOL0     H16409   6.118   0.836  10.154 -0.5476  1.3767  0.5733
  122MOL0     H16410   6.030   0.683  10.106 -0.0827 -0.1053  0.8972
  122MOL0     H16411   6.032   0.769   9.859  0.8135  3.3138 -3.0497
  122MOL0     H16412   6.119   0.907   9.908  2.8018 -1.8315 -3.3805
  122MOL0     H16413   6.290   0.779  10.020 -0.6476  0.9023  0.4314
  122MOL0     H16414   6.218   0.629   9.957  2.0319  0.3223  2.8331
  122MOL0     H16415   6.230   0.764   9.724 -2.8426  3.6091  2.8588
  122MOL0     H16416   6.356   0.853   9.819  2.5074 -0.8882 -0.1396
  122MOL0     H16417   6.373   0.556   9.748 -0.8270  0.3440  0.2961
  122MOL0     H16418   6.459   0.690   9.673 -0.2858  0.5295  0.3414
  122MOL0     H16419   6.478   0.584   9.975 -3.3768  1.9145 -0.2015
  122MOL0     H16420   6.541   0.740   9.929 -2.6101  0.5808 -1.9124
  122MOL0     H16421   6.673   0.395   9.947  0.4727 -0.2110 -0.7817
  122MOL0     H16422   6.859   0.249   9.809  1.8027 -0.8008  0.5237
  122MOL0     H16423   6.975   0.332   9.713 -2.5634 -2.0655 -0.3073
  122MOL0     H16424   7.050   0.275   9.962 -1.1922  0.7832  3.2012
  122MOL0     H16425   6.922   0.365  10.011  0.2850 -1.0564  0.2841
  122MOL0     H16426   7.096   0.491  10.063 -0.2006  1.6964 -0.0596
  122MOL0     H16427   6.995   0.572   9.940  1.8273  0.4956 -1.5635
  122MOL0     H16428   7.142   0.574   9.771  1.6944  0.9940 -0.7453
  122MOL0     H16429   7.236   0.440   9.842  2.8628  0.8854  1.5277
  122MOL0     H16430   7.050   0.764   9.833 -1.5224  0.7861  0.7846
  122MOL0     H16431   6.997   1.055   9.695  0.4218 -0.0256  0.4681
  122MOL0     H16432   6.913   0.930   9.789 -1.5071  1.3537 -1.7242
  122MOL0     H16433   6.958   1.090   9.861 -1.1815  1.1847 -0.9553
  122MOL0     H16434   7.266   1.439   9.700  0.6462 -2.0145  0.2191
  122MOL0     H16435   7.266   1.688   9.776  1.2811 -0.9151  1.1174
  122MOL0     H16436   7.001   1.885   9.776  0.6505  0.8708 -0.8584
  122MOL0     H16437   6.901   1.833   9.921  0.0004  2.8350  2.3925
  122MOL0     H16438   6.992   2.018  10.045  0.9495  2.0811  0.3147
  122MOL0     H16439   7.132   2.037   9.944  0.2460  2.7716  0.8064
  122MOL0     H16440   6.854   2.095   9.839  0.8317 -0.8350 -3.1895
  122MOL0     H16441   7.001   2.117   9.761  0.6400  2.1026  0.6534
  122MOL0     H16442   6.921   2.260  10.018 -3.2368 -3.7637 -2.0766
  122MOL0     H16443   7.085   2.265   9.956 -0.7822  0.0163  1.8223
  122MOL0     H16444   6.837   2.371   9.807 -0.6188 -0.5333  1.1028
  122MOL0     H16445   7.006   2.366   9.743  1.9399  1.0637  0.8965
  122MOL0     H16446   6.940   2.519   9.986 -1.1749 -0.5190 -1.3237
  122MOL0     H16447   7.094   2.493   9.897  0.0126 -0.5136  0.5617
  122MOL0     H16448   6.839   2.623   9.778  0.0341 -1.2896 -0.2437
  122MOL0     H16449   6.984   2.602   9.685 -0.9642  1.3363 -0.6685
  122MOL0     H16450   7.025   2.801   9.715 -0.8438  1.1224  1.1573
  122MOL0     H16451   7.124   2.742   9.835  1.0307 -1.3087 -1.8422
  122MOL0     H16452   6.944   1.615  10.036  3.1963  1.2307  1.0173
  122MOL0     H16453   6.929   1.390   9.962 -0.7607  1.6096  0.0695
  122MOL0     H16454   7.440   1.030   9.932  0.4318 -2.3310  0.9051
  122MOL0     H16455   7.452   0.800   9.947 -0.1998 -0.8435 -2.0717
  122MOL0     H16456   5.990   0.987  10.598 -0.8900 -0.6898 -0.3345
  122MOL0     H16457   5.962   1.212  10.699  1.9143 -0.5055 -0.4430
  122MOL0     H16458   5.652   1.728  10.499 -1.4464 -1.4845  1.6037
  122MOL0     H16459   5.626   1.933  10.628  0.0814  2.7055 -0.1575
  122MOL0     H16460   5.623   2.056  10.795  0.8644 -1.9195 -0.3166
  122MOL0     H16461   5.710   2.169  10.916  2.3115  0.2432  0.2393
  122MOL0     H16462   5.818   2.294  10.762 -0.2597 -0.2320  1.9396
  122MOL0     H16463   5.644   2.310  10.767  0.4653  1.5050  1.8647
  122MOL0     H16464   5.771   2.131  10.562 -3.5739 -0.8454 -0.1986
  122MOL0     H16465   5.795   2.306  10.536  2.3153 -2.3591 -1.2344
  122MOL0     H16466   5.549   2.338  10.564  0.1235  0.2231 -0.8015
  122MOL0     H16467   5.524   2.158  10.569 -0.5177  0.2007 -0.5466
  122MOL0     H16468   5.642   2.250  10.162 -0.7461 -1.4691  0.5508
  122MOL0     H16469   5.949   1.804  10.866  0.9578  0.9126 -1.2957
  122MOL0     H16470   5.973   1.605  10.750  0.4871 -1.7888 -2.0085
  123MOL0     O16471  11.268   8.977   6.451 -0.8915 -0.1906  0.0555
  123MOL0     C16472  11.365   9.051   6.455  0.3212 -0.9075 -0.1417
  123MOL0     O16473  11.489   9.025   6.423  0.0068  0.8333  0.3201
  123MOL0     C16474  11.547   8.909   6.363 -0.1290 -0.2933  0.4900
  123MOL0     C16475  11.666   8.850   6.408  0.3413  0.3024 -0.1862
  123MOL0     C16476  11.710   8.729   6.358 -0.2632  0.3421  0.6203
  123MOL0     C16477  11.645   8.659   6.262  0.6128 -0.1970 -0.5897
  123MOL0     O16478  11.677   8.544   6.214 -0.0349  0.4679  0.1666
  123MOL0     C16479  11.728   8.536   6.080  0.1545 -0.8119 -0.6530
  123MOL0     C16480  11.864   8.470   6.079 -0.8478 -0.5402  0.9703
  123MOL0     C16481  11.974   8.568   6.113 -0.3192  0.4731 -0.1179
  123MOL0     C16482  12.015   8.642   5.990 -0.7100 -0.5618  0.2929
  123MOL0     C16483  12.134   8.747   6.002 -0.6342  0.4450  0.5921
  123MOL0     C16484  12.269   8.670   6.023  0.7230 -0.3097  0.1570
  123MOL0     C16485  12.306   8.555   5.932  0.0344 -0.4136  0.2211
  123MOL0     C16486  12.454   8.530   5.910 -0.7766  0.1490 -0.0201
  123MOL0     N16487  12.533   8.473   6.019 -0.3821  0.2645  0.2292
  123MOL0     C16488  12.593   8.536   6.121  0.2678  0.1774 -0.1220
  123MOL0     C16489  12.654   8.443   6.187  0.8193 -0.1191  0.2381
  123MOL0     C16490  12.734   8.447   6.316  0.3674  0.5471 -0.2989
  123MOL0     C16491  12.646   8.478   6.444  0.4360 -0.2215  1.0334
  123MOL0     C16492  12.546   8.361   6.460  0.3705 -0.6870 -0.1437
  123MOL0     C16493  12.490   8.373   6.605  0.2082 -0.5805  0.0074
  123MOL0     O16494  12.386   8.473   6.592  0.1059 -0.7469  0.6407
  123MOL0     C16495  12.250   8.437   6.592 -0.7137 -0.2720  0.0501
  123MOL0     C16496  12.161   8.536   6.627  0.4486  0.2433  0.2838
  123MOL0     C16497  12.025   8.522   6.625 -0.1854 -0.2604  0.3779
  123MOL0     C16498  11.949   8.643   6.674  0.7076 -0.2012  1.0790
  123MOL0     C16499  11.966   8.406   6.598 -0.7131 -0.4803  0.3736
  123MOL0     C16500  11.829   8.366   6.614 -0.5144 -0.3092  0.0238
  123MOL0     O16501  11.778   8.267   6.534  0.1090  0.6271 -0.5088
  123MOL0     C16502  11.641   8.238   6.530 -0.1489 -0.5354 -0.6846
  123MOL0     C16503  11.585   8.125   6.595 -0.4316  0.0614 -0.7989
  123MOL0     C16504  11.445   8.102   6.595 -0.0681 -0.2920  1.2553
  123MOL0     C16505  11.358   8.189   6.518  0.0687 -0.1546  0.2527
  123MOL0     O16506  11.226   8.156   6.512 -0.5118 -1.4119 -0.5998
  123MOL0     C16507  11.133   8.259   6.476  0.3993 -0.3455  0.9615
  123MOL0     C16508  10.990   8.225   6.516 -0.3545  0.1732 -0.8207
  123MOL0     C16509  10.903   8.352   6.521  0.1313  0.6044  0.3493
  123MOL0     C16510  10.784   8.327   6.607 -0.0374 -0.4072 -0.1420
  123MOL0     C16511  10.680   8.440   6.591 -0.0644 -0.2133  0.5816
  123MOL0     C16512  10.543   8.377   6.617 -0.8641 -0.7184 -0.0491
  123MOL0     C16513  10.435   8.473   6.574 -0.9390 -0.4950 -0.1506
  123MOL0     C16514  10.306   8.408   6.601 -0.4083  0.1427  0.2595
  123MOL0    Cl16515  10.175   8.522   6.554 -0.0193 -0.2487  0.1150
  123MOL0     C16516  11.420   8.298   6.460 -0.6160  0.0098 -0.2397
  123MOL0     C16517  11.555   8.329   6.456  0.3872  0.5940  0.9521
  123MOL0     O16518  11.768   8.419   6.708 -0.4041  0.4898  0.1887
  123MOL0     C16519  12.050   8.299   6.568 -2.1326  0.3032 -0.0977
  123MOL0     C16520  12.195   8.314   6.567  0.2706  0.7751  0.5125
  123MOL0     N16521  12.637   8.325   6.127  0.3997  0.4033 -0.2545
  123MOL0     N16522  12.568   8.341   6.019  0.2416 -0.3716  0.0639
  123MOL0     C16523  11.512   8.707   6.236 -0.6267 -0.8821 -0.2522
  123MOL0     C16524  11.471   8.830   6.275  0.1200 -0.0943  0.3261
  123MOL0     C16525  11.334   9.193   6.500  1.0752  0.4385 -0.3945
  123MOL0     C16526  11.439   9.292   6.493  0.9135  0.4708  0.2159
  123MOL0     C16527  11.416   9.418   6.547  0.1757 -0.1905  0.3945
  123MOL0     C16528  11.301   9.466   6.596  0.7597 -1.1883  0.1494
  123MOL0     O16529  11.271   9.592   6.644 -0.5144  0.5058 -0.7362
  123MOL0     C16530  11.176   9.671   6.576 -0.5045  0.3015 -0.1800
  123MOL0     C16531  11.096   9.769   6.655  0.4411 -0.0320  0.7330
  123MOL0     C16532  11.020   9.876   6.562  0.2303 -0.6355 -0.3176
  123MOL0     C16533  11.113   9.996   6.533  0.5594  0.0091 -0.7428
  123MOL0     C16534  11.142  10.064   6.660 -0.6576  0.1509  1.1989
  123MOL0     C16535  11.177  10.118   6.760 -0.3642  0.3121  0.0990
  123MOL0     C16536  11.194   9.375   6.601 -0.4186  0.3780 -0.6530
  123MOL0     C16537  11.214   9.235   6.563  0.2578 -0.2048 -0.2471
  123MOL0     H16538  11.717   8.887   6.496  0.5551  0.2524 -0.2888
  123MOL0     H16539  11.810   8.704   6.391 -0.2463  1.3321  1.3542
  123MOL0     H16540  11.656   8.484   6.017 -2.1582  0.8305  0.5223
  123MOL0     H16541  11.743   8.635   6.036  0.0030 -0.6591 -0.3626
  123MOL0     H16542  11.858   8.388   6.152 -1.4279  1.7279  3.6447
  123MOL0     H16543  11.889   8.430   5.980  1.2966 -3.1981  2.4637
  123MOL0     H16544  11.948   8.644   6.188  0.3523 -0.7723  1.4465
  123MOL0     H16545  12.065   8.517   6.145 -0.6172  0.1294  0.2013
  123MOL0     H16546  12.045   8.563   5.920 -4.3687 -0.8072 -1.2067
  123MOL0     H16547  11.925   8.686   5.946  1.9020 -0.3966 -5.9318
  123MOL0     H16548  12.132   8.790   5.901  1.4984 -1.7535 -0.4904
  123MOL0     H16549  12.116   8.819   6.083  1.2467  0.3069  1.1869
  123MOL0     H16550  12.352   8.740   6.010  0.2750 -0.2215 -2.8648
  123MOL0     H16551  12.283   8.629   6.124  0.0568 -0.4732  0.1887
  123MOL0     H16552  12.266   8.464   5.978  3.0148 -2.4896 -0.8860
  123MOL0     H16553  12.258   8.579   5.837 -0.5283 -1.8249  0.1226
  123MOL0     H16554  12.498   8.623   5.875 -0.4165 -0.7202 -2.0098
  123MOL0     H16555  12.462   8.475   5.816  1.0941 -0.9136  0.7083
  123MOL0     H16556  12.589   8.643   6.140  0.3685  0.5639 -2.0984
  123MOL0     H16557  12.774   8.349   6.342 -2.4604  0.2169  3.7779
  123MOL0     H16558  12.805   8.530   6.311  1.1360 -0.0653  0.3318
  123MOL0     H16559  12.593   8.571   6.421  2.0493  0.3849 -0.4417
  123MOL0     H16560  12.714   8.501   6.526  0.6521 -2.6266  1.5873
  123MOL0     H16561  12.599   8.265   6.466 -0.5416 -1.4774 -2.8603
  123MOL0     H16562  12.472   8.345   6.381  1.2921 -1.1395 -0.9362
  123MOL0     H16563  12.565   8.403   6.679 -0.9559  2.4476  0.1009
  123MOL0     H16564  12.457   8.276   6.644 -0.5080 -0.4939 -0.3596
  123MOL0     H16565  12.198   8.628   6.673 -2.1392  0.5214  2.0412
  123MOL0     H16566  11.902   8.622   6.770 -1.1108 -2.5984 -0.2346
  123MOL0     H16567  12.016   8.730   6.674  2.4792 -1.5045  0.7699
  123MOL0     H16568  11.865   8.664   6.606  0.7996 -6.6045 -1.7032
  123MOL0     H16569  11.653   8.056   6.643 -1.9673 -0.6539  0.4256
  123MOL0     H16570  11.415   8.016   6.654  3.5037 -2.5405  0.0827
  123MOL0     H16571  11.162   8.351   6.528  0.5936 -1.5447  3.1159
  123MOL0     H16572  11.142   8.258   6.367  3.3220  0.1701  1.1295
  123MOL0     H16573  10.956   8.148   6.447  2.2624  0.8710 -3.0751
  123MOL0     H16574  10.986   8.182   6.616 -1.2753  0.1761 -0.8488
  123MOL0     H16575  10.869   8.388   6.424  1.6958  0.0572 -0.4351
  123MOL0     H16576  10.968   8.426   6.569  0.3667 -0.2387  1.3878
  123MOL0     H16577  10.729   8.236   6.584 -2.0297  1.2858 -2.6862
  123MOL0     H16578  10.813   8.319   6.712  0.8274  0.5639 -0.2893
  123MOL0     H16579  10.684   8.489   6.493 -2.8831 -0.8418  0.0553
  123MOL0     H16580  10.705   8.517   6.664  0.6291  1.5043 -1.3653
  123MOL0     H16581  10.517   8.284   6.566 -2.3891 -1.1012  1.3216
  123MOL0     H16582  10.543   8.359   6.725  0.3661  2.7184  0.6619
  123MOL0     H16583  10.441   8.492   6.466 -0.6087 -1.7081 -0.3627
  123MOL0     H16584  10.431   8.569   6.626  2.7526 -0.0031 -0.5157
  123MOL0     H16585  10.290   8.374   6.703 -2.3928  0.3823  0.0639
  123MOL0     H16586  10.313   8.315   6.544 -0.7221 -1.2044  2.3028
  123MOL0     H16587  11.356   8.376   6.419 -0.0009 -0.1059 -1.4546
  123MOL0     H16588  11.599   8.412   6.402  2.4874 -0.1427  1.4322
  123MOL0     H16589  12.016   8.200   6.539  1.5232 -0.4045 -2.8065
  123MOL0     H16590  12.255   8.224   6.553 -0.0683  0.8836 -2.0001
  123MOL0     H16591  11.453   8.648   6.167  0.5998 -3.9629  1.1815
  123MOL0     H16592  11.379   8.868   6.232  0.4076 -0.9023 -1.0494
  123MOL0     H16593  11.530   9.262   6.443  0.3729 -3.4735  1.2492
  123MOL0     H16594  11.480   9.502   6.523  2.0181 -1.3958  0.8609
  123MOL0     H16595  11.240   9.725   6.506  0.5350  0.4672  0.8644
  123MOL0     H16596  11.110   9.609   6.515  0.7591 -0.8311 -0.4558
  123MOL0     H16597  11.161   9.819   6.727 -0.6075  4.1195 -0.9196
  123MOL0     H16598  11.022   9.720   6.720  1.9422  0.4635  2.9311
  123MOL0     H16599  10.931   9.909   6.617  1.4613 -0.2726  1.5529
  123MOL0     H16600  10.972   9.832   6.474 -1.5957 -2.4944  1.5033
  123MOL0     H16601  11.056  10.060   6.466  0.4688 -1.4504 -2.1243
  123MOL0     H16602  11.209   9.967   6.490  0.3339 -1.9620 -0.0409
  123MOL0     H16603  11.202  10.176   6.847 -0.8274  0.7572 -0.0621
  123MOL0     H16604  11.098   9.411   6.637  0.4842  2.1232  0.0827
  123MOL0     H16605  11.129   9.174   6.591  0.0739  2.0365  5.4059
  124MOL0     O16606  10.597   7.832  10.067  0.6314  1.5956 -1.0470
  124MOL0     C16607  10.492   7.862  10.018  0.5844 -0.2670  0.1810
  124MOL0     O16608  10.379   7.878  10.082 -0.0638  0.0174  0.0453
  124MOL0     C16609  10.365   7.859  10.220  0.1178  0.6071 -0.7676
  124MOL0     C16610  10.399   7.734  10.282 -0.6002 -0.4977  0.4945
  124MOL0     C16611  10.378   7.716  10.420  1.2728 -0.3256 -0.1777
  124MOL0     C16612  10.312   7.817  10.499  0.0525  0.7252 -0.3400
  124MOL0     O16613  10.283   7.805  10.636  0.2405  0.4618 -0.0747
  124MOL0     C16614  10.313   7.683  10.709  0.6877 -0.9989  0.2203
  124MOL0     C16615  10.283   7.703  10.855 -0.2944 -0.0107  0.4523
  124MOL0     C16616  10.132   7.707  10.892  0.3192  0.1755 -0.0588
  124MOL0     C16617  10.112   7.761  11.032  0.9890  0.1362 -0.2577
  124MOL0     C16618   9.966   7.744  11.062  0.2192 -0.9859 -0.5938
  124MOL0     C16619   9.955   7.821  11.193 -1.2762 -0.2761  0.0745
  124MOL0     C16620   9.835   7.821  11.278  1.0063  0.3418 -0.6857
  124MOL0     C16621   9.759   7.688  11.266 -1.1953 -0.3133 -0.4190
  124MOL0     N16622   9.683   7.661  11.382  0.3652  0.0031 -0.3415
  124MOL0     C16623   9.588   7.748  11.439  0.6589 -1.5196  0.4080
  124MOL0     C16624   9.581   7.711  11.570  0.3712  0.5766 -1.2386
  124MOL0     C16625   9.497   7.786  11.672 -0.2339 -0.0513  0.1848
  124MOL0     C16626   9.563   7.918  11.722 -1.3306 -0.0508 -0.2511
  124MOL0     C16627   9.451   8.024  11.743 -0.1642 -0.3398 -0.1705
  124MOL0     C16628   9.511   8.165  11.763 -0.4812  0.2603  0.7386
  124MOL0     O16629   9.415   8.275  11.734 -0.5637  0.2627 -0.1268
  124MOL0     C16630   9.365   8.346  11.844 -0.2810  0.3438  0.2430
  124MOL0     C16631   9.305   8.462  11.812 -1.8501  0.8055  0.5426
  124MOL0     C16632   9.249   8.547  11.906  0.8115  0.9106  0.0563
  124MOL0     C16633   9.173   8.665  11.839 -0.7593  0.2760  0.7922
  124MOL0     C16634   9.258   8.507  12.039 -0.5596 -0.5371  0.1491
  124MOL0     C16635   9.193   8.588  12.148  0.4727 -0.7762  1.2078
  124MOL0     O16636   9.090   8.682  12.119  0.4571  0.3559 -0.9494
  124MOL0     C16637   8.993   8.670  12.222  0.3276 -0.9360  1.0056
  124MOL0     C16638   8.986   8.787  12.311  0.0988 -0.3098  0.6020
  124MOL0     C16639   8.890   8.790  12.404 -0.7894  0.1371  0.0613
  124MOL0     C16640   8.799   8.677  12.417  0.2598 -0.5105 -0.7624
  124MOL0     O16641   8.719   8.681  12.528 -0.4210  0.7300 -0.0336
  124MOL0     C16642   8.599   8.756  12.513 -0.2144 -0.3040  0.7007
  124MOL0     C16643   8.479   8.681  12.572  0.2922 -0.2103 -0.1181
  124MOL0     C16644   8.449   8.550  12.497  1.6153 -0.0513  0.5316
  124MOL0     C16645   8.394   8.576  12.362  1.4196  0.5410  0.4534
  124MOL0     C16646   8.352   8.438  12.310 -0.4143  0.1639  0.7964
  124MOL0     C16647   8.283   8.447  12.165  1.0367  0.6903  0.2889
  124MOL0     C16648   8.313   8.318  12.079 -0.3590 -0.5755 -0.2509
  124MOL0     C16649   8.262   8.334  11.932 -0.2689  0.9123  0.0584
  124MOL0    Cl16650   8.235   8.172  11.856 -0.1639 -0.6264  0.7706
  124MOL0     C16651   8.809   8.567  12.332  0.0894 -0.3938 -0.3099
  124MOL0     C16652   8.900   8.569  12.222  0.2327  0.1279  0.1192
  124MOL0     O16653   9.240   8.569  12.258  0.4620  0.1504  0.2621
  124MOL0     C16654   9.334   8.399  12.068 -0.1474  0.2799 -0.0307
  124MOL0     C16655   9.386   8.308  11.975 -0.3806  0.5683 -1.2781
  124MOL0     N16656   9.659   7.600  11.584  0.6451 -0.3776  0.8837
  124MOL0     N16657   9.720   7.570  11.477  0.2222  0.5301  0.3160
  124MOL0     C16658  10.272   7.928  10.439 -0.8756 -1.6832 -0.3653
  124MOL0     C16659  10.298   7.960  10.298  0.3823  0.7364 -0.7235
  124MOL0     C16660  10.489   7.878   9.871 -0.2437  0.4403 -0.8278
  124MOL0     C16661  10.610   7.859   9.798 -0.1526 -0.5729  1.0323
  124MOL0     C16662  10.616   7.865   9.658 -0.2041  0.1294  0.0216
  124MOL0     C16663  10.501   7.875   9.586 -0.4777 -0.1614  0.7299
  124MOL0     O16664  10.517   7.862   9.451 -0.8752  0.2302 -0.8652
  124MOL0     C16665  10.438   7.766   9.386 -0.4354 -0.0617  0.7778
  124MOL0     C16666  10.508   7.718   9.266 -0.3005 -0.6131  1.1367
  124MOL0     C16667  10.496   7.820   9.147 -0.6080  0.1417 -0.8100
  124MOL0     C16668  10.615   7.812   9.051  0.1687  0.8699  0.6153
  124MOL0     C16669  10.599   7.701   8.960 -0.1445  0.8286  1.1815
  124MOL0     C16670  10.584   7.607   8.887  0.3185 -0.1450 -0.3352
  124MOL0     C16671  10.379   7.891   9.650 -0.2097 -0.5047 -0.3248
  124MOL0     C16672  10.371   7.892   9.794 -0.3736  0.3368 -0.1252
  124MOL0     H16673  10.452   7.661  10.222  0.2419  0.4032  0.1090
  124MOL0     H16674  10.411   7.626  10.471 -1.7400 -1.2267  0.3654
  124MOL0     H16675  10.268   7.587  10.681  1.3193 -1.4210  0.6190
  124MOL0     H16676  10.422   7.668  10.706  0.9406  0.4173 -3.4178
  124MOL0     H16677  10.346   7.625  10.898  0.8910  1.1619  0.9223
  124MOL0     H16678  10.327   7.801  10.874  2.1023 -0.3837 -2.4576
  124MOL0     H16679  10.088   7.785  10.828 -2.1591  0.8667  2.3060
  124MOL0     H16680  10.082   7.613  10.867 -1.5751  0.8285  1.1035
  124MOL0     H16681  10.177   7.708  11.102 -0.6722  0.2372  1.4130
  124MOL0     H16682  10.148   7.863  11.048  1.0623 -0.2325  2.1970
  124MOL0     H16683   9.892   7.786  10.993 -2.0043  2.1407  3.2447
  124MOL0     H16684   9.933   7.641  11.078  1.3834 -1.2018  0.5873
  124MOL0     H16685  10.036   7.786  11.258 -1.3516  0.2919  0.4886
  124MOL0     H16686   9.979   7.925  11.171 -0.6956 -0.8020 -2.0048
  124MOL0     H16687   9.881   7.816  11.377  3.7886 -0.1773 -1.8958
  124MOL0     H16688   9.766   7.905  11.266 -0.1402 -0.2826  1.0984
  124MOL0     H16689   9.841   7.616  11.270  1.0445  2.1263  0.7888
  124MOL0     H16690   9.698   7.673  11.177 -2.1258 -0.6894  0.2703
  124MOL0     H16691   9.558   7.843  11.395 -3.3316 -2.2818  1.0982
  124MOL0     H16692   9.405   7.818  11.624 -0.6515  2.1986  2.2817
  124MOL0     H16693   9.485   7.714  11.754 -3.3344  0.4426  0.2945
  124MOL0     H16694   9.637   7.960  11.653 -0.1863  2.0957  2.1165
  124MOL0     H16695   9.610   7.899  11.819 -0.8756 -1.2358 -0.6768
  124MOL0     H16696   9.381   8.017  11.826  0.9443  2.8614  1.1687
  124MOL0     H16697   9.391   8.022  11.651 -0.9127  0.1408  0.2987
  124MOL0     H16698   9.591   8.186  11.692  0.1165  2.2676  1.9150
  124MOL0     H16699   9.557   8.171  11.862 -1.9859  0.1194  1.4697
  124MOL0     H16700   9.290   8.486  11.708  0.5718 -1.5729 -0.4765
  124MOL0     H16701   9.067   8.641  11.844 -0.6805  0.1348  2.6575
  124MOL0     H16702   9.198   8.766  11.873 -0.1930 -0.1513  1.6863
  124MOL0     H16703   9.203   8.680  11.735  0.7914 -1.2989  0.9592
  124MOL0     H16704   9.056   8.866  12.287  0.0182 -0.6262 -0.7690
  124MOL0     H16705   8.879   8.875  12.470 -1.2130  2.0849 -2.4051
  124MOL0     H16706   8.608   8.851  12.566  0.0240  0.0801 -0.0086
  124MOL0     H16707   8.584   8.777  12.407 -0.1452 -0.9153  0.5680
  124MOL0     H16708   8.509   8.647  12.672  0.6689  0.8490  0.1415
  124MOL0     H16709   8.392   8.746  12.564  0.6731  0.0909 -2.4576
  124MOL0     H16710   8.383   8.490  12.560  0.8113 -0.2150 -0.4289
  124MOL0     H16711   8.543   8.495  12.484  0.9975 -0.7996 -1.0149
  124MOL0     H16712   8.300   8.631  12.374  0.9753 -0.3264  1.1280
  124MOL0     H16713   8.461   8.640  12.305  0.7077  0.9129  0.0149
  124MOL0     H16714   8.290   8.382  12.381  1.9606 -1.0519  2.0372
  124MOL0     H16715   8.443   8.377  12.306 -0.3487  0.3050 -0.2209
  124MOL0     H16716   8.175   8.450  12.180  0.8800 -0.1060 -0.5732
  124MOL0     H16717   8.313   8.538  12.113 -1.8451  2.5345  1.6098
  124MOL0     H16718   8.272   8.234  12.135  3.7906 -2.2514  0.6783
  124MOL0     H16719   8.421   8.300  12.068 -0.4853 -0.1841 -2.6555
  124MOL0     H16720   8.337   8.401  11.889 -0.0717  2.1870  2.2559
  124MOL0     H16721   8.166   8.387  11.935 -0.5911  0.3491 -0.0970
  124MOL0     H16722   8.738   8.485  12.335  2.2182 -2.4855 -2.2289
  124MOL0     H16723   8.920   8.495  12.144  0.6559  0.1465  0.2079
  124MOL0     H16724   9.359   8.368  12.169  1.9667  1.3248 -0.1748
  124MOL0     H16725   9.432   8.219  12.016 -3.7266  0.3454  2.6040
  124MOL0     H16726  10.216   7.997  10.501  1.6864 -0.0520  0.3132
  124MOL0     H16727  10.263   8.050  10.250  0.9424  1.5809  0.3985
  124MOL0     H16728  10.705   7.851   9.850  0.9872  4.2046  0.1785
  124MOL0     H16729  10.717   7.859   9.619  0.2806  3.5046  0.5024
  124MOL0     H16730  10.420   7.677   9.446  2.6708 -0.6396  1.0388
  124MOL0     H16731  10.342   7.810   9.360  0.4255  0.7898 -1.2036
  124MOL0     H16732  10.461   7.622   9.242  0.7094 -0.2482 -3.1109
  124MOL0     H16733  10.612   7.692   9.292  0.2096 -1.7973 -1.7594
  124MOL0     H16734  10.503   7.915   9.202  3.6427 -0.9705  0.9840
  124MOL0     H16735  10.400   7.811   9.096 -0.6007  1.0315 -1.0047
  124MOL0     H16736  10.712   7.818   9.100  0.0790  0.1611  0.8838
  124MOL0     H16737  10.593   7.906   9.000  0.0873 -0.3473 -1.7400
  124MOL0     H16738  10.591   7.519   8.827 -0.0088  0.6946 -1.6391
  124MOL0     H16739  10.293   7.894   9.584  0.2753 -1.4193 -1.0259
  124MOL0     H16740  10.276   7.899   9.847 -0.1406  0.3410  0.2946
  125MOL0     O16741   2.259  10.100   4.341  0.3704  0.2219  0.4601
  125MOL0     C16742   2.162  10.156   4.390 -1.0313 -0.4254  0.9106
  125MOL0     O16743   2.170  10.271   4.469  0.7416 -0.1337  0.1664
  125MOL0     C16744   2.294  10.336   4.461 -0.1053 -0.6906 -0.1106
  125MOL0     C16745   2.415  10.280   4.516  0.4876  0.7898  0.6349
  125MOL0     C16746   2.526  10.360   4.519 -0.4507 -0.3114  0.1655
  125MOL0     C16747   2.525  10.486   4.461  1.0160  0.1390  0.1851
  125MOL0     O16748   2.632  10.561   4.455 -0.6752 -0.1019  0.2736
  125MOL0     C16749   2.690  10.585   4.587  1.1836 -0.3150  1.1300
  125MOL0     C16750   2.777  10.708   4.553  1.0044 -1.0523 -1.0059
  125MOL0     C16751   2.903  10.685   4.486 -0.1243  0.8462 -0.0568
  125MOL0     C16752   2.921  10.775   4.362  0.1353 -0.7206  0.6444
  125MOL0     C16753   3.051  10.773   4.276  0.2320  0.1027 -1.1274
  125MOL0     C16754   3.179  10.760   4.355 -0.6153 -0.6069 -0.3430
  125MOL0     C16755   3.311  10.766   4.276 -1.2715  0.1722  0.1810
  125MOL0     C16756   3.327  10.889   4.177  1.0373  0.4684 -0.0206
  125MOL0     N16757   3.400  11.001   4.245 -0.4225  0.0821 -0.2403
  125MOL0     C16758   3.398  11.045   4.381  0.7193  0.0793 -0.6075
  125MOL0     C16759   3.458  11.165   4.385 -0.2616  1.1419  0.1368
  125MOL0     C16760   3.507  11.239   4.502 -0.7378 -0.2224  0.0182
  125MOL0     C16761   3.408  11.362   4.539 -0.2565  1.0154 -0.6454
  125MOL0     C16762   3.420  11.399   4.686  0.5808 -0.2348  0.5996
  125MOL0     C16763   3.560  11.403   4.741  0.1070  0.3961  0.0886
  125MOL0     O16764   3.591  11.282   4.806 -0.2052  0.0710 -0.5999
  125MOL0     C16765   3.721  11.248   4.836  0.6514  0.4596 -0.7505
  125MOL0     C16766   3.826  11.330   4.811 -0.2341 -0.4177 -0.2798
  125MOL0     C16767   3.958  11.294   4.828  0.1120 -0.0537 -0.4751
  125MOL0     C16768   4.065  11.399   4.805  1.3057 -0.4032 -0.4988
  125MOL0     C16769   3.987  11.160   4.872  0.6021 -0.8042 -0.6318
  125MOL0     C16770   4.121  11.103   4.915  0.1534 -0.1056 -0.2980
  125MOL0     O16771   4.138  10.965   4.912 -0.1572 -0.0261 -0.8053
  125MOL0     C16772   4.258  10.905   4.949 -0.0181 -0.3364  1.0581
  125MOL0     C16773   4.335  10.943   5.062  0.2125  0.3658  0.5587
  125MOL0     C16774   4.459  10.888   5.076  0.3936 -0.1947  0.1704
  125MOL0     C16775   4.512  10.797   4.984 -0.6512 -0.3487  0.0549
  125MOL0     O16776   4.640  10.748   5.007 -0.4084 -0.0452  0.1208
  125MOL0     C16777   4.650  10.603   5.023  0.4403 -0.0180 -0.4433
  125MOL0     C16778   4.797  10.555   5.030  0.3332 -0.3606 -0.9931
  125MOL0     C16779   4.807  10.406   5.020 -0.1884 -0.1128  0.3697
  125MOL0     C16780   4.825  10.371   4.868  0.4087 -0.5035  0.9580
  125MOL0     C16781   4.838  10.218   4.854  0.0319 -0.2973  0.7872
  125MOL0     C16782   4.960  10.148   4.922  1.4703  0.0056 -0.1278
  125MOL0     C16783   5.096  10.210   4.874  0.3431  0.4909 -0.3533
  125MOL0     C16784   5.209  10.105   4.907  0.0621  0.7361  0.8670
  125MOL0    Cl16785   5.228  10.092   5.091  0.0013  0.1520  0.6819
  125MOL0     C16786   4.441  10.758   4.874 -1.2322  0.9360 -0.9045
  125MOL0     C16787   4.311  10.803   4.860 -0.1960 -0.2530 -0.1210
  125MOL0     O16788   4.205  11.183   4.946  0.1086 -0.2659  0.1322
  125MOL0     C16789   3.877  11.070   4.880 -0.4577  0.5531  0.3233
  125MOL0     C16790   3.748  11.113   4.866 -0.1504 -0.5736 -0.3443
  125MOL0     N16791   3.493  11.201   4.248  0.5342  0.9915 -0.6189
  125MOL0     N16792   3.462  11.101   4.168  0.0122 -0.5995  0.3316
  125MOL0     C16793   2.410  10.538   4.407 -0.4763  0.1971  0.0889
  125MOL0     C16794   2.297  10.461   4.408 -1.0182 -0.5027  1.0268
  125MOL0     C16795   2.038  10.093   4.377 -0.5820  0.7405 -0.3114
  125MOL0     C16796   2.037   9.960   4.342 -0.1484  0.0458 -0.3759
  125MOL0     C16797   1.919   9.899   4.312  0.9285  0.2673  0.6487
  125MOL0     C16798   1.793   9.962   4.322  0.2587  1.1073 -0.0416
  125MOL0     O16799   1.670   9.899   4.297 -0.1594  0.0416  0.3044
  125MOL0     C16800   1.667   9.756   4.309  0.3340  0.3409  0.2611
  125MOL0     C16801   1.531   9.717   4.374  0.0916 -0.9106  0.1731
  125MOL0     C16802   1.409   9.767   4.287  0.0512  0.4715 -0.8579
  125MOL0     C16803   1.412   9.720   4.141 -0.7132 -0.7137  0.3173
  125MOL0     C16804   1.438   9.583   4.126  0.2780  0.0256 -0.5230
  125MOL0     C16805   1.456   9.466   4.105  1.0005  1.2058 -0.3049
  125MOL0     C16806   1.797  10.093   4.371  0.0845 -0.2553 -0.5061
  125MOL0     C16807   1.915  10.166   4.392  0.4369 -0.3789 -0.0117
  125MOL0     H16808   2.414  10.177   4.550  1.1406  0.6332  0.2068
  125MOL0     H16809   2.609  10.303   4.560 -0.9371 -0.8419  0.4226
  125MOL0     H16810   2.623  10.620   4.666 -0.0354  2.5316 -0.9822
  125MOL0     H16811   2.747  10.498   4.620  0.5894 -0.0985  2.8308
  125MOL0     H16812   2.711  10.785   4.513 -0.2054 -1.2826  0.4465
  125MOL0     H16813   2.791  10.760   4.648 -3.7664  1.2520 -1.3090
  125MOL0     H16814   2.993  10.697   4.548  0.2037 -2.7930  0.3734
  125MOL0     H16815   2.917  10.583   4.449  1.4709  0.1268  2.3213
  125MOL0     H16816   2.842  10.764   4.287 -0.6447  2.3705  0.8852
  125MOL0     H16817   2.903  10.877   4.397  3.8983 -0.2625  1.6622
  125MOL0     H16818   3.060  10.680   4.218  1.6297  2.4106 -5.0636
  125MOL0     H16819   3.047  10.861   4.211  1.8593  0.3769 -0.9045
  125MOL0     H16820   3.184  10.838   4.431  0.6165  2.4274 -3.2709
  125MOL0     H16821   3.201  10.673   4.417 -2.2051  0.2350  1.4927
  125MOL0     H16822   3.389  10.758   4.352 -1.6461 -3.5315  0.3806
  125MOL0     H16823   3.316  10.676   4.214 -1.7991  0.1655  0.1381
  125MOL0     H16824   3.230  10.923   4.140 -0.0197 -1.6425  0.6442
  125MOL0     H16825   3.385  10.863   4.088  1.9735  3.0811 -0.2453
  125MOL0     H16826   3.340  11.003   4.463 -0.8993  1.6244 -0.8932
  125MOL0     H16827   3.512  11.166   4.583 -4.2226  1.8704  2.4263
  125MOL0     H16828   3.606  11.277   4.475 -0.5492  0.0963  1.1255
  125MOL0     H16829   3.306  11.337   4.508 -0.7247  0.3020  1.3091
  125MOL0     H16830   3.449  11.445   4.481 -1.5157  2.7414  0.8065
  125MOL0     H16831   3.358  11.331   4.745  1.8921  0.1328  2.4910
  125MOL0     H16832   3.380  11.500   4.700  2.7259  0.5575  1.3720
  125MOL0     H16833   3.555  11.483   4.815 -1.5325 -0.7925  1.3272
  125MOL0     H16834   3.634  11.424   4.663  1.9998  3.1811  2.4041
  125MOL0     H16835   3.806  11.433   4.781  1.2862 -0.0313 -0.0194
  125MOL0     H16836   4.142  11.371   4.732  2.0509  1.6541 -0.5649
  125MOL0     H16837   4.010  11.485   4.767  1.2987 -1.2299 -2.4799
  125MOL0     H16838   4.102  11.420   4.906 -2.0654 -1.6903  1.1753
  125MOL0     H16839   4.296  11.022   5.126  0.1429  3.1009 -2.5595
  125MOL0     H16840   4.510  10.907   5.170  0.9463 -0.1266 -0.1398
  125MOL0     H16841   4.597  10.577   5.116 -1.2438 -0.5785 -1.5112
  125MOL0     H16842   4.588  10.542   4.956 -0.4753 -4.1286  3.5533
  125MOL0     H16843   4.849  10.612   4.952  1.9573 -1.5456 -0.8326
  125MOL0     H16844   4.839  10.583   5.127  1.7830 -2.3565 -0.9855
  125MOL0     H16845   4.709  10.366   5.047 -0.5925 -0.8981 -2.0213
  125MOL0     H16846   4.891  10.365   5.077  0.1215 -1.6309 -1.1090
  125MOL0     H16847   4.747  10.403   4.798  1.0588 -1.0282 -0.0376
  125MOL0     H16848   4.917  10.410   4.823 -0.3110  1.5808  1.1481
  125MOL0     H16849   4.856  10.189   4.750 -0.4024  0.4778  0.4903
  125MOL0     H16850   4.743  10.174   4.885  0.8830 -1.4082  1.9302
  125MOL0     H16851   4.947  10.149   5.030 -0.5130 -2.6470 -0.2280
  125MOL0     H16852   4.954  10.047   4.881  0.9643 -0.5894  1.3637
  125MOL0     H16853   5.126  10.297   4.934  4.6898 -1.8892  1.3336
  125MOL0     H16854   5.095  10.238   4.768  4.5367  1.2449 -0.3549
  125MOL0     H16855   5.298  10.131   4.849  0.9833 -1.7458  1.0325
  125MOL0     H16856   5.191  10.005   4.866  2.6055 -0.0651  1.5738
  125MOL0     H16857   4.479  10.681   4.808  0.6756  0.8867  0.1873
  125MOL0     H16858   4.252  10.791   4.770 -2.5015  0.4474  1.2118
  125MOL0     H16859   3.879  10.970   4.921  0.5179 -0.5905 -2.2796
  125MOL0     H16860   3.658  11.052   4.873 -0.7754  0.4815  1.5612
  125MOL0     H16861   2.421  10.636   4.362 -2.0907  0.9779  1.3013
  125MOL0     H16862   2.204  10.501   4.367 -1.0306  0.8146  2.2813
  125MOL0     H16863   2.118   9.888   4.342 -2.2212 -2.4634 -1.5099
  125MOL0     H16864   1.926   9.793   4.292 -0.6664  0.3994 -0.8167
  125MOL0     H16865   1.666   9.718   4.207  1.3575 -0.2551  0.4641
  125MOL0     H16866   1.746   9.719   4.375 -2.1837  0.3619  3.5518
  125MOL0     H16867   1.530   9.764   4.472  3.4140  2.2455 -1.0840
  125MOL0     H16868   1.529   9.608   4.371  2.8427 -1.0188 -1.6630
  125MOL0     H16869   1.407   9.876   4.282  4.2266  0.6509 -3.1014
  125MOL0     H16870   1.311   9.733   4.323 -1.8009  2.2390 -3.8097
  125MOL0     H16871   1.483   9.774   4.077  1.0722 -2.6798  0.5162
  125MOL0     H16872   1.314   9.736   4.095 -1.8443  1.7880  3.2671
  125MOL0     H16873   1.452   9.360   4.091 -2.0051  0.9438  1.5386
  125MOL0     H16874   1.708  10.151   4.390 -0.6470 -1.4335 -0.2843
  125MOL0     H16875   1.924  10.272   4.417 -1.3090 -0.0921 -0.4408
  126MOL0     O16876   3.094   2.840   7.268  0.3042 -0.1295  0.5687
  126MOL0     C16877   2.983   2.796   7.304 -0.3812 -0.0029 -0.2247
  126MOL0     O16878   2.863   2.859   7.299  0.2540 -0.9151 -0.0144
  126MOL0     C16879   2.874   2.993   7.283  0.9806 -0.2709 -0.3044
  126MOL0     C16880   2.915   3.083   7.386  0.1862 -0.0403  0.0321
  126MOL0     C16881   2.931   3.216   7.347 -0.5261  0.4697 -0.0331
  126MOL0     C16882   2.915   3.260   7.211 -0.6882 -1.2092 -0.2171
  126MOL0     O16883   2.916   3.389   7.165 -0.2825 -0.5166  0.0142
  126MOL0     C16884   2.897   3.501   7.255  0.7741  0.7488  0.0762
  126MOL0     C16885   2.752   3.515   7.303  0.0941  0.9104 -0.1266
  126MOL0     C16886   2.648   3.543   7.192 -0.0883  0.0098  0.6062
  126MOL0     C16887   2.527   3.628   7.243 -0.2225  0.1545 -0.2274
  126MOL0     C16888   2.571   3.764   7.295  0.2959 -0.6660  0.0548
  126MOL0     C16889   2.449   3.851   7.347  0.2742 -0.5224 -0.1744
  126MOL0     C16890   2.396   3.796   7.472 -0.5621  0.0631 -0.3253
  126MOL0     C16891   2.317   3.895   7.556  0.5650 -0.1426  0.5818
  126MOL0     N16892   2.228   3.832   7.658 -0.9498 -0.0237  0.1424
  126MOL0     C16893   2.089   3.805   7.651 -0.2673 -0.3220 -0.3237
  126MOL0     C16894   2.044   3.767   7.777  0.3836 -0.9914  0.0437
  126MOL0     C16895   1.907   3.745   7.819  0.4673  0.2361  0.5194
  126MOL0     C16896   1.820   3.870   7.813 -1.0703  0.5286 -0.4807
  126MOL0     C16897   1.671   3.842   7.859  0.6541 -0.5032 -0.7463
  126MOL0     C16898   1.617   3.965   7.933 -0.7447  0.4637 -0.2116
  126MOL0     O16899   1.503   3.910   8.004 -0.4519 -0.1080  0.2555
  126MOL0     C16900   1.528   3.859   8.127 -0.2479 -0.5156 -1.1247
  126MOL0     C16901   1.560   3.936   8.242  0.2387  0.2501 -0.1350
  126MOL0     C16902   1.549   3.882   8.372 -0.1016 -0.1104 -0.1337
  126MOL0     C16903   1.570   3.969   8.494  0.4317 -0.5688 -0.0557
  126MOL0     C16904   1.544   3.744   8.391 -0.5063  0.7106  1.0659
  126MOL0     C16905   1.568   3.661   8.517 -0.2043 -0.3300 -0.4670
  126MOL0     O16906   1.621   3.536   8.491  0.2576  0.0030 -0.1487
  126MOL0     C16907   1.699   3.463   8.575 -0.5482  0.1272 -0.2074
  126MOL0     C16908   1.792   3.519   8.671  0.3353 -0.7395  0.3656
  126MOL0     C16909   1.859   3.433   8.760  0.5043 -0.3684 -0.3887
  126MOL0     C16910   1.846   3.298   8.753 -1.0376 -0.1883 -0.3712
  126MOL0     O16911   1.881   3.216   8.859  0.3946 -0.4504  0.1967
  126MOL0     C16912   1.991   3.267   8.941 -0.0047 -0.5563 -0.2941
  126MOL0     C16913   2.068   3.161   9.031  0.0532 -1.0383 -0.1388
  126MOL0     C16914   1.982   3.106   9.142 -0.5417  0.6964  0.2017
  126MOL0     C16915   1.904   2.972   9.110  0.0914 -0.1339 -0.4299
  126MOL0     C16916   1.805   2.935   9.222  0.5567  0.5702  0.6033
  126MOL0     C16917   1.858   2.943   9.367  0.0901  0.2190  0.5055
  126MOL0     C16918   1.772   2.884   9.471 -1.0437  0.2358 -0.4405
  126MOL0     C16919   1.827   2.924   9.609 -0.4549 -0.0754  0.6300
  126MOL0    Cl16920   1.974   2.812   9.632  0.3316  0.0558  0.1685
  126MOL0     C16921   1.771   3.245   8.649 -0.5315 -1.7379 -0.4226
  126MOL0     C16922   1.695   3.329   8.572 -0.1121  1.2340  0.3297
  126MOL0     O16923   1.562   3.714   8.630  0.5772  0.7331  0.2256
  126MOL0     C16924   1.518   3.667   8.269 -0.1968  1.1147 -0.6041
  126MOL0     C16925   1.504   3.724   8.141 -0.6425 -0.4151  0.2608
  126MOL0     N16926   2.162   3.778   7.853  0.4636 -0.4912 -0.4449
  126MOL0     N16927   2.265   3.816   7.782 -0.4965  0.6069 -0.1916
  126MOL0     C16928   2.877   3.168   7.114 -0.7282  0.9416 -0.2989
  126MOL0     C16929   2.853   3.041   7.152  0.0154 -0.4865  0.9704
  126MOL0     C16930   2.986   2.664   7.353 -0.1022 -0.1314 -0.8914
  126MOL0     C16931   2.873   2.604   7.395  0.0942 -0.4236 -0.6291
  126MOL0     C16932   2.879   2.472   7.444 -0.0066  0.0912  0.0455
  126MOL0     C16933   2.996   2.405   7.438 -0.3528  0.6530 -0.3727
  126MOL0     O16934   3.001   2.278   7.474 -0.0516  1.2934 -0.5323
  126MOL0     C16935   2.896   2.187   7.433  0.6051 -0.0802  0.1709
  126MOL0     C16936   2.894   2.147   7.283  0.8291  0.0281 -0.7064
  126MOL0     C16937   3.027   2.075   7.242  0.1897 -0.6379 -0.5088
  126MOL0     C16938   3.028   2.050   7.098  0.2016 -0.3663 -0.0098
  126MOL0     C16939   2.964   1.921   7.059 -0.0929  0.3143  0.0082
  126MOL0     C16940   2.918   1.808   7.035 -0.6055 -0.1352  0.2038
  126MOL0     C16941   3.117   2.461   7.413  0.2110 -0.7632 -0.0585
  126MOL0     C16942   3.110   2.592   7.361 -0.2281  0.0093  0.5213
  126MOL0     H16943   2.934   3.047   7.487  1.3542 -1.6315 -0.7222
  126MOL0     H16944   2.956   3.300   7.412  0.3966  0.9463 -0.9813
  126MOL0     H16945   2.968   3.491   7.337  0.7487  3.1594  0.4454
  126MOL0     H16946   2.913   3.596   7.204  0.4738 -0.0396 -1.5708
  126MOL0     H16947   2.721   3.420   7.347 -1.1757  1.4426  0.1906
  126MOL0     H16948   2.753   3.591   7.381 -2.8720  3.3203 -2.1517
  126MOL0     H16949   2.702   3.595   7.113  2.7709 -4.5266 -0.7946
  126MOL0     H16950   2.610   3.443   7.171 -0.6276  0.7162 -2.1907
  126MOL0     H16951   2.456   3.631   7.159 -0.5438 -2.1838 -0.1066
  126MOL0     H16952   2.483   3.565   7.321  0.8107 -3.1357 -2.0858
  126MOL0     H16953   2.638   3.759   7.382 -2.9868  1.5774  2.9665
  126MOL0     H16954   2.624   3.812   7.212  0.7151 -1.3466 -0.0750
  126MOL0     H16955   2.462   3.959   7.353  3.2058 -0.8369  1.3249
  126MOL0     H16956   2.376   3.826   7.269 -0.1280 -2.3788  0.7301
  126MOL0     H16957   2.332   3.707   7.473 -0.9617  0.3521  0.2196
  126MOL0     H16958   2.485   3.770   7.530 -1.4361  0.4857  1.2535
  126MOL0     H16959   2.265   3.973   7.501 -2.0990 -2.5210 -0.5304
  126MOL0     H16960   2.396   3.948   7.610  0.1861  1.3480 -0.2836
  126MOL0     H16961   2.030   3.803   7.560 -0.2412 -1.4220 -0.3311
  126MOL0     H16962   1.870   3.657   7.766  2.5429  0.1611 -0.9251
  126MOL0     H16963   1.911   3.704   7.921  0.0534 -1.4878 -0.1220
  126MOL0     H16964   1.817   3.898   7.707  0.9787 -2.6550 -1.5145
  126MOL0     H16965   1.874   3.947   7.868  1.2387 -1.6394  0.4546
  126MOL0     H16966   1.667   3.755   7.926 -3.4918 -0.9988 -1.4116
  126MOL0     H16967   1.613   3.825   7.768  1.9798  0.2158 -1.7748
  126MOL0     H16968   1.595   4.048   7.866  3.5297  1.6339 -0.4826
  126MOL0     H16969   1.701   4.004   7.991 -1.1521  3.1387 -1.2669
  126MOL0     H16970   1.564   4.044   8.241 -2.7015  0.4842  1.6011
  126MOL0     H16971   1.499   3.947   8.574  0.4231  0.7662  0.3361
  126MOL0     H16972   1.670   3.952   8.536 -0.3736 -1.1445  1.7228
  126MOL0     H16973   1.564   4.076   8.470 -1.4316 -1.0998 -2.2928
  126MOL0     H16974   1.779   3.624   8.699  0.6455 -0.2192 -1.3260
  126MOL0     H16975   1.911   3.475   8.846  0.7329 -1.2682 -0.0743
  126MOL0     H16976   2.064   3.307   8.871  0.4472 -0.5708  0.1671
  126MOL0     H16977   1.952   3.342   9.010  0.2289 -0.6325 -0.0814
  126MOL0     H16978   2.099   3.086   8.958 -2.2267 -0.1048 -2.2030
  126MOL0     H16979   2.148   3.224   9.069 -0.9219  0.5639 -0.6292
  126MOL0     H16980   1.906   3.181   9.167  0.8769  2.3158 -0.1481
  126MOL0     H16981   2.045   3.094   9.230  2.9064 -0.9752 -2.2589
  126MOL0     H16982   1.852   2.981   9.014  0.3313  0.7589 -0.4912
  126MOL0     H16983   1.973   2.892   9.081  1.8980  1.5052 -0.8939
  126MOL0     H16984   1.790   2.829   9.197 -0.1410  0.8449 -0.1946
  126MOL0     H16985   1.712   2.992   9.213  0.8982  1.7208  3.5233
  126MOL0     H16986   1.956   2.896   9.384  0.3157  1.0751  1.6885
  126MOL0     H16987   1.871   3.048   9.394  1.0557  0.5343 -1.0510
  126MOL0     H16988   1.773   2.775   9.474  0.7593  0.2115  3.3168
  126MOL0     H16989   1.672   2.923   9.450 -1.6075  0.3764  2.2031
  126MOL0     H16990   1.749   2.903   9.682 -2.1021 -0.6180 -1.1803
  126MOL0     H16991   1.856   3.029   9.620  1.7548 -0.7323  1.6672
  126MOL0     H16992   1.755   3.137   8.648  0.4914 -2.1383  4.1050
  126MOL0     H16993   1.616   3.293   8.507 -1.7401  1.4032  2.1443
  126MOL0     H16994   1.522   3.559   8.281 -1.0914  1.1891  0.5541
  126MOL0     H16995   1.474   3.677   8.048  1.4169 -2.2966  0.4528
  126MOL0     H16996   2.886   3.186   7.008  0.8028 -2.9209 -1.0045
  126MOL0     H16997   2.814   2.970   7.080 -1.6116 -0.2867  1.6205
  126MOL0     H16998   2.781   2.662   7.392  0.8278  0.7839 -0.4843
  126MOL0     H16999   2.786   2.429   7.479  0.5980 -1.5104 -0.2569
  126MOL0     H17000   2.892   2.088   7.480 -1.5547 -0.1436 -0.0417
  126MOL0     H17001   2.797   2.219   7.467 -0.6815 -3.0501 -0.5147
  126MOL0     H17002   2.893   2.234   7.217  3.4135  2.1167  1.7520
  126MOL0     H17003   2.806   2.088   7.255  0.5151 -0.2772  0.8463
  126MOL0     H17004   3.019   1.980   7.296 -4.5619 -0.1408  0.1645
  126MOL0     H17005   3.121   2.115   7.280 -0.0743 -0.8710  0.4272
  126MOL0     H17006   3.134   2.044   7.073  0.4909 -0.5657  1.1840
  126MOL0     H17007   2.970   2.127   7.047  0.1408 -0.0767  0.4925
  126MOL0     H17008   2.898   1.705   7.012  0.4803 -1.1602  3.2871
  126MOL0     H17009   3.203   2.396   7.403  0.7019  0.0583 -1.4834
  126MOL0     H17010   3.203   2.639   7.331 -1.4274  1.9927 -0.2363
  127MOL0     O17011   1.990   0.144   6.157 -0.2257 -0.4544 -0.4552
  127MOL0     C17012   1.899   0.105   6.089  0.6859  0.6427  0.0448
  127MOL0     O17013   1.880  -0.013   6.028 -0.5947 -0.6425 -0.0639
  127MOL0     C17014   1.985  -0.094   6.055 -0.7461  0.3396  0.2863
  127MOL0     C17015   2.001  -0.165   6.174  0.2349 -0.5528  0.0692
  127MOL0     C17016   2.117  -0.224   6.200 -1.0904  0.1433 -0.7403
  127MOL0     C17017   2.211  -0.255   6.107  0.3465 -0.2634  1.3188
  127MOL0     O17018   2.342  -0.308   6.121  0.2757  0.1736 -0.3811
  127MOL0     C17019   2.354  -0.390   6.240 -0.4414  0.2507  0.3113
  127MOL0     C17020   2.495  -0.460   6.229 -0.3780  0.6991  0.1436
  127MOL0     C17021   2.488  -0.581   6.132 -0.0739  0.9211 -0.9451
  127MOL0     C17022   2.469  -0.546   5.987 -0.2361  0.2105 -0.1774
  127MOL0     C17023   2.547  -0.439   5.929 -0.5805 -0.2352  0.2746
  127MOL0     C17024   2.693  -0.439   5.945 -0.0793  0.1939 -0.1876
  127MOL0     C17025   2.749  -0.304   5.884 -0.1704 -0.1189 -0.6741
  127MOL0     C17026   2.791  -0.319   5.739  0.4038 -0.6552 -0.3513
  127MOL0     N17027   2.831  -0.187   5.682  0.4420 -0.6194  0.3525
  127MOL0     C17028   2.961  -0.139   5.692 -0.5433  0.5079 -0.5780
  127MOL0     C17029   2.954  -0.016   5.642 -0.6874  0.0817  0.4074
  127MOL0     C17030   3.074   0.078   5.616  0.6458 -0.9982 -0.1339
  127MOL0     C17031   3.167   0.024   5.517  0.6215  0.9621  0.3134
  127MOL0     C17032   3.097  -0.013   5.381 -0.0636  0.5138  0.6207
  127MOL0     C17033   3.210  -0.063   5.283 -0.1864  0.7909  0.9237
  127MOL0     O17034   3.166  -0.066   5.139  0.1146  0.2044  0.8629
  127MOL0     C17035   3.200  -0.183   5.074  0.1931  0.5598 -0.7694
  127MOL0     C17036   3.098  -0.241   4.993 -0.6435  0.2286 -1.0073
  127MOL0     C17037   3.118  -0.357   4.924  0.4844  0.5526  0.4019
  127MOL0     C17038   3.007  -0.394   4.828  0.1511  0.1774 -0.4422
  127MOL0     C17039   3.251  -0.424   4.922  0.1394 -0.1229 -0.1743
  127MOL0     C17040   3.295  -0.540   4.833 -0.2129  0.0900 -0.4782
  127MOL0     O17041   3.421  -0.573   4.842  0.5437  0.0508  0.3337
  127MOL0     C17042   3.460  -0.673   4.750 -0.2664  0.3290  0.6554
  127MOL0     C17043   3.558  -0.640   4.654  0.5395  0.1214  0.0028
  127MOL0     C17044   3.616  -0.731   4.561 -0.0538 -0.2607  0.5078
  127MOL0     C17045   3.574  -0.869   4.560  0.8976  0.3374  0.7821
  127MOL0     O17046   3.604  -0.965   4.457  0.0199  0.8480 -0.5252
  127MOL0     C17047   3.733  -0.942   4.410 -0.6232 -0.4447  0.1056
  127MOL0     C17048   3.806  -1.077   4.353  0.2993 -0.4708 -0.3714
  127MOL0     C17049   3.856  -1.165   4.479 -0.5915 -0.6420  0.5837
  127MOL0     C17050   4.011  -1.153   4.496  0.5018 -0.1324  0.1527
  127MOL0     C17051   4.065  -1.264   4.591 -0.3095  0.8925  0.9392
  127MOL0     C17052   4.209  -1.241   4.643 -0.6200 -0.0920  1.3086
  127MOL0     C17053   4.191  -1.148   4.770  0.1709  0.9351  1.3157
  127MOL0     C17054   4.338  -1.133   4.823 -0.4934 -0.0281 -0.1976
  127MOL0    Cl17055   4.345  -1.067   4.992 -0.1401 -0.0292  0.1592
  127MOL0     C17056   3.490  -0.894   4.661 -0.1571  0.1905 -1.6560
  127MOL0     C17057   3.425  -0.812   4.753  0.1187 -0.0249 -0.0934
  127MOL0     O17058   3.216  -0.583   4.751  0.3065 -0.6513 -0.4875
  127MOL0     C17059   3.346  -0.363   5.005  1.3985  0.3861  0.3847
  127MOL0     C17060   3.325  -0.240   5.076  0.4985  0.4594  0.2059
  127MOL0     N17061   2.828  -0.000   5.598 -0.3302 -0.7639 -1.0046
  127MOL0     N17062   2.753  -0.103   5.620  1.1004 -0.6317 -0.3300
  127MOL0     C17063   2.192  -0.209   5.976 -0.5679  0.1637  0.1492
  127MOL0     C17064   2.072  -0.125   5.951 -0.5633 -0.0534 -0.6008
  127MOL0     C17065   1.786   0.198   6.059 -0.7455 -1.3807 -1.1811
  127MOL0     C17066   1.720   0.197   5.937  0.3164 -0.3455  0.3914
  127MOL0     C17067   1.619   0.288   5.921 -0.2114  0.0229  0.5417
  127MOL0     C17068   1.565   0.376   6.013 -0.6388  0.8974  0.1128
  127MOL0     O17069   1.456   0.457   5.996 -0.1430 -0.5787  0.4120
  127MOL0     C17070   1.385   0.433   5.871 -0.1186 -0.0552 -0.5123
  127MOL0     C17071   1.302   0.304   5.876 -0.9339  0.7465 -0.7073
  127MOL0     C17072   1.195   0.319   5.983  0.0440  0.6393 -0.7767
  127MOL0     C17073   1.182   0.188   6.067 -0.8242  0.3969 -0.4009
  127MOL0     C17074   1.117   0.072   6.007 -0.3783  0.2973  0.2440
  127MOL0     C17075   1.063  -0.016   5.946  0.1404 -0.4173  0.7959
  127MOL0     C17076   1.627   0.370   6.136 -0.2243  0.9530 -0.0704
  127MOL0     C17077   1.730   0.283   6.159  0.1194 -0.2395 -0.4977
  127MOL0     H17078   1.927  -0.158   6.254  0.0965  0.7307 -0.1460
  127MOL0     H17079   2.133  -0.253   6.303  0.1320 -1.4881 -1.3510
  127MOL0     H17080   2.356  -0.325   6.328 -1.6235  2.4087 -1.1551
  127MOL0     H17081   2.273  -0.463   6.248  0.0586 -0.2415  0.9555
  127MOL0     H17082   2.565  -0.382   6.199  2.7891 -1.3165  1.7159
  127MOL0     H17083   2.525  -0.495   6.328  1.5333  1.9213  0.0457
  127MOL0     H17084   2.579  -0.639   6.146 -1.1959 -0.7393 -0.1844
  127MOL0     H17085   2.406  -0.647   6.160  1.0802 -0.8414 -1.5779
  127MOL0     H17086   2.492  -0.639   5.935 -0.8769 -0.0028 -0.0951
  127MOL0     H17087   2.364  -0.535   5.957  0.3323 -0.8358 -2.7262
  127MOL0     H17088   2.529  -0.440   5.821  1.1729  0.9633 -0.0658
  127MOL0     H17089   2.502  -0.347   5.969 -1.6695  0.0837 -1.5665
  127MOL0     H17090   2.714  -0.451   6.052 -1.7184 -2.9004 -0.0960
  127MOL0     H17091   2.739  -0.518   5.884  1.5759  2.2905 -1.8219
  127MOL0     H17092   2.681  -0.223   5.912  1.6128  0.9323  0.8929
  127MOL0     H17093   2.845  -0.279   5.929 -0.2890  1.2626 -1.1561
  127MOL0     H17094   2.705  -0.368   5.693 -1.2594 -0.6043  2.5183
  127MOL0     H17095   2.881  -0.378   5.719  2.3957  2.2860 -0.7421
  127MOL0     H17096   3.046  -0.186   5.741 -1.2140  0.7589  0.8936
  127MOL0     H17097   3.038   0.176   5.581 -2.0222 -1.1759  1.7460
  127MOL0     H17098   3.144   0.081   5.700  3.9318 -2.0607 -2.6736
  127MOL0     H17099   3.217  -0.063   5.560 -1.0736 -0.3775 -0.2956
  127MOL0     H17100   3.238   0.105   5.496  0.7553  0.5620 -0.8723
  127MOL0     H17101   3.045   0.073   5.338 -2.4468 -0.8989  0.4749
  127MOL0     H17102   3.015  -0.085   5.392 -0.3076  0.3828 -1.6837
  127MOL0     H17103   3.230  -0.167   5.308 -1.4628 -0.1117 -1.4428
  127MOL0     H17104   3.299  -0.001   5.300 -0.7734  2.1993 -0.8035
  127MOL0     H17105   3.005  -0.185   4.993  0.3781  2.0270 -1.3128
  127MOL0     H17106   3.029  -0.356   4.728  1.5968  0.1071 -0.1691
  127MOL0     H17107   2.988  -0.502   4.821  1.3876 -0.0555 -0.4795
  127MOL0     H17108   2.913  -0.353   4.865 -0.8547 -2.1609 -0.2327
  127MOL0     H17109   3.595  -0.538   4.666 -0.2637  0.8341 -2.8507
  127MOL0     H17110   3.685  -0.693   4.486 -0.7740  1.6641  0.7590
  127MOL0     H17111   3.724  -0.869   4.329 -1.0778 -0.4466  0.1500
  127MOL0     H17112   3.801  -0.910   4.489  2.2873 -0.8487 -2.0557
  127MOL0     H17113   3.745  -1.139   4.287 -0.9238 -1.4894  1.5973
  127MOL0     H17114   3.897  -1.053   4.297  1.9553 -2.0289  1.5002
  127MOL0     H17115   3.841  -1.270   4.452  0.4756 -0.9835  1.2507
  127MOL0     H17116   3.795  -1.146   4.568 -0.2789  1.1699  0.4459
  127MOL0     H17117   4.060  -1.159   4.399 -2.9477  3.3490 -2.0856
  127MOL0     H17118   4.025  -1.058   4.548  2.4571 -0.3257  0.0734
  127MOL0     H17119   4.064  -1.352   4.525  0.7053  1.5014  0.0850
  127MOL0     H17120   3.992  -1.288   4.669 -0.9285  1.0027  0.4033
  127MOL0     H17121   4.253  -1.340   4.658 -1.0156 -0.8817 -1.9835
  127MOL0     H17122   4.285  -1.195   4.579  2.6179 -4.0131  1.9252
  127MOL0     H17123   4.133  -1.193   4.850  1.6925  1.8900  3.0316
  127MOL0     H17124   4.148  -1.050   4.748 -2.1938 -0.2309  0.4703
  127MOL0     H17125   4.390  -1.067   4.753  1.0714 -1.2261 -0.2242
  127MOL0     H17126   4.402  -1.222   4.815  1.1016  1.1028 -0.5551
  127MOL0     H17127   3.460  -0.998   4.666  0.8037 -0.0758  2.9105
  127MOL0     H17128   3.346  -0.848   4.818 -0.5540 -1.1536 -1.4886
  127MOL0     H17129   3.448  -0.398   4.997  0.9889 -0.3949 -2.6307
  127MOL0     H17130   3.411  -0.192   5.121 -0.1090  3.9212 -1.9168
  127MOL0     H17131   2.272  -0.228   5.905  0.8352  0.9330  1.4743
  127MOL0     H17132   2.051  -0.067   5.862 -1.3778  0.5224 -0.0510
  127MOL0     H17133   1.749   0.133   5.855 -0.1503 -2.8602  2.0944
  127MOL0     H17134   1.588   0.274   5.818 -1.8890 -2.8493  1.3300
  127MOL0     H17135   1.312   0.513   5.860  2.3863  2.4561 -0.0647
  127MOL0     H17136   1.452   0.446   5.785 -0.1269  2.1302 -0.2341
  127MOL0     H17137   1.366   0.216   5.890 -2.0063 -0.2272 -1.7285
  127MOL0     H17138   1.260   0.291   5.776  2.2174 -1.3674 -1.9142
  127MOL0     H17139   1.093   0.327   5.945 -1.4241 -2.5577  1.9906
  127MOL0     H17140   1.201   0.406   6.049  0.4748 -0.6894  1.0175
  127MOL0     H17141   1.131   0.217   6.159  2.8331  1.9592  1.3776
  127MOL0     H17142   1.278   0.159   6.112 -0.4440  1.2200 -0.6606
  127MOL0     H17143   1.015  -0.092   5.889  1.1722  0.2569 -1.0590
  127MOL0     H17144   1.566   0.419   6.211 -1.0406  0.7120 -0.5624
  127MOL0     H17145   1.764   0.259   6.259  0.1408  0.1458 -0.4122
  128MOL0     O17146   1.604   5.709   1.982  0.3341  0.3755 -0.4585
  128MOL0     C17147   1.524   5.648   2.040  0.4780  0.2919  1.0135
  128MOL0     O17148   1.405   5.690   2.064  0.0282  0.6028  0.0303
  128MOL0     C17149   1.358   5.810   2.034  0.0869  0.1730  0.1148
  128MOL0     C17150   1.268   5.815   1.929  0.1138 -0.8541  0.5980
  128MOL0     C17151   1.233   5.938   1.874 -0.9701 -0.5274 -0.1374
  128MOL0     C17152   1.285   6.059   1.917 -0.3032 -0.3515  0.0964
  128MOL0     O17153   1.245   6.176   1.851 -0.0253 -0.3538  0.3977
  128MOL0     C17154   1.338   6.287   1.855  0.2873 -0.4328 -0.1975
  128MOL0     C17155   1.472   6.255   1.790 -0.0678 -0.6339 -0.2771
  128MOL0     C17156   1.441   6.196   1.655 -0.2727  1.3319  0.3146
  128MOL0     C17157   1.560   6.190   1.559  0.0083  0.1327 -0.0206
  128MOL0     C17158   1.520   6.178   1.406 -0.2146  0.2648 -0.6323
  128MOL0     C17159   1.483   6.025   1.384 -0.1050  1.0193  0.6953
  128MOL0     C17160   1.445   6.001   1.234 -0.9302  0.8168 -0.4240
  128MOL0     C17161   1.459   5.850   1.196 -0.5737  0.6892  0.3849
  128MOL0     N17162   1.440   5.817   1.048  0.6497  0.1708 -0.7564
  128MOL0     C17163   1.336   5.748   0.988 -0.2834 -0.1160 -0.1714
  128MOL0     C17164   1.372   5.728   0.858 -0.3837  0.7702 -0.5506
  128MOL0     C17165   1.294   5.657   0.747  0.2118 -1.3522 -0.1985
  128MOL0     C17166   1.182   5.749   0.693  0.0714  0.1547  0.0769
  128MOL0     C17167   1.096   5.682   0.582  1.1424 -0.5902  0.3671
  128MOL0     C17168   0.987   5.779   0.531  0.0368  0.3193  1.5249
  128MOL0     O17169   0.884   5.810   0.626  0.1642 -0.4222 -0.4867
  128MOL0     C17170   0.800   5.714   0.683  0.2692 -0.3837 -0.3719
  128MOL0     C17171   0.786   5.700   0.821  0.4183 -0.9413 -0.4502
  128MOL0     C17172   0.695   5.612   0.884  0.0759  1.0853  1.1887
  128MOL0     C17173   0.700   5.615   1.035 -0.1187  0.7668  0.1377
  128MOL0     C17174   0.605   5.532   0.803 -0.2431 -0.4176  0.7466
  128MOL0     C17175   0.498   5.444   0.849 -0.6867  0.6839  0.0162
  128MOL0     O17176   0.419   5.405   0.758  0.1282  0.3177 -0.2127
  128MOL0     C17177   0.290   5.366   0.781 -0.2079 -0.7974 -1.0003
  128MOL0     C17178   0.191   5.446   0.842  1.1615  0.1103  0.1222
  128MOL0     C17179   0.057   5.389   0.853 -0.5496  0.7919 -0.9845
  128MOL0     C17180   0.035   5.258   0.819  0.2081 -0.0871  1.1422
  128MOL0     O17181  -0.092   5.226   0.826 -0.4008  0.3359  0.0507
  128MOL0     C17182  -0.122   5.094   0.873 -0.5556  0.1264  0.1031
  128MOL0     C17183  -0.089   5.085   1.024 -0.1402  0.4915 -1.3542
  128MOL0     C17184  -0.159   5.208   1.092  0.7141 -0.0213  0.4407
  128MOL0     C17185  -0.233   5.176   1.231 -0.0384  0.6156  0.2312
  128MOL0     C17186  -0.132   5.162   1.344 -0.2433  0.5013 -0.2609
  128MOL0     C17187  -0.206   5.143   1.475 -0.3971 -0.5419  0.2159
  128MOL0     C17188  -0.111   5.169   1.591  0.1933  0.7526 -0.0510
  128MOL0     C17189  -0.171   5.142   1.726  0.7464 -0.4506 -0.3622
  128MOL0    Cl17190  -0.258   4.982   1.725  0.3932  0.1079  0.1307
  128MOL0     C17191   0.138   5.181   0.766  0.0863  0.1971  0.8211
  128MOL0     C17192   0.262   5.232   0.749  0.6227 -0.7263  0.9777
  128MOL0     O17193   0.491   5.431   0.972  0.7592  0.4391 -0.4227
  128MOL0     C17194   0.616   5.553   0.661  0.0670  0.4028  0.4923
  128MOL0     C17195   0.718   5.632   0.608  0.5081 -1.1848  0.0295
  128MOL0     N17196   1.488   5.805   0.837 -0.5273 -0.8129 -0.8803
  128MOL0     N17197   1.511   5.861   0.948 -0.8276  0.2423  0.1069
  128MOL0     C17198   1.383   6.056   2.025  0.8035 -0.3870 -0.8148
  128MOL0     C17199   1.412   5.935   2.083 -0.3590  0.9251  0.2741
  128MOL0     C17200   1.556   5.517   2.097 -0.0890  0.0607 -0.5122
  128MOL0     C17201   1.688   5.493   2.124 -0.3167  0.2432  1.6416
  128MOL0     C17202   1.740   5.378   2.175  0.6367  0.7756 -0.6820
  128MOL0     C17203   1.653   5.273   2.217  0.8607 -0.5111 -0.0770
  128MOL0     O17204   1.697   5.149   2.278 -0.3808 -0.6141 -0.0372
  128MOL0     C17205   1.607   5.039   2.289  0.1083 -0.0092 -0.2014
  128MOL0     C17206   1.677   4.931   2.378 -0.6876 -0.4982  0.6492
  128MOL0     C17207   1.784   4.851   2.305 -0.0987  1.0187  0.7105
  128MOL0     C17208   1.870   4.774   2.409 -0.1190  0.0150  0.9510
  128MOL0     C17209   1.807   4.706   2.520 -0.1255 -0.2243  0.2990
  128MOL0     C17210   1.764   4.659   2.623 -0.5775  0.0484  0.3790
  128MOL0     C17211   1.518   5.301   2.192  0.0980  0.6991 -0.0779
  128MOL0     C17212   1.466   5.420   2.139 -0.4553  0.1882  0.1805
  128MOL0     H17213   1.222   5.727   1.885  1.8129 -0.7997 -1.4626
  128MOL0     H17214   1.168   5.946   1.788 -0.4312  1.1244 -0.4111
  128MOL0     H17215   1.290   6.376   1.812 -0.0504  0.0067  1.0487
  128MOL0     H17216   1.351   6.319   1.959 -2.4022 -4.5064  1.6332
  128MOL0     H17217   1.520   6.349   1.761  0.9498 -1.4343 -1.3118
  128MOL0     H17218   1.522   6.179   1.852 -2.2095 -2.0453 -0.1545
  128MOL0     H17219   1.408   6.092   1.663  0.8814  1.0342  1.7247
  128MOL0     H17220   1.367   6.257   1.604  0.6265 -0.4972 -3.6142
  128MOL0     H17221   1.605   6.289   1.557 -1.3498  0.7615 -0.9285
  128MOL0     H17222   1.639   6.125   1.598  0.8797  0.6418 -0.8888
  128MOL0     H17223   1.437   6.247   1.392 -0.0313  1.9474  4.6626
  128MOL0     H17224   1.608   6.200   1.345  1.2916  0.7735  1.6313
  128MOL0     H17225   1.567   5.964   1.421  1.4871  0.5386 -3.1902
  128MOL0     H17226   1.391   6.006   1.439 -0.9416 -0.0572 -0.9750
  128MOL0     H17227   1.343   6.038   1.218 -1.8263 -1.1013  0.5780
  128MOL0     H17228   1.511   6.054   1.164 -0.1024 -0.3592 -0.5591
  128MOL0     H17229   1.400   5.778   1.253 -2.8306  1.1362 -1.2624
  128MOL0     H17230   1.558   5.821   1.231 -0.6156  0.5283  0.3689
  128MOL0     H17231   1.246   5.703   1.030  0.1987 -1.0126 -0.0625
  128MOL0     H17232   1.359   5.629   0.664 -0.4719 -0.4254 -1.0767
  128MOL0     H17233   1.236   5.572   0.785  1.1664 -0.8441  2.6303
  128MOL0     H17234   1.224   5.845   0.661 -0.4245 -0.3897 -2.4245
  128MOL0     H17235   1.110   5.774   0.771  1.4752 -0.5220  1.6602
  128MOL0     H17236   1.043   5.598   0.627  1.1165 -1.2064 -0.7810
  128MOL0     H17237   1.148   5.660   0.489 -1.8947  1.6090 -2.0471
  128MOL0     H17238   0.932   5.724   0.454  0.9811  1.5743 -0.1118
  128MOL0     H17239   1.027   5.871   0.488  0.1603  0.8745  2.7732
  128MOL0     H17240   0.852   5.760   0.882 -1.9929 -1.4328  2.9323
  128MOL0     H17241   0.681   5.516   1.078  1.3145  0.6000  0.4289
  128MOL0     H17242   0.801   5.639   1.069  1.3702 -1.8804 -2.0471
  128MOL0     H17243   0.625   5.687   1.069 -0.5550 -0.5190  2.0606
  128MOL0     H17244   0.209   5.552   0.863  3.2019 -0.1433 -0.1136
  128MOL0     H17245  -0.022   5.457   0.885 -2.7288 -2.2814  0.6992
  128MOL0     H17246  -0.227   5.071   0.853 -0.0084 -1.2986 -1.3218
  128MOL0     H17247  -0.073   5.017   0.814 -0.9437  0.2392 -0.3760
  128MOL0     H17248  -0.114   4.991   1.074 -0.4211  1.6537  0.7685
  128MOL0     H17249   0.021   5.088   1.027 -0.0916 -1.2118  1.2765
  128MOL0     H17250  -0.245   5.227   1.026  1.7195 -1.0253 -1.2190
  128MOL0     H17251  -0.102   5.302   1.088  0.1164  0.3191 -0.8304
  128MOL0     H17252  -0.299   5.258   1.261  0.9976  2.0708 -1.2515
  128MOL0     H17253  -0.288   5.082   1.219 -1.4811  1.5161 -0.4874
  128MOL0     H17254  -0.060   5.245   1.353  0.0063  0.1919  0.6402
  128MOL0     H17255  -0.070   5.076   1.318 -1.1525 -0.3715  0.4365
  128MOL0     H17256  -0.299   5.201   1.483 -1.0159 -1.7323  2.5302
  128MOL0     H17257  -0.245   5.041   1.471 -1.8782 -0.0218  0.5973
  128MOL0     H17258  -0.061   5.266   1.584  2.6925 -0.5763 -2.4977
  128MOL0     H17259  -0.031   5.097   1.572  0.5243  0.0583  3.3739
  128MOL0     H17260  -0.245   5.216   1.755  2.1585  1.8884 -2.3965
  128MOL0     H17261  -0.096   5.155   1.804 -0.6032  0.9224  0.7649
  128MOL0     H17262   0.117   5.079   0.735 -1.8919  0.7573  0.2072
  128MOL0     H17263   0.342   5.168   0.712  0.6225  0.3882 -1.1115
  128MOL0     H17264   0.551   5.505   0.588  2.7422 -2.2947 -0.3264
  128MOL0     H17265   0.731   5.650   0.501 -0.2582  0.1892  0.1589
  128MOL0     H17266   1.432   6.136   2.080 -0.1228 -0.3387 -0.0358
  128MOL0     H17267   1.482   5.929   2.166  1.0458 -2.1776 -0.9875
  128MOL0     H17268   1.760   5.559   2.078 -1.5298 -0.6986 -1.9776
  128MOL0     H17269   1.843   5.351   2.195  1.2558  1.0983 -3.1208
  128MOL0     H17270   1.520   5.078   2.342  0.7881  2.0963 -0.5266
  128MOL0     H17271   1.591   5.002   2.188  1.4064  0.9870 -0.8060
  128MOL0     H17272   1.603   4.867   2.427  2.1366 -1.8092  3.6327
  128MOL0     H17273   1.725   4.991   2.456  0.5316 -2.8938  1.8878
  128MOL0     H17274   1.852   4.904   2.238 -1.5354 -1.8566 -3.3746
  128MOL0     H17275   1.727   4.781   2.243  0.8266  0.0952  0.8717
  128MOL0     H17276   1.940   4.850   2.446 -0.2314  0.9152 -0.5982
  128MOL0     H17277   1.935   4.705   2.354  0.2769 -1.4019  3.0502
  128MOL0     H17278   1.736   4.622   2.719  1.0700 -1.5253  0.3094
  128MOL0     H17279   1.450   5.228   2.233 -1.7060  1.9526 -0.7067
  128MOL0     H17280   1.359   5.431   2.123 -0.4110 -2.6707 -3.6330
  129MOL0     O17281   8.969   5.823   3.343  0.4497  0.4407 -0.4944
  129MOL0     C17282   8.983   5.699   3.364 -0.1966 -0.0583  0.2762
  129MOL0     O17283   8.916   5.587   3.310  0.3647 -0.3632  0.3505
  129MOL0     C17284   8.808   5.597   3.228  0.0133 -0.4240  0.7448
  129MOL0     C17285   8.813   5.525   3.107 -0.0115  1.1810 -1.2013
  129MOL0     C17286   8.710   5.527   3.012 -0.5697  0.1104 -0.7237
  129MOL0     C17287   8.600   5.617   3.034  0.1803  0.1631 -0.2848
  129MOL0     O17288   8.504   5.633   2.939  0.3346  0.3236 -0.2387
  129MOL0     C17289   8.521   5.751   2.866 -0.5261 -0.6893  0.6031
  129MOL0     C17290   8.392   5.770   2.771 -0.1108  0.9994 -0.7971
  129MOL0     C17291   8.434   5.835   2.640  0.8161  0.4250  0.4174
  129MOL0     C17292   8.301   5.875   2.567 -0.9738 -0.3656 -0.2540
  129MOL0     C17293   8.327   5.929   2.426 -0.3022 -0.4938 -0.4021
  129MOL0     C17294   8.343   5.822   2.321  0.0345  0.8923 -0.2134
  129MOL0     C17295   8.388   5.860   2.180  0.2792 -0.2334  0.2668
  129MOL0     C17296   8.531   5.913   2.182 -0.2277  0.0124 -1.1833
  129MOL0     N17297   8.627   5.807   2.234  0.9317  0.1216 -0.2627
  129MOL0     C17298   8.719   5.813   2.341 -0.4158  0.6784  0.4413
  129MOL0     C17299   8.756   5.687   2.367 -0.1821  0.2117 -0.2769
  129MOL0     C17300   8.835   5.637   2.483  0.6258 -1.5568 -0.3208
  129MOL0     C17301   8.940   5.530   2.463  0.2781 -0.0162 -0.1378
  129MOL0     C17302   8.981   5.463   2.589 -0.6880  0.1013  0.0393
  129MOL0     C17303   9.108   5.383   2.557  0.9650  0.3215 -0.1135
  129MOL0     O17304   9.080   5.251   2.605  0.4156  0.0864 -0.4730
  129MOL0     C17305   9.122   5.224   2.731 -0.3798  0.1758  0.4194
  129MOL0     C17306   9.137   5.314   2.835 -0.1643 -0.5850 -0.9071
  129MOL0     C17307   9.181   5.288   2.968 -0.9178 -0.2308 -0.0020
  129MOL0     C17308   9.179   5.399   3.067  0.6442 -0.7246 -0.0397
  129MOL0     C17309   9.208   5.144   2.992  0.6410  0.4824 -0.5457
  129MOL0     C17310   9.278   5.086   3.113 -0.1244  0.1752 -0.0696
  129MOL0     O17311   9.297   4.943   3.129  0.9608 -0.9145  0.7919
  129MOL0     C17312   9.366   4.889   3.235 -0.0175 -0.3111 -1.1180
  129MOL0     C17313   9.304   4.827   3.350  0.9946  0.8531  1.3411
  129MOL0     C17314   9.387   4.768   3.452 -0.1310  0.1561  0.2017
  129MOL0     C17315   9.530   4.787   3.447 -0.7724  0.9308  0.2040
  129MOL0     O17316   9.611   4.744   3.551  0.6812  0.9526 -0.3611
  129MOL0     C17317   9.641   4.859   3.641  0.2455 -0.4427  0.6909
  129MOL0     C17318   9.572   4.854   3.777  1.0410  1.1157 -0.1773
  129MOL0     C17319   9.594   4.722   3.851 -0.2397  0.5344 -0.0686
  129MOL0     C17320   9.483   4.697   3.958  0.0563 -0.0292  0.3572
  129MOL0     C17321   9.490   4.570   4.040  1.5147  0.6846  0.3838
  129MOL0     C17322   9.366   4.563   4.126  0.1727 -0.3483  0.6627
  129MOL0     C17323   9.374   4.435   4.207  0.0601 -0.2030 -1.5464
  129MOL0     C17324   9.319   4.457   4.347 -0.5314 -0.6945  0.9666
  129MOL0    Cl17325   9.143   4.498   4.348  0.2068  0.4698  0.2887
  129MOL0     C17326   9.587   4.834   3.337  0.0576  0.3477  1.0953
  129MOL0     C17327   9.502   4.891   3.231 -0.9402  0.6118  1.6427
  129MOL0     O17328   9.313   5.168   3.195  0.7075 -0.3182 -0.4141
  129MOL0     C17329   9.188   5.049   2.889  0.9230  0.6030  1.0591
  129MOL0     C17330   9.134   5.092   2.771 -0.4754  1.4673  0.9848
  129MOL0     N17331   8.672   5.608   2.300  0.0176  0.0604  0.6528
  129MOL0     N17332   8.608   5.676   2.205 -0.5555 -0.1769  0.0526
  129MOL0     C17333   8.589   5.678   3.159 -0.5169  0.0750 -0.3755
  129MOL0     C17334   8.689   5.665   3.253  0.8960  0.0410 -0.4143
  129MOL0     C17335   9.078   5.677   3.475 -0.7840  0.5405  0.0492
  129MOL0     C17336   9.170   5.566   3.473 -0.5713  0.4468 -0.5929
  129MOL0     C17337   9.249   5.532   3.584 -0.6617  0.3647  0.0968
  129MOL0     C17338   9.248   5.622   3.690 -0.0160 -0.1501 -0.6536
  129MOL0     O17339   9.329   5.605   3.792 -0.4680  0.3716 -0.3324
  129MOL0     C17340   9.318   5.469   3.855 -0.1478 -0.8559 -0.0280
  129MOL0     C17341   9.290   5.496   3.999 -0.7473  0.2195 -0.0018
  129MOL0     C17342   9.403   5.578   4.069  0.6770 -0.1206  0.9239
  129MOL0     C17343   9.522   5.482   4.106  0.0288 -0.5652 -0.8769
  129MOL0     C17344   9.627   5.552   4.186  1.0580  0.2600 -0.2611
  129MOL0     C17345   9.710   5.593   4.266  0.5962 -0.6995 -0.6698
  129MOL0     C17346   9.171   5.747   3.703 -1.1079  0.1703 -0.1934
  129MOL0     C17347   9.087   5.767   3.583  0.0678  0.5301 -0.4812
  129MOL0     H17348   8.909   5.476   3.091  0.7646  1.6764  1.4494
  129MOL0     H17349   8.727   5.482   2.915 -3.1025  1.7091 -2.0199
  129MOL0     H17350   8.524   5.846   2.920 -3.8890  1.1180 -1.9865
  129MOL0     H17351   8.618   5.750   2.815 -1.0042 -0.6657 -0.3237
  129MOL0     H17352   8.336   5.679   2.749  2.1579 -0.1085 -2.4405
  129MOL0     H17353   8.313   5.818   2.830 -0.9802 -2.8153  1.4796
  129MOL0     H17354   8.507   5.915   2.654 -0.0572  1.6284 -1.5221
  129MOL0     H17355   8.486   5.762   2.577  1.4570 -1.7343  3.2615
  129MOL0     H17356   8.218   5.803   2.567 -2.8102  1.3496  4.2529
  129MOL0     H17357   8.259   5.949   2.636  0.6131 -1.2280  1.7482
  129MOL0     H17358   8.259   6.007   2.393  0.0255 -0.9003 -2.1042
  129MOL0     H17359   8.418   5.989   2.424  2.7639 -4.6571 -0.0673
  129MOL0     H17360   8.401   5.737   2.358 -0.8694 -1.5183 -3.8407
  129MOL0     H17361   8.244   5.777   2.307 -1.9346  5.0233 -1.1072
  129MOL0     H17362   8.382   5.766   2.124 -1.3237 -1.2951  2.0838
  129MOL0     H17363   8.317   5.929   2.132  0.5321  1.2446  1.8975
  129MOL0     H17364   8.544   6.001   2.247 -1.2044  1.1172 -2.4525
  129MOL0     H17365   8.564   5.944   2.083  2.8367 -0.6973 -0.4959
  129MOL0     H17366   8.743   5.909   2.385 -0.8637  0.6097  0.8401
  129MOL0     H17367   8.879   5.711   2.550  0.6720 -3.8458  2.3888
  129MOL0     H17368   8.758   5.594   2.548 -1.9957  1.6586 -1.0334
  129MOL0     H17369   9.026   5.575   2.413 -0.9263  0.8651 -1.4923
  129MOL0     H17370   8.893   5.461   2.392 -2.8139  1.7619  0.0063
  129MOL0     H17371   8.896   5.401   2.617 -2.2942  3.2609  2.9666
  129MOL0     H17372   8.998   5.530   2.675  0.7248 -1.1294  0.7603
  129MOL0     H17373   9.200   5.434   2.587  0.2925  1.1387  0.5936
  129MOL0     H17374   9.123   5.366   2.450 -1.9387 -0.5037 -0.4844
  129MOL0     H17375   9.119   5.421   2.822  0.8159 -0.0211  1.7160
  129MOL0     H17376   9.135   5.488   3.020  0.3845 -0.5093  0.5948
  129MOL0     H17377   9.110   5.372   3.148 -2.0775  1.0832 -1.5778
  129MOL0     H17378   9.280   5.426   3.098 -0.2445  0.9278  1.6440
  129MOL0     H17379   9.195   4.829   3.354  0.9809  1.4485  0.8047
  129MOL0     H17380   9.331   4.715   3.528 -2.5743  0.3811 -1.3565
  129MOL0     H17381   9.749   4.854   3.657  0.4551  4.0444  1.7539
  129MOL0     H17382   9.631   4.957   3.594  0.4786  0.0596  1.6560
  129MOL0     H17383   9.588   4.952   3.824  0.1215  0.7752  0.8616
  129MOL0     H17384   9.466   4.846   3.752  0.8947  0.0663  0.7269
  129MOL0     H17385   9.694   4.734   3.895 -1.3647  2.5922  2.2465
  129MOL0     H17386   9.602   4.638   3.783 -0.1391  1.5013 -1.2848
  129MOL0     H17387   9.489   4.785   4.023 -2.8134 -1.4699  2.8226
  129MOL0     H17388   9.390   4.691   3.901 -1.0130  1.9809  1.7837
  129MOL0     H17389   9.577   4.571   4.106  0.1285  2.1169  2.2983
  129MOL0     H17390   9.503   4.481   3.977  0.3959 -1.6169  3.1918
  129MOL0     H17391   9.356   4.645   4.198  0.3298 -0.3737  0.7129
  129MOL0     H17392   9.277   4.565   4.062 -2.7769  1.0595  4.3930
  129MOL0     H17393   9.471   4.386   4.220 -0.4410 -1.2264 -1.5891
  129MOL0     H17394   9.311   4.360   4.157 -0.5113  1.4232 -3.4087
  129MOL0     H17395   9.360   4.541   4.403  1.1868 -1.0472  0.3046
  129MOL0     H17396   9.332   4.365   4.405  0.0570 -0.1055  1.7948
  129MOL0     H17397   9.694   4.844   3.321  0.3403 -2.1951  0.9840
  129MOL0     H17398   9.545   4.946   3.148 -2.1216 -1.5269 -0.4992
  129MOL0     H17399   9.208   4.943   2.901  1.2138 -0.0348 -3.4314
  129MOL0     H17400   9.110   5.014   2.699 -0.0256  0.9913  1.3410
  129MOL0     H17401   8.498   5.735   3.176  1.0162  2.8764 -1.0093
  129MOL0     H17402   8.677   5.707   3.352  2.3598 -3.5751  1.4689
  129MOL0     H17403   9.170   5.501   3.386 -1.3209 -2.2458  1.2768
  129MOL0     H17404   9.325   5.455   3.574 -2.0267 -0.7831 -2.1002
  129MOL0     H17405   9.237   5.409   3.812 -1.0460  0.0834  0.2944
  129MOL0     H17406   9.414   5.421   3.835 -0.1299  0.0113 -2.3304
  129MOL0     H17407   9.275   5.398   4.045 -1.9254  1.0611  1.5062
  129MOL0     H17408   9.196   5.552   4.005 -1.0407 -0.3720  5.0621
  129MOL0     H17409   9.349   5.622   4.153 -0.9973 -1.8104  0.7972
  129MOL0     H17410   9.442   5.668   4.020 -3.1230  2.8733  2.9023
  129MOL0     H17411   9.571   5.439   4.019  1.9611  2.6915 -1.5411
  129MOL0     H17412   9.492   5.388   4.154 -1.4360  0.1509 -0.3132
  129MOL0     H17413   9.792   5.622   4.330  0.2644 -2.1131  0.4304
  129MOL0     H17414   9.163   5.824   3.779 -3.5243  1.6032 -1.7654
  129MOL0     H17415   9.022   5.853   3.576  0.0023  0.3806 -1.8452
  130MOL0     O17416  10.179   9.370   4.123  0.9852 -0.1702 -0.3250
  130MOL0     C17417  10.104   9.456   4.073 -0.2407 -0.1985  0.3923
  130MOL0     O17418  10.042   9.446   3.955 -0.3421 -0.5321 -0.3668
  130MOL0     C17419  10.032   9.332   3.871 -0.7328  0.2304 -0.1570
  130MOL0     C17420   9.928   9.306   3.786  0.4608  0.3611 -0.3139
  130MOL0     C17421   9.925   9.194   3.701 -0.2000 -0.3125  0.0136
  130MOL0     C17422  10.031   9.106   3.690  0.1684  0.6906  0.5697
  130MOL0     O17423  10.035   8.991   3.625 -0.1089  0.7163 -0.5181
  130MOL0     C17424   9.936   8.963   3.524  0.3473  0.3193 -0.8674
  130MOL0     C17425   9.961   8.828   3.466  0.7950 -0.6013  0.7058
  130MOL0     C17426   9.862   8.806   3.348 -0.5287 -0.0445 -0.2347
  130MOL0     C17427   9.814   8.660   3.324  0.3438  0.0062  0.0334
  130MOL0     C17428   9.728   8.659   3.193 -0.2181 -0.5563 -0.4639
  130MOL0     C17429   9.660   8.521   3.164 -0.1427  0.2644  1.3170
  130MOL0     C17430   9.591   8.522   3.029  0.4861  0.1757  0.7095
  130MOL0     C17431   9.520   8.390   2.992 -1.0400 -0.1986 -0.0848
  130MOL0     N17432   9.380   8.382   3.038  0.3820  0.2175 -0.0837
  130MOL0     C17433   9.281   8.475   3.000 -0.5591  0.3530 -0.2656
  130MOL0     C17434   9.167   8.414   3.037  0.8125 -0.2987  0.5985
  130MOL0     C17435   9.026   8.441   2.983  0.6533  1.3488  0.4484
  130MOL0     C17436   8.975   8.575   3.030  0.3316 -0.1546 -0.3453
  130MOL0     C17437   8.822   8.564   3.039  0.0996  0.5797  0.1305
  130MOL0     C17438   8.770   8.700   3.078  0.6688  0.2322  0.2895
  130MOL0     O17439   8.627   8.683   3.094 -0.5926 -0.2437 -0.8532
  130MOL0     C17440   8.554   8.804   3.130 -0.5310  0.5781 -0.0495
  130MOL0     C17441   8.431   8.777   3.186 -0.5034 -0.4743  0.8425
  130MOL0     C17442   8.327   8.873   3.193  0.4140 -0.6741 -0.1190
  130MOL0     C17443   8.182   8.823   3.234 -0.2644  0.7578 -0.1050
  130MOL0     C17444   8.360   9.007   3.150 -0.0789  0.8093  0.3472
  130MOL0     C17445   8.252   9.112   3.134 -0.1474  0.0375  0.1588
  130MOL0     O17446   8.123   9.084   3.171  0.4844 -0.4994  0.7522
  130MOL0     C17447   8.028   9.173   3.134  0.1137 -0.3355 -0.2408
  130MOL0     C17448   7.933   9.140   3.038 -0.4236  0.0006 -0.0530
  130MOL0     C17449   7.813   9.215   3.013  0.8143 -0.4930  0.2303
  130MOL0     C17450   7.799   9.340   3.066 -0.2976 -0.5068 -0.3347
  130MOL0     O17451   7.689   9.407   3.026  0.5816  0.3761  0.0272
  130MOL0     C17452   7.676   9.545   3.050 -0.0767  0.9027  0.7116
  130MOL0     C17453   7.534   9.590   3.025 -0.7286 -0.7603  0.5254
  130MOL0     C17454   7.421   9.505   3.079 -0.7934 -0.2338 -0.2086
  130MOL0     C17455   7.363   9.403   2.975 -0.1388 -0.0403  0.2096
  130MOL0     C17456   7.218   9.347   3.002 -0.5600  0.0299  0.6572
  130MOL0     C17457   7.204   9.288   3.142 -0.7706 -0.1600  0.0574
  130MOL0     C17458   7.280   9.157   3.150  0.4407  0.0727  0.1695
  130MOL0     C17459   7.230   9.080   3.270 -0.0585  0.5940 -0.0033
  130MOL0    Cl17460   7.094   8.974   3.214 -0.2391 -0.1917 -0.1119
  130MOL0     C17461   7.896   9.380   3.165  0.7130  0.2123 -0.4012
  130MOL0     C17462   8.008   9.296   3.202  1.0229 -1.0626 -0.1271
  130MOL0     O17463   8.276   9.213   3.065 -0.3177  0.2265  0.3980
  130MOL0     C17464   8.494   9.031   3.107 -0.3028 -0.0083 -0.2970
  130MOL0     C17465   8.597   8.930   3.093  0.5038 -0.3195 -0.3676
  130MOL0     N17466   9.206   8.314   3.133  0.4554 -0.5216 -0.9991
  130MOL0     N17467   9.327   8.292   3.126  0.1149 -0.4089 -0.6163
  130MOL0     C17468  10.141   9.134   3.763 -0.1436  0.1935 -0.1419
  130MOL0     C17469  10.143   9.249   3.851  0.2044  0.4406  0.1757
  130MOL0     C17470  10.062   9.565   4.154 -0.7986 -0.0878  0.1003
  130MOL0     C17471   9.992   9.670   4.091  0.1400  0.1216 -0.5653
  130MOL0     C17472   9.958   9.780   4.168  0.2882 -0.4633 -0.9016
  130MOL0     C17473   9.981   9.789   4.305  0.3500  0.3812 -0.5835
  130MOL0     O17474   9.962   9.902   4.381 -0.2228 -0.0840 -0.0686
  130MOL0     C17475   9.982  10.026   4.322  0.2316  0.6429 -0.6043
  130MOL0     C17476  10.007  10.124   4.435 -0.4158 -0.1623  0.2941
  130MOL0     C17477  10.127  10.077   4.524 -0.2353 -0.7551 -1.2838
  130MOL0     C17478  10.093   9.972   4.637 -1.2699  0.2768 -0.3626
  130MOL0     C17479  10.067  10.047   4.760  0.2591 -0.1913  0.0870
  130MOL0     C17480  10.059  10.118   4.856  0.0104  0.1244 -0.8976
  130MOL0     C17481  10.053   9.688   4.370  1.5221  1.0410  0.3169
  130MOL0     C17482  10.101   9.581   4.289  0.4258 -0.1466  0.2260
  130MOL0     H17483   9.841   9.371   3.781 -0.3298 -0.4171  2.0728
  130MOL0     H17484   9.833   9.196   3.642  1.7909 -0.8038 -3.3623
  130MOL0     H17485   9.835   8.980   3.562  0.7145  4.3918 -1.1840
  130MOL0     H17486   9.954   9.038   3.446 -1.1337  1.5536 -0.0915
  130MOL0     H17487  10.059   8.817   3.418 -0.4811  3.3637 -3.5046
  130MOL0     H17488   9.941   8.741   3.529  2.0494 -2.5299 -1.4270
  130MOL0     H17489   9.769   8.861   3.363 -2.6666 -2.6099 -2.8731
  130MOL0     H17490   9.914   8.836   3.257 -1.1927  0.6536 -0.3945
  130MOL0     H17491   9.901   8.594   3.318 -0.6943 -1.8395  2.9971
  130MOL0     H17492   9.749   8.624   3.405 -0.8093 -1.3344 -1.4285
  130MOL0     H17493   9.658   8.743   3.189  2.3462  1.6654 -2.3479
  130MOL0     H17494   9.806   8.675   3.118  1.7054 -1.7232  1.1648
  130MOL0     H17495   9.739   8.446   3.157  0.7238  1.2425  0.3438
  130MOL0     H17496   9.589   8.498   3.244 -2.9824 -0.6725 -1.2455
  130MOL0     H17497   9.508   8.593   3.039 -1.2326 -1.7681  0.9714
  130MOL0     H17498   9.656   8.544   2.945 -3.0956  0.4845 -2.2291
  130MOL0     H17499   9.571   8.308   3.043  0.0171  1.2632  1.3160
  130MOL0     H17500   9.515   8.372   2.884  1.9195  2.9548 -0.9076
  130MOL0     H17501   9.290   8.563   2.937  3.1977  1.0957  1.0504
  130MOL0     H17502   9.046   8.434   2.875  0.5660 -3.6192  0.5301
  130MOL0     H17503   8.961   8.359   3.013  0.9850  1.4689  1.5104
  130MOL0     H17504   8.995   8.659   2.963  1.3006  1.2225  1.5708
  130MOL0     H17505   9.014   8.592   3.131  1.0244  0.8543 -0.7632
  130MOL0     H17506   8.788   8.497   3.118 -3.3167  0.2989 -1.4019
  130MOL0     H17507   8.785   8.538   2.939 -0.5207 -1.6618  0.8873
  130MOL0     H17508   8.790   8.784   3.010 -0.1968 -0.3017 -0.6511
  130MOL0     H17509   8.827   8.721   3.169  1.7693  0.5309 -0.4374
  130MOL0     H17510   8.405   8.675   3.213 -0.1198 -1.1174 -1.1081
  130MOL0     H17511   8.185   8.721   3.271  4.1582  1.0144  0.8138
  130MOL0     H17512   8.148   8.889   3.314  1.2012 -1.0162  2.0844
  130MOL0     H17513   8.110   8.837   3.153  2.7303  1.3269 -2.9101
  130MOL0     H17514   7.945   9.049   2.980  1.0989  1.3171 -1.9146
  130MOL0     H17515   7.726   9.171   2.965 -0.4391  2.5280 -0.4903
  130MOL0     H17516   7.696   9.571   3.155  1.0500  2.0902  0.2331
  130MOL0     H17517   7.746   9.601   2.987 -0.4629  2.3394  1.5164
  130MOL0     H17518   7.525   9.694   3.058 -0.2653 -0.6178  0.2079
  130MOL0     H17519   7.509   9.604   2.919 -1.3839 -3.2304  0.2949
  130MOL0     H17520   7.344   9.582   3.084  1.4448  2.0693  0.5833
  130MOL0     H17521   7.451   9.462   3.176 -0.8837 -0.0141 -0.0833
  130MOL0     H17522   7.359   9.458   2.881 -1.5278  0.1457  0.3572
  130MOL0     H17523   7.422   9.311   2.974  0.2111  0.1427  1.5215
  130MOL0     H17524   7.195   9.273   2.925  5.3265 -5.0069  2.8622
  130MOL0     H17525   7.149   9.432   2.991 -1.6567 -1.1741 -2.9758
  130MOL0     H17526   7.246   9.358   3.215 -2.1655 -1.4562  2.2201
  130MOL0     H17527   7.102   9.279   3.180 -1.0413  1.5245 -0.2112
  130MOL0     H17528   7.379   9.187   3.186  1.7212 -0.1692 -2.8113
  130MOL0     H17529   7.281   9.094   3.060 -3.2542  1.6439 -1.1749
  130MOL0     H17530   7.195   9.159   3.337 -0.1843  2.9906 -2.7029
  130MOL0     H17531   7.309   9.026   3.322 -0.1544 -0.4583 -0.9138
  130MOL0     H17532   7.886   9.473   3.221  0.0461 -0.1069  0.0156
  130MOL0     H17533   8.080   9.302   3.283  0.4479 -2.1473  0.4876
  130MOL0     H17534   8.520   9.131   3.074  0.2237 -1.2764 -4.1376
  130MOL0     H17535   8.685   8.963   3.038 -0.0067  1.9252  0.0564
  130MOL0     H17536  10.222   9.061   3.759 -2.9947 -3.1488 -2.1385
  130MOL0     H17537  10.241   9.268   3.893  0.9602 -3.7264  0.7259
  130MOL0     H17538   9.975   9.662   3.984  0.0084 -0.5988 -0.4983
  130MOL0     H17539   9.907   9.870   4.134  2.7237  1.4624  0.2248
  130MOL0     H17540  10.070  10.042   4.259  1.5144  0.1850  1.0080
  130MOL0     H17541   9.891  10.051   4.265  1.2645  0.5386 -2.3934
  130MOL0     H17542   9.910  10.121   4.485 -0.8869 -2.3047 -0.6040
  130MOL0     H17543  10.019  10.224   4.393 -1.6835 -0.3369 -0.5340
  130MOL0     H17544  10.161  10.175   4.557 -1.7842 -0.2585 -1.0654
  130MOL0     H17545  10.204  10.036   4.457  1.3778 -2.3308  1.3627
  130MOL0     H17546  10.177   9.903   4.647 -1.3840  0.2432  0.4182
  130MOL0     H17547  10.016   9.898   4.614  0.0777 -1.5258  0.6500
  130MOL0     H17548  10.043  10.171   4.948 -1.0346 -1.6844  0.0436
  130MOL0     H17549  10.082   9.698   4.474  2.9372 -0.4439  0.1105
  130MOL0     H17550  10.160   9.497   4.323 -0.1387 -0.2870  0.8939
  131MOL0     O17551   0.401   8.363   0.728 -0.5119  0.0345 -0.4340
  131MOL0     C17552   0.469   8.454   0.707  0.3160 -0.5966 -0.5902
  131MOL0     O17553   0.537   8.524   0.809  0.3768  0.1982 -0.0699
  131MOL0     C17554   0.539   8.472   0.935 -0.1984 -0.2713 -0.1778
  131MOL0     C17555   0.667   8.461   0.991  0.0563 -0.1970 -0.0436
  131MOL0     C17556   0.679   8.427   1.130  0.9918  0.4729  0.6977
  131MOL0     C17557   0.566   8.415   1.209 -0.1397  0.1495  0.9796
  131MOL0     O17558   0.580   8.393   1.340  0.2342  0.7172  0.3625
  131MOL0     C17559   0.611   8.501   1.425 -0.4315  0.2315 -0.0804
  131MOL0     C17560   0.487   8.585   1.449  0.5068  0.1327  0.3429
  131MOL0     C17561   0.369   8.514   1.525 -0.2840 -0.2123  0.2253
  131MOL0     C17562   0.233   8.585   1.510  0.0376  0.4032 -0.0528
  131MOL0     C17563   0.232   8.722   1.596 -0.0480 -0.7253  0.5261
  131MOL0     C17564   0.105   8.808   1.578  0.2690  0.5250 -0.1772
  131MOL0     C17565  -0.030   8.745   1.615 -0.6196 -0.3792 -0.0420
  131MOL0     C17566  -0.154   8.835   1.575  0.7466 -0.0847  0.1751
  131MOL0     N17567  -0.222   8.816   1.442  0.2688 -0.7891  0.1915
  131MOL0     C17568  -0.185   8.866   1.323  0.0726  0.3233 -0.7938
  131MOL0     C17569  -0.264   8.802   1.231  0.6949  0.0619  1.0371
  131MOL0     C17570  -0.285   8.824   1.081 -0.5447  0.3132 -0.0685
  131MOL0     C17571  -0.198   8.943   1.022  0.6607  0.0764 -0.4688
  131MOL0     C17572  -0.045   8.928   1.003  0.1624 -0.1524  1.1985
  131MOL0     C17573   0.032   9.057   0.963 -0.1399  0.2585  0.9877
  131MOL0     O17574  -0.002   9.167   1.049 -0.0866  0.0907  0.0486
  131MOL0     C17575   0.043   9.173   1.177  0.2565 -0.6590  0.5028
  131MOL0     C17576   0.002   9.295   1.236  0.0906  0.5170  1.1309
  131MOL0     C17577   0.051   9.334   1.367  0.7223  0.2406 -0.8496
  131MOL0     C17578  -0.024   9.452   1.423  0.1374  1.0670  0.1903
  131MOL0     C17579   0.146   9.248   1.426 -0.6727  0.4287 -0.1351
  131MOL0     C17580   0.216   9.276   1.559  0.5266 -0.4764  0.7086
  131MOL0     O17581   0.342   9.240   1.566 -0.7910 -0.6598 -0.0786
  131MOL0     C17582   0.428   9.281   1.660 -0.5025 -0.6502  0.6857
  131MOL0     C17583   0.545   9.208   1.665 -0.5861  0.5722 -0.2444
  131MOL0     C17584   0.644   9.240   1.755 -0.9006 -1.1694  0.1525
  131MOL0     C17585   0.639   9.343   1.847  0.7164  0.5879  0.1745
  131MOL0     O17586   0.740   9.373   1.939 -0.3684 -0.4318  0.2191
  131MOL0     C17587   0.700   9.413   2.069  0.8857 -0.3096 -0.0903
  131MOL0     C17588   0.727   9.565   2.097 -0.0725 -0.1721 -0.1691
  131MOL0     C17589   0.870   9.597   2.138 -0.3731  0.4246  0.2144
  131MOL0     C17590   0.884   9.751   2.146  0.3906  0.0466 -0.3016
  131MOL0     C17591   1.032   9.784   2.184  0.5759 -0.1865  0.1597
  131MOL0     C17592   1.046   9.923   2.251 -0.7620 -0.0701  0.8547
  131MOL0     C17593   0.983   9.935   2.394 -0.0766 -0.1811  0.5862
  131MOL0     C17594   1.060  10.038   2.479 -0.5330 -0.5876 -0.7341
  131MOL0    Cl17595   1.155   9.944   2.599  0.2777 -0.2918 -0.0404
  131MOL0     C17596   0.516   9.420   1.837  0.3509 -0.5692 -1.2344
  131MOL0     C17597   0.411   9.387   1.749 -0.6030  0.5010 -0.9681
  131MOL0     O17598   0.150   9.329   1.656 -0.1395 -0.0232 -0.0540
  131MOL0     C17599   0.179   9.130   1.364  0.1653  0.4479 -0.7288
  131MOL0     C17600   0.139   9.092   1.241 -0.3123  0.3316 -0.3993
  131MOL0     N17601  -0.353   8.721   1.299  1.0408 -0.5914 -0.3438
  131MOL0     N17602  -0.332   8.742   1.429  0.1233 -0.3372 -0.7783
  131MOL0     C17603   0.442   8.428   1.155 -0.5068  0.6121  0.4880
  131MOL0     C17604   0.431   8.457   1.024  0.4022  0.5327  0.2325
  131MOL0     C17605   0.476   8.514   0.566  0.5328 -0.5680  0.5805
  131MOL0     C17606   0.577   8.599   0.518 -0.1814  0.2969 -0.1148
  131MOL0     C17607   0.580   8.626   0.382 -0.1139  0.5499 -0.3229
  131MOL0     C17608   0.466   8.594   0.299  0.2123  0.7623  0.0385
  131MOL0     O17609   0.430   8.626   0.164 -0.4190  0.4411 -0.2283
  131MOL0     C17610   0.528   8.704   0.095  0.7434 -0.2454  1.0625
  131MOL0     C17611   0.495   8.710  -0.053 -0.8103  0.3206  0.6170
  131MOL0     C17612   0.515   8.586  -0.137 -0.2275 -0.8392  0.0716
  131MOL0     C17613   0.445   8.595  -0.272 -0.7545 -0.7113 -0.4328
  131MOL0     C17614   0.488   8.490  -0.364  0.0117  0.2734 -0.0286
  131MOL0     C17615   0.530   8.414  -0.452  0.0807 -0.6624  0.3506
  131MOL0     C17616   0.363   8.513   0.349 -0.5109 -0.3059 -0.5600
  131MOL0     C17617   0.367   8.480   0.481 -0.1042 -0.1415  0.3695
  131MOL0     H17618   0.753   8.480   0.927 -0.3697  3.4131  0.2406
  131MOL0     H17619   0.777   8.410   1.174  0.3387  0.8205  2.3247
  131MOL0     H17620   0.658   8.474   1.520  0.4103  3.2730  0.4765
  131MOL0     H17621   0.687   8.562   1.376  1.1582 -0.5702  1.2607
  131MOL0     H17622   0.530   8.656   1.520  2.0159  0.1617 -0.5446
  131MOL0     H17623   0.456   8.632   1.355 -2.4529  1.2158  1.7493
  131MOL0     H17624   0.360   8.413   1.482 -1.9656 -0.2222  0.5391
  131MOL0     H17625   0.417   8.516   1.623  3.1516  0.9706 -1.3374
  131MOL0     H17626   0.226   8.614   1.405  0.7595  0.0622 -0.1933
  131MOL0     H17627   0.157   8.519   1.553  1.4420 -1.2435 -0.0069
  131MOL0     H17628   0.246   8.704   1.703  1.0579  3.7415  1.3294
  131MOL0     H17629   0.322   8.772   1.560 -0.1980 -0.0541  1.0492
  131MOL0     H17630   0.119   8.894   1.645  0.4620  1.5824 -1.5385
  131MOL0     H17631   0.095   8.835   1.473 -4.4294 -1.3830 -0.4573
  131MOL0     H17632  -0.039   8.655   1.553  0.8646 -0.5563 -0.0389
  131MOL0     H17633  -0.029   8.721   1.722  0.8876  0.9346  0.2794
  131MOL0     H17634  -0.131   8.942   1.581  1.7405 -0.2472 -0.4692
  131MOL0     H17635  -0.239   8.821   1.642  0.6576  0.9593  0.2896
  131MOL0     H17636  -0.102   8.933   1.299 -2.3624  3.0402 -2.2551
  131MOL0     H17637  -0.275   8.731   1.025 -1.1680  1.8040 -2.8541
  131MOL0     H17638  -0.390   8.852   1.065 -0.1334  0.4452 -3.2345
  131MOL0     H17639  -0.224   9.032   1.080 -1.7449 -1.8242  1.5459
  131MOL0     H17640  -0.234   8.970   0.922  3.6478  1.9160 -1.2156
  131MOL0     H17641  -0.027   8.844   0.936  0.3481 -1.2270  2.5346
  131MOL0     H17642  -0.008   8.891   1.099  0.9549 -1.6537  0.3447
  131MOL0     H17643  -0.001   9.092   0.864  1.5229  1.2272  0.7356
  131MOL0     H17644   0.139   9.039   0.965 -0.2137 -0.1755  1.0152
  131MOL0     H17645  -0.057   9.362   1.174  0.7895 -0.8732 -1.1688
  131MOL0     H17646  -0.125   9.425   1.453 -0.6581 -0.1652 -3.1466
  131MOL0     H17647   0.029   9.500   1.506 -2.5783  0.9627  2.0903
  131MOL0     H17648  -0.041   9.525   1.343 -2.7230  0.0642 -0.2217
  131MOL0     H17649   0.566   9.131   1.591  3.1333  1.5209 -0.3654
  131MOL0     H17650   0.729   9.174   1.768 -1.4042 -1.8026  0.2809
  131MOL0     H17651   0.595   9.396   2.091  1.1392 -0.0955  1.4119
  131MOL0     H17652   0.755   9.347   2.136  0.6481 -0.2815  0.1321
  131MOL0     H17653   0.700   9.627   2.012 -0.8496  0.9114  0.8297
  131MOL0     H17654   0.663   9.602   2.178  1.0479 -1.1668  1.2388
  131MOL0     H17655   0.944   9.551   2.072  1.7901 -1.4728  3.6614
  131MOL0     H17656   0.885   9.544   2.233 -1.2781 -0.8889 -0.3379
  131MOL0     H17657   0.858   9.804   2.054 -0.6254  2.4640  1.2737
  131MOL0     H17658   0.819   9.794   2.223  3.5261  3.2795  0.8337
  131MOL0     H17659   1.091   9.796   2.093  1.8757  0.2913  1.0299
  131MOL0     H17660   1.083   9.703   2.237  0.8043 -1.2587 -1.6222
  131MOL0     H17661   1.149   9.960   2.256 -0.8214  0.0044  1.7847
  131MOL0     H17662   0.997   9.993   2.182  0.7197  2.2202  2.0038
  131MOL0     H17663   0.978   9.838   2.446  0.5661 -0.3721  0.3073
  131MOL0     H17664   0.887   9.987   2.391 -0.5069 -0.9854 -0.1444
  131MOL0     H17665   0.998  10.108   2.535  1.9411 -0.1338  1.6869
  131MOL0     H17666   1.127  10.103   2.421  0.7154 -0.4058  0.8077
  131MOL0     H17667   0.494   9.497   1.910  0.2404 -2.9968  1.4722
  131MOL0     H17668   0.328   9.457   1.743 -0.0750  1.3287  0.7802
  131MOL0     H17669   0.255   9.061   1.398  1.4163  1.9949 -0.2397
  131MOL0     H17670   0.181   9.008   1.187 -0.1412  1.0564 -1.4273
  131MOL0     H17671   0.359   8.418   1.225  0.7420  0.4302  1.9945
  131MOL0     H17672   0.329   8.466   0.988  0.6966 -1.5609 -1.3583
  131MOL0     H17673   0.662   8.637   0.575  0.0894  1.2103 -1.1003
  131MOL0     H17674   0.660   8.691   0.347  1.4251 -1.5260 -0.8138
  131MOL0     H17675   0.541   8.810   0.121 -0.6757  1.6348 -4.4290
  131MOL0     H17676   0.625   8.654   0.087  2.2609  2.2714  2.2174
  131MOL0     H17677   0.553   8.792  -0.097  1.0505  0.0943  2.5156
  131MOL0     H17678   0.392   8.740  -0.073 -1.1814 -0.5340  1.2005
  131MOL0     H17679   0.472   8.508  -0.073  1.5575 -0.2780  2.1177
  131MOL0     H17680   0.623   8.574  -0.149 -0.5885 -4.8424 -0.6279
  131MOL0     H17681   0.464   8.695  -0.311 -3.0365 -0.4023 -0.9167
  131MOL0     H17682   0.337   8.594  -0.255 -0.5716  1.1369  1.2444
  131MOL0     H17683   0.553   8.364  -0.544  3.6369  1.1332  0.0663
  131MOL0     H17684   0.280   8.489   0.284 -1.9828  0.6808  0.8714
  131MOL0     H17685   0.293   8.411   0.519  0.7166 -1.7406 -0.8362
  132MOL0     O17686   8.264  10.318   2.831 -0.0069  0.0672 -0.6559
  132MOL0     C17687   8.153  10.272   2.871  0.2925  0.4193  0.2237
  132MOL0     O17688   8.135  10.194   2.984 -1.1939  0.9559 -0.4997
  132MOL0     C17689   8.236  10.157   3.070 -0.8021  0.3995 -0.4621
  132MOL0     C17690   8.214  10.158   3.210  0.5301 -0.1739 -0.2626
  132MOL0     C17691   8.305  10.132   3.305  0.1645 -0.1016  0.2948
  132MOL0     C17692   8.436  10.095   3.270 -0.5019  0.2189 -0.1703
  132MOL0     O17693   8.531  10.055   3.368  0.0780  0.5524  0.2174
  132MOL0     C17694   8.503   9.959   3.473  0.1180 -0.1942  0.2156
  132MOL0     C17695   8.446   9.821   3.437 -0.1406 -0.5027 -0.0895
  132MOL0     C17696   8.506   9.737   3.323  0.4600 -0.6201  0.6645
  132MOL0     C17697   8.475   9.588   3.340 -0.4101  0.2151 -0.3254
  132MOL0     C17698   8.560   9.502   3.254 -0.3734  0.2522  0.1103
  132MOL0     C17699   8.543   9.346   3.262  0.6707 -0.2781 -0.8060
  132MOL0     C17700   8.578   9.308   3.410  0.0064  0.2926 -0.8365
  132MOL0     C17701   8.614   9.157   3.434  0.1204 -0.6236  0.3560
  132MOL0     N17702   8.755   9.135   3.409 -0.1867  0.2238 -0.7935
  132MOL0     C17703   8.872   9.172   3.483 -0.8446 -1.0777  0.8376
  132MOL0     C17704   8.969   9.104   3.420 -0.9675  0.6021  0.0680
  132MOL0     C17705   9.118   9.113   3.447  0.1901 -0.0092  0.1202
  132MOL0     C17706   9.178   9.074   3.594 -0.0701  1.2932  0.9663
  132MOL0     C17707   9.152   9.184   3.694  0.1961  0.6054 -0.2926
  132MOL0     C17708   9.226   9.315   3.680  0.5634  0.1956 -0.5224
  132MOL0     O17709   9.177   9.394   3.794  0.2595 -0.0998 -0.1842
  132MOL0     C17710   9.189   9.528   3.787 -1.6146  0.0579 -0.5081
  132MOL0     C17711   9.135   9.591   3.897 -0.1193 -0.3559 -0.2317
  132MOL0     C17712   9.143   9.736   3.912  1.2647 -0.2605  0.7795
  132MOL0     C17713   9.081   9.795   4.035 -0.2297  0.8519 -0.4756
  132MOL0     C17714   9.202   9.822   3.807 -0.5432  0.2800 -0.1517
  132MOL0     C17715   9.211   9.967   3.817  0.6733 -0.1445 -0.7858
  132MOL0     O17716   9.263  10.038   3.713 -0.7198  0.3817  0.4898
  132MOL0     C17717   9.267  10.174   3.731  0.4529  0.7637 -0.7026
  132MOL0     C17718   9.181  10.257   3.665  0.1611 -0.1438 -0.1413
  132MOL0     C17719   9.196  10.395   3.657 -0.2376  0.6239  0.1738
  132MOL0     C17720   9.323  10.447   3.699  0.7848 -0.1749 -0.4076
  132MOL0     O17721   9.364  10.579   3.691  0.6950 -0.8462  0.0434
  132MOL0     C17722   9.268  10.683   3.678  0.6829  0.2459 -0.8188
  132MOL0     C17723   9.322  10.809   3.743  0.3322  0.3461  0.0304
  132MOL0     C17724   9.418  10.889   3.654 -0.6429  0.3701 -0.6137
  132MOL0     C17725   9.436  11.026   3.712 -0.0903 -0.2636 -0.3392
  132MOL0     C17726   9.544  11.125   3.639  0.9484  0.9048  0.3109
  132MOL0     C17727   9.509  11.147   3.497  0.7703 -0.0959 -0.1901
  132MOL0     C17728   9.619  11.228   3.420  0.2024  0.4666 -0.3591
  132MOL0     C17729   9.577  11.363   3.372 -0.4305 -0.1416 -1.1563
  132MOL0    Cl17730   9.568  11.464   3.515 -0.5396 -0.4641  0.5731
  132MOL0     C17731   9.419  10.364   3.757 -0.2480  0.0303  1.0902
  132MOL0     C17732   9.385  10.225   3.778  0.4353  0.4323  0.6127
  132MOL0     O17733   9.172  10.022   3.921  0.1926  0.1728 -0.4298
  132MOL0     C17734   9.256   9.751   3.701 -0.0541 -0.2076 -0.4705
  132MOL0     C17735   9.254   9.605   3.691  0.0173  0.0365  0.7360
  132MOL0     N17736   8.920   9.021   3.319 -0.4827 -0.3642 -0.8132
  132MOL0     N17737   8.789   9.049   3.312  0.5810 -0.3778  0.4804
  132MOL0     C17738   8.465  10.086   3.139  0.0481 -0.1243  0.3599
  132MOL0     C17739   8.368  10.121   3.043  1.0687  0.3288  0.8204
  132MOL0     C17740   8.037  10.299   2.796  0.0416  1.3874 -0.0950
  132MOL0     C17741   7.917  10.227   2.808 -0.3941 -0.3620  0.0608
  132MOL0     C17742   7.804  10.258   2.727  0.5082  0.1951 -0.5242
  132MOL0     C17743   7.813  10.356   2.619 -0.0064 -0.8768 -0.2002
  132MOL0     O17744   7.720  10.400   2.521 -0.4432 -0.4533  0.1759
  132MOL0     C17745   7.595  10.323   2.531  0.6361  0.0301  0.5555
  132MOL0     C17746   7.497  10.394   2.619  0.3064  0.2831 -0.0780
  132MOL0     C17747   7.399  10.476   2.534  0.4575  0.2762 -0.4944
  132MOL0     C17748   7.290  10.520   2.632  0.5319 -0.1284 -0.3605
  132MOL0     C17749   7.207  10.631   2.591 -0.0735 -0.1000 -1.2757
  132MOL0     C17750   7.130  10.725   2.577 -1.0124 -0.4622 -0.6916
  132MOL0     C17751   7.944  10.405   2.599 -0.0505  0.2765  0.2045
  132MOL0     C17752   8.052  10.370   2.682 -0.0040  0.0334  0.3212
  132MOL0     H17753   8.119  10.197   3.248  1.2969  2.4491 -0.8360
  132MOL0     H17754   8.271  10.141   3.408  1.2652  0.7991  0.5897
  132MOL0     H17755   8.603   9.941   3.512  0.0825 -0.8663  0.0248
  132MOL0     H17756   8.427   9.998   3.541 -2.0454  0.7143 -2.5207
  132MOL0     H17757   8.437   9.767   3.531 -1.4460  2.1169  1.3780
  132MOL0     H17758   8.343   9.845   3.410  0.2860  0.1228 -1.2766
  132MOL0     H17759   8.461   9.772   3.230  0.2502  2.6897  1.9007
  132MOL0     H17760   8.615   9.753   3.322  0.6653 -1.8962 -1.0125
  132MOL0     H17761   8.484   9.567   3.447 -1.5407 -0.3261 -0.3205
  132MOL0     H17762   8.372   9.559   3.316  0.2438 -1.7734 -0.9735
  132MOL0     H17763   8.537   9.532   3.151  1.5716  1.2588 -0.0926
  132MOL0     H17764   8.667   9.519   3.268  0.6498 -0.6535 -4.6183
  132MOL0     H17765   8.438   9.315   3.257  0.5077 -0.0710  0.9693
  132MOL0     H17766   8.610   9.296   3.191  0.8206  0.6731 -1.3564
  132MOL0     H17767   8.666   9.358   3.453  0.3877 -1.2585  0.2504
  132MOL0     H17768   8.489   9.320   3.471 -0.3071 -0.7447 -1.0681
  132MOL0     H17769   8.551   9.091   3.373  1.6281  0.3860 -2.5039
  132MOL0     H17770   8.593   9.111   3.531 -1.9111  0.4321  0.4712
  132MOL0     H17771   8.871   9.242   3.567  0.8090 -0.5474  0.4546
  132MOL0     H17772   9.153   9.060   3.358 -1.1920  0.7782 -0.9273
  132MOL0     H17773   9.153   9.212   3.417 -1.2656 -0.2516 -2.6956
  132MOL0     H17774   9.285   9.056   3.589  0.0223 -1.9010  6.4509
  132MOL0     H17775   9.147   8.976   3.632  0.4823  0.1000 -1.4903
  132MOL0     H17776   9.197   9.156   3.790  0.2150  4.2018  0.9015
  132MOL0     H17777   9.044   9.200   3.700 -0.5825 -3.3241 -1.2147
  132MOL0     H17778   9.197   9.374   3.592 -1.8684  2.6166  1.7107
  132MOL0     H17779   9.334   9.299   3.673  0.6614  1.3077 -2.3722
  132MOL0     H17780   9.095   9.528   3.976  1.0774 -1.5557 -0.5441
  132MOL0     H17781   9.004   9.871   4.020  0.1418  1.2820 -0.2407
  132MOL0     H17782   9.022   9.714   4.080 -0.9835  1.0554 -1.0864
  132MOL0     H17783   9.156   9.835   4.103  0.2550  2.1150 -1.7166
  132MOL0     H17784   9.097  10.201   3.624  0.2604 -2.0376  2.0298
  132MOL0     H17785   9.115  10.455   3.617 -0.2449  0.3344 -0.2546
  132MOL0     H17786   9.244  10.701   3.573  1.8683 -0.4936 -1.2426
  132MOL0     H17787   9.170  10.665   3.722 -0.2574  4.4401 -0.8209
  132MOL0     H17788   9.233  10.867   3.769 -1.1498 -1.7983 -0.0508
  132MOL0     H17789   9.381  10.776   3.829 -0.4685 -2.0317 -0.2503
  132MOL0     H17790   9.357  10.892   3.563 -1.1099 -4.6193 -0.7546
  132MOL0     H17791   9.510  10.832   3.645 -2.0512 -2.4608  1.4324
  132MOL0     H17792   9.336  11.068   3.704 -0.0801 -0.1847 -0.0355
  132MOL0     H17793   9.471  11.011   3.814 -0.7905 -2.0939 -0.3323
  132MOL0     H17794   9.639  11.073   3.654  2.2691  3.3077  0.9074
  132MOL0     H17795   9.544  11.218   3.697 -2.0814  1.2554 -0.0685
  132MOL0     H17796   9.476  11.059   3.442 -1.1846  1.1095 -1.0330
  132MOL0     H17797   9.421  11.212   3.500 -0.0613 -1.2125  1.2108
  132MOL0     H17798   9.640  11.174   3.327  1.7045 -1.2746  0.9260
  132MOL0     H17799   9.714  11.222   3.475  0.5074 -0.5502 -0.9657
  132MOL0     H17800   9.479  11.356   3.324 -0.4698 -1.6987 -0.9002
  132MOL0     H17801   9.649  11.399   3.299 -0.3520  1.7250 -0.2225
  132MOL0     H17802   9.518  10.403   3.779  1.0360 -2.7740  0.6867
  132MOL0     H17803   9.458  10.153   3.813 -1.5371 -0.6889  2.7105
  132MOL0     H17804   9.316   9.794   3.621  0.7127 -2.4145 -1.1505
  132MOL0     H17805   9.291   9.559   3.599 -1.1679  2.4103 -1.0161
  132MOL0     H17806   8.563  10.064   3.098 -0.3216 -2.0461  0.3813
  132MOL0     H17807   8.390  10.112   2.937  0.6183  0.9436  0.6678
  132MOL0     H17808   7.915  10.141   2.874 -0.0495 -1.4830 -1.3475
  132MOL0     H17809   7.707  10.209   2.738 -0.4160  1.8687 -1.0073
  132MOL0     H17810   7.550  10.308   2.432  0.7242 -3.8590  0.9708
  132MOL0     H17811   7.626  10.224   2.565  2.9015  0.9650  1.3932
  132MOL0     H17812   7.542  10.466   2.688 -1.7212  0.3907  1.2424
  132MOL0     H17813   7.442  10.315   2.671  2.8755 -0.9668  0.9348
  132MOL0     H17814   7.352  10.421   2.452  1.5156 -1.6121  0.1076
  132MOL0     H17815   7.449  10.565   2.497  1.7375 -0.4702 -0.6159
  132MOL0     H17816   7.344  10.552   2.722  6.2879 -1.0863 -3.0105
  132MOL0     H17817   7.224  10.444   2.675  0.1814  1.3984  2.0420
  132MOL0     H17818   7.059  10.804   2.561 -2.5766 -1.8302 -0.8114
  132MOL0     H17819   7.968  10.472   2.518  1.9928  0.1436  0.6396
  132MOL0     H17820   8.147  10.418   2.663 -0.0513 -0.3888 -1.0635
  133MOL0     O17821   2.926  11.437   1.401  0.0251  0.3166  0.2440
  133MOL0     C17822   2.971  11.321   1.403 -0.0638  0.1853  0.4865
  133MOL0     O17823   3.092  11.287   1.348 -0.0855  0.3814 -0.6583
  133MOL0     C17824   3.161  11.371   1.260  0.1776  0.8263 -0.0812
  133MOL0     C17825   3.158  11.341   1.125  1.2031 -0.5861  0.9058
  133MOL0     C17826   3.235  11.421   1.039  0.5321  0.3891 -0.2789
  133MOL0     C17827   3.301  11.540   1.078 -0.5841 -0.0503  0.5779
  133MOL0     O17828   3.374  11.610   0.984 -0.2381  0.3913 -0.1418
  133MOL0     C17829   3.438  11.730   1.010 -0.1550 -0.4981 -0.8332
  133MOL0     C17830   3.512  11.793   0.890 -0.0977  1.0286 -0.2777
  133MOL0     C17831   3.658  11.775   0.907 -1.0431  0.5372 -0.0323
  133MOL0     C17832   3.723  11.872   1.013 -0.1740  0.9158  0.7575
  133MOL0     C17833   3.873  11.889   1.006 -0.0766  0.0980  0.6380
  133MOL0     C17834   3.943  11.752   1.045 -0.0756 -0.7013  0.7380
  133MOL0     C17835   4.078  11.744   0.977 -0.2065  0.4722  0.4574
  133MOL0     C17836   4.167  11.619   1.013 -0.5413 -0.1782  0.1772
  133MOL0     N17837   4.268  11.660   1.123  1.2460  0.3417 -0.5122
  133MOL0     C17838   4.256  11.729   1.242 -0.0919  0.0399 -0.6409
  133MOL0     C17839   4.364  11.706   1.317 -0.9320 -0.1387 -0.2429
  133MOL0     C17840   4.418  11.765   1.448  0.7720  0.1564 -0.5739
  133MOL0     C17841   4.302  11.804   1.540  0.3508  0.0538 -0.0190
  133MOL0     C17842   4.352  11.858   1.677  0.3612  0.0598 -0.4204
  133MOL0     C17843   4.437  11.983   1.674  0.2588 -0.3079  0.0236
  133MOL0     O17844   4.337  12.076   1.625 -0.5663  0.0316 -0.4737
  133MOL0     C17845   4.339  12.203   1.687 -0.9951 -0.4341  0.0643
  133MOL0     C17846   4.463  12.266   1.699  0.2985 -1.1161 -0.5308
  133MOL0     C17847   4.470  12.398   1.757 -0.1348  0.8735 -0.4494
  133MOL0     C17848   4.604  12.454   1.781 -0.0554  0.5535  0.6325
  133MOL0     C17849   4.351  12.466   1.797  0.6589 -0.1421 -0.2648
  133MOL0     C17850   4.346  12.605   1.848  1.3164 -0.5456  0.5082
  133MOL0     O17851   4.456  12.695   1.831  0.4288 -0.2734 -0.1142
  133MOL0     C17852   4.455  12.816   1.895 -0.7506 -0.1595 -0.0744
  133MOL0     C17853   4.464  12.931   1.816 -0.7208 -0.5698  0.5999
  133MOL0     C17854   4.462  13.060   1.879 -0.0065  0.8637 -0.5635
  133MOL0     C17855   4.437  13.073   2.016  0.1238  0.1104 -0.1118
  133MOL0     O17856   4.410  13.190   2.064  0.0414 -0.6620  0.0557
  133MOL0     C17857   4.278  13.210   2.114 -0.2681  0.4298 -0.1711
  133MOL0     C17858   4.272  13.229   2.266 -0.2033  1.3231 -0.3109
  133MOL0     C17859   4.304  13.361   2.315 -1.2660  0.0651  0.2223
  133MOL0     C17860   4.194  13.424   2.398  0.2621 -0.3826  0.0424
  133MOL0     C17861   4.244  13.561   2.434 -0.5295 -0.4037 -0.9989
  133MOL0     C17862   4.140  13.621   2.542 -1.4025 -0.2713  0.4275
  133MOL0     C17863   4.203  13.756   2.592  0.1367  0.1469 -0.2296
  133MOL0     C17864   4.153  13.792   2.732  1.3260 -0.6833  0.4051
  133MOL0    Cl17865   4.231  13.953   2.790  0.4306 -0.0913  0.0678
  133MOL0     C17866   4.449  12.959   2.100 -0.6653 -0.6774 -0.5473
  133MOL0     C17867   4.462  12.835   2.035  0.5688  1.2303  0.6499
  133MOL0     O17868   4.245  12.629   1.919  0.0368 -0.0424 -0.5174
  133MOL0     C17869   4.223  12.402   1.767 -0.6143 -0.6303  0.0632
  133MOL0     C17870   4.225  12.278   1.704 -0.0870 -0.4158  0.6276
  133MOL0     N17871   4.447  11.635   1.236  0.0841 -0.7068 -0.8165
  133MOL0     N17872   4.390  11.602   1.125  0.7955 -0.2869  0.7016
  133MOL0     C17873   3.285  11.580   1.213 -0.2257  0.7895  0.8360
  133MOL0     C17874   3.215  11.491   1.296 -1.1287  0.7913 -0.7039
  133MOL0     C17875   2.899  11.213   1.478  0.4860 -0.4722  0.3424
  133MOL0     C17876   2.970  11.101   1.532  0.3209  1.3307 -0.4927
  133MOL0     C17877   2.898  10.999   1.595 -0.7046 -0.1709  0.4306
  133MOL0     C17878   2.760  11.011   1.610 -0.1001  0.2451 -0.1345
  133MOL0     O17879   2.710  10.896   1.667 -0.3906 -0.2284  0.2413
  133MOL0     C17880   2.577  10.895   1.706 -1.3136 -0.8355 -1.0409
  133MOL0     C17881   2.553  10.766   1.784 -1.4992 -0.7267 -0.2086
  133MOL0     C17882   2.574  10.626   1.722 -0.7330 -0.5415  0.3412
  133MOL0     C17883   2.463  10.583   1.628  0.3766  0.3704 -0.5235
  133MOL0     C17884   2.518  10.460   1.560  0.1386 -0.1653 -0.0445
  133MOL0     C17885   2.571  10.361   1.518 -1.0752 -0.1005  0.1883
  133MOL0     C17886   2.682  11.117   1.557 -0.6411  0.4241  0.2129
  133MOL0     C17887   2.762  11.215   1.480  0.6180 -0.0160 -0.1095
  133MOL0     H17888   3.094  11.264   1.084  1.0154  0.2866 -0.5386
  133MOL0     H17889   3.244  11.400   0.933 -0.4528  0.9357 -0.4805
  133MOL0     H17890   3.358  11.795   1.047 -0.4164 -1.9722  1.3765
  133MOL0     H17891   3.511  11.723   1.092 -0.4469 -0.8612 -0.6024
  133MOL0     H17892   3.478  11.740   0.800 -2.3952  1.6802  0.1544
  133MOL0     H17893   3.478  11.897   0.883 -1.2626  0.6183 -1.1232
  133MOL0     H17894   3.683  11.670   0.926 -0.1644  0.7481 -0.0100
  133MOL0     H17895   3.702  11.806   0.812  1.0333  1.5959  1.2098
  133MOL0     H17896   3.667  11.966   1.004 -0.4688  0.8027  1.3533
  133MOL0     H17897   3.698  11.833   1.112 -0.6208  0.8256  0.6104
  133MOL0     H17898   3.908  11.919   0.907  2.4936 -1.5058  0.9696
  133MOL0     H17899   3.903  11.968   1.075 -0.0286 -0.6241  1.4596
  133MOL0     H17900   3.945  11.748   1.154  0.3924  1.7417  0.8594
  133MOL0     H17901   3.895  11.662   1.005  3.4647 -2.4227 -0.0187
  133MOL0     H17902   4.058  11.738   0.869 -2.3168  0.2522  0.8292
  133MOL0     H17903   4.141  11.834   0.976 -2.2356  2.0087 -1.9300
  133MOL0     H17904   4.231  11.593   0.928 -1.1052 -0.2263 -0.2325
  133MOL0     H17905   4.110  11.528   1.035 -0.7516 -0.5114 -1.5987
  133MOL0     H17906   4.174  11.789   1.281 -0.8462 -1.7528  0.6693
  133MOL0     H17907   4.476  11.691   1.505  0.8246  1.4736  1.1729
  133MOL0     H17908   4.482  11.849   1.420  1.4474  0.1648  0.9058
  133MOL0     H17909   4.230  11.723   1.560  0.1727  0.3309  0.4680
  133MOL0     H17910   4.250  11.880   1.481  0.4970  3.7646  4.1317
  133MOL0     H17911   4.414  11.781   1.722  2.1053 -0.5898 -3.6262
  133MOL0     H17912   4.259  11.867   1.734 -2.1440 -0.4444 -4.0600
  133MOL0     H17913   4.526  11.977   1.610 -1.3299 -1.2814 -2.2270
  133MOL0     H17914   4.470  12.007   1.776 -1.3357 -0.8672  0.7026
  133MOL0     H17915   4.563  12.243   1.665  1.4768 -0.2180  2.1017
  133MOL0     H17916   4.611  12.509   1.875  4.4463  1.8890 -0.2513
  133MOL0     H17917   4.671  12.368   1.782  0.4349  0.9343  0.9006
  133MOL0     H17918   4.643  12.526   1.708 -1.0329  1.5993  1.1151
  133MOL0     H17919   4.484  12.928   1.710 -0.7686  2.1617  0.4388
  133MOL0     H17920   4.455  13.151   1.819  1.4035  0.5939 -1.1756
  133MOL0     H17921   4.237  13.291   2.053  0.6827  0.7356 -0.4208
  133MOL0     H17922   4.212  13.131   2.076  1.3790 -0.0347 -2.3004
  133MOL0     H17923   4.166  13.210   2.284  0.3021 -0.8522  0.8253
  133MOL0     H17924   4.335  13.150   2.309 -1.6470 -0.7641 -1.8369
  133MOL0     H17925   4.329  13.432   2.236  0.5446  0.0105  0.6972
  133MOL0     H17926   4.386  13.360   2.387 -1.9868  3.0495  1.2043
  133MOL0     H17927   4.107  13.434   2.332  0.8956  3.1752 -0.4531
  133MOL0     H17928   4.172  13.360   2.484  0.7444 -3.5765 -2.0486
  133MOL0     H17929   4.243  13.626   2.346 -1.7408 -0.5690 -1.1240
  133MOL0     H17930   4.346  13.570   2.471 -1.1162  2.0820  0.2178
  133MOL0     H17931   4.039  13.631   2.501 -1.3649  2.1922  0.7983
  133MOL0     H17932   4.149  13.545   2.620  1.8445 -0.2623  0.1935
  133MOL0     H17933   4.165  13.824   2.516  0.6371 -1.2563 -1.8119
  133MOL0     H17934   4.312  13.761   2.599  0.0637  2.4679 -0.1199
  133MOL0     H17935   4.185  13.703   2.788  0.7171 -0.7901  0.5988
  133MOL0     H17936   4.044  13.803   2.739  1.3872  0.5926 -0.4676
  133MOL0     H17937   4.424  12.961   2.205 -0.2902 -1.2536 -0.4427
  133MOL0     H17938   4.460  12.741   2.090  0.6949  0.0081 -1.3091
  133MOL0     H17939   4.121  12.435   1.787 -1.4886 -0.6173 -3.7542
  133MOL0     H17940   4.134  12.234   1.665 -0.2561 -1.6166  2.2910
  133MOL0     H17941   3.318  11.680   1.238  1.0603  1.7306 -3.6349
  133MOL0     H17942   3.207  11.527   1.398  2.2425  1.2476 -0.4893
  133MOL0     H17943   3.078  11.094   1.527  0.4616  1.7415  1.3725
  133MOL0     H17944   2.941  10.908   1.636  0.7479  0.2815 -0.0187
  133MOL0     H17945   2.558  10.981   1.771  2.5661 -1.2667  0.9225
  133MOL0     H17946   2.523  10.908   1.611  1.1379 -0.8306 -2.5369
  133MOL0     H17947   2.453  10.778   1.826 -0.9578 -1.8958  1.4906
  133MOL0     H17948   2.618  10.772   1.871  1.1497 -0.9454 -2.0666
  133MOL0     H17949   2.575  10.543   1.794 -2.4115 -2.2640 -1.4650
  133MOL0     H17950   2.674  10.634   1.680 -1.6200 -3.8635 -3.0238
  133MOL0     H17951   2.454  10.664   1.554 -0.7134  0.2609 -0.5192
  133MOL0     H17952   2.368  10.566   1.678  1.2237 -0.1425  0.9658
  133MOL0     H17953   2.625  10.274   1.487  0.3337  1.2897 -1.4531
  133MOL0     H17954   2.573  11.119   1.561 -0.6035  0.4746  1.9673
  133MOL0     H17955   2.715  11.297   1.427 -1.1635  0.0077  1.4060
  134MOL0     O17956   0.656   5.710   6.955  0.9483 -0.6078  0.0844
  134MOL0     C17957   0.549   5.716   6.895  0.5244 -0.0530  0.4325
  134MOL0     O17958   0.427   5.684   6.947  0.5843 -0.2349  0.0784
  134MOL0     C17959   0.411   5.686   7.079 -0.0140 -0.5001 -0.4582
  134MOL0     C17960   0.377   5.573   7.148 -0.0387  0.5256 -0.8235
  134MOL0     C17961   0.364   5.570   7.284  0.8934  0.2272 -0.6915
  134MOL0     C17962   0.400   5.676   7.363 -0.6323 -0.4776 -0.6953
  134MOL0     O17963   0.377   5.656   7.497  0.6096  0.1986 -0.8365
  134MOL0     C17964   0.343   5.765   7.581 -0.2769  0.0889 -0.7646
  134MOL0     C17965   0.308   5.741   7.723  0.2973 -0.4463 -0.1874
  134MOL0     C17966   0.430   5.721   7.817 -1.1622  0.2166 -0.0546
  134MOL0     C17967   0.409   5.758   7.957  0.7775  0.9602 -0.9765
  134MOL0     C17968   0.530   5.721   8.046  0.8492  1.2714 -0.3353
  134MOL0     C17969   0.531   5.812   8.165  0.6952  0.0709  0.1607
  134MOL0     C17970   0.401   5.795   8.254  0.1735  0.4454  0.0592
  134MOL0     C17971   0.381   5.901   8.372 -0.9349  0.5167  0.7700
  134MOL0     N17972   0.413   6.039   8.331  0.2541 -0.1756  0.7690
  134MOL0     C17973   0.535   6.107   8.335  0.6441  0.3509  0.7163
  134MOL0     C17974   0.500   6.227   8.293 -0.4826 -0.3354  0.3061
  134MOL0     C17975   0.594   6.339   8.263 -0.4664 -0.0399 -0.2927
  134MOL0     C17976   0.687   6.300   8.151 -0.2799  0.2926  0.0634
  134MOL0     C17977   0.630   6.269   8.014 -0.2274  0.3028 -0.2416
  134MOL0     C17978   0.552   6.391   7.956  0.6861  0.6923 -0.7655
  134MOL0     O17979   0.639   6.501   7.967  0.1472 -0.0964 -0.0283
  134MOL0     C17980   0.741   6.516   7.874  0.4394  0.4774 -0.4135
  134MOL0     C17981   0.758   6.443   7.756 -1.1121 -0.8562  0.0498
  134MOL0     C17982   0.873   6.453   7.674 -0.1102 -1.0113 -0.0475
  134MOL0     C17983   0.883   6.352   7.570 -0.1648 -0.2273  0.5551
  134MOL0     C17984   0.976   6.548   7.711  0.1130 -1.0457 -0.1466
  134MOL0     C17985   1.108   6.559   7.639  0.8683 -0.9297 -0.1038
  134MOL0     O17986   1.110   6.530   7.504  1.0984 -0.1666  0.3829
  134MOL0     C17987   1.236   6.503   7.450 -0.9747  0.3183  0.0719
  134MOL0     C17988   1.247   6.386   7.378  0.5431  0.3114 -0.4299
  134MOL0     C17989   1.374   6.347   7.330 -1.2262 -0.4250 -0.1980
  134MOL0     C17990   1.494   6.419   7.361 -1.0220  0.2922  0.7738
  134MOL0     O17991   1.617   6.368   7.327 -0.1224 -0.2004  0.2236
  134MOL0     C17992   1.729   6.421   7.398  0.3810 -0.0862  0.5911
  134MOL0     C17993   1.734   6.385   7.545  0.2769  0.1715 -0.6463
  134MOL0     C17994   1.731   6.227   7.553  0.1825 -0.0072  0.4539
  134MOL0     C17995   1.741   6.172   7.694  0.1555  0.1564 -0.2046
  134MOL0     C17996   1.879   6.183   7.760 -0.0612 -0.1974 -0.4366
  134MOL0     C17997   1.903   6.075   7.868  0.3799  0.0802 -0.0776
  134MOL0     C17998   2.024   6.110   7.949  0.4220  0.0372  0.1167
  134MOL0     C17999   2.006   6.205   8.068  0.4620  0.0368 -0.5639
  134MOL0    Cl18000   1.917   6.351   8.008  0.4600 -0.6528  0.3874
  134MOL0     C18001   1.479   6.542   7.419  0.5899 -0.2159  0.1114
  134MOL0     C18002   1.349   6.582   7.464 -0.0944 -0.3515  0.1548
  134MOL0     O18003   1.204   6.602   7.705  0.2593 -0.3012 -0.0055
  134MOL0     C18004   0.947   6.636   7.823 -0.2990 -0.0897  0.6096
  134MOL0     C18005   0.835   6.604   7.905 -0.0737 -1.0834 -0.5421
  134MOL0     N18006   0.360   6.239   8.279  1.3365 -0.5248  0.2861
  134MOL0     N18007   0.312   6.124   8.305 -0.3944  0.0581  0.0334
  134MOL0     C18008   0.444   5.796   7.299  1.6272  0.3233  1.2683
  134MOL0     C18009   0.435   5.799   7.154 -0.4075  0.5130 -0.0438
  134MOL0     C18010   0.549   5.713   6.748 -1.1011 -0.1585 -0.5331
  134MOL0     C18011   0.676   5.733   6.692 -0.4270 -0.2851  0.4218
  134MOL0     C18012   0.687   5.740   6.549  0.5905 -0.6865 -0.3902
  134MOL0     C18013   0.571   5.730   6.465  0.6611  0.2130  0.9618
  134MOL0     O18014   0.568   5.740   6.329 -0.3319 -0.0453 -0.5727
  134MOL0     C18015   0.646   5.831   6.258 -0.3208 -0.0477  0.4320
  134MOL0     C18016   0.612   5.818   6.112  0.2899 -0.6199  0.0975
  134MOL0     C18017   0.473   5.882   6.081  0.0976 -0.2693  0.6380
  134MOL0     C18018   0.418   5.821   5.950  0.0569 -0.7058 -0.5990
  134MOL0     C18019   0.507   5.817   5.838  0.0621 -0.4118  0.1953
  134MOL0     C18020   0.587   5.824   5.744 -0.0201  0.3537 -0.7421
  134MOL0     C18021   0.445   5.720   6.532 -0.0359  0.4053 -0.3897
  134MOL0     C18022   0.434   5.713   6.670  0.1567  0.6403  0.5941
  134MOL0     H18023   0.349   5.482   7.096 -2.7419  0.8234 -0.0695
  134MOL0     H18024   0.340   5.478   7.336  1.7184  0.0948 -0.5323
  134MOL0     H18025   0.424   5.838   7.575  0.6671 -1.0491 -2.3415
  134MOL0     H18026   0.255   5.809   7.532  0.9412  3.6483 -0.0739
  134MOL0     H18027   0.238   5.822   7.744 -1.1108 -1.0764 -2.0491
  134MOL0     H18028   0.253   5.647   7.734  0.1632 -1.0196 -4.0968
  134MOL0     H18029   0.463   5.617   7.805 -1.8991 -0.0144 -0.1447
  134MOL0     H18030   0.515   5.779   7.780 -2.1339 -0.5061 -3.9667
  134MOL0     H18031   0.393   5.867   7.954  1.7215  1.1968  1.1826
  134MOL0     H18032   0.318   5.720   8.004  0.5463  4.9724  2.3776
  134MOL0     H18033   0.529   5.616   8.077  0.7225  1.2760 -0.3210
  134MOL0     H18034   0.614   5.725   7.977 -1.7266 -0.3682 -3.8524
  134MOL0     H18035   0.626   5.790   8.215 -0.1166 -2.0672  0.8741
  134MOL0     H18036   0.526   5.914   8.125  1.0495 -0.0638 -0.2237
  134MOL0     H18037   0.322   5.829   8.186  2.6835  2.7284 -1.9202
  134MOL0     H18038   0.369   5.693   8.277 -2.3034  0.9971 -0.6239
  134MOL0     H18039   0.454   5.879   8.450 -0.4775 -1.5537 -0.1781
  134MOL0     H18040   0.282   5.911   8.417 -0.5158 -1.0890  2.1576
  134MOL0     H18041   0.639   6.077   8.350  1.6513  2.3503 -1.6565
  134MOL0     H18042   0.539   6.427   8.227  0.3586  1.8170  2.5999
  134MOL0     H18043   0.651   6.365   8.353  0.9952  0.5069 -1.3478
  134MOL0     H18044   0.733   6.207   8.186  0.1671 -0.5295 -2.4913
  134MOL0     H18045   0.770   6.373   8.145  0.1984 -0.1829  0.8144
  134MOL0     H18046   0.567   6.183   8.035 -1.4962  0.0168 -4.2658
  134MOL0     H18047   0.712   6.240   7.949 -0.3259 -2.8441  0.8808
  134MOL0     H18048   0.462   6.414   8.014  0.1944 -4.2647  0.9333
  134MOL0     H18049   0.533   6.354   7.855  0.6173 -0.8783 -0.2104
  134MOL0     H18050   0.686   6.370   7.720  1.4485 -2.0353 -3.2053
  134MOL0     H18051   0.983   6.309   7.561 -0.2709 -0.7818  1.7736
  134MOL0     H18052   0.821   6.265   7.595  1.5232 -0.9830  2.3243
  134MOL0     H18053   0.846   6.400   7.479  1.1782 -1.3089 -0.5816
  134MOL0     H18054   1.156   6.326   7.373  1.2643 -0.7566 -1.1760
  134MOL0     H18055   1.389   6.251   7.282 -0.7868 -0.9597  0.9814
  134MOL0     H18056   1.814   6.387   7.339 -3.1126 -0.6287 -4.8319
  134MOL0     H18057   1.738   6.528   7.381  1.2846 -0.1996  0.3048
  134MOL0     H18058   1.833   6.401   7.590  1.1751 -1.9176 -1.7237
  134MOL0     H18059   1.660   6.440   7.603 -0.0154  1.5042 -2.2126
  134MOL0     H18060   1.800   6.192   7.476 -1.5931  0.2850 -1.3718
  134MOL0     H18061   1.631   6.195   7.522  1.0255 -0.2572 -2.2617
  134MOL0     H18062   1.671   6.213   7.767  0.7968  3.2653 -1.1774
  134MOL0     H18063   1.719   6.065   7.691 -0.3079  0.2691 -0.8561
  134MOL0     H18064   1.902   6.286   7.787  0.6843 -0.0866 -1.4335
  134MOL0     H18065   1.962   6.168   7.691  2.5833 -2.6088  2.9218
  134MOL0     H18066   1.819   6.071   7.938  0.5385 -0.7337  0.0760
  134MOL0     H18067   1.907   5.980   7.813  1.0311  0.8182 -1.3681
  134MOL0     H18068   2.100   6.152   7.882  1.2578 -1.4108  0.1225
  134MOL0     H18069   2.074   6.022   7.991  0.7802  0.8232  1.4076
  134MOL0     H18070   2.100   6.243   8.108  0.0690 -0.2366  0.6376
  134MOL0     H18071   1.956   6.148   8.146 -0.7415 -1.6732 -2.4924
  134MOL0     H18072   1.562   6.608   7.442 -2.3752  3.0733  2.4298
  134MOL0     H18073   1.346   6.681   7.509  0.8849 -0.9567  1.6168
  134MOL0     H18074   1.013   6.720   7.844  0.4397 -0.4823 -0.1208
  134MOL0     H18075   0.835   6.649   8.003  0.0765 -4.1398  0.9687
  134MOL0     H18076   0.478   5.885   7.351  3.7300  0.4360 -0.2157
  134MOL0     H18077   0.461   5.890   7.101 -1.0336  0.6148 -0.1826
  134MOL0     H18078   0.763   5.751   6.754 -0.1022  3.4777 -0.8746
  134MOL0     H18079   0.779   5.745   6.491 -0.1189 -0.6474 -1.5444
  134MOL0     H18080   0.622   5.934   6.287  2.4177 -0.0651  3.4924
  134MOL0     H18081   0.750   5.812   6.286  0.8253  1.4585 -2.4708
  134MOL0     H18082   0.606   5.710   6.092  1.5014 -0.9645  1.4368
  134MOL0     H18083   0.689   5.866   6.050  0.6097 -0.1560  0.8433
  134MOL0     H18084   0.474   5.990   6.062  0.0055 -0.6403 -1.9185
  134MOL0     H18085   0.410   5.850   6.165 -5.2683  0.5561 -2.5796
  134MOL0     H18086   0.326   5.867   5.913 -0.0070 -2.5088 -2.8763
  134MOL0     H18087   0.388   5.719   5.975  1.7444 -0.2781  4.2059
  134MOL0     H18088   0.655   5.844   5.663  0.7279  0.9691  0.0299
  134MOL0     H18089   0.352   5.735   6.479 -1.3702  1.6650  2.1551
  134MOL0     H18090   0.334   5.697   6.708 -1.1816 -0.7813 -3.0913
  135MOL0     O18091  10.949   1.976   9.756 -0.5607 -0.2653 -1.2458
  135MOL0     C18092  11.026   1.942   9.671  0.0391 -1.0732  0.1167
  135MOL0     O18093  11.143   1.868   9.690  0.1970  0.8120 -0.1880
  135MOL0     C18094  11.206   1.850   9.814  0.8490  0.7286 -0.1188
  135MOL0     C18095  11.163   1.891   9.929 -0.2464  0.3331 -0.1426
  135MOL0     C18096  11.250   1.891  10.034  0.8053 -0.4294 -0.4636
  135MOL0     C18097  11.374   1.829  10.031 -0.3365 -1.0780 -0.5280
  135MOL0     O18098  11.449   1.835  10.141 -0.3946  0.2825  0.4938
  135MOL0     C18099  11.594   1.816  10.126 -1.1759 -0.0202 -0.2275
  135MOL0     C18100  11.661   1.810  10.267 -0.5257  0.7580 -0.3712
  135MOL0     C18101  11.808   1.786  10.259  0.6031  0.5579 -0.3182
  135MOL0     C18102  11.869   1.810  10.395  0.3498 -1.2542  0.0340
  135MOL0     C18103  12.017   1.764  10.394  0.3412  0.3528  1.0606
  135MOL0     C18104  12.078   1.817  10.522  0.1988  0.2181  0.1017
  135MOL0     C18105  12.225   1.770  10.530 -0.0573 -0.1539  0.3233
  135MOL0     C18106  12.311   1.819  10.422  0.5350 -0.5697  0.5828
  135MOL0     N18107  12.335   1.959  10.432  0.4383  0.2045  0.5040
  135MOL0     C18108  12.419   2.022  10.523 -0.4666  0.6597  0.1963
  135MOL0     C18109  12.409   2.158  10.491  0.5204  1.6365  0.3063
  135MOL0     C18110  12.462   2.269  10.571 -0.0852 -0.1798 -0.0486
  135MOL0     C18111  12.435   2.408  10.520  0.8743 -0.8813 -1.0117
  135MOL0     C18112  12.549   2.467  10.451  0.3947  0.0346 -0.1212
  135MOL0     C18113  12.523   2.587  10.366 -0.0844 -0.6697 -0.6109
  135MOL0     O18114  12.496   2.675  10.471  0.3073  0.2529  0.0498
  135MOL0     C18115  12.469   2.807  10.436  0.2150  0.2672 -0.0485
  135MOL0     C18116  12.441   2.852  10.300 -0.4448 -0.2490 -0.2408
  135MOL0     C18117  12.407   2.988  10.272 -0.1984  0.7679  0.2296
  135MOL0     C18118  12.396   3.028  10.129 -1.6126 -0.5370  0.7829
  135MOL0     C18119  12.392   3.078  10.372 -0.0930  1.2770 -0.7430
  135MOL0     C18120  12.361   3.222  10.344 -0.2791  0.4164  0.5436
  135MOL0     O18121  12.434   3.296  10.257 -0.0529  0.3848  0.9366
  135MOL0     C18122  12.396   3.429  10.225 -0.0580  0.6639 -0.0358
  135MOL0     C18123  12.271   3.470  10.175 -1.0896  0.2462 -0.7580
  135MOL0     C18124  12.244   3.603  10.129  0.1149 -0.5055 -0.9139
  135MOL0     C18125  12.353   3.696  10.139  0.2711 -0.0334  0.6377
  135MOL0     O18126  12.294   3.810  10.098 -0.6163 -0.2624  0.3773
  135MOL0     C18127  12.380   3.923  10.125  0.0935  0.5841  0.3173
  135MOL0     C18128  12.319   4.040  10.058  0.3635  0.0257 -0.8824
  135MOL0     C18129  12.399   4.165  10.077 -0.4194  0.1395 -0.1965
  135MOL0     C18130  12.330   4.284  10.012  0.3542 -0.4170 -0.0893
  135MOL0     C18131  12.426   4.409  10.020  0.0762  0.3849 -0.2561
  135MOL0     C18132  12.454   4.469  10.164  0.6842 -0.6172  0.4412
  135MOL0     C18133  12.570   4.409  10.248  0.4736  1.0942  0.8012
  135MOL0     C18134  12.623   4.503  10.356 -1.0413  0.5866  0.5481
  135MOL0    Cl18135  12.501   4.559  10.480 -0.2503  0.1242  0.1561
  135MOL0     C18136  12.476   3.665  10.183  0.0386  1.5404  1.1302
  135MOL0     C18137  12.502   3.525  10.223  0.5054  0.3635  0.1108
  135MOL0     O18138  12.261   3.268  10.406  0.0383  0.5596 -0.7406
  135MOL0     C18139  12.392   3.030  10.505  0.2214 -0.2111 -0.0092
  135MOL0     C18140  12.428   2.904  10.532 -0.0258  0.8500 -0.1847
  135MOL0     N18141  12.326   2.171  10.382  0.2987 -0.5259 -0.3921
  135MOL0     N18142  12.281   2.059  10.352  0.5470 -0.5034 -1.0475
  135MOL0     C18143  11.412   1.778   9.908  1.0209 -0.3403 -0.3455
  135MOL0     C18144  11.329   1.786   9.803  1.4111  0.8346  0.3372
  135MOL0     C18145  10.972   1.919   9.534 -1.2377 -0.1486 -0.1772
  135MOL0     C18146  11.054   1.901   9.425 -0.0715  0.0786 -0.6989
  135MOL0     C18147  10.998   1.889   9.292 -0.3216 -0.5558  0.1940
  135MOL0     C18148  10.858   1.902   9.270 -0.2375 -0.4273 -0.0379
  135MOL0     O18149  10.828   1.900   9.136  0.5501 -0.6443  0.5537
  135MOL0     C18150  10.685   1.894   9.110  0.5380  0.6494  0.6646
  135MOL0     C18151  10.615   2.031   9.119  0.0895  0.3949  0.2948
  135MOL0     C18152  10.637   2.111   8.988  0.3589 -0.1476  0.7883
  135MOL0     C18153  10.575   2.251   8.984 -0.5837  0.3109 -0.1735
  135MOL0     C18154  10.428   2.245   8.944 -0.1720 -0.2377 -0.2639
  135MOL0     C18155  10.311   2.260   8.933 -0.1717  0.8190 -0.7801
  135MOL0     C18156  10.771   1.919   9.383  0.0767  0.0055  0.0651
  135MOL0     C18157  10.837   1.940   9.504  0.0001  0.2249 -1.2685
  135MOL0     H18158  11.066   1.931   9.958  0.3878  2.6854 -1.0295
  135MOL0     H18159  11.217   1.916  10.134 -1.3975  2.3705 -1.7420
  135MOL0     H18160  11.631   1.734  10.065  1.1696  0.6701  0.1985
  135MOL0     H18161  11.620   1.910  10.076  0.4582 -0.6450 -0.5976
  135MOL0     H18162  11.655   1.908  10.315 -0.8793  0.9147 -0.7282
  135MOL0     H18163  11.607   1.743  10.334 -0.2302  1.3816  0.4985
  135MOL0     H18164  11.827   1.680  10.238  0.8480 -0.3291  3.5450
  135MOL0     H18165  11.843   1.848  10.177  2.5960  1.4439  1.1323
  135MOL0     H18166  11.856   1.911  10.435 -1.0350 -1.4409  0.0988
  135MOL0     H18167  11.818   1.743  10.464  2.1296 -0.7760  1.9003
  135MOL0     H18168  12.030   1.656  10.400  2.6130  0.3230 -1.9318
  135MOL0     H18169  12.077   1.790  10.306  2.3285 -2.4109  1.4689
  135MOL0     H18170  12.069   1.926  10.522  1.3693  0.3613 -1.3139
  135MOL0     H18171  12.031   1.779  10.613 -0.5174  1.3708  0.2231
  135MOL0     H18172  12.259   1.814  10.624  1.6885  0.5096 -0.5791
  135MOL0     H18173  12.225   1.660  10.538  1.3323 -0.3679 -1.9215
  135MOL0     H18174  12.271   1.789  10.324 -1.0525  2.5690  0.1790
  135MOL0     H18175  12.415   1.785  10.431  0.5406 -0.9575 -0.6950
  135MOL0     H18176  12.472   1.972  10.603 -2.1045 -1.0086  0.2999
  135MOL0     H18177  12.418   2.264  10.671  2.8457 -0.2775  1.3533
  135MOL0     H18178  12.569   2.248  10.578 -0.2299 -1.7094 -1.5254
  135MOL0     H18179  12.403   2.480  10.597 -1.3244 -0.2001 -2.4618
  135MOL0     H18180  12.341   2.399  10.465 -0.0675 -0.0464  0.4033
  135MOL0     H18181  12.593   2.380  10.401 -0.1984  0.5479 -1.6076
  135MOL0     H18182  12.627   2.507  10.516  0.4155 -2.0183  1.1974
  135MOL0     H18183  12.439   2.577  10.298  0.3955 -0.0884 -1.3047
  135MOL0     H18184  12.613   2.619  10.313  1.8696  0.7271  3.1232
  135MOL0     H18185  12.441   2.786  10.215  2.1121 -1.9490  0.9275
  135MOL0     H18186  12.494   3.068  10.102 -0.5456 -1.6584  2.7364
  135MOL0     H18187  12.382   2.936  10.072 -1.1820  0.6413 -1.3254
  135MOL0     H18188  12.309   3.093  10.113 -1.4227  0.0353  2.0147
  135MOL0     H18189  12.187   3.401  10.183 -0.4571 -0.2897  3.9366
  135MOL0     H18190  12.144   3.632  10.102  0.4930 -0.3367 -2.1804
  135MOL0     H18191  12.388   3.935  10.233 -0.9506  0.6947  0.3904
  135MOL0     H18192  12.484   3.901  10.098  0.3663  0.2572  1.5612
  135MOL0     H18193  12.298   4.035   9.950  0.5880  3.4173 -1.2012
  135MOL0     H18194  12.231   4.077  10.110  1.0436 -1.3746  1.4133
  135MOL0     H18195  12.500   4.173  10.036  0.5173  0.8717  2.0925
  135MOL0     H18196  12.423   4.164  10.183 -1.0120  1.9627 -0.0183
  135MOL0     H18197  12.308   4.260   9.908 -1.8703  0.2162  0.1758
  135MOL0     H18198  12.240   4.312  10.067 -0.9214  1.8535 -3.0667
  135MOL0     H18199  12.382   4.490   9.962 -0.3157  3.0163  3.3697
  135MOL0     H18200  12.522   4.392   9.971  1.2560 -0.3577  2.1374
  135MOL0     H18201  12.466   4.578  10.157  1.2891 -0.7867 -2.8576
  135MOL0     H18202  12.363   4.457  10.222  1.4142  1.6621  2.1958
  135MOL0     H18203  12.655   4.375  10.188 -1.7130 -1.6919 -1.0018
  135MOL0     H18204  12.535   4.321  10.303  3.6560 -1.2753 -0.6066
  135MOL0     H18205  12.667   4.587  10.302 -0.9314  0.2927  0.1810
  135MOL0     H18206  12.711   4.457  10.400  0.6193 -0.4764 -3.4651
  135MOL0     H18207  12.564   3.727  10.195  2.8725 -1.4757 -1.9724
  135MOL0     H18208  12.597   3.502  10.270  0.9053  0.0963 -0.8107
  135MOL0     H18209  12.350   3.098  10.578  1.8989  1.7414 -0.7561
  135MOL0     H18210  12.420   2.872  10.635  2.0577 -0.4966 -0.3921
  135MOL0     H18211  11.502   1.718   9.898  1.7343  0.7507 -0.7166
  135MOL0     H18212  11.362   1.753   9.705 -1.1997 -0.8257 -0.0945
  135MOL0     H18213  11.161   1.896   9.441  0.1250  3.2534 -0.2573
  135MOL0     H18214  11.063   1.874   9.206  0.3831  0.9043  0.4292
  135MOL0     H18215  10.669   1.860   9.007  0.3722  1.2943  0.4726
  135MOL0     H18216  10.639   1.816   9.172  3.2010 -0.8507  0.8997
  135MOL0     H18217  10.661   2.088   9.201 -0.1552 -1.5281  1.8541
  135MOL0     H18218  10.507   2.017   9.131 -0.2596  2.1791 -0.4120
  135MOL0     H18219  10.597   2.048   8.908  1.0662 -2.8454  2.4368
  135MOL0     H18220  10.742   2.133   8.965  0.2601  0.9832  1.3521
  135MOL0     H18221  10.610   2.318   8.905  0.5053  0.4592  0.4212
  135MOL0     H18222  10.586   2.298   9.082  0.4074 -2.2226  1.0328
  135MOL0     H18223  10.207   2.267   8.907  0.1509 -1.9304 -3.3624
  135MOL0     H18224  10.663   1.928   9.385  0.1811  1.4232  1.7089
  135MOL0     H18225  10.772   1.972   9.585  2.2580  0.7767  0.4164
  136MOL0     O18226   8.559   8.281   4.682  0.1081  0.1222  0.4372
  136MOL0     C18227   8.487   8.345   4.764 -0.6117 -0.3570  0.6036
  136MOL0     O18228   8.485   8.326   4.904  0.2635 -0.0029  0.8287
  136MOL0     C18229   8.508   8.203   4.950 -0.5945 -0.3455  0.2656
  136MOL0     C18230   8.399   8.110   4.959 -0.6283  0.3154  0.4782
  136MOL0     C18231   8.414   7.989   5.030 -0.5001  0.3456  0.9681
  136MOL0     C18232   8.532   7.960   5.091 -0.8598 -0.0381  0.7252
  136MOL0     O18233   8.573   7.851   5.162 -0.4376  0.1314 -0.2744
  136MOL0     C18234   8.526   7.715   5.121  0.9147  0.5085 -0.3130
  136MOL0     C18235   8.605   7.647   5.012 -0.9436  0.8563  0.0293
  136MOL0     C18236   8.754   7.646   5.036  0.6854  0.5781 -0.3842
  136MOL0     C18237   8.801   7.597   5.173 -0.0342  0.4416 -0.6282
  136MOL0     C18238   8.945   7.534   5.174 -0.9542 -0.4519 -0.0643
  136MOL0     C18239   8.964   7.391   5.117 -0.7313 -0.2711  0.7694
  136MOL0     C18240   9.093   7.371   5.044  0.6652  0.3900 -0.7651
  136MOL0     C18241   9.213   7.355   5.141 -1.0868  0.6599  0.0215
  136MOL0     N18242   9.340   7.385   5.078 -0.3077 -0.6467 -0.2418
  136MOL0     C18243   9.367   7.369   4.946 -0.1586  0.1155 -0.1399
  136MOL0     C18244   9.484   7.435   4.936  0.4294 -0.0732 -0.6429
  136MOL0     C18245   9.572   7.436   4.811  0.4126 -0.2149 -0.2621
  136MOL0     C18246   9.585   7.288   4.755 -0.4756  0.2944 -0.3473
  136MOL0     C18247   9.731   7.243   4.787  0.9532  0.3352  0.0257
  136MOL0     C18248   9.767   7.092   4.771 -0.6195 -0.0366 -0.4206
  136MOL0     O18249   9.678   7.001   4.839  0.5940 -1.5601 -0.5270
  136MOL0     C18250   9.693   6.982   4.972 -0.0422 -0.7372  0.3342
  136MOL0     C18251   9.781   6.893   5.024 -0.1707  0.7086 -0.1015
  136MOL0     C18252   9.783   6.874   5.163 -0.0754 -0.2732 -0.4187
  136MOL0     C18253   9.866   6.764   5.219 -0.2334  0.2267  0.7373
  136MOL0     C18254   9.710   6.962   5.249 -1.1982 -0.2907 -0.3066
  136MOL0     C18255   9.715   6.957   5.398  0.0414 -0.2571 -0.6934
  136MOL0     O18256   9.609   7.002   5.467  0.4624  0.3194  0.9997
  136MOL0     C18257   9.608   7.000   5.608 -0.3683 -0.3875  0.2727
  136MOL0     C18258   9.626   7.119   5.672  1.6230 -0.2818 -0.0814
  136MOL0     C18259   9.627   7.126   5.812 -0.8556 -0.2256 -0.6472
  136MOL0     C18260   9.617   7.012   5.889 -0.4094 -0.3646 -0.0577
  136MOL0     O18261   9.642   7.024   6.026 -0.2238  0.7202 -0.5773
  136MOL0     C18262   9.576   6.940   6.125  0.4791  0.8247  1.0834
  136MOL0     C18263   9.670   6.866   6.204 -0.6194 -0.0338 -0.1521
  136MOL0     C18264   9.783   6.953   6.269  0.4169 -0.1663 -0.3979
  136MOL0     C18265   9.899   6.876   6.327 -0.3702  0.1238  0.7216
  136MOL0     C18266  10.014   6.966   6.362 -1.5833 -0.1930  0.2858
  136MOL0     C18267  10.132   6.889   6.434  0.2109  0.1186  0.2900
  136MOL0     C18268  10.224   6.788   6.354  0.5720  0.0794 -0.6637
  136MOL0     C18269  10.284   6.846   6.230  0.0021 -0.4134 -0.1871
  136MOL0    Cl18270  10.437   6.748   6.205  0.3489 -0.0049 -0.0558
  136MOL0     C18271   9.588   6.892   5.820  0.5251  0.0877  0.1370
  136MOL0     C18272   9.577   6.886   5.681 -0.5624 -0.4461  0.0817
  136MOL0     O18273   9.815   6.929   5.450 -0.7869  0.3369  0.2140
  136MOL0     C18274   9.636   7.070   5.196  0.3085 -0.5962 -0.7613
  136MOL0     C18275   9.624   7.067   5.054  0.1970  0.6100  0.3579
  136MOL0     N18276   9.538   7.458   5.060  0.0682 -0.0470 -0.5108
  136MOL0     N18277   9.447   7.432   5.145  0.1490  0.5884 -0.1695
  136MOL0     C18278   8.643   8.048   5.078 -0.5647  0.2087  0.8248
  136MOL0     C18279   8.626   8.169   5.013  0.0144  0.1936  0.2479
  136MOL0     C18280   8.380   8.424   4.697  1.0580 -0.0984  0.4227
  136MOL0     C18281   8.283   8.484   4.772  0.4251 -0.3057  0.3859
  136MOL0     C18282   8.182   8.573   4.717  0.1507  0.5708  0.5756
  136MOL0     C18283   8.178   8.583   4.582 -1.2839 -0.5604 -0.1277
  136MOL0     O18284   8.087   8.670   4.533 -0.6538 -0.2100 -0.1319
  136MOL0     C18285   8.114   8.753   4.420 -0.1552  0.5771  0.5909
  136MOL0     C18286   8.002   8.735   4.306  0.3960 -0.4605 -1.3388
  136MOL0     C18287   8.013   8.595   4.251 -0.1305  0.3511 -0.9856
  136MOL0     C18288   7.911   8.564   4.135 -0.4469  0.3612  0.1078
  136MOL0     C18289   7.961   8.443   4.070  0.2327  0.0947  0.1418
  136MOL0     C18290   8.027   8.343   4.039  0.8231  0.2817  0.4426
  136MOL0     C18291   8.277   8.519   4.504 -0.2631  0.2578  0.0146
  136MOL0     C18292   8.372   8.433   4.560  0.4904  0.5200  0.5028
  136MOL0     H18293   8.303   8.147   4.924 -1.4792 -0.7212  1.5885
  136MOL0     H18294   8.330   7.920   5.028  2.0929 -3.0390 -1.3234
  136MOL0     H18295   8.522   7.643   5.203 -3.9109 -0.9904 -1.5323
  136MOL0     H18296   8.425   7.713   5.079 -0.5889  0.5668  2.9733
  136MOL0     H18297   8.568   7.546   4.992 -0.1187  0.8761 -1.8356
  136MOL0     H18298   8.589   7.694   4.914  1.7391 -0.3931 -1.1267
  136MOL0     H18299   8.787   7.584   4.953 -1.7521 -3.1338  1.1572
  136MOL0     H18300   8.791   7.747   5.015 -0.6105  1.8181  2.5470
  136MOL0     H18301   8.798   7.688   5.235 -1.7953 -0.4808  0.7303
  136MOL0     H18302   8.736   7.522   5.219  0.8011 -0.5558 -1.0358
  136MOL0     H18303   9.018   7.610   5.144 -2.7307  1.7684  0.8766
  136MOL0     H18304   8.977   7.518   5.277  1.1237  1.4353 -0.3376
  136MOL0     H18305   8.943   7.324   5.201 -0.9980 -1.4294 -0.2012
  136MOL0     H18306   8.885   7.376   5.043 -0.1482  0.7737 -0.1033
  136MOL0     H18307   9.088   7.280   4.985  1.7484  0.4635 -1.0002
  136MOL0     H18308   9.109   7.459   4.981 -0.6542  1.1716 -0.0511
  136MOL0     H18309   9.222   7.253   5.180  0.3103  0.5647 -0.4935
  136MOL0     H18310   9.197   7.423   5.226 -0.1605 -0.6071  1.2714
  136MOL0     H18311   9.313   7.311   4.872 -2.1836  0.6954  0.8207
  136MOL0     H18312   9.518   7.494   4.736 -0.7050  1.0236  1.4358
  136MOL0     H18313   9.668   7.481   4.837  0.4739 -0.7684  0.5281
  136MOL0     H18314   9.562   7.292   4.648  1.3003 -0.8647 -0.8074
  136MOL0     H18315   9.519   7.221   4.810  0.2929 -0.5394 -0.4316
  136MOL0     H18316   9.755   7.275   4.889 -1.4861 -0.8859  1.0816
  136MOL0     H18317   9.783   7.294   4.706 -3.5060  2.2084 -1.9770
  136MOL0     H18318   9.868   7.095   4.814 -0.0160 -3.2127 -1.3688
  136MOL0     H18319   9.773   7.059   4.668  1.7771 -0.1477 -0.2997
  136MOL0     H18320   9.821   6.826   4.949 -0.7817 -0.7020  0.7881
  136MOL0     H18321   9.956   6.818   5.248  1.1174 -1.2530 -0.5215
  136MOL0     H18322   9.830   6.711   5.308  0.5632  1.4091  1.7962
  136MOL0     H18323   9.886   6.689   5.142 -0.0048  1.0822 -0.0449
  136MOL0     H18324   9.650   7.203   5.607  3.9794 -0.3906  0.5264
  136MOL0     H18325   9.660   7.209   5.873 -3.5290 -1.7280  3.3027
  136MOL0     H18326   9.512   7.002   6.188 -2.2293 -2.2940  1.6757
  136MOL0     H18327   9.513   6.862   6.081  1.1011 -1.0910  3.3718
  136MOL0     H18328   9.614   6.816   6.284 -1.9771 -1.7356 -2.0550
  136MOL0     H18329   9.699   6.784   6.138  1.8067  0.5169  0.1366
  136MOL0     H18330   9.732   7.007   6.349 -0.9966  0.7781 -1.8923
  136MOL0     H18331   9.817   7.022   6.191  1.9271  0.0071  0.3713
  136MOL0     H18332   9.864   6.845   6.426 -3.1737  1.5287  0.2797
  136MOL0     H18333   9.935   6.786   6.277  1.6361 -1.8881  5.2892
  136MOL0     H18334   9.982   7.046   6.429 -2.3762 -0.3647  0.1233
  136MOL0     H18335  10.038   7.021   6.270 -1.4139 -0.9948 -0.1567
  136MOL0     H18336  10.195   6.971   6.471  0.3318  1.0701 -1.9006
  136MOL0     H18337  10.083   6.829   6.511 -0.8026  4.2873  3.2945
  136MOL0     H18338  10.167   6.697   6.331  1.7653 -1.0512  0.5809
  136MOL0     H18339  10.306   6.754   6.419  0.8415 -4.9015 -3.0984
  136MOL0     H18340  10.308   6.953   6.231  0.2653 -0.4265 -1.9129
  136MOL0     H18341  10.218   6.826   6.145  1.1217 -0.7909 -0.9818
  136MOL0     H18342   9.578   6.804   5.883 -2.4353  0.9792  1.0705
  136MOL0     H18343   9.546   6.793   5.634  2.3560 -0.5098 -2.0600
  136MOL0     H18344   9.583   7.145   5.253  1.0655  0.3152 -1.2349
  136MOL0     H18345   9.568   7.144   5.001 -0.0235 -1.7386 -3.1426
  136MOL0     H18346   8.744   8.026   5.109 -0.4389 -1.9856 -0.8860
  136MOL0     H18347   8.707   8.240   5.001  0.5794  0.2623  3.5674
  136MOL0     H18348   8.305   8.475   4.878  0.0455  1.8774  0.7030
  136MOL0     H18349   8.117   8.635   4.778 -3.1794 -1.3562 -0.7156
  136MOL0     H18350   8.102   8.857   4.453 -3.3348  0.3431  0.4458
  136MOL0     H18351   8.214   8.733   4.379 -0.1106  1.6736  0.1197
  136MOL0     H18352   8.022   8.815   4.234 -1.1721 -0.5685 -1.9226
  136MOL0     H18353   7.897   8.751   4.331  1.4521  0.3134  4.0354
  136MOL0     H18354   8.017   8.509   4.320  2.1343 -0.6080 -2.2120
  136MOL0     H18355   8.112   8.585   4.207  0.1732  2.5003 -0.8789
  136MOL0     H18356   7.917   8.646   4.063 -0.8277 -0.6001 -1.0449
  136MOL0     H18357   7.808   8.553   4.168 -0.1878  0.6571  1.0371
  136MOL0     H18358   8.098   8.275   3.997 -1.2950  1.0597 -5.3740
  136MOL0     H18359   8.274   8.537   4.397  1.0571  0.9582  0.0615
  136MOL0     H18360   8.448   8.393   4.494  2.0492  2.0754  1.2750
  137MOL0     O18361   6.230  11.498   9.847  0.3389 -0.3888 -0.0429
  137MOL0     C18362   6.299  11.574   9.915 -1.7029 -0.1448  0.7871
  137MOL0     O18363   6.433  11.592   9.914  0.0878  0.5172 -0.4229
  137MOL0     C18364   6.518  11.538   9.828 -0.8474 -0.1208 -0.5514
  137MOL0     C18365   6.653  11.509   9.868  0.1378  0.6602  0.0168
  137MOL0     C18366   6.739  11.445   9.781  0.1567  0.2790  0.1563
  137MOL0     C18367   6.700  11.420   9.649 -0.3041 -1.1447 -0.1720
  137MOL0     O18368   6.778  11.340   9.574  0.0565  0.0329 -0.4116
  137MOL0     C18369   6.775  11.335   9.433 -0.0651 -0.2418 -0.4318
  137MOL0     C18370   6.835  11.466   9.371 -0.6111  0.4244 -0.0107
  137MOL0     C18371   6.973  11.512   9.425  0.7720  1.4648  0.3031
  137MOL0     C18372   7.080  11.405   9.412  1.1406  0.1595  0.1700
  137MOL0     C18373   7.213  11.423   9.335  0.2241 -1.2225 -0.0739
  137MOL0     C18374   7.328  11.322   9.366  0.9058 -0.3119  0.8402
  137MOL0     C18375   7.266  11.177   9.341 -0.1340  0.2816  1.1737
  137MOL0     C18376   7.386  11.088   9.304  0.1879 -0.0646 -0.1528
  137MOL0     N18377   7.338  10.955   9.261 -0.0144 -0.0235 -0.4322
  137MOL0     C18378   7.319  10.904   9.141 -0.2530 -0.6984 -0.1790
  137MOL0     C18379   7.276  10.774   9.165  0.5730 -0.7116 -0.3280
  137MOL0     C18380   7.249  10.677   9.054 -0.3133 -0.6342  0.2112
  137MOL0     C18381   7.111  10.614   9.071 -0.5479  0.2591  0.5971
  137MOL0     C18382   7.093  10.473   9.008  0.1388  1.1360  0.2848
  137MOL0     C18383   7.200  10.350   9.035 -0.9907 -0.5704 -0.4470
  137MOL0     O18384   7.184  10.247   8.938 -0.1098  0.4210 -0.9424
  137MOL0     C18385   7.109  10.142   8.983  0.4740  0.2202 -0.0248
  137MOL0     C18386   7.132  10.013   8.921  0.1506 -0.6363 -0.2650
  137MOL0     C18387   7.060   9.897   8.960  0.5023 -0.0930 -1.0697
  137MOL0     C18388   7.084   9.771   8.881  0.2167 -0.3765  0.4602
  137MOL0     C18389   6.973   9.915   9.073 -0.2001 -0.0534 -0.6134
  137MOL0     C18390   6.895   9.802   9.140  0.0983  1.4544 -0.0978
  137MOL0     O18391   6.888   9.676   9.087 -0.7142 -0.9504 -0.1202
  137MOL0     C18392   6.821   9.582   9.148  0.3337  0.3898 -0.4444
  137MOL0     C18393   6.699   9.549   9.079 -0.6156 -0.3755 -0.1958
  137MOL0     C18394   6.624   9.452   9.135 -0.3002  0.5153  0.3061
  137MOL0     C18395   6.667   9.376   9.247  0.0303  1.1739  0.5622
  137MOL0     O18396   6.588   9.261   9.280 -0.4938  0.5058  0.1927
  137MOL0     C18397   6.591   9.143   9.192 -0.0533 -0.9860 -0.0567
  137MOL0     C18398   6.734   9.090   9.171 -0.3753 -1.2989  0.6281
  137MOL0     C18399   6.742   8.964   9.082  0.8185  0.1856  0.0818
  137MOL0     C18400   6.704   8.844   9.173 -0.1934  0.1886  0.1034
  137MOL0     C18401   6.792   8.720   9.148  0.1577  0.1942  0.8942
  137MOL0     C18402   6.730   8.592   9.197 -0.7620  0.1461  0.1665
  137MOL0     C18403   6.711   8.583   9.348  0.3094 -0.3693 -0.9340
  137MOL0     C18404   6.642   8.441   9.396 -0.2818 -0.3370  0.0762
  137MOL0    Cl18405   6.741   8.306   9.332 -0.3367  0.1621 -0.1554
  137MOL0     C18406   6.788   9.410   9.313  0.7212  0.1108  0.5295
  137MOL0     C18407   6.865   9.516   9.259 -0.1576 -0.3007 -0.0595
  137MOL0     O18408   6.827   9.825   9.243  0.5195  0.1784 -0.1265
  137MOL0     C18409   6.951  10.041   9.129 -0.9587 -1.0287 -0.1259
  137MOL0     C18410   7.014  10.157   9.079  0.5342  0.4262 -0.1435
  137MOL0     N18411   7.271  10.757   9.301 -1.0156 -0.3815 -0.0547
  137MOL0     N18412   7.304  10.866   9.356  1.2532 -0.0385  0.0295
  137MOL0     C18413   6.572  11.470   9.604 -0.3762  0.1268  0.0405
  137MOL0     C18414   6.485  11.538   9.692 -0.3586 -1.1927 -1.1567
  137MOL0     C18415   6.240  11.661  10.015 -0.1867 -0.5171 -0.7725
  137MOL0     C18416   6.307  11.785  10.045  0.1312 -0.4245 -0.6107
  137MOL0     C18417   6.259  11.876  10.135 -0.5028 -1.4017 -0.8665
  137MOL0     C18418   6.141  11.858  10.191  0.6243 -0.9031 -0.2351
  137MOL0     O18419   6.085  11.961  10.275 -0.0555  0.0012 -0.3093
  137MOL0     C18420   5.943  11.963  10.307 -0.2411 -0.2139  0.1912
  137MOL0     C18421   5.931  11.927  10.453 -0.3606 -0.2214  0.7391
  137MOL0     C18422   5.923  12.038  10.545  0.6928 -0.0643  0.1717
  137MOL0     C18423   6.030  12.144  10.530  0.8042  0.5044 -0.4264
  137MOL0     C18424   6.041  12.215  10.657  0.2189  0.4056 -0.0425
  137MOL0     C18425   6.034  12.264  10.766  0.4977  0.1500 -0.2777
  137MOL0     C18426   6.079  11.731  10.177 -0.1030 -0.5117 -0.5133
  137MOL0     C18427   6.120  11.638  10.082  0.1331  0.0865 -0.4170
  137MOL0     H18428   6.672  11.531   9.973 -2.0540 -2.4814  1.2391
  137MOL0     H18429   6.833  11.406   9.818  1.4215  1.4522 -1.6415
  137MOL0     H18430   6.840  11.252   9.405  0.1408 -1.6156  3.4941
  137MOL0     H18431   6.685  11.299   9.384  0.2400  0.8036 -1.8152
  137MOL0     H18432   6.860  11.456   9.265  1.4009  0.6377  0.3975
  137MOL0     H18433   6.766  11.548   9.392  0.9754  1.9647 -0.5412
  137MOL0     H18434   6.989  11.613   9.387  2.2016  0.4261 -2.0811
  137MOL0     H18435   6.962  11.533   9.532  0.8184 -0.5308  0.7428
  137MOL0     H18436   7.106  11.388   9.517 -1.7081 -1.1149  0.7501
  137MOL0     H18437   7.023  11.319   9.376 -4.1098  1.9630  3.0271
  137MOL0     H18438   7.187  11.440   9.230  2.1370  0.9282 -0.2956
  137MOL0     H18439   7.253  11.524   9.353  0.9658 -1.7551  1.4055
  137MOL0     H18440   7.417  11.346   9.307 -0.6555  0.5687 -1.2959
  137MOL0     H18441   7.357  11.325   9.471 -0.8346 -1.2375  1.4032
  137MOL0     H18442   7.206  11.137   9.423 -1.4677  2.7052  1.4758
  137MOL0     H18443   7.201  11.186   9.254  1.2537 -1.4708 -0.1030
  137MOL0     H18444   7.448  11.081   9.394 -0.9741  2.8662  1.0067
  137MOL0     H18445   7.455  11.127   9.228  1.6180  0.5450  1.4060
  137MOL0     H18446   7.343  10.945   9.043  0.5689 -1.7074 -0.4211
  137MOL0     H18447   7.253  10.727   8.957  1.5284  2.4840  1.7306
  137MOL0     H18448   7.332  10.607   9.066  1.3182  1.4142  1.7143
  137MOL0     H18449   7.035  10.689   9.046 -2.1482 -1.4749  0.0025
  137MOL0     H18450   7.087  10.585   9.174  1.2811 -4.3724 -0.0638
  137MOL0     H18451   7.090  10.494   8.900 -0.1072 -1.8441 -0.3767
  137MOL0     H18452   6.995  10.435   9.039  0.6422  1.8027  2.9375
  137MOL0     H18453   7.216  10.317   9.138  3.4576  3.5938  0.5593
  137MOL0     H18454   7.298  10.393   9.013  0.2706 -0.3176  4.5087
  137MOL0     H18455   7.210  10.010   8.845  1.8624  1.8255  1.2405
  137MOL0     H18456   7.138   9.786   8.787 -1.0189  4.7020  0.2639
  137MOL0     H18457   7.142   9.708   8.949  1.9444 -1.3175 -1.7624
  137MOL0     H18458   6.984   9.731   8.861  0.3940 -1.9288  2.3123
  137MOL0     H18459   6.673   9.597   8.985  2.6536  0.2887 -0.8864
  137MOL0     H18460   6.526   9.434   9.093 -0.9632 -0.2183  2.0745
  137MOL0     H18461   6.540   9.064   9.249  0.6589 -0.6768  1.0213
  137MOL0     H18462   6.536   9.165   9.100  1.8042  0.0458 -0.9652
  137MOL0     H18463   6.799   9.158   9.116  1.4205 -2.0465  1.7263
  137MOL0     H18464   6.786   9.063   9.264  4.0830 -1.4809 -1.6505
  137MOL0     H18465   6.836   8.947   9.030  0.6698  1.0790 -0.5118
  137MOL0     H18466   6.663   8.976   9.007  2.3837 -2.3589 -2.1530
  137MOL0     H18467   6.721   8.866   9.279 -0.7533 -3.6711  1.1278
  137MOL0     H18468   6.597   8.826   9.158 -0.1132  0.5863 -1.1257
  137MOL0     H18469   6.887   8.719   9.202  2.3025 -1.5205 -2.5330
  137MOL0     H18470   6.801   8.708   9.039 -3.2459 -0.6061  0.5717
  137MOL0     H18471   6.636   8.571   9.146 -1.3224 -0.8878  1.5462
  137MOL0     H18472   6.804   8.513   9.181  0.0405  0.8919  0.1423
  137MOL0     H18473   6.639   8.664   9.367  1.6206  0.5699  0.3351
  137MOL0     H18474   6.803   8.601   9.405 -0.9233  1.3660  0.6446
  137MOL0     H18475   6.553   8.428   9.333 -0.8438 -0.5137  0.8909
  137MOL0     H18476   6.612   8.431   9.501 -0.6899 -1.6374 -0.1511
  137MOL0     H18477   6.822   9.352   9.399 -1.2471  0.7860  1.8449
  137MOL0     H18478   6.947   9.530   9.328 -1.8322  0.7603  1.8370
  137MOL0     H18479   6.884  10.042   9.215 -1.5529 -1.9845 -0.5657
  137MOL0     H18480   6.988  10.247   9.133 -1.7395 -0.8619  1.0733
  137MOL0     H18481   6.547  11.446   9.502 -1.3678 -1.6652  0.6558
  137MOL0     H18482   6.397  11.580   9.645  0.2172 -0.4634 -1.6031
  137MOL0     H18483   6.404  11.810  10.001 -0.0584  1.6495  0.0666
  137MOL0     H18484   6.297  11.976  10.154 -1.8818 -1.2293  1.4752
  137MOL0     H18485   5.907  12.063  10.283  4.9195  1.7058 -0.8450
  137MOL0     H18486   5.886  11.902  10.236  0.0437  2.3712 -2.4271
  137MOL0     H18487   6.003  11.851  10.483 -0.7175  0.1063  2.5516
  137MOL0     H18488   5.837  11.875  10.472 -0.5291  0.8251  3.1849
  137MOL0     H18489   5.921  12.001  10.649  1.0594  2.3172  1.0858
  137MOL0     H18490   5.826  12.081  10.518  0.3463 -1.7565 -1.4826
  137MOL0     H18491   5.996  12.204  10.445 -0.9600  0.4569  0.2014
  137MOL0     H18492   6.129  12.106  10.505  2.1360  2.7363  1.1305
  137MOL0     H18493   6.022  12.312  10.861 -1.8204  0.0546 -0.4683
  137MOL0     H18494   5.997  11.712  10.247  1.8016  1.6421  2.5964
  137MOL0     H18495   6.058  11.553  10.057 -0.1353  0.4095 -0.8768
  138MOL0     O18496   2.045   1.346   5.174  0.3818  0.7795 -0.2535
  138MOL0     C18497   2.147   1.357   5.115 -1.5911 -0.4396  0.5294
  138MOL0     O18498   2.161   1.340   4.972 -0.2284  0.2052 -0.4164
  138MOL0     C18499   2.058   1.321   4.895 -0.2188 -0.6403 -0.2909
  138MOL0     C18500   2.033   1.412   4.796 -0.6159  0.3662 -0.7835
  138MOL0     C18501   1.931   1.399   4.711 -0.4308 -0.6027 -0.4287
  138MOL0     C18502   1.857   1.286   4.718  0.6372 -0.0652 -0.5225
  138MOL0     O18503   1.758   1.254   4.632  0.2827 -0.5515  0.1132
  138MOL0     C18504   1.693   1.349   4.546 -0.3461  0.4326  0.4904
  138MOL0     C18505   1.546   1.306   4.519 -0.4423  0.8621 -1.2406
  138MOL0     C18506   1.531   1.211   4.406  0.6491  0.6907  0.1060
  138MOL0     C18507   1.379   1.177   4.388  0.0974 -0.4591 -0.2551
  138MOL0     C18508   1.326   1.104   4.266 -0.2890 -0.4746  0.0105
  138MOL0     C18509   1.410   0.971   4.246 -0.1070  0.0767  0.3372
  138MOL0     C18510   1.335   0.876   4.145 -0.7480 -0.3660 -0.6818
  138MOL0     C18511   1.380   0.907   4.003 -0.0783  0.3420 -0.1430
  138MOL0     N18512   1.314   0.813   3.909 -1.0638 -0.2190  0.2441
  138MOL0     C18513   1.192   0.832   3.859  0.4622 -0.8154 -0.2730
  138MOL0     C18514   1.167   0.708   3.806 -0.1611  0.7335 -0.5643
  138MOL0     C18515   1.034   0.650   3.753 -0.6619 -0.5576 -0.1624
  138MOL0     C18516   1.047   0.569   3.613  1.0191 -0.2947 -1.1436
  138MOL0     C18517   0.912   0.579   3.539  0.7773  0.3417  0.2782
  138MOL0     C18518   0.806   0.496   3.607  0.6526  0.3323 -0.4301
  138MOL0     O18519   0.690   0.529   3.543 -0.0310 -0.0552 -0.0780
  138MOL0     C18520   0.614   0.638   3.583  0.0783 -0.4033 -0.1659
  138MOL0     C18521   0.636   0.703   3.706  0.0796 -0.4497  0.4314
  138MOL0     C18522   0.555   0.808   3.758 -0.5955  1.4580 -0.2155
  138MOL0     C18523   0.585   0.874   3.892  0.2342 -0.0489 -1.1685
  138MOL0     C18524   0.448   0.844   3.676  0.2165  0.6537  0.2685
  138MOL0     C18525   0.349   0.955   3.701  0.3340  0.1107  0.5182
  138MOL0     O18526   0.282   1.006   3.593 -0.7077  0.2879  0.4176
  138MOL0     C18527   0.177   1.084   3.625 -0.1659 -0.5546  0.2330
  138MOL0     C18528   0.181   1.221   3.608  0.6764  0.4067  0.7348
  138MOL0     C18529   0.072   1.303   3.635 -0.4897 -0.0795 -0.0319
  138MOL0     C18530  -0.048   1.247   3.677  0.4717 -0.7064  0.6443
  138MOL0     O18531  -0.166   1.315   3.705 -0.3461  0.1761  0.2652
  138MOL0     C18532  -0.170   1.458   3.736 -0.9849  0.9705 -0.7972
  138MOL0     C18533  -0.128   1.484   3.884 -0.0698 -0.5143 -0.3323
  138MOL0     C18534   0.015   1.456   3.910  0.4659 -0.8872 -0.1150
  138MOL0     C18535   0.057   1.499   4.051  0.2309  0.2074  0.2391
  138MOL0     C18536   0.186   1.421   4.085 -0.0602  0.6112 -0.0421
  138MOL0     C18537   0.300   1.424   3.980  0.2420  0.1508  0.2114
  138MOL0     C18538   0.436   1.372   4.032  0.0026  0.6714 -0.2482
  138MOL0     C18539   0.432   1.222   4.024 -0.3228 -0.4324 -0.9493
  138MOL0    Cl18540   0.510   1.141   4.166 -0.2353 -0.0173  0.3907
  138MOL0     C18541  -0.056   1.112   3.703  0.0287  0.4890  0.3722
  138MOL0     C18542   0.051   1.031   3.669  0.0858 -0.7326 -0.5408
  138MOL0     O18543   0.316   0.991   3.817  0.0671 -0.0450  0.2427
  138MOL0     C18544   0.417   0.765   3.557  0.5346  0.6640  0.3879
  138MOL0     C18545   0.501   0.666   3.512 -0.9276  0.4552 -0.1485
  138MOL0     N18546   1.289   0.637   3.790 -0.2732  0.5179 -0.2328
  138MOL0     N18547   1.385   0.708   3.848  0.2160  0.7263  0.2223
  138MOL0     C18548   1.880   1.190   4.818 -0.1527  1.1343  0.3324
  138MOL0     C18549   1.985   1.207   4.919  0.5380  0.5920 -0.5358
  138MOL0     C18550   2.275   1.396   5.180 -0.1095 -0.7510 -1.2281
  138MOL0     C18551   2.374   1.459   5.111 -1.7812 -0.6387 -0.4925
  138MOL0     C18552   2.491   1.509   5.177  0.7204 -0.1426  0.4779
  138MOL0     C18553   2.502   1.502   5.315  0.0828  0.7795 -0.0302
  138MOL0     O18554   2.627   1.554   5.360  0.3072 -1.2750 -0.4354
  138MOL0     C18555   2.634   1.603   5.498  0.5549  0.9688 -0.2855
  138MOL0     C18556   2.758   1.672   5.534 -0.2747 -0.6683  0.1411
  138MOL0     C18557   2.888   1.593   5.553  0.2844  0.2374 -1.9273
  138MOL0     C18558   3.006   1.690   5.579 -0.6141 -0.2444 -0.3657
  138MOL0     C18559   3.127   1.661   5.486  0.4458 -0.0606 -0.6541
  138MOL0     C18560   3.218   1.632   5.400  0.8264 -0.5877  0.3483
  138MOL0     C18561   2.394   1.446   5.386  0.0445 -0.6973  0.6584
  138MOL0     C18562   2.285   1.395   5.316  0.4582  1.5447 -0.1210
  138MOL0     H18563   2.099   1.498   4.792 -1.6795  1.1856 -1.6418
  138MOL0     H18564   1.924   1.476   4.635  2.6185  1.4897  1.2276
  138MOL0     H18565   1.696   1.449   4.589 -1.0834  0.7439 -0.1365
  138MOL0     H18566   1.736   1.347   4.445 -0.9552 -1.1088  0.2277
  138MOL0     H18567   1.498   1.267   4.609  0.3132  3.2465  0.2871
  138MOL0     H18568   1.494   1.401   4.505  2.8760  3.0915  0.3093
  138MOL0     H18569   1.576   1.257   4.317  1.7841 -1.0060 -0.2533
  138MOL0     H18570   1.568   1.109   4.424 -2.7805 -0.5690  0.8427
  138MOL0     H18571   1.347   1.117   4.474  3.7890  0.0050  1.6467
  138MOL0     H18572   1.318   1.267   4.389  0.2321 -0.3006  2.4411
  138MOL0     H18573   1.220   1.079   4.277 -1.4292  3.4092 -0.6676
  138MOL0     H18574   1.323   1.150   4.166 -1.3581 -2.0949 -0.7549
  138MOL0     H18575   1.517   0.983   4.224  0.9438 -1.5990  3.7938
  138MOL0     H18576   1.408   0.917   4.341  1.5410  0.8794  0.8865
  138MOL0     H18577   1.365   0.772   4.162 -0.3267 -0.5134 -2.1978
  138MOL0     H18578   1.228   0.880   4.168 -0.1029 -0.2869  2.8528
  138MOL0     H18579   1.488   0.890   3.994  0.4514  3.6339 -1.5217
  138MOL0     H18580   1.349   1.009   3.976 -0.6304  0.7599  1.8585
  138MOL0     H18581   1.142   0.924   3.884  2.7690  0.0772  1.4534
  138MOL0     H18582   1.004   0.584   3.835  0.8383 -0.8842  0.1578
  138MOL0     H18583   0.965   0.733   3.735 -0.4466 -1.0112 -3.8859
  138MOL0     H18584   1.074   0.466   3.636 -0.0141  0.3328  4.0044
  138MOL0     H18585   1.121   0.623   3.553  1.8573 -1.0581 -0.8347
  138MOL0     H18586   0.909   0.534   3.439  0.5121  1.2543 -0.1364
  138MOL0     H18587   0.882   0.683   3.523 -0.6998 -0.5314 -3.9171
  138MOL0     H18588   0.820   0.505   3.715  0.6323  0.3685 -0.4304
  138MOL0     H18589   0.825   0.391   3.582  2.0897  0.0959  1.3944
  138MOL0     H18590   0.720   0.680   3.771  0.0530 -0.7088  0.3747
  138MOL0     H18591   0.530   0.817   3.967 -0.6450  1.8092 -0.3408
  138MOL0     H18592   0.692   0.871   3.914 -0.0349  0.5140  0.2882
  138MOL0     H18593   0.555   0.979   3.892 -1.2139 -0.4263 -2.0010
  138MOL0     H18594   0.269   1.275   3.573 -1.7938  3.5722 -1.1141
  138MOL0     H18595   0.077   1.409   3.611  2.3744  0.0061  0.5506
  138MOL0     H18596  -0.097   1.514   3.677  0.9513  0.9912  1.4421
  138MOL0     H18597  -0.272   1.493   3.718 -1.1206  0.7649 -0.4468
  138MOL0     H18598  -0.147   1.582   3.927  1.0052 -1.2357  1.9524
  138MOL0     H18599  -0.194   1.433   3.955 -2.1261  3.4278  0.8768
  138MOL0     H18600   0.077   1.499   3.831 -0.6913  1.8621  0.3576
  138MOL0     H18601   0.024   1.347   3.905  0.5798 -0.8962  0.2121
  138MOL0     H18602   0.081   1.606   4.050 -0.5601  0.4471  2.5628
  138MOL0     H18603  -0.015   1.475   4.129  1.6230 -2.7878  0.7415
  138MOL0     H18604   0.172   1.313   4.093  4.0034 -0.3507 -2.6916
  138MOL0     H18605   0.209   1.459   4.184 -0.4821  2.4598 -0.6200
  138MOL0     H18606   0.268   1.360   3.897 -2.8084  0.6364  0.9114
  138MOL0     H18607   0.316   1.521   3.932  1.3543 -1.3498 -2.7926
  138MOL0     H18608   0.451   1.408   4.134  1.5037 -1.5472  0.3901
  138MOL0     H18609   0.520   1.414   3.977  0.8094 -0.9817 -0.3614
  138MOL0     H18610   0.485   1.201   3.931 -0.5570  1.5594 -1.5777
  138MOL0     H18611   0.330   1.182   4.022 -1.7411  2.6820 -5.3678
  138MOL0     H18612  -0.142   1.059   3.743  1.7666 -2.1748  0.8568
  138MOL0     H18613   0.054   0.923   3.680 -0.8093 -0.7007  0.1064
  138MOL0     H18614   0.333   0.780   3.489  1.1754  1.3741 -0.2642
  138MOL0     H18615   0.484   0.601   3.426  0.9952  1.1299 -1.1067
  138MOL0     H18616   1.825   1.096   4.817 -1.1838  1.7302 -0.1954
  138MOL0     H18617   2.014   1.140   4.999 -1.9239  1.8494  1.5268
  138MOL0     H18618   2.363   1.479   5.005  0.3825  1.4492 -0.4231
  138MOL0     H18619   2.569   1.557   5.119 -0.4748  2.1762  0.6678
  138MOL0     H18620   2.557   1.681   5.492 -0.9294 -0.4637 -0.6596
  138MOL0     H18621   2.626   1.528   5.578 -0.4946  1.0759 -0.2807
  138MOL0     H18622   2.745   1.726   5.628 -1.4577 -2.1438  0.8734
  138MOL0     H18623   2.768   1.743   5.452  0.1386 -0.2663  0.5292
  138MOL0     H18624   2.907   1.521   5.472 -1.1355 -2.8527  0.3062
  138MOL0     H18625   2.900   1.538   5.647  0.3284  0.2434 -1.9294
  138MOL0     H18626   3.037   1.686   5.684 -0.8756 -2.1033 -0.3298
  138MOL0     H18627   2.960   1.790   5.574  1.1028  0.5848 -0.1928
  138MOL0     H18628   3.293   1.616   5.325  3.2942  1.9465  2.0502
  138MOL0     H18629   2.389   1.425   5.493  1.2117  1.1955  1.1417
  138MOL0     H18630   2.205   1.339   5.365  2.1159 -0.3905  0.5316
  139MOL0     O18631   5.369   7.219   6.115 -0.1779 -0.2967 -0.7514
  139MOL0     C18632   5.433   7.178   6.018 -0.5850  0.4619 -0.5582
  139MOL0     O18633   5.554   7.105   6.028 -0.8400 -0.6364 -0.2201
  139MOL0     C18634   5.613   7.098   6.151 -0.2313  0.5088 -0.4689
  139MOL0     C18635   5.668   7.208   6.213 -0.0984 -0.7120 -0.1881
  139MOL0     C18636   5.734   7.201   6.331 -0.3094 -0.3353  1.0803
  139MOL0     C18637   5.745   7.084   6.397  0.5162  0.4686 -0.4112
  139MOL0     O18638   5.821   7.064   6.517 -1.0220 -0.2324  0.0760
  139MOL0     C18639   5.948   7.142   6.514  0.0683 -0.0981  0.5999
  139MOL0     C18640   6.050   7.122   6.402 -0.3011 -0.7198  0.5834
  139MOL0     C18641   6.148   7.240   6.394 -0.3005 -0.2261  0.4405
  139MOL0     C18642   6.246   7.256   6.520 -0.2670  0.4308 -0.1503
  139MOL0     C18643   6.382   7.324   6.480  0.2501 -0.0901 -0.4967
  139MOL0     C18644   6.483   7.245   6.411  0.3588  0.9979 -0.2572
  139MOL0     C18645   6.612   7.322   6.365  0.2639 -0.1312  0.4499
  139MOL0     C18646   6.727   7.217   6.356 -0.2147  0.1053 -0.1477
  139MOL0     N18647   6.814   7.193   6.477  0.2402  0.3122 -0.1314
  139MOL0     C18648   6.792   7.116   6.592  0.7548  0.2069  0.5371
  139MOL0     C18649   6.901   7.123   6.677  0.4888  0.0507 -0.1478
  139MOL0     C18650   6.935   7.046   6.799 -0.7927  0.5604  0.4690
  139MOL0     C18651   6.892   6.899   6.810 -0.6735 -0.6920  0.3461
  139MOL0     C18652   6.951   6.849   6.944 -0.9216 -0.5805 -0.2419
  139MOL0     C18653   6.910   6.706   6.965  0.8519 -0.1928 -0.1571
  139MOL0     O18654   7.023   6.625   6.952 -0.0983 -1.3147  0.1257
  139MOL0     C18655   7.007   6.492   6.992  0.6863 -0.6320 -0.1725
  139MOL0     C18656   7.122   6.416   6.996  0.1312 -0.3585  0.1011
  139MOL0     C18657   7.120   6.280   7.036 -0.4417  0.6598  0.0846
  139MOL0     C18658   7.248   6.203   7.024  0.3054  0.0658 -0.1848
  139MOL0     C18659   7.002   6.220   7.088  0.0307  0.3148  0.2150
  139MOL0     C18660   6.997   6.082   7.147  0.1083 -0.5153 -1.0579
  139MOL0     O18661   7.104   6.025   7.198  0.7152  0.7165 -0.2374
  139MOL0     C18662   7.114   5.972   7.322  0.6029 -0.8131 -0.6978
  139MOL0     C18663   7.233   5.921   7.357 -0.0240 -0.0525 -1.2296
  139MOL0     C18664   7.257   5.856   7.475  0.1236 -0.1575 -0.4291
  139MOL0     C18665   7.158   5.855   7.574 -0.1329  0.7984  1.1954
  139MOL0     O18666   7.177   5.786   7.683  0.1135  0.3909 -0.0627
  139MOL0     C18667   7.288   5.827   7.772  0.7477 -0.8299  0.1531
  139MOL0     C18668   7.278   5.800   7.920  0.7870 -0.6655  0.6064
  139MOL0     C18669   7.255   5.641   7.933 -0.0054  0.0310  0.0910
  139MOL0     C18670   7.206   5.604   8.075 -0.7507 -0.3161 -0.1122
  139MOL0     C18671   7.207   5.452   8.105 -0.6383 -0.8802 -0.2192
  139MOL0     C18672   7.130   5.412   8.233 -0.4904 -0.6352 -0.4162
  139MOL0     C18673   7.173   5.494   8.354 -0.0720 -0.1213 -0.0161
  139MOL0     C18674   7.116   5.431   8.482  0.5803 -0.8527  0.1657
  139MOL0    Cl18675   7.193   5.507   8.629  0.1801 -0.6914  0.1510
  139MOL0     C18676   7.035   5.905   7.544 -0.0193  0.5330 -0.5816
  139MOL0     C18677   7.006   5.957   7.414  0.2828  0.0794  1.0151
  139MOL0     O18678   6.886   6.028   7.147  0.3376 -0.4918 -0.7591
  139MOL0     C18679   6.894   6.301   7.106  0.4229 -0.3788  0.4365
  139MOL0     C18680   6.891   6.431   7.060 -0.1464  0.1258 -0.0734
  139MOL0     N18681   6.989   7.195   6.608  0.2859  0.8150  0.0628
  139MOL0     N18682   6.936   7.233   6.494 -0.0836  0.2471 -0.8335
  139MOL0     C18683   5.680   6.970   6.351 -0.4353  0.1776 -0.1796
  139MOL0     C18684   5.623   6.976   6.215  0.0280 -0.2922  0.1616
  139MOL0     C18685   5.376   7.189   5.886 -0.3815 -1.3438  0.0133
  139MOL0     C18686   5.436   7.138   5.767  0.3574  0.2234  0.8500
  139MOL0     C18687   5.373   7.146   5.644 -0.6356  0.4939 -0.3401
  139MOL0     C18688   5.258   7.216   5.628  1.0950 -0.4162 -0.0882
  139MOL0     O18689   5.190   7.227   5.508 -0.6947  0.0345  0.6413
  139MOL0     C18690   5.194   7.121   5.413  0.0017  0.5963 -0.1900
  139MOL0     C18691   5.105   6.989   5.457  0.0687  0.6251  0.1395
  139MOL0     C18692   5.136   6.854   5.384  0.0874  0.5732 -0.1521
  139MOL0     C18693   5.027   6.756   5.394  0.5462  0.0178  0.4929
  139MOL0     C18694   5.076   6.618   5.363 -0.6024 -0.2922 -0.4320
  139MOL0     C18695   5.108   6.504   5.344  0.3421 -0.7514 -1.1407
  139MOL0     C18696   5.208   7.294   5.730  0.3954  0.5275 -0.9133
  139MOL0     C18697   5.256   7.272   5.863  0.4249  0.1945 -0.2172
  139MOL0     H18698   5.655   7.307   6.169 -5.2284  0.3676  2.8911
  139MOL0     H18699   5.799   7.282   6.361  0.9741 -0.9638  0.1013
  139MOL0     H18700   5.916   7.246   6.522 -1.8573 -0.4763 -1.3196
  139MOL0     H18701   6.008   7.122   6.603 -1.8530  0.4359  2.0995
  139MOL0     H18702   6.094   7.023   6.409  0.3126 -0.4428  0.7126
  139MOL0     H18703   5.988   7.130   6.312 -0.3200  2.3753  0.7653
  139MOL0     H18704   6.206   7.223   6.303 -0.5207 -1.3956  0.5050
  139MOL0     H18705   6.099   7.336   6.375 -0.3781 -0.2914  0.3124
  139MOL0     H18706   6.189   7.311   6.595 -2.1321 -4.3502  2.3742
  139MOL0     H18707   6.262   7.163   6.576  0.0815  0.7455  0.2748
  139MOL0     H18708   6.363   7.403   6.407  0.2541 -0.3242 -0.7556
  139MOL0     H18709   6.438   7.365   6.564  0.3958 -2.3327  0.5818
  139MOL0     H18710   6.514   7.164   6.477 -0.4415 -0.0257 -1.1069
  139MOL0     H18711   6.445   7.201   6.319  3.7716  2.5069 -2.6097
  139MOL0     H18712   6.611   7.360   6.262  0.3265 -0.6895  0.2422
  139MOL0     H18713   6.646   7.403   6.430  0.8270 -1.6417  2.1048
  139MOL0     H18714   6.798   7.259   6.284  0.9332 -0.5933  0.5447
  139MOL0     H18715   6.691   7.124   6.313  1.2332  0.4270 -2.2036
  139MOL0     H18716   6.713   7.045   6.614  1.8870 -1.7895 -1.3575
  139MOL0     H18717   7.043   7.046   6.818 -0.4926 -2.0971 -0.7773
  139MOL0     H18718   6.892   7.103   6.883 -0.9028 -2.0626  2.3041
  139MOL0     H18719   6.930   6.833   6.731  2.2495 -0.9083  1.7724
  139MOL0     H18720   6.783   6.894   6.814 -0.9961  2.3199 -1.7221
  139MOL0     H18721   6.903   6.901   7.028 -0.7092 -2.0146  0.7965
  139MOL0     H18722   7.060   6.857   6.948 -0.8592 -1.4469  2.7024
  139MOL0     H18723   6.833   6.680   6.891  2.4519 -0.9782 -1.6148
  139MOL0     H18724   6.862   6.688   7.061  4.2708 -2.6327  1.3056
  139MOL0     H18725   7.215   6.463   6.966  0.2745  0.7326  2.0818
  139MOL0     H18726   7.239   6.104   6.978  0.8384 -1.2583  2.4200
  139MOL0     H18727   7.322   6.266   6.974  0.4568  0.2832  0.3141
  139MOL0     H18728   7.288   6.192   7.125  1.4494 -0.9864 -0.7228
  139MOL0     H18729   7.306   5.921   7.277  1.7637  0.1565  0.3468
  139MOL0     H18730   7.348   5.797   7.483 -0.7379 -1.9430 -2.7147
  139MOL0     H18731   7.370   5.766   7.734  0.9045 -0.6249  0.1608
  139MOL0     H18732   7.307   5.934   7.766  4.2833 -1.3625 -0.3724
  139MOL0     H18733   7.365   5.835   7.976 -1.1637  0.5423  3.0564
  139MOL0     H18734   7.194   5.863   7.951 -1.8706 -4.0760  0.9629
  139MOL0     H18735   7.350   5.592   7.909  1.2766  1.0263  2.6998
  139MOL0     H18736   7.184   5.593   7.865  0.2733  0.3566 -0.4386
  139MOL0     H18737   7.259   5.656   8.155 -1.7663  1.4276 -0.5109
  139MOL0     H18738   7.100   5.630   8.087 -0.6833  1.2924 -2.4111
  139MOL0     H18739   7.306   5.406   8.103 -0.2363 -0.0386 -0.0522
  139MOL0     H18740   7.159   5.407   8.018 -1.4520  0.6822 -0.6051
  139MOL0     H18741   7.022   5.423   8.213 -1.0159 -2.7305  1.0169
  139MOL0     H18742   7.145   5.304   8.239  0.1083 -0.5065  0.5228
  139MOL0     H18743   7.141   5.598   8.348  3.0793  0.9372 -5.2901
  139MOL0     H18744   7.282   5.482   8.356 -0.3092 -2.9511 -0.0405
  139MOL0     H18745   7.133   5.323   8.480  1.7052 -0.6787 -1.6141
  139MOL0     H18746   7.008   5.451   8.488  0.5372 -0.6711 -1.0626
  139MOL0     H18747   6.967   5.898   7.629 -0.2354  2.0495 -0.5905
  139MOL0     H18748   6.905   5.986   7.385 -0.7661  3.0708  6.4072
  139MOL0     H18749   6.801   6.256   7.140  1.0890 -3.5511 -1.5883
  139MOL0     H18750   6.810   6.501   7.078 -0.2705 -0.4129  1.5841
  139MOL0     H18751   5.669   6.885   6.417  1.7618  2.0806  2.9056
  139MOL0     H18752   5.566   6.892   6.178  0.8093 -1.9838  2.5389
  139MOL0     H18753   5.515   7.068   5.794 -1.6433 -1.5469  2.4461
  139MOL0     H18754   5.410   7.095   5.556 -3.5237  0.3634 -1.5916
  139MOL0     H18755   5.148   7.160   5.322 -2.3432 -1.2682  0.0978
  139MOL0     H18756   5.293   7.084   5.384 -2.0533 -5.6210 -0.6791
  139MOL0     H18757   5.003   7.018   5.431  1.5301  3.1352 -3.6033
  139MOL0     H18758   5.104   6.986   5.567  0.8233  1.9048  0.1902
  139MOL0     H18759   5.225   6.816   5.435  1.9046 -2.9445 -5.2224
  139MOL0     H18760   5.163   6.872   5.280 -2.6818  0.8839 -0.9054
  139MOL0     H18761   4.940   6.786   5.334  0.4551 -2.6981 -0.8856
  139MOL0     H18762   4.987   6.758   5.496  2.0893  0.9178  1.1070
  139MOL0     H18763   5.147   6.409   5.314  1.2805 -1.5142  2.1554
  139MOL0     H18764   5.123   7.359   5.714 -0.7336 -0.1481  1.7520
  139MOL0     H18765   5.188   7.310   5.939 -1.7989  0.2212 -2.0854
  140MOL0     O18766   9.118   9.060   0.522  0.0820 -0.3503  0.0343
  140MOL0     C18767   9.182   9.150   0.587 -0.2594 -0.3493 -0.6863
  140MOL0     O18768   9.154   9.290   0.583 -0.4971  0.3668 -0.6391
  140MOL0     C18769   9.058   9.320   0.489 -0.7612 -0.0245 -0.2212
  140MOL0     C18770   8.932   9.330   0.540  0.7358  1.0821 -0.2723
  140MOL0     C18771   8.825   9.380   0.462 -0.0508 -0.2678 -0.4943
  140MOL0     C18772   8.854   9.429   0.338  1.3188 -0.5394 -0.2943
  140MOL0     O18773   8.757   9.488   0.272  0.0828 -0.1447 -0.3557
  140MOL0     C18774   8.709   9.404   0.167 -0.0544 -0.2802 -0.6161
  140MOL0     C18775   8.602   9.484   0.089 -0.6354  0.0648 -0.3797
  140MOL0     C18776   8.478   9.542   0.173 -0.9880 -0.0567 -0.4371
  140MOL0     C18777   8.406   9.650   0.095  0.2358  0.5135 -0.5803
  140MOL0     C18778   8.334   9.740   0.199 -0.3132  0.2392 -0.6027
  140MOL0     C18779   8.203   9.682   0.248 -0.4072  0.4506  0.2684
  140MOL0     C18780   8.122   9.782   0.326  0.7398  0.3706 -1.2147
  140MOL0     C18781   8.015   9.713   0.415  1.4458 -0.0894  0.4683
  140MOL0     N18782   7.890   9.675   0.350 -0.3162  0.6452  0.3305
  140MOL0     C18783   7.867   9.621   0.224  0.0651  0.6981 -0.2010
  140MOL0     C18784   7.737   9.587   0.218 -0.0820 -0.3800  0.5245
  140MOL0     C18785   7.665   9.559   0.084 -0.3242  1.3272 -0.1071
  140MOL0     C18786   7.529   9.493   0.093 -0.5504  0.1421  0.5376
  140MOL0     C18787   7.540   9.336   0.097  0.7225  0.0476 -0.5166
  140MOL0     C18788   7.621   9.258  -0.011 -0.7301 -0.2484 -0.4596
  140MOL0     O18789   7.653   9.132   0.054 -0.1456  0.0185 -0.1546
  140MOL0     C18790   7.564   9.033   0.059  0.3291  0.4087  0.2277
  140MOL0     C18791   7.601   8.919   0.133  0.5798 -0.2938  0.1962
  140MOL0     C18792   7.512   8.811   0.150  1.0122  0.1688  0.0778
  140MOL0     C18793   7.534   8.724   0.269 -0.9644  0.9076 -0.4066
  140MOL0     C18794   7.401   8.804   0.067 -0.7753  0.8664 -0.4130
  140MOL0     C18795   7.312   8.689   0.067  0.2224 -0.0781 -0.5320
  140MOL0     O18796   7.185   8.713   0.065 -0.6108 -1.2663  0.4755
  140MOL0     C18797   7.098   8.614   0.065  0.0238  1.3107  0.2353
  140MOL0     C18798   7.014   8.591   0.175  0.4766  0.4605 -0.9431
  140MOL0     C18799   6.930   8.475   0.170  0.4480  0.3397  0.6945
  140MOL0     C18800   6.920   8.393   0.063  0.1094  0.3956  0.5729
  140MOL0     O18801   6.856   8.269   0.052  1.3683 -0.1943 -0.8547
  140MOL0     C18802   6.727   8.257   0.121  0.0602 -0.2761 -0.5789
  140MOL0     C18803   6.610   8.345   0.088 -1.0522  0.0278  0.2764
  140MOL0     C18804   6.500   8.281   0.007  0.1520  0.4201 -0.2695
  140MOL0     C18805   6.424   8.167   0.086  0.5432  0.7023  0.2889
  140MOL0     C18806   6.358   8.067  -0.012 -0.7993 -0.2666 -0.3488
  140MOL0     C18807   6.255   8.122  -0.108  0.9818  0.5951  1.2549
  140MOL0     C18808   6.139   8.208  -0.046 -0.5431  0.0795 -0.0040
  140MOL0     C18809   6.038   8.262  -0.147 -0.4443 -0.2271 -0.3117
  140MOL0    Cl18810   6.123   8.367  -0.261 -0.1321 -0.0401 -0.0685
  140MOL0     C18811   7.011   8.428  -0.045  0.1573 -0.5242 -0.2673
  140MOL0     C18812   7.092   8.538  -0.049 -0.4613  1.0163 -0.0141
  140MOL0     O18813   7.365   8.576   0.088  0.4204 -0.1779  0.5039
  140MOL0     C18814   7.368   8.915  -0.011 -1.3344 -0.4566 -0.1239
  140MOL0     C18815   7.437   9.037   0.003  0.1123  0.4980 -0.0140
  140MOL0     N18816   7.678   9.624   0.339 -0.8701 -0.0332  0.2043
  140MOL0     N18817   7.770   9.671   0.415  0.2406 -0.1286  0.0526
  140MOL0     C18818   8.988   9.438   0.294 -0.4455 -0.3331 -0.5013
  140MOL0     C18819   9.089   9.376   0.364  0.2013  0.8553  0.9988
  140MOL0     C18820   9.297   9.109   0.681 -0.0314  0.7213 -0.1520
  140MOL0     C18821   9.317   8.971   0.704 -0.2402  0.3429 -0.1410
  140MOL0     C18822   9.412   8.933   0.801 -0.1241 -0.4553  0.3482
  140MOL0     C18823   9.476   9.027   0.884  0.0018 -0.4484 -1.3537
  140MOL0     O18824   9.551   8.989   0.990  0.6560 -0.7243 -0.3771
  140MOL0     C18825   9.627   9.091   1.070 -0.3970  0.2597 -0.6793
  140MOL0     C18826   9.735   9.030   1.164 -0.7870 -0.5463  0.1079
  140MOL0     C18827   9.795   9.147   1.243 -0.1569 -0.9839 -0.3720
  140MOL0     C18828   9.921   9.118   1.326 -0.8496 -0.3435 -0.3505
  140MOL0     C18829  10.000   9.233   1.341  0.3809  0.2888  0.0287
  140MOL0     C18830  10.068   9.328   1.348 -0.0572 -0.5700 -0.2286
  140MOL0     C18831   9.449   9.161   0.857  2.0848 -1.0310 -0.7199
  140MOL0     C18832   9.364   9.202   0.762 -0.2421  0.2472  0.6204
  140MOL0     H18833   8.900   9.304   0.640  0.5403  0.1395 -0.5706
  140MOL0     H18834   8.722   9.380   0.497 -0.6167 -2.8041 -1.8612
  140MOL0     H18835   8.787   9.382   0.094 -1.1167 -1.1837 -1.5115
  140MOL0     H18836   8.674   9.311   0.213  2.6650 -1.8044 -1.3584
  140MOL0     H18837   8.662   9.562   0.042 -0.1816  0.7970  1.3304
  140MOL0     H18838   8.562   9.414   0.015  0.1834 -3.0765  1.9427
  140MOL0     H18839   8.401   9.476   0.214 -2.1435 -0.1055 -2.5472
  140MOL0     H18840   8.530   9.590   0.257  0.1417  0.7741 -1.5715
  140MOL0     H18841   8.482   9.715   0.050 -0.2960  1.2286 -0.4542
  140MOL0     H18842   8.340   9.618   0.013  1.5492 -0.6826 -1.2296
  140MOL0     H18843   8.396   9.759   0.287 -3.7106 -3.1854  2.9768
  140MOL0     H18844   8.314   9.841   0.161  0.0064  1.1773  1.5691
  140MOL0     H18845   8.152   9.646   0.159  2.8343 -1.0807 -1.1660
  140MOL0     H18846   8.223   9.591   0.306  2.0951  1.2656  0.8440
  140MOL0     H18847   8.186   9.844   0.388  0.3908  1.9564 -2.3911
  140MOL0     H18848   8.082   9.852   0.252  2.2493 -0.6441 -3.1029
  140MOL0     H18849   7.998   9.771   0.506  4.9960  0.5270  0.8894
  140MOL0     H18850   8.062   9.625   0.460 -3.3791 -3.5224 -0.3832
  140MOL0     H18851   7.936   9.625   0.141 -0.6605 -0.2417 -0.8740
  140MOL0     H18852   7.646   9.655   0.036  0.7716  2.3561  1.4274
  140MOL0     H18853   7.737   9.506   0.021  0.4657 -0.7000  2.3334
  140MOL0     H18854   7.477   9.525   0.002 -3.1238  1.3002  2.2779
  140MOL0     H18855   7.474   9.540   0.175  0.8629  1.0079  1.0156
  140MOL0     H18856   7.437   9.298   0.095  0.0059  1.7791  0.8348
  140MOL0     H18857   7.580   9.328   0.199 -1.1786  3.6373  0.6757
  140MOL0     H18858   7.713   9.316  -0.023 -3.2653  4.7346  1.2311
  140MOL0     H18859   7.556   9.253  -0.099 -0.4236  0.7204 -0.7558
  140MOL0     H18860   7.696   8.924   0.185  0.1191  0.1943  1.0004
  140MOL0     H18861   7.574   8.788   0.348  4.1134 -1.9574 -0.1986
  140MOL0     H18862   7.450   8.658   0.292  0.1920 -0.6570 -0.5064
  140MOL0     H18863   7.612   8.650   0.248 -1.7615 -1.4097  3.7657
  140MOL0     H18864   6.998   8.655   0.261  1.6967  0.6359 -0.8330
  140MOL0     H18865   6.873   8.447   0.258 -2.0698 -1.5637 -1.3748
  140MOL0     H18866   6.700   8.153   0.105  1.7204 -0.9235  0.5081
  140MOL0     H18867   6.743   8.277   0.228 -2.4881  3.8269 -0.7345
  140MOL0     H18868   6.572   8.385   0.182 -0.9743 -0.0877  0.3566
  140MOL0     H18869   6.642   8.430   0.026  0.2654 -0.7094 -0.0951
  140MOL0     H18870   6.541   8.239  -0.085 -1.6775 -1.2100 -0.4035
  140MOL0     H18871   6.435   8.361  -0.030  1.5009  0.7825 -1.9416
  140MOL0     H18872   6.498   8.116   0.148 -0.2221  2.0530  2.4270
  140MOL0     H18873   6.352   8.215   0.152  0.8405  0.1201  1.0593
  140MOL0     H18874   6.311   7.994   0.054 -2.8703  1.4713  0.2488
  140MOL0     H18875   6.439   8.020  -0.069 -0.0022  2.2117 -1.4244
  140MOL0     H18876   6.308   8.191  -0.174 -1.3250  2.5916  1.3368
  140MOL0     H18877   6.222   8.038  -0.169  0.4899  1.5788  0.1273
  140MOL0     H18878   6.184   8.293   0.006 -0.2315  1.4861 -2.4127
  140MOL0     H18879   6.094   8.141   0.028 -0.7743 -1.7051 -1.6848
  140MOL0     H18880   5.957   8.305  -0.088 -0.1857  0.9973 -0.8268
  140MOL0     H18881   6.000   8.177  -0.203 -2.7924  0.7526 -0.3221
  140MOL0     H18882   7.015   8.353  -0.123  2.8905  0.4098 -1.1230
  140MOL0     H18883   7.162   8.561  -0.129  1.9311  3.1718  2.4671
  140MOL0     H18884   7.280   8.917  -0.075 -0.4656 -0.7894 -1.3827
  140MOL0     H18885   7.421   9.107  -0.078  3.0705 -0.1604 -1.3029
  140MOL0     H18886   9.012   9.480   0.197  2.5148  1.6901  0.9690
  140MOL0     H18887   9.190   9.387   0.324  0.8066  0.0734  2.2383
  140MOL0     H18888   9.272   8.891   0.647  0.5965  1.7785 -3.0257
  140MOL0     H18889   9.432   8.827   0.809 -1.4398 -0.9172 -1.6805
  140MOL0     H18890   9.693   9.153   1.009  2.1023 -1.2903  0.2907
  140MOL0     H18891   9.562   9.156   1.130  2.9914  1.7767  1.6304
  140MOL0     H18892   9.805   8.959   1.120 -1.5357 -0.2653 -1.5919
  140MOL0     H18893   9.691   8.957   1.233 -4.2024 -0.1709 -1.4416
  140MOL0     H18894   9.719   9.196   1.306  1.4412  0.3997  0.5865
  140MOL0     H18895   9.822   9.228   1.175 -1.7831 -0.3384 -0.2903
  140MOL0     H18896   9.975   9.040   1.271 -2.5126  0.2547 -3.0235
  140MOL0     H18897   9.909   9.074   1.426 -0.0942  0.1411 -0.0467
  140MOL0     H18898  10.108   9.427   1.360 -4.3427  1.2807  0.9369
  140MOL0     H18899   9.496   9.236   0.920  0.8377 -0.4122 -0.4801
  140MOL0     H18900   9.343   9.307   0.742  0.3157  0.0961 -0.8977
  141MOL0     O18901   2.726   9.990   0.086  0.6613  0.3674 -0.4570
  141MOL0     C18902   2.623   9.923   0.105  0.1450  0.3137 -0.3476
  141MOL0     O18903   2.572   9.889   0.228  0.1207 -0.0551  0.2452
  141MOL0     C18904   2.621   9.960   0.338 -0.1940  0.0502 -0.6879
  141MOL0     C18905   2.524   9.999   0.421  0.2985 -0.5697 -0.2770
  141MOL0     C18906   2.555  10.077   0.535  0.4181 -1.8389 -0.2596
  141MOL0     C18907   2.688  10.106   0.565  0.5248 -0.7190 -0.5541
  141MOL0     O18908   2.733  10.172   0.675 -0.0349  0.5538 -0.3840
  141MOL0     C18909   2.647  10.277   0.723  0.8125 -0.2404  0.4196
  141MOL0     C18910   2.721  10.397   0.779 -0.0600 -0.0040  1.0766
  141MOL0     C18911   2.812  10.381   0.903 -0.1752  0.2841  0.3410
  141MOL0     C18912   2.952  10.310   0.879  0.0099  0.1074  1.2958
  141MOL0     C18913   3.013  10.279   1.019 -0.8137 -0.4119  0.3449
  141MOL0     C18914   2.971  10.142   1.079 -0.2277 -0.5450  0.6682
  141MOL0     C18915   3.030  10.126   1.217  0.1648 -0.0299 -0.9072
  141MOL0     C18916   3.024   9.984   1.277  0.3563  0.5393  0.7188
  141MOL0     N18917   3.100   9.981   1.400 -0.0661 -0.5567 -0.2576
  141MOL0     C18918   3.069  10.036   1.519 -0.1481 -0.5453 -0.8529
  141MOL0     C18919   3.166  10.008   1.609 -0.6735 -0.0693  0.9530
  141MOL0     C18920   3.178  10.057   1.754 -0.2253  0.8028  0.4413
  141MOL0     C18921   3.285   9.987   1.825  0.3749  0.0138 -0.4440
  141MOL0     C18922   3.264  10.011   1.976  0.0528 -0.7785  0.7664
  141MOL0     C18923   3.340   9.919   2.064 -0.1720  0.4659 -0.2580
  141MOL0     O18924   3.385   9.992   2.183 -0.1804  0.1182  0.8806
  141MOL0     C18925   3.379   9.926   2.301  0.1354 -0.2058  0.0687
  141MOL0     C18926   3.316   9.982   2.405  0.3305  0.3215 -0.3487
  141MOL0     C18927   3.320   9.936   2.536  0.2902 -0.1501  0.1156
  141MOL0     C18928   3.252  10.033   2.632 -0.2708  0.5145 -0.2634
  141MOL0     C18929   3.393   9.811   2.560 -0.1993 -0.8393  0.1705
  141MOL0     C18930   3.397   9.759   2.695 -0.7135  0.2150 -0.1765
  141MOL0     O18931   3.475   9.639   2.706  0.5642 -0.5723  0.9267
  141MOL0     C18932   3.558   9.633   2.814 -0.0232 -0.0010 -0.6112
  141MOL0     C18933   3.521   9.549   2.916  0.5089 -1.1098 -1.0740
  141MOL0     C18934   3.599   9.551   3.039  0.3069  0.3394  0.7941
  141MOL0     C18935   3.720   9.620   3.045  0.1290  0.1425  1.1926
  141MOL0     O18936   3.802   9.625   3.147  0.4829 -1.1547  0.5791
  141MOL0     C18937   3.784   9.555   3.273 -0.0765  0.2978  0.3860
  141MOL0     C18938   3.882   9.605   3.370 -0.0114  0.3718 -0.4068
  141MOL0     C18939   4.016   9.571   3.326 -0.0671 -0.0575  0.4534
  141MOL0     C18940   4.128   9.614   3.426  0.1850  0.4614 -0.1272
  141MOL0     C18941   4.260   9.525   3.413 -0.4920 -0.1636  0.1328
  141MOL0     C18942   4.355   9.576   3.518 -0.0671 -0.5834  1.1126
  141MOL0     C18943   4.472   9.481   3.510  0.0250 -0.1829  0.6442
  141MOL0     C18944   4.560   9.493   3.638  0.3674  0.5110  0.6670
  141MOL0    Cl18945   4.557   9.650   3.733 -0.4229  0.0753  0.1606
  141MOL0     C18946   3.755   9.703   2.939 -0.2138 -1.0161  0.4361
  141MOL0     C18947   3.677   9.715   2.820 -0.4086 -0.5544  0.2839
  141MOL0     O18948   3.347   9.813   2.794  0.0597 -0.3792  0.3053
  141MOL0     C18949   3.456   9.738   2.445 -0.3138 -0.4637 -0.1277
  141MOL0     C18950   3.439   9.801   2.318 -0.2322  0.2812  0.6476
  141MOL0     N18951   3.263   9.941   1.546 -1.1403  0.0298  0.4563
  141MOL0     N18952   3.211   9.916   1.430  0.2733  0.6231 -0.6670
  141MOL0     C18953   2.785  10.068   0.475 -0.1115 -0.1793 -0.1763
  141MOL0     C18954   2.753   9.993   0.364  0.2185 -0.4356 -0.4486
  141MOL0     C18955   2.548   9.887  -0.015  0.3298  0.4416 -0.4904
  141MOL0     C18956   2.622   9.847  -0.127  0.2133  0.2145 -0.1556
  141MOL0     C18957   2.554   9.815  -0.248 -0.0165  0.6236 -1.0452
  141MOL0     C18958   2.418   9.821  -0.253 -0.6377 -0.5159 -0.1453
  141MOL0     O18959   2.359   9.798  -0.375  0.2245  0.3405 -0.1889
  141MOL0     C18960   2.286   9.909  -0.420  0.2249 -0.4001 -0.2122
  141MOL0     C18961   2.285   9.929  -0.571  0.2891 -0.2825  0.5861
  141MOL0     C18962   2.232   9.800  -0.645 -0.4008 -0.7560  0.5534
  141MOL0     C18963   2.106   9.751  -0.594  0.8998 -0.1171  0.3362
  141MOL0     C18964   2.050   9.648  -0.679  0.4573 -0.8018 -0.8018
  141MOL0     C18965   1.995   9.550  -0.724 -0.2440  0.5108  0.7162
  141MOL0     C18966   2.341   9.851  -0.140  0.1607 -0.6284  0.1328
  141MOL0     C18967   2.406   9.878  -0.015 -0.4764  0.4072 -0.4370
  141MOL0     H18968   2.423   9.965   0.398  0.3790 -1.5640  0.7735
  141MOL0     H18969   2.485  10.113   0.609  1.4537  0.9726 -0.5392
  141MOL0     H18970   2.581  10.315   0.644  1.0635 -0.7521 -0.0468
  141MOL0     H18971   2.591  10.228   0.803 -0.2023  2.7375  1.6784
  141MOL0     H18972   2.779  10.449   0.703  2.5521 -0.7910  2.4066
  141MOL0     H18973   2.650  10.476   0.806  0.0288  1.3802 -2.2439
  141MOL0     H18974   2.840  10.482   0.936  1.7874 -0.0439 -0.1956
  141MOL0     H18975   2.759  10.331   0.984 -1.0434  1.9528  0.8570
  141MOL0     H18976   2.955  10.211   0.832  0.0350  1.1784 -1.1084
  141MOL0     H18977   3.016  10.374   0.817  3.5899 -1.9939  2.5134
  141MOL0     H18978   3.121  10.268   1.004 -1.0282 -2.8521  0.1848
  141MOL0     H18979   2.992  10.366   1.082 -1.1889  0.5125 -1.0311
  141MOL0     H18980   2.866  10.114   1.069  0.0099 -1.1826 -0.1194
  141MOL0     H18981   3.021  10.067   1.018 -2.9248 -0.2374 -2.1870
  141MOL0     H18982   3.134  10.162   1.217  0.7862 -1.6875 -0.1029
  141MOL0     H18983   2.969  10.190   1.281 -3.8282 -2.9200 -1.5067
  141MOL0     H18984   3.079   9.910   1.219  2.2929  0.4664  2.5544
  141MOL0     H18985   2.921   9.949   1.295  0.3577 -1.0936 -1.9500
  141MOL0     H18986   2.981  10.097   1.535 -2.2081 -3.5331  0.0999
  141MOL0     H18987   3.199  10.165   1.746 -1.1768  0.9022 -1.2087
  141MOL0     H18988   3.081  10.031   1.796 -0.9602  0.1943 -1.5191
  141MOL0     H18989   3.380  10.017   1.780 -0.0021 -2.2905 -3.0835
  141MOL0     H18990   3.291   9.879   1.811  2.2276  0.1430 -0.8625
  141MOL0     H18991   3.157  10.016   2.001 -0.0581  2.1268  0.0306
  141MOL0     H18992   3.295  10.115   1.985  2.5166 -1.2235 -1.4960
  141MOL0     H18993   3.427   9.878   2.011 -0.7331 -0.4008 -0.5324
  141MOL0     H18994   3.283   9.838   2.111  0.3383  0.7090  0.8391
  141MOL0     H18995   3.258  10.066   2.367 -1.7878 -0.8277  0.2420
  141MOL0     H18996   3.180  10.102   2.588 -1.0669  0.6865  1.2376
  141MOL0     H18997   3.203   9.978   2.713  3.6759  0.4141  2.3525
  141MOL0     H18998   3.326  10.102   2.673 -1.4723 -0.0316  3.1441
  141MOL0     H18999   3.445   9.472   2.903  0.8963 -1.6485 -0.2279
  141MOL0     H19000   3.574   9.480   3.116  2.8313  1.7635  3.0688
  141MOL0     H19001   3.687   9.565   3.323 -0.2137 -2.5088  0.8676
  141MOL0     H19002   3.794   9.446   3.262 -1.9457  0.1245  0.1374
  141MOL0     H19003   3.862   9.710   3.390  2.0753  0.6743  0.2844
  141MOL0     H19004   3.868   9.553   3.466  1.3378 -0.1634 -0.4894
  141MOL0     H19005   4.052   9.638   3.248  1.9121  1.2740  2.4083
  141MOL0     H19006   4.024   9.463   3.306 -1.5303 -0.5911  2.3541
  141MOL0     H19007   4.146   9.722   3.430 -3.0577  1.0807  2.4143
  141MOL0     H19008   4.083   9.592   3.524  0.2674  2.3295  0.3825
  141MOL0     H19009   4.298   9.531   3.310 -0.7909 -1.7554 -0.0984
  141MOL0     H19010   4.245   9.418   3.432  1.0138 -0.9382 -2.5213
  141MOL0     H19011   4.395   9.674   3.490  2.1639 -2.3042 -2.6184
  141MOL0     H19012   4.293   9.581   3.607 -2.5292  0.4498 -0.5555
  141MOL0     H19013   4.531   9.509   3.422  0.5894  3.2147  1.9775
  141MOL0     H19014   4.433   9.379   3.498 -0.8859  0.1540  0.6449
  141MOL0     H19015   4.665   9.472   3.615  0.4997  2.8120 -1.2254
  141MOL0     H19016   4.523   9.414   3.704  1.3053 -1.4591 -1.0458
  141MOL0     H19017   3.845   9.765   2.942  0.0074 -1.3623  1.0810
  141MOL0     H19018   3.708   9.780   2.739  1.2432  1.7094  2.5600
  141MOL0     H19019   3.516   9.651   2.470  1.5074  1.4498  2.6840
  141MOL0     H19020   3.481   9.761   2.227  0.7743 -0.2556  1.3328
  141MOL0     H19021   2.891  10.081   0.495 -0.7818  0.2076  3.9356
  141MOL0     H19022   2.829   9.982   0.287  1.4390  3.9933 -0.1729
  141MOL0     H19023   2.730   9.837  -0.123  0.2112  0.1192 -0.3148
  141MOL0     H19024   2.615   9.781  -0.331  0.0585  0.1490 -0.8026
  141MOL0     H19025   2.183   9.907  -0.385  0.7404  2.2326  1.7887
  141MOL0     H19026   2.331   9.995  -0.369 -2.0087 -0.2902  1.7321
  141MOL0     H19027   2.381   9.969  -0.605 -0.5906  1.8766  0.5037
  141MOL0     H19028   2.209  10.006  -0.587  1.2033  0.6908  0.8862
  141MOL0     H19029   2.306   9.720  -0.650 -0.6097 -0.9915  1.1349
  141MOL0     H19030   2.232   9.833  -0.749  0.5621  1.2932  1.1333
  141MOL0     H19031   2.036   9.835  -0.591  3.0098  1.6934  0.7826
  141MOL0     H19032   2.112   9.715  -0.491  1.2235 -0.4085  0.2154
  141MOL0     H19033   1.958   9.458  -0.764  2.6566 -1.0968  1.5206
  141MOL0     H19034   2.234   9.845  -0.154 -0.0451  1.7945  0.1951
  141MOL0     H19035   2.348   9.911   0.071  1.5207  2.0121  0.3780
  142MOL0     O19036   9.852   1.466   9.756 -0.0451 -0.8790 -0.9197
  142MOL0     C19037   9.864   1.386   9.853  0.0747 -0.2655  0.0925
  142MOL0     O19038   9.752   1.348   9.936  0.0617  0.0311  0.3096
  142MOL0     C19039   9.626   1.398   9.888  0.1199  0.2213  0.6240
  142MOL0     C19040   9.577   1.343   9.764  0.1467 -0.3990  0.9502
  142MOL0     C19041   9.461   1.411   9.705  0.4776  0.3007 -0.1918
  142MOL0     C19042   9.391   1.510   9.769 -0.0151 -0.6538  0.7956
  142MOL0     O19043   9.299   1.569   9.688 -0.1354 -0.4829 -0.1671
  142MOL0     C19044   9.189   1.628   9.756 -0.4620  0.1594 -0.6482
  142MOL0     C19045   9.100   1.706   9.666  0.1474  0.2196 -0.3137
  142MOL0     C19046   9.174   1.826   9.611  1.3255  0.2925  0.3361
  142MOL0     C19047   9.092   1.960   9.629 -1.1937 -0.0978  0.2426
  142MOL0     C19048   9.148   2.032   9.757  0.5231  0.9025  0.3447
  142MOL0     C19049   9.060   2.160   9.785 -0.0886  1.1323  1.0762
  142MOL0     C19050   9.094   2.209   9.936 -0.8588 -0.0537  0.3122
  142MOL0     C19051   9.235   2.279   9.942  0.4658 -0.4253 -0.5800
  142MOL0     N19052   9.245   2.399   9.854 -0.2547  0.0569  0.2810
  142MOL0     C19053   9.155   2.503   9.840  0.1647 -0.2702 -0.1870
  142MOL0     C19054   9.204   2.574   9.742  0.1806 -0.2916  1.3918
  142MOL0     C19055   9.148   2.706   9.693 -0.1496  0.4342 -0.2882
  142MOL0     C19056   9.042   2.694   9.582 -0.2481  0.3024  0.7218
  142MOL0     C19057   8.906   2.643   9.629 -0.2622  0.8688 -0.4708
  142MOL0     C19058   8.815   2.630   9.510 -0.3487 -0.3725 -0.6496
  142MOL0     O19059   8.701   2.578   9.572 -0.3037 -0.0086 -0.1849
  142MOL0     C19060   8.683   2.447   9.592 -0.4338 -0.3654  0.1821
  142MOL0     C19061   8.562   2.412   9.647  1.8322 -0.4625  1.0579
  142MOL0     C19062   8.519   2.277   9.665  0.5676  0.2512 -0.8039
  142MOL0     C19063   8.390   2.239   9.730 -0.5043 -0.1130  0.2210
  142MOL0     C19064   8.598   2.172   9.608 -0.4340 -0.8902  0.7477
  142MOL0     C19065   8.562   2.027   9.605 -0.4849  0.2811 -0.2956
  142MOL0     O19066   8.675   1.952   9.595 -0.0259 -0.4114  0.0235
  142MOL0     C19067   8.664   1.812   9.576 -0.0201  0.6319 -0.1551
  142MOL0     C19068   8.588   1.745   9.476  0.2115  0.0322 -0.9475
  142MOL0     C19069   8.565   1.607   9.480 -0.3219  0.3644 -1.3790
  142MOL0     C19070   8.625   1.523   9.577 -0.7596 -0.4069 -0.3834
  142MOL0     O19071   8.595   1.387   9.573 -0.3590 -0.0270  0.0054
  142MOL0     C19072   8.643   1.306   9.682  0.2014 -0.3761 -0.2273
  142MOL0     C19073   8.644   1.169   9.631  1.0325 -0.0742 -0.3531
  142MOL0     C19074   8.520   1.120   9.564  0.2380 -0.1555  0.2742
  142MOL0     C19075   8.521   0.965   9.547 -0.1217  0.1540  0.1344
  142MOL0     C19076   8.395   0.911   9.477 -0.5398  0.0728  0.0715
  142MOL0     C19077   8.279   0.917   9.573 -0.0883  0.4477  0.2387
  142MOL0     C19078   8.144   0.852   9.516 -1.1687  0.3701  0.8856
  142MOL0     C19079   8.033   0.951   9.500 -0.1002 -0.3122 -0.3250
  142MOL0    Cl19080   7.985   1.007   9.665  0.1676 -0.2957 -0.8155
  142MOL0     C19081   8.722   1.588   9.656 -0.3398  0.7396 -0.4380
  142MOL0     C19082   8.743   1.722   9.658 -0.1808  0.0426 -0.1102
  142MOL0     O19083   8.449   1.981   9.603  0.2603 -0.6301  0.6081
  142MOL0     C19084   8.720   2.211   9.551 -0.0341  0.0032  0.5299
  142MOL0     C19085   8.760   2.344   9.546 -0.0577 -0.1923  0.3634
  142MOL0     N19086   9.310   2.506   9.694 -0.3941  0.2986  0.2570
  142MOL0     N19087   9.336   2.402   9.761 -0.4819  0.2292  0.1282
  142MOL0     C19088   9.452   1.563   9.888  0.3166  0.6198 -0.0095
  142MOL0     C19089   9.567   1.508   9.947 -0.6568  0.6872  0.7726
  142MOL0     C19090   9.999   1.328   9.867 -0.4669 -0.5806  0.1740
  142MOL0     C19091  10.012   1.236   9.975  0.1149  0.0474  0.1185
  142MOL0     C19092  10.129   1.160   9.983 -0.1598  0.1292 -0.0814
  142MOL0     C19093  10.230   1.174   9.884  0.0157  0.7616 -0.7447
  142MOL0     O19094  10.358   1.123   9.895 -0.0099 -0.4604  0.3627
  142MOL0     C19095  10.405   1.110  10.027 -1.6632 -0.3185  0.2930
  142MOL0     C19096  10.450   1.257  10.057  0.5807 -1.2359 -0.0411
  142MOL0     C19097  10.366   1.319  10.160 -0.5043 -0.0057 -0.3331
  142MOL0     C19098  10.428   1.449  10.228 -0.4586 -0.0893 -0.3397
  142MOL0     C19099  10.562   1.429  10.284  1.1448 -0.1062  0.0941
  142MOL0     C19100  10.674   1.408  10.334  0.2004 -0.6301 -0.3959
  142MOL0     C19101  10.208   1.258   9.770 -0.1587 -1.0624 -0.2496
  142MOL0     C19102  10.093   1.332   9.757  0.9647  0.7348  0.0056
  142MOL0     H19103   9.643   1.274   9.713  1.1191  1.2443 -0.1240
  142MOL0     H19104   9.430   1.393   9.602 -1.6975  1.8334  0.1049
  142MOL0     H19105   9.129   1.547   9.799  0.9529 -0.9311 -0.6455
  142MOL0     H19106   9.221   1.696   9.835  4.0967  0.1688 -2.1960
  142MOL0     H19107   9.072   1.641   9.583  1.9190 -2.7221  1.2736
  142MOL0     H19108   9.012   1.729   9.728  1.5848  0.6418  1.6611
  142MOL0     H19109   9.273   1.848   9.654  1.1531  1.5827  0.1200
  142MOL0     H19110   9.177   1.814   9.502 -1.4025  2.6310 -0.1141
  142MOL0     H19111   9.105   2.027   9.544 -1.0839 -2.5022 -1.7420
  142MOL0     H19112   8.988   1.929   9.641 -1.5517  1.4595  1.6635
  142MOL0     H19113   9.144   1.962   9.841  4.3529 -0.1473 -0.1693
  142MOL0     H19114   9.254   2.056   9.750  0.0781  2.5600 -2.0905
  142MOL0     H19115   9.076   2.247   9.720  0.0778  1.0259  0.9740
  142MOL0     H19116   8.952   2.146   9.776  0.0428  0.4176  0.4637
  142MOL0     H19117   9.015   2.280   9.963  1.3001  1.3796  3.5575
  142MOL0     H19118   9.096   2.126  10.008  2.2687 -0.1230  0.2985
  142MOL0     H19119   9.315   2.213   9.909  3.8090  3.2207 -0.3939
  142MOL0     H19120   9.245   2.312  10.046  4.8613  2.0482 -1.5577
  142MOL0     H19121   9.070   2.518   9.907 -2.5750 -0.7459 -3.2832
  142MOL0     H19122   9.098   2.758   9.775  1.3835  0.1484  0.8877
  142MOL0     H19123   9.232   2.764   9.653 -0.7455  2.8487  1.7249
  142MOL0     H19124   9.081   2.628   9.504 -2.2783 -0.4286  0.2788
  142MOL0     H19125   9.037   2.795   9.539  1.1986  0.5545  1.0686
  142MOL0     H19126   8.873   2.714   9.706 -1.6663 -0.5966  0.3229
  142MOL0     H19127   8.914   2.552   9.688  2.9808  0.0674 -1.9112
  142MOL0     H19128   8.853   2.567   9.430  3.3659  0.8971 -0.0637
  142MOL0     H19129   8.786   2.729   9.474 -2.5369  0.1959  2.2383
  142MOL0     H19130   8.489   2.483   9.685  0.6049 -2.5400  2.8792
  142MOL0     H19131   8.322   2.183   9.665 -1.9451 -0.4559  1.9374
  142MOL0     H19132   8.417   2.167   9.809  0.8723 -1.0134 -1.0044
  142MOL0     H19133   8.337   2.321   9.779  1.4249  0.1020  2.1231
  142MOL0     H19134   8.539   1.819   9.413 -2.2937  0.5671  1.4285
  142MOL0     H19135   8.499   1.559   9.409  2.1309 -2.4495 -1.9746
  142MOL0     H19136   8.743   1.337   9.714 -0.7895  1.8157  0.9721
  142MOL0     H19137   8.578   1.313   9.770 -0.9120  0.6899 -1.0893
  142MOL0     H19138   8.728   1.165   9.561 -1.0079  1.2798 -3.0675
  142MOL0     H19139   8.674   1.104   9.714  1.5074 -1.5042 -1.5959
  142MOL0     H19140   8.510   1.155   9.460 -1.5103  0.0009  0.4660
  142MOL0     H19141   8.427   1.153   9.612 -0.5282 -2.1577  0.2593
  142MOL0     H19142   8.613   0.952   9.490 -0.6390  0.0646 -0.6929
  142MOL0     H19143   8.535   0.923   9.647  0.1898 -0.1817 -0.0465
  142MOL0     H19144   8.420   0.806   9.459  0.9408  0.0891  1.7338
  142MOL0     H19145   8.376   0.962   9.383  4.2395 -0.2428 -1.3209
  142MOL0     H19146   8.311   0.861   9.661  0.0644  0.0481 -0.0649
  142MOL0     H19147   8.252   1.017   9.608 -1.4704  0.0872  0.2780
  142MOL0     H19148   8.109   0.769   9.578  0.3520 -0.0851  1.1745
  142MOL0     H19149   8.168   0.807   9.420 -0.5199  2.0276  0.2268
  142MOL0     H19150   7.961   0.898   9.438 -1.3711  0.3024  0.5819
  142MOL0     H19151   8.064   1.042   9.448 -1.8310  1.7108  1.9452
  142MOL0     H19152   8.760   1.526   9.737 -4.1570 -1.3596  0.0013
  142MOL0     H19153   8.793   1.767   9.743  1.6901 -0.8203 -0.7007
  142MOL0     H19154   8.782   2.133   9.508 -1.0829 -1.7977  2.1552
  142MOL0     H19155   8.854   2.370   9.498  0.3195  1.8672  2.0649
  142MOL0     H19156   9.395   1.639   9.940 -1.4703  0.4479 -1.5844
  142MOL0     H19157   9.598   1.554  10.040 -1.2326 -1.1883  1.9622
  142MOL0     H19158   9.939   1.238  10.056  1.4005  0.1628  1.3057
  142MOL0     H19159  10.131   1.091  10.067 -4.3642  0.1394  0.2264
  142MOL0     H19160  10.354   1.051  10.103 -2.4154  0.6978  0.5903
  142MOL0     H19161  10.503   1.061  10.024 -1.6901 -0.3526 -0.1428
  142MOL0     H19162  10.451   1.319   9.967  0.7919  1.4502  1.6895
  142MOL0     H19163  10.554   1.250  10.091  1.8010 -0.1416 -3.2022
  142MOL0     H19164  10.328   1.247  10.232  1.9728 -1.2230 -0.1594
  142MOL0     H19165  10.276   1.362  10.115 -0.2297  2.2008  1.0653
  142MOL0     H19166  10.362   1.490  10.305  0.5505 -2.1123  1.7176
  142MOL0     H19167  10.427   1.522  10.147 -1.1511 -2.8581 -2.9950
  142MOL0     H19168  10.773   1.378  10.361  0.7132  2.8840  2.3145
  142MOL0     H19169  10.277   1.264   9.686  0.0583  0.7462  0.0301
  142MOL0     H19170  10.083   1.392   9.668  1.2801 -1.6885 -1.7662
  143MOL0     O19171   1.755   1.256   2.157  0.1084  0.1028 -0.5426
  143MOL0     C19172   1.788   1.337   2.071  0.3791  0.4588 -0.4431
  143MOL0     O19173   1.790   1.478   2.073 -0.1716  0.0887  0.4175
  143MOL0     C19174   1.753   1.533   2.190 -0.9286 -0.3353 -0.1756
  143MOL0     C19175   1.621   1.559   2.214  0.4901  0.4302 -1.1661
  143MOL0     C19176   1.583   1.584   2.348 -0.5076  0.0894 -1.5524
  143MOL0     C19177   1.673   1.576   2.454  0.3515  1.0296  0.2251
  143MOL0     O19178   1.642   1.602   2.582 -0.5336 -0.0735 -0.1766
  143MOL0     C19179   1.510   1.612   2.630  0.7478 -0.9381  0.0189
  143MOL0     C19180   1.434   1.482   2.628 -0.0855 -0.0050  0.5225
  143MOL0     C19181   1.469   1.417   2.764 -0.5857  0.6523 -0.3985
  143MOL0     C19182   1.376   1.467   2.884  0.0024 -0.2254 -0.0894
  143MOL0     C19183   1.401   1.389   3.010  0.1814  0.4326  0.1037
  143MOL0     C19184   1.309   1.446   3.124 -0.4053  0.8412  0.0700
  143MOL0     C19185   1.292   1.350   3.248 -0.9076 -0.0851 -0.4050
  143MOL0     C19186   1.424   1.335   3.332 -0.6435  0.3433  0.3661
  143MOL0     N19187   1.408   1.291   3.467 -0.3370  0.9139  0.0865
  143MOL0     C19188   1.316   1.345   3.546 -0.3055 -0.5807  0.2481
  143MOL0     C19189   1.329   1.282   3.667 -1.0853 -0.1122 -0.1779
  143MOL0     C19190   1.224   1.316   3.777  0.0913  0.2281  0.1997
  143MOL0     C19191   1.282   1.401   3.882 -0.1122  1.4744  0.3016
  143MOL0     C19192   1.197   1.429   4.005 -0.6685 -0.0194 -0.2501
  143MOL0     C19193   1.294   1.470   4.119  0.6054  0.6498 -0.6274
  143MOL0     O19194   1.224   1.528   4.227 -0.2736  0.0644 -0.1678
  143MOL0     C19195   1.295   1.563   4.336 -1.1006  1.1609  0.1236
  143MOL0     C19196   1.432   1.598   4.333 -0.0504 -0.8202 -0.3234
  143MOL0     C19197   1.497   1.638   4.445 -0.2281  0.3292 -0.3149
  143MOL0     C19198   1.635   1.691   4.422 -0.4998 -0.1225  0.5696
  143MOL0     C19199   1.436   1.627   4.577  0.0395  0.0984  0.0714
  143MOL0     C19200   1.515   1.643   4.702 -0.5634 -0.0399  0.1687
  143MOL0     O19201   1.448   1.613   4.823  0.5341 -0.0089  0.6468
  143MOL0     C19202   1.521   1.593   4.939  0.6354 -0.4647  0.6994
  143MOL0     C19203   1.567   1.475   4.979 -0.1669  0.2856 -0.2989
  143MOL0     C19204   1.621   1.464   5.113  0.1704  0.9734  0.5729
  143MOL0     C19205   1.639   1.565   5.194  0.3123  0.4856 -1.1862
  143MOL0     O19206   1.689   1.568   5.322 -0.6118 -0.6412 -0.3564
  143MOL0     C19207   1.765   1.453   5.371 -0.3349 -0.3893  0.7383
  143MOL0     C19208   1.838   1.501   5.493 -0.3752  0.4168  0.3182
  143MOL0     C19209   1.916   1.383   5.550  0.4977  0.8486  0.1037
  143MOL0     C19210   1.978   1.440   5.683  0.4656  0.9950 -0.5427
  143MOL0     C19211   2.099   1.528   5.673  0.4770 -0.5993 -0.8948
  143MOL0     C19212   2.184   1.545   5.799  0.3894 -0.5399  0.2814
  143MOL0     C19213   2.307   1.636   5.777 -1.1510 -0.7572  0.7745
  143MOL0     C19214   2.368   1.667   5.914 -0.5399  0.0041  0.3120
  143MOL0    Cl19215   2.490   1.552   5.948 -0.5581 -0.1952  0.5864
  143MOL0     C19216   1.602   1.690   5.147 -0.3905  0.3708  0.0005
  143MOL0     C19217   1.543   1.704   5.023  0.7274 -0.0629 -0.1929
  143MOL0     O19218   1.636   1.661   4.689  0.1997  0.9641  0.1182
  143MOL0     C19219   1.297   1.586   4.583 -0.0811 -0.9745 -0.2038
  143MOL0     C19220   1.229   1.564   4.461 -0.3173 -0.2271 -0.4480
  143MOL0     N19221   1.423   1.180   3.648 -0.3749  1.0354 -0.5108
  143MOL0     N19222   1.476   1.194   3.533  0.6094  0.8758  0.2499
  143MOL0     C19223   1.805   1.551   2.427 -0.6194  0.0828 -0.2223
  143MOL0     C19224   1.847   1.537   2.296  0.3227  0.1820 -1.0091
  143MOL0     C19225   1.821   1.284   1.939 -0.2593 -0.4262  1.0277
  143MOL0     C19226   1.757   1.168   1.900 -0.9943  0.0716  0.2200
  143MOL0     C19227   1.786   1.113   1.776  0.3034  0.7577 -0.2553
  143MOL0     C19228   1.874   1.167   1.691 -0.1351 -0.1486  0.2337
  143MOL0     O19229   1.895   1.116   1.561  0.2368 -0.0312  0.6009
  143MOL0     C19230   1.863   0.982   1.526 -1.0442 -1.1153  0.1796
  143MOL0     C19231   1.960   0.938   1.425  0.8053  0.7519  0.5792
  143MOL0     C19232   1.949   1.018   1.285 -0.5213  0.1166  0.1013
  143MOL0     C19233   2.064   0.979   1.187 -0.2752 -0.1867 -0.4996
  143MOL0     C19234   2.068   0.837   1.131  0.2319  1.2047  0.0639
  143MOL0     C19235   2.069   0.733   1.073  0.0290  1.1181 -0.9104
  143MOL0     C19236   1.927   1.296   1.722 -0.3625  0.7833  0.0435
  143MOL0     C19237   1.909   1.355   1.847  0.6539  1.0917  0.1341
  143MOL0     H19238   1.566   1.566   2.121  0.2623 -2.7540 -1.3702
  143MOL0     H19239   1.481   1.614   2.370 -0.1109 -0.1813  0.8498
  143MOL0     H19240   1.504   1.667   2.725  0.7663  0.5499 -0.8114
  143MOL0     H19241   1.462   1.680   2.559 -1.0567 -0.3571  1.7159
  143MOL0     H19242   1.326   1.483   2.610  0.2150  0.3691 -1.4253
  143MOL0     H19243   1.473   1.428   2.541  0.5373  4.3673 -2.1694
  143MOL0     H19244   1.465   1.309   2.752  1.4321  0.3550  0.9517
  143MOL0     H19245   1.571   1.450   2.786 -0.6922  0.5453  0.2685
  143MOL0     H19246   1.393   1.575   2.883  1.3558 -0.4142 -0.0037
  143MOL0     H19247   1.272   1.452   2.856  0.1252  0.6493 -1.0501
  143MOL0     H19248   1.378   1.282   2.998  0.2091  0.4500 -0.0969
  143MOL0     H19249   1.508   1.388   3.030  0.1411 -1.1117  0.3439
  143MOL0     H19250   1.347   1.539   3.166 -1.1240  0.0723  2.5512
  143MOL0     H19251   1.210   1.473   3.086 -1.0842  2.7652  2.9398
  143MOL0     H19252   1.219   1.386   3.321 -2.0293 -2.1462 -0.4006
  143MOL0     H19253   1.255   1.253   3.213  0.9025 -0.8466 -0.3024
  143MOL0     H19254   1.488   1.423   3.318  0.0588 -0.4341 -1.7594
  143MOL0     H19255   1.490   1.262   3.284  0.5888  1.6045  0.0760
  143MOL0     H19256   1.247   1.421   3.514  3.0568  2.6814  0.0116
  143MOL0     H19257   1.145   1.376   3.731  1.8406  1.8500 -0.8304
  143MOL0     H19258   1.189   1.233   3.838  0.7268 -0.0648  0.1743
  143MOL0     H19259   1.294   1.495   3.828 -2.2467  1.1845 -0.8065
  143MOL0     H19260   1.380   1.363   3.913 -1.8231 -2.7534  1.3167
  143MOL0     H19261   1.147   1.337   4.036 -0.2378  0.1384  0.9557
  143MOL0     H19262   1.126   1.509   3.979 -0.5687 -0.6031 -2.5835
  143MOL0     H19263   1.366   1.537   4.071  0.2678  2.1372  0.8481
  143MOL0     H19264   1.347   1.380   4.150 -2.8775 -1.5723 -0.6176
  143MOL0     H19265   1.492   1.610   4.243  4.1959  1.2321  2.4277
  143MOL0     H19266   1.663   1.776   4.483 -0.3213 -0.5371  1.0721
  143MOL0     H19267   1.709   1.612   4.437 -0.6514 -0.6386 -1.1966
  143MOL0     H19268   1.646   1.734   4.322 -0.3647 -2.0263 -0.2859
  143MOL0     H19269   1.570   1.390   4.911  0.5740  1.8392 -2.3292
  143MOL0     H19270   1.659   1.365   5.136  1.6942  0.1796 -4.1222
  143MOL0     H19271   1.690   1.377   5.398 -1.5746  1.1231  1.7563
  143MOL0     H19272   1.831   1.414   5.293 -0.2124  2.0210 -0.4324
  143MOL0     H19273   1.910   1.580   5.469 -0.1076  0.0887  0.0260
  143MOL0     H19274   1.758   1.534   5.559  0.2521 -1.1097  1.9537
  143MOL0     H19275   1.986   1.350   5.473  0.0839  0.6938 -0.2110
  143MOL0     H19276   1.851   1.297   5.567 -1.3541  2.6666  3.0614
  143MOL0     H19277   1.899   1.495   5.735  1.8980  2.2502  0.4065
  143MOL0     H19278   2.009   1.349   5.736  2.2687  0.5928 -2.1649
  143MOL0     H19279   2.061   1.625   5.641  2.2328  0.8990  1.2746
  143MOL0     H19280   2.160   1.491   5.590 -0.4386 -1.4158 -1.2277
  143MOL0     H19281   2.125   1.584   5.882 -1.4087 -1.0240 -0.7145
  143MOL0     H19282   2.230   1.453   5.834 -2.7051 -1.7579  1.4601
  143MOL0     H19283   2.277   1.734   5.739  1.2945 -0.9662 -2.0111
  143MOL0     H19284   2.379   1.588   5.711 -0.3017 -0.5304  1.5243
  143MOL0     H19285   2.286   1.665   5.986 -2.3906  1.4565 -1.6111
  143MOL0     H19286   2.408   1.769   5.916 -1.9470  0.5702  1.5667
  143MOL0     H19287   1.628   1.780   5.201 -0.5858  1.2084 -1.2490
  143MOL0     H19288   1.513   1.798   4.979 -2.1887 -1.0633 -0.6083
  143MOL0     H19289   1.239   1.588   4.674  1.6619  4.3968  1.1677
  143MOL0     H19290   1.122   1.557   4.475 -0.1529 -2.1322  0.2059
  143MOL0     H19291   1.876   1.561   2.508 -1.7110  1.2760  0.6283
  143MOL0     H19292   1.953   1.522   2.280  0.4193  0.1537 -0.3512
  143MOL0     H19293   1.685   1.118   1.964  0.4230 -2.2991  0.0570
  143MOL0     H19294   1.730   1.029   1.737 -0.4345  1.8510 -1.6529
  143MOL0     H19295   1.867   0.917   1.614  1.2011  0.4059  1.2913
  143MOL0     H19296   1.762   0.977   1.484 -1.6805 -1.2392  1.6892
  143MOL0     H19297   1.947   0.833   1.398  1.1011  0.9522 -0.3717
  143MOL0     H19298   2.064   0.942   1.461  1.1937 -0.6002 -0.3413
  143MOL0     H19299   1.954   1.123   1.314 -0.5206 -0.2113  1.3683
  143MOL0     H19300   1.863   1.003   1.219 -1.7474  0.7010  1.4906
  143MOL0     H19301   2.162   0.994   1.235  1.6174 -4.9720 -2.2088
  143MOL0     H19302   2.053   1.048   1.102  1.8529  0.3343 -0.4068
  143MOL0     H19303   2.062   0.642   1.016 -0.9403  0.5536  0.0640
  143MOL0     H19304   1.991   1.350   1.653  1.3621  0.1545  1.0967
  143MOL0     H19305   1.942   1.453   1.881 -1.3874  1.9938 -0.3537
  144MOL0     O19306   5.800   3.359   5.248 -0.0126  0.6342 -0.4235
  144MOL0     C19307   5.828   3.376   5.130 -0.7393  0.0641  0.5660
  144MOL0     O19308   5.780   3.484   5.055 -1.3756 -0.1729 -0.2231
  144MOL0     C19309   5.695   3.563   5.116  0.6619  0.1897  0.0746
  144MOL0     C19310   5.562   3.524   5.111 -0.0913  0.0593 -0.1399
  144MOL0     C19311   5.463   3.606   5.159 -0.0089  0.9837 -0.7010
  144MOL0     C19312   5.487   3.731   5.221 -0.1486 -0.7541  0.6206
  144MOL0     O19313   5.398   3.812   5.278 -0.2155  0.1839  0.4053
  144MOL0     C19314   5.268   3.752   5.316 -0.6457  1.1366  0.7181
  144MOL0     C19315   5.209   3.839   5.425  0.9593  0.2567  0.0563
  144MOL0     C19316   5.291   3.834   5.556  0.2107 -0.2854  0.4749
  144MOL0     C19317   5.244   3.935   5.672  0.4446  0.8754  0.2484
  144MOL0     C19318   5.354   3.930   5.786 -0.0596 -0.4121 -0.4208
  144MOL0     C19319   5.320   4.023   5.908 -0.2363 -1.0665 -0.6440
  144MOL0     C19320   5.444   4.030   6.013 -0.3493  0.0983  1.0824
  144MOL0     C19321   5.412   4.088   6.150  0.0178  0.2287  0.3959
  144MOL0     N19322   5.510   4.166   6.219 -0.0451  1.0547  0.9855
  144MOL0     C19323   5.646   4.182   6.191  0.4868  0.0018 -0.9852
  144MOL0     C19324   5.702   4.239   6.306  0.0421 -0.0325  0.0600
  144MOL0     C19325   5.843   4.289   6.312 -0.6263 -0.8160  0.3601
  144MOL0     C19326   5.917   4.321   6.180 -0.5759  0.0312 -0.1633
  144MOL0     C19327   5.854   4.449   6.102 -1.2655 -0.0216 -0.4805
  144MOL0     C19328   5.866   4.584   6.179  0.0052 -0.3636 -0.2800
  144MOL0     O19329   5.761   4.611   6.265 -0.6736 -0.0333 -0.6281
  144MOL0     C19330   5.761   4.746   6.312  0.0652  0.1434 -0.2808
  144MOL0     C19331   5.850   4.848   6.270 -0.1301 -0.7936  0.6889
  144MOL0     C19332   5.829   4.983   6.303  0.2525 -1.1518 -0.7824
  144MOL0     C19333   5.920   5.088   6.232 -0.3340 -0.6595 -0.4739
  144MOL0     C19334   5.719   5.018   6.388  0.2213 -0.3597 -0.0154
  144MOL0     C19335   5.691   5.153   6.439 -0.0500 -0.0825  0.1201
  144MOL0     O19336   5.557   5.170   6.460  0.4453 -0.6172 -0.5921
  144MOL0     C19337   5.514   5.295   6.496 -0.0601 -0.3031 -0.1781
  144MOL0     C19338   5.545   5.415   6.426  0.4710 -0.6952 -0.8917
  144MOL0     C19339   5.499   5.541   6.476 -0.3560  0.4464 -0.0814
  144MOL0     C19340   5.410   5.546   6.577 -0.1306 -0.1695 -0.8690
  144MOL0     O19341   5.390   5.663   6.652  0.5089 -0.3929 -0.2579
  144MOL0     C19342   5.384   5.799   6.590 -0.1014  0.5687  0.5573
  144MOL0     C19343   5.316   5.889   6.695  0.4865 -0.2261  0.2158
  144MOL0     C19344   5.265   6.034   6.648  0.6095  0.0581  0.7613
  144MOL0     C19345   5.113   6.032   6.597 -0.6570  0.3448  0.2070
  144MOL0     C19346   5.084   6.130   6.487  0.0701  0.7122  0.0111
  144MOL0     C19347   4.953   6.094   6.427 -0.6791 -0.4015 -0.3222
  144MOL0     C19348   4.909   6.177   6.311  0.6179  0.1986  0.1112
  144MOL0     C19349   4.809   6.107   6.215  0.0086  0.0918 -0.3924
  144MOL0    Cl19350   4.636   6.129   6.265 -0.2154  0.3586 -0.5602
  144MOL0     C19351   5.373   5.431   6.641  0.8362  0.6039  0.4735
  144MOL0     C19352   5.420   5.309   6.596  0.5235 -0.0363  0.7169
  144MOL0     O19353   5.777   5.240   6.451  0.0968  0.0745 -0.1106
  144MOL0     C19354   5.629   4.916   6.433 -0.2999  0.0812  0.3559
  144MOL0     C19355   5.654   4.784   6.396 -0.1715 -0.2158  0.1221
  144MOL0     N19356   5.597   4.262   6.393 -0.0272 -0.0598 -0.3429
  144MOL0     N19357   5.486   4.230   6.338  0.5440  0.2769  0.1094
  144MOL0     C19358   5.624   3.767   5.213 -1.2077 -0.4375 -0.3992
  144MOL0     C19359   5.727   3.686   5.163 -0.0482 -0.6172  0.2726
  144MOL0     C19360   5.912   3.277   5.059  0.2495 -0.6606 -0.4805
  144MOL0     C19361   6.015   3.329   4.986 -0.1976  0.8106 -0.4687
  144MOL0     C19362   6.110   3.240   4.935 -0.1686 -1.3945  0.8490
  144MOL0     C19363   6.100   3.110   4.932 -0.4015  0.4755 -0.5990
  144MOL0     O19364   6.192   3.040   4.852  0.3039  0.5246 -0.1291
  144MOL0     C19365   6.204   2.901   4.893  0.1271  0.6874  0.0285
  144MOL0     C19366   6.287   2.886   5.022  0.3731  0.2963  0.2807
  144MOL0     C19367   6.427   2.958   5.013  0.2156 -0.1608 -0.3779
  144MOL0     C19368   6.534   2.875   5.086 -0.9586 -0.4828 -0.1282
  144MOL0     C19369   6.654   2.951   5.127 -0.6333 -1.2122 -0.0307
  144MOL0     C19370   6.758   3.015   5.141  0.6744  0.0586  0.2042
  144MOL0     C19371   5.999   3.054   5.020 -0.2997 -0.6082  0.1357
  144MOL0     C19372   5.903   3.142   5.081 -0.5316  0.0077 -0.2911
  144MOL0     H19373   5.517   3.441   5.057 -0.2448  1.0668 -1.6163
  144MOL0     H19374   5.357   3.583   5.154  0.2056  0.3167 -3.8617
  144MOL0     H19375   5.204   3.756   5.227 -0.3521  0.8732  0.4927
  144MOL0     H19376   5.273   3.647   5.346  1.7993  1.5133  1.8310
  144MOL0     H19377   5.189   3.937   5.379 -1.3057  0.6334  1.6566
  144MOL0     H19378   5.107   3.803   5.443  0.6518 -0.7197 -3.0311
  144MOL0     H19379   5.296   3.734   5.599  2.3301  0.2851  1.7438
  144MOL0     H19380   5.395   3.863   5.538  0.7715  0.5916  4.1813
  144MOL0     H19381   5.238   4.036   5.631  3.2774  1.3821  0.8933
  144MOL0     H19382   5.149   3.894   5.709  0.4579  0.2360 -0.4108
  144MOL0     H19383   5.373   3.828   5.819 -0.4489  0.0701  1.4050
  144MOL0     H19384   5.444   3.966   5.735 -1.4024  1.2633 -1.7625
  144MOL0     H19385   5.297   4.122   5.868  0.1130 -0.3258  0.9185
  144MOL0     H19386   5.231   3.978   5.953 -1.9503  0.6885 -2.1286
  144MOL0     H19387   5.497   3.934   6.012 -1.0357 -0.2963  0.1052
  144MOL0     H19388   5.506   4.101   5.958 -1.2033  0.5961  0.7357
  144MOL0     H19389   5.388   3.999   6.209  0.4269 -0.0667  0.1268
  144MOL0     H19390   5.322   4.150   6.150 -0.5591 -0.5937  0.8086
  144MOL0     H19391   5.690   4.133   6.104  0.7268 -3.1090  0.7415
  144MOL0     H19392   5.850   4.385   6.364  2.2523 -0.7591  0.0334
  144MOL0     H19393   5.904   4.220   6.372 -2.1719 -0.4007  2.5555
  144MOL0     H19394   5.919   4.244   6.102 -1.4985 -2.3015  1.9821
  144MOL0     H19395   6.023   4.343   6.191 -0.8733  2.3609 -1.4610
  144MOL0     H19396   5.752   4.418   6.079 -1.7601  1.4195 -0.3304
  144MOL0     H19397   5.909   4.464   6.009 -2.2896 -2.3860 -1.5476
  144MOL0     H19398   5.867   4.662   6.101  1.2949  1.0341  1.0844
  144MOL0     H19399   5.958   4.594   6.236  1.3225 -0.1366 -2.3148
  144MOL0     H19400   5.943   4.827   6.218  0.8722 -1.2764  2.6067
  144MOL0     H19401   5.866   5.178   6.201 -1.7259 -1.6833 -1.1232
  144MOL0     H19402   6.004   5.109   6.299  2.5735 -2.8266 -3.0961
  144MOL0     H19403   5.953   5.053   6.134 -0.6322 -4.5284  0.6512
  144MOL0     H19404   5.614   5.391   6.345  3.1640 -0.7455  1.2614
  144MOL0     H19405   5.530   5.633   6.426 -0.5098  2.2533  2.9322
  144MOL0     H19406   5.484   5.833   6.562 -1.6897  2.7832 -3.1585
  144MOL0     H19407   5.321   5.818   6.503  0.7578  0.7957 -0.0223
  144MOL0     H19408   5.232   5.832   6.734 -0.2276  2.3094  2.6833
  144MOL0     H19409   5.381   5.897   6.783 -0.2735  1.9009  0.6465
  144MOL0     H19410   5.324   6.048   6.557  0.2133 -2.0397  0.1082
  144MOL0     H19411   5.275   6.108   6.728  1.9538 -0.9503  1.5722
  144MOL0     H19412   5.077   5.932   6.572 -0.8069  0.2954  0.6085
  144MOL0     H19413   5.059   6.061   6.688 -0.7740 -0.7464  0.4940
  144MOL0     H19414   5.161   6.115   6.410 -1.3688 -0.1676 -1.3006
  144MOL0     H19415   5.102   6.235   6.513 -2.2418  1.1675 -0.0579
  144MOL0     H19416   4.942   5.996   6.381 -0.2350 -0.5599 -0.1032
  144MOL0     H19417   4.878   6.105   6.506  1.9091 -1.0860  2.4100
  144MOL0     H19418   4.996   6.208   6.253  0.8100 -0.7390 -0.1109
  144MOL0     H19419   4.863   6.268   6.350  0.3753  1.3289 -2.6172
  144MOL0     H19420   4.840   6.002   6.209  0.3924  0.1395  0.6342
  144MOL0     H19421   4.822   6.152   6.116 -2.4708  0.4879 -0.6070
  144MOL0     H19422   5.308   5.432   6.728  1.3108  1.6257  0.8380
  144MOL0     H19423   5.378   5.217   6.636 -0.6238  1.5708  3.5400
  144MOL0     H19424   5.543   4.942   6.495 -0.5645 -0.2733  0.1430
  144MOL0     H19425   5.577   4.717   6.432 -0.1878  0.8321  2.1840
  144MOL0     H19426   5.656   3.865   5.247 -0.3999 -1.3271  1.5187
  144MOL0     H19427   5.831   3.717   5.171 -0.3552  1.2672 -1.8054
  144MOL0     H19428   6.025   3.436   4.970 -0.2754  1.2857  2.1889
  144MOL0     H19429   6.174   3.288   4.861  0.0510  0.0900  1.9543
  144MOL0     H19430   6.105   2.858   4.911  2.0023 -2.9831  2.8217
  144MOL0     H19431   6.253   2.844   4.813 -0.6495 -0.4801  0.3694
  144MOL0     H19432   6.310   2.779   5.019  1.5938  0.5488 -2.9265
  144MOL0     H19433   6.233   2.914   5.113 -0.1700  1.1765 -0.2987
  144MOL0     H19434   6.419   3.058   5.057 -2.2733  0.7232 -2.5623
  144MOL0     H19435   6.440   2.975   4.906 -1.9791  0.4895 -0.5942
  144MOL0     H19436   6.562   2.800   5.012 -2.9264  0.4731 -1.9388
  144MOL0     H19437   6.489   2.832   5.176 -2.2954 -1.6103 -1.2881
  144MOL0     H19438   6.858   3.044   5.167  1.7243 -1.9398 -1.3374
  144MOL0     H19439   5.969   2.950   5.028 -1.7711 -0.1034  1.7893
  144MOL0     H19440   5.836   3.091   5.149  0.1370 -1.0570 -0.4140
  145MOL0     O19441   5.799   7.004   2.209  0.4497  0.2827  0.6526
  145MOL0     C19442   5.826   7.120   2.179  0.8572 -0.4253  0.7052
  145MOL0     O19443   5.903   7.210   2.246 -0.8555  0.1228  0.4863
  145MOL0     C19444   5.964   7.179   2.365 -0.6901  0.7370 -0.4515
  145MOL0     C19445   6.081   7.238   2.401 -0.1172 -0.2502  0.4422
  145MOL0     C19446   6.150   7.214   2.511 -0.0487  0.6673 -0.1730
  145MOL0     C19447   6.104   7.130   2.619 -0.7687  1.2945  0.0858
  145MOL0     O19448   6.179   7.087   2.719  0.3763  0.4781  0.3666
  145MOL0     C19449   6.316   7.112   2.732 -0.8181  0.2020 -0.8770
  145MOL0     C19450   6.347   7.238   2.814 -0.1480 -0.6226 -0.1316
  145MOL0     C19451   6.286   7.250   2.952 -0.0384 -0.7112  0.4405
  145MOL0     C19452   6.310   7.129   3.037  0.1949 -0.6653  0.4861
  145MOL0     C19453   6.295   7.160   3.180  0.1375  0.0477 -0.3106
  145MOL0     C19454   6.376   7.074   3.271  0.0095  1.2972  0.3631
  145MOL0     C19455   6.412   7.155   3.392 -0.3295 -0.8716  0.6481
  145MOL0     C19456   6.488   7.068   3.484 -0.0409 -1.4272  0.1752
  145MOL0     N19457   6.553   7.151   3.596  0.0803 -0.5530  0.4067
  145MOL0     C19458   6.638   7.094   3.690  0.2765  1.0918 -0.5852
  145MOL0     C19459   6.653   7.187   3.786  0.1051 -0.4778 -0.4445
  145MOL0     C19460   6.730   7.162   3.912 -0.0877 -0.2794  0.7707
  145MOL0     C19461   6.648   7.156   4.043 -0.0701  0.9631 -0.2224
  145MOL0     C19462   6.736   7.175   4.168  0.1130  0.4814  0.1553
  145MOL0     C19463   6.847   7.075   4.180  0.3858 -0.4897  0.4236
  145MOL0     O19464   6.877   7.051   4.314 -1.6981 -0.0514 -0.7700
  145MOL0     C19465   6.827   6.942   4.383 -0.7816  0.8048  0.4633
  145MOL0     C19466   6.723   6.863   4.342  0.3107 -0.9491 -0.2055
  145MOL0     C19467   6.662   6.762   4.417  0.0213 -1.3330  0.5310
  145MOL0     C19468   6.547   6.684   4.359 -0.0739  0.6705  1.5216
  145MOL0     C19469   6.720   6.725   4.537  0.2028 -0.3941 -0.2167
  145MOL0     C19470   6.683   6.612   4.618 -1.0193  0.6985  0.1159
  145MOL0     O19471   6.703   6.617   4.757 -0.0320  0.9121  0.8005
  145MOL0     C19472   6.689   6.503   4.838 -0.1908 -0.1597  0.6671
  145MOL0     C19473   6.779   6.400   4.839 -0.1856 -0.5781 -1.3182
  145MOL0     C19474   6.752   6.289   4.903 -0.9328  0.3043  0.2711
  145MOL0     C19475   6.651   6.289   5.000 -0.6530  0.0425 -0.5874
  145MOL0     O19476   6.630   6.183   5.084 -0.2596  0.6542  0.2503
  145MOL0     C19477   6.754   6.157   5.157  0.4208  0.4002  0.0834
  145MOL0     C19478   6.720   6.082   5.290  0.8009 -0.1217  0.1570
  145MOL0     C19479   6.824   6.115   5.401 -0.0230  0.4367  0.3189
  145MOL0     C19480   6.796   6.015   5.513 -0.5689 -1.0319 -0.1424
  145MOL0     C19481   6.925   5.965   5.581 -0.3280 -0.2596  0.4203
  145MOL0     C19482   6.905   5.848   5.672 -0.0363  1.3309  0.1916
  145MOL0     C19483   7.028   5.783   5.730  0.5243  0.2892 -0.2683
  145MOL0     C19484   7.114   5.727   5.620  0.9199 -0.1931 -0.5924
  145MOL0    Cl19485   7.207   5.571   5.660  0.0161  0.5753  0.3228
  145MOL0     C19486   6.566   6.400   5.021 -0.1947 -0.1446  0.9702
  145MOL0     C19487   6.586   6.508   4.939  0.4493  0.4595  0.3861
  145MOL0     O19488   6.668   6.509   4.556  0.0253  0.7343  0.5853
  145MOL0     C19489   6.827   6.808   4.590  0.5710  0.6861  0.0224
  145MOL0     C19490   6.878   6.905   4.508  0.3629 -0.8620 -0.1011
  145MOL0     N19491   6.579   7.299   3.756  0.1044  1.0336 -0.3429
  145MOL0     N19492   6.535   7.281   3.638  0.3190 -0.0832  0.1124
  145MOL0     C19493   5.976   7.072   2.594  0.2311  0.0583  0.1382
  145MOL0     C19494   5.918   7.092   2.463 -0.5304 -0.6069 -0.0912
  145MOL0     C19495   5.746   7.174   2.067 -0.8430 -0.0736  0.2300
  145MOL0     C19496   5.741   7.314   2.050  0.5714  0.0598  0.1131
  145MOL0     C19497   5.656   7.369   1.955  0.1038  0.5311 -0.4219
  145MOL0     C19498   5.580   7.288   1.872  0.4299 -0.8341  0.1696
  145MOL0     O19499   5.502   7.357   1.778  0.9250  0.1791 -0.1427
  145MOL0     C19500   5.409   7.292   1.691  0.0546 -0.0055 -1.2697
  145MOL0     C19501   5.467   7.259   1.562  0.8578 -0.3632  0.6772
  145MOL0     C19502   5.567   7.147   1.566  0.6154  0.2258  0.3607
  145MOL0     C19503   5.638   7.111   1.426  0.5188 -0.2321 -0.0942
  145MOL0     C19504   5.559   7.024   1.340 -0.4757 -0.0028 -0.0444
  145MOL0     C19505   5.518   6.938   1.270  0.6307 -0.6163  0.6681
  145MOL0     C19506   5.589   7.149   1.882  0.6509 -0.8727  0.2387
  145MOL0     C19507   5.670   7.090   1.984  0.7589  0.3454  0.0055
  145MOL0     H19508   6.117   7.309   2.328  0.4787 -0.3066  0.6743
  145MOL0     H19509   6.243   7.271   2.519  0.1654  0.0477  3.7935
  145MOL0     H19510   6.352   7.027   2.790 -0.7446  0.6777 -0.2064
  145MOL0     H19511   6.367   7.107   2.636 -0.8843  1.2302 -0.9772
  145MOL0     H19512   6.455   7.252   2.821 -0.4268  2.1826 -0.5383
  145MOL0     H19513   6.314   7.324   2.755  0.4617  0.3302  0.9030
  145MOL0     H19514   6.326   7.335   3.008 -3.5656  1.9786 -0.7342
  145MOL0     H19515   6.180   7.278   2.955 -0.3211 -1.6718 -0.1151
  145MOL0     H19516   6.255   7.046   2.993 -0.1069  0.8523 -2.2124
  145MOL0     H19517   6.413   7.107   3.009  0.1199 -1.5742  0.8876
  145MOL0     H19518   6.327   7.264   3.190  3.3499 -0.8782  0.1658
  145MOL0     H19519   6.187   7.153   3.196 -0.0046  1.4504 -0.5888
  145MOL0     H19520   6.325   6.981   3.301  0.3184 -0.0301 -2.7796
  145MOL0     H19521   6.465   7.047   3.214 -0.6972  2.8779 -1.6028
  145MOL0     H19522   6.481   7.237   3.370 -0.5530 -0.2263  2.2376
  145MOL0     H19523   6.325   7.199   3.440 -0.3076  0.5532 -0.5454
  145MOL0     H19524   6.568   7.019   3.427  0.3642  0.3299 -0.8607
  145MOL0     H19525   6.418   6.995   3.526 -1.4485 -1.5395 -2.1795
  145MOL0     H19526   6.669   6.990   3.683 -0.1588  0.2396  5.3482
  145MOL0     H19527   6.786   7.070   3.893  1.1878  1.0330 -2.3476
  145MOL0     H19528   6.796   7.248   3.927 -0.5568  0.3419 -0.5562
  145MOL0     H19529   6.597   7.059   4.041 -0.4129  0.9551  3.0476
  145MOL0     H19530   6.575   7.236   4.029 -0.8370  0.3107 -0.0057
  145MOL0     H19531   6.663   7.156   4.246  0.2260  1.9444  0.6539
  145MOL0     H19532   6.772   7.278   4.178 -1.0789  1.4115 -3.5323
  145MOL0     H19533   6.925   7.124   4.121 -1.1007 -0.5702 -1.7399
  145MOL0     H19534   6.836   6.975   4.138 -2.1701  0.3195 -1.0469
  145MOL0     H19535   6.679   6.883   4.245  1.6634  4.5840 -0.0205
  145MOL0     H19536   6.504   6.745   4.279  2.6537  0.0042 -0.5882
  145MOL0     H19537   6.588   6.591   4.318 -1.2248 -0.0024  1.8261
  145MOL0     H19538   6.477   6.664   4.441 -2.2438  2.7680  0.3086
  145MOL0     H19539   6.865   6.416   4.776  0.2415 -1.0378 -0.8688
  145MOL0     H19540   6.807   6.195   4.895 -1.4750 -0.0157  0.2690
  145MOL0     H19541   6.813   6.085   5.099 -0.0590 -0.1973  0.3246
  145MOL0     H19542   6.805   6.251   5.180 -2.6666  2.4105 -0.5908
  145MOL0     H19543   6.622   6.106   5.331  0.3970  3.0620 -2.2027
  145MOL0     H19544   6.726   5.977   5.259 -0.3668  0.5586 -2.7143
  145MOL0     H19545   6.829   6.219   5.434  2.6338  0.1817  0.9427
  145MOL0     H19546   6.917   6.082   5.353  0.9254  4.2241 -0.8100
  145MOL0     H19547   6.755   6.080   5.591  0.7032  2.1035 -1.9142
  145MOL0     H19548   6.731   5.933   5.480  0.8452 -0.7342 -4.2131
  145MOL0     H19549   6.973   6.046   5.636  1.3709 -2.4988  2.4201
  145MOL0     H19550   6.991   5.923   5.505 -1.6256 -2.6593  0.5097
  145MOL0     H19551   6.843   5.871   5.759  1.6981  0.5399  1.7085
  145MOL0     H19552   6.851   5.774   5.612  0.4192  0.2611  1.0566
  145MOL0     H19553   7.009   5.714   5.813 -0.5943 -1.4650 -1.8937
  145MOL0     H19554   7.084   5.862   5.781 -0.6184 -0.4104  2.2091
  145MOL0     H19555   7.178   5.810   5.589 -1.9421  2.0481 -0.8881
  145MOL0     H19556   7.051   5.709   5.533  0.0534 -0.1714  0.0171
  145MOL0     H19557   6.479   6.398   5.085 -1.2710  1.3627 -0.3507
  145MOL0     H19558   6.511   6.586   4.948  0.6970  1.1612 -2.5364
  145MOL0     H19559   6.866   6.785   4.688  1.3807  0.9884 -0.2173
  145MOL0     H19560   6.954   6.965   4.556  1.4787 -1.6834 -0.7816
  145MOL0     H19561   5.926   7.009   2.667  1.1313 -0.6738  0.1520
  145MOL0     H19562   5.816   7.058   2.445 -1.3524  2.1575 -1.0666
  145MOL0     H19563   5.800   7.382   2.110  0.3444  2.0201 -1.7668
  145MOL0     H19564   5.653   7.476   1.941  1.4158  0.6128 -0.2408
  145MOL0     H19565   5.360   7.205   1.738  0.2583  0.3714 -0.3347
  145MOL0     H19566   5.327   7.361   1.667 -1.4270 -1.6286 -1.1255
  145MOL0     H19567   5.517   7.346   1.519  0.1926 -0.9172 -1.3287
  145MOL0     H19568   5.396   7.216   1.490  2.8835 -0.2922 -1.4613
  145MOL0     H19569   5.533   7.052   1.609  1.6062  0.9167  2.8877
  145MOL0     H19570   5.646   7.179   1.635  1.7475  0.7789 -1.1320
  145MOL0     H19571   5.731   7.057   1.447  0.1805 -1.3612 -1.3236
  145MOL0     H19572   5.676   7.195   1.368  4.0778 -3.9578 -3.8634
  145MOL0     H19573   5.464   6.868   1.210 -0.0796  1.1090 -0.7783
  145MOL0     H19574   5.521   7.091   1.821  1.3912 -0.2219 -1.2472
  145MOL0     H19575   5.680   6.984   2.005 -0.5950  0.2913  0.4489
  146MOL0     O19576   4.819   0.264   2.356  0.0633  0.5528  1.0063
  146MOL0     C19577   4.751   0.175   2.404  0.3787  0.5141 -0.8411
  146MOL0     O19578   4.800   0.075   2.490  0.6199  0.8239 -0.6812
  146MOL0     C19579   4.931   0.072   2.518  0.9888 -0.2017 -0.2652
  146MOL0     C19580   5.017  -0.021   2.456  0.1956 -0.4411 -0.7228
  146MOL0     C19581   5.156  -0.011   2.493  0.1473 -0.2311 -0.3916
  146MOL0     C19582   5.203   0.082   2.597 -1.2239 -0.3469  1.1573
  146MOL0     O19583   5.333   0.084   2.603 -0.6926  0.9232  0.0914
  146MOL0     C19584   5.404   0.203   2.632  0.1923  0.8333  0.3419
  146MOL0     C19585   5.560   0.190   2.611 -0.1187 -0.0741  0.5432
  146MOL0     C19586   5.601   0.055   2.557 -0.1908  0.0585 -0.3235
  146MOL0     C19587   5.545   0.040   2.411  0.1361 -0.0824 -1.0645
  146MOL0     C19588   5.551  -0.100   2.357  0.6493  0.1679 -0.0126
  146MOL0     C19589   5.541  -0.101   2.204  0.4867  0.0533  0.2056
  146MOL0     C19590   5.549  -0.239   2.155  0.1824  0.6497 -0.2989
  146MOL0     C19591   5.521  -0.240   2.008 -0.2933 -0.4050 -0.7614
  146MOL0     N19592   5.500  -0.378   1.961 -0.2582 -0.5402  0.0822
  146MOL0     C19593   5.565  -0.485   2.022 -0.5703 -0.4423  2.0329
  146MOL0     C19594   5.517  -0.596   1.961  1.0537 -0.0751  0.8328
  146MOL0     C19595   5.569  -0.731   1.975 -0.7323 -0.6241 -0.4275
  146MOL0     C19596   5.550  -0.811   1.851  0.9793 -0.2701  0.3662
  146MOL0     C19597   5.579  -0.959   1.867 -0.6644 -0.0651 -0.0881
  146MOL0     C19598   5.540  -1.047   1.748 -0.1183 -0.7563 -0.4327
  146MOL0     O19599   5.598  -0.980   1.633 -0.5593  0.0778 -0.8522
  146MOL0     C19600   5.619  -1.050   1.519 -0.4130  0.3648 -0.0329
  146MOL0     C19601   5.743  -1.038   1.453 -0.1423  0.7351 -0.4498
  146MOL0     C19602   5.755  -1.095   1.322  0.2380  0.4975  0.4778
  146MOL0     C19603   5.883  -1.070   1.239  0.5206  0.1821 -0.5606
  146MOL0     C19604   5.647  -1.179   1.268  0.0138  0.6511 -0.2465
  146MOL0     C19605   5.652  -1.257   1.141  0.1442 -0.1589  0.1170
  146MOL0     O19606   5.589  -1.206   1.035  0.0414  1.1162  0.0019
  146MOL0     C19607   5.508  -1.094   1.039 -0.3752 -0.6335 -0.0084
  146MOL0     C19608   5.553  -0.960   1.010  0.2808 -0.4874 -0.7011
  146MOL0     C19609   5.460  -0.847   1.005 -1.1744 -0.1791 -0.4354
  146MOL0     C19610   5.328  -0.872   1.010  0.0645  0.2489  0.9034
  146MOL0     O19611   5.247  -0.759   1.011 -0.3364 -0.3660  0.0512
  146MOL0     C19612   5.124  -0.759   0.937  0.2404 -0.1691  0.6722
  146MOL0     C19613   5.071  -0.621   0.946 -0.7070 -1.0816  0.3605
  146MOL0     C19614   5.163  -0.507   0.898 -0.4909  0.7426 -0.1008
  146MOL0     C19615   5.236  -0.420   1.009  0.3756  0.6669  0.4517
  146MOL0     C19616   5.307  -0.297   0.947 -1.1724 -0.1578 -0.3064
  146MOL0     C19617   5.406  -0.242   1.047  0.5214 -0.0719  0.3936
  146MOL0     C19618   5.442  -0.096   1.023  0.1817 -0.2653  0.4510
  146MOL0     C19619   5.518  -0.028   1.138 -0.2626 -0.6913 -0.2912
  146MOL0    Cl19620   5.438  -0.002   1.283  0.3854 -0.1390  0.0892
  146MOL0     C19621   5.275  -1.003   1.028 -1.2433  1.5741  0.0027
  146MOL0     C19622   5.365  -1.113   1.048 -0.7062  0.6726 -0.4294
  146MOL0     O19623   5.719  -1.359   1.132 -0.2635 -0.4570 -0.1838
  146MOL0     C19624   5.527  -1.190   1.339  0.6558  0.1563 -0.2643
  146MOL0     C19625   5.523  -1.132   1.465 -0.0800 -0.5076  1.4515
  146MOL0     N19626   5.406  -0.562   1.894  0.0629  0.4392 -0.5342
  146MOL0     N19627   5.392  -0.427   1.899  0.1258  0.4351 -0.6504
  146MOL0     C19628   5.113   0.168   2.654  0.6219  0.8117 -0.4657
  146MOL0     C19629   4.975   0.158   2.622  0.3782  0.2128  0.2138
  146MOL0     C19630   4.609   0.196   2.409 -0.5148 -0.0674  0.6864
  146MOL0     C19631   4.520   0.084   2.412 -0.2965 -0.2896  0.3662
  146MOL0     C19632   4.383   0.102   2.411  0.0077 -0.3434  0.4218
  146MOL0     C19633   4.323   0.229   2.391  0.5412 -0.0088 -0.1289
  146MOL0     O19634   4.175   0.249   2.371 -0.4203  0.6806 -0.3531
  146MOL0     C19635   4.092   0.137   2.404 -0.5271 -0.7142 -0.0805
  146MOL0     C19636   4.052   0.130   2.552  0.5896  0.1253 -0.0386
  146MOL0     C19637   3.943   0.242   2.574 -0.6621  0.6719  0.2663
  146MOL0     C19638   3.802   0.180   2.550 -0.5340  0.0343  0.0654
  146MOL0     C19639   3.772   0.078   2.661 -1.0950 -0.3324 -0.2505
  146MOL0     C19640   3.743  -0.012   2.737 -0.0910  0.6988  0.6714
  146MOL0     C19641   4.412   0.337   2.393  0.5255  0.0382  0.1674
  146MOL0     C19642   4.551   0.319   2.399 -0.3189 -0.5672  0.9849
  146MOL0     H19643   4.984  -0.097   2.385  0.8364 -1.7695  0.3472
  146MOL0     H19644   5.237  -0.074   2.457 -0.6863 -2.2700  1.0790
  146MOL0     H19645   5.378   0.286   2.566  0.9998 -0.1962 -1.3461
  146MOL0     H19646   5.380   0.221   2.737  0.2954  1.5101  0.2523
  146MOL0     H19647   5.580   0.272   2.542  0.2804 -0.0370  0.7055
  146MOL0     H19648   5.616   0.203   2.704 -0.6233  2.7493  0.5317
  146MOL0     H19649   5.710   0.055   2.555 -0.0871 -3.1554 -0.6802
  146MOL0     H19650   5.568  -0.030   2.617  3.8989 -2.2040 -0.9082
  146MOL0     H19651   5.443   0.078   2.401  0.4718  2.3160  2.6292
  146MOL0     H19652   5.603   0.115   2.357 -0.4234  1.9383  0.9602
  146MOL0     H19653   5.650  -0.144   2.377 -1.1422 -3.6521  1.5461
  146MOL0     H19654   5.468  -0.157   2.399 -0.0124  1.2683  0.2083
  146MOL0     H19655   5.453  -0.050   2.164  1.7917 -0.4470 -3.6966
  146MOL0     H19656   5.624  -0.041   2.164 -0.8846  1.8633 -0.0985
  146MOL0     H19657   5.648  -0.283   2.171  1.7551  3.6201 -1.1977
  146MOL0     H19658   5.474  -0.300   2.207  1.1705 -1.3757 -1.1424
  146MOL0     H19659   5.607  -0.197   1.957  1.3600  1.0808  2.9072
  146MOL0     H19660   5.431  -0.180   1.995 -1.0802  0.0663  4.6307
  146MOL0     H19661   5.655  -0.488   2.082  0.7199  2.4038  0.4255
  146MOL0     H19662   5.672  -0.732   2.013 -0.5373 -4.5638 -0.5909
  146MOL0     H19663   5.518  -0.802   2.041 -0.4105 -1.4570 -1.0595
  146MOL0     H19664   5.610  -0.758   1.776  1.0808  0.6578  1.0881
  146MOL0     H19665   5.444  -0.814   1.825  0.6588  1.5828  1.2779
  146MOL0     H19666   5.523  -0.995   1.954 -2.8217  0.0715 -1.3452
  146MOL0     H19667   5.685  -0.970   1.890 -0.7225 -0.5976 -0.0644
  146MOL0     H19668   5.433  -1.051   1.722  0.1550  0.2927 -1.8639
  146MOL0     H19669   5.577  -1.147   1.771  0.1672 -0.0252  2.7419
  146MOL0     H19670   5.830  -0.992   1.499  0.5405 -0.7237 -0.2359
  146MOL0     H19671   5.853  -1.043   1.138 -0.1054 -2.0098 -1.0151
  146MOL0     H19672   5.955  -0.991   1.263  3.6751 -2.1929 -1.3654
  146MOL0     H19673   5.944  -1.159   1.220  2.6480  1.7045 -1.2772
  146MOL0     H19674   5.658  -0.946   0.991  0.5560 -1.9457 -0.4174
  146MOL0     H19675   5.503  -0.748   0.988  1.1949 -0.5809  2.4137
  146MOL0     H19676   5.151  -0.771   0.832  1.8366 -0.7104  1.1132
  146MOL0     H19677   5.058  -0.840   0.968 -0.7740 -0.0042 -0.9759
  146MOL0     H19678   4.980  -0.625   0.886 -1.2659 -1.9174  1.2347
  146MOL0     H19679   5.047  -0.607   1.052  0.3254  2.0912  0.2586
  146MOL0     H19680   5.099  -0.444   0.835 -3.4960 -1.0565  0.9243
  146MOL0     H19681   5.239  -0.552   0.833  0.9784  1.6806  0.8984
  146MOL0     H19682   5.173  -0.395   1.095 -1.4771 -0.5358 -0.4922
  146MOL0     H19683   5.323  -0.472   1.051  2.7298  5.7631  2.8685
  146MOL0     H19684   5.225  -0.232   0.916 -1.2929  0.2406  0.7983
  146MOL0     H19685   5.367  -0.331   0.862 -0.9156  1.9102 -1.0304
  146MOL0     H19686   5.370  -0.260   1.148 -2.5853 -1.7373 -0.8883
  146MOL0     H19687   5.499  -0.299   1.031  0.5787  0.1877 -0.2418
  146MOL0     H19688   5.360  -0.030   0.993  2.0042  0.8695 -2.5348
  146MOL0     H19689   5.511  -0.082   0.939  1.4034  1.6964  1.7222
  146MOL0     H19690   5.545   0.074   1.109  2.1066 -1.2470 -0.2670
  146MOL0     H19691   5.607  -0.091   1.152  0.4030 -0.3825 -2.6115
  146MOL0     H19692   5.169  -1.012   1.048 -0.7183 -1.5647  2.2652
  146MOL0     H19693   5.322  -1.212   1.062  2.1900 -0.3176  3.0068
  146MOL0     H19694   5.439  -1.242   1.302  1.0304 -0.7399  0.0777
  146MOL0     H19695   5.431  -1.137   1.523 -0.3817  2.7608  1.4136
  146MOL0     H19696   5.147   0.248   2.720 -3.0457  2.1890 -0.0318
  146MOL0     H19697   4.903   0.219   2.676  1.3399 -2.0597  4.4946
  146MOL0     H19698   4.576  -0.008   2.426  1.1518  0.2049 -1.8069
  146MOL0     H19699   4.340   0.004   2.430  0.7365 -0.0094  5.2541
  146MOL0     H19700   4.007   0.143   2.335  0.2812  1.4279 -0.9726
  146MOL0     H19701   4.144   0.041   2.403  0.4428 -0.1967  0.1431
  146MOL0     H19702   4.140   0.167   2.606  1.9294 -2.2979 -0.4229
  146MOL0     H19703   4.028   0.031   2.593 -0.0243  0.3957  0.2673
  146MOL0     H19704   3.958   0.319   2.497 -1.4773 -0.3649 -0.9660
  146MOL0     H19705   3.957   0.279   2.676  0.5851  0.9514  0.0156
  146MOL0     H19706   3.793   0.142   2.448 -1.2344  0.7291 -0.1385
  146MOL0     H19707   3.735   0.266   2.560  1.9450  2.4983 -2.7103
  146MOL0     H19708   3.729  -0.107   2.784  0.1839  0.9618  1.2972
  146MOL0     H19709   4.375   0.436   2.369  0.9927  0.0465 -0.5270
  146MOL0     H19710   4.613   0.406   2.380 -1.9733  0.4497 -0.0995
  147MOL0     O19711   2.371   0.677   1.424  0.4113  0.3707  0.1714
  147MOL0     C19712   2.395   0.608   1.518 -0.5287  0.3676  0.1638
  147MOL0     O19713   2.469   0.493   1.513  0.1516  0.0051  0.3944
  147MOL0     C19714   2.543   0.434   1.404  0.9336  0.2948  0.0618
  147MOL0     C19715   2.571   0.498   1.282 -0.3696 -1.0540 -0.0024
  147MOL0     C19716   2.636   0.438   1.180 -0.0298 -0.6733  0.0322
  147MOL0     C19717   2.679   0.310   1.185  0.6821 -0.5014  0.9029
  147MOL0     O19718   2.742   0.250   1.077  0.2415  0.2522 -0.4043
  147MOL0     C19719   2.859   0.168   1.105 -1.0402  0.4636 -0.9156
  147MOL0     C19720   2.914   0.125   0.975  0.6930 -0.3845 -0.8463
  147MOL0     C19721   3.002   0.226   0.900  0.2938  0.1119  0.1006
  147MOL0     C19722   2.990   0.214   0.750 -1.5705 -0.5567 -0.2464
  147MOL0     C19723   3.078   0.316   0.682  0.4190  0.6987  0.3621
  147MOL0     C19724   3.096   0.270   0.539 -0.0911  0.2453  0.4755
  147MOL0     C19725   3.225   0.334   0.467  0.3521 -0.4817 -0.3524
  147MOL0     C19726   3.210   0.482   0.456 -0.2337 -0.3573  0.0453
  147MOL0     N19727   3.298   0.539   0.366  0.6411  1.1334  0.4109
  147MOL0     C19728   3.242   0.583   0.245  0.2637 -0.3358 -0.3889
  147MOL0     C19729   3.351   0.641   0.185  0.2355  1.0894  0.3661
  147MOL0     C19730   3.353   0.732   0.058 -0.4038  0.4497  0.2180
  147MOL0     C19731   3.280   0.868   0.064  0.3103 -0.1307 -0.3001
  147MOL0     C19732   3.244   0.922  -0.070  0.4538  0.0190  0.2911
  147MOL0     C19733   3.124   0.866  -0.139 -0.2872 -1.6573 -0.8920
  147MOL0     O19734   3.011   0.866  -0.052  0.2075 -0.5669  0.0016
  147MOL0     C19735   2.897   0.814  -0.108 -1.1070 -0.6035  0.2701
  147MOL0     C19736   2.883   0.731  -0.213  0.3088  0.2751  0.5882
  147MOL0     C19737   2.764   0.683  -0.270  0.9547  0.0320 -0.3294
  147MOL0     C19738   2.767   0.612  -0.404  0.5044 -0.2549  0.1546
  147MOL0     C19739   2.644   0.714  -0.196  1.1725  0.1940  0.9236
  147MOL0     C19740   2.508   0.682  -0.241  0.1851  0.4146 -0.6237
  147MOL0     O19741   2.408   0.632  -0.152 -0.4457  0.3051 -0.5394
  147MOL0     C19742   2.268   0.634  -0.176 -0.5784 -0.6142  0.2940
  147MOL0     C19743   2.201   0.564  -0.077  0.6149 -0.3140  0.7003
  147MOL0     C19744   2.062   0.558  -0.078  0.8446  0.2402  0.4727
  147MOL0     C19745   1.985   0.607  -0.183  0.2186 -0.8834 -0.0739
  147MOL0     O19746   1.844   0.608  -0.152  0.2100 -0.6151 -0.6104
  147MOL0     C19747   1.756   0.622  -0.266 -0.5315 -0.4382  0.1443
  147MOL0     C19748   1.717   0.770  -0.276  0.8020  0.4716 -0.0099
  147MOL0     C19749   1.595   0.799  -0.356  0.8637  0.1985  0.1799
  147MOL0     C19750   1.466   0.728  -0.312  0.4037 -0.0561  0.1070
  147MOL0     C19751   1.342   0.793  -0.377 -0.7767 -0.7029 -0.3291
  147MOL0     C19752   1.340   0.812  -0.535 -1.1923 -0.0361  0.1962
  147MOL0     C19753   1.201   0.865  -0.574  0.4552  0.0455 -0.1186
  147MOL0     C19754   1.086   0.771  -0.584 -1.1634 -1.0613 -0.8681
  147MOL0    Cl19755   1.129   0.622  -0.683 -0.1244  0.0648  0.4583
  147MOL0     C19756   2.050   0.671  -0.296 -0.8760 -0.3783 -0.4742
  147MOL0     C19757   2.194   0.693  -0.284 -0.2120  0.1080 -0.3307
  147MOL0     O19758   2.487   0.727  -0.350 -0.5899  0.5402 -0.3626
  147MOL0     C19759   2.660   0.774  -0.066  0.0384  0.6326  0.2295
  147MOL0     C19760   2.782   0.825  -0.033 -0.4690  0.3439 -0.6473
  147MOL0     N19761   3.467   0.623   0.266  0.5258  0.9617  0.3459
  147MOL0     N19762   3.432   0.560   0.369 -0.2034  0.0595  0.3679
  147MOL0     C19763   2.655   0.239   1.307 -0.2392  0.6823  0.0093
  147MOL0     C19764   2.591   0.304   1.415 -0.4020 -0.3644 -0.7699
  147MOL0     C19765   2.352   0.645   1.653  0.8188 -1.2720  0.3571
  147MOL0     C19766   2.401   0.584   1.765 -0.2227  0.8020 -0.1021
  147MOL0     C19767   2.370   0.627   1.891 -0.4474 -0.2488  0.3628
  147MOL0     C19768   2.280   0.729   1.915 -0.4030 -0.4482  0.0180
  147MOL0     O19769   2.248   0.761   2.045 -0.5585 -0.0565 -0.6388
  147MOL0     C19770   2.359   0.806   2.129 -0.0927 -0.6220 -0.6670
  147MOL0     C19771   2.403   0.718   2.248 -0.3843  0.1166 -0.3938
  147MOL0     C19772   2.290   0.692   2.343 -0.3934  0.7434 -0.2609
  147MOL0     C19773   2.302   0.539   2.373  0.3782  0.1174 -0.3385
  147MOL0     C19774   2.225   0.455   2.272 -0.1579 -0.2449  0.1741
  147MOL0     C19775   2.170   0.387   2.188  0.1135  0.5554 -0.3475
  147MOL0     C19776   2.225   0.797   1.806 -0.2155 -0.0787 -0.0190
  147MOL0     C19777   2.263   0.752   1.676 -0.0441 -0.4962  0.7270
  147MOL0     H19778   2.542   0.602   1.267  0.4620 -0.2312  3.3561
  147MOL0     H19779   2.654   0.494   1.089  2.2107 -2.2109 -0.5662
  147MOL0     H19780   2.925   0.226   1.170 -5.1177  4.6963  0.0117
  147MOL0     H19781   2.840   0.078   1.164  0.2605  0.5568 -0.3403
  147MOL0     H19782   2.967   0.031   0.990 -2.9459 -2.7640 -1.4955
  147MOL0     H19783   2.823   0.101   0.919 -1.2094  3.6342  0.1895
  147MOL0     H19784   2.997   0.329   0.937 -1.4551 -0.5764  2.0207
  147MOL0     H19785   3.104   0.203   0.931  0.9466  0.8538 -1.4087
  147MOL0     H19786   3.022   0.115   0.718 -1.1199  0.1044 -2.0025
  147MOL0     H19787   2.889   0.240   0.717 -0.9285 -0.3579 -2.1867
  147MOL0     H19788   3.033   0.415   0.685 -0.8316  0.4032 -3.1466
  147MOL0     H19789   3.183   0.318   0.712  0.2707 -2.6393  1.4973
  147MOL0     H19790   3.116   0.164   0.521  1.2845  0.4676  0.6205
  147MOL0     H19791   3.005   0.294   0.483 -0.6812 -2.4241  0.1549
  147MOL0     H19792   3.313   0.309   0.527 -0.0094  1.5381  1.1034
  147MOL0     H19793   3.225   0.311   0.360 -3.4566  3.7421 -1.6002
  147MOL0     H19794   3.222   0.518   0.558 -1.6247 -0.3792  0.2347
  147MOL0     H19795   3.106   0.498   0.425 -0.9097 -0.0348  2.3037
  147MOL0     H19796   3.143   0.584   0.200 -1.0309  0.5581  2.2774
  147MOL0     H19797   3.456   0.759   0.033 -0.7712 -1.1070 -3.6940
  147MOL0     H19798   3.319   0.677  -0.031  2.4845 -0.8058 -0.2213
  147MOL0     H19799   3.340   0.950   0.102  1.0425 -0.4150 -0.8293
  147MOL0     H19800   3.192   0.856   0.128  0.7530  0.5843  0.4586
  147MOL0     H19801   3.328   0.898  -0.136 -0.2130 -2.1854  0.1595
  147MOL0     H19802   3.249   1.032  -0.066 -1.1468  0.1392 -0.0660
  147MOL0     H19803   3.155   0.766  -0.170  1.2306 -0.9919 -1.6518
  147MOL0     H19804   3.106   0.931  -0.226  1.3066  0.3155  0.1600
  147MOL0     H19805   2.970   0.712  -0.276  0.2628 -2.0815  1.1137
  147MOL0     H19806   2.737   0.669  -0.492 -0.8536 -2.2209 -0.7409
  147MOL0     H19807   2.867   0.570  -0.420  0.1792 -0.6464 -0.9653
  147MOL0     H19808   2.700   0.525  -0.398 -1.2106  0.8422 -1.7145
  147MOL0     H19809   2.252   0.510   0.002  1.7957  1.2894  1.0871
  147MOL0     H19810   2.012   0.521   0.011  3.5168  0.8163  2.3524
  147MOL0     H19811   1.797   0.577  -0.357  0.7273  1.2577 -0.1784
  147MOL0     H19812   1.665   0.565  -0.246 -1.0230 -0.3435 -1.6740
  147MOL0     H19813   1.702   0.802  -0.172  0.9358 -1.1197  0.5336
  147MOL0     H19814   1.794   0.832  -0.321  1.1308  0.9403  1.1535
  147MOL0     H19815   1.620   0.791  -0.462 -2.3936  4.0594 -1.1304
  147MOL0     H19816   1.594   0.908  -0.340 -4.2334  0.5971 -1.0589
  147MOL0     H19817   1.476   0.619  -0.319 -0.0288 -0.2154  1.6020
  147MOL0     H19818   1.475   0.747  -0.204 -4.7195  3.1148  0.2897
  147MOL0     H19819   1.336   0.892  -0.331 -0.1987 -0.3875 -0.9062
  147MOL0     H19820   1.252   0.743  -0.341  0.7646 -0.7614  4.0570
  147MOL0     H19821   1.406   0.897  -0.557 -2.0465  1.6799  3.6384
  147MOL0     H19822   1.378   0.724  -0.587  1.6502  0.8944  0.5510
  147MOL0     H19823   1.217   0.923  -0.666  0.1017 -3.0527 -2.3114
  147MOL0     H19824   1.184   0.943  -0.500  1.9165  0.6790 -0.4113
  147MOL0     H19825   1.007   0.831  -0.629 -1.9292 -1.4713 -0.0960
  147MOL0     H19826   1.038   0.745  -0.489 -1.1935 -0.6878 -0.7795
  147MOL0     H19827   1.988   0.733  -0.360  0.0764 -0.0204 -1.0862
  147MOL0     H19828   2.249   0.753  -0.356  1.7934  1.4089  2.1150
  147MOL0     H19829   2.570   0.811  -0.018  0.4666  1.6657  0.2721
  147MOL0     H19830   2.800   0.872   0.063 -0.1757 -2.0891  0.5708
  147MOL0     H19831   2.687   0.136   1.315  0.3939  0.9584  1.4042
  147MOL0     H19832   2.569   0.243   1.503  0.5467  0.5942  0.1564
  147MOL0     H19833   2.478   0.508   1.755  0.0086  0.2930  3.9492
  147MOL0     H19834   2.412   0.572   1.974  1.4928  0.4148 -0.1444
  147MOL0     H19835   2.445   0.832   2.067  0.7086 -0.8041  0.3367
  147MOL0     H19836   2.329   0.902   2.172 -0.5502 -1.4507  0.9575
  147MOL0     H19837   2.463   0.785   2.311 -2.4476 -2.2943  4.6651
  147MOL0     H19838   2.465   0.635   2.214 -0.6424 -1.2987  2.2762
  147MOL0     H19839   2.192   0.704   2.296 -0.6890 -3.3869 -1.1358
  147MOL0     H19840   2.302   0.747   2.437 -0.0216 -2.7777  1.9608
  147MOL0     H19841   2.258   0.530   2.473 -4.5563 -0.6524 -2.2880
  147MOL0     H19842   2.405   0.504   2.381  0.5916  0.9754  0.9462
  147MOL0     H19843   2.121   0.339   2.105 -0.5517  1.6001 -0.5737
  147MOL0     H19844   2.171   0.889   1.828  1.2643  0.4634  1.5694
  147MOL0     H19845   2.234   0.815   1.592  1.5858 -0.4089  0.1758
  148MOL0     O19846   1.885   7.933   7.090  0.5784  0.8757  0.9111
  148MOL0     C19847   1.812   7.987   7.012 -0.8422  0.3269  0.6666
  148MOL0     O19848   1.734   8.094   7.039 -0.3950 -0.7256 -0.4352
  148MOL0     C19849   1.773   8.164   7.150 -0.6234 -0.8112 -0.7403
  148MOL0     C19850   1.749   8.118   7.283 -1.5961 -0.3935 -0.4152
  148MOL0     C19851   1.778   8.188   7.393 -0.3133 -1.0936 -0.5302
  148MOL0     C19852   1.837   8.315   7.377 -0.2485 -0.1819 -0.3200
  148MOL0     O19853   1.861   8.383   7.498  0.4006  0.0001 -0.7838
  148MOL0     C19854   1.938   8.509   7.485 -0.8764  0.1001  0.1257
  148MOL0     C19855   1.996   8.529   7.626 -0.6973 -0.8424  0.8717
  148MOL0     C19856   2.019   8.685   7.647 -0.1010  0.6925 -0.2023
  148MOL0     C19857   2.157   8.729   7.591  0.3288 -0.6354  0.4135
  148MOL0     C19858   2.264   8.740   7.695 -0.5779  0.4648 -0.0593
  148MOL0     C19859   2.401   8.783   7.629 -0.0563  0.0820  0.2824
  148MOL0     C19860   2.518   8.699   7.662 -0.7925  0.3297 -0.7964
  148MOL0     C19861   2.572   8.732   7.804  0.1842 -0.0212  0.5708
  148MOL0     N19862   2.593   8.874   7.843  0.7384  0.1730  0.2130
  148MOL0     C19863   2.536   8.947   7.950 -0.7602  0.1111  0.3936
  148MOL0     C19864   2.556   9.073   7.912 -0.1146  0.1097  0.6573
  148MOL0     C19865   2.493   9.193   7.970 -0.0768  0.5786  0.5331
  148MOL0     C19866   2.344   9.191   7.921  0.8697  0.7003 -0.7581
  148MOL0     C19867   2.324   9.215   7.773 -0.2907 -0.0305  0.4085
  148MOL0     C19868   2.189   9.181   7.722  0.6581 -0.3295  0.0376
  148MOL0     O19869   2.170   9.242   7.590 -0.4396  0.2194  0.2035
  148MOL0     C19870   2.138   9.158   7.489  0.2739 -0.0078  0.2566
  148MOL0     C19871   1.997   9.129   7.473 -0.4454  0.2046  0.7683
  148MOL0     C19872   1.954   9.024   7.386 -0.5814 -0.4244  0.1399
  148MOL0     C19873   1.798   9.013   7.357 -0.5903  0.2116 -0.2917
  148MOL0     C19874   2.058   8.963   7.313  0.5593  0.3101  0.3995
  148MOL0     C19875   2.017   8.858   7.212  0.1818  0.3466  0.5579
  148MOL0     O19876   2.087   8.869   7.094  0.8345 -0.7843 -0.5899
  148MOL0     C19877   2.026   8.839   6.973 -0.8611 -0.6959 -0.6971
  148MOL0     C19878   1.886   8.814   6.956  0.0932  0.1805  0.1440
  148MOL0     C19879   1.835   8.786   6.821  0.1973 -1.5344 -0.5086
  148MOL0     C19880   1.912   8.817   6.706 -0.5520 -0.4935  0.2646
  148MOL0     O19881   1.854   8.796   6.589 -0.1257  0.3025  0.9915
  148MOL0     C19882   1.922   8.853   6.471  0.2019 -0.1622  0.1334
  148MOL0     C19883   1.839   8.856   6.342 -0.8483  0.1150  0.1804
  148MOL0     C19884   1.719   8.957   6.326  0.4946  0.0133 -0.1803
  148MOL0     C19885   1.667   8.973   6.186 -0.4158  0.5144  0.6193
  148MOL0     C19886   1.529   9.028   6.180  0.0784 -0.7263  1.0544
  148MOL0     C19887   1.426   8.922   6.170 -0.0278 -0.5995  1.1120
  148MOL0     C19888   1.290   8.984   6.134  0.2659  0.1915  0.1002
  148MOL0     C19889   1.178   8.918   6.214  0.8942 -1.3102  0.4752
  148MOL0    Cl19890   1.023   9.002   6.185  0.1943  0.1065 -0.1468
  148MOL0     C19891   2.048   8.853   6.730 -0.2185  0.4064 -0.3715
  148MOL0     C19892   2.111   8.861   6.864  0.1203  0.6509  0.6205
  148MOL0     O19893   1.958   8.757   7.245  0.8020  0.2483 -0.0049
  148MOL0     C19894   2.188   8.993   7.327 -0.7633  0.9225  0.4144
  148MOL0     C19895   2.227   9.084   7.422 -0.0340  0.0457 -0.1090
  148MOL0     N19896   2.636   9.077   7.793 -0.1032 -0.4917 -0.1692
  148MOL0     N19897   2.663   8.960   7.760 -0.4132  0.2115 -0.1496
  148MOL0     C19898   1.877   8.359   7.247  0.8078  0.3842  0.0985
  148MOL0     C19899   1.834   8.289   7.136 -0.4195  0.5290 -0.8040
  148MOL0     C19900   1.783   7.933   6.883  0.3656  0.2645  0.2127
  148MOL0     C19901   1.864   7.820   6.832 -0.2404 -0.9434 -0.6728
  148MOL0     C19902   1.833   7.771   6.704  0.0067  0.0642 -0.1789
  148MOL0     C19903   1.729   7.821   6.620  0.2593  0.3317  0.4145
  148MOL0     O19904   1.725   7.756   6.500  0.6795 -1.1664  0.4389
  148MOL0     C19905   1.609   7.785   6.426  0.5023  0.5417  0.6566
  148MOL0     C19906   1.616   7.703   6.295 -0.3302  0.1867 -0.7234
  148MOL0     C19907   1.528   7.780   6.187 -0.2923 -1.0285  0.3888
  148MOL0     C19908   1.436   7.691   6.103  0.0456  0.1466 -0.4325
  148MOL0     C19909   1.505   7.639   5.987  0.2473 -0.1787  1.0092
  148MOL0     C19910   1.552   7.589   5.885  0.1364 -0.1431 -0.6753
  148MOL0     C19911   1.658   7.923   6.677 -0.2696 -0.5969  0.0194
  148MOL0     C19912   1.683   7.982   6.799  0.3324  0.4340 -0.7663
  148MOL0     H19913   1.710   8.018   7.296 -1.7304 -0.1531  1.2615
  148MOL0     H19914   1.761   8.140   7.489  1.1992  0.0715  0.3688
  148MOL0     H19915   2.018   8.516   7.411 -0.8308  2.4510  0.3031
  148MOL0     H19916   1.864   8.586   7.459 -0.3396 -0.4139 -3.4028
  148MOL0     H19917   1.926   8.501   7.704 -0.0757  1.6100  2.4414
  148MOL0     H19918   2.086   8.469   7.641  1.1547  1.6893  0.5905
  148MOL0     H19919   1.932   8.737   7.607 -1.8499  0.9714  3.5532
  148MOL0     H19920   2.012   8.706   7.754  3.8725 -0.1570  0.3850
  148MOL0     H19921   2.210   8.660   7.525  5.0107  0.9585  2.0712
  148MOL0     H19922   2.147   8.829   7.548  1.1562 -0.0017  1.6325
  148MOL0     H19923   2.224   8.812   7.766  1.8089  1.1976  0.6625
  148MOL0     H19924   2.287   8.650   7.753  1.8076  1.5342  0.8107
  148MOL0     H19925   2.391   8.781   7.520  1.5273  1.6149  0.0658
  148MOL0     H19926   2.412   8.889   7.652 -1.4196 -0.3251  3.2386
  148MOL0     H19927   2.488   8.593   7.658 -1.0600  0.2612  1.6424
  148MOL0     H19928   2.589   8.717   7.581 -1.4748 -0.2645 -1.5457
  148MOL0     H19929   2.659   8.670   7.826 -0.7525 -1.1409  1.2065
  148MOL0     H19930   2.496   8.697   7.874  0.0821 -1.2828 -0.1414
  148MOL0     H19931   2.481   8.907   8.035 -2.0775  2.2065  0.6043
  148MOL0     H19932   2.499   9.190   8.080  1.3662  1.0883  0.4928
  148MOL0     H19933   2.549   9.286   7.952  2.5311 -0.3525  2.9954
  148MOL0     H19934   2.284   9.261   7.980 -0.8754 -0.7126 -0.7780
  148MOL0     H19935   2.307   9.091   7.943 -0.7703  1.9622  3.0844
  148MOL0     H19936   2.390   9.152   7.714 -3.1265 -1.8561 -1.0101
  148MOL0     H19937   2.360   9.315   7.747  2.2125 -0.8560  0.4276
  148MOL0     H19938   2.122   9.236   7.789 -2.0388 -3.7416  0.4058
  148MOL0     H19939   2.178   9.074   7.740  0.4769 -0.2278  0.5479
  148MOL0     H19940   1.929   9.191   7.529  3.0420  3.8513  1.4706
  148MOL0     H19941   1.749   9.106   7.388 -0.3337  0.1848  0.1986
  148MOL0     H19942   1.774   8.988   7.253  0.2319  0.0110 -0.4382
  148MOL0     H19943   1.756   8.939   7.426 -1.5529  0.9625 -0.0418
  148MOL0     H19944   1.814   8.808   7.037 -0.1628  2.3370  0.1248
  148MOL0     H19945   1.736   8.743   6.810  0.0901 -1.5383  0.4140
  148MOL0     H19946   1.949   8.955   6.500 -0.6506  0.0157  0.3282
  148MOL0     H19947   2.013   8.794   6.455 -1.2310 -2.2090 -0.8900
  148MOL0     H19948   1.906   8.891   6.263 -1.0843  4.0801  1.4962
  148MOL0     H19949   1.809   8.752   6.332  1.6245 -0.7995  1.5805
  148MOL0     H19950   1.739   9.051   6.379  0.5590  0.9815 -1.8789
  148MOL0     H19951   1.641   8.910   6.387  1.1402  0.4266  1.0124
  148MOL0     H19952   1.740   9.039   6.138  2.2152 -3.1947 -0.9435
  148MOL0     H19953   1.683   8.880   6.130 -1.2746  0.4574  0.4552
  148MOL0     H19954   1.527   9.098   6.095  1.7669 -1.2526  0.5433
  148MOL0     H19955   1.500   9.085   6.269 -0.6101  3.2059 -1.3874
  148MOL0     H19956   1.451   8.850   6.091 -1.3741  1.3422 -1.1826
  148MOL0     H19957   1.430   8.863   6.263  2.7650 -2.1162  0.1433
  148MOL0     H19958   1.285   8.969   6.026  0.8021  3.3918 -0.4796
  148MOL0     H19959   1.281   9.091   6.156  0.0597 -0.4582  3.8239
  148MOL0     H19960   1.197   8.937   6.320  0.7726  0.3285  0.2364
  148MOL0     H19961   1.177   8.810   6.196  3.8635 -1.8029  2.5414
  148MOL0     H19962   2.118   8.870   6.648  2.5941 -0.7038  1.6249
  148MOL0     H19963   2.211   8.898   6.882  1.4972 -2.2069 -0.3930
  148MOL0     H19964   2.266   8.950   7.265  0.6077  1.9718  1.3126
  148MOL0     H19965   2.332   9.097   7.447 -0.7840 -0.6449  4.2072
  148MOL0     H19966   1.911   8.461   7.236  0.1358  0.5145 -0.9002
  148MOL0     H19967   1.851   8.323   7.034 -0.9776  2.1565 -0.3839
  148MOL0     H19968   1.947   7.777   6.887 -0.0740 -3.5052 -2.7523
  148MOL0     H19969   1.908   7.702   6.669 -0.1233  1.3070 -3.2870
  148MOL0     H19970   1.524   7.747   6.483  1.8597 -0.3759  2.1471
  148MOL0     H19971   1.616   7.893   6.406  0.7455  0.0462 -2.4996
  148MOL0     H19972   1.592   7.597   6.311  1.5879  0.2291  4.1178
  148MOL0     H19973   1.719   7.725   6.268 -0.3785 -1.7121 -2.6763
  148MOL0     H19974   1.587   7.840   6.117 -0.6750 -0.7883  0.2665
  148MOL0     H19975   1.470   7.856   6.241  2.0438 -0.2340  1.9771
  148MOL0     H19976   1.348   7.746   6.070 -0.6389  0.9188  2.3689
  148MOL0     H19977   1.406   7.600   6.155 -1.2049  1.4048  1.1556
  148MOL0     H19978   1.603   7.555   5.798  0.8753 -0.4236 -0.1473
  148MOL0     H19979   1.577   7.970   6.621 -0.5758  1.1278  1.7929
  148MOL0     H19980   1.620   8.069   6.815  1.6360  1.1401  0.8007
  149MOL0     O19981   6.785   0.529   6.245 -0.4940 -0.0788  0.0261
  149MOL0     C19982   6.869   0.547   6.148 -0.1521  0.0137 -1.3397
  149MOL0     O19983   6.898   0.460   6.047  0.3039 -0.0998 -0.1785
  149MOL0     C19984   6.822   0.350   6.038 -0.7002 -0.5261 -0.1594
  149MOL0     C19985   6.865   0.224   6.070  0.8653  1.0312  0.2560
  149MOL0     C19986   6.798   0.106   6.027  0.3474 -0.2503  0.3325
  149MOL0     C19987   6.672   0.111   5.963 -0.3798 -0.5504 -0.4055
  149MOL0     O19988   6.594  -0.003   5.934  0.0583  0.0724 -0.2026
  149MOL0     C19989   6.677  -0.122   5.915  0.2551 -0.1912 -0.4741
  149MOL0     C19990   6.610  -0.245   5.854  1.5025 -0.3928  0.3907
  149MOL0     C19991   6.475  -0.287   5.930 -0.0416 -0.2327  0.6735
  149MOL0     C19992   6.493  -0.400   6.021  0.1758 -0.7616  0.1830
  149MOL0     C19993   6.581  -0.364   6.144 -0.0199  0.5860  0.2225
  149MOL0     C19994   6.564  -0.469   6.254  0.0125  1.1994  0.0985
  149MOL0     C19995   6.695  -0.494   6.333  0.3438 -0.1611  0.2889
  149MOL0     C19996   6.682  -0.606   6.438 -0.2580 -0.1432  0.1701
  149MOL0     N19997   6.690  -0.749   6.381 -0.7904 -0.4613  0.4850
  149MOL0     C19998   6.803  -0.802   6.316 -0.2110 -0.4593  0.5108
  149MOL0     C19999   6.774  -0.934   6.290  0.3240 -0.5985 -0.4936
  149MOL0     C20000   6.856  -1.046   6.220 -0.2553 -0.0324 -0.5620
  149MOL0     C20001   6.944  -1.123   6.316 -0.2448 -0.3759  0.5181
  149MOL0     C20002   7.093  -1.078   6.312 -0.1794 -0.2749 -0.2310
  149MOL0     C20003   7.145  -1.074   6.456 -0.2628 -0.1357  1.1039
  149MOL0     O20004   7.078  -0.982   6.542 -0.0345 -0.2983 -0.2225
  149MOL0     C20005   7.095  -0.842   6.524  1.5092  0.0641 -0.1759
  149MOL0     C20006   7.183  -0.775   6.437 -0.1545 -0.4634 -0.5456
  149MOL0     C20007   7.199  -0.635   6.440 -0.5830  0.3368 -0.4377
  149MOL0     C20008   7.287  -0.570   6.341  0.5739 -0.4212  0.0389
  149MOL0     C20009   7.120  -0.561   6.532  0.8444  0.3286 -0.7339
  149MOL0     C20010   7.112  -0.412   6.522  0.5460  1.0930  0.6869
  149MOL0     O20011   7.090  -0.354   6.402  0.1715  0.7769 -0.0808
  149MOL0     C20012   7.096  -0.222   6.399  0.7213 -0.1699  1.1534
  149MOL0     C20013   6.977  -0.170   6.371  0.6213  0.3123 -0.4011
  149MOL0     C20014   6.955  -0.036   6.364  0.1582  0.3370 -0.4925
  149MOL0     C20015   7.064   0.048   6.386  0.9403  0.1936 -0.1215
  149MOL0     O20016   7.029   0.177   6.411  0.2633 -0.6964 -0.2872
  149MOL0     C20017   7.131   0.268   6.435 -0.4542 -0.1951  0.3665
  149MOL0     C20018   7.105   0.414   6.426 -0.4111  0.0793  0.4189
  149MOL0     C20019   7.000   0.458   6.524 -0.0503  0.5056  0.1478
  149MOL0     C20020   7.066   0.533   6.637 -0.0860  0.4248 -0.0765
  149MOL0     C20021   6.946   0.582   6.716  0.6659  0.0835 -0.4162
  149MOL0     C20022   6.988   0.648   6.851 -0.2377 -0.8444  0.5942
  149MOL0     C20023   7.036   0.546   6.956 -0.1930  0.3632 -0.8141
  149MOL0     C20024   7.031   0.583   7.099 -0.2141 -0.3004 -1.2727
  149MOL0    Cl20025   7.084   0.445   7.191  0.0982 -0.1070 -0.1155
  149MOL0     C20026   7.194  -0.007   6.402 -0.1875  0.0756  0.0892
  149MOL0     C20027   7.207  -0.143   6.418 -0.1266  0.7358  0.2287
  149MOL0     O20028   7.146  -0.353   6.619  1.1431  0.1434 -0.0925
  149MOL0     C20029   7.040  -0.626   6.616 -0.3146  0.2549 -0.1463
  149MOL0     C20030   7.013  -0.758   6.609 -0.7426 -0.0493  0.2529
  149MOL0     N20031   6.642  -0.948   6.329 -0.3315  0.0585 -0.4810
  149MOL0     N20032   6.596  -0.845   6.383  0.2394  0.1657 -0.4494
  149MOL0     C20033   6.632   0.240   5.937 -0.2993  0.5938 -0.0697
  149MOL0     C20034   6.711   0.353   5.964 -0.8400 -0.3058 -0.7030
  149MOL0     C20035   6.950   0.672   6.172  0.0367  0.0360 -0.3079
  149MOL0     C20036   6.908   0.776   6.257  0.1698 -0.0285 -0.5897
  149MOL0     C20037   6.996   0.887   6.261  0.2370 -1.0973  0.2481
  149MOL0     C20038   7.115   0.907   6.185 -0.1866  0.0041  0.3217
  149MOL0     O20039   7.160   1.040   6.175 -0.1405  0.2621  0.9499
  149MOL0     C20040   7.276   1.064   6.102 -0.7047  0.4485  0.4481
  149MOL0     C20041   7.352   1.173   6.186 -0.6850  0.5392 -0.2663
  149MOL0     C20042   7.489   1.207   6.116 -0.0351 -0.0994 -0.5248
  149MOL0     C20043   7.588   1.271   6.205  0.7526 -1.0624 -0.1322
  149MOL0     C20044   7.715   1.305   6.138 -1.3909 -0.5194  0.0707
  149MOL0     C20045   7.820   1.320   6.080 -0.1450  0.6685 -0.7577
  149MOL0     C20046   7.160   0.794   6.122 -0.1256  1.2503  0.3477
  149MOL0     C20047   7.078   0.677   6.119  0.1634 -0.0543 -0.2304
  149MOL0     H20048   6.944   0.212   6.143 -2.4054 -0.6707  3.8651
  149MOL0     H20049   6.850   0.018   6.064  4.5303  2.8006  2.6109
  149MOL0     H20050   6.770  -0.098   5.865  0.6670 -1.0169 -0.1371
  149MOL0     H20051   6.710  -0.172   6.007 -1.9087 -0.4626  0.2239
  149MOL0     H20052   6.581  -0.214   5.754  0.5042 -1.0032  0.4791
  149MOL0     H20053   6.687  -0.323   5.854  1.2576 -0.6403  1.1252
  149MOL0     H20054   6.431  -0.196   5.971  0.4119  1.5574 -2.4302
  149MOL0     H20055   6.411  -0.312   5.845  0.7962  3.5148 -1.3010
  149MOL0     H20056   6.392  -0.417   6.059  0.5069 -0.7306  1.1067
  149MOL0     H20057   6.526  -0.491   5.972  5.7824  0.6407  0.7067
  149MOL0     H20058   6.686  -0.361   6.114  0.5696  0.1007  2.0903
  149MOL0     H20059   6.545  -0.268   6.183 -0.2799  0.7492 -0.4130
  149MOL0     H20060   6.491  -0.440   6.330  0.0116 -1.5383  1.2740
  149MOL0     H20061   6.532  -0.559   6.201 -0.7051  1.1515  0.5953
  149MOL0     H20062   6.782  -0.519   6.271  0.7408 -1.8539  1.4743
  149MOL0     H20063   6.712  -0.397   6.379  4.0524 -1.1487  1.2918
  149MOL0     H20064   6.598  -0.593   6.507  2.3341 -0.1308  3.5720
  149MOL0     H20065   6.769  -0.579   6.497 -0.6079  1.3440  0.0559
  149MOL0     H20066   6.899  -0.752   6.312 -1.4173  2.1173  1.6109
  149MOL0     H20067   6.785  -1.116   6.176  0.3292  0.8565 -3.0763
  149MOL0     H20068   6.910  -1.002   6.135  0.6532  1.4894  0.7503
  149MOL0     H20069   6.943  -1.226   6.278 -1.4323  0.2854 -1.3852
  149MOL0     H20070   6.904  -1.112   6.417 -3.0803  1.3968 -0.6710
  149MOL0     H20071   7.113  -0.986   6.256  2.0820 -0.1890  0.5828
  149MOL0     H20072   7.136  -1.153   6.245 -0.2838  0.5138 -1.2031
  149MOL0     H20073   7.248  -1.040   6.462 -0.6460  0.8473  2.6567
  149MOL0     H20074   7.137  -1.178   6.490 -0.3556 -0.6037 -0.2916
  149MOL0     H20075   7.225  -0.826   6.351 -1.4088  0.1986 -1.5983
  149MOL0     H20076   7.373  -0.634   6.325  0.4760 -1.2641  2.4661
  149MOL0     H20077   7.240  -0.547   6.245  1.1739 -0.8395 -0.3600
  149MOL0     H20078   7.321  -0.472   6.376  2.1632  0.2705 -3.1010
  149MOL0     H20079   6.900  -0.245   6.381  1.6765 -1.2385 -2.7777
  149MOL0     H20080   6.852  -0.003   6.370 -0.2756 -1.1810  2.3063
  149MOL0     H20081   7.159   0.241   6.537 -2.7359  1.0252  1.3997
  149MOL0     H20082   7.219   0.258   6.371 -1.1721  0.6084 -0.7814
  149MOL0     H20083   7.203   0.462   6.430 -0.5536  0.3119  3.3717
  149MOL0     H20084   7.069   0.438   6.326 -1.5701  1.8947  1.2417
  149MOL0     H20085   6.943   0.374   6.566  0.0082 -0.0233 -0.8130
  149MOL0     H20086   6.928   0.525   6.476  0.4037  0.2640 -0.8847
  149MOL0     H20087   7.137   0.467   6.688 -0.5160  1.4628  1.9426
  149MOL0     H20088   7.133   0.611   6.600 -0.0135  1.1251  1.4840
  149MOL0     H20089   6.882   0.502   6.755 -0.9748  1.2735 -0.5809
  149MOL0     H20090   6.884   0.652   6.661 -3.9212 -1.7607  1.8858
  149MOL0     H20091   7.064   0.725   6.837 -0.5099  0.1246  3.7584
  149MOL0     H20092   6.904   0.695   6.902  2.6411  1.8716  3.2246
  149MOL0     H20093   7.143   0.531   6.942  0.6427  2.4810  2.3061
  149MOL0     H20094   6.993   0.446   6.944  1.1061 -0.9076  3.4331
  149MOL0     H20095   6.933   0.620   7.129  1.6489  6.2279 -1.6563
  149MOL0     H20096   7.100   0.667   7.108 -0.1926 -0.3804 -0.6840
  149MOL0     H20097   7.279   0.060   6.407 -1.8605  2.2665  0.6535
  149MOL0     H20098   7.307  -0.185   6.431 -0.6631 -0.1165  1.9817
  149MOL0     H20099   6.990  -0.566   6.691 -0.9750 -1.2013  0.6178
  149MOL0     H20100   6.930  -0.800   6.666  0.3059 -1.4414  0.8324
  149MOL0     H20101   6.535   0.256   5.890 -1.8714  1.8717  3.2358
  149MOL0     H20102   6.666   0.450   5.944 -0.5481 -0.4105 -1.9519
  149MOL0     H20103   6.821   0.756   6.318  1.3469 -0.2314  1.0778
  149MOL0     H20104   6.970   0.980   6.312  1.3316 -0.6037 -0.0643
  149MOL0     H20105   7.347   0.981   6.088 -2.4697 -1.6101  2.7885
  149MOL0     H20106   7.254   1.102   6.002  0.7817  0.6991  0.1907
  149MOL0     H20107   7.383   1.140   6.285 -3.2753  0.6722  0.6624
  149MOL0     H20108   7.303   1.270   6.201 -0.8709  0.9274 -2.8441
  149MOL0     H20109   7.464   1.272   6.032 -1.4885 -0.7911 -0.6671
  149MOL0     H20110   7.531   1.116   6.072 -5.1778 -3.4638  0.5395
  149MOL0     H20111   7.619   1.202   6.284  2.4675  2.2924  2.3444
  149MOL0     H20112   7.554   1.364   6.251  1.4125 -0.6495 -0.4763
  149MOL0     H20113   7.914   1.334   6.032  0.2176  0.8776  0.0012
  149MOL0     H20114   7.256   0.783   6.072 -1.4543 -0.6003 -2.0218
  149MOL0     H20115   7.108   0.599   6.049 -0.9949 -0.8427  0.1176
  150MOL0     O20116   5.549   8.072   1.375 -0.1982 -0.0583 -0.2165
  150MOL0     C20117   5.671   8.087   1.391  0.9346 -0.5375  0.3894
  150MOL0     O20118   5.764   8.077   1.288 -0.6848 -0.1637  0.0412
  150MOL0     C20119   5.704   8.031   1.173 -0.1530 -0.2435 -0.3878
  150MOL0     C20120   5.701   7.890   1.168 -0.5100  0.6475 -0.8279
  150MOL0     C20121   5.644   7.831   1.057  0.2426  0.1082  0.0286
  150MOL0     C20122   5.598   7.903   0.945  0.3064  0.0350 -0.9294
  150MOL0     O20123   5.561   7.829   0.838  0.1049 -0.2479 -0.2669
  150MOL0     C20124   5.444   7.876   0.768  0.6262 -0.7622  0.1219
  150MOL0     C20125   5.382   7.763   0.689 -0.9535 -0.1628  0.1683
  150MOL0     C20126   5.491   7.721   0.578  0.3610 -0.2296  0.0229
  150MOL0     C20127   5.418   7.651   0.458  0.0686 -0.3425 -0.2879
  150MOL0     C20128   5.514   7.587   0.354  0.8052  0.2926 -0.6916
  150MOL0     C20129   5.447   7.508   0.244 -0.0383 -0.2907  0.4034
  150MOL0     C20130   5.527   7.455   0.130 -0.1179  0.4358 -0.5106
  150MOL0     C20131   5.579   7.570   0.042 -0.2715  0.4307  0.3013
  150MOL0     N20132   5.637   7.493  -0.076 -0.2029 -1.0371 -0.4141
  150MOL0     C20133   5.563   7.412  -0.160 -0.4590 -0.2061  0.5873
  150MOL0     C20134   5.650   7.333  -0.236  0.8205 -0.7786  0.1048
  150MOL0     C20135   5.622   7.228  -0.330  0.3494 -0.5030  0.6253
  150MOL0     C20136   5.641   7.088  -0.268 -0.0171  0.1628  0.8221
  150MOL0     C20137   5.648   6.986  -0.377 -0.0745  0.0064  0.2204
  150MOL0     C20138   5.528   6.888  -0.364 -0.8386  0.7306 -0.0593
  150MOL0     O20139   5.544   6.829  -0.227  0.3071  0.3126  0.2870
  150MOL0     C20140   5.478   6.711  -0.199 -0.4838 -1.2186  1.1281
  150MOL0     C20141   5.393   6.652  -0.289  0.4341 -0.2300  0.0878
  150MOL0     C20142   5.319   6.539  -0.242  0.6785 -0.0791 -0.2606
  150MOL0     C20143   5.233   6.483  -0.352  0.1628  0.4217 -0.0218
  150MOL0     C20144   5.332   6.488  -0.116 -0.4634 -1.5746 -0.5113
  150MOL0     C20145   5.246   6.382  -0.058  0.0084 -0.5046  0.9087
  150MOL0     O20146   5.135   6.335  -0.128 -0.3164  0.2038  0.6329
  150MOL0     C20147   5.054   6.228  -0.074 -0.4391 -0.6553  0.2183
  150MOL0     C20148   4.917   6.258  -0.088 -0.3020 -0.1764 -0.1580
  150MOL0     C20149   4.824   6.173  -0.033 -0.4782  0.2872 -0.5421
  150MOL0     C20150   4.854   6.046   0.035  0.3548 -1.0638  0.3687
  150MOL0     O20151   4.752   5.975   0.087  0.6310 -0.1081 -0.0924
  150MOL0     C20152   4.755   5.923   0.221  0.1148  0.0918 -0.2128
  150MOL0     C20153   4.607   5.928   0.280  0.2818  0.3027 -0.3130
  150MOL0     C20154   4.551   6.077   0.286  0.5601  0.5794  0.9759
  150MOL0     C20155   4.406   6.068   0.320  0.0862 -0.4515 -0.2801
  150MOL0     C20156   4.359   6.206   0.366  0.7367 -0.3996 -0.6901
  150MOL0     C20157   4.217   6.219   0.428 -0.0183 -0.1809  0.8851
  150MOL0     C20158   4.170   6.362   0.462  0.6808  0.0866 -0.9894
  150MOL0     C20159   4.117   6.381   0.605 -0.3123 -1.5728  0.0716
  150MOL0    Cl20160   4.222   6.329   0.725  0.4513  0.5742  0.3007
  150MOL0     C20161   4.994   6.020   0.044  0.7914  0.2584  0.8758
  150MOL0     C20162   5.093   6.103  -0.010 -0.4936 -0.1409 -0.6725
  150MOL0     O20163   5.271   6.350   0.053 -0.0601  0.2118  0.2917
  150MOL0     C20164   5.427   6.561  -0.027  0.5186  0.1755 -0.3678
  150MOL0     C20165   5.507   6.660  -0.077 -0.2288  0.3761  0.4911
  150MOL0     N20166   5.771   7.389  -0.209 -1.0543 -0.2647  0.4616
  150MOL0     N20167   5.773   7.462  -0.097 -0.3984 -0.2127  0.3206
  150MOL0     C20168   5.605   8.046   0.953 -0.0686  0.3915 -1.0807
  150MOL0     C20169   5.651   8.107   1.069  0.6475  0.4178  0.3000
  150MOL0     C20170   5.719   8.097   1.530  0.4101  0.0401  0.2251
  150MOL0     C20171   5.854   8.080   1.557 -0.2624  1.0533 -0.2717
  150MOL0     C20172   5.905   8.097   1.687  0.0889 -0.7563  0.6099
  150MOL0     C20173   5.816   8.101   1.793  1.0131 -0.5710 -0.6337
  150MOL0     O20174   5.846   8.104   1.932 -0.2219  0.1472 -0.3783
  150MOL0     C20175   5.987   8.115   1.960 -0.8325  1.0448  0.6375
  150MOL0     C20176   6.013   8.100   2.112 -0.5484  0.7845 -0.8286
  150MOL0     C20177   5.947   7.975   2.168  0.3339 -0.8266 -0.4735
  150MOL0     C20178   5.966   7.957   2.318 -0.7557  0.6335 -0.6913
  150MOL0     C20179   5.914   7.845   2.390 -1.0282  0.8350 -0.1858
  150MOL0     C20180   5.856   7.758   2.457  0.2434  0.0617 -1.1874
  150MOL0     C20181   5.679   8.105   1.771 -0.3193  0.5318 -0.3305
  150MOL0     C20182   5.631   8.116   1.637  1.3798 -0.5442 -0.2947
  150MOL0     H20183   5.746   7.826   1.244 -4.1872  0.9162  1.8081
  150MOL0     H20184   5.650   7.723   1.050  1.6641  0.0711  1.2766
  150MOL0     H20185   5.375   7.897   0.850  2.0761 -0.2833  1.2596
  150MOL0     H20186   5.466   7.962   0.704 -3.7429 -1.5174 -2.8393
  150MOL0     H20187   5.354   7.679   0.752 -1.9459 -0.9517 -1.2688
  150MOL0     H20188   5.303   7.811   0.629  1.3539  2.8888 -0.7083
  150MOL0     H20189   5.542   7.811   0.545 -1.0004  1.0815  1.3555
  150MOL0     H20190   5.572   7.661   0.622  0.4978 -0.1652 -0.1371
  150MOL0     H20191   5.351   7.576   0.501  0.6378 -1.7959 -1.8401
  150MOL0     H20192   5.362   7.731   0.409 -1.6462 -2.0888 -1.3234
  150MOL0     H20193   5.581   7.663   0.314 -0.5790  2.1838  0.4374
  150MOL0     H20194   5.575   7.511   0.406 -0.2394 -0.1645 -0.1016
  150MOL0     H20195   5.406   7.420   0.294  2.6400 -1.3334  0.9160
  150MOL0     H20196   5.373   7.572   0.194  3.4642  1.3339 -3.3516
  150MOL0     H20197   5.616   7.403   0.166  1.1052  2.5601 -0.3378
  150MOL0     H20198   5.454   7.382   0.092 -0.2039 -1.2838  2.6411
  150MOL0     H20199   5.654   7.625   0.100 -2.3322  0.0962  3.5433
  150MOL0     H20200   5.504   7.636  -0.003  2.0745  0.4965 -4.0810
  150MOL0     H20201   5.456   7.422  -0.167 -0.3267  2.0929  1.1906
  150MOL0     H20202   5.517   7.228  -0.362 -0.0846  0.7789  1.9380
  150MOL0     H20203   5.685   7.244  -0.418  0.0626  1.9017  0.7882
  150MOL0     H20204   5.556   7.059  -0.206  0.5158 -4.9443 -0.3791
  150MOL0     H20205   5.733   7.107  -0.211  2.2630  1.9358 -3.0640
  150MOL0     H20206   5.745   6.935  -0.372  1.8162  3.3420  1.1562
  150MOL0     H20207   5.626   7.033  -0.474 -1.5692 -0.5240  0.2728
  150MOL0     H20208   5.550   6.813  -0.441  2.8276 -0.1168  1.5864
  150MOL0     H20209   5.437   6.944  -0.383 -1.9040 -1.4144 -1.7814
  150MOL0     H20210   5.364   6.691  -0.386 -0.5450 -1.9894 -0.3706
  150MOL0     H20211   5.283   6.476  -0.449 -0.9435 -2.0520 -0.5036
  150MOL0     H20212   5.213   6.376  -0.338 -0.1827  0.6738  1.6834
  150MOL0     H20213   5.136   6.531  -0.365 -1.2735 -2.3928 -0.4977
  150MOL0     H20214   4.880   6.349  -0.133  0.9786  0.1895 -0.5175
  150MOL0     H20215   4.719   6.196  -0.045 -0.9293 -2.0662 -1.6894
  150MOL0     H20216   4.780   5.817   0.214  1.9309  0.2713  2.1293
  150MOL0     H20217   4.815   5.979   0.293 -2.2896  1.5810  0.7646
  150MOL0     H20218   4.556   5.873   0.200 -1.4980  0.6870  0.5074
  150MOL0     H20219   4.607   5.884   0.380 -1.8163  2.0163  0.5290
  150MOL0     H20220   4.559   6.119   0.186  0.4843  1.1890  1.2251
  150MOL0     H20221   4.595   6.135   0.367 -0.5650 -1.6223  3.3335
  150MOL0     H20222   4.354   6.028   0.232 -1.2929  0.7663 -0.0592
  150MOL0     H20223   4.385   5.999   0.403 -2.4611  1.2372  0.6116
  150MOL0     H20224   4.357   6.270   0.277 -0.2697 -0.1986 -0.5368
  150MOL0     H20225   4.427   6.254   0.437 -0.8862 -0.5764  1.0643
  150MOL0     H20226   4.143   6.179   0.357  0.8902  0.0988 -0.2592
  150MOL0     H20227   4.201   6.155   0.516  0.1345 -1.3920  0.0636
  150MOL0     H20228   4.097   6.405   0.394 -0.8346 -1.2276 -0.2520
  150MOL0     H20229   4.254   6.432   0.454 -0.0836  1.4136  1.5707
  150MOL0     H20230   4.025   6.325   0.625 -0.0491 -0.9546  3.6877
  150MOL0     H20231   4.090   6.486   0.616  2.0329 -0.9033 -0.0161
  150MOL0     H20232   5.027   5.929   0.093 -0.3575 -1.1367 -0.8471
  150MOL0     H20233   5.196   6.074   0.007  0.5796  1.3212 -3.9442
  150MOL0     H20234   5.443   6.523   0.073 -0.7004 -0.6724 -0.4776
  150MOL0     H20235   5.591   6.704  -0.025  1.1348 -0.6353 -0.7659
  150MOL0     H20236   5.568   8.101   0.867  0.2072 -0.2723 -1.6239
  150MOL0     H20237   5.654   8.214   1.083 -0.6503  0.4146  0.7268
  150MOL0     H20238   5.919   8.067   1.470 -1.5611  2.3002 -1.4872
  150MOL0     H20239   6.011   8.095   1.709 -0.5301 -3.7674  4.2377
  150MOL0     H20240   6.047   8.038   1.910 -0.5240  0.3128  2.0910
  150MOL0     H20241   6.030   8.209   1.924  2.8847  0.0648  1.9683
  150MOL0     H20242   5.979   8.189   2.167  3.4502  1.1704  1.4148
  150MOL0     H20243   6.121   8.099   2.125 -0.6156  1.5549 -0.0682
  150MOL0     H20244   5.994   7.893   2.113 -1.1974 -2.7187  0.9066
  150MOL0     H20245   5.838   7.973   2.163  0.2706  0.0091  0.2051
  150MOL0     H20246   5.946   8.037   2.390 -4.6904 -0.7236 -0.0111
  150MOL0     H20247   6.074   7.942   2.330 -0.4180  1.1762 -2.6546
  150MOL0     H20248   5.818   7.674   2.510  3.8419  1.7923  5.1031
  150MOL0     H20249   5.614   8.112   1.857 -1.3403  1.6888 -1.1651
  150MOL0     H20250   5.524   8.123   1.622  1.6831  1.8303 -2.0497
  151MOL0     O20251  10.777   6.829   0.849 -0.2914  0.3861  0.1539
  151MOL0     C20252  10.700   6.754   0.787  1.4503  0.3742 -0.2231
  151MOL0     O20253  10.654   6.775   0.666 -0.6236  0.2541  0.5094
  151MOL0     C20254  10.688   6.886   0.600 -0.1390 -0.1256 -0.6621
  151MOL0     C20255  10.692   7.019   0.636 -0.3271  0.3599  0.0030
  151MOL0     C20256  10.723   7.109   0.542 -1.1893 -0.0869  0.4744
  151MOL0     C20257  10.748   7.083   0.416 -0.8327  0.3483  0.0053
  151MOL0     O20258  10.782   7.183   0.328  0.1833 -0.1092  0.2474
  151MOL0     C20259  10.712   7.193   0.208 -0.3359  0.1141  0.8738
  151MOL0     C20260  10.644   7.335   0.209 -0.3593  0.3304 -0.5183
  151MOL0     C20261  10.569   7.387   0.097  0.1716 -0.4421  0.0801
  151MOL0     C20262  10.652   7.401  -0.033  0.4571  0.2058  0.5687
  151MOL0     C20263  10.765   7.503  -0.023  0.1884 -0.0464  0.7045
  151MOL0     C20264  10.808   7.577  -0.146 -0.3178  0.5677  0.0158
  151MOL0     C20265  10.792   7.496  -0.273  0.2231 -0.1911  0.0147
  151MOL0     C20266  10.885   7.553  -0.375 -0.0749  0.4380  1.1556
  151MOL0     N20267  10.859   7.699  -0.415  0.1226  1.7232  0.1612
  151MOL0     C20268  10.731   7.739  -0.462  0.1500  0.1030 -0.0443
  151MOL0     C20269  10.736   7.878  -0.441 -0.2025 -0.1348 -0.8215
  151MOL0     C20270  10.626   7.974  -0.461  0.9721 -0.6162  0.2409
  151MOL0     C20271  10.552   7.991  -0.322 -0.1182 -0.0259  0.1360
  151MOL0     C20272  10.480   7.870  -0.274  0.0908 -0.4238 -0.0645
  151MOL0     C20273  10.424   7.908  -0.133 -0.8997 -0.2818 -1.0316
  151MOL0     O20274  10.319   8.007  -0.144 -0.3074 -0.4010 -0.4925
  151MOL0     C20275  10.229   8.016  -0.036 -0.8036 -1.5111 -0.6207
  151MOL0     C20276  10.276   7.980   0.097  0.6345  0.2224  0.0912
  151MOL0     C20277  10.185   7.990   0.197  0.0772 -0.2201  0.3068
  151MOL0     C20278  10.231   7.948   0.335  0.2940 -0.0670 -0.7042
  151MOL0     C20279  10.057   8.039   0.166  0.1071  0.9602 -0.3136
  151MOL0     C20280   9.949   8.076   0.268  0.7070  0.1145  0.2118
  151MOL0     O20281   9.963   8.022   0.383 -0.9562 -0.4546 -0.2544
  151MOL0     C20282   9.863   8.024   0.471  0.9532  0.4337 -0.6942
  151MOL0     C20283   9.799   8.141   0.523  0.0681 -0.0854  0.2904
  151MOL0     C20284   9.696   8.126   0.609  0.5350  0.0385 -0.2630
  151MOL0     C20285   9.653   8.006   0.660 -0.1296  0.3099  0.6013
  151MOL0     O20286   9.562   8.012   0.768 -0.4281 -0.8209  0.4044
  151MOL0     C20287   9.484   7.896   0.790  0.1442  0.8972  0.1132
  151MOL0     C20288   9.350   7.895   0.722  0.1804  0.2870 -0.8644
  151MOL0     C20289   9.273   8.031   0.725  0.2793  1.0266 -0.3000
  151MOL0     C20290   9.147   8.028   0.641  0.2012  0.2832 -0.6232
  151MOL0     C20291   9.046   8.125   0.703  0.5672  0.4113 -0.3985
  151MOL0     C20292   8.912   8.110   0.622  0.4530 -0.4507 -0.0341
  151MOL0     C20293   8.815   8.208   0.692 -0.0907 -0.2382  0.0124
  151MOL0     C20294   8.672   8.204   0.634  0.0936  0.2627 -0.1503
  151MOL0    Cl20295   8.679   8.268   0.460 -0.2339 -0.1478 -0.1821
  151MOL0     C20296   9.724   7.883   0.617 -0.1387 -0.0457  0.0615
  151MOL0     C20297   9.828   7.898   0.518  1.0529 -0.7575  0.4414
  151MOL0     O20298   9.858   8.149   0.234  0.0378  0.1903 -0.3563
  151MOL0     C20299  10.015   8.061   0.039 -0.4300 -1.4089  0.1887
  151MOL0     C20300  10.103   8.053  -0.067  0.5485  0.0844  0.6692
  151MOL0     N20301  10.854   7.906  -0.382  0.0273  0.2328  0.1041
  151MOL0     N20302  10.917   7.799  -0.358  0.2906 -0.1920 -0.4485
  151MOL0     C20303  10.750   6.946   0.371  0.6976 -0.2312  0.1574
  151MOL0     C20304  10.727   6.848   0.472  0.3648 -0.5117  0.4205
  151MOL0     C20305  10.656   6.634   0.857 -0.1693  0.5345 -0.0848
  151MOL0     C20306  10.668   6.617   0.997  0.5120 -0.0827 -0.0207
  151MOL0     C20307  10.645   6.492   1.057 -0.5982 -1.4068  0.4430
  151MOL0     C20308  10.578   6.391   0.981 -0.0038 -0.0325  0.7239
  151MOL0     O20309  10.537   6.263   1.025  0.4021 -0.5016  0.4956
  151MOL0     C20310  10.507   6.255   1.166 -0.2473  0.2088  0.4273
  151MOL0     C20311  10.452   6.123   1.204 -0.2054  0.3140  0.9730
  151MOL0     C20312  10.447   6.096   1.358  0.1892  0.3145 -0.4616
  151MOL0     C20313  10.381   6.204   1.443  0.4335  0.8778  0.2091
  151MOL0     C20314  10.399   6.170   1.582 -0.4465  0.6641  0.2728
  151MOL0     C20315  10.439   6.131   1.687  0.7477 -0.3169  0.1264
  151MOL0     C20316  10.584   6.405   0.840 -0.7905  0.1875  0.5430
  151MOL0     C20317  10.625   6.520   0.780 -0.0033  1.1386  0.3236
  151MOL0     H20318  10.678   7.049   0.740 -0.7951  1.4792 -0.3661
  151MOL0     H20319  10.747   7.213   0.558 -0.0457 -0.2146 -0.2733
  151MOL0     H20320  10.779   7.185   0.122 -1.2788  2.7603 -0.2306
  151MOL0     H20321  10.635   7.116   0.202 -0.9243  0.7710 -0.2945
  151MOL0     H20322  10.574   7.329   0.293  0.9971  1.8694  0.8098
  151MOL0     H20323  10.722   7.403   0.247  0.0839 -0.1446 -0.5673
  151MOL0     H20324  10.486   7.317   0.080 -1.7365  1.4759  1.0735
  151MOL0     H20325  10.514   7.478   0.122 -2.9182 -1.6341 -1.7149
  151MOL0     H20326  10.712   7.311  -0.050  0.9356  0.5013  0.6843
  151MOL0     H20327  10.587   7.428  -0.117  0.2276 -1.0004  0.3436
  151MOL0     H20328  10.736   7.580   0.049  1.5029  1.8078 -0.6539
  151MOL0     H20329  10.853   7.457   0.024 -0.3873 -1.9445 -0.0083
  151MOL0     H20330  10.756   7.674  -0.144  0.0597  0.7595  1.3977
  151MOL0     H20331  10.913   7.602  -0.129  0.4454 -1.5934 -1.1928
  151MOL0     H20332  10.819   7.390  -0.267 -0.5141 -0.4382 -0.7752
  151MOL0     H20333  10.686   7.493  -0.300  0.3499 -1.6191 -0.4256
  151MOL0     H20334  10.870   7.500  -0.469  0.7117 -0.0630  1.3023
  151MOL0     H20335  10.990   7.537  -0.350  0.9106 -0.1047 -2.7025
  151MOL0     H20336  10.656   7.676  -0.510  0.9161 -0.2893 -0.7585
  151MOL0     H20337  10.652   8.073  -0.501 -1.6695  1.0754  2.4392
  151MOL0     H20338  10.547   7.925  -0.520  0.4636 -1.6626  1.7402
  151MOL0     H20339  10.475   8.068  -0.327 -0.5025 -0.1121  3.0063
  151MOL0     H20340  10.619   8.031  -0.245 -1.8534 -0.3623  1.8738
  151MOL0     H20341  10.544   7.783  -0.260  1.4369  0.3477 -1.1816
  151MOL0     H20342  10.392   7.846  -0.335  0.9928 -2.4941 -0.6383
  151MOL0     H20343  10.499   7.937  -0.058 -5.0061  1.3587  2.9378
  151MOL0     H20344  10.381   7.813  -0.097  0.1982 -1.0475 -1.6866
  151MOL0     H20345  10.375   7.946   0.123 -0.2160 -2.7720 -0.2588
  151MOL0     H20346  10.242   8.027   0.409 -0.9671 -2.4147  2.2312
  151MOL0     H20347  10.169   7.879   0.393  2.7308 -0.5602  1.4760
  151MOL0     H20348  10.320   7.885   0.326 -1.3103 -3.8242  4.6931
  151MOL0     H20349   9.821   8.238   0.479  1.2119 -0.5576 -0.2113
  151MOL0     H20350   9.657   8.222   0.643  0.2443 -0.6179  1.3404
  151MOL0     H20351   9.525   7.801   0.754  0.1120  0.1758  1.9058
  151MOL0     H20352   9.463   7.883   0.896  2.9428 -1.6886  0.5186
  151MOL0     H20353   9.358   7.874   0.615 -0.5604 -2.1076 -0.5111
  151MOL0     H20354   9.295   7.808   0.760  1.4487 -1.5775 -3.0740
  151MOL0     H20355   9.331   8.103   0.667  1.7627 -2.1204 -3.0737
  151MOL0     H20356   9.257   8.062   0.829 -1.1559 -0.8238  0.0855
  151MOL0     H20357   9.152   8.038   0.532 -0.1791  3.9334 -0.4576
  151MOL0     H20358   9.091   7.935   0.652 -2.2324  1.3384 -2.8608
  151MOL0     H20359   9.093   8.224   0.706 -0.2177  0.8040  2.8087
  151MOL0     H20360   9.029   8.093   0.806  0.7608  0.2592 -0.4121
  151MOL0     H20361   8.924   8.132   0.516  1.3906  1.6119  0.4475
  151MOL0     H20362   8.866   8.012   0.639  2.6101 -1.1001  2.8848
  151MOL0     H20363   8.859   8.308   0.693  0.2008 -0.3674  0.4116
  151MOL0     H20364   8.807   8.179   0.797 -1.1194 -1.3008 -0.3251
  151MOL0     H20365   8.629   8.278   0.702  1.4058 -0.1976  1.2313
  151MOL0     H20366   8.631   8.103   0.647 -0.8516  0.7118  0.5059
  151MOL0     H20367   9.707   7.782   0.655 -0.2097  0.7677  2.3468
  151MOL0     H20368   9.878   7.808   0.484  0.8888 -2.2959  3.8089
  151MOL0     H20369   9.913   8.088   0.012 -0.2961 -2.3730 -1.3718
  151MOL0     H20370  10.076   8.074  -0.169  0.6861 -2.6483 -0.0228
  151MOL0     H20371  10.775   6.910   0.271 -0.3537 -2.8492  0.7662
  151MOL0     H20372  10.725   6.743   0.443 -0.5021 -0.1872 -0.7610
  151MOL0     H20373  10.701   6.704   1.052 -0.0640  0.5950 -0.7317
  151MOL0     H20374  10.660   6.493   1.164  0.7865  0.5878  0.2777
  151MOL0     H20375  10.594   6.282   1.228 -0.8832 -0.1938  1.5146
  151MOL0     H20376  10.428   6.328   1.185 -0.0055 -0.2865  4.0295
  151MOL0     H20377  10.517   6.048   1.157  1.4180  2.0527  0.3187
  151MOL0     H20378  10.357   6.119   1.150  1.7204 -0.1846 -2.7188
  151MOL0     H20379  10.552   6.093   1.387  0.7243  2.0529 -2.0028
  151MOL0     H20380  10.406   5.996   1.374  3.3584 -0.9205  0.5899
  151MOL0     H20381  10.274   6.214   1.422  0.2176  0.4548  1.0573
  151MOL0     H20382  10.432   6.298   1.419 -2.3236  1.6670 -3.3328
  151MOL0     H20383  10.477   6.109   1.785 -3.0955  1.4420  2.2136
  151MOL0     H20384  10.528   6.331   0.782 -0.7290 -0.0283  0.7546
  151MOL0     H20385  10.610   6.510   0.673  1.3556  1.9382  0.0366
  152MOL0     O20386   6.777   7.282   7.373  0.4233  0.3538 -0.1162
  152MOL0     C20387   6.832   7.359   7.453 -1.0804  0.2221 -1.1849
  152MOL0     O20388   6.942   7.433   7.424 -0.7165 -0.0679 -0.1674
  152MOL0     C20389   7.005   7.434   7.306 -0.3468  0.7323  0.7464
  152MOL0     C20390   7.045   7.556   7.249  0.4357 -0.5624 -0.1929
  152MOL0     C20391   7.108   7.555   7.125  0.9834  0.0503 -0.4372
  152MOL0     C20392   7.135   7.428   7.059  0.0535 -0.7237 -1.3283
  152MOL0     O20393   7.199   7.435   6.940  0.2515 -0.2459  0.1471
  152MOL0     C20394   7.188   7.336   6.844  0.3434 -0.0643 -0.6689
  152MOL0     C20395   7.223   7.394   6.708  0.2402 -0.1387  0.2640
  152MOL0     C20396   7.133   7.509   6.658 -0.1134  0.0821 -0.8597
  152MOL0     C20397   7.155   7.647   6.704 -0.3402  0.0490 -0.3244
  152MOL0     C20398   7.077   7.752   6.620 -0.0005  0.2914  0.2598
  152MOL0     C20399   7.090   7.892   6.674 -0.0689  0.5330 -0.1876
  152MOL0     C20400   7.007   7.994   6.592 -0.8841 -0.3741 -0.1773
  152MOL0     C20401   6.988   8.132   6.659 -0.0697 -0.1680 -0.2891
  152MOL0     N20402   6.887   8.226   6.607  1.1997 -0.3084 -0.1526
  152MOL0     C20403   6.770   8.267   6.675  0.9713  0.3050 -0.4868
  152MOL0     C20404   6.734   8.384   6.616 -0.4208 -0.4576 -0.3729
  152MOL0     C20405   6.615   8.467   6.656  0.6442  0.5106  0.2300
  152MOL0     C20406   6.484   8.402   6.609  0.0456 -0.1045  0.2085
  152MOL0     C20407   6.361   8.432   6.698 -0.4905  0.9460  0.8684
  152MOL0     C20408   6.351   8.576   6.703  0.6454  0.4922 -0.6211
  152MOL0     O20409   6.353   8.650   6.580  0.9300 -0.1068  0.5907
  152MOL0     C20410   6.317   8.786   6.587 -0.4036  0.4820  0.2672
  152MOL0     C20411   6.329   8.861   6.471  0.1227  0.3976 -0.1024
  152MOL0     C20412   6.307   8.998   6.466 -0.1524 -0.7901  0.6962
  152MOL0     C20413   6.334   9.079   6.342 -0.0720  0.0070 -1.0269
  152MOL0     C20414   6.266   9.059   6.587 -0.4977  0.7188  0.1184
  152MOL0     C20415   6.252   9.200   6.591 -0.5797  0.5659  0.3437
  152MOL0     O20416   6.127   9.245   6.615  0.2290 -0.8594  0.4956
  152MOL0     C20417   6.080   9.366   6.575 -0.8783  0.6053 -0.0879
  152MOL0     C20418   5.976   9.416   6.648 -0.2256  0.4921 -0.4124
  152MOL0     C20419   5.914   9.546   6.614  0.2927 -0.2479 -0.4961
  152MOL0     C20420   5.959   9.610   6.497  0.9978 -0.0954  0.7375
  152MOL0     O20421   5.901   9.734   6.468 -0.2529 -0.1664  0.2937
  152MOL0     C20422   5.949   9.814   6.357 -0.7214  1.3787  1.0105
  152MOL0     C20423   5.861   9.919   6.297 -0.2623  0.4812 -0.5706
  152MOL0     C20424   5.934   9.989   6.185  0.1744 -0.4478 -0.0107
  152MOL0     C20425   5.844  10.106   6.125  0.1877  0.3308  0.1480
  152MOL0     C20426   5.923  10.190   6.018 -0.6955 -0.1472  0.3114
  152MOL0     C20427   5.823  10.275   5.933 -0.4705 -0.2432 -0.5655
  152MOL0     C20428   5.885  10.352   5.813 -0.8364 -0.1604 -0.5036
  152MOL0     C20429   5.780  10.399   5.720 -0.0165  0.1350  0.8788
  152MOL0    Cl20430   5.858  10.453   5.565  0.3681 -0.8434 -0.2484
  152MOL0     C20431   6.064   9.547   6.421  0.1403 -0.0748 -0.1387
  152MOL0     C20432   6.124   9.435   6.462  0.3314  1.1699 -0.2788
  152MOL0     O20433   6.356   9.268   6.584 -0.3971 -0.0425  1.0111
  152MOL0     C20434   6.229   8.984   6.698  0.6266 -0.2666  0.1294
  152MOL0     C20435   6.247   8.845   6.697  0.0039 -0.6594  0.0198
  152MOL0     N20436   6.839   8.429   6.537  0.2012  0.4240  0.0514
  152MOL0     N20437   6.924   8.337   6.539  0.8766 -0.1976 -0.0183
  152MOL0     C20438   7.116   7.309   7.128  0.8226 -0.2977 -0.9695
  152MOL0     C20439   7.046   7.312   7.248  0.3401 -0.3652  0.3331
  152MOL0     C20440   6.752   7.382   7.580  0.6296  0.3127  0.4336
  152MOL0     C20441   6.607   7.359   7.580 -0.9674  0.2740  0.0825
  152MOL0     C20442   6.526   7.382   7.688 -0.2426  0.2342 -0.5156
  152MOL0     C20443   6.589   7.417   7.815  0.2299 -0.1008 -0.4140
  152MOL0     O20444   6.505   7.441   7.923 -0.0909  0.7001  0.1777
  152MOL0     C20445   6.394   7.342   7.930  0.0978 -1.0945  0.1508
  152MOL0     C20446   6.265   7.418   7.893  0.5785 -1.0599 -0.1517
  152MOL0     C20447   6.252   7.547   7.988  0.4787 -0.1347 -0.5611
  152MOL0     C20448   6.121   7.621   7.982  1.1716  0.3348 -0.6970
  152MOL0     C20449   6.135   7.711   7.864 -0.1244  0.0117 -0.3869
  152MOL0     C20450   6.149   7.763   7.755  0.0735 -0.0780 -0.0239
  152MOL0     C20451   6.735   7.426   7.824 -0.1695  0.0122 -0.4107
  152MOL0     C20452   6.812   7.413   7.705  0.1875 -1.0438  0.3444
  152MOL0     H20453   7.013   7.648   7.295  1.4222  0.2077 -0.9988
  152MOL0     H20454   7.132   7.648   7.075 -0.1663  0.2867 -0.5803
  152MOL0     H20455   7.253   7.251   6.869  1.0906  0.9192  0.8750
  152MOL0     H20456   7.088   7.291   6.844  1.0194 -1.6621 -2.0203
  152MOL0     H20457   7.329   7.423   6.713  0.2230 -0.3202  1.9560
  152MOL0     H20458   7.213   7.313   6.634 -1.8052 -0.8699  1.2782
  152MOL0     H20459   7.155   7.499   6.551  1.3517 -3.6495 -0.3572
  152MOL0     H20460   7.031   7.471   6.667  0.0445 -0.1014  0.2462
  152MOL0     H20461   7.126   7.656   6.810  3.3322 -0.8634  0.8955
  152MOL0     H20462   7.263   7.656   6.693 -0.0333 -1.8604  0.6551
  152MOL0     H20463   7.114   7.751   6.517 -1.7723 -2.4610 -0.4444
  152MOL0     H20464   6.972   7.722   6.616 -0.5500  2.1112 -0.3796
  152MOL0     H20465   7.055   7.910   6.776  1.5101  3.4613 -0.0727
  152MOL0     H20466   7.195   7.919   6.667  0.0958 -0.3542 -1.4865
  152MOL0     H20467   7.065   8.012   6.501 -2.5017 -0.9511 -1.3847
  152MOL0     H20468   6.909   7.951   6.565 -0.8669  0.5758 -1.8459
  152MOL0     H20469   7.083   8.185   6.648 -1.3798  1.9463 -2.2316
  152MOL0     H20470   6.971   8.110   6.765 -0.4563  0.9712 -0.0974
  152MOL0     H20471   6.716   8.213   6.753 -1.2151 -1.0152 -2.7885
  152MOL0     H20472   6.612   8.482   6.764  0.7353 -1.9132  0.6163
  152MOL0     H20473   6.632   8.561   6.601 -1.2465 -0.3799 -2.0231
  152MOL0     H20474   6.499   8.294   6.594  1.6739  0.5415 -3.8308
  152MOL0     H20475   6.467   8.423   6.503  0.4877 -2.0716 -0.3043
  152MOL0     H20476   6.369   8.389   6.798  3.5883 -2.2927 -0.5447
  152MOL0     H20477   6.269   8.388   6.660 -1.1728  1.6915  1.6318
  152MOL0     H20478   6.431   8.623   6.761  0.1864 -1.1337  1.4642
  152MOL0     H20479   6.254   8.585   6.752  0.7819  1.1160 -0.4679
  152MOL0     H20480   6.382   8.810   6.391  3.1805  1.5861  1.0125
  152MOL0     H20481   6.285   9.178   6.345  3.7835  2.2818 -3.8605
  152MOL0     H20482   6.441   9.099   6.344  0.2269 -1.2418 -2.6299
  152MOL0     H20483   6.301   9.021   6.256 -1.2567 -0.8092 -0.0550
  152MOL0     H20484   5.944   9.356   6.732  1.7814 -0.3896 -0.2087
  152MOL0     H20485   5.832   9.590   6.670 -0.4858  0.1759 -1.9292
  152MOL0     H20486   6.044   9.854   6.392  2.0320 -2.3653 -1.3701
  152MOL0     H20487   5.965   9.746   6.272  0.4581  3.0841 -0.1835
  152MOL0     H20488   5.771   9.863   6.267 -1.3735  2.1867 -0.5493
  152MOL0     H20489   5.848   9.986   6.382 -0.2838  0.1698 -0.3255
  152MOL0     H20490   5.956   9.908   6.115 -0.3912  0.4659 -1.2708
  152MOL0     H20491   6.033  10.031   6.208  0.0575 -1.2981  2.2844
  152MOL0     H20492   5.753  10.058   6.088  0.0928  0.7680 -0.1939
  152MOL0     H20493   5.817  10.168   6.211 -1.5225  0.4241 -0.4262
  152MOL0     H20494   5.978  10.133   5.943  2.8627  1.7868  1.2477
  152MOL0     H20495   6.002  10.250   6.063 -0.9629  2.6464 -2.6239
  152MOL0     H20496   5.761  10.191   5.901  2.0336 -1.7895 -1.7467
  152MOL0     H20497   5.757  10.347   5.981  0.1441  1.5989 -2.3110
  152MOL0     H20498   5.943  10.285   5.748 -2.6097 -3.1464  0.8008
  152MOL0     H20499   5.953  10.426   5.856 -2.5064  2.1444 -1.6333
  152MOL0     H20500   5.718  10.484   5.751 -1.7251 -0.5785 -0.4212
  152MOL0     H20501   5.720  10.313   5.690  1.3948 -0.3474 -0.7544
  152MOL0     H20502   6.095   9.591   6.327 -0.7368  1.6094  0.3124
  152MOL0     H20503   6.204   9.394   6.401 -2.5656 -0.6758 -3.1536
  152MOL0     H20504   6.171   9.033   6.775 -1.1498  0.3552 -1.5195
  152MOL0     H20505   6.226   8.792   6.789 -0.6340  0.2745  0.4340
  152MOL0     H20506   7.142   7.219   7.074  0.8231 -0.6750 -0.3539
  152MOL0     H20507   7.021   7.216   7.292  1.3546 -1.5460 -1.5546
  152MOL0     H20508   6.561   7.319   7.490  0.7680 -4.2349  0.9548
  152MOL0     H20509   6.421   7.355   7.679 -0.0889 -0.2462 -0.8547
  152MOL0     H20510   6.413   7.245   7.883  0.2731  0.5817 -3.6511
  152MOL0     H20511   6.379   7.328   8.037 -0.2618  0.2295  0.2951
  152MOL0     H20512   6.169   7.366   7.898  0.3875 -0.8925 -1.5726
  152MOL0     H20513   6.284   7.467   7.797 -1.1001 -0.3302 -0.1363
  152MOL0     H20514   6.340   7.604   7.958  1.1515 -0.1444  1.2601
  152MOL0     H20515   6.275   7.525   8.093 -1.7516  0.3348  0.0786
  152MOL0     H20516   6.104   7.686   8.068 -2.6720  1.6347 -2.1991
  152MOL0     H20517   6.032   7.558   7.986 -1.4697  3.8094  2.4229
  152MOL0     H20518   6.161   7.808   7.658  1.8753 -1.7547 -0.6449
  152MOL0     H20519   6.774   7.439   7.925 -1.6351  1.0663  0.0471
  152MOL0     H20520   6.919   7.427   7.696 -0.3427  2.3081 -2.9126
  153MOL0     O20521   7.182   6.727   9.047  0.1332 -0.0095 -0.2761
  153MOL0     C20522   7.244   6.645   8.988 -0.5198  1.1120  0.5900
  153MOL0     O20523   7.329   6.658   8.885 -0.2831  0.2300  0.2285
  153MOL0     C20524   7.314   6.772   8.812 -0.1970  0.3870 -0.1998
  153MOL0     C20525   7.415   6.873   8.834 -0.2207 -0.8553 -0.3786
  153MOL0     C20526   7.405   6.996   8.770 -0.9248  0.1006 -0.0129
  153MOL0     C20527   7.289   7.027   8.689  0.3380  0.1022  0.0803
  153MOL0     O20528   7.265   7.145   8.621 -0.3605 -0.0735 -0.5528
  153MOL0     C20529   7.133   7.189   8.586  0.0214 -0.0246  0.3245
  153MOL0     C20530   7.122   7.326   8.522 -0.2838 -0.0408  0.2211
  153MOL0     C20531   7.217   7.421   8.593  0.8529  0.1977  0.1911
  153MOL0     C20532   7.194   7.566   8.552 -0.5928  0.4767  1.0958
  153MOL0     C20533   7.295   7.673   8.581  0.2538 -0.1330  1.2464
  153MOL0     C20534   7.330   7.664   8.726 -0.1875  0.0036 -0.3909
  153MOL0     C20535   7.417   7.773   8.776 -0.0704  1.1835 -0.0966
  153MOL0     C20536   7.407   7.773   8.925 -0.1560 -0.7200  0.5426
  153MOL0     N20537   7.460   7.660   8.996  0.1645  0.1511  0.7476
  153MOL0     C20538   7.390   7.564   9.074 -1.7614 -0.1179  0.4921
  153MOL0     C20539   7.481   7.482   9.122  0.2628 -0.7657  0.6135
  153MOL0     C20540   7.447   7.362   9.198  0.5082  0.8119 -0.7823
  153MOL0     C20541   7.353   7.274   9.118  0.3372 -0.7573 -0.5156
  153MOL0     C20542   7.333   7.145   9.210  0.4644  1.1139  0.1437
  153MOL0     C20543   7.265   7.019   9.144 -0.2640 -0.0544  0.7218
  153MOL0     O20544   7.120   7.030   9.150  0.5047 -0.3066 -0.1579
  153MOL0     C20545   7.053   7.032   9.269 -0.6834 -0.3292 -1.6461
  153MOL0     C20546   7.101   6.977   9.384 -0.2342 -0.3248 -0.5789
  153MOL0     C20547   7.033   6.985   9.510  0.1554 -0.2535  0.4455
  153MOL0     C20548   7.100   6.923   9.628 -0.5809 -0.1048 -0.0675
  153MOL0     C20549   6.901   7.039   9.519 -0.4299  0.0355 -0.5134
  153MOL0     C20550   6.822   7.050   9.649 -0.6953 -0.8089  0.2906
  153MOL0     O20551   6.863   6.972   9.752  0.2462  0.1202  0.1008
  153MOL0     C20552   6.772   6.949   9.848  0.1828  0.1072  0.2726
  153MOL0     C20553   6.737   7.050   9.927 -0.0920 -0.9075 -0.3477
  153MOL0     C20554   6.667   7.032  10.042  0.0551 -0.2454  0.4404
  153MOL0     C20555   6.620   6.903  10.086  0.0175  0.2383 -0.4210
  153MOL0     O20556   6.547   6.880  10.197 -0.8383  0.3212 -0.2428
  153MOL0     C20557   6.482   6.983  10.262  0.2134 -0.0277 -0.1153
  153MOL0     C20558   6.535   6.998  10.398  0.5367 -0.6248 -0.5127
  153MOL0     C20559   6.429   7.091  10.494  0.0457 -0.2109  0.8261
  153MOL0     C20560   6.509   7.114  10.620  0.9501 -0.0333 -0.5805
  153MOL0     C20561   6.420   7.190  10.724 -0.2451 -0.4054 -0.2783
  153MOL0     C20562   6.492   7.236  10.850 -0.4367 -0.0698  0.2310
  153MOL0     C20563   6.617   7.322  10.814 -0.1169 -1.1700  0.2017
  153MOL0     C20564   6.642   7.416  10.934  0.2473  0.4736  0.4554
  153MOL0    Cl20565   6.745   7.555  10.886  0.1168 -0.0187  0.3089
  153MOL0     C20566   6.655   6.797   9.995 -0.1001  0.3174  0.0463
  153MOL0     C20567   6.734   6.823   9.879  0.7672  0.3563  0.2494
  153MOL0     O20568   6.726   7.131   9.648  0.2819  1.3246 -0.5651
  153MOL0     C20569   6.854   7.101   9.402  0.0950  0.3100 -0.4572
  153MOL0     C20570   6.923   7.089   9.284 -1.0349 -0.2546  0.0506
  153MOL0     N20571   7.611   7.523   9.081  0.6485 -0.2028  0.5487
  153MOL0     N20572   7.591   7.632   9.012  0.0962 -0.1947  0.1711
  153MOL0     C20573   7.192   6.928   8.678 -0.0864  0.1109 -0.6678
  153MOL0     C20574   7.205   6.801   8.732  0.0112 -0.0851 -0.0851
  153MOL0     C20575   7.226   6.505   9.031 -0.3312 -0.1514 -0.3508
  153MOL0     C20576   7.258   6.394   8.951  0.3502  0.0944 -0.9299
  153MOL0     C20577   7.214   6.266   8.987 -0.9681 -0.7215 -0.7468
  153MOL0     C20578   7.137   6.248   9.108  0.3760  0.0747 -0.2680
  153MOL0     O20579   7.116   6.128   9.164  0.1193 -0.0270 -0.0102
  153MOL0     C20580   6.990   6.068   9.147  0.4563  0.0246  0.1121
  153MOL0     C20581   6.973   6.017   8.998  0.6933 -0.3097 -0.3401
  153MOL0     C20582   7.105   5.939   8.965 -0.0600  0.0830 -0.2452
  153MOL0     C20583   7.101   5.795   9.032 -0.3135  0.0256  0.1978
  153MOL0     C20584   7.018   5.703   8.944 -0.4245 -0.4236  0.7250
  153MOL0     C20585   6.973   5.626   8.865  0.2290  0.2899  0.7049
  153MOL0     C20586   7.100   6.356   9.181  0.5318 -0.4571 -0.0733
  153MOL0     C20587   7.150   6.480   9.148  0.2751  0.0694  0.1485
  153MOL0     H20588   7.504   6.853   8.891 -0.9861 -2.3313  0.3392
  153MOL0     H20589   7.482   7.071   8.759  0.6235 -1.7554 -4.6895
  153MOL0     H20590   7.074   7.124   8.520 -2.0510  1.8864  0.1785
  153MOL0     H20591   7.079   7.187   8.682 -0.3632 -1.2020  0.1035
  153MOL0     H20592   7.155   7.325   8.418  0.2355  1.8765  0.3340
  153MOL0     H20593   7.015   7.349   8.526 -0.1876  0.2600  1.3455
  153MOL0     H20594   7.198   7.427   8.700 -0.4599 -1.1063  0.0678
  153MOL0     H20595   7.320   7.388   8.575 -0.0783 -2.9963 -0.0643
  153MOL0     H20596   7.176   7.562   8.444 -1.7209 -0.9411  1.2955
  153MOL0     H20597   7.094   7.597   8.585 -0.8641 -0.0311  0.7757
  153MOL0     H20598   7.385   7.661   8.519  0.4714  1.1163  1.2978
  153MOL0     H20599   7.250   7.769   8.554  1.6681 -0.5757 -3.8173
  153MOL0     H20600   7.243   7.646   8.789  0.9959 -1.0221  1.0029
  153MOL0     H20601   7.391   7.574   8.737  0.9080  0.5252 -1.8932
  153MOL0     H20602   7.521   7.751   8.749  0.4097  0.1219  2.3858
  153MOL0     H20603   7.399   7.874   8.737  1.8988  1.7247  0.2761
  153MOL0     H20604   7.300   7.787   8.942 -0.4834 -0.7523 -1.2538
  153MOL0     H20605   7.460   7.862   8.959 -1.2090 -0.2189  0.9082
  153MOL0     H20606   7.282   7.557   9.082 -1.8858  1.5836  0.7337
  153MOL0     H20607   7.533   7.299   9.223  0.8794  1.4227 -0.5127
  153MOL0     H20608   7.402   7.399   9.290  2.1673  0.0024  0.3948
  153MOL0     H20609   7.405   7.238   9.029 -0.5764  0.7974 -1.7434
  153MOL0     H20610   7.251   7.313   9.109 -0.1132 -1.7584  0.1946
  153MOL0     H20611   7.263   7.169   9.290 -1.6683 -0.3601 -1.1879
  153MOL0     H20612   7.425   7.112   9.260  0.0633 -1.7766 -0.8405
  153MOL0     H20613   7.284   6.922   9.190  2.5019  0.1079  0.0695
  153MOL0     H20614   7.288   7.011   9.037  0.0972 -0.9849  0.8589
  153MOL0     H20615   7.193   6.920   9.380 -1.8427 -3.4952  2.4969
  153MOL0     H20616   7.206   6.901   9.609  0.1782  3.9972 -1.6980
  153MOL0     H20617   7.092   6.985   9.717  0.1240 -0.2961  0.1380
  153MOL0     H20618   7.046   6.831   9.649 -2.8305  0.3704 -3.0659
  153MOL0     H20619   6.759   7.155   9.908 -2.9974  0.0215  0.8674
  153MOL0     H20620   6.647   7.125  10.093 -1.3297  0.2642 -0.9409
  153MOL0     H20621   6.475   7.072  10.200 -3.3044 -0.1907 -0.1593
  153MOL0     H20622   6.378   6.951  10.273 -0.1795  0.7155 -1.5066
  153MOL0     H20623   6.548   6.898  10.439  0.5133 -0.6724 -0.6233
  153MOL0     H20624   6.626   7.058  10.387 -1.1195  2.0583 -0.5264
  153MOL0     H20625   6.338   7.032  10.510 -2.4664  2.5201 -2.2473
  153MOL0     H20626   6.388   7.181  10.449  0.0576 -0.5228  0.1868
  153MOL0     H20627   6.534   7.013  10.655  0.5051  0.5285  1.5186
  153MOL0     H20628   6.597   7.173  10.595  1.0888  0.3226  0.6691
  153MOL0     H20629   6.333   7.123  10.733  1.6328 -3.1112 -0.9820
  153MOL0     H20630   6.384   7.280  10.675  2.2283 -0.4770 -2.3839
  153MOL0     H20631   6.418   7.301  10.900  0.6833  2.5465 -1.2987
  153MOL0     H20632   6.526   7.145  10.900 -0.8376 -0.4864 -0.2451
  153MOL0     H20633   6.586   7.379  10.727 -0.8439 -0.2508  1.0339
  153MOL0     H20634   6.706   7.262  10.795 -0.0116 -0.6603 -1.0004
  153MOL0     H20635   6.700   7.371  11.014  1.1653  0.2327 -0.3335
  153MOL0     H20636   6.545   7.445  10.975 -0.6755  0.0411 -1.3212
  153MOL0     H20637   6.647   6.692  10.021  0.5490  0.4631  0.8650
  153MOL0     H20638   6.769   6.751   9.805  2.9072  1.2826  0.2930
  153MOL0     H20639   6.758   7.148   9.387  0.9649  2.0781 -0.7957
  153MOL0     H20640   6.872   7.115   9.192 -0.5099 -1.7928 -0.7220
  153MOL0     H20641   7.095   6.964   8.645 -0.2750  1.0124  0.8061
  153MOL0     H20642   7.125   6.730   8.714  1.6214 -2.4276  1.4510
  153MOL0     H20643   7.315   6.399   8.859  3.1407 -2.9746  0.4007
  153MOL0     H20644   7.230   6.179   8.924 -0.3506 -2.0149  1.1419
  153MOL0     H20645   6.982   5.986   9.219  0.9829  1.4762  1.8845
  153MOL0     H20646   6.915   6.143   9.173  1.1296  0.4257  0.9460
  153MOL0     H20647   6.970   6.109   8.939 -1.6715  0.8978  1.4806
  153MOL0     H20648   6.883   5.955   8.994  0.2927  0.3141 -2.8024
  153MOL0     H20649   7.204   5.978   8.989  1.1979 -4.0143  2.2806
  153MOL0     H20650   7.102   5.928   8.857 -3.3685  1.9812 -0.4904
  153MOL0     H20651   7.058   5.798   9.132  0.6244  4.7464  0.6859
  153MOL0     H20652   7.201   5.751   9.033 -0.1149  0.4823  0.6390
  153MOL0     H20653   6.934   5.556   8.794 -2.4509  1.6974  0.6485
  153MOL0     H20654   7.050   6.343   9.277  1.6974 -1.3431  0.4418
  153MOL0     H20655   7.117   6.571   9.198 -0.8091  0.2936 -0.9202
  154MOL0     O20656   2.719   7.195   1.443  0.6110 -0.2559 -0.1684
  154MOL0     C20657   2.802   7.226   1.355 -1.0670  0.0974  1.6507
  154MOL0     O20658   2.807   7.180   1.225 -0.4881 -0.9093  0.3740
  154MOL0     C20659   2.748   7.068   1.180  0.2116  0.6341  0.2003
  154MOL0     C20660   2.644   6.995   1.245  0.1232  0.0773  0.4031
  154MOL0     C20661   2.598   6.875   1.203  0.9829 -0.3665  0.2417
  154MOL0     C20662   2.637   6.823   1.079  0.2130  0.2030  0.3057
  154MOL0     O20663   2.588   6.706   1.020  0.6223 -0.2913 -0.0092
  154MOL0     C20664   2.510   6.616   1.094  0.3228 -0.1020 -0.7502
  154MOL0     C20665   2.499   6.478   1.025  1.0794 -0.2701  0.6781
  154MOL0     C20666   2.427   6.375   1.118  1.3721 -1.5135 -0.5022
  154MOL0     C20667   2.427   6.246   1.042  0.4690 -0.1057  0.5661
  154MOL0     C20668   2.347   6.120   1.102  0.6812 -0.6695 -0.3848
  154MOL0     C20669   2.372   6.001   1.005  0.2173 -0.4598  0.4851
  154MOL0     C20670   2.265   6.011   0.891  0.0999 -0.6017  1.3433
  154MOL0     C20671   2.268   5.886   0.795 -0.2769 -1.4301  0.4287
  154MOL0     N20672   2.394   5.874   0.729 -0.3603  0.2901 -0.3389
  154MOL0     C20673   2.458   5.967   0.647 -0.7544 -0.2789  0.3878
  154MOL0     C20674   2.577   5.899   0.616  0.0773  0.1385 -0.0271
  154MOL0     C20675   2.686   5.955   0.529 -0.0564 -0.2248 -0.1308
  154MOL0     C20676   2.680   5.922   0.381  0.3883  0.6158  0.8697
  154MOL0     C20677   2.733   5.777   0.351  0.7402 -0.0068 -0.5250
  154MOL0     C20678   2.725   5.724   0.205 -0.0591  0.1698  0.5058
  154MOL0     O20679   2.599   5.711   0.140 -0.5056  0.2063 -0.0833
  154MOL0     C20680   2.570   5.580   0.110  0.4575 -0.2925  0.3495
  154MOL0     C20681   2.535   5.490   0.210 -0.6600 -0.3061 -1.2395
  154MOL0     C20682   2.493   5.360   0.183 -0.6760 -0.5933  0.1736
  154MOL0     C20683   2.443   5.284   0.304 -0.1970  1.1053  0.7808
  154MOL0     C20684   2.477   5.325   0.050 -0.0574 -0.2874  0.1849
  154MOL0     C20685   2.402   5.205   0.014 -0.1070 -0.4467  0.8038
  154MOL0     O20686   2.340   5.191  -0.107 -0.0103 -0.2916  0.6352
  154MOL0     C20687   2.270   5.070  -0.139  0.1152 -0.2647  0.0037
  154MOL0     C20688   2.139   5.090  -0.184 -0.9533  0.6393 -0.2610
  154MOL0     C20689   2.069   4.972  -0.217 -0.8377  0.5758 -0.0169
  154MOL0     C20690   2.126   4.847  -0.226  0.4742  0.5887  0.5082
  154MOL0     O20691   2.063   4.725  -0.244  0.2013  0.2922  0.3768
  154MOL0     C20692   1.963   4.729  -0.343 -0.1533  0.4284 -0.2172
  154MOL0     C20693   1.938   4.595  -0.415  0.5572 -0.9513  0.1811
  154MOL0     C20694   1.846   4.617  -0.531 -0.0582 -0.4164 -0.3122
  154MOL0     C20695   1.821   4.499  -0.623  0.3046 -0.2740  0.1139
  154MOL0     C20696   1.744   4.539  -0.748  0.2525 -0.0394 -0.8064
  154MOL0     C20697   1.593   4.582  -0.715  0.0564  0.2428 -0.6688
  154MOL0     C20698   1.523   4.614  -0.843 -0.3760  0.1128  0.2403
  154MOL0     C20699   1.386   4.676  -0.810  0.6699 -0.5032 -0.3423
  154MOL0    Cl20700   1.263   4.572  -0.742  0.5543  0.1933  0.2875
  154MOL0     C20701   2.259   4.832  -0.190 -0.9880  0.0765  0.4756
  154MOL0     C20702   2.327   4.939  -0.138 -0.6756 -0.1811 -0.3935
  154MOL0     O20703   2.415   5.104   0.088 -0.2455 -0.9187 -0.0084
  154MOL0     C20704   2.510   5.414  -0.048  0.4228 -0.6523 -0.3011
  154MOL0     C20705   2.552   5.546  -0.023  0.6930 -0.6893 -0.4926
  154MOL0     N20706   2.584   5.776   0.680 -0.7107  0.0168  0.0954
  154MOL0     N20707   2.474   5.763   0.747 -0.8382  0.8361  0.1675
  154MOL0     C20708   2.738   6.894   1.008 -0.5299  0.4132 -0.0893
  154MOL0     C20709   2.794   7.010   1.056 -1.5500  0.0320  0.6813
  154MOL0     C20710   2.896   7.346   1.380 -0.4706 -0.2039 -0.4778
  154MOL0     C20711   2.906   7.399   1.513  0.0008  0.1106 -0.5148
  154MOL0     C20712   2.985   7.512   1.539  0.1004 -0.6281 -0.5519
  154MOL0     C20713   3.054   7.580   1.443  0.0242 -0.3627  0.7599
  154MOL0     O20714   3.144   7.685   1.461 -0.6343  0.7505 -0.7088
  154MOL0     C20715   3.192   7.711   1.592 -0.1410  0.0377 -0.4126
  154MOL0     C20716   3.296   7.601   1.638  0.2663 -0.6426 -0.6116
  154MOL0     C20717   3.376   7.654   1.757  0.2550  1.1002 -0.4134
  154MOL0     C20718   3.510   7.734   1.721  0.1322 -0.5836 -0.0896
  154MOL0     C20719   3.545   7.823   1.841 -0.5191 -0.1681  0.1769
  154MOL0     C20720   3.573   7.903   1.931  1.0306  0.7509  0.1321
  154MOL0     C20721   3.040   7.521   1.313  0.1992 -0.4039 -0.1780
  154MOL0     C20722   2.964   7.403   1.284 -0.1367  0.9698 -0.5917
  154MOL0     H20723   2.608   7.039   1.337  3.0888  0.0184  1.7066
  154MOL0     H20724   2.514   6.835   1.260  0.5846  5.3203  4.5682
  154MOL0     H20725   2.559   6.608   1.191  0.7301  1.1014 -0.8454
  154MOL0     H20726   2.406   6.646   1.110  0.2971 -1.3015  1.8994
  154MOL0     H20727   2.443   6.500   0.934  1.7047  4.2626  1.1464
  154MOL0     H20728   2.596   6.442   0.990  0.5372 -2.1282  0.9565
  154MOL0     H20729   2.483   6.368   1.213  0.2750 -0.8744  0.2122
  154MOL0     H20730   2.328   6.418   1.136  1.2191 -2.0131 -0.1241
  154MOL0     H20731   2.375   6.266   0.948 -1.8680 -2.9025  1.1191
  154MOL0     H20732   2.526   6.201   1.030  0.2906 -0.6623  1.0761
  154MOL0     H20733   2.391   6.078   1.194 -0.0832  0.0373  0.3163
  154MOL0     H20734   2.242   6.143   1.119  0.9907  0.3006  0.3410
  154MOL0     H20735   2.475   5.995   0.970 -0.3591 -1.2399 -1.1657
  154MOL0     H20736   2.355   5.914   1.069 -0.5814 -0.6162  0.0701
  154MOL0     H20737   2.164   6.006   0.934  0.8011 -1.0504  3.0521
  154MOL0     H20738   2.272   6.109   0.845 -0.3281 -0.2337  2.0454
  154MOL0     H20739   2.197   5.910   0.716 -1.1972  3.9197  2.4160
  154MOL0     H20740   2.235   5.800   0.854 -1.5287 -3.6725 -3.1828
  154MOL0     H20741   2.439   6.066   0.607  2.3611  0.6507  0.8746
  154MOL0     H20742   2.668   6.063   0.531  2.0924  0.1912  1.8860
  154MOL0     H20743   2.787   5.942   0.569  0.2786  2.0045 -0.0750
  154MOL0     H20744   2.743   5.984   0.317 -0.1067 -1.8776 -2.2649
  154MOL0     H20745   2.573   5.920   0.357  0.7131 -0.0650 -0.5945
  154MOL0     H20746   2.691   5.707   0.424 -3.0604  3.1351  0.6696
  154MOL0     H20747   2.839   5.781   0.378  0.0484  3.8547  2.5076
  154MOL0     H20748   2.777   5.628   0.199 -3.4387 -1.7694 -1.0302
  154MOL0     H20749   2.782   5.790   0.140 -0.2035 -1.2013 -1.0618
  154MOL0     H20750   2.545   5.522   0.313 -1.9373 -0.6659 -0.9781
  154MOL0     H20751   2.451   5.343   0.396 -2.3687  1.3273  0.8847
  154MOL0     H20752   2.345   5.239   0.285  0.1167  0.9052 -0.4188
  154MOL0     H20753   2.509   5.198   0.320 -0.5814  0.8342  0.9291
  154MOL0     H20754   2.085   5.183  -0.204 -0.2753  0.9496 -0.6840
  154MOL0     H20755   1.968   4.975  -0.256 -0.6238 -1.7014 -0.9111
  154MOL0     H20756   1.879   4.773  -0.288 -0.2577 -1.3278  1.1452
  154MOL0     H20757   2.001   4.798  -0.418 -2.1623  2.0837  0.1902
  154MOL0     H20758   2.030   4.549  -0.454  1.0179 -0.9880  1.2753
  154MOL0     H20759   1.887   4.522  -0.350 -0.6927 -0.0575  0.2404
  154MOL0     H20760   1.893   4.695  -0.590 -3.4756  1.2206 -1.1228
  154MOL0     H20761   1.749   4.646  -0.489 -0.1766 -2.1936  0.7360
  154MOL0     H20762   1.919   4.456  -0.645  0.6865  1.1903 -1.2729
  154MOL0     H20763   1.771   4.419  -0.568  0.7693 -0.8201 -0.2534
  154MOL0     H20764   1.743   4.471  -0.834  1.7572  0.1592 -0.9987
  154MOL0     H20765   1.797   4.627  -0.784  1.2163  0.0779  0.8197
  154MOL0     H20766   1.533   4.510  -0.659  2.5711 -0.6436  1.0637
  154MOL0     H20767   1.598   4.674  -0.656 -0.1344 -1.3937  2.0344
  154MOL0     H20768   1.509   4.525  -0.905 -0.4134 -0.3678  0.9308
  154MOL0     H20769   1.597   4.676  -0.895  0.6043 -0.4450  0.9272
  154MOL0     H20770   1.343   4.729  -0.895  4.6784  1.1283 -1.6114
  154MOL0     H20771   1.390   4.751  -0.730 -1.9026  1.2562 -1.7156
  154MOL0     H20772   2.307   4.734  -0.192 -1.8051 -0.3703  1.9301
  154MOL0     H20773   2.421   4.922  -0.087 -1.5719 -0.0076  1.4048
  154MOL0     H20774   2.505   5.391  -0.154 -2.3860  0.1329 -0.4144
  154MOL0     H20775   2.558   5.617  -0.106  1.1611 -0.9162 -0.6561
  154MOL0     H20776   2.771   6.851   0.914 -0.5597 -2.5745  1.1548
  154MOL0     H20777   2.870   7.072   1.011 -0.1402 -3.3133 -1.9863
  154MOL0     H20778   2.835   7.371   1.590 -1.4361  2.1965 -0.9989
  154MOL0     H20779   2.969   7.555   1.637  0.7682 -0.3331 -0.5691
  154MOL0     H20780   3.233   7.812   1.589  2.2086 -0.7820  1.2713
  154MOL0     H20781   3.120   7.709   1.674  0.8271 -1.6945  0.4608
  154MOL0     H20782   3.362   7.551   1.566 -0.1414 -0.7685 -0.9060
  154MOL0     H20783   3.236   7.525   1.688  0.6152 -0.4049  0.1873
  154MOL0     H20784   3.405   7.565   1.814 -0.3168  0.0214 -1.7601
  154MOL0     H20785   3.321   7.706   1.836  2.3948 -0.5820  2.3449
  154MOL0     H20786   3.514   7.787   1.625 -3.1702  0.4379  0.2058
  154MOL0     H20787   3.587   7.660   1.696  3.8979  2.7492  0.6728
  154MOL0     H20788   3.604   7.981   1.998  2.3586 -1.3728  2.1707
  154MOL0     H20789   3.101   7.572   1.239  1.7142 -1.5536  0.2501
  154MOL0     H20790   2.945   7.367   1.184  0.6884 -0.9078 -0.1338
  155MOL0     O20791   4.279   0.627   5.709  0.6328  0.0532 -0.8622
  155MOL0     C20792   4.342   0.695   5.784 -0.6788 -1.1529  0.7104
  155MOL0     O20793   4.418   0.805   5.748 -0.2271 -0.1270 -0.3169
  155MOL0     C20794   4.406   0.850   5.619 -0.1339  0.1216 -0.5098
  155MOL0     C20795   4.313   0.819   5.521 -0.2824 -1.3340  0.2331
  155MOL0     C20796   4.318   0.889   5.399  0.7782  0.1601 -0.5176
  155MOL0     C20797   4.418   0.965   5.355  0.4347  0.5349  0.5690
  155MOL0     O20798   4.423   1.014   5.231 -0.1566  0.1093  0.4173
  155MOL0     C20799   4.553   1.015   5.181 -0.4022 -0.4380  0.3600
  155MOL0     C20800   4.548   1.009   5.025 -1.0193  0.3902 -0.6810
  155MOL0     C20801   4.503   1.137   4.964  0.3928 -0.7789  1.1370
  155MOL0     C20802   4.465   1.130   4.817 -1.2079 -0.1046  0.9460
  155MOL0     C20803   4.392   1.251   4.763 -0.0670 -0.1924 -0.2147
  155MOL0     C20804   4.414   1.267   4.614 -0.0979  0.4110  0.5296
  155MOL0     C20805   4.344   1.390   4.543  0.0528 -0.4874  0.1790
  155MOL0     C20806   4.206   1.362   4.493  0.9905 -0.3093  0.9158
  155MOL0     N20807   4.151   1.490   4.446 -0.4260 -0.1084  0.6834
  155MOL0     C20808   4.099   1.589   4.523  0.5927  1.2106 -0.4158
  155MOL0     C20809   4.068   1.687   4.435  0.8046 -0.2201 -0.9549
  155MOL0     C20810   4.020   1.826   4.477  0.3416  0.7465 -0.9487
  155MOL0     C20811   3.936   1.882   4.357 -0.6472  0.8122  0.9693
  155MOL0     C20812   3.877   2.013   4.379 -0.7533 -0.2741  0.0641
  155MOL0     C20813   3.995   2.109   4.366 -0.1943 -0.2428 -0.3730
  155MOL0     O20814   3.970   2.258   4.375 -0.2066 -0.8033 -0.1371
  155MOL0     C20815   3.970   2.338   4.269  1.3377  0.2512  0.7096
  155MOL0     C20816   4.003   2.299   4.136  0.3295 -0.6685  0.1626
  155MOL0     C20817   3.999   2.390   4.030  0.6705  0.8410 -0.0924
  155MOL0     C20818   4.060   2.353   3.902 -1.0723  0.6317  0.5409
  155MOL0     C20819   3.951   2.527   4.057 -0.0563  0.1753 -0.1976
  155MOL0     C20820   3.942   2.633   3.951 -1.0284 -0.1976 -0.0279
  155MOL0     O20821   3.914   2.752   3.997 -0.5172  0.5939  0.1342
  155MOL0     C20822   3.857   2.850   3.925 -0.1491  0.4059  0.2286
  155MOL0     C20823   3.919   2.978   3.958  1.0722 -0.1674  0.3246
  155MOL0     C20824   3.872   3.095   3.901  0.0332  0.0656 -0.0750
  155MOL0     C20825   3.763   3.100   3.807  0.1626 -0.4957  0.0164
  155MOL0     O20826   3.721   3.223   3.767 -0.2004 -0.4696 -0.1148
  155MOL0     C20827   3.585   3.249   3.736 -0.6649 -0.1655  0.4613
  155MOL0     C20828   3.576   3.333   3.609 -0.6061  0.3961 -0.0770
  155MOL0     C20829   3.441   3.370   3.576 -0.3578  0.2133  0.4362
  155MOL0     C20830   3.380   3.474   3.659  0.8467 -0.3014 -0.2879
  155MOL0     C20831   3.325   3.597   3.581 -0.3078 -0.6715  0.2040
  155MOL0     C20832   3.271   3.722   3.663 -0.7833  0.1380 -0.0375
  155MOL0     C20833   3.266   3.851   3.582  0.1662  0.8220  0.0608
  155MOL0     C20834   3.167   3.865   3.475 -0.5639  0.6111 -0.4303
  155MOL0    Cl20835   3.003   3.823   3.522 -0.0590  0.4150 -0.1966
  155MOL0     C20836   3.706   2.975   3.769 -0.1491 -0.1140 -0.2445
  155MOL0     C20837   3.750   2.847   3.826 -0.7381 -0.0775 -0.9724
  155MOL0     O20838   3.954   2.603   3.831  0.7416 -0.5935  0.3725
  155MOL0     C20839   3.908   2.565   4.188 -0.0184  0.2717  0.8744
  155MOL0     C20840   3.931   2.472   4.291  0.6102 -0.1762  0.0759
  155MOL0     N20841   4.105   1.640   4.307 -0.6905 -0.6529 -0.3291
  155MOL0     N20842   4.158   1.527   4.314  0.5496  0.2229 -0.7428
  155MOL0     C20843   4.511   0.993   5.461 -0.3951 -0.4069  0.4660
  155MOL0     C20844   4.502   0.939   5.583 -0.3577 -1.1190 -0.6462
  155MOL0     C20845   4.351   0.651   5.922  0.4338 -0.5348 -0.2120
  155MOL0     C20846   4.262   0.557   5.985 -0.1504 -0.4670  0.5142
  155MOL0     C20847   4.266   0.524   6.123 -0.0415 -0.7762 -0.0897
  155MOL0     C20848   4.353   0.590   6.201  0.6018 -0.5771  0.1024
  155MOL0     O20849   4.346   0.558   6.338  0.1506 -0.4351  0.5974
  155MOL0     C20850   4.421   0.646   6.432 -0.1295 -0.4502  1.1326
  155MOL0     C20851   4.422   0.581   6.573 -0.1746 -0.5952  0.9574
  155MOL0     C20852   4.427   0.426   6.570  0.1373  0.4060 -0.0846
  155MOL0     C20853   4.280   0.371   6.588  0.0546  0.1913  0.5789
  155MOL0     C20854   4.275   0.229   6.604  0.1518  0.8292  0.5372
  155MOL0     C20855   4.266   0.109   6.626  0.6217 -0.8339  1.0265
  155MOL0     C20856   4.439   0.680   6.144  0.0923  0.3435  0.4823
  155MOL0     C20857   4.436   0.712   6.009 -0.8054 -0.0194  0.1734
  155MOL0     H20858   4.231   0.749   5.527 -0.7991 -0.7824 -0.2583
  155MOL0     H20859   4.231   0.881   5.334  0.3683 -2.6161  0.2400
  155MOL0     H20860   4.603   1.109   5.205 -2.0875  0.5336  0.2335
  155MOL0     H20861   4.620   0.935   5.214  1.1371  1.8312  3.2013
  155MOL0     H20862   4.647   0.994   4.980 -2.1552 -0.7439 -3.0048
  155MOL0     H20863   4.484   0.930   4.984  0.1542 -1.0926  0.1914
  155MOL0     H20864   4.407   1.167   5.007 -0.4593 -1.1779 -0.4025
  155MOL0     H20865   4.587   1.205   4.982  2.8234 -3.0675 -0.7584
  155MOL0     H20866   4.561   1.122   4.765 -1.7392  1.9304 -0.5007
  155MOL0     H20867   4.411   1.037   4.802  1.9459 -1.7377 -1.2670
  155MOL0     H20868   4.285   1.234   4.781 -0.3978  4.1503  4.0610
  155MOL0     H20869   4.415   1.344   4.816 -3.6206 -0.5057  2.2632
  155MOL0     H20870   4.520   1.292   4.605  0.5073 -2.1228 -0.0653
  155MOL0     H20871   4.390   1.178   4.556  1.3056  0.2345  0.1809
  155MOL0     H20872   4.339   1.474   4.614  1.4043  2.4923 -2.9526
  155MOL0     H20873   4.405   1.421   4.457 -0.4728  1.2738  0.3940
  155MOL0     H20874   4.137   1.320   4.566 -0.6378  0.4286 -0.1246
  155MOL0     H20875   4.208   1.288   4.412  1.0367 -0.0333  0.6619
  155MOL0     H20876   4.096   1.583   4.631  2.1098 -0.9434 -0.4029
  155MOL0     H20877   3.950   1.819   4.560  0.0569 -1.9817 -1.3340
  155MOL0     H20878   4.118   1.874   4.486  1.9989 -1.3084 -5.3485
  155MOL0     H20879   3.852   1.813   4.341 -0.8521  1.4772 -1.2190
  155MOL0     H20880   3.981   1.880   4.258 -2.6695 -0.7172 -0.0022
  155MOL0     H20881   3.828   2.017   4.476  0.4912 -0.0610  0.7075
  155MOL0     H20882   3.801   2.028   4.302 -0.1919 -0.4534 -0.5320
  155MOL0     H20883   4.054   2.083   4.278 -2.1820  0.1687 -1.9088
  155MOL0     H20884   4.055   2.097   4.457 -2.5122  0.1362  1.2951
  155MOL0     H20885   4.019   2.200   4.095  3.3909 -0.1971  0.0382
  155MOL0     H20886   4.100   2.252   3.894 -0.9531  0.7179  0.0017
  155MOL0     H20887   3.992   2.361   3.816 -2.9325 -4.0381  1.3064
  155MOL0     H20888   4.134   2.429   3.877 -4.1917  3.2259 -1.8440
  155MOL0     H20889   4.003   2.998   4.023 -2.0442  3.9688  3.6758
  155MOL0     H20890   3.917   3.191   3.924 -0.4456  0.1769  0.4311
  155MOL0     H20891   3.523   3.162   3.709  1.1345 -1.5996  0.7740
  155MOL0     H20892   3.550   3.316   3.814  2.9240  3.0390 -0.3991
  155MOL0     H20893   3.639   3.422   3.623  3.0772 -1.9805 -0.2462
  155MOL0     H20894   3.616   3.268   3.530  2.8729  2.2398 -0.0638
  155MOL0     H20895   3.384   3.277   3.566  0.6502 -0.4500  0.6800
  155MOL0     H20896   3.456   3.414   3.477 -0.1646 -1.0135 -0.1013
  155MOL0     H20897   3.294   3.425   3.707  0.4083 -0.6250 -1.3805
  155MOL0     H20898   3.452   3.502   3.737 -1.8183 -0.3897  2.4011
  155MOL0     H20899   3.245   3.572   3.511 -1.7469  3.8660 -0.1072
  155MOL0     H20900   3.400   3.639   3.513 -0.8879  1.0726  0.5698
  155MOL0     H20901   3.177   3.708   3.717 -1.0928 -0.7609 -0.7766
  155MOL0     H20902   3.350   3.736   3.738  0.1974  0.9568 -1.1812
  155MOL0     H20903   3.362   3.879   3.536  0.0523  1.4634  0.2072
  155MOL0     H20904   3.234   3.928   3.653 -0.5025 -1.5763  2.4899
  155MOL0     H20905   3.197   3.804   3.389  1.1303  1.6244 -0.5996
  155MOL0     H20906   3.168   3.972   3.452 -0.4324  0.7049 -0.0095
  155MOL0     H20907   3.621   2.979   3.702  0.9104 -1.2980 -1.7254
  155MOL0     H20908   3.710   2.755   3.783  0.5843  0.2290 -3.0448
  155MOL0     H20909   3.866   2.661   4.212 -0.2454  0.9481 -1.8643
  155MOL0     H20910   3.919   2.511   4.391 -3.6667 -2.3771  0.6573
  155MOL0     H20911   4.591   1.066   5.448  0.5617 -1.6688 -1.2605
  155MOL0     H20912   4.586   0.965   5.648  0.6362  2.4955 -3.1190
  155MOL0     H20913   4.205   0.489   5.923  1.6856 -3.1277  1.5203
  155MOL0     H20914   4.202   0.445   6.162 -0.0092 -0.3889  0.7692
  155MOL0     H20915   4.524   0.662   6.400 -1.5271  3.2404 -2.3172
  155MOL0     H20916   4.373   0.740   6.459  1.4122 -0.4864  4.5684
  155MOL0     H20917   4.330   0.618   6.620 -0.9547  0.5194 -1.2732
  155MOL0     H20918   4.510   0.610   6.630  1.5860 -0.7676 -1.5219
  155MOL0     H20919   4.487   0.385   6.651 -2.9212 -3.2356  0.6359
  155MOL0     H20920   4.482   0.381   6.487  1.7319 -0.8549  1.5836
  155MOL0     H20921   4.222   0.383   6.496  0.2372 -0.7992  0.3307
  155MOL0     H20922   4.232   0.415   6.676  2.4829 -0.0855  2.1296
  155MOL0     H20923   4.270   0.002   6.637 -1.8353 -1.1549 -0.3933
  155MOL0     H20924   4.512   0.728   6.209  2.0546  3.2351 -3.4232
  155MOL0     H20925   4.503   0.791   5.976 -1.8994  0.6097 -0.6091
  156MOL0     O20926   8.158   2.767   2.504 -0.2128 -0.0934  0.0024
  156MOL0     C20927   8.189   2.671   2.578 -0.9055 -0.3591 -0.2638
  156MOL0     O20928   8.116   2.617   2.670  0.2263 -0.3878 -0.4403
  156MOL0     C20929   8.005   2.680   2.716  0.3700  1.1038  0.3306
  156MOL0     C20930   7.905   2.735   2.640  0.6645  0.7669  0.8005
  156MOL0     C20931   7.798   2.803   2.694  0.5833 -0.9285 -0.4898
  156MOL0     C20932   7.776   2.796   2.838 -0.9044 -0.2139  0.8850
  156MOL0     O20933   7.672   2.841   2.911  0.0833 -0.6032 -0.1254
  156MOL0     C20934   7.544   2.858   2.843  0.2423  0.3116  0.7129
  156MOL0     C20935   7.435   2.917   2.935 -0.9099  1.0025  0.4194
  156MOL0     C20936   7.338   2.810   2.991 -0.3867 -0.1494  0.2496
  156MOL0     C20937   7.234   2.785   2.886 -0.0988  0.2663  0.9796
  156MOL0     C20938   7.149   2.670   2.932  0.0579  0.3058  0.5428
  156MOL0     C20939   7.037   2.627   2.833  0.2617 -0.0045 -0.5714
  156MOL0     C20940   7.087   2.563   2.703 -0.5421 -0.6301  0.3474
  156MOL0     C20941   6.953   2.518   2.618  0.5540  0.0699 -0.3653
  156MOL0     N20942   6.871   2.630   2.580 -0.5942 -0.2195  0.5665
  156MOL0     C20943   6.772   2.692   2.644  0.2264 -0.4387  0.0123
  156MOL0     C20944   6.737   2.788   2.556 -0.0671 -1.2161 -0.2572
  156MOL0     C20945   6.639   2.893   2.601 -0.3031 -0.0170  1.2920
  156MOL0     C20946   6.501   2.872   2.540 -0.1445  0.1563 -0.4278
  156MOL0     C20947   6.405   2.965   2.610 -0.2456 -0.0626 -0.9253
  156MOL0     C20948   6.456   3.102   2.632  0.5036  0.1567  0.5319
  156MOL0     O20949   6.343   3.176   2.690 -0.3436 -0.0363 -0.2556
  156MOL0     C20950   6.359   3.314   2.704 -0.2935  0.4362 -1.0305
  156MOL0     C20951   6.265   3.367   2.798 -1.4095  0.5155 -0.1092
  156MOL0     C20952   6.282   3.502   2.836  0.0064  0.7501 -1.3690
  156MOL0     C20953   6.177   3.551   2.923  0.0960 -0.6691  0.1563
  156MOL0     C20954   6.384   3.581   2.791  0.4865 -0.4333  0.4371
  156MOL0     C20955   6.390   3.732   2.801  0.1875  0.0674 -0.1040
  156MOL0     O20956   6.508   3.794   2.844  0.3894  0.0909  0.3150
  156MOL0     C20957   6.534   3.917   2.787  0.3509  0.4183 -0.3740
  156MOL0     C20958   6.613   3.926   2.674 -0.0315  0.3798  0.7661
  156MOL0     C20959   6.635   4.046   2.607 -0.0893  0.1088 -0.0560
  156MOL0     C20960   6.578   4.167   2.656 -0.1518  0.9030  0.2445
  156MOL0     O20961   6.604   4.292   2.604 -0.8860 -0.7025  0.1059
  156MOL0     C20962   6.593   4.416   2.666 -0.6109 -0.7423 -0.2317
  156MOL0     C20963   6.446   4.466   2.674  0.7739  1.0762 -1.1282
  156MOL0     C20964   6.430   4.605   2.627  0.7941  0.1350  0.2536
  156MOL0     C20965   6.398   4.623   2.464  0.5630  0.4425 -0.4110
  156MOL0     C20966   6.362   4.768   2.424 -0.2578 -0.1042  0.7777
  156MOL0     C20967   6.494   4.850   2.438 -0.2369  0.1999 -0.3128
  156MOL0     C20968   6.499   4.939   2.566 -0.7485  0.3531 -1.2661
  156MOL0     C20969   6.645   4.964   2.624 -0.1795  0.7712  0.5116
  156MOL0    Cl20970   6.642   5.069   2.757 -0.2575  0.0082 -0.5461
  156MOL0     C20971   6.492   4.157   2.763  0.3669 -0.2278 -1.0071
  156MOL0     C20972   6.470   4.037   2.834 -0.7066  0.6934  1.4511
  156MOL0     O20973   6.289   3.792   2.765 -0.0358  0.7089  0.0472
  156MOL0     C20974   6.480   3.529   2.705 -0.2304 -0.7218 -0.1011
  156MOL0     C20975   6.461   3.403   2.655 -0.3738  0.2181  0.4078
  156MOL0     N20976   6.820   2.783   2.443  0.4506  0.6295  0.3525
  156MOL0     N20977   6.911   2.697   2.467  0.7310 -0.2633  0.6534
  156MOL0     C20978   7.871   2.718   2.921  0.2258  0.0737  0.3527
  156MOL0     C20979   7.985   2.666   2.856  0.3294  0.3373 -0.5807
  156MOL0     C20980   8.318   2.604   2.550 -1.0629 -0.5154 -0.1864
  156MOL0     C20981   8.376   2.515   2.637 -0.4500  0.5269 -0.1993
  156MOL0     C20982   8.490   2.439   2.613 -0.7066  0.0192  0.7652
  156MOL0     C20983   8.556   2.466   2.492  0.1226  0.2005  0.5709
  156MOL0     O20984   8.661   2.390   2.453 -1.1648  0.0905 -0.4489
  156MOL0     C20985   8.701   2.367   2.321 -1.5687  0.7496  0.2862
  156MOL0     C20986   8.605   2.274   2.243 -0.6925  0.1789 -0.8833
  156MOL0     C20987   8.645   2.246   2.095 -0.1463  0.8193 -0.1811
  156MOL0     C20988   8.532   2.238   2.001  0.3128  0.5556  0.4049
  156MOL0     C20989   8.481   2.105   1.989 -0.6212  0.2917 -0.3139
  156MOL0     C20990   8.455   1.993   1.960  0.7098 -0.8277  0.3408
  156MOL0     C20991   8.498   2.554   2.397 -0.5830  0.3162 -0.9224
  156MOL0     C20992   8.378   2.612   2.429  0.5795  0.2645 -0.2802
  156MOL0     H20993   7.906   2.745   2.532 -3.6147 -2.8614  0.1416
  156MOL0     H20994   7.730   2.862   2.634  1.5919  2.7253  1.6354
  156MOL0     H20995   7.561   2.925   2.759 -1.0362 -1.1315 -0.7858
  156MOL0     H20996   7.515   2.764   2.796  0.9354  1.4444 -2.1355
  156MOL0     H20997   7.483   2.975   3.014  0.6692 -1.5254  1.4503
  156MOL0     H20998   7.375   2.994   2.886  1.6468  6.8368  5.2714
  156MOL0     H20999   7.387   2.720   3.029 -3.0904 -1.3552  1.1532
  156MOL0     H21000   7.293   2.855   3.080 -1.3621 -1.8725  0.6801
  156MOL0     H21001   7.183   2.878   2.858  1.1127  0.3550 -1.1824
  156MOL0     H21002   7.281   2.774   2.788 -2.0677  3.6889 -0.5389
  156MOL0     H21003   7.206   2.585   2.970 -1.3953 -0.8059  0.3219
  156MOL0     H21004   7.096   2.719   3.014  1.9725  0.4345  1.7505
  156MOL0     H21005   6.970   2.553   2.879 -2.0606 -0.5909 -4.4701
  156MOL0     H21006   6.981   2.716   2.807  0.4540  0.4383  0.4816
  156MOL0     H21007   7.143   2.636   2.644 -1.0348  1.7333  2.6538
  156MOL0     H21008   7.146   2.475   2.729 -1.7876 -1.5392  0.2373
  156MOL0     H21009   6.887   2.451   2.676 -1.2629 -0.0854 -2.4798
  156MOL0     H21010   6.972   2.466   2.524 -3.0782 -1.0865 -0.6399
  156MOL0     H21011   6.740   2.667   2.745 -0.6752  0.3002 -0.0858
  156MOL0     H21012   6.640   2.901   2.711  0.9918  0.4784  1.2603
  156MOL0     H21013   6.678   2.987   2.561  0.0203 -0.7106 -0.0669
  156MOL0     H21014   6.470   2.767   2.542  5.1370 -1.7275 -1.4073
  156MOL0     H21015   6.503   2.897   2.434  0.3299  3.8978  0.3363
  156MOL0     H21016   6.373   2.936   2.710  4.4866 -0.9483  0.5565
  156MOL0     H21017   6.310   2.977   2.556 -3.6536 -3.4570  3.5271
  156MOL0     H21018   6.500   3.157   2.548  0.6217 -1.9210 -0.8229
  156MOL0     H21019   6.534   3.103   2.708  1.2229  0.8426 -0.1846
  156MOL0     H21020   6.191   3.293   2.826 -2.8795  1.5122 -1.1670
  156MOL0     H21021   6.121   3.633   2.877  0.3540 -1.7306 -2.1898
  156MOL0     H21022   6.103   3.472   2.940 -2.4768  1.5392 -0.1759
  156MOL0     H21023   6.210   3.597   3.017  0.0925 -0.2378 -0.0507
  156MOL0     H21024   6.671   3.845   2.631  0.9045  2.7728 -3.0286
  156MOL0     H21025   6.717   4.054   2.536 -0.8279  0.1407 -0.9175
  156MOL0     H21026   6.625   4.400   2.770  1.6314  2.7642 -0.2215
  156MOL0     H21027   6.654   4.490   2.613  1.5177 -3.2063 -1.4827
  156MOL0     H21028   6.369   4.412   2.618 -1.5423  2.5599  0.4341
  156MOL0     H21029   6.420   4.467   2.780  1.2946 -1.4123 -0.8902
  156MOL0     H21030   6.508   4.673   2.659 -0.2531 -0.5988  5.1681
  156MOL0     H21031   6.340   4.644   2.675  0.4593  1.4526 -1.3641
  156MOL0     H21032   6.480   4.604   2.395 -1.7078 -1.5470 -2.7647
  156MOL0     H21033   6.314   4.559   2.434  0.7659 -1.2650  2.2947
  156MOL0     H21034   6.291   4.812   2.495 -0.8616  1.1802 -0.5908
  156MOL0     H21035   6.316   4.768   2.325 -2.7458 -1.3640  1.8335
  156MOL0     H21036   6.578   4.782   2.452  1.5302  2.7348  3.3879
  156MOL0     H21037   6.521   4.910   2.351  2.1370 -2.3265 -1.4615
  156MOL0     H21038   6.438   4.891   2.643 -2.2997  0.0635 -2.6204
  156MOL0     H21039   6.447   5.035   2.550 -1.2589  0.0475 -1.4611
  156MOL0     H21040   6.725   4.991   2.555 -0.9899  3.0439  0.3808
  156MOL0     H21041   6.673   4.865   2.660 -0.7897 -0.5460 -2.3094
  156MOL0     H21042   6.442   4.240   2.810 -2.1906 -1.8052 -0.7250
  156MOL0     H21043   6.413   4.040   2.926  1.7208  0.0250  3.0709
  156MOL0     H21044   6.562   3.594   2.677  1.0580 -2.0394  0.4982
  156MOL0     H21045   6.538   3.364   2.590 -1.7488 -0.7235 -0.7206
  156MOL0     H21046   7.862   2.704   3.028 -1.3120  0.5031  0.3025
  156MOL0     H21047   8.061   2.605   2.905 -1.9576 -3.4615 -1.3109
  156MOL0     H21048   8.333   2.489   2.733  0.4801 -2.1662 -0.4492
  156MOL0     H21049   8.530   2.366   2.683  0.1111  0.7293  1.0653
  156MOL0     H21050   8.733   2.463   2.278  2.0026  0.8373  2.7543
  156MOL0     H21051   8.801   2.326   2.338 -2.5501 -2.6019 -1.1504
  156MOL0     H21052   8.513   2.326   2.272  1.0573  1.9809  1.9241
  156MOL0     H21053   8.604   2.186   2.308 -1.5158  1.9145  1.6466
  156MOL0     H21054   8.700   2.153   2.077 -2.9050 -0.7669 -1.1066
  156MOL0     H21055   8.696   2.335   2.058  1.1955  0.6235  1.1117
  156MOL0     H21056   8.561   2.279   1.904 -0.1763 -4.1556 -2.0231
  156MOL0     H21057   8.450   2.301   2.037 -1.2863 -0.9745 -0.3929
  156MOL0     H21058   8.437   1.887   1.958 -0.2493 -0.7573  2.4388
  156MOL0     H21059   8.537   2.585   2.301 -2.4620  0.4779 -1.6707
  156MOL0     H21060   8.330   2.681   2.360 -3.7736 -0.2207  1.9270
  157MOL0     O21061   3.169   6.285   9.343  0.2510 -0.6224 -0.3760
  157MOL0     C21062   3.172   6.349   9.444 -0.4227  0.2267  0.1029
  157MOL0     O21063   3.085   6.334   9.552 -0.0984  1.0937  0.3312
  157MOL0     C21064   2.994   6.232   9.544  0.2300  0.0154  0.3005
  157MOL0     C21065   3.038   6.107   9.585  0.6884  0.5755  0.8913
  157MOL0     C21066   2.949   5.995   9.565 -0.3987  0.3799 -0.0255
  157MOL0     C21067   2.811   6.015   9.530  0.1305 -0.2851  0.0678
  157MOL0     O21068   2.720   5.915   9.533 -0.0896  0.0614  0.5372
  157MOL0     C21069   2.582   5.950   9.559  0.0240 -0.4828 -0.1856
  157MOL0     C21070   2.496   5.824   9.582 -0.6794  0.3124  0.0562
  157MOL0     C21071   2.366   5.850   9.653  1.3110 -0.0598  0.3589
  157MOL0     C21072   2.270   5.734   9.636 -0.4423  0.1997 -0.0757
  157MOL0     C21073   2.133   5.778   9.707  0.4750  0.0582  0.3494
  157MOL0     C21074   2.036   5.856   9.605 -0.1929 -0.1183  0.2417
  157MOL0     C21075   1.906   5.890   9.693  0.1103 -0.7949  0.5077
  157MOL0     C21076   1.798   5.950   9.608  1.7431  0.1588 -0.0636
  157MOL0     N21077   1.814   6.083   9.555  0.2421  1.0770  0.5416
  157MOL0     C21078   1.820   6.189   9.642 -0.4214  0.8566 -0.0936
  157MOL0     C21079   1.800   6.293   9.563  0.4614 -0.1380 -0.7050
  157MOL0     C21080   1.798   6.439   9.603  1.2989 -0.5291 -0.2650
  157MOL0     C21081   1.670   6.463   9.687  0.8060  0.0083  0.4126
  157MOL0     C21082   1.647   6.611   9.739  0.1887  0.9311 -0.1347
  157MOL0     C21083   1.553   6.612   9.864 -0.5602 -0.6833 -0.6603
  157MOL0     O21084   1.607   6.529   9.968  0.4488  0.0520  0.6397
  157MOL0     C21085   1.652   6.582  10.085  0.3990 -0.0628  0.3970
  157MOL0     C21086   1.625   6.710  10.129 -0.8086 -0.8931 -0.5160
  157MOL0     C21087   1.674   6.753  10.255 -1.1312  0.1346 -0.4142
  157MOL0     C21088   1.636   6.878  10.305 -0.4450 -0.6146  0.4517
  157MOL0     C21089   1.740   6.654  10.343  0.5580 -0.1644 -0.0745
  157MOL0     C21090   1.792   6.684  10.477  0.0164  0.8768 -0.2968
  157MOL0     O21091   1.836   6.812  10.505 -0.7140  0.1070 -0.3499
  157MOL0     C21092   1.863   6.857  10.637  0.3173  0.9542  0.2305
  157MOL0     C21093   1.959   6.957  10.649  0.7135 -0.4438 -0.4740
  157MOL0     C21094   1.978   7.019  10.774 -0.7007 -0.5198  0.2467
  157MOL0     C21095   1.908   6.972  10.888  0.0336 -0.5567  0.8803
  157MOL0     O21096   1.929   7.013  11.017 -0.2275 -0.3205 -0.1230
  157MOL0     C21097   1.846   7.128  11.053  0.4118  1.1246  0.3686
  157MOL0     C21098   1.813   7.133  11.211 -0.7902 -0.0338  0.1383
  157MOL0     C21099   1.709   7.019  11.233 -0.7788 -0.4525 -0.1630
  157MOL0     C21100   1.646   7.031  11.369  0.2255  0.4411  0.6571
  157MOL0     C21101   1.569   6.907  11.401  0.1833 -0.7991  0.0605
  157MOL0     C21102   1.473   6.934  11.531 -0.1723  0.3452 -0.0753
  157MOL0     C21103   1.569   6.975  11.652  0.0398  0.0059  0.2095
  157MOL0     C21104   1.541   6.905  11.785 -0.8876  0.0155  0.1828
  157MOL0    Cl21105   1.377   6.941  11.841  0.0032 -0.0436  0.5841
  157MOL0     C21106   1.827   6.857  10.872  0.9151  0.2968  1.2821
  157MOL0     C21107   1.792   6.817  10.746 -0.9690  0.3360 -0.1610
  157MOL0     O21108   1.800   6.585  10.552  0.2617 -0.2748  0.4541
  157MOL0     C21109   1.775   6.533  10.287  1.0443  0.9264  0.5798
  157MOL0     C21110   1.734   6.491  10.159  0.2000 -0.4006 -0.3607
  157MOL0     N21111   1.784   6.247   9.433 -0.4914  0.3718 -0.0001
  157MOL0     N21112   1.795   6.117   9.426 -0.2711 -0.4477  0.5711
  157MOL0     C21113   2.771   6.144   9.505  0.2215  0.0273  0.6617
  157MOL0     C21114   2.859   6.248   9.522 -0.1571  0.4396  0.3858
  157MOL0     C21115   3.275   6.464   9.465  0.5953  1.0150  0.4002
  157MOL0     C21116   3.369   6.486   9.368  0.1148  0.6148 -0.3034
  157MOL0     C21117   3.464   6.597   9.374 -1.1426 -0.0638  0.5883
  157MOL0     C21118   3.460   6.681   9.483  0.5791 -0.4536  0.2111
  157MOL0     O21119   3.537   6.794   9.472 -0.2859  0.8484 -0.0977
  157MOL0     C21120   3.525   6.894   9.577 -0.4224 -0.6654  0.1706
  157MOL0     C21121   3.627   7.000   9.531 -0.7955 -0.7637  0.2694
  157MOL0     C21122   3.631   7.129   9.616 -0.5733  0.1351 -0.6005
  157MOL0     C21123   3.694   7.238   9.523 -0.6024  0.0171  0.4894
  157MOL0     C21124   3.843   7.213   9.512  0.3567 -0.1384 -0.2728
  157MOL0     C21125   3.957   7.187   9.487 -0.1574 -0.6864  0.0776
  157MOL0     C21126   3.366   6.653   9.585  0.2371 -1.0656 -0.1789
  157MOL0     C21127   3.283   6.543   9.575 -0.2039 -0.4978 -0.6470
  157MOL0     H21128   3.141   6.110   9.618  0.2177 -2.6636  3.1263
  157MOL0     H21129   2.993   5.897   9.575  0.4782  0.8070  0.4145
  157MOL0     H21130   2.571   6.001   9.655  0.5011  0.8253 -0.8053
  157MOL0     H21131   2.543   6.010   9.477  2.8178 -1.1809 -2.1724
  157MOL0     H21132   2.473   5.785   9.482 -1.0447 -1.0327  0.6405
  157MOL0     H21133   2.554   5.747   9.634 -0.6691  0.7830  0.7596
  157MOL0     H21134   2.391   5.860   9.759  2.1831  1.2459  0.0636
  157MOL0     H21135   2.311   5.939   9.621 -1.6769 -1.4463  1.2601
  157MOL0     H21136   2.255   5.701   9.532  1.4066  0.6382 -0.5144
  157MOL0     H21137   2.305   5.646   9.690 -0.1273 -0.9087 -1.9939
  157MOL0     H21138   2.069   5.693   9.730  1.1390 -0.9670 -1.4058
  157MOL0     H21139   2.156   5.832   9.799 -1.3939  0.4363  0.6346
  157MOL0     H21140   2.079   5.950   9.568 -2.2753 -0.4288 -3.4389
  157MOL0     H21141   2.015   5.795   9.516  2.0644 -2.3620  1.1110
  157MOL0     H21142   1.856   5.798   9.726  0.7484 -1.5337 -0.5538
  157MOL0     H21143   1.929   5.956   9.778  1.5133  0.2882 -0.6693
  157MOL0     H21144   1.710   5.954   9.672 -1.7546 -3.7223 -3.9642
  157MOL0     H21145   1.757   5.876   9.539 -1.8357  0.4429  1.5574
  157MOL0     H21146   1.821   6.185   9.751  1.8089  0.9513 -0.0653
  157MOL0     H21147   1.891   6.466   9.654 -0.6813  0.6587  3.0737
  157MOL0     H21148   1.784   6.498   9.512 -0.0019 -1.0015 -0.3950
  157MOL0     H21149   1.673   6.401   9.777 -1.5228  1.2662  1.4548
  157MOL0     H21150   1.579   6.443   9.631  0.5326 -0.5663  1.0401
  157MOL0     H21151   1.599   6.670   9.660  0.3323 -1.0788 -1.7970
  157MOL0     H21152   1.740   6.658   9.773  0.5873 -0.3253  0.5827
  157MOL0     H21153   1.455   6.574   9.835 -0.0689 -0.9217 -2.0895
  157MOL0     H21154   1.536   6.716   9.894  0.1468 -0.8196  0.2724
  157MOL0     H21155   1.562   6.780  10.075  0.5468  0.6676 -0.1519
  157MOL0     H21156   1.557   6.871  10.381 -1.7752  0.3859 -0.7785
  157MOL0     H21157   1.720   6.936  10.342 -0.6301  1.7169 -2.3989
  157MOL0     H21158   1.580   6.943  10.237 -0.0101  0.1296  0.7979
  157MOL0     H21159   2.008   7.004  10.565 -2.2144  0.8838 -1.5631
  157MOL0     H21160   2.045   7.105  10.776 -2.2376  0.7565 -0.6932
  157MOL0     H21161   1.899   7.218  11.021  0.2743  0.9888 -0.2540
  157MOL0     H21162   1.747   7.119  11.006 -1.1101  4.2467  2.6392
  157MOL0     H21163   1.900   7.111  11.273 -0.8616 -0.8468 -0.0406
  157MOL0     H21164   1.779   7.234  11.236 -1.7468 -0.5132  0.8206
  157MOL0     H21165   1.773   6.931  11.238  2.9961  1.9966 -0.5005
  157MOL0     H21166   1.637   7.015  11.150 -0.2398 -0.2437 -0.6522
  157MOL0     H21167   1.730   7.041  11.439  1.3194 -2.0220 -0.1860
  157MOL0     H21168   1.589   7.123  11.379  0.6434  0.7484  0.2598
  157MOL0     H21169   1.639   6.824  11.414  0.7096 -0.9055 -2.7218
  157MOL0     H21170   1.505   6.881  11.316 -3.9162 -1.8595  3.1438
  157MOL0     H21171   1.402   7.012  11.500  1.5989  1.7166 -0.8364
  157MOL0     H21172   1.421   6.841  11.558  0.9356 -0.7575 -1.5861
  157MOL0     H21173   1.536   7.079  11.662  1.6433  0.5212  0.4355
  157MOL0     H21174   1.676   6.982  11.628 -0.5821  2.9652 -2.4049
  157MOL0     H21175   1.611   6.940  11.861 -0.0346 -0.7273 -0.2369
  157MOL0     H21176   1.549   6.797  11.767 -1.2075  0.4008 -2.8287
  157MOL0     H21177   1.770   6.818  10.956 -2.8859 -0.1472 -1.2418
  157MOL0     H21178   1.708   6.749  10.751 -0.6400 -0.1391 -1.0161
  157MOL0     H21179   1.833   6.459  10.341 -0.1907 -1.0222 -0.6467
  157MOL0     H21180   1.757   6.389  10.132  0.3123 -1.4843  3.2348
  157MOL0     H21181   2.671   6.182   9.490  2.1927  5.4223 -1.2372
  157MOL0     H21182   2.827   6.345   9.485 -0.8108 -0.0583 -0.3977
  157MOL0     H21183   3.378   6.422   9.281 -1.5107 -0.0769  0.0115
  157MOL0     H21184   3.530   6.616   9.290  0.2738 -1.2646  1.3817
  157MOL0     H21185   3.434   6.951   9.598 -0.8194 -0.8495 -0.9802
  157MOL0     H21186   3.553   6.838   9.666  2.3135 -1.1196 -0.8828
  157MOL0     H21187   3.576   7.033   9.440  0.5643 -2.3091 -1.1223
  157MOL0     H21188   3.730   6.961   9.530  0.2449  1.7787  0.7178
  157MOL0     H21189   3.690   7.127   9.708 -0.0584  1.4731 -0.8739
  157MOL0     H21190   3.530   7.156   9.649 -0.3522  0.2007  0.0368
  157MOL0     H21191   3.677   7.337   9.566 -0.2568 -0.5580  2.0265
  157MOL0     H21192   3.666   7.228   9.418  0.1765 -0.0180  0.2756
  157MOL0     H21193   4.049   7.164   9.439 -0.5774  0.5354 -1.4184
  157MOL0     H21194   3.350   6.707   9.678 -0.3639 -2.6552  0.6783
  157MOL0     H21195   3.203   6.521   9.646  0.8755 -1.0531  0.4263
  158MOL0     O21196   8.891  10.601   8.100  0.5544 -0.1487 -0.1053
  158MOL0     C21197   8.846  10.639   8.209 -0.3259  0.0173  1.0089
  158MOL0     O21198   8.725  10.710   8.220  0.5279  0.3259  0.3577
  158MOL0     C21199   8.686  10.795   8.118 -0.2757 -1.0362  0.4095
  158MOL0     C21200   8.681  10.754   7.975 -0.8065  0.6481 -0.1319
  158MOL0     C21201   8.642  10.829   7.866 -0.3025  0.3541  0.2124
  158MOL0     C21202   8.591  10.951   7.889 -0.2287 -0.7106  0.4726
  158MOL0     O21203   8.534  11.012   7.783  0.6521 -0.6246 -0.1057
  158MOL0     C21204   8.460  11.148   7.796  0.2135  0.4909  0.0883
  158MOL0     C21205   8.309  11.126   7.844 -0.7857 -0.4755  0.1088
  158MOL0     C21206   8.223  11.035   7.754  0.8996 -0.5187 -0.0660
  158MOL0     C21207   8.255  10.878   7.752 -0.4438 -0.2762  0.0954
  158MOL0     C21208   8.178  10.812   7.655 -0.3855 -0.3763 -0.1115
  158MOL0     C21209   8.026  10.823   7.678 -0.0110 -0.1898  0.9119
  158MOL0     C21210   7.936  10.788   7.552 -1.2988 -0.5783 -1.0455
  158MOL0     C21211   7.968  10.647   7.488 -0.0513 -0.1761 -0.2098
  158MOL0     N21212   7.889  10.530   7.538  0.9777 -0.1037  0.0245
  158MOL0     C21213   7.875  10.472   7.666 -0.1487 -0.2784 -0.2051
  158MOL0     C21214   7.791  10.363   7.654  0.3442 -0.0140  0.2467
  158MOL0     C21215   7.745  10.272   7.759  0.3241 -0.1042 -0.8965
  158MOL0     C21216   7.825  10.282   7.892 -0.8413  0.1684 -1.0959
  158MOL0     C21217   7.790  10.165   7.990  0.5799 -0.6062 -0.9337
  158MOL0     C21218   7.824  10.188   8.139  0.7281 -0.4227  0.5912
  158MOL0     O21219   7.813  10.071   8.219 -0.1853 -0.3275 -0.1973
  158MOL0     C21220   7.695  10.041   8.290  1.1679 -0.6816 -1.0037
  158MOL0     C21221   7.704   9.941   8.388 -0.3292 -0.1801  0.7113
  158MOL0     C21222   7.594   9.872   8.447  0.7280 -0.8515 -0.0796
  158MOL0     C21223   7.616   9.758   8.536  0.3923  0.2445 -0.6805
  158MOL0     C21224   7.462   9.935   8.428 -0.0446  0.7721  0.0940
  158MOL0     C21225   7.330   9.894   8.488 -0.7018  0.0361 -0.3003
  158MOL0     O21226   7.216   9.944   8.428  0.1695 -0.1005  0.1767
  158MOL0     C21227   7.097   9.913   8.496  0.9332 -0.0302 -0.6201
  158MOL0     C21228   7.049   9.984   8.605 -0.3542 -0.6578 -0.6668
  158MOL0     C21229   6.920   9.952   8.654  0.1737 -1.0375 -0.1616
  158MOL0     C21230   6.838   9.843   8.610 -0.3966  0.5063 -0.2719
  158MOL0     O21231   6.706   9.813   8.674 -0.3641  0.1677 -0.4206
  158MOL0     C21232   6.635   9.714   8.610 -1.4684 -0.3926  1.2429
  158MOL0     C21233   6.488   9.723   8.661 -0.9846  0.3617  0.6059
  158MOL0     C21234   6.424   9.593   8.664  0.5697  0.8746  0.1915
  158MOL0     C21235   6.285   9.606   8.720  1.1712  1.1330  0.4705
  158MOL0     C21236   6.219   9.463   8.691  1.0965  0.1144  0.5248
  158MOL0     C21237   6.176   9.413   8.550  0.2706  0.3071 -0.5452
  158MOL0     C21238   6.059   9.511   8.510 -0.6789  0.3039 -0.0978
  158MOL0     C21239   5.940   9.419   8.466  0.7530 -0.1898 -0.1431
  158MOL0    Cl21240   5.988   9.334   8.323 -0.2465 -0.5731  0.1858
  158MOL0     C21241   6.886   9.781   8.488  0.3124 -0.1822  0.3455
  158MOL0     C21242   7.012   9.810   8.437 -1.0724 -1.1961 -0.2122
  158MOL0     O21243   7.332   9.817   8.589 -0.0692  0.7896  0.0073
  158MOL0     C21244   7.457  10.032   8.329 -0.5636  0.0555 -0.3514
  158MOL0     C21245   7.568  10.082   8.263 -0.2428  1.2554  0.0762
  158MOL0     N21246   7.764  10.344   7.512 -0.5340 -0.4007 -1.0306
  158MOL0     N21247   7.811  10.453   7.451  0.3181  0.8620 -0.7283
  158MOL0     C21248   8.600  11.001   8.024  0.1733 -0.6135 -0.0247
  158MOL0     C21249   8.649  10.929   8.139  0.5004  0.6210 -0.1309
  158MOL0     C21250   8.917  10.593   8.321 -0.1036  0.0681 -0.0561
  158MOL0     C21251   8.937  10.681   8.431  0.0000 -0.3882 -1.0246
  158MOL0     C21252   9.017  10.636   8.540  0.0420  0.1773  0.8894
  158MOL0     C21253   9.064  10.518   8.553  0.0048  0.0000 -0.1611
  158MOL0     O21254   9.137  10.506   8.671  0.0713  0.1844 -0.0046
  158MOL0     C21255   9.133  10.375   8.716 -0.2702  0.9830 -0.6687
  158MOL0     C21256   9.112  10.367   8.871 -0.0815  0.1217  0.1458
  158MOL0     C21257   9.235  10.428   8.945  0.1381  0.2755  0.1915
  158MOL0     C21258   9.368  10.348   8.930  0.7643 -0.1719 -1.5355
  158MOL0     C21259   9.445  10.357   9.051  0.7097  0.2086 -0.0663
  158MOL0     C21260   9.503  10.391   9.154 -0.4105 -0.4986  0.2150
  158MOL0     C21261   9.044  10.421   8.453  1.1885  0.5371  0.4552
  158MOL0     C21262   8.967  10.461   8.338  0.5342  0.5016 -0.0012
  158MOL0     H21263   8.703  10.649   7.957 -0.6076  0.4384  1.2460
  158MOL0     H21264   8.641  10.783   7.768  0.5387 -0.3876  0.5399
  158MOL0     H21265   8.506  11.219   7.866  1.7735  1.0538 -1.4309
  158MOL0     H21266   8.449  11.195   7.698 -2.7177  1.4974  0.8204
  158MOL0     H21267   8.309  11.085   7.946  0.2517 -0.6245  0.0611
  158MOL0     H21268   8.258  11.223   7.848 -1.7175 -0.8986  4.8214
  158MOL0     H21269   8.125  11.061   7.797  0.2122 -0.4193 -1.6337
  158MOL0     H21270   8.235  11.068   7.651  2.0061 -1.0173 -0.1090
  158MOL0     H21271   8.361  10.856   7.737 -0.9200 -2.4011 -0.5190
  158MOL0     H21272   8.234  10.837   7.851  4.0857 -0.9484  0.9982
  158MOL0     H21273   8.209  10.853   7.558  2.3610 -1.0177  0.3988
  158MOL0     H21274   8.215  10.709   7.657 -2.9803 -1.3655  0.9021
  158MOL0     H21275   7.986  10.768   7.764  0.0768 -1.3728  0.2150
  158MOL0     H21276   7.995  10.926   7.696 -3.3258 -1.0375  0.7976
  158MOL0     H21277   7.831  10.777   7.583 -1.4448 -1.8523 -1.9013
  158MOL0     H21278   7.948  10.865   7.475 -0.6472  0.5390  0.1472
  158MOL0     H21279   8.071  10.616   7.504 -0.5402 -3.0071 -1.8063
  158MOL0     H21280   7.940  10.660   7.383  1.2020 -1.7674 -0.7772
  158MOL0     H21281   7.932  10.508   7.751 -1.3655 -0.7475  0.8410
  158MOL0     H21282   7.640  10.298   7.778  0.7477  1.9859 -1.1438
  158MOL0     H21283   7.749  10.171   7.719  0.8162 -1.1545  1.6524
  158MOL0     H21284   7.791  10.378   7.933  0.6500  0.6115 -0.8224
  158MOL0     H21285   7.932  10.291   7.872 -0.3232  0.1464  1.3382
  158MOL0     H21286   7.830  10.068   7.959 -2.3607 -2.0360 -0.6088
  158MOL0     H21287   7.682  10.149   8.002  0.7549 -2.4124 -1.4703
  158MOL0     H21288   7.769  10.278   8.168 -0.8836 -0.8098 -1.1096
  158MOL0     H21289   7.932  10.210   8.136  0.5911  0.2901  0.6575
  158MOL0     H21290   7.803   9.899   8.399 -0.1935 -0.9583 -2.6372
  158MOL0     H21291   7.547   9.677   8.509  2.0110 -1.7591  0.9083
  158MOL0     H21292   7.720   9.727   8.528 -0.3163 -1.8261 -3.7139
  158MOL0     H21293   7.591   9.789   8.638 -0.8258  1.6432 -1.3545
  158MOL0     H21294   7.109  10.070   8.634 -1.5967 -0.1987  0.6298
  158MOL0     H21295   6.881  10.025   8.724 -0.2788  0.1225 -1.5552
  158MOL0     H21296   6.641   9.700   8.502  0.4721  2.9116  0.7841
  158MOL0     H21297   6.682   9.624   8.650  0.3464 -0.5812 -1.1007
  158MOL0     H21298   6.481   9.754   8.766 -3.2112 -1.6413  1.1370
  158MOL0     H21299   6.432   9.786   8.591  1.7672 -0.2443 -2.3816
  158MOL0     H21300   6.479   9.528   8.733 -0.0797  1.5736  1.4219
  158MOL0     H21301   6.415   9.551   8.564 -0.2916  1.4563  0.0169
  158MOL0     H21302   6.290   9.625   8.827  3.8865 -3.6197  1.4432
  158MOL0     H21303   6.235   9.686   8.664 -0.4489 -1.0144 -1.3336
  158MOL0     H21304   6.126   9.466   8.748  1.4484  0.8717  1.0701
  158MOL0     H21305   6.273   9.381   8.741 -2.0016 -1.8563  0.8856
  158MOL0     H21306   6.258   9.399   8.479  0.4610 -1.9038  0.0155
  158MOL0     H21307   6.143   9.309   8.562  3.8898 -1.1024 -1.2478
  158MOL0     H21308   6.084   9.567   8.419  0.9895 -0.3299 -0.0636
  158MOL0     H21309   6.027   9.586   8.583 -1.4530  1.1291 -1.2271
  158MOL0     H21310   5.859   9.485   8.435  1.9599  0.4344 -2.1602
  158MOL0     H21311   5.900   9.356   8.546 -2.5321 -0.1300 -1.6123
  158MOL0     H21312   6.831   9.708   8.429 -0.1683 -0.8813  1.6275
  158MOL0     H21313   7.035   9.747   8.352 -4.1643 -0.4514 -1.7509
  158MOL0     H21314   7.362  10.078   8.303 -0.8451 -1.2986 -1.8652
  158MOL0     H21315   7.562  10.157   8.185  0.7806  3.7210  2.2178
  158MOL0     H21316   8.552  11.099   8.030  1.0321 -0.1329 -0.7189
  158MOL0     H21317   8.624  10.952   8.242 -1.7831 -1.4875 -0.1241
  158MOL0     H21318   8.908  10.785   8.439  1.1380 -0.1036 -0.4057
  158MOL0     H21319   9.036  10.705   8.621 -0.2847 -0.7105  1.7346
  158MOL0     H21320   9.040  10.325   8.688  1.2096 -1.7183 -1.1339
  158MOL0     H21321   9.220  10.317   8.683 -0.2605  0.4556  0.2241
  158MOL0     H21322   9.083  10.266   8.899 -1.1245  0.3770  0.0348
  158MOL0     H21323   9.036  10.437   8.909  1.9805  2.0100  1.0420
  158MOL0     H21324   9.206  10.430   9.050  1.7565  2.4016  0.6585
  158MOL0     H21325   9.259  10.527   8.905  1.7253 -0.2353 -0.1955
  158MOL0     H21326   9.438  10.395   8.861  1.7719  0.7627  0.0542
  158MOL0     H21327   9.351  10.245   8.898  0.1849  0.2371 -2.5693
  158MOL0     H21328   9.556  10.419   9.243  1.7150 -2.5247 -0.3122
  158MOL0     H21329   9.075  10.318   8.466 -2.4623 -0.5724  1.3829
  158MOL0     H21330   8.947  10.393   8.255 -2.2123  0.7551  0.3669
  159MOL0     O21331  10.582   4.314   6.374  0.3648 -0.3461  0.4958
  159MOL0     C21332  10.688   4.250   6.375 -0.3859 -0.0218  0.1440
  159MOL0     O21333  10.763   4.218   6.271 -0.1858 -0.7898 -0.8488
  159MOL0     C21334  10.730   4.247   6.140 -0.2639  0.0054  0.3806
  159MOL0     C21335  10.608   4.277   6.090  0.3846  0.8872  0.5587
  159MOL0     C21336  10.586   4.274   5.955 -1.0579 -1.2367  0.0626
  159MOL0     C21337  10.692   4.243   5.863  0.0405  0.0632 -0.2427
  159MOL0     O21338  10.664   4.250   5.731 -0.0356  0.9396 -0.1562
  159MOL0     C21339  10.746   4.213   5.616  0.0831 -0.3231  0.0087
  159MOL0     C21340  10.700   4.301   5.500 -0.3551 -0.7807  0.1322
  159MOL0     C21341  10.563   4.248   5.434 -0.3368 -0.6813 -0.4437
  159MOL0     C21342  10.447   4.269   5.523  0.5845 -0.3028  0.4333
  159MOL0     C21343  10.308   4.253   5.460  0.3827  0.0063 -0.0580
  159MOL0     C21344  10.213   4.344   5.525  0.5441  0.8891 -0.3558
  159MOL0     C21345  10.155   4.299   5.662 -0.1760 -0.1555  0.1442
  159MOL0     C21346  10.245   4.306   5.784 -0.6998  0.2076  0.4829
  159MOL0     N21347  10.182   4.306   5.916  0.2847  0.1067  0.8325
  159MOL0     C21348  10.210   4.389   6.023 -0.1861 -0.2666  1.0343
  159MOL0     C21349  10.152   4.334   6.127  0.2550 -0.0914  0.0646
  159MOL0     C21350  10.143   4.393   6.267  0.1758  0.8947  0.4861
  159MOL0     C21351  10.026   4.331   6.356 -0.4572  0.7780 -0.0059
  159MOL0     C21352  10.010   4.394   6.492  0.1300  0.1622  0.3454
  159MOL0     C21353   9.880   4.369   6.558 -0.5191  0.4353 -0.8271
  159MOL0     O21354   9.869   4.231   6.593  0.0589 -0.2537 -0.4911
  159MOL0     C21355   9.760   4.184   6.660  0.1917 -0.6866  0.2071
  159MOL0     C21356   9.643   4.251   6.695  0.6714 -0.4602  0.0162
  159MOL0     C21357   9.541   4.194   6.767  0.9924  0.7992 -0.2019
  159MOL0     C21358   9.413   4.275   6.768  0.7886 -0.1681 -0.2557
  159MOL0     C21359   9.550   4.052   6.817 -0.4513 -0.1367 -0.6672
  159MOL0     C21360   9.458   3.987   6.906 -0.0175 -0.2115  0.5374
  159MOL0     O21361   9.480   3.856   6.952 -0.0740  0.2882 -0.1794
  159MOL0     C21362   9.427   3.814   7.071  0.2404 -0.2519  0.2527
  159MOL0     C21363   9.289   3.788   7.090 -0.1020  0.2272 -0.1121
  159MOL0     C21364   9.249   3.731   7.217  0.5384  0.0906  0.3733
  159MOL0     C21365   9.334   3.695   7.318  0.3669 -0.3206  0.5702
  159MOL0     O21366   9.285   3.626   7.430 -0.2740  0.7225 -0.3339
  159MOL0     C21367   9.281   3.711   7.546  0.0018  0.2977  0.1356
  159MOL0     C21368   9.207   3.634   7.653  0.9052  1.2117 -0.0542
  159MOL0     C21369   9.291   3.522   7.728 -0.4388 -1.2384  0.7931
  159MOL0     C21370   9.297   3.394   7.649 -0.2795  0.2687  0.7338
  159MOL0     C21371   9.353   3.285   7.743  1.1856 -1.0106 -0.2789
  159MOL0     C21372   9.337   3.142   7.693  1.3603  0.4344  0.6149
  159MOL0     C21373   9.395   3.097   7.546  0.0358  0.0435 -0.3904
  159MOL0     C21374   9.334   2.968   7.490 -0.1299 -0.4785  0.7090
  159MOL0    Cl21375   9.378   2.824   7.597  0.0927 -0.1384  0.0254
  159MOL0     C21376   9.473   3.732   7.296  0.4963 -0.1143  0.5628
  159MOL0     C21377   9.515   3.789   7.177  0.2089  0.2715  0.6629
  159MOL0     O21378   9.360   4.051   6.933 -0.1316 -0.0122 -0.5868
  159MOL0     C21379   9.668   3.981   6.788  0.1757  0.1823  0.1736
  159MOL0     C21380   9.770   4.046   6.705  0.3172 -0.5273  0.0217
  159MOL0     N21381  10.080   4.223   6.084 -0.5102 -0.1646  0.7918
  159MOL0     N21382  10.108   4.206   5.963  0.7363 -0.3930  0.2063
  159MOL0     C21383  10.824   4.239   5.925 -0.1991  0.4002  0.2481
  159MOL0     C21384  10.838   4.232   6.055  0.1892  0.1995  0.0343
  159MOL0     C21385  10.722   4.193   6.510  0.5866 -0.2704 -0.4560
  159MOL0     C21386  10.633   4.213   6.620  0.2200  0.4890  0.6046
  159MOL0     C21387  10.663   4.158   6.744  1.3228  0.1337 -0.7772
  159MOL0     C21388  10.791   4.095   6.772  0.2421  0.0906 -0.3697
  159MOL0     O21389  10.832   4.051   6.893 -0.6247 -0.2669  0.2903
  159MOL0     C21390  10.751   4.092   7.008 -0.4721 -0.1756  0.6876
  159MOL0     C21391  10.815   4.053   7.137  0.7122  0.1579 -0.7821
  159MOL0     C21392  10.727   4.021   7.252  0.3042  0.0045  0.3815
  159MOL0     C21393  10.799   3.986   7.376 -0.4881 -0.5574 -0.2256
  159MOL0     C21394  10.899   4.094   7.415  0.0678  0.7901 -0.0527
  159MOL0     C21395  10.965   4.188   7.453  0.1722 -0.3805 -0.4313
  159MOL0     C21396  10.873   4.078   6.669 -1.0330 -0.3460  0.0701
  159MOL0     C21397  10.834   4.113   6.541  0.0931  0.0178 -0.6865
  159MOL0     H21398  10.524   4.294   6.157 -2.1871 -3.0706 -1.2555
  159MOL0     H21399  10.491   4.302   5.910  1.4933  1.1186 -4.7486
  159MOL0     H21400  10.852   4.234   5.632  0.6058 -2.7582  0.0750
  159MOL0     H21401  10.751   4.109   5.582  2.9040  0.1365 -1.2351
  159MOL0     H21402  10.675   4.404   5.530  1.3783  0.3254 -1.9537
  159MOL0     H21403  10.779   4.309   5.425  1.1161 -0.1460  1.7064
  159MOL0     H21404  10.561   4.292   5.334  1.8946  0.2519 -0.1460
  159MOL0     H21405  10.577   4.141   5.418  2.3725 -1.0773  3.1472
  159MOL0     H21406  10.450   4.197   5.604 -6.2876 -1.5886  0.1647
  159MOL0     H21407  10.440   4.367   5.572 -0.6021 -1.0851  1.8937
  159MOL0     H21408  10.315   4.271   5.352 -1.1334  0.4893 -0.0982
  159MOL0     H21409  10.274   4.150   5.473 -2.2375  0.4213 -2.5000
  159MOL0     H21410  10.264   4.438   5.548  2.3948 -0.0457 -0.4523
  159MOL0     H21411  10.133   4.373   5.456  0.4536 -0.2413 -0.7540
  159MOL0     H21412  10.066   4.362   5.670  1.2231  1.7258  2.0474
  159MOL0     H21413  10.124   4.195   5.655  2.4573 -1.0642  0.6355
  159MOL0     H21414  10.276   4.411   5.781 -0.2253  0.0739 -2.6687
  159MOL0     H21415  10.330   4.238   5.773  1.3243  2.7421 -0.3940
  159MOL0     H21416  10.257   4.487   6.021  2.8233 -1.5970  0.2302
  159MOL0     H21417  10.235   4.383   6.325 -0.0303 -3.7408  0.4125
  159MOL0     H21418  10.114   4.498   6.259 -1.4343  0.4806  0.6634
  159MOL0     H21419  10.037   4.225   6.380 -0.2541  0.9082  0.4744
  159MOL0     H21420   9.931   4.358   6.308 -1.1815  3.8333  2.7818
  159MOL0     H21421  10.033   4.500   6.486  1.7445 -0.0366  2.0061
  159MOL0     H21422  10.090   4.354   6.556 -0.0908 -3.1562 -1.2647
  159MOL0     H21423   9.798   4.412   6.500 -0.1907  0.2023 -1.4710
  159MOL0     H21424   9.885   4.423   6.653  1.3946  1.8727 -1.6763
  159MOL0     H21425   9.625   4.350   6.655  2.5945 -0.7261 -1.6466
  159MOL0     H21426   9.402   4.311   6.871  0.8241 -2.2769  0.5365
  159MOL0     H21427   9.413   4.355   6.694  1.0594 -1.3225 -1.5326
  159MOL0     H21428   9.321   4.223   6.739 -1.1913  2.9386 -0.0275
  159MOL0     H21429   9.219   3.814   7.011 -0.1614  2.7772  0.6713
  159MOL0     H21430   9.143   3.709   7.223  0.2618  0.9348 -1.0423
  159MOL0     H21431   9.375   3.751   7.586 -1.6349  2.7405  1.8123
  159MOL0     H21432   9.222   3.798   7.517 -0.1733  0.2237  0.2695
  159MOL0     H21433   9.172   3.699   7.733 -0.2276 -1.0981  1.4551
  159MOL0     H21434   9.109   3.600   7.617 -1.0701  3.3047  2.8596
  159MOL0     H21435   9.236   3.513   7.822 -3.8368  3.2371 -0.4455
  159MOL0     H21436   9.398   3.543   7.738 -0.0185 -2.8810  0.1432
  159MOL0     H21437   9.193   3.369   7.626 -1.0051  1.3718  2.5511
  159MOL0     H21438   9.366   3.405   7.566 -1.0694  1.9824  0.2616
  159MOL0     H21439   9.318   3.299   7.845 -0.1636  1.0236 -0.9742
  159MOL0     H21440   9.461   3.300   7.756  1.2884 -2.2757  0.5052
  159MOL0     H21441   9.390   3.070   7.756  3.0642  1.3390  0.2702
  159MOL0     H21442   9.233   3.110   7.698  1.7234 -0.8754  0.3998
  159MOL0     H21443   9.503   3.091   7.562  0.0633  0.5535 -0.3603
  159MOL0     H21444   9.391   3.176   7.471  1.8948 -1.3352 -2.0207
  159MOL0     H21445   9.365   2.954   7.386 -1.0014 -1.6548  0.5826
  159MOL0     H21446   9.227   2.984   7.476  0.6021  4.8344 -0.8182
  159MOL0     H21447   9.547   3.728   7.375  1.1554  1.3395  0.0444
  159MOL0     H21448   9.623   3.792   7.170  0.1366  1.4899 -0.3315
  159MOL0     H21449   9.690   3.881   6.825 -1.3115  0.0332  0.7243
  159MOL0     H21450   9.863   3.993   6.687 -0.4322 -2.1070  0.6260
  159MOL0     H21451  10.909   4.230   5.858 -2.4083 -0.0447 -2.6948
  159MOL0     H21452  10.936   4.210   6.098  0.5624  1.5446 -0.0776
  159MOL0     H21453  10.535   4.260   6.613 -0.0258  0.0508  1.0250
  159MOL0     H21454  10.590   4.169   6.822 -0.6320  3.0996 -2.8129
  159MOL0     H21455  10.739   4.201   7.008 -3.6959 -0.2279 -4.1321
  159MOL0     H21456  10.652   4.046   7.005 -0.4220 -0.2172 -0.5900
  159MOL0     H21457  10.868   4.144   7.166 -2.0757  1.8510 -0.6627
  159MOL0     H21458  10.878   3.964   7.124  1.7966  0.2448  2.8411
  159MOL0     H21459  10.663   3.939   7.218 -3.0504  1.5727  2.3561
  159MOL0     H21460  10.671   4.115   7.263  2.1733  1.3281 -0.8208
  159MOL0     H21461  10.865   3.901   7.357 -0.3106 -1.3181  3.1426
  159MOL0     H21462  10.730   3.966   7.458 -0.3237 -0.6464 -0.1100
  159MOL0     H21463  11.044   4.252   7.484 -0.3501  1.0334 -1.8770
  159MOL0     H21464  10.962   4.019   6.689 -1.3298 -0.1103  2.2700
  159MOL0     H21465  10.897   4.086   6.457 -0.4953  1.0405 -1.4786
  160MOL0     O21466  10.841  11.304   9.110 -1.0110  0.3357  0.5176
  160MOL0     C21467  10.827  11.243   9.217  0.0232  0.4529  0.4713
  160MOL0     O21468  10.898  11.135   9.259  0.5169  0.4587  0.2143
  160MOL0     C21469  11.009  11.105   9.183  0.1303  0.8987  0.0820
  160MOL0     C21470  11.098  11.202   9.132 -0.3289 -0.3332 -0.3214
  160MOL0     C21471  11.216  11.170   9.057  1.1731  0.7836 -0.4440
  160MOL0     C21472  11.229  11.040   9.017  0.1078 -0.5450  0.2841
  160MOL0     O21473  11.333  11.001   8.941 -0.3411 -0.2487  0.7292
  160MOL0     C21474  11.456  11.066   8.986 -0.0874  0.1536 -0.5778
  160MOL0     C21475  11.570  10.991   8.941  0.5506  1.1287 -0.6381
  160MOL0     C21476  11.574  10.844   8.986 -0.1637  0.2144  0.7947
  160MOL0     C21477  11.509  10.804   9.121 -0.3290 -0.2415 -0.5820
  160MOL0     C21478  11.561  10.676   9.188 -0.2866 -0.6419  0.3218
  160MOL0     C21479  11.529  10.657   9.336  0.8675  0.5638 -0.7428
  160MOL0     C21480  11.579  10.511   9.367 -0.2860 -0.1358 -0.4163
  160MOL0     C21481  11.564  10.489   9.517 -0.2774 -0.8100  0.3057
  160MOL0     N21482  11.673  10.541   9.606  0.1563 -0.0527 -0.6355
  160MOL0     C21483  11.800  10.584   9.566  1.5966  0.5324 -0.3304
  160MOL0     C21484  11.846  10.624   9.690  0.4352 -0.0475  0.7080
  160MOL0     C21485  11.981  10.677   9.724  0.3751 -0.1198  0.7043
  160MOL0     C21486  12.047  10.625   9.852 -0.1510 -0.6733  1.2204
  160MOL0     C21487  12.060  10.479   9.858  0.0651  0.0374  0.1227
  160MOL0     C21488  12.162  10.442   9.973 -0.4384  0.7314 -0.5398
  160MOL0     O21489  12.168  10.304   9.996  0.6034 -0.6117 -0.1964
  160MOL0     C21490  12.251  10.245  10.094  0.6926 -0.4528 -0.5983
  160MOL0     C21491  12.243  10.105  10.109 -0.7696 -0.0222  0.0099
  160MOL0     C21492  12.346  10.035  10.180  0.2736 -0.0600 -0.1073
  160MOL0     C21493  12.339   9.884  10.170  0.2633 -0.1945 -0.3271
  160MOL0     C21494  12.435  10.103  10.266 -0.0794  0.2915  0.1611
  160MOL0     C21495  12.555  10.041  10.333 -0.0446 -0.5135  0.2634
  160MOL0     O21496  12.564   9.905  10.342 -0.5719 -0.4043  0.0895
  160MOL0     C21497  12.680   9.852  10.392 -0.6361 -0.1888  0.8241
  160MOL0     C21498  12.790   9.822  10.305  0.0115  0.3660 -0.2455
  160MOL0     C21499  12.918   9.789  10.358 -0.1012 -0.1833 -0.0921
  160MOL0     C21500  12.936   9.780  10.501  0.6809  0.4530 -0.3808
  160MOL0     O21501  13.056   9.742  10.559  0.6284  1.1201 -0.2758
  160MOL0     C21502  13.160   9.822  10.508 -1.0316  0.1930  0.5066
  160MOL0     C21503  13.279   9.813  10.611 -0.5576  0.9379  0.3929
  160MOL0     C21504  13.406   9.887  10.575  0.0945  0.2819 -0.8263
  160MOL0     C21505  13.381  10.034  10.583 -0.1505 -0.3856 -0.2293
  160MOL0     C21506  13.513  10.117  10.550  0.3127  0.0238 -0.1515
  160MOL0     C21507  13.499  10.262  10.583  0.0168 -0.4559  0.0093
  160MOL0     C21508  13.384  10.335  10.520 -0.6296 -0.0697 -0.2483
  160MOL0     C21509  13.402  10.357  10.378 -0.4531  0.2773 -0.3066
  160MOL0    Cl21510  13.237  10.360  10.306 -0.3160 -0.0174  0.0825
  160MOL0     C21511  12.822   9.796  10.579 -0.8763 -0.5429  0.3689
  160MOL0     C21512  12.703   9.836  10.527  0.4441 -1.5770 -0.0283
  160MOL0     O21513  12.639  10.121  10.376 -0.9456  0.0813 -1.2058
  160MOL0     C21514  12.422  10.240  10.253 -0.8587 -0.1903  0.4342
  160MOL0     C21515  12.333  10.316  10.178 -0.3689 -0.0226 -0.2311
  160MOL0     N21516  11.750  10.594   9.786  0.1397  0.1295 -0.3138
  160MOL0     N21517  11.652  10.536   9.741  0.5155  0.3517 -0.1259
  160MOL0     C21518  11.144  10.942   9.066 -0.1662 -0.9074 -0.9038
  160MOL0     C21519  11.045  10.973   9.147  0.4733 -0.5815  0.1436
  160MOL0     C21520  10.741  11.304   9.312  1.0515 -0.4900  0.3291
  160MOL0     C21521  10.661  11.425   9.279 -0.6827  0.6998 -0.2548
  160MOL0     C21522  10.552  11.462   9.362 -0.5592  0.3651 -0.8009
  160MOL0     C21523  10.526  11.394   9.488  0.1729  0.2592  0.2624
  160MOL0     O21524  10.433  11.452   9.569  0.8690 -0.0889 -0.4316
  160MOL0     C21525  10.418  11.430   9.711 -0.1078 -0.8325  0.4470
  160MOL0     C21526  10.499  11.535   9.790 -0.1832  0.3754 -1.1273
  160MOL0     C21527  10.493  11.685   9.745  0.5896 -0.1627  0.1008
  160MOL0     C21528  10.347  11.729   9.752  1.0593 -0.3018 -0.6701
  160MOL0     C21529  10.313  11.862   9.690  0.3856  0.3273 -0.8697
  160MOL0     C21530  10.301  11.973   9.646 -0.9630 -0.0288  0.1417
  160MOL0     C21531  10.618  11.291   9.518 -0.2041 -0.6850 -1.5455
  160MOL0     C21532  10.721  11.256   9.440  0.5754  0.6716  0.2323
  160MOL0     H21533  11.075  11.299   9.173  1.5090 -0.7012  1.7457
  160MOL0     H21534  11.288  11.248   9.036 -0.0355  2.2910  0.7981
  160MOL0     H21535  11.454  11.166   8.942 -5.6214 -0.0276 -1.3752
  160MOL0     H21536  11.464  11.071   9.095  0.2058  2.1940 -0.6602
  160MOL0     H21537  11.580  11.015   8.834 -1.7551 -0.2569 -1.2412
  160MOL0     H21538  11.660  11.032   8.988  1.2746 -0.8043 -0.2623
  160MOL0     H21539  11.526  10.782   8.909  1.6382  0.2585 -0.4135
  160MOL0     H21540  11.681  10.820   8.988  0.0178  1.0101  1.4172
  160MOL0     H21541  11.529  10.878   9.199 -1.9813 -2.9346  2.7101
  160MOL0     H21542  11.400  10.812   9.116 -0.4454  1.6253  2.2659
  160MOL0     H21543  11.520  10.596   9.126 -2.8494 -0.3531  1.4910
  160MOL0     H21544  11.669  10.661   9.187 -0.7080 -5.2113  0.3708
  160MOL0     H21545  11.583  10.731   9.396  2.4850 -1.1369  0.0063
  160MOL0     H21546  11.420  10.646   9.342  0.8000 -3.4692 -4.0627
  160MOL0     H21547  11.510  10.442   9.318 -0.2901 -1.7976  1.7706
  160MOL0     H21548  11.680  10.491   9.331 -0.5326  0.2782 -1.3642
  160MOL0     H21549  11.563  10.379   9.522  1.0577 -0.8671 -0.3083
  160MOL0     H21550  11.465  10.523   9.547 -0.9304 -2.6914  0.4292
  160MOL0     H21551  11.842  10.590   9.466 -0.2646 -3.1953 -1.5497
  160MOL0     H21552  12.050  10.662   9.640  1.2099  0.0008  1.3486
  160MOL0     H21553  11.969  10.785   9.724  0.0570 -0.0846 -2.4339
  160MOL0     H21554  11.976  10.646   9.933 -1.6854  3.3084 -0.8779
  160MOL0     H21555  12.139  10.679   9.878 -1.3913  1.3425  1.6864
  160MOL0     H21556  12.075  10.427   9.763 -0.5469 -2.1679  1.1593
  160MOL0     H21557  11.966  10.439   9.897  0.5407  1.6003  3.1756
  160MOL0     H21558  12.142  10.499  10.064 -3.0381  0.3059 -0.7639
  160MOL0     H21559  12.264  10.459   9.939 -0.4034  0.4359 -0.5864
  160MOL0     H21560  12.174  10.046  10.049  0.2771 -2.1971  0.8595
  160MOL0     H21561  12.314   9.840  10.267 -0.0723  0.3419 -0.1668
  160MOL0     H21562  12.251   9.851  10.114 -0.8149 -0.4797  1.4586
  160MOL0     H21563  12.430   9.836  10.133 -0.3538 -0.6769 -1.2426
  160MOL0     H21564  12.786   9.844  10.198  0.8229 -0.3177 -0.4246
  160MOL0     H21565  12.998   9.772  10.287  1.1390  3.0149  0.3354
  160MOL0     H21566  13.193   9.793  10.408  0.7546 -0.3094  1.1930
  160MOL0     H21567  13.129   9.927  10.505  0.0542  0.5543  1.1736
  160MOL0     H21568  13.243   9.844  10.710 -0.0624  2.1842  0.1917
  160MOL0     H21569  13.304   9.707  10.626  1.1439  1.3713  0.7601
  160MOL0     H21570  13.441   9.857  10.476 -0.8028  0.1857 -1.1286
  160MOL0     H21571  13.481   9.857  10.648 -1.3319 -0.2593  0.4856
  160MOL0     H21572  13.303  10.062  10.511 -0.8553 -1.1244  0.2238
  160MOL0     H21573  13.336  10.048  10.681  0.2305  0.3585 -0.1560
  160MOL0     H21574  13.540  10.101  10.445  1.4090 -0.8484  0.2375
  160MOL0     H21575  13.591  10.079  10.618  0.7305  0.6453 -0.2737
  160MOL0     H21576  13.483  10.269  10.691 -4.8600  1.8537 -0.5780
  160MOL0     H21577  13.590  10.315  10.554  1.5658 -2.7268  0.4811
  160MOL0     H21578  13.376  10.434  10.567 -3.0738 -0.9289  1.3628
  160MOL0     H21579  13.296  10.272  10.540  0.2543 -0.4603  3.1642
  160MOL0     H21580  13.456  10.284  10.317 -2.7288  1.3486 -3.8694
  160MOL0     H21581  13.451  10.454  10.373 -1.9850  1.0896 -0.1093
  160MOL0     H21582  12.827   9.793  10.687 -2.2891 -0.2108  0.4704
  160MOL0     H21583  12.614   9.868  10.579 -0.8336 -1.1314 -2.3510
  160MOL0     H21584  12.486  10.300  10.318  0.8796  1.5329 -2.6414
  160MOL0     H21585  12.332  10.424  10.167  1.2636 -0.0140 -0.6252
  160MOL0     H21586  11.166  10.838   9.045  2.5645 -0.5702 -0.1433
  160MOL0     H21587  10.979  10.892   9.175  0.9697 -1.4958 -1.1916
  160MOL0     H21588  10.689  11.490   9.197  0.4583  0.9996  0.3611
  160MOL0     H21589  10.494  11.544   9.320 -4.2389  1.0830  4.6117
  160MOL0     H21590  10.315  11.440   9.747 -0.3785 -1.6750 -0.0655
  160MOL0     H21591  10.444  11.328   9.741 -1.0683 -1.1459  0.2429
  160MOL0     H21592  10.603  11.506   9.768 -0.7117 -0.9022 -2.0902
  160MOL0     H21593  10.484  11.523   9.898  0.2759 -2.3306 -1.2816
  160MOL0     H21594  10.528  11.695   9.642  1.6824  0.5720  0.5263
  160MOL0     H21595  10.563  11.746   9.803  0.2509  1.5769 -1.2324
  160MOL0     H21596  10.313  11.734   9.856  0.6844 -3.8829 -0.4892
  160MOL0     H21597  10.277  11.666   9.695 -2.3871  1.9097  0.7815
  160MOL0     H21598  10.297  12.072   9.606  1.2384 -0.5436 -1.5923
  160MOL0     H21599  10.610  11.248   9.617 -0.5990 -0.7391 -1.5989
  160MOL0     H21600  10.783  11.171   9.466  3.4735  2.6175  0.2751
  161MOL0     O21601   7.971   4.382   9.114  0.3675 -0.5367  0.0476
  161MOL0     C21602   7.856   4.387   9.154  0.2781  0.8355  0.8746
  161MOL0     O21603   7.758   4.282   9.131  0.4614 -0.5123 -0.9976
  161MOL0     C21604   7.796   4.162   9.095 -0.4075 -0.3106 -0.0085
  161MOL0     C21605   7.716   4.093   9.005  0.9120 -0.0815  0.1694
  161MOL0     C21606   7.740   3.961   8.986 -0.1284  0.2744 -0.0965
  161MOL0     C21607   7.847   3.887   9.039 -0.0432 -0.8569 -0.2469
  161MOL0     O21608   7.863   3.762   9.001  0.1667 -0.0860 -0.3877
  161MOL0     C21609   7.926   3.663   9.085 -0.0848  0.5989  0.1757
  161MOL0     C21610   7.842   3.537   9.094 -0.0689  0.9955  1.3355
  161MOL0     C21611   7.934   3.410   9.071 -0.8193  0.4231  0.6968
  161MOL0     C21612   7.863   3.281   9.086  0.3683  0.4701 -0.6362
  161MOL0     C21613   7.797   3.226   8.960 -0.2243 -0.1178  0.4629
  161MOL0     C21614   7.692   3.116   8.988  0.0313  0.0470  0.0124
  161MOL0     C21615   7.737   2.978   9.043 -0.6959 -1.0658 -0.3673
  161MOL0     C21616   7.759   2.979   9.196 -0.4926 -0.5711  0.6179
  161MOL0     N21617   7.737   2.858   9.266  0.1845 -1.3645  0.9348
  161MOL0     C21618   7.825   2.775   9.331 -0.0872  0.6696 -0.3545
  161MOL0     C21619   7.752   2.684   9.388  0.7895 -0.5626 -0.0172
  161MOL0     C21620   7.796   2.578   9.479 -0.6340  1.9987 -0.4476
  161MOL0     C21621   7.749   2.432   9.443  0.1473  0.0083 -0.8190
  161MOL0     C21622   7.781   2.385   9.299 -0.0440 -0.3708 -0.1173
  161MOL0     C21623   7.934   2.350   9.275 -0.1742 -0.2621 -0.7002
  161MOL0     O21624   7.951   2.307   9.144 -0.4231  0.0221 -0.2726
  161MOL0     C21625   8.045   2.204   9.134 -0.5220  0.3919 -0.6218
  161MOL0     C21626   8.153   2.184   9.219  1.4706 -0.3218 -0.0240
  161MOL0     C21627   8.234   2.074   9.207 -0.0713 -0.8858 -0.0265
  161MOL0     C21628   8.348   2.062   9.311  0.1400  0.3614 -0.0441
  161MOL0     C21629   8.214   1.983   9.103 -0.0554  0.3215  0.8601
  161MOL0     C21630   8.300   1.866   9.078 -0.6163 -0.8256 -0.1590
  161MOL0     O21631   8.230   1.744   9.053 -0.7450  0.5292 -0.7212
  161MOL0     C21632   8.298   1.623   9.062  0.1109  0.6835  1.1861
  161MOL0     C21633   8.415   1.589   9.128 -0.0055  0.1959 -0.1580
  161MOL0     C21634   8.466   1.462   9.121  0.3640  0.3790 -0.6661
  161MOL0     C21635   8.410   1.361   9.041  0.7929 -0.9559  0.1753
  161MOL0     O21636   8.468   1.237   9.043  0.2216  0.0394 -0.1064
  161MOL0     C21637   8.388   1.117   9.046 -0.8634  0.2806  0.4433
  161MOL0     C21638   8.471   0.992   9.065 -0.1669 -0.0617 -0.3603
  161MOL0     C21639   8.392   0.865   9.031  0.0077 -0.0078 -0.1055
  161MOL0     C21640   8.482   0.743   9.075  0.6658 -0.9331  0.6668
  161MOL0     C21641   8.398   0.618   9.079  0.1321  0.8107 -0.3587
  161MOL0     C21642   8.373   0.567   8.944  0.7335  0.5723 -0.0463
  161MOL0     C21643   8.279   0.442   8.950 -0.0597  0.7085 -0.0763
  161MOL0     C21644   8.347   0.321   9.007  0.9808  0.1348 -1.0069
  161MOL0    Cl21645   8.229   0.189   9.055 -0.5263  0.1490  0.1106
  161MOL0     C21646   8.300   1.400   8.964  0.5434  0.3866  0.2859
  161MOL0     C21647   8.241   1.529   8.975 -0.1282 -0.6495  0.1416
  161MOL0     O21648   8.428   1.886   9.079  1.1046 -0.0646 -0.2485
  161MOL0     C21649   8.107   2.009   9.015 -0.3745  0.5857 -0.7522
  161MOL0     C21650   8.018   2.101   9.042 -0.0394 -0.4011  1.0160
  161MOL0     N21651   7.618   2.724   9.383  0.2556  0.0841  0.2578
  161MOL0     N21652   7.609   2.829   9.302 -0.4179  0.1175  0.1644
  161MOL0     C21653   7.919   3.954   9.135 -1.1288 -0.2775 -1.0716
  161MOL0     C21654   7.898   4.094   9.159  0.0272  0.1332  0.5467
  161MOL0     C21655   7.799   4.510   9.209 -0.6973  0.6806 -0.5231
  161MOL0     C21656   7.662   4.532   9.238  0.1344 -0.3367 -0.5311
  161MOL0     C21657   7.625   4.654   9.276 -0.7192 -1.0338  0.6070
  161MOL0     C21658   7.713   4.759   9.305 -0.6343 -0.1583  0.4612
  161MOL0     O21659   7.654   4.882   9.350  0.6239  0.3783  0.2830
  161MOL0     C21660   7.735   4.980   9.421  0.9272  0.8593  1.7091
  161MOL0     C21661   7.670   5.109   9.396  0.3867 -0.3266  0.2023
  161MOL0     C21662   7.727   5.222   9.495  0.1435  0.2742  0.2777
  161MOL0     C21663   7.633   5.342   9.507 -0.0605 -0.5779  0.4436
  161MOL0     C21664   7.656   5.420   9.632  0.2341  1.4214  0.7192
  161MOL0     C21665   7.654   5.494   9.726 -0.4530 -0.3190  0.4186
  161MOL0     C21666   7.850   4.737   9.261  0.1194 -0.2305 -0.1455
  161MOL0     C21667   7.894   4.610   9.229 -0.2469 -0.1254  0.0857
  161MOL0     H21668   7.637   4.153   8.960  0.2674 -0.8380  0.2675
  161MOL0     H21669   7.679   3.901   8.920  0.1163 -2.1216  1.6771
  161MOL0     H21670   8.013   3.640   9.021 -0.4301  1.8500 -0.7993
  161MOL0     H21671   7.971   3.696   9.179  1.6912  1.5935 -0.9553
  161MOL0     H21672   7.776   3.533   9.181  1.0131 -0.1647  2.1205
  161MOL0     H21673   7.775   3.536   9.007 -1.1439 -2.1273  2.0740
  161MOL0     H21674   7.985   3.410   8.974 -1.8792 -2.6271  0.0447
  161MOL0     H21675   8.015   3.423   9.144 -0.1892  0.6235 -0.0178
  161MOL0     H21676   7.923   3.213   9.146 -2.6211 -0.0954  1.9382
  161MOL0     H21677   7.781   3.309   9.153  2.0245 -0.6690  2.0035
  161MOL0     H21678   7.757   3.312   8.905  0.6609  0.2674  0.3942
  161MOL0     H21679   7.878   3.185   8.899  0.3922  2.1177 -0.3384
  161MOL0     H21680   7.609   3.162   9.042  2.2904  3.0854  1.1830
  161MOL0     H21681   7.659   3.084   8.888 -0.3729  1.5556 -0.3656
  161MOL0     H21682   7.648   2.915   9.037 -0.9712 -1.5300  4.4510
  161MOL0     H21683   7.826   2.950   8.986  1.3752  1.8572  1.1094
  161MOL0     H21684   7.682   3.050   9.227 -2.1779 -1.6454 -0.8944
  161MOL0     H21685   7.858   3.019   9.217 -0.9969  0.4651  1.1396
  161MOL0     H21686   7.934   2.781   9.337 -0.1074  0.0692  4.5299
  161MOL0     H21687   7.904   2.564   9.491 -0.8905  1.9165  2.3898
  161MOL0     H21688   7.765   2.601   9.581 -0.1197 -2.4651  0.9433
  161MOL0     H21689   7.644   2.433   9.471  0.5530  1.3084  0.8721
  161MOL0     H21690   7.799   2.362   9.510 -0.6823 -0.6698 -0.9013
  161MOL0     H21691   7.742   2.453   9.223  1.5476  3.3063  2.0777
  161MOL0     H21692   7.728   2.289   9.299  5.9285 -4.2957  2.6884
  161MOL0     H21693   7.972   2.285   9.354  2.9765  1.9277 -0.2495
  161MOL0     H21694   7.983   2.448   9.282 -1.3523  0.3248 -0.2594
  161MOL0     H21695   8.158   2.254   9.302 -0.5810  0.0324 -0.1486
  161MOL0     H21696   8.347   2.133   9.394 -1.5834 -3.1242  3.2181
  161MOL0     H21697   8.345   1.963   9.357 -1.3461 -0.1095 -1.0723
  161MOL0     H21698   8.442   2.070   9.256 -1.8763 -1.2069 -4.1878
  161MOL0     H21699   8.459   1.662   9.196 -0.0038 -0.7072  0.8236
  161MOL0     H21700   8.550   1.439   9.185 -1.5687 -1.6876  1.3003
  161MOL0     H21701   8.307   1.133   9.118 -2.9689  1.4751 -2.0097
  161MOL0     H21702   8.339   1.105   8.948 -0.1450 -1.7239  0.2869
  161MOL0     H21703   8.561   0.996   9.003 -0.3488  1.7314 -0.5683
  161MOL0     H21704   8.511   0.993   9.166  0.3566 -1.0876 -0.5379
  161MOL0     H21705   8.363   0.855   8.925 -1.1757 -0.1362  0.2105
  161MOL0     H21706   8.292   0.862   9.077 -1.5344  1.9713 -2.9862
  161MOL0     H21707   8.575   0.735   9.017  0.7679  0.3242  0.6470
  161MOL0     H21708   8.529   0.769   9.170  0.4977  0.9059  0.2760
  161MOL0     H21709   8.309   0.631   9.141  1.6321 -3.5815  3.3741
  161MOL0     H21710   8.457   0.541   9.131  0.6249  1.2871 -0.2110
  161MOL0     H21711   8.313   0.642   8.891 -3.0964 -1.3712  1.1100
  161MOL0     H21712   8.468   0.541   8.899  1.9530  2.3289  1.3351
  161MOL0     H21713   8.254   0.406   8.849 -5.1818  1.1373  0.7496
  161MOL0     H21714   8.184   0.462   9.000 -0.0845  0.4644 -0.0228
  161MOL0     H21715   8.404   0.338   9.099  1.1640  0.2635 -1.1448
  161MOL0     H21716   8.405   0.283   8.922 -0.4715  0.5325 -2.2055
  161MOL0     H21717   8.254   1.323   8.904 -2.6670  0.0363  2.9306
  161MOL0     H21718   8.141   1.539   8.934 -1.9089 -0.8297  3.9903
  161MOL0     H21719   8.099   1.936   8.936  0.1183  0.9972 -1.1886
  161MOL0     H21720   7.927   2.119   8.986  0.9200 -1.1610 -0.8647
  161MOL0     H21721   8.004   3.908   9.185 -1.5405  3.0690  3.2342
  161MOL0     H21722   7.962   4.146   9.231  0.0970  0.8779 -0.0441
  161MOL0     H21723   7.580   4.462   9.226 -0.3310 -0.2977  1.8999
  161MOL0     H21724   7.519   4.678   9.284 -0.2138  1.2737  1.1242
  161MOL0     H21725   7.741   4.961   9.529  2.1897  0.4454  1.5866
  161MOL0     H21726   7.837   4.981   9.381 -0.0401  0.5484 -1.0056
  161MOL0     H21727   7.565   5.105   9.425  0.1052 -0.5992 -0.8288
  161MOL0     H21728   7.680   5.141   9.292  0.5551  3.2532  1.1953
  161MOL0     H21729   7.829   5.247   9.465 -0.9391  1.6761 -2.6387
  161MOL0     H21730   7.734   5.179   9.595  1.1065 -1.2222 -0.4063
  161MOL0     H21731   7.528   5.314   9.496 -0.3498  1.3726 -2.9303
  161MOL0     H21732   7.656   5.405   9.420 -3.6217 -0.2395 -0.3946
  161MOL0     H21733   7.664   5.535   9.824  1.2009  0.1301  0.0900
  161MOL0     H21734   7.928   4.812   9.269 -0.2236 -0.0150  1.3628
  161MOL0     H21735   8.001   4.600   9.211  0.0086 -2.5047  2.3000
  162MOL0     O21736  10.468   3.910   4.801  0.7445 -0.7318  0.1096
  162MOL0     C21737  10.408   3.991   4.731 -0.8886 -0.1617  0.4572
  162MOL0     O21738  10.279   3.969   4.681 -0.7544  0.3721 -0.2534
  162MOL0     C21739  10.223   3.847   4.707  0.0588 -0.6724  0.5749
  162MOL0     C21740  10.253   3.729   4.636 -0.6131 -0.4063 -0.0094
  162MOL0     C21741  10.159   3.622   4.635 -0.0412  0.1182 -0.9576
  162MOL0     C21742  10.059   3.612   4.732  0.2455 -0.7147 -1.2990
  162MOL0     O21743   9.970   3.504   4.743  0.0383 -0.7237  0.3378
  162MOL0     C21744   9.982   3.420   4.855  0.4732 -0.3100 -0.2209
  162MOL0     C21745  10.087   3.308   4.830 -0.1151  0.2589  0.1791
  162MOL0     C21746  10.101   3.211   4.952 -0.2731 -0.5393  0.0688
  162MOL0     C21747  10.217   3.119   4.920 -0.4045 -0.1611 -0.1048
  162MOL0     C21748  10.195   3.033   4.797  0.3504 -0.5603  0.2990
  162MOL0     C21749  10.095   2.921   4.802 -0.0471 -0.7235  0.0018
  162MOL0     C21750  10.096   2.806   4.697 -0.8132 -0.8171  0.6025
  162MOL0     C21751  10.059   2.842   4.547 -0.1776 -1.0221 -1.3393
  162MOL0     N21752   9.921   2.893   4.528  0.3346 -0.4873  0.2100
  162MOL0     C21753   9.809   2.814   4.500  0.0730 -0.9502  0.8454
  162MOL0     C21754   9.704   2.903   4.488 -0.4989  0.4392 -0.9391
  162MOL0     C21755   9.563   2.878   4.447  0.5892  0.4053  0.8647
  162MOL0     C21756   9.549   2.758   4.346  0.3913 -1.0331 -0.4679
  162MOL0     C21757   9.613   2.776   4.206 -0.5380 -0.5554 -0.1204
  162MOL0     C21758   9.618   2.914   4.147 -0.1564 -0.0913  0.5360
  162MOL0     O21759   9.484   2.956   4.146  0.9897  0.1018  0.7385
  162MOL0     C21760   9.431   3.045   4.061 -0.0553 -0.2629  0.4098
  162MOL0     C21761   9.509   3.149   4.007  0.7482  0.4072  0.2137
  162MOL0     C21762   9.454   3.240   3.916 -1.4689  0.0108  0.4378
  162MOL0     C21763   9.559   3.331   3.854  0.1933 -0.3592 -0.7527
  162MOL0     C21764   9.320   3.245   3.889  0.1502 -0.3813  0.5057
  162MOL0     C21765   9.254   3.349   3.801  0.2709 -0.6773  0.5118
  162MOL0     O21766   9.114   3.336   3.791 -0.2403  0.3547 -0.9728
  162MOL0     C21767   9.050   3.399   3.684  0.4001  0.4428 -0.1663
  162MOL0     C21768   9.038   3.333   3.559  0.2107  0.7701  0.4952
  162MOL0     C21769   8.944   3.380   3.470  1.2667  0.3302 -0.7417
  162MOL0     C21770   8.884   3.505   3.498 -0.9091 -0.4201  0.3355
  162MOL0     O21771   8.783   3.559   3.419  0.3529  0.1058 -0.5801
  162MOL0     C21772   8.783   3.533   3.280 -0.2179  0.6667  0.2850
  162MOL0     C21773   8.668   3.596   3.203  0.8004 -0.0229 -0.2398
  162MOL0     C21774   8.694   3.754   3.197  0.9646  0.4065 -0.0749
  162MOL0     C21775   8.789   3.782   3.072  0.0609 -0.0482  0.4448
  162MOL0     C21776   8.864   3.912   3.107  0.7453 -0.7051  0.0408
  162MOL0     C21777   8.990   3.876   3.179  0.6282 -0.0247 -0.5814
  162MOL0     C21778   9.081   3.997   3.193 -1.2464  0.2363 -0.5075
  162MOL0     C21779   9.052   4.101   3.302 -1.1274 -0.7608  0.1346
  162MOL0    Cl21780   8.937   4.230   3.244 -0.0121  0.6126  0.6228
  162MOL0     C21781   8.904   3.568   3.622  0.2038  0.3562 -0.0396
  162MOL0     C21782   8.978   3.507   3.724  0.4280  0.7261 -0.0908
  162MOL0     O21783   9.318   3.425   3.732  0.3975  0.2011  0.7805
  162MOL0     C21784   9.241   3.147   3.962  0.4877 -0.6126 -0.1416
  162MOL0     C21785   9.296   3.047   4.043  0.0452  0.2970  1.4517
  162MOL0     N21786   9.748   3.034   4.517  0.7156  0.1279  0.3498
  162MOL0     N21787   9.874   3.020   4.521 -0.1367 -0.2413  0.5740
  162MOL0     C21788  10.030   3.726   4.807  0.4796  0.6171  0.1538
  162MOL0     C21789  10.115   3.838   4.800 -0.1438 -0.4917  0.4935
  162MOL0     C21790  10.469   4.123   4.706 -0.2336 -0.2466 -0.2178
  162MOL0     C21791  10.547   4.189   4.802 -0.1730 -0.0486  0.4924
  162MOL0     C21792  10.600   4.315   4.767  0.2734 -0.0144 -0.6026
  162MOL0     C21793  10.564   4.395   4.664 -0.9034  0.0869 -0.0694
  162MOL0     O21794  10.628   4.512   4.655  0.7051 -0.2653  1.2972
  162MOL0     C21795  10.607   4.585   4.531  0.3203 -0.5148  0.5302
  162MOL0     C21796  10.677   4.715   4.521  0.1961  0.0553 -0.3976
  162MOL0     C21797  10.638   4.789   4.388 -0.8274 -0.0553  0.0280
  162MOL0     C21798  10.755   4.802   4.288  0.8346  0.2596  0.8145
  162MOL0     C21799  10.722   4.903   4.179 -0.0518  0.1828 -0.4580
  162MOL0     C21800  10.705   4.991   4.104 -0.4283 -0.2619  0.3570
  162MOL0     C21801  10.476   4.333   4.576  0.3821  0.2675 -0.8684
  162MOL0     C21802  10.433   4.197   4.593 -0.1481  0.1943 -1.0420
  162MOL0     H21803  10.340   3.721   4.571 -0.1935  3.4152 -0.1378
  162MOL0     H21804  10.184   3.538   4.570  2.8242 -1.3892  1.8030
  162MOL0     H21805  10.003   3.476   4.947 -0.6597 -0.8053  0.3606
  162MOL0     H21806   9.890   3.365   4.877  2.5237 -3.8551  0.3832
  162MOL0     H21807  10.041   3.257   4.745  1.4005 -1.7727  0.4932
  162MOL0     H21808  10.187   3.342   4.804 -0.1354  0.4732  0.3752
  162MOL0     H21809  10.130   3.268   5.040 -0.5779  0.5230 -0.4952
  162MOL0     H21810  10.011   3.153   4.974 -1.2001  0.4104 -1.0066
  162MOL0     H21811  10.312   3.171   4.921  0.1633 -1.0644  2.4089
  162MOL0     H21812  10.227   3.047   5.003  2.4695  1.4605  1.0807
  162MOL0     H21813  10.175   3.091   4.706 -0.4673  0.6566  1.2245
  162MOL0     H21814  10.293   2.991   4.772 -0.0154 -2.7558  2.2319
  162MOL0     H21815  10.113   2.889   4.905 -0.0047 -1.0346 -0.1020
  162MOL0     H21816  10.003   2.979   4.791  0.0189  0.1910  3.2393
  162MOL0     H21817  10.198   2.768   4.713  0.0122  0.8128 -0.5149
  162MOL0     H21818  10.025   2.731   4.732  0.6400 -2.8380 -0.5668
  162MOL0     H21819  10.076   2.752   4.489  0.0529  0.2295 -3.2998
  162MOL0     H21820  10.127   2.918   4.508 -2.8258  1.8923 -0.7936
  162MOL0     H21821   9.794   2.710   4.476  0.3822 -0.7871 -0.0808
  162MOL0     H21822   9.501   2.856   4.534 -1.3654  0.5019 -0.4221
  162MOL0     H21823   9.511   2.958   4.393 -1.9157 -2.5404 -1.4204
  162MOL0     H21824   9.442   2.749   4.326  0.4407 -0.2321 -1.1536
  162MOL0     H21825   9.595   2.664   4.378 -1.2872 -2.0356 -0.8512
  162MOL0     H21826   9.571   2.714   4.127  1.4818 -1.2571 -0.7188
  162MOL0     H21827   9.717   2.741   4.211 -0.4269 -0.2224 -0.0687
  162MOL0     H21828   9.659   2.914   4.046  1.1200 -0.7045  1.0305
  162MOL0     H21829   9.686   2.978   4.204 -0.1393  1.0568 -0.7233
  162MOL0     H21830   9.612   3.150   4.040  0.7520 -0.0596  0.2331
  162MOL0     H21831   9.532   3.435   3.836 -2.0873 -1.1353 -2.3055
  162MOL0     H21832   9.637   3.331   3.931 -0.2136 -0.9936 -0.3174
  162MOL0     H21833   9.587   3.276   3.764  1.3222 -1.1321  0.0415
  162MOL0     H21834   9.098   3.244   3.543 -1.4105 -0.3153  0.1542
  162MOL0     H21835   8.928   3.323   3.379  2.8928  1.7065 -1.9445
  162MOL0     H21836   8.879   3.562   3.236 -0.5288  2.5449  0.7543
  162MOL0     H21837   8.765   3.426   3.273  1.0287  0.3730  1.1780
  162MOL0     H21838   8.671   3.546   3.106  1.3712  3.4005 -2.1748
  162MOL0     H21839   8.577   3.579   3.262  0.8174  2.2809  0.5720
  162MOL0     H21840   8.726   3.796   3.292 -3.7743 -0.1850  2.0662
  162MOL0     H21841   8.597   3.804   3.194  1.0433  1.2884  4.5734
  162MOL0     H21842   8.859   3.700   3.052  0.0681  0.5832 -2.5383
  162MOL0     H21843   8.733   3.806   2.981  1.3762  0.4158 -0.2577
  162MOL0     H21844   8.795   3.982   3.154 -0.8039 -0.6164 -2.1836
  162MOL0     H21845   8.892   3.950   3.008 -0.2355 -3.3604 -1.3583
  162MOL0     H21846   8.972   3.832   3.277  2.4833 -0.2652 -0.3045
  162MOL0     H21847   9.034   3.796   3.118  0.5641  0.5958 -1.4685
  162MOL0     H21848   9.097   4.055   3.102 -1.4023  1.2690  0.1073
  162MOL0     H21849   9.171   3.941   3.221 -1.7002 -1.6105 -2.4793
  162MOL0     H21850   9.149   4.148   3.321  0.7474 -4.1856 -0.1411
  162MOL0     H21851   9.027   4.057   3.399  2.8042  1.3401  2.3707
  162MOL0     H21852   8.851   3.658   3.653 -0.4953 -0.3736  0.9578
  162MOL0     H21853   8.969   3.558   3.820 -0.0952 -0.8146  0.7029
  162MOL0     H21854   9.133   3.150   3.950 -0.1321  1.2598  3.9874
  162MOL0     H21855   9.222   2.985   4.093 -2.9632  1.0093 -1.7282
  162MOL0     H21856   9.933   3.716   4.854  0.2389 -1.1198 -0.6664
  162MOL0     H21857  10.099   3.927   4.860  2.2266  0.6863 -0.4981
  162MOL0     H21858  10.596   4.136   4.883 -0.6942 -0.6625  0.4145
  162MOL0     H21859  10.673   4.356   4.836 -1.0916 -1.3459  1.8072
  162MOL0     H21860  10.635   4.523   4.445  0.9407  2.0828 -1.2333
  162MOL0     H21861  10.499   4.601   4.528  0.0615 -1.9993 -3.0182
  162MOL0     H21862  10.786   4.702   4.524  0.5181  1.3489 -3.1357
  162MOL0     H21863  10.649   4.765   4.614  0.2422 -2.1372  0.8711
  162MOL0     H21864  10.622   4.891   4.426  3.7690  0.1728  2.0198
  162MOL0     H21865  10.549   4.741   4.348  1.0225 -2.7003 -1.1883
  162MOL0     H21866  10.779   4.711   4.232  0.9067 -0.8563  2.5675
  162MOL0     H21867  10.839   4.835   4.350 -0.9126  1.6720  2.5695
  162MOL0     H21868  10.677   5.063   4.030  2.5605  0.7200  0.0431
  162MOL0     H21869  10.426   4.384   4.494 -2.6092  0.6026  0.9923
  162MOL0     H21870  10.364   4.157   4.519 -1.7089 -0.8619  0.9022
  163MOL0     O21871   7.750   9.616   7.616 -0.2356  1.4523  1.2617
  163MOL0     C21872   7.784   9.683   7.709  0.1784  0.6626 -0.4700
  163MOL0     O21873   7.852   9.806   7.705 -1.2657  0.4851  0.0579
  163MOL0     C21874   7.885   9.860   7.584 -0.2973 -0.4088  0.0803
  163MOL0     C21875   7.960   9.974   7.598  0.3617  0.2889 -0.4720
  163MOL0     C21876   8.011  10.047   7.496 -0.3537  0.2342  0.8340
  163MOL0     C21877   7.984  10.005   7.361 -0.0564  0.1241 -0.8382
  163MOL0     O21878   8.035  10.066   7.249  0.0314  0.2246 -0.2155
  163MOL0     C21879   8.017  10.210   7.248  0.3108 -0.6386  0.0215
  163MOL0     C21880   8.045  10.256   7.106  0.8903 -0.3444  0.0137
  163MOL0     C21881   8.040  10.409   7.104  0.6788 -0.0774  0.7186
  163MOL0     C21882   8.085  10.453   6.962  0.3526 -0.0411 -0.1303
  163MOL0     C21883   8.146  10.600   6.955  0.7251  0.2182 -0.4792
  163MOL0     C21884   8.061  10.720   7.012 -0.0895 -0.4543  0.2091
  163MOL0     C21885   7.913  10.738   6.957 -1.2268  0.0124 -0.2081
  163MOL0     C21886   7.922  10.743   6.808 -0.5190 -0.9995  0.3088
  163MOL0     N21887   7.777  10.732   6.766 -0.2338 -0.3384  0.5133
  163MOL0     C21888   7.669  10.812   6.785 -0.3852 -0.5590  0.5020
  163MOL0     C21889   7.564  10.759   6.712  0.5351  0.0707  0.7689
  163MOL0     C21890   7.426  10.818   6.696  0.4584 -0.5196 -1.2170
  163MOL0     C21891   7.346  10.831   6.835 -0.2261 -0.0937  0.0901
  163MOL0     C21892   7.378  10.722   6.934 -0.0068  1.1342  0.2823
  163MOL0     C21893   7.269  10.723   7.046 -0.6676  0.9337 -0.0427
  163MOL0     O21894   7.145  10.666   7.007  0.5438  0.0844 -0.2794
  163MOL0     C21895   7.026  10.689   7.079 -1.1342  0.6023  0.7601
  163MOL0     C21896   7.020  10.762   7.198  0.4781 -1.1958  0.2877
  163MOL0     C21897   6.898  10.786   7.263  0.2382  0.6517  0.0440
  163MOL0     C21898   6.904  10.849   7.403  0.7648  0.9396  0.3975
  163MOL0     C21899   6.777  10.737   7.202  0.5519  0.8481  0.0053
  163MOL0     C21900   6.646  10.749   7.280 -0.4560 -0.2537 -0.5705
  163MOL0     O21901   6.533  10.748   7.205  0.3174  0.9220 -0.2878
  163MOL0     C21902   6.414  10.768   7.266 -1.3747  0.1971 -0.0172
  163MOL0     C21903   6.326  10.664   7.259  0.3307  0.0789 -0.0457
  163MOL0     C21904   6.198  10.674   7.318  0.3764  0.0534 -0.7412
  163MOL0     C21905   6.162  10.790   7.393  0.2169  0.0933 -0.9899
  163MOL0     O21906   6.043  10.812   7.443 -0.0628 -0.6237  0.5277
  163MOL0     C21907   6.003  10.728   7.547  0.2836  0.4968  0.6589
  163MOL0     C21908   5.853  10.770   7.556 -0.4038 -0.1574  0.0071
  163MOL0     C21909   5.787  10.685   7.658  0.5297 -0.1628 -0.0819
  163MOL0     C21910   5.649  10.718   7.729 -0.5741  0.0486 -0.7750
  163MOL0     C21911   5.633  10.684   7.875  0.3352 -0.5310 -0.1378
  163MOL0     C21912   5.666  10.541   7.893 -0.2693  0.0079 -0.0890
  163MOL0     C21913   5.545  10.454   7.893  0.0793 -1.2495  0.3579
  163MOL0     C21914   5.561  10.304   7.863 -1.1325 -0.1891  0.8161
  163MOL0    Cl21915   5.638  10.223   8.012  0.5983 -0.0243 -0.4990
  163MOL0     C21916   6.258  10.898   7.393 -1.4277  0.0979  0.5348
  163MOL0     C21917   6.380  10.886   7.329  0.1119 -0.0734  0.1433
  163MOL0     O21918   6.641  10.740   7.404 -0.4773  0.6449  0.3889
  163MOL0     C21919   6.788  10.673   7.078 -0.2544  0.0358  0.1332
  163MOL0     C21920   6.904  10.638   7.021  1.1200  0.8509 -0.6884
  163MOL0     N21921   7.615  10.644   6.644  0.0073 -0.1711 -0.2838
  163MOL0     N21922   7.738  10.638   6.682 -0.6326  1.2063  0.2675
  163MOL0     C21923   7.910   9.894   7.351  0.9753  0.0433  0.0699
  163MOL0     C21924   7.857   9.817   7.456 -0.6667 -0.3348  0.4577
  163MOL0     C21925   7.723   9.632   7.838  0.1377  0.2607 -0.2559
  163MOL0     C21926   7.656   9.509   7.858 -0.0338  0.8047  0.8113
  163MOL0     C21927   7.602   9.473   7.987 -0.8349 -0.0696  0.9586
  163MOL0     C21928   7.616   9.558   8.096  0.5978 -0.3763 -0.3393
  163MOL0     O21929   7.594   9.531   8.231  0.3110  0.0291 -0.4226
  163MOL0     C21930   7.560   9.393   8.266  0.1439 -0.6937 -0.4738
  163MOL0     C21931   7.573   9.378   8.423  0.0766  0.3071  0.7600
  163MOL0     C21932   7.715   9.365   8.476 -0.2340 -1.2217  0.4299
  163MOL0     C21933   7.695   9.324   8.621  0.3784  0.4835  0.7398
  163MOL0     C21934   7.821   9.297   8.696 -0.7677 -0.0186 -0.0196
  163MOL0     C21935   7.929   9.279   8.752  0.2711  0.0618  0.1365
  163MOL0     C21936   7.679   9.687   8.081 -0.1938 -0.8225  0.1346
  163MOL0     C21937   7.725   9.723   7.955  0.8560  0.3808  0.5066
  163MOL0     H21938   7.966  10.003   7.702 -1.5468 -2.9908  0.7136
  163MOL0     H21939   8.070  10.134   7.523 -1.8342  0.5507  3.4780
  163MOL0     H21940   7.916  10.229   7.285  1.4405 -0.1914  3.1897
  163MOL0     H21941   8.093  10.251   7.314  2.8072 -2.8348 -1.2770
  163MOL0     H21942   8.137  10.211   7.069 -0.3410 -2.9817 -0.0840
  163MOL0     H21943   7.960  10.219   7.047 -0.0475 -0.3653  1.3266
  163MOL0     H21944   7.946  10.443   7.149  1.0378  0.9158  0.7408
  163MOL0     H21945   8.116  10.438   7.177 -0.8113  0.9918  1.9297
  163MOL0     H21946   8.160  10.377   6.935  2.1497  2.2283 -1.9296
  163MOL0     H21947   7.998  10.444   6.897  1.6455  0.6443 -2.0450
  163MOL0     H21948   8.240  10.592   7.009  0.0428  0.6688  0.8236
  163MOL0     H21949   8.175  10.619   6.851  2.2010 -0.1223 -0.1535
  163MOL0     H21950   8.063  10.707   7.120 -0.2212 -2.8509 -0.0273
  163MOL0     H21951   8.113  10.815   6.996 -1.9067  0.1780 -2.7025
  163MOL0     H21952   7.858  10.651   6.995  1.7817 -2.1517 -0.3884
  163MOL0     H21953   7.883  10.828   7.010  0.0326 -0.3044  1.1349
  163MOL0     H21954   7.989  10.671   6.761 -0.9150 -0.5650 -0.9615
  163MOL0     H21955   7.963  10.839   6.777 -0.8090 -0.6478  0.9771
  163MOL0     H21956   7.655  10.906   6.838 -3.4276 -0.8930  0.4660
  163MOL0     H21957   7.425  10.916   6.647 -3.7838  0.0226 -0.4743
  163MOL0     H21958   7.355  10.762   6.634 -5.3621  4.0858  0.3826
  163MOL0     H21959   7.241  10.836   6.803  0.0905 -2.6059 -1.6180
  163MOL0     H21960   7.376  10.925   6.882 -0.0106  0.8617 -1.8263
  163MOL0     H21961   7.479  10.742   6.972  0.2780 -1.4223  1.0658
  163MOL0     H21962   7.396  10.622   6.893 -1.3752  1.0758 -0.2006
  163MOL0     H21963   7.248  10.827   7.073 -2.0521  0.4069  0.9877
  163MOL0     H21964   7.304  10.654   7.124  3.4355  2.0639 -0.6353
  163MOL0     H21965   7.114  10.800   7.237  0.3234 -2.8415  2.4815
  163MOL0     H21966   7.001  10.895   7.425  2.4136 -1.4672 -1.2776
  163MOL0     H21967   6.827  10.926   7.415 -1.1280 -0.7545 -0.2243
  163MOL0     H21968   6.881  10.774   7.480 -1.6909  0.2736 -0.8806
  163MOL0     H21969   6.352  10.575   7.201  2.0963  2.4055 -3.1293
  163MOL0     H21970   6.120  10.600   7.305 -0.6790  0.7014  1.5041
  163MOL0     H21971   6.010  10.623   7.517 -0.6069  1.1316 -2.0922
  163MOL0     H21972   6.065  10.756   7.633  0.8460  0.3696  0.3075
  163MOL0     H21973   5.846  10.876   7.581  0.3167 -0.5471  1.9768
  163MOL0     H21974   5.793  10.742   7.468 -0.6555 -1.0043  0.4425
  163MOL0     H21975   5.862  10.689   7.737  0.2623 -1.0512  0.2261
  163MOL0     H21976   5.782  10.586   7.613 -2.7893 -0.2093  0.0851
  163MOL0     H21977   5.643  10.826   7.714  2.1628  0.6270  1.5930
  163MOL0     H21978   5.557  10.676   7.685 -2.6524  2.8728  0.5350
  163MOL0     H21979   5.532  10.699   7.915  0.0101 -1.4240 -0.5982
  163MOL0     H21980   5.707  10.737   7.935 -1.6560 -0.7323  2.6771
  163MOL0     H21981   5.733  10.493   7.822 -1.3455 -1.0706 -0.4117
  163MOL0     H21982   5.717  10.526   7.989  0.5000 -2.1172 -0.7695
  163MOL0     H21983   5.482  10.486   7.810  2.0993 -1.4231 -1.3366
  163MOL0     H21984   5.476  10.477   7.974 -2.0109  1.5660 -2.0061
  163MOL0     H21985   5.616  10.286   7.770  1.1083  1.5785  1.7124
  163MOL0     H21986   5.460  10.263   7.850 -1.4802  0.9603 -0.3619
  163MOL0     H21987   6.232  10.993   7.438  0.6206  0.3624  1.2905
  163MOL0     H21988   6.436  10.976   7.310 -3.2377  2.1860  0.1123
  163MOL0     H21989   6.694  10.635   7.038 -2.0509  2.2500  1.9834
  163MOL0     H21990   6.909  10.571   6.935 -3.0397  0.5034 -0.8472
  163MOL0     H21991   7.890   9.871   7.247  0.4359  1.7543 -0.2252
  163MOL0     H21992   7.794   9.732   7.429  0.8302 -1.8044  1.3928
  163MOL0     H21993   7.644   9.440   7.775  0.1468  1.8403 -0.0966
  163MOL0     H21994   7.564   9.373   8.006 -2.6181  0.1022 -1.2881
  163MOL0     H21995   7.461   9.362   8.231 -0.7786 -0.2774  1.5736
  163MOL0     H21996   7.630   9.327   8.215 -2.0521 -1.1764 -3.0622
  163MOL0     H21997   7.516   9.288   8.449 -1.4045  0.7633 -0.7199
  163MOL0     H21998   7.529   9.468   8.467  0.7206  0.8823  0.2676
  163MOL0     H21999   7.767   9.460   8.462 -0.0516 -1.8233 -5.0903
  163MOL0     H22000   7.762   9.285   8.418 -0.6036 -0.8973 -0.3237
  163MOL0     H22001   7.646   9.227   8.634 -0.9385  1.1184  0.7130
  163MOL0     H22002   7.642   9.400   8.680  0.0150  3.0832 -2.6156
  163MOL0     H22003   8.025   9.263   8.798 -0.2218 -1.3685  0.7213
  163MOL0     H22004   7.672   9.751   8.168 -1.6557 -0.2442 -0.3657
  163MOL0     H22005   7.760   9.824   7.940 -1.1602  0.9261 -0.9496
  164MOL0     O22006   1.900   9.545   0.905  0.2939  0.2530  0.6629
  164MOL0     C22007   1.889   9.511   0.784 -0.0203 -0.2535  0.2470
  164MOL0     O22008   1.983   9.534   0.682  0.1786  0.7093 -0.7251
  164MOL0     C22009   2.095   9.610   0.712  0.6397  0.0588  0.6013
  164MOL0     C22010   2.228   9.567   0.672  0.8435 -0.5800  0.9298
  164MOL0     C22011   2.329   9.655   0.690 -0.5310  0.4117 -1.4891
  164MOL0     C22012   2.324   9.784   0.744  0.1766 -0.4945 -0.0683
  164MOL0     O22013   2.429   9.874   0.761  0.2942 -0.1441  0.5313
  164MOL0     C22014   2.529   9.829   0.847 -0.8123  0.2941  0.1014
  164MOL0     C22015   2.585   9.951   0.926 -0.5392  0.6859 -0.0694
  164MOL0     C22016   2.491   9.996   1.032  0.4055 -0.2660 -0.7282
  164MOL0     C22017   2.539  10.106   1.129  0.9915 -0.1920  0.3223
  164MOL0     C22018   2.626  10.038   1.245  0.0037  0.2855 -0.1212
  164MOL0     C22019   2.534   9.996   1.362 -0.4976 -0.0731 -0.2300
  164MOL0     C22020   2.581   9.877   1.447 -0.0868 -0.2062  0.1322
  164MOL0     C22021   2.496   9.854   1.576 -0.7947  0.2811 -1.1388
  164MOL0     N22022   2.520   9.959   1.672 -0.2964 -0.4004 -0.6634
  164MOL0     C22023   2.428  10.059   1.701  0.1470 -0.3675 -0.1459
  164MOL0     C22024   2.477  10.120   1.817 -0.0260  0.2209  1.0239
  164MOL0     C22025   2.421  10.244   1.891  1.6115 -0.0802  0.2054
  164MOL0     C22026   2.279  10.268   1.850 -0.5065  0.7758  0.3835
  164MOL0     C22027   2.172  10.168   1.931  0.8340 -1.0040 -0.7281
  164MOL0     C22028   2.039  10.178   1.885  0.9519  0.2020  1.1626
  164MOL0     O22029   2.053  10.096   1.758  0.2909 -0.2885 -0.0558
  164MOL0     C22030   2.046   9.958   1.761  0.1438 -0.5377 -0.5617
  164MOL0     C22031   1.970   9.885   1.858 -0.0956  0.7762  0.1944
  164MOL0     C22032   1.943   9.743   1.843  0.4929  0.1079 -0.0378
  164MOL0     C22033   1.852   9.682   1.948 -0.9830 -0.7395  0.6279
  164MOL0     C22034   2.000   9.674   1.731 -0.9820 -0.6219 -1.2410
  164MOL0     C22035   1.987   9.528   1.707  0.8065 -0.2481  0.3316
  164MOL0     O22036   2.101   9.469   1.647 -0.1820 -0.4349  0.2903
  164MOL0     C22037   2.100   9.330   1.634 -0.8433  0.0936 -0.5208
  164MOL0     C22038   2.173   9.249   1.724 -0.3642  0.8530 -0.2994
  164MOL0     C22039   2.180   9.104   1.715 -0.3962 -1.3401 -0.0207
  164MOL0     C22040   2.115   9.041   1.605  0.2899 -0.1964  0.0557
  164MOL0     O22041   2.123   8.905   1.615  0.4650  0.7933 -0.1173
  164MOL0     C22042   2.059   8.824   1.520  0.2402 -0.9758  0.4503
  164MOL0     C22043   2.131   8.693   1.508  0.5523  0.7436 -0.0216
  164MOL0     C22044   2.039   8.593   1.461 -0.1141  0.5849  0.3074
  164MOL0     C22045   1.939   8.537   1.561 -0.2917 -0.0833 -0.6756
  164MOL0     C22046   1.845   8.434   1.510 -0.3442 -0.0318  0.3164
  164MOL0     C22047   1.703   8.441   1.566  0.8711  0.2200  0.6564
  164MOL0     C22048   1.698   8.380   1.704  0.7512  0.0194  0.5537
  164MOL0     C22049   1.608   8.456   1.811  0.1956 -0.1134  0.0799
  164MOL0    Cl22050   1.689   8.592   1.898  0.3367  0.1466  0.1461
  164MOL0     C22051   2.039   9.126   1.512 -0.4189 -0.1102  0.0949
  164MOL0     C22052   2.031   9.269   1.533 -0.0421  0.5131  0.4494
  164MOL0     O22053   1.891   9.464   1.754 -0.3797 -0.0084 -0.4318
  164MOL0     C22054   2.072   9.745   1.641 -0.6927  0.1594  0.1829
  164MOL0     C22055   2.099   9.882   1.652  0.5590 -0.3669 -0.3444
  164MOL0     N22056   2.591  10.050   1.856  0.6248  0.5040  0.3116
  164MOL0     N22057   2.618   9.959   1.773  0.6269  0.5611 -0.1522
  164MOL0     C22058   2.189   9.824   0.782 -0.4285  0.0763 -0.4768
  164MOL0     C22059   2.081   9.745   0.767 -0.5169  0.6396  0.2655
  164MOL0     C22060   1.766   9.443   0.749 -0.9763 -0.9924  0.9026
  164MOL0     C22061   1.675   9.410   0.847 -0.4537 -0.1726  0.0169
  164MOL0     C22062   1.555   9.344   0.816 -0.0429  0.0391  0.1853
  164MOL0     C22063   1.528   9.302   0.687 -0.3923  0.4628 -0.0955
  164MOL0     O22064   1.414   9.237   0.646 -0.1461  0.0321 -0.1219
  164MOL0     C22065   1.301   9.235   0.742 -1.4262  0.2068  0.1081
  164MOL0     C22066   1.178   9.179   0.673  0.1525 -1.0567 -0.2079
  164MOL0     C22067   1.211   9.035   0.592  0.5685  0.1799 -0.8097
  164MOL0     C22068   1.246   8.923   0.695 -0.2370 -0.2921  0.1051
  164MOL0     C22069   1.130   8.840   0.719  0.5713 -0.6050  0.1466
  164MOL0     C22070   1.056   8.749   0.730 -0.5692 -0.5255 -0.8738
  164MOL0     C22071   1.614   9.329   0.587 -0.4873 -0.5541  0.4479
  164MOL0     C22072   1.741   9.398   0.617 -0.2866  0.2675  0.8837
  164MOL0     H22073   2.250   9.473   0.622 -0.5504  0.8923 -2.8262
  164MOL0     H22074   2.426   9.622   0.655  0.0630 -0.1661  0.5516
  164MOL0     H22075   2.492   9.762   0.926 -1.0831  0.1636 -0.1349
  164MOL0     H22076   2.612   9.782   0.792 -1.3554  2.9811 -3.3327
  164MOL0     H22077   2.680   9.923   0.973 -1.2322  1.4887  1.9217
  164MOL0     H22078   2.606  10.017   0.841 -2.8217 -1.4163 -2.4316
  164MOL0     H22079   2.405  10.037   0.977  0.3364  0.5268 -0.0330
  164MOL0     H22080   2.447   9.916   1.093 -1.2660  0.9638 -0.2484
  164MOL0     H22081   2.583  10.193   1.080  2.5424 -1.1419 -0.0548
  164MOL0     H22082   2.452  10.151   1.178 -1.8062 -3.2520 -1.3719
  164MOL0     H22083   2.693   9.952   1.229 -0.0709  0.3754 -0.9242
  164MOL0     H22084   2.685  10.124   1.276 -0.4390  0.7454 -0.5491
  164MOL0     H22085   2.513  10.084   1.423  0.1731  1.5181 -2.1626
  164MOL0     H22086   2.441   9.960   1.319 -1.6718 -0.5194  2.5046
  164MOL0     H22087   2.591   9.785   1.389 -0.1695 -0.8798  1.1611
  164MOL0     H22088   2.679   9.901   1.490  0.5290  0.1500 -1.4153
  164MOL0     H22089   2.514   9.752   1.610 -0.8987  0.8767  0.7887
  164MOL0     H22090   2.392   9.863   1.543 -0.9463  1.0767 -0.4574
  164MOL0     H22091   2.341  10.095   1.647  0.4264 -0.1421 -0.4422
  164MOL0     H22092   2.437  10.232   1.999  2.4106  3.6903  0.6468
  164MOL0     H22093   2.484  10.327   1.858  0.0808  2.3548  2.9432
  164MOL0     H22094   2.271  10.269   1.741  2.3695  2.1342  0.0911
  164MOL0     H22095   2.266  10.376   1.867  0.2338  1.7265 -3.9701
  164MOL0     H22096   2.154  10.196   2.035 -0.0108 -2.2796 -0.4975
  164MOL0     H22097   2.203  10.063   1.920 -0.4677 -1.1654 -3.8912
  164MOL0     H22098   2.016  10.281   1.854 -1.7437 -0.8181 -0.6656
  164MOL0     H22099   1.963  10.139   1.954 -1.6344  1.1304 -0.9649
  164MOL0     H22100   1.914   9.926   1.941  0.4834 -0.8497  1.4417
  164MOL0     H22101   1.750   9.692   1.911  0.5576 -1.8114 -4.8319
  164MOL0     H22102   1.867   9.574   1.964  0.1669 -0.4074  2.0669
  164MOL0     H22103   1.874   9.731   2.043 -0.1989 -1.9615  1.1167
  164MOL0     H22104   2.225   9.290   1.811  0.9719  0.3481 -0.8311
  164MOL0     H22105   2.228   9.046   1.793 -2.0443 -2.2804  0.3316
  164MOL0     H22106   1.952   8.809   1.538  0.2720 -1.6226  0.1367
  164MOL0     H22107   2.058   8.871   1.421 -0.2766 -2.3391 -0.2187
  164MOL0     H22108   2.211   8.709   1.435  0.4265 -1.7803 -0.8239
  164MOL0     H22109   2.178   8.671   1.605  0.2651  0.6478  0.0944
  164MOL0     H22110   2.099   8.514   1.416  2.1343  1.2080  1.9992
  164MOL0     H22111   1.986   8.636   1.376  1.8759  0.1399 -1.2166
  164MOL0     H22112   2.008   8.484   1.627 -0.4344  0.8925  0.2778
  164MOL0     H22113   1.880   8.620   1.602  0.4168 -1.0588  2.6746
  164MOL0     H22114   1.880   8.334   1.533 -1.8286 -1.0831 -1.6202
  164MOL0     H22115   1.842   8.438   1.400 -2.5360  0.2877  0.3307
  164MOL0     H22116   1.678   8.545   1.588 -1.6342 -0.5295  1.7005
  164MOL0     H22117   1.628   8.391   1.503  2.2113 -2.1021  0.7902
  164MOL0     H22118   1.800   8.368   1.743  1.4776  2.3395 -0.4789
  164MOL0     H22119   1.649   8.282   1.696  2.0822 -0.7485  1.3082
  164MOL0     H22120   1.570   8.386   1.886 -1.2652  0.3031 -0.2186
  164MOL0     H22121   1.508   8.477   1.771  0.0321  1.2419  1.1238
  164MOL0     H22122   1.972   9.091   1.434 -2.1837  0.5944  1.2240
  164MOL0     H22123   1.973   9.328   1.464 -0.7410 -1.3833 -0.6804
  164MOL0     H22124   2.125   9.698   1.559 -1.9968 -1.3922  0.1793
  164MOL0     H22125   2.160   9.923   1.573 -1.4629  0.9481 -1.3180
  164MOL0     H22126   2.195   9.925   0.822  0.5443  0.3822 -1.3214
  164MOL0     H22127   1.987   9.793   0.796 -0.4977  0.8874 -0.0710
  164MOL0     H22128   1.697   9.453   0.945  0.4615  3.9156 -1.7515
  164MOL0     H22129   1.488   9.336   0.901  1.0641 -2.6015  0.8927
  164MOL0     H22130   1.316   9.163   0.823  0.3595 -1.3979 -1.5347
  164MOL0     H22131   1.304   9.337   0.782  0.9459  0.1037  0.3605
  164MOL0     H22132   1.144   9.253   0.599  0.1287 -1.9300 -1.0927
  164MOL0     H22133   1.102   9.169   0.750  1.0637  0.4633  0.9517
  164MOL0     H22134   1.283   9.038   0.510  0.0103  0.7348 -1.2883
  164MOL0     H22135   1.118   9.016   0.537  0.8377 -1.9002 -0.6397
  164MOL0     H22136   1.278   8.959   0.793  0.6711 -0.6495 -0.0538
  164MOL0     H22137   1.325   8.862   0.651  0.3395  1.5244 -1.4943
  164MOL0     H22138   0.989   8.671   0.762  0.0884 -1.8728 -2.5688
  164MOL0     H22139   1.587   9.317   0.483  2.5260  1.5578 -0.7094
  164MOL0     H22140   1.804   9.422   0.532  0.5676  0.5544  1.5898
  165MOL0     O22141   9.526   7.926  11.156 -0.5399  0.1568  0.7683
  165MOL0     C22142   9.406   7.916  11.123 -0.8761 -0.0032  0.0887
  165MOL0     O22143   9.347   7.811  11.059 -0.9832 -0.3514 -0.7037
  165MOL0     C22144   9.431   7.711  10.993  0.7361 -1.1185 -0.7264
  165MOL0     C22145   9.382   7.577  11.003 -0.5856  0.4633  0.3226
  165MOL0     C22146   9.467   7.479  10.952  1.0421 -0.4746 -0.1088
  165MOL0     C22147   9.585   7.517  10.882  0.4556 -1.0990 -0.4432
  165MOL0     O22148   9.671   7.427  10.832 -0.6917  0.2736 -0.2694
  165MOL0     C22149   9.640   7.366  10.705 -0.1450 -1.4853  0.1656
  165MOL0     C22150   9.770   7.309  10.653 -0.6898  0.0508  0.7167
  165MOL0     C22151   9.879   7.420  10.625 -0.2976 -1.0017  0.1320
  165MOL0     C22152   9.878   7.468  10.479 -0.2357  0.0394  0.1892
  165MOL0     C22153   9.980   7.565  10.442  0.4152 -0.7426 -0.5021
  165MOL0     C22154   9.952   7.703  10.502  0.5906 -0.0830  0.9215
  165MOL0     C22155   9.817   7.765  10.462 -0.6962 -0.4320 -0.4263
  165MOL0     C22156   9.835   7.918  10.484  0.2627 -0.0827 -0.0787
  165MOL0     N22157   9.869   7.962  10.622  0.5072  0.0219 -0.7281
  165MOL0     C22158   9.776   8.002  10.714  0.4346 -0.7895  0.5078
  165MOL0     C22159   9.839   8.057  10.822  0.1205 -0.8423  0.0464
  165MOL0     C22160   9.764   8.118  10.945 -0.6204  0.1613 -0.5351
  165MOL0     C22161   9.849   8.237  11.006  0.8125 -0.3969 -0.4500
  165MOL0     C22162   9.896   8.359  10.918  0.4036  0.5274  0.0048
  165MOL0     C22163   9.980   8.455  11.009  0.8737 -0.3866  0.1532
  165MOL0     O22164  10.097   8.392  11.066  0.5420 -0.0887  0.5593
  165MOL0     C22165  10.206   8.398  10.984 -0.0555  0.8681  0.0493
  165MOL0     C22166  10.250   8.275  10.937  0.8643  0.0738 -0.1244
  165MOL0     C22167  10.360   8.268  10.849  0.2386  0.7301  0.2288
  165MOL0     C22168  10.392   8.127  10.796  0.2952  0.1332  0.1757
  165MOL0     C22169  10.434   8.391  10.821 -0.3297  0.6836  0.0154
  165MOL0     C22170  10.545   8.400  10.731  0.0196  0.7138  0.2411
  165MOL0     O22171  10.645   8.497  10.753 -0.3512  0.4510 -0.0187
  165MOL0     C22172  10.753   8.512  10.666 -0.0942 -0.9218  0.0061
  165MOL0     C22173  10.869   8.448  10.718  0.5471 -0.5106  0.9564
  165MOL0     C22174  10.983   8.435  10.640 -0.3551 -0.2984 -0.4044
  165MOL0     C22175  10.968   8.472  10.500 -0.7538 -0.5488 -0.0367
  165MOL0     O22176  11.069   8.451  10.412  0.4341 -0.1472 -0.6392
  165MOL0     C22177  11.182   8.366  10.440 -0.3779 -0.5709  1.0930
  165MOL0     C22178  11.246   8.299  10.315 -0.0920  0.8985  1.1596
  165MOL0     C22179  11.352   8.197  10.362 -0.1543  0.2415 -0.2974
  165MOL0     C22180  11.484   8.258  10.418  0.7163 -0.0450 -0.7677
  165MOL0     C22181  11.566   8.147  10.482 -0.7111  0.3085  0.2738
  165MOL0     C22182  11.711   8.179  10.525  0.1328  0.3949  0.3507
  165MOL0     C22183  11.786   8.249  10.412  0.0366 -0.2746 -0.4431
  165MOL0     C22184  11.940   8.242  10.416  0.2396 -0.0529  0.7088
  165MOL0    Cl22185  12.007   8.083  10.377  0.1065  0.3419  0.1889
  165MOL0     C22186  10.850   8.518  10.445 -0.1582 -0.1900 -0.4644
  165MOL0     C22187  10.740   8.550  10.537 -0.1966  0.1906  0.3732
  165MOL0     O22188  10.538   8.344  10.622  0.1365 -0.3576 -0.3139
  165MOL0     C22189  10.395   8.502  10.893  0.5631 -1.5488 -0.4522
  165MOL0     C22190  10.281   8.506  10.977  0.3977 -0.2120 -0.0609
  165MOL0     N22191   9.972   8.060  10.781 -0.1160  0.3290  0.6796
  165MOL0     N22192   9.996   7.988  10.677  0.1264 -0.0426 -0.0786
  165MOL0     C22193   9.621   7.648  10.874 -0.2677 -0.8797 -0.0979
  165MOL0     C22194   9.539   7.749  10.919 -1.1113 -1.0468  0.0541
  165MOL0     C22195   9.317   8.031  11.144  0.0814  0.2329  0.0637
  165MOL0     C22196   9.336   8.106  11.265 -0.1572 -0.5073  0.3018
  165MOL0     C22197   9.249   8.215  11.300  1.2553  0.3953  0.5600
  165MOL0     C22198   9.144   8.250  11.211 -0.3362 -0.0415 -0.2129
  165MOL0     O22199   9.086   8.369  11.237  0.7329  0.7663 -0.1647
  165MOL0     C22200   8.960   8.400  11.183 -0.1691  0.0059 -0.4031
  165MOL0     C22201   8.883   8.499  11.267 -0.9146 -0.3473  0.5966
  165MOL0     C22202   8.947   8.637  11.258 -0.0682 -0.0875 -0.2516
  165MOL0     C22203   8.862   8.751  11.323  0.4309  1.2890 -0.0533
  165MOL0     C22204   8.782   8.813  11.216 -0.0622  0.8652  0.2255
  165MOL0     C22205   8.725   8.844  11.114 -0.0525 -0.3203 -0.4470
  165MOL0     C22206   9.125   8.170  11.097 -0.4701  0.5830  0.1093
  165MOL0     C22207   9.208   8.064  11.065  0.7358  0.5485  0.2307
  165MOL0     H22208   9.284   7.541  11.034 -0.5579 -0.4115 -0.5427
  165MOL0     H22209   9.430   7.377  10.950 -1.4744  0.3614 -0.6690
  165MOL0     H22210   9.567   7.288  10.729 -0.7214 -0.0871  3.4887
  165MOL0     H22211   9.593   7.433  10.632  1.6496  1.0848  1.2303
  165MOL0     H22212   9.820   7.259  10.736 -0.1642  0.7629  0.8391
  165MOL0     H22213   9.740   7.240  10.573 -2.5715 -0.0094  1.4326
  165MOL0     H22214   9.864   7.505  10.693 -1.3344  0.0284 -1.3295
  165MOL0     H22215   9.980   7.397  10.659 -0.0855 -1.8721 -1.0568
  165MOL0     H22216   9.900   7.380  10.419  0.5376  1.2341 -1.3604
  165MOL0     H22217   9.775   7.492  10.452 -0.3752  0.2817  0.8991
  165MOL0     H22218  10.074   7.528  10.485  0.6646  1.3643  0.9257
  165MOL0     H22219   9.979   7.581  10.334  0.3320  5.9468  0.0988
  165MOL0     H22220   9.934   7.677  10.607 -0.2581 -3.0379  0.1369
  165MOL0     H22221  10.043   7.764  10.497  0.0811  0.9455  3.0130
  165MOL0     H22222   9.796   7.748  10.356  0.0150 -1.3907 -0.4241
  165MOL0     H22223   9.738   7.724  10.526 -2.0961  0.7456 -1.3342
  165MOL0     H22224   9.736   7.943  10.444 -0.7180 -0.1150  2.1903
  165MOL0     H22225   9.909   7.941  10.408 -1.2769 -1.9750 -2.3188
  165MOL0     H22226   9.669   7.987  10.701  0.9603 -2.7156 -2.2476
  165MOL0     H22227   9.671   8.163  10.910  0.1614  2.1759 -0.1622
  165MOL0     H22228   9.733   8.042  11.018 -1.8527  0.9853 -0.1789
  165MOL0     H22229   9.941   8.193  11.047  0.3820  1.8231  3.4128
  165MOL0     H22230   9.792   8.267  11.094 -1.5440 -3.3850 -0.8132
  165MOL0     H22231   9.814   8.421  10.881  2.1066  2.9889  0.0851
  165MOL0     H22232   9.952   8.319  10.833  1.9200  0.5410  0.9558
  165MOL0     H22233   9.924   8.495  11.095 -0.1132  1.6186 -1.3595
  165MOL0     H22234  10.007   8.544  10.953  1.5595 -0.9175 -0.3721
  165MOL0     H22235  10.192   8.190  10.972  0.5182  0.9109  1.3857
  165MOL0     H22236  10.318   8.051  10.823  2.7458 -2.3178  0.4914
  165MOL0     H22237  10.403   8.134  10.687  3.0444  0.8596  0.4323
  165MOL0     H22238  10.489   8.110  10.843  0.5348 -0.2323 -0.4346
  165MOL0     H22239  10.864   8.411  10.820 -0.4703  0.1653  1.1563
  165MOL0     H22240  11.078   8.416  10.688 -1.6704 -0.2980  2.4019
  165MOL0     H22241  11.255   8.430  10.491  1.9360 -1.9627 -0.2964
  165MOL0     H22242  11.157   8.282  10.505  1.8512 -4.0826 -2.1655
  165MOL0     H22243  11.170   8.245  10.258  1.4053  2.1748 -2.3782
  165MOL0     H22244  11.287   8.372  10.243  1.3165 -2.5648 -1.9194
  165MOL0     H22245  11.383   8.129  10.282  0.6161 -3.0139  2.4752
  165MOL0     H22246  11.306   8.130  10.436 -3.1842 -1.1458 -3.1496
  165MOL0     H22247  11.538   8.282  10.326  1.9376 -2.2726 -0.7130
  165MOL0     H22248  11.469   8.347  10.479  1.5746 -0.2974 -0.1573
  165MOL0     H22249  11.570   8.070  10.405  1.5035 -0.7065  1.3102
  165MOL0     H22250  11.517   8.107  10.572 -0.5183 -1.2264 -0.2725
  165MOL0     H22251  11.712   8.250  10.608 -1.2468  0.5506  0.2600
  165MOL0     H22252  11.756   8.083  10.553  0.4557 -0.2576 -2.1735
  165MOL0     H22253  11.746   8.351  10.416  1.2991  0.2501 -0.6732
  165MOL0     H22254  11.750   8.205  10.319  0.0855 -0.2498 -0.4736
  165MOL0     H22255  11.975   8.282  10.512  4.5063 -0.0185 -0.6778
  165MOL0     H22256  11.972   8.313  10.340 -1.8164  0.8191  0.6081
  165MOL0     H22257  10.846   8.539  10.338  0.7734 -3.3856 -1.2176
  165MOL0     H22258  10.651   8.607  10.512 -2.6788 -3.4415  0.2218
  165MOL0     H22259  10.432   8.601  10.871 -2.2931  0.0476  1.2327
  165MOL0     H22260  10.236   8.595  11.019 -1.3715 -1.3517  0.5410
  165MOL0     H22261   9.718   7.674  10.833 -0.9419  0.5514 -0.8633
  165MOL0     H22262   9.575   7.851  10.908 -4.0404 -0.1091 -2.4982
  165MOL0     H22263   9.409   8.076  11.340 -0.7886 -2.2976  0.2417
  165MOL0     H22264   9.271   8.267  11.392  2.2720  0.5406  0.2411
  165MOL0     H22265   8.985   8.448  11.088  0.3010 -2.0166 -1.3545
  165MOL0     H22266   8.900   8.311  11.166 -3.0191  0.9679  3.2152
  165MOL0     H22267   8.865   8.468  11.370 -3.1680 -0.6074  0.1791
  165MOL0     H22268   8.781   8.506  11.226 -1.1504 -0.9789  1.0632
  165MOL0     H22269   8.962   8.677  11.158  0.1556  3.9227  1.2055
  165MOL0     H22270   9.045   8.626  11.305  0.6922  1.2596 -1.4511
  165MOL0     H22271   8.936   8.807  11.380  0.3883  0.0363  1.2960
  165MOL0     H22272   8.793   8.734  11.406 -1.4502  3.4330 -1.0376
  165MOL0     H22273   8.682   8.892  11.028 -2.1357  1.3263  1.3747
  165MOL0     H22274   9.047   8.203  11.029 -0.6040  3.6439  1.5837
  165MOL0     H22275   9.194   8.010  10.972 -5.1693  0.3611  0.8352
  166MOL0     O22276   1.980   7.706   3.949 -0.3734  1.0081 -0.2071
  166MOL0     C22277   1.885   7.754   4.012  0.2436  0.3981 -0.1026
  166MOL0     O22278   1.765   7.682   4.054 -0.1853 -0.2350 -0.7858
  166MOL0     C22279   1.731   7.559   3.998 -0.0593 -0.0688  0.0811
  166MOL0     C22280   1.766   7.515   3.871 -0.0677  0.0820 -0.5705
  166MOL0     C22281   1.733   7.382   3.830 -0.1113  0.4270  0.1041
  166MOL0     C22282   1.649   7.302   3.908 -0.6446 -0.4208 -0.0507
  166MOL0     O22283   1.594   7.186   3.870 -0.6016  0.0696  0.7196
  166MOL0     C22284   1.673   7.090   3.790 -0.3662 -0.5002 -0.5370
  166MOL0     C22285   1.636   6.939   3.801 -0.6778 -0.7847 -0.2868
  166MOL0     C22286   1.482   6.915   3.796 -0.1442 -0.3018 -0.7727
  166MOL0     C22287   1.439   6.782   3.724 -0.7402  0.2512  0.3380
  166MOL0     C22288   1.496   6.649   3.786  0.0006  0.4673  0.3012
  166MOL0     C22289   1.433   6.537   3.697 -0.7068 -0.0536  0.7490
  166MOL0     C22290   1.503   6.404   3.709  0.3743 -0.4514 -0.2750
  166MOL0     C22291   1.472   6.344   3.846 -0.2792  0.7087 -0.0625
  166MOL0     N22292   1.383   6.226   3.847 -0.6057 -0.1075 -0.0145
  166MOL0     C22293   1.249   6.226   3.836 -0.5419 -0.3487 -0.3173
  166MOL0     C22294   1.209   6.097   3.827  0.5440  0.6865 -0.3135
  166MOL0     C22295   1.068   6.044   3.814  0.2503  0.7815 -0.5624
  166MOL0     C22296   1.030   6.044   3.664  0.4547  0.0125  0.1089
  166MOL0     C22297   1.126   5.954   3.578 -0.1014  0.2371 -0.5183
  166MOL0     C22298   1.099   5.941   3.430  0.0593 -0.5364  0.2335
  166MOL0     O22299   0.969   5.882   3.400  0.5956  0.1680 -0.8004
  166MOL0     C22300   0.942   5.743   3.406  1.1985 -0.5226  0.7089
  166MOL0     C22301   1.049   5.642   3.395  0.2122  0.1494 -0.5729
  166MOL0     C22302   1.016   5.506   3.411 -0.1741 -0.2106  1.0099
  166MOL0     C22303   1.135   5.407   3.428 -0.0598 -0.7458  0.4715
  166MOL0     C22304   0.883   5.462   3.434 -0.3206  1.5197  0.3057
  166MOL0     C22305   0.832   5.319   3.453  0.7671  0.2912  0.3396
  166MOL0     O22306   0.693   5.307   3.481 -0.2178 -0.0197 -0.5848
  166MOL0     C22307   0.617   5.193   3.458  0.6862  0.4779 -0.1820
  166MOL0     C22308   0.506   5.152   3.538 -0.3320 -0.6480 -0.8369
  166MOL0     C22309   0.435   5.040   3.495 -0.3787  0.5087  0.2003
  166MOL0     C22310   0.443   4.980   3.373 -0.5446 -0.8900  0.5694
  166MOL0     O22311   0.368   4.881   3.326 -0.1861  0.3419 -0.2291
  166MOL0     C22312   0.276   4.818   3.412  0.1613 -0.1886  0.1718
  166MOL0     C22313   0.203   4.692   3.360  0.7963 -0.4691  0.7373
  166MOL0     C22314   0.304   4.592   3.311 -0.1381 -0.1845 -0.2789
  166MOL0     C22315   0.219   4.469   3.265 -0.1119 -0.1259  0.0465
  166MOL0     C22316   0.300   4.355   3.192 -0.0581 -0.2370 -0.5060
  166MOL0     C22317   0.333   4.395   3.045  0.0386  0.6137 -0.0969
  166MOL0     C22318   0.376   4.268   2.963 -0.1233 -0.5379 -0.2070
  166MOL0     C22319   0.329   4.292   2.822  0.3442 -0.5467 -0.0771
  166MOL0    Cl22320   0.386   4.147   2.738 -0.0032  0.0323 -0.1404
  166MOL0     C22321   0.551   5.027   3.296 -0.5977 -0.2283  0.5412
  166MOL0     C22322   0.634   5.131   3.339 -0.5644  0.3862  0.1769
  166MOL0     O22323   0.919   5.227   3.448 -0.8436  0.5099  0.1858
  166MOL0     C22324   0.785   5.563   3.430 -0.1399 -0.3281  0.2072
  166MOL0     C22325   0.811   5.701   3.420 -0.2079 -0.5961  0.1013
  166MOL0     N22326   1.313   6.014   3.850  0.1516  0.1132  1.2327
  166MOL0     N22327   1.412   6.096   3.868  0.3955  0.4487  0.9032
  166MOL0     C22328   1.602   7.359   4.029 -0.5315  1.3718 -0.2460
  166MOL0     C22329   1.644   7.476   4.077  0.7264 -0.6659  0.1923
  166MOL0     C22330   1.912   7.891   4.047 -0.8211 -1.0269 -0.0420
  166MOL0     C22331   1.822   7.994   4.043  0.7545  0.7046 -0.2729
  166MOL0     C22332   1.852   8.126   4.076 -0.2733 -0.2339  0.2753
  166MOL0     C22333   1.979   8.162   4.121  0.0060 -0.7148 -0.7651
  166MOL0     O22334   2.024   8.290   4.166  0.2028  0.3492 -0.7745
  166MOL0     C22335   1.929   8.393   4.174  0.9249 -0.9759  0.6576
  166MOL0     C22336   1.997   8.529   4.154  0.1200 -0.1657  0.3359
  166MOL0     C22337   2.007   8.607   4.284 -0.3540 -0.5302 -0.4271
  166MOL0     C22338   2.137   8.580   4.360 -0.4548 -0.8039 -0.4401
  166MOL0     C22339   2.157   8.667   4.478 -0.3469 -0.5738  0.0989
  166MOL0     C22340   2.195   8.728   4.575 -0.3792  0.2557  0.0483
  166MOL0     C22341   2.079   8.074   4.117 -0.0426 -0.2406  0.4137
  166MOL0     C22342   2.050   7.938   4.080 -0.9494  0.7765  0.5738
  166MOL0     H22343   1.846   7.567   3.820  1.3832 -1.2823  0.2451
  166MOL0     H22344   1.763   7.358   3.729 -1.9045  1.1041 -0.6375
  166MOL0     H22345   1.671   7.125   3.686 -1.1008 -0.9330 -0.6731
  166MOL0     H22346   1.775   7.103   3.827 -1.4560 -1.5388  3.3280
  166MOL0     H22347   1.682   6.888   3.716 -1.9956  1.0064 -2.1617
  166MOL0     H22348   1.683   6.900   3.892 -0.7385 -0.9429 -0.3232
  166MOL0     H22349   1.448   6.904   3.899  0.7879 -2.3301 -0.6259
  166MOL0     H22350   1.428   6.996   3.748  1.2452  1.1498  0.0302
  166MOL0     H22351   1.330   6.786   3.728 -0.7481  3.4857 -0.8824
  166MOL0     H22352   1.468   6.787   3.619 -1.1261  1.4932  0.2767
  166MOL0     H22353   1.606   6.644   3.786 -0.0572 -2.1475  0.0015
  166MOL0     H22354   1.462   6.635   3.889  0.0226 -1.1782  0.1212
  166MOL0     H22355   1.325   6.543   3.714 -1.1718 -1.1958 -1.5172
  166MOL0     H22356   1.452   6.567   3.594  2.3613 -2.4323  0.4974
  166MOL0     H22357   1.473   6.345   3.622  1.1288 -0.5074 -0.5109
  166MOL0     H22358   1.611   6.422   3.697 -0.0661  3.6010  0.4106
  166MOL0     H22359   1.431   6.417   3.916  2.2289  0.0479  2.2207
  166MOL0     H22360   1.566   6.317   3.895 -0.7223 -1.2262 -0.2017
  166MOL0     H22361   1.186   6.314   3.843  0.7664  0.7868 -1.9526
  166MOL0     H22362   1.054   5.944   3.856  1.0667  1.9622  2.8107
  166MOL0     H22363   1.005   6.115   3.868  1.0723  0.3697  0.9907
  166MOL0     H22364   1.022   6.149   3.634 -0.8250  0.7865  2.7802
  166MOL0     H22365   0.930   6.000   3.657 -0.6772  1.8466  2.7315
  166MOL0     H22366   1.136   5.862   3.636 -2.4489 -0.0567 -0.4839
  166MOL0     H22367   1.227   5.997   3.580 -0.3487  0.9532 -1.9660
  166MOL0     H22368   1.181   5.885   3.384 -0.6149  1.5643 -3.9963
  166MOL0     H22369   1.106   6.034   3.374  1.5607 -1.5123 -1.3078
  166MOL0     H22370   1.153   5.673   3.405  1.4261 -2.9728 -2.1559
  166MOL0     H22371   1.228   5.465   3.428  0.3708 -1.4230 -0.3440
  166MOL0     H22372   1.126   5.351   3.521 -1.7021 -2.6521 -0.7562
  166MOL0     H22373   1.132   5.329   3.352  3.1990 -2.0488  1.5052
  166MOL0     H22374   0.469   5.208   3.623 -0.3006  1.4326 -2.1254
  166MOL0     H22375   0.356   5.006   3.562 -1.2979  0.2301 -0.9801
  166MOL0     H22376   0.320   4.805   3.512  2.6664  1.0321 -0.7042
  166MOL0     H22377   0.188   4.882   3.422 -1.8565 -2.5782 -1.2292
  166MOL0     H22378   0.143   4.637   3.433  1.5888 -0.9037  1.0781
  166MOL0     H22379   0.126   4.717   3.287  0.0155  2.5075  2.4163
  166MOL0     H22380   0.388   4.575   3.380  0.3733 -0.0792 -0.8667
  166MOL0     H22381   0.355   4.621   3.218  0.7076 -1.6952 -0.3154
  166MOL0     H22382   0.169   4.435   3.356 -0.1900  2.3845  0.9979
  166MOL0     H22383   0.141   4.503   3.197 -0.2663  0.8672  0.7136
  166MOL0     H22384   0.248   4.259   3.199  1.3829 -0.9742  0.6514
  166MOL0     H22385   0.400   4.339   3.235 -0.7143  1.0407  1.6280
  166MOL0     H22386   0.255   4.454   2.996  2.4777  2.4607 -2.0406
  166MOL0     H22387   0.419   4.464   3.045 -0.4306  1.2104  0.1497
  166MOL0     H22388   0.324   4.178   2.998 -2.5591 -0.0609 -2.3087
  166MOL0     H22389   0.484   4.262   2.945  0.3536  0.3655  2.0491
  166MOL0     H22390   0.369   4.386   2.783 -3.4907  2.1266  1.7503
  166MOL0     H22391   0.222   4.314   2.809 -0.0066 -2.3048 -0.4906
  166MOL0     H22392   0.576   4.982   3.201  0.8154 -2.5470  1.8849
  166MOL0     H22393   0.704   5.170   3.265 -3.6408  0.6043 -2.8630
  166MOL0     H22394   0.679   5.547   3.441 -0.5879  2.1707 -0.1308
  166MOL0     H22395   0.722   5.761   3.434 -1.4784 -0.9003 -4.8180
  166MOL0     H22396   1.531   7.297   4.083 -0.4956  0.5172 -1.1558
  166MOL0     H22397   1.599   7.513   4.168  1.2865  2.9902 -0.8481
  166MOL0     H22398   1.716   7.977   4.027  0.4832 -0.0855  2.0323
  166MOL0     H22399   1.774   8.202   4.083  1.7134  1.8153  1.5101
  166MOL0     H22400   1.866   8.381   4.085 -0.5500 -2.3748  1.8227
  166MOL0     H22401   1.871   8.372   4.265 -1.0693  1.5967  0.1153
  166MOL0     H22402   1.933   8.591   4.091  0.1794 -0.1031  0.3368
  166MOL0     H22403   2.096   8.511   4.112 -0.5136  1.3353 -1.9839
  166MOL0     H22404   1.911   8.603   4.337  0.9745  1.0476  2.2966
  166MOL0     H22405   2.008   8.715   4.264  2.5875 -0.6100 -1.1043
  166MOL0     H22406   2.227   8.602   4.302  0.9555  1.8037  2.4713
  166MOL0     H22407   2.123   8.473   4.382 -3.8872 -0.5467 -0.7597
  166MOL0     H22408   2.240   8.774   4.661  1.4009  1.2527 -1.3649
  166MOL0     H22409   2.180   8.109   4.135 -0.2022  0.8086 -0.5834
  166MOL0     H22410   2.140   7.878   4.071 -1.9078 -0.3998 -2.0964
  167MOL0     O22411   1.138   8.568   3.834 -0.6656 -0.3617 -1.0058
  167MOL0     C22412   1.114   8.592   3.716  0.1932 -0.0028  0.2796
  167MOL0     O22413   1.008   8.666   3.679 -0.5568 -0.2732 -0.3633
  167MOL0     C22414   0.933   8.734   3.778 -0.2714  0.3288 -0.9273
  167MOL0     C22415   0.959   8.868   3.801  0.1211  0.5582  0.0049
  167MOL0     C22416   0.876   8.945   3.879  0.2954 -0.3380  0.3445
  167MOL0     C22417   0.761   8.892   3.942  0.3339  0.4358  0.1760
  167MOL0     O22418   0.679   8.954   4.035 -0.5939  0.6675  0.2715
  167MOL0     C22419   0.693   9.093   4.062 -0.2363  0.6709 -0.7468
  167MOL0     C22420   0.615   9.189   3.971 -0.4928  0.1692  0.3328
  167MOL0     C22421   0.464   9.191   3.994 -0.4183 -0.3656  0.2533
  167MOL0     C22422   0.405   9.133   4.133  0.0809  0.2839  0.1798
  167MOL0     C22423   0.252   9.172   4.136 -0.5025  0.2898 -0.6149
  167MOL0     C22424   0.150   9.078   4.067  0.0761  1.3052  0.0552
  167MOL0     C22425   0.007   9.111   4.116 -0.5182 -0.4299 -0.0423
  167MOL0     C22426  -0.077   9.171   4.002  1.4835 -0.2223  0.0375
  167MOL0     N22427  -0.208   9.215   4.051  0.2331 -0.1178  1.0077
  167MOL0     C22428  -0.312   9.127   4.081  0.0135 -1.5211  0.0542
  167MOL0     C22429  -0.412   9.205   4.123 -0.2940  0.4189 -0.4511
  167MOL0     C22430  -0.547   9.169   4.173  0.8182  0.0324 -0.3592
  167MOL0     C22431  -0.649   9.202   4.070  0.6985  0.0686  0.0244
  167MOL0     C22432  -0.795   9.159   4.120  0.0730 -0.0054  0.4879
  167MOL0     C22433  -0.900   9.195   4.019 -0.4461 -1.2965 -0.0404
  167MOL0     O22434  -0.877   9.325   3.967  0.1417  0.1221 -0.3993
  167MOL0     C22435  -0.978   9.354   3.879  0.5362  0.3615  0.5842
  167MOL0     C22436  -1.057   9.450   3.932  0.2863 -0.0645 -0.0241
  167MOL0     C22437  -1.147   9.522   3.845  0.1557  1.0734  0.2606
  167MOL0     C22438  -1.229   9.641   3.883  0.2987 -0.8434  0.2715
  167MOL0     C22439  -1.161   9.483   3.704  0.8429 -1.0072  0.3826
  167MOL0     C22440  -1.247   9.534   3.591 -0.7685  0.7812 -0.0368
  167MOL0     O22441  -1.296   9.437   3.510  0.2509  0.5096 -0.7356
  167MOL0     C22442  -1.339   9.455   3.384  0.6793 -0.7151 -0.5285
  167MOL0     C22443  -1.423   9.345   3.335  0.0810  0.1929  0.9041
  167MOL0     C22444  -1.490   9.375   3.213  0.7121 -0.4676  0.2129
  167MOL0     C22445  -1.477   9.491   3.146  0.0281  0.0169  0.5821
  167MOL0     O22446  -1.557   9.525   3.036  1.5764  0.4206  0.4624
  167MOL0     C22447  -1.545   9.429   2.928 -0.0273  0.2066  0.6589
  167MOL0     C22448  -1.637   9.453   2.810  0.3033  0.5212  0.2128
  167MOL0     C22449  -1.785   9.424   2.845 -0.0599  0.0282 -0.2010
  167MOL0     C22450  -1.860   9.409   2.707  0.2035 -0.0764 -0.0472
  167MOL0     C22451  -2.011   9.419   2.727 -0.0659 -0.1078 -0.2758
  167MOL0     C22452  -2.086   9.400   2.601 -0.2466  0.0269  0.6641
  167MOL0     C22453  -2.233   9.368   2.618  1.2211 -0.3557 -1.5188
  167MOL0     C22454  -2.267   9.221   2.648  0.1537 -0.3374 -0.1929
  167MOL0    Cl22455  -2.439   9.208   2.605  0.3638  0.2730 -0.1238
  167MOL0     C22456  -1.394   9.593   3.192 -0.0366 -0.3184 -0.4832
  167MOL0     C22457  -1.326   9.575   3.311  0.1696  1.0728  0.1323
  167MOL0     O22458  -1.260   9.656   3.588 -0.4445  0.1025  1.3561
  167MOL0     C22459  -1.082   9.372   3.665  0.1079  0.2815 -0.7509
  167MOL0     C22460  -1.001   9.303   3.753  0.3609 -0.0739 -0.3518
  167MOL0     N22461  -0.369   9.338   4.128  0.5859 -0.3086  0.0372
  167MOL0     N22462  -0.258   9.340   4.065  0.5817  0.2215  0.4351
  167MOL0     C22463   0.734   8.758   3.932  0.3492  0.8850 -0.1720
  167MOL0     C22464   0.824   8.674   3.852  0.9574 -0.0534 -0.2622
  167MOL0     C22465   1.211   8.551   3.609 -0.2291  0.4747  0.7897
  167MOL0     C22466   1.190   8.580   3.470 -0.7484 -0.4457 -0.4186
  167MOL0     C22467   1.289   8.556   3.379 -0.2656 -0.0512 -0.3214
  167MOL0     C22468   1.402   8.494   3.419 -0.5483 -0.0539  0.6204
  167MOL0     O22469   1.485   8.450   3.314  0.1178  0.2733  0.8667
  167MOL0     C22470   1.596   8.363   3.334  0.4373 -0.1792 -0.1523
  167MOL0     C22471   1.728   8.440   3.360  0.0274  0.3354 -0.5404
  167MOL0     C22472   1.834   8.343   3.434  0.8882 -0.6291  0.2298
  167MOL0     C22473   1.976   8.393   3.416  0.9342 -0.1331 -0.7919
  167MOL0     C22474   1.973   8.532   3.466 -0.5038 -0.6212 -0.9220
  167MOL0     C22475   1.980   8.652   3.487  0.5245 -0.3840 -0.4115
  167MOL0     C22476   1.424   8.452   3.548  0.3978 -0.3899  0.9148
  167MOL0     C22477   1.323   8.484   3.647  0.2142 -0.1834  0.5323
  167MOL0     H22478   1.041   8.925   3.756  0.0637 -0.1516 -1.0480
  167MOL0     H22479   0.896   9.050   3.898  0.6096 -0.1227 -1.0476
  167MOL0     H22480   0.660   9.110   4.165 -0.7780 -1.7396 -0.4760
  167MOL0     H22481   0.802   9.105   4.066 -0.3493  1.3744  1.3678
  167MOL0     H22482   0.659   9.290   3.972  1.0251 -0.4452  1.5364
  167MOL0     H22483   0.624   9.149   3.870  0.2456  0.6611  0.1927
  167MOL0     H22484   0.447   9.299   3.987  1.0560 -0.1400 -0.2325
  167MOL0     H22485   0.399   9.148   3.918  0.0419 -1.3509  0.4021
  167MOL0     H22486   0.416   9.025   4.145 -0.0442  0.4570  2.1805
  167MOL0     H22487   0.451   9.184   4.217 -1.5952  0.0910  1.2630
  167MOL0     H22488   0.225   9.178   4.242  0.5625  1.1638 -0.3854
  167MOL0     H22489   0.235   9.271   4.095  1.6771  1.4354  1.0252
  167MOL0     H22490   0.155   9.100   3.960  1.6518  3.0388  0.4447
  167MOL0     H22491   0.170   8.976   4.103  2.2995  0.2053 -3.7139
  167MOL0     H22492  -0.044   9.017   4.135 -3.1185  0.5565 -1.6130
  167MOL0     H22493  -0.004   9.168   4.209 -2.1768 -3.4118  1.7435
  167MOL0     H22494  -0.091   9.096   3.924 -0.0786  0.6171 -0.5337
  167MOL0     H22495  -0.023   9.250   3.949 -1.7421 -0.5173 -4.2097
  167MOL0     H22496  -0.303   9.019   4.086 -1.1926 -1.6475 -0.2230
  167MOL0     H22497  -0.547   9.063   4.197 -1.6086  0.4838  2.1470
  167MOL0     H22498  -0.575   9.226   4.262 -1.7880  1.4963 -1.9577
  167MOL0     H22499  -0.635   9.153   3.973 -2.3874  0.3467 -0.6983
  167MOL0     H22500  -0.647   9.309   4.046  1.2506  1.0277  3.7981
  167MOL0     H22501  -0.817   9.199   4.220  1.3450  2.7039 -0.2068
  167MOL0     H22502  -0.782   9.052   4.133  0.6646  0.0648  0.4911
  167MOL0     H22503  -1.002   9.190   4.058 -1.3115 -0.2110 -1.9866
  167MOL0     H22504  -0.870   9.131   3.936  2.2562  2.2483 -2.1060
  167MOL0     H22505  -1.042   9.490   4.032  1.8561 -1.0626  0.1708
  167MOL0     H22506  -1.241   9.650   3.991 -0.3484 -4.7493  0.6481
  167MOL0     H22507  -1.182   9.724   3.829 -0.6629 -1.0707 -0.9543
  167MOL0     H22508  -1.334   9.638   3.853  0.6361  1.8942 -1.5834
  167MOL0     H22509  -1.428   9.251   3.389 -2.3241 -2.2388 -3.0678
  167MOL0     H22510  -1.563   9.299   3.186  2.8039 -1.8757 -1.9063
  167MOL0     H22511  -1.445   9.435   2.884 -1.4840  0.6578 -2.9116
  167MOL0     H22512  -1.563   9.326   2.962 -1.3979  0.3829  0.5248
  167MOL0     H22513  -1.628   9.558   2.781  2.7325  0.0471 -0.9817
  167MOL0     H22514  -1.602   9.398   2.722 -0.7129 -0.3298  0.3174
  167MOL0     H22515  -1.817   9.517   2.893  0.7014  0.6378 -0.8543
  167MOL0     H22516  -1.792   9.338   2.912  3.9450  1.1437  2.0102
  167MOL0     H22517  -1.817   9.488   2.646 -1.0358  0.4932 -0.1998
  167MOL0     H22518  -1.838   9.313   2.660  1.6591 -0.1627  0.7529
  167MOL0     H22519  -2.043   9.498   2.795 -0.7253 -0.1190 -0.5618
  167MOL0     H22520  -2.031   9.333   2.793  0.0399  2.4650  3.4103
  167MOL0     H22521  -2.096   9.497   2.551  1.1504  0.3194  0.9111
  167MOL0     H22522  -2.043   9.337   2.523 -1.3762  0.0018  0.0257
  167MOL0     H22523  -2.283   9.403   2.528 -1.8690 -0.0461  0.1916
  167MOL0     H22524  -2.281   9.409   2.708 -1.4337 -1.8358 -2.1625
  167MOL0     H22525  -2.240   9.181   2.746  2.1157 -0.7960 -0.8754
  167MOL0     H22526  -2.214   9.158   2.576  0.7617 -2.4963  1.9891
  167MOL0     H22527  -1.385   9.690   3.144 -0.0184  0.5317  1.1938
  167MOL0     H22528  -1.262   9.656   3.345  1.6186 -0.6638  1.8606
  167MOL0     H22529  -1.080   9.324   3.568  1.7668  0.2733 -0.7397
  167MOL0     H22530  -0.942   9.216   3.726  4.1444  1.2322  2.8394
  167MOL0     H22531   0.653   8.712   3.987  0.4514  1.3720  0.3868
  167MOL0     H22532   0.807   8.568   3.842  0.1904 -0.2288  2.1797
  167MOL0     H22533   1.103   8.627   3.426  0.4030 -0.0631 -2.3816
  167MOL0     H22534   1.277   8.587   3.276  1.5429 -3.1586 -1.6074
  167MOL0     H22535   1.564   8.299   3.416 -5.7311  0.1560 -1.7827
  167MOL0     H22536   1.611   8.307   3.241  0.0035  0.0301 -0.3474
  167MOL0     H22537   1.694   8.509   3.437  4.0150  0.4484  1.3540
  167MOL0     H22538   1.753   8.481   3.262  0.3456  0.4119 -0.4271
  167MOL0     H22539   1.841   8.248   3.381 -1.0600  1.6552 -4.6850
  167MOL0     H22540   1.808   8.331   3.540 -0.1683  1.9464  0.3432
  167MOL0     H22541   1.996   8.396   3.309 -0.7965 -0.4235 -1.1483
  167MOL0     H22542   2.051   8.329   3.465 -0.6565 -0.6811  1.0878
  167MOL0     H22543   1.984   8.758   3.480 -1.9012 -0.3572 -4.4451
  167MOL0     H22544   1.518   8.410   3.581  2.5421  0.8006 -3.0176
  167MOL0     H22545   1.338   8.451   3.749  1.8119 -3.5083 -0.6435
  168MOL0     O22546   4.070  10.484   3.123 -0.3536 -0.5131 -0.1730
  168MOL0     C22547   3.967  10.445   3.184 -0.7255  0.1651  0.1230
  168MOL0     O22548   3.831  10.478   3.151 -0.0917  0.7337 -0.1532
  168MOL0     C22549   3.808  10.550   3.044  0.0500 -0.1951  0.2456
  168MOL0     C22550   3.796  10.500   2.909  0.0384 -0.3476  0.3166
  168MOL0     C22551   3.777  10.588   2.804 -0.8150  0.4201 -0.2244
  168MOL0     C22552   3.752  10.725   2.822  0.1160 -0.9298 -0.7248
  168MOL0     O22553   3.759  10.804   2.712  0.8041 -0.1590  0.2035
  168MOL0     C22554   3.680  10.920   2.719 -1.7139 -0.6254 -0.6484
  168MOL0     C22555   3.590  10.928   2.600 -0.3766 -0.3230  0.0744
  168MOL0     C22556   3.656  10.921   2.457 -0.2331 -0.4128  0.7854
  168MOL0     C22557   3.537  10.886   2.361 -0.3084 -0.6028  0.0784
  168MOL0     C22558   3.533  10.735   2.343  0.0953  1.2171 -0.0176
  168MOL0     C22559   3.416  10.678   2.268 -0.0920  0.1477  1.1443
  168MOL0     C22560   3.450  10.537   2.214 -0.8076  0.4107 -0.8684
  168MOL0     C22561   3.328  10.456   2.161 -0.8265  0.2152  0.3126
  168MOL0     N22562   3.227  10.549   2.115  0.7413 -0.1337 -0.5832
  168MOL0     C22563   3.235  10.629   2.005  0.0794 -0.5295 -0.0802
  168MOL0     C22564   3.123  10.703   2.012  0.3737  0.0604 -0.3047
  168MOL0     C22565   3.085  10.811   1.912  0.2039 -0.6397 -0.5011
  168MOL0     C22566   3.153  10.949   1.936 -0.3938 -0.3156  0.0067
  168MOL0     C22567   3.295  10.963   1.876 -0.0045  1.5555  0.3750
  168MOL0     C22568   3.340  11.109   1.888 -0.5326  0.3508  0.6842
  168MOL0     O22569   3.356  11.137   2.029  0.1775  0.0949  0.4949
  168MOL0     C22570   3.385  11.264   2.060  0.0159  0.0813  0.4227
  168MOL0     C22571   3.388  11.298   2.188  0.5649 -0.0812 -0.0746
  168MOL0     C22572   3.408  11.430   2.240  0.3146 -0.5549  0.2008
  168MOL0     C22573   3.377  11.455   2.389 -0.5475 -0.2252  0.3127
  168MOL0     C22574   3.435  11.532   2.150 -0.5227 -0.9886  0.3534
  168MOL0     C22575   3.466  11.679   2.192  0.3882  0.0693 -0.3885
  168MOL0     O22576   3.432  11.771   2.107 -0.1313  0.6767 -0.9647
  168MOL0     C22577   3.456  11.905   2.136  0.2134 -0.6951  0.2577
  168MOL0     C22578   3.544  11.972   2.056  0.3171 -1.0219 -0.4701
  168MOL0     C22579   3.569  12.109   2.077  0.1843  0.6608 -0.0571
  168MOL0     C22580   3.522  12.179   2.193 -0.0134  0.1578  0.4905
  168MOL0     O22581   3.579  12.296   2.225  0.2835 -0.4802 -0.3832
  168MOL0     C22582   3.523  12.372   2.336 -0.0684 -0.5263  0.5892
  168MOL0     C22583   3.590  12.508   2.344 -0.2504  0.2154  0.0358
  168MOL0     C22584   3.570  12.583   2.480  0.1620 -0.2957  0.5300
  168MOL0     C22585   3.622  12.727   2.476  0.3080 -0.3221  0.5778
  168MOL0     C22586   3.685  12.770   2.610 -1.1018 -0.3028 -1.0913
  168MOL0     C22587   3.757  12.908   2.584 -0.3724 -0.3498  0.2793
  168MOL0     C22588   3.820  12.971   2.704 -0.4528  0.5642 -0.0016
  168MOL0     C22589   3.903  13.087   2.670 -0.0458  0.3393  0.5971
  168MOL0    Cl22590   4.051  13.032   2.574  1.2316 -0.2733 -0.3251
  168MOL0     C22591   3.430  12.102   2.277  0.3064  0.0773 -0.0290
  168MOL0     C22592   3.408  11.965   2.254  1.3852 -0.0708  0.4644
  168MOL0     O22593   3.529  11.705   2.294  0.0423  0.2716  0.0216
  168MOL0     C22594   3.419  11.498   2.011 -0.3689  0.0935 -0.4852
  168MOL0     C22595   3.412  11.370   1.972 -0.1081 -0.7540 -0.1185
  168MOL0     N22596   3.047  10.665   2.125 -0.2093  0.7562  0.2435
  168MOL0     N22597   3.108  10.571   2.177 -0.8669  0.0509  0.5340
  168MOL0     C22598   3.745  10.772   2.952 -0.3217  0.3801  0.2552
  168MOL0     C22599   3.782  10.694   3.063  0.2438  0.1778  0.2951
  168MOL0     C22600   3.995  10.358   3.297  0.6761  0.6602  0.7546
  168MOL0     C22601   3.891  10.277   3.354 -0.1624 -0.6850 -0.0717
  168MOL0     C22602   3.921  10.193   3.457 -0.1784  0.7374 -0.0369
  168MOL0     C22603   4.053  10.170   3.509 -0.3123  0.9691  1.1931
  168MOL0     O22604   4.065  10.069   3.601 -0.2682 -0.7863  0.4326
  168MOL0     C22605   4.191  10.016   3.631  0.9106 -0.1931 -0.0750
  168MOL0     C22606   4.141   9.883   3.707  0.5446 -0.6306  0.3599
  168MOL0     C22607   4.068   9.905   3.834 -0.5228  0.2821 -0.2479
  168MOL0     C22608   3.968   9.789   3.860 -1.4045  0.1743  0.3538
  168MOL0     C22609   4.028   9.652   3.837  0.6717 -1.0041 -0.7988
  168MOL0     C22610   4.064   9.546   3.787 -0.0547  0.0583  0.7714
  168MOL0     C22611   4.154  10.249   3.456 -0.4532  0.1788  0.4787
  168MOL0     C22612   4.126  10.339   3.348  0.1473  0.2500 -0.5429
  168MOL0     H22613   3.814  10.395   2.887 -1.1172 -0.2314 -1.3575
  168MOL0     H22614   3.771  10.541   2.705 -1.7087  1.1338 -0.5179
  168MOL0     H22615   3.608  10.905   2.800 -2.4216 -5.2703 -1.8096
  168MOL0     H22616   3.743  11.009   2.726 -2.1823 -0.2192 -1.4659
  168MOL0     H22617   3.503  10.866   2.619 -2.7781  2.9352  0.5390
  168MOL0     H22618   3.546  11.028   2.607 -0.0375 -0.2889  2.7615
  168MOL0     H22619   3.702  11.011   2.417 -1.9664 -0.0422 -0.4754
  168MOL0     H22620   3.724  10.835   2.461  1.1899  0.2775 -3.5565
  168MOL0     H22621   3.447  10.929   2.407  1.0935  0.4497  1.9693
  168MOL0     H22622   3.550  10.931   2.262 -0.4900 -1.5094 -0.3746
  168MOL0     H22623   3.621  10.712   2.281 -0.1448  2.7038 -0.9534
  168MOL0     H22624   3.541  10.682   2.438  1.8508  1.2105 -0.1379
  168MOL0     H22625   3.331  10.680   2.337 -0.2094  0.2920  0.9944
  168MOL0     H22626   3.391  10.738   2.181  0.1930 -3.4759 -1.6761
  168MOL0     H22627   3.519  10.553   2.131 -2.3211 -2.5805 -2.9157
  168MOL0     H22628   3.500  10.486   2.297 -4.6903 -1.2943  0.6611
  168MOL0     H22629   3.294  10.403   2.249  0.2925  2.1442  1.9949
  168MOL0     H22630   3.366  10.389   2.084 -1.1876 -0.4181  0.6806
  168MOL0     H22631   3.310  10.639   1.927 -0.4271 -0.6321 -0.5908
  168MOL0     H22632   3.099  10.787   1.806 -1.1749 -1.5140 -0.5124
  168MOL0     H22633   2.977  10.821   1.927  0.6226 -0.2180  2.9945
  168MOL0     H22634   3.162  10.970   2.044 -1.2717 -0.0733  0.0395
  168MOL0     H22635   3.097  11.029   1.887  1.8940  1.0410 -0.5721
  168MOL0     H22636   3.292  10.922   1.774 -2.3769 -4.5239  2.4331
  168MOL0     H22637   3.371  10.907   1.931 -1.9471 -1.5662  0.1539
  168MOL0     H22638   3.261  11.179   1.860 -0.8490  0.0517  0.8120
  168MOL0     H22639   3.424  11.133   1.822  0.6541  1.3642  2.4793
  168MOL0     H22640   3.373  11.215   2.256  2.7059  0.2811  0.9329
  168MOL0     H22641   3.328  11.553   2.388  2.7262  1.6064 -2.5796
  168MOL0     H22642   3.304  11.385   2.431 -1.5219  0.3994 -0.3046
  168MOL0     H22643   3.471  11.451   2.445 -2.5663 -3.8740  4.0448
  168MOL0     H22644   3.583  11.915   1.972 -3.8655 -2.0460 -1.9743
  168MOL0     H22645   3.644  12.160   2.016  1.6910 -1.1761  0.1694
  168MOL0     H22646   3.419  12.401   2.322  1.3906  4.8882 -1.4766
  168MOL0     H22647   3.541  12.331   2.435  3.3998 -0.2366  0.2029
  168MOL0     H22648   3.696  12.481   2.338 -0.6063 -1.9017  1.9164
  168MOL0     H22649   3.554  12.567   2.259 -0.8300  1.5671  1.1791
  168MOL0     H22650   3.615  12.523   2.560 -0.1815 -0.1902  0.8073
  168MOL0     H22651   3.462  12.602   2.484 -0.0363 -0.4432 -2.3591
  168MOL0     H22652   3.684  12.728   2.386 -0.6440  1.4471 -0.0871
  168MOL0     H22653   3.540  12.795   2.453  0.7078 -0.1999 -0.5229
  168MOL0     H22654   3.758  12.695   2.642  0.8491  2.1352  0.4534
  168MOL0     H22655   3.604  12.779   2.684  0.2572  0.4635  0.3490
  168MOL0     H22656   3.832  12.887   2.506 -2.7834 -1.3115 -1.9186
  168MOL0     H22657   3.692  12.982   2.535 -1.2959  0.1426  2.1592
  168MOL0     H22658   3.873  12.901   2.769 -2.0403 -0.4698  0.2278
  168MOL0     H22659   3.739  13.007   2.768 -2.1637  0.3950 -1.9513
  168MOL0     H22660   3.939  13.117   2.769  2.9018 -1.9176  0.3594
  168MOL0     H22661   3.844  13.156   2.609  3.1988  1.9451 -0.9720
  168MOL0     H22662   3.379  12.157   2.355 -1.4593  0.1414 -1.1694
  168MOL0     H22663   3.331  11.911   2.309  1.5506 -1.0630 -0.2657
  168MOL0     H22664   3.424  11.586   1.948 -1.2086  3.2699  3.4840
  168MOL0     H22665   3.402  11.353   1.865 -2.2461 -1.6342  0.1632
  168MOL0     H22666   3.722  10.877   2.967  0.7709  1.4361 -4.0342
  168MOL0     H22667   3.783  10.741   3.161 -3.2935 -1.3035  1.2218
  168MOL0     H22668   3.795  10.269   3.304  0.9851  0.6788 -2.7336
  168MOL0     H22669   3.850  10.114   3.479  2.2766 -2.9473 -3.8085
  168MOL0     H22670   4.239   9.986   3.538  3.5037  0.8146  0.8421
  168MOL0     H22671   4.262  10.080   3.685 -1.1212 -0.6725  3.4612
  168MOL0     H22672   4.226   9.814   3.707  0.1619 -1.1386  1.6338
  168MOL0     H22673   4.066   9.845   3.636  0.6995 -2.6081  1.1822
  168MOL0     H22674   4.021  10.003   3.835 -1.7444  0.0441 -5.1632
  168MOL0     H22675   4.127   9.899   3.926 -0.0093  0.2846 -0.5750
  168MOL0     H22676   3.887   9.804   3.787 -1.4513  3.5235  0.8926
  168MOL0     H22677   3.917   9.798   3.956 -0.8134  0.2709  0.6600
  168MOL0     H22678   4.096   9.454   3.742 -2.9549 -0.0813 -1.2529
  168MOL0     H22679   4.258  10.233   3.485  0.4812 -0.0276 -2.5955
  168MOL0     H22680   4.217  10.379   3.305  0.5137  1.2141  1.0574
  169MOL0     O22681   3.494  11.332  10.848 -0.9165 -0.6348 -0.1494
  169MOL0     C22682   3.415  11.252  10.795  0.2771 -0.7535 -0.3194
  169MOL0     O22683   3.315  11.198  10.857  0.0990 -0.1581 -0.0885
  169MOL0     C22684   3.298  11.205  11.000  0.4713 -0.6307  0.3670
  169MOL0     C22685   3.394  11.218  11.101 -0.2669  0.9574 -1.0808
  169MOL0     C22686   3.352  11.239  11.234  0.1233  0.8612 -0.1066
  169MOL0     C22687   3.211  11.239  11.274  0.2627 -0.7533 -0.6179
  169MOL0     O22688   3.176  11.268  11.402  0.8055  0.9141 -0.1434
  169MOL0     C22689   3.056  11.337  11.421 -1.1140  0.8708  0.3305
  169MOL0     C22690   3.051  11.368  11.578 -0.1799 -0.7898  0.0801
  169MOL0     C22691   3.017  11.250  11.668  0.3268 -0.7425 -0.5732
  169MOL0     C22692   2.993  11.312  11.807 -0.2394  0.1322 -0.6789
  169MOL0     C22693   2.940  11.204  11.899 -0.4923 -0.2810  0.2636
  169MOL0     C22694   3.036  11.103  11.958 -0.0554 -0.8124  0.0363
  169MOL0     C22695   3.089  11.151  12.102 -0.6580 -0.8426  0.2496
  169MOL0     C22696   3.215  11.065  12.134 -0.9299  0.2631 -0.4149
  169MOL0     N22697   3.281  11.083  12.261  0.3614  0.1101 -0.3255
  169MOL0     C22698   3.254  11.021  12.386 -0.0138  0.1033  0.1832
  169MOL0     C22699   3.361  11.068  12.469  0.9631  0.8090 -0.5509
  169MOL0     C22700   3.406  11.021  12.614 -0.0346 -0.1159 -0.0899
  169MOL0     C22701   3.499  11.124  12.692 -0.3914  0.3128 -0.0661
  169MOL0     C22702   3.560  11.043  12.822  0.2921  0.2449  1.7166
  169MOL0     C22703   3.453  10.993  12.923 -0.0722 -0.3912 -0.2814
  169MOL0     O22704   3.504  11.005  13.059 -0.0263  1.0655 -0.4591
  169MOL0     C22705   3.555  11.122  13.113 -0.7170 -0.1589  0.1069
  169MOL0     C22706   3.483  11.242  13.099 -0.3555 -0.0635  0.1584
  169MOL0     C22707   3.535  11.357  13.150 -0.9833  0.5874 -0.5872
  169MOL0     C22708   3.445  11.473  13.116 -0.6055 -0.2663  0.1781
  169MOL0     C22709   3.671  11.369  13.200  1.3766 -0.4521 -0.7330
  169MOL0     C22710   3.731  11.495  13.245  0.8713  0.1070 -0.5386
  169MOL0     O22711   3.847  11.479  13.331  0.1861  0.4050  0.1928
  169MOL0     C22712   3.877  11.602  13.394 -0.5289 -0.2549  0.4364
  169MOL0     C22713   3.797  11.668  13.493 -0.5405 -0.3254 -0.4205
  169MOL0     C22714   3.842  11.776  13.566 -0.3615  0.2360  0.4222
  169MOL0     C22715   3.972  11.826  13.533  0.4678 -0.0195  0.5410
  169MOL0     O22716   4.025  11.936  13.595  0.0811  0.5882 -0.3948
  169MOL0     C22717   3.934  12.034  13.641  0.0821  0.1915  0.7176
  169MOL0     C22718   4.013  12.171  13.637  0.1219  0.3427 -0.3385
  169MOL0     C22719   3.920  12.292  13.658 -0.0887  0.7910 -0.3185
  169MOL0     C22720   4.007  12.412  13.658  0.1216  0.6097  0.0518
  169MOL0     C22721   3.923  12.536  13.674 -0.2277  0.0939 -0.2220
  169MOL0     C22722   4.020  12.657  13.683  0.6044 -0.1070  0.3651
  169MOL0     C22723   3.948  12.783  13.706 -0.7639 -0.3161  0.6295
  169MOL0     C22724   4.050  12.901  13.723 -0.1339  0.5013 -0.1299
  169MOL0    Cl22725   3.944  13.040  13.728 -0.3974  0.2079 -0.4418
  169MOL0     C22726   4.044  11.768  13.431 -0.6221  0.1414  0.4432
  169MOL0     C22727   3.999  11.658  13.359 -1.2160  0.0418 -0.4088
  169MOL0     O22728   3.675  11.599  13.202 -0.9285 -0.3888 -0.0819
  169MOL0     C22729   3.742  11.243  13.206 -0.1324 -0.9196 -0.9026
  169MOL0     C22730   3.683  11.124  13.175  1.0870  0.4527 -0.0372
  169MOL0     N22731   3.430  11.155  12.387  0.3366 -0.6476  0.5467
  169MOL0     N22732   3.390  11.161  12.265 -1.0327 -0.0689 -0.2905
  169MOL0     C22733   3.116  11.224  11.171 -1.0657 -0.1433  0.5772
  169MOL0     C22734   3.158  11.203  11.037 -1.2174 -0.9739 -0.7141
  169MOL0     C22735   3.420  11.235  10.651 -0.0169  0.7935 -0.9302
  169MOL0     C22736   3.296  11.192  10.587  0.5281 -0.4894 -0.3834
  169MOL0     C22737   3.289  11.214  10.449 -0.0940 -1.0165  0.2226
  169MOL0     C22738   3.390  11.279  10.380 -1.1038 -0.0093 -0.9262
  169MOL0     O22739   3.367  11.324  10.256 -0.0520  0.0181 -1.0864
  169MOL0     C22740   3.455  11.273  10.153 -0.7427 -0.1734 -0.5781
  169MOL0     C22741   3.397  11.326  10.018  0.2198  0.4235 -0.2579
  169MOL0     C22742   3.492  11.314   9.894  0.6295 -0.1264 -0.3591
  169MOL0     C22743   3.401  11.364   9.779 -1.0413 -0.2520  0.3293
  169MOL0     C22744   3.415  11.273   9.668  0.3613 -0.0031  0.0532
  169MOL0     C22745   3.393  11.201   9.578 -0.0297  0.3441 -0.3561
  169MOL0     C22746   3.513  11.303  10.445 -0.0771  0.2592  1.1203
  169MOL0     C22747   3.534  11.267  10.575 -0.3403 -0.6755 -0.3036
  169MOL0     H22748   3.499  11.222  11.074 -0.4230 -3.4574 -3.1992
  169MOL0     H22749   3.430  11.255  11.308 -0.2302  0.9980  0.2475
  169MOL0     H22750   3.043  11.436  11.375 -2.2083  1.8546  2.5855
  169MOL0     H22751   2.963  11.283  11.398 -0.7937 -0.1848  1.4644
  169MOL0     H22752   3.148  11.400  11.617 -0.7194  2.3561 -0.8793
  169MOL0     H22753   2.993  11.458  11.600  2.2319  0.1450  3.6126
  169MOL0     H22754   2.918  11.209  11.652 -1.4400  3.5203 -2.0234
  169MOL0     H22755   3.101  11.179  11.672 -0.8009 -2.5564 -4.4317
  169MOL0     H22756   3.090  11.344  11.847  1.3941 -4.3183 -0.5375
  169MOL0     H22757   2.926  11.399  11.806  1.0234  1.1834  0.7215
  169MOL0     H22758   2.890  11.258  11.980  0.5567 -0.6125  1.1671
  169MOL0     H22759   2.861  11.149  11.848 -0.2166 -1.2610  0.8634
  169MOL0     H22760   2.988  11.008  11.985 -0.6407  0.2578  3.1614
  169MOL0     H22761   3.118  11.085  11.888  0.8351  1.0020  0.5601
  169MOL0     H22762   3.125  11.254  12.115  0.6797 -1.3489  0.6525
  169MOL0     H22763   3.008  11.131  12.173 -3.3737 -1.0934 -2.7018
  169MOL0     H22764   3.289  11.095  12.058 -0.4420  1.6979  0.5757
  169MOL0     H22765   3.200  10.958  12.117  1.2030  0.3210 -3.5289
  169MOL0     H22766   3.174  10.953  12.416 -0.1539  0.1902  0.0145
  169MOL0     H22767   3.324  11.010  12.685 -0.0329 -2.5678 -0.3804
  169MOL0     H22768   3.460  10.925  12.609  1.3764  0.6864 -3.5208
  169MOL0     H22769   3.439  11.211  12.718  1.0366  1.0365  0.9637
  169MOL0     H22770   3.580  11.159  12.627 -0.9485 -0.4789 -1.2196
  169MOL0     H22771   3.631  11.116  12.861 -1.4375  1.6556  2.3769
  169MOL0     H22772   3.627  10.964  12.788  0.0666  0.9382 -0.4727
  169MOL0     H22773   3.428  10.889  12.898  1.8771 -0.5815 -1.5995
  169MOL0     H22774   3.364  11.055  12.903  0.9069  1.4970  0.9139
  169MOL0     H22775   3.390  11.241  13.043  0.3156 -0.3413 -0.9944
  169MOL0     H22776   3.440  11.548  13.196 -2.4512  1.9186 -1.8345
  169MOL0     H22777   3.485  11.520  13.026  0.3482  1.7466  1.5784
  169MOL0     H22778   3.341  11.449  13.092 -1.0268  2.4792 -1.1254
  169MOL0     H22779   3.707  11.610  13.510 -2.1550  2.0086 -0.5059
  169MOL0     H22780   3.787  11.819  13.649 -0.4264 -0.2550  0.6336
  169MOL0     H22781   3.842  12.059  13.587  0.8794  1.2758 -0.2085
  169MOL0     H22782   3.905  12.025  13.746  0.3107  2.1541  0.9910
  169MOL0     H22783   4.093  12.171  13.712 -1.9776  3.6060  2.1617
  169MOL0     H22784   4.071  12.182  13.544 -0.9593  3.2178 -0.7976
  169MOL0     H22785   3.864  12.281  13.752 -0.6094  1.7931 -0.4990
  169MOL0     H22786   3.854  12.293  13.570 -0.4144 -1.2490 -0.1446
  169MOL0     H22787   4.076  12.401  13.742  1.1649  1.1653 -0.7138
  169MOL0     H22788   4.057  12.404  13.561 -0.9586  0.9144 -0.5480
  169MOL0     H22789   3.870  12.541  13.770  1.4512  2.6045  0.6808
  169MOL0     H22790   3.852  12.554  13.592  1.5120 -0.3427 -1.8820
  169MOL0     H22791   4.088  12.645  13.768  0.8199  3.0287  0.7546
  169MOL0     H22792   4.076  12.668  13.589  0.7355 -0.1717  0.4358
  169MOL0     H22793   3.879  12.772  13.791 -3.8589 -2.6106 -1.9456
  169MOL0     H22794   3.890  12.809  13.618  1.8441  2.4684 -0.4424
  169MOL0     H22795   4.128  12.906  13.647  1.6838 -0.0172  1.6214
  169MOL0     H22796   4.100  12.895  13.820 -0.8954 -1.3726  0.1832
  169MOL0     H22797   4.144  11.804  13.410 -0.6939  1.3769  1.9874
  169MOL0     H22798   4.057  11.599  13.289 -1.8155 -2.7262  1.3049
  169MOL0     H22799   3.846  11.238  13.234 -0.4873 -1.1651  0.4489
  169MOL0     H22800   3.728  11.026  13.193  0.6646  0.3896  0.7203
  169MOL0     H22801   3.012  11.211  11.199 -0.8160 -1.5348  0.9266
  169MOL0     H22802   3.080  11.183  10.964 -3.3926 -1.6289  1.6625
  169MOL0     H22803   3.213  11.161  10.649  0.1632 -2.6021 -1.8130
  169MOL0     H22804   3.200  11.188  10.393  2.0810 -2.7413 -2.7081
  169MOL0     H22805   3.557  11.311  10.160 -1.2765  1.4055 -0.9520
  169MOL0     H22806   3.457  11.164  10.143  5.0876 -0.8381  3.0427
  169MOL0     H22807   3.376  11.432  10.033 -2.9570  0.3943 -3.2986
  169MOL0     H22808   3.301  11.274  10.013  0.9264 -0.9884  0.1040
  169MOL0     H22809   3.527  11.210   9.887  1.8908  0.2730 -0.2915
  169MOL0     H22810   3.587  11.367   9.906  0.9786 -0.9471  0.6838
  169MOL0     H22811   3.442  11.460   9.747 -0.4867 -0.6951 -0.3302
  169MOL0     H22812   3.294  11.362   9.800 -0.9392  0.4522  0.9258
  169MOL0     H22813   3.377  11.117   9.513  0.9998 -1.6048  1.7685
  169MOL0     H22814   3.595  11.356  10.398 -2.2460  2.0205 -0.9047
  169MOL0     H22815   3.623  11.296  10.630 -0.6139  0.3473 -0.3805
  170MOL0     O22816   4.500   9.603   8.659 -0.5072  0.3318 -0.3273
  170MOL0     C22817   4.529   9.532   8.760 -0.0975 -1.2616  0.1273
  170MOL0     O22818   4.634   9.560   8.839 -0.2522  0.3303  0.6850
  170MOL0     C22819   4.706   9.680   8.818  0.3098 -0.3932  0.2464
  170MOL0     C22820   4.674   9.803   8.874  0.8796  0.5231  0.0580
  170MOL0     C22821   4.759   9.912   8.881  0.5314  0.0349 -0.0525
  170MOL0     C22822   4.873   9.910   8.810  0.0043 -0.6688 -0.0476
  170MOL0     O22823   4.946  10.022   8.811 -0.0205 -0.3202 -0.5300
  170MOL0     C22824   5.089   9.995   8.838 -0.6730 -0.3681  0.4583
  170MOL0     C22825   5.166  10.114   8.904 -0.0558 -0.6558  0.5100
  170MOL0     C22826   5.177  10.244   8.812 -0.1746 -0.3195 -0.5213
  170MOL0     C22827   5.268  10.348   8.880  0.1702  0.0330 -0.2265
  170MOL0     C22828   5.332  10.442   8.778 -1.0379 -0.4378  0.7875
  170MOL0     C22829   5.438  10.531   8.837 -0.1803  0.0813  0.9148
  170MOL0     C22830   5.392  10.588   8.967 -0.5066  0.1186 -1.1877
  170MOL0     C22831   5.479  10.709   9.009  0.3262  0.4276 -0.2041
  170MOL0     N22832   5.429  10.750   9.142  0.0358 -1.0331 -0.2925
  170MOL0     C22833   5.312  10.823   9.187  0.1314  1.2367  0.7670
  170MOL0     C22834   5.346  10.873   9.312 -0.0964  0.5782 -0.3838
  170MOL0     C22835   5.270  10.954   9.410  1.0747  0.4179  1.0875
  170MOL0     C22836   5.263  10.913   9.551  0.3552 -0.2792 -0.1478
  170MOL0     C22837   5.201  10.772   9.572 -0.2237  1.2741  0.1644
  170MOL0     C22838   5.193  10.718   9.717  0.2275  0.3578 -0.5177
  170MOL0     O22839   5.097  10.807   9.789 -0.2573 -0.2892 -0.2361
  170MOL0     C22840   5.069  10.789   9.922 -0.4600 -0.2152  0.4204
  170MOL0     C22841   4.982  10.874   9.983  0.0710 -0.8357 -0.0545
  170MOL0     C22842   4.933  10.869  10.118 -0.1540  0.3658 -0.6617
  170MOL0     C22843   4.813  10.940  10.158 -0.7937 -0.6035 -0.4461
  170MOL0     C22844   4.997  10.778  10.204 -0.6669 -0.0184  0.3235
  170MOL0     C22845   4.965  10.781  10.347 -1.2117  0.0903  1.0125
  170MOL0     O22846   4.968  10.902  10.409 -0.4431 -0.0606  0.1212
  170MOL0     C22847   4.985  10.910  10.545 -1.1051  0.5486 -1.1363
  170MOL0     C22848   5.059  10.820  10.623  0.4242  0.2317  0.8520
  170MOL0     C22849   5.075  10.832  10.764  0.1937 -0.3238  0.8193
  170MOL0     C22850   5.008  10.926  10.832 -0.2596  0.3671 -0.5682
  170MOL0     O22851   5.044  10.941  10.964  0.8158  0.0110  0.4482
  170MOL0     C22852   4.958  10.890  11.068  0.0289  0.5862 -0.4948
  170MOL0     C22853   5.004  10.755  11.118 -0.9444  0.4931  0.4879
  170MOL0     C22854   5.072  10.762  11.262 -0.3559  0.4542 -0.5685
  170MOL0     C22855   5.168  10.646  11.295 -0.2666 -0.4296 -0.2165
  170MOL0     C22856   5.235  10.653  11.435 -0.7630  0.1955  1.4368
  170MOL0     C22857   5.290  10.510  11.473 -0.9493 -0.4635 -0.5899
  170MOL0     C22858   5.374  10.510  11.605 -0.2957 -0.0080 -0.0632
  170MOL0     C22859   5.526  10.559  11.590 -0.0576 -0.4836  0.1776
  170MOL0    Cl22860   5.626  10.486  11.464 -0.4914 -0.4467  0.5197
  170MOL0     C22861   4.938  11.022  10.762  0.4496 -0.3998  1.2612
  170MOL0     C22862   4.924  11.019  10.619  0.2269  0.2271 -0.4205
  170MOL0     O22863   4.935  10.669  10.400 -0.5262 -0.4110  0.2340
  170MOL0     C22864   5.108  10.697  10.151 -0.7770  0.1493  0.5242
  170MOL0     C22865   5.129  10.694  10.013 -0.4726 -0.3771  0.4436
  170MOL0     N22866   5.476  10.823   9.340  0.1320  0.3384 -0.0437
  170MOL0     N22867   5.517  10.747   9.243 -0.0822 -0.2719 -0.5922
  170MOL0     C22868   4.902   9.794   8.738  0.3873 -0.2821 -0.4484
  170MOL0     C22869   4.820   9.680   8.739  0.3769  0.6122 -0.8069
  170MOL0     C22870   4.462   9.405   8.781  0.7087 -0.2294 -0.4168
  170MOL0     C22871   4.496   9.328   8.885 -0.5241  0.4367  0.2597
  170MOL0     C22872   4.422   9.213   8.921 -0.4315 -0.6733  0.5226
  170MOL0     C22873   4.321   9.162   8.846 -0.6757 -0.3143  0.3741
  170MOL0     O22874   4.256   9.048   8.890  0.3711  0.5456  0.0594
  170MOL0     C22875   4.273   8.944   8.792  0.6956  0.3903 -0.3163
  170MOL0     C22876   4.186   8.815   8.791  0.0747 -0.4210  0.2269
  170MOL0     C22877   4.210   8.739   8.668  0.8941 -0.1470 -0.5871
  170MOL0     C22878   4.122   8.623   8.643  1.0259  0.3752  0.5095
  170MOL0     C22879   3.981   8.653   8.642  0.7457 -0.5621 -0.1863
  170MOL0     C22880   3.863   8.680   8.662 -0.7478 -0.2870  0.5643
  170MOL0     C22881   4.286   9.242   8.735  0.0193 -0.0064 -0.6683
  170MOL0     C22882   4.356   9.364   8.701  0.4379  0.7444 -0.0075
  170MOL0     H22883   4.582   9.808   8.932  1.0603 -0.1342  0.4155
  170MOL0     H22884   4.733  10.001   8.938 -1.1907  0.7048 -1.7893
  170MOL0     H22885   5.090   9.918   8.916 -0.0875  1.2197  2.0897
  170MOL0     H22886   5.144   9.952   8.754 -1.7983  1.4209 -1.2869
  170MOL0     H22887   5.104  10.135   8.992 -3.9879 -1.0531 -1.9053
  170MOL0     H22888   5.268  10.090   8.935 -0.5805 -2.8975  0.6545
  170MOL0     H22889   5.207  10.210   8.712  0.8543 -2.6855  0.5183
  170MOL0     H22890   5.074  10.281   8.805 -0.6491 -1.6254 -0.8489
  170MOL0     H22891   5.206  10.398   8.955  0.8783  0.0015  0.3962
  170MOL0     H22892   5.346  10.301   8.941  2.2888 -0.8423 -3.3456
  170MOL0     H22893   5.384  10.382   8.703  0.3801  0.1061  1.2900
  170MOL0     H22894   5.261  10.488   8.709  1.7758 -0.2903 -2.2471
  170MOL0     H22895   5.534  10.479   8.842  0.4573  0.4956 -3.3110
  170MOL0     H22896   5.455  10.611   8.764 -1.0036 -1.5296 -1.1515
  170MOL0     H22897   5.286  10.613   8.973 -0.8414 -1.3667  3.8207
  170MOL0     H22898   5.408  10.517   9.049 -1.4877 -1.7830 -2.5532
  170MOL0     H22899   5.467  10.780   8.927 -2.2640 -2.7339 -2.8761
  170MOL0     H22900   5.581  10.674   9.022 -0.5009 -2.1252  0.0204
  170MOL0     H22901   5.217  10.828   9.136  0.4444 -1.5570 -0.2654
  170MOL0     H22902   5.297  11.060   9.397 -2.1579  0.9168 -5.2695
  170MOL0     H22903   5.165  10.959   9.382  1.7749  1.2776 -1.7392
  170MOL0     H22904   5.211  10.990   9.609  0.5889  0.1490 -0.5048
  170MOL0     H22905   5.363  10.911   9.596 -0.6362 -0.2818  2.2502
  170MOL0     H22906   5.249  10.696   9.510 -1.6074  1.1669 -0.8078
  170MOL0     H22907   5.100  10.778   9.530 -1.0874 -0.1395  1.9105
  170MOL0     H22908   5.280  10.713   9.783 -0.5988  0.7664  0.6304
  170MOL0     H22909   5.143  10.621   9.710  0.7032  0.2448 -2.9620
  170MOL0     H22910   4.942  10.949   9.915 -0.7535 -1.7020 -0.5719
  170MOL0     H22911   4.827  11.021  10.231 -2.5596 -1.2441  0.6650
  170MOL0     H22912   4.755  10.972  10.072  0.1819  0.8272 -0.6042
  170MOL0     H22913   4.749  10.872  10.216 -2.1453  1.2827  0.3700
  170MOL0     H22914   5.113  10.752  10.556 -0.5856  1.0904 -0.9142
  170MOL0     H22915   5.130  10.758  10.822  1.8749 -0.1303 -0.4646
  170MOL0     H22916   4.948  10.964  11.148 -2.5110  0.0101 -0.2018
  170MOL0     H22917   4.856  10.882  11.028  0.1605  4.6447 -2.0633
  170MOL0     H22918   4.925  10.680  11.104 -2.9045  2.6487 -0.6851
  170MOL0     H22919   5.084  10.720  11.053 -1.5536  0.6990 -0.3983
  170MOL0     H22920   4.986  10.758  11.330 -1.5551  1.7511 -1.9237
  170MOL0     H22921   5.128  10.856  11.273  3.4660 -1.5448 -1.2596
  170MOL0     H22922   5.109  10.554  11.291  1.2003 -1.3645 -1.0449
  170MOL0     H22923   5.241  10.631  11.216  0.7187  3.3070 -0.1839
  170MOL0     H22924   5.164  10.691  11.509  1.0879 -0.6763  3.8058
  170MOL0     H22925   5.322  10.719  11.430 -0.4836 -0.2621 -0.6403
  170MOL0     H22926   5.203  10.452  11.504  0.5935 -1.5520  2.0206
  170MOL0     H22927   5.348  10.463  11.392 -0.3217  2.2282 -1.8191
  170MOL0     H22928   5.383  10.405  11.636  2.2717 -0.1803 -1.0874
  170MOL0     H22929   5.319  10.571  11.677 -1.0677  0.3037 -0.8931
  170MOL0     H22930   5.569  10.532  11.687  0.4372 -1.2998 -0.2512
  170MOL0     H22931   5.514  10.666  11.571 -1.3716 -0.7876 -0.8360
  170MOL0     H22932   4.889  11.098  10.823  3.2433  3.4894 -0.8992
  170MOL0     H22933   4.860  11.092  10.571 -1.4101 -0.9464 -0.1229
  170MOL0     H22934   5.159  10.631  10.220 -0.2906  0.1868  0.2056
  170MOL0     H22935   5.194  10.621   9.966  1.8337  2.3664 -0.9339
  170MOL0     H22936   4.996   9.792   8.684  2.0957  2.2975  2.1348
  170MOL0     H22937   4.853   9.590   8.687  2.0483  1.4018 -1.1596
  170MOL0     H22938   4.581   9.354   8.948  1.2495  2.7663 -2.7747
  170MOL0     H22939   4.460   9.149   9.000 -1.4753 -2.7278 -0.5456
  170MOL0     H22940   4.272   8.994   8.695  2.1591  1.5631  0.2426
  170MOL0     H22941   4.373   8.901   8.801  1.4506  1.9453 -0.9534
  170MOL0     H22942   4.085   8.857   8.788  1.0730  2.5222  2.3603
  170MOL0     H22943   4.186   8.759   8.885  1.4336  1.1079  1.2084
  170MOL0     H22944   4.312   8.701   8.655  1.2382  0.1792  0.9386
  170MOL0     H22945   4.192   8.801   8.580 -2.2331  0.2141  0.1794
  170MOL0     H22946   4.141   8.542   8.714 -0.7034 -1.1268 -0.6502
  170MOL0     H22947   4.129   8.574   8.546 -0.1964 -0.2351  0.7040
  170MOL0     H22948   3.762   8.702   8.692  0.0202 -0.0143  3.2543
  170MOL0     H22949   4.211   9.215   8.662  0.5396 -0.0588 -1.1919
  170MOL0     H22950   4.306   9.412   8.617  0.4457  3.3181  1.3545
  171MOL0     O22951   1.914   0.356   7.488 -0.4906  0.6134 -0.4750
  171MOL0     C22952   1.863   0.461   7.509 -0.5710 -0.4065  0.1798
  171MOL0     O22953   1.885   0.539   7.610  0.4247 -0.3600 -0.6723
  171MOL0     C22954   2.002   0.541   7.695 -0.0267  0.5769 -0.1763
  171MOL0     C22955   2.007   0.627   7.806  0.1229  0.2043  0.2685
  171MOL0     C22956   2.104   0.616   7.903 -0.6013  0.0665  0.8794
  171MOL0     C22957   2.216   0.528   7.890 -0.0332  0.0230 -0.2834
  171MOL0     O22958   2.305   0.512   7.998 -0.0322  0.1556  0.2586
  171MOL0     C22959   2.426   0.439   7.976 -0.3697  0.3706  0.4257
  171MOL0     C22960   2.408   0.290   8.002  0.3734  1.1464 -0.2059
  171MOL0     C22961   2.391   0.259   8.149 -1.0414  0.2408 -0.2596
  171MOL0     C22962   2.494   0.312   8.244  0.2502  0.7595  0.3258
  171MOL0     C22963   2.643   0.271   8.212 -0.0634  0.8071  0.7053
  171MOL0     C22964   2.731   0.368   8.288 -0.0647  0.4715 -0.1681
  171MOL0     C22965   2.879   0.352   8.252 -0.4956 -0.5532  0.1227
  171MOL0     C22966   2.931   0.438   8.138 -1.0304 -0.8135 -0.1813
  171MOL0     N22967   2.906   0.578   8.161 -0.3547 -0.1882 -0.0046
  171MOL0     C22968   2.801   0.659   8.132  0.0750  0.1156  0.2304
  171MOL0     C22969   2.840   0.781   8.181  0.0246  0.8868  0.2926
  171MOL0     C22970   2.758   0.901   8.191 -0.3568 -0.5144  0.1791
  171MOL0     C22971   2.659   0.889   8.304 -0.1234  0.3485 -0.7250
  171MOL0     C22972   2.570   1.020   8.303  0.6976  0.1833 -0.5554
  171MOL0     C22973   2.509   1.066   8.435 -0.2888 -0.8139  0.2447
  171MOL0     O22974   2.387   0.992   8.466 -0.6685  0.3052  0.0544
  171MOL0     C22975   2.274   0.996   8.387 -0.2008  0.2352 -0.1142
  171MOL0     C22976   2.249   1.097   8.301  0.2396 -0.4913 -0.9649
  171MOL0     C22977   2.126   1.115   8.232 -0.8757 -0.9999  0.1506
  171MOL0     C22978   2.126   1.215   8.114  0.4262  0.5816  0.2225
  171MOL0     C22979   2.030   1.014   8.242  0.0583 -0.0403 -0.5277
  171MOL0     C22980   1.899   1.009   8.163  0.0421 -0.7106  0.0485
  171MOL0     O22981   1.823   0.891   8.180  0.2669 -0.0797 -0.3816
  171MOL0     C22982   1.706   0.872   8.119  0.7903  0.8300  0.9583
  171MOL0     C22983   1.683   0.763   8.037  0.2253 -0.2426  0.6752
  171MOL0     C22984   1.559   0.735   7.973  0.0168 -0.7985  0.2365
  171MOL0     C22985   1.448   0.812   8.010  0.1846  0.4144  0.1707
  171MOL0     O22986   1.317   0.793   7.954  0.6600 -0.5534  0.1111
  171MOL0     C22987   1.289   0.685   7.865 -0.3945  0.2659 -0.7854
  171MOL0     C22988   1.268   0.542   7.934  0.0508 -0.4178  0.3253
  171MOL0     C22989   1.201   0.438   7.840 -0.2295 -0.1286 -0.8360
  171MOL0     C22990   1.301   0.381   7.727  1.1116  0.1618  0.3189
  171MOL0     C22991   1.399   0.278   7.781  0.1059  0.3156 -0.1322
  171MOL0     C22992   1.505   0.227   7.683 -0.2898 -0.4639 -0.4027
  171MOL0     C22993   1.593   0.116   7.735 -0.4818  0.8269  0.1032
  171MOL0     C22994   1.618   0.007   7.634 -0.1499  1.1238 -0.3144
  171MOL0    Cl22995   1.728  -0.115   7.705  0.1906  0.1054  0.1117
  171MOL0     C22996   1.461   0.924   8.095 -0.3587  0.5236  0.5236
  171MOL0     C22997   1.589   0.948   8.152  0.9155 -0.2447  0.5554
  171MOL0     O22998   1.866   1.100   8.091  1.0380 -0.3729  0.3951
  171MOL0     C22999   2.056   0.905   8.330  0.1082  0.2104  0.2693
  171MOL0     C23000   2.180   0.889   8.391 -0.0550  0.7103  0.2627
  171MOL0     N23001   2.963   0.771   8.233  0.2491  0.1083  0.1856
  171MOL0     N23002   3.006   0.660   8.208 -0.1173  0.3286 -0.2057
  171MOL0     C23003   2.221   0.467   7.765 -0.2087  0.1534  0.0608
  171MOL0     C23004   2.119   0.470   7.667  0.4529  0.2390  0.2132
  171MOL0     C23005   1.748   0.496   7.417 -0.3552  0.1033 -0.1386
  171MOL0     C23006   1.724   0.413   7.299 -0.6705  0.5907 -0.3103
  171MOL0     C23007   1.597   0.423   7.233  0.1466 -0.7675  0.3361
  171MOL0     C23008   1.503   0.521   7.267 -0.1465 -0.0671  0.3578
  171MOL0     O23009   1.399   0.517   7.176  0.9072 -0.2536 -0.2582
  171MOL0     C23010   1.287   0.602   7.206 -0.6874 -0.6123  0.2978
  171MOL0     C23011   1.209   0.537   7.323 -0.8060 -1.0271 -0.0687
  171MOL0     C23012   1.144   0.405   7.288  0.2316  0.3352 -0.1723
  171MOL0     C23013   1.037   0.425   7.171  0.2871  1.4744  0.4856
  171MOL0     C23014   0.934   0.512   7.217 -0.0214  0.0244  0.0538
  171MOL0     C23015   0.826   0.564   7.259  0.5956  0.3081  0.7584
  171MOL0     C23016   1.532   0.609   7.373 -0.0230  0.2771  0.3137
  171MOL0     C23017   1.655   0.599   7.446 -0.6932 -0.2462 -0.1377
  171MOL0     H23018   1.916   0.683   7.823 -1.5558 -2.7278  1.7872
  171MOL0     H23019   2.110   0.681   7.990  0.5919  1.8388 -0.4625
  171MOL0     H23020   2.464   0.452   7.874  1.0914  0.1121  0.9058
  171MOL0     H23021   2.511   0.468   8.039  2.5936 -0.4991 -2.8606
  171MOL0     H23022   2.325   0.247   7.944  1.9519 -1.1411 -0.9226
  171MOL0     H23023   2.491   0.235   7.956  1.1750 -0.5764  2.9817
  171MOL0     H23024   2.291   0.293   8.176  0.3372  3.9024  0.7559
  171MOL0     H23025   2.384   0.151   8.163  1.4478  0.1852  1.1411
  171MOL0     H23026   2.486   0.421   8.257 -2.8476  0.5286  1.3686
  171MOL0     H23027   2.478   0.270   8.344  0.4995  1.9989  0.9047
  171MOL0     H23028   2.655   0.167   8.244 -0.3029  0.0812 -1.4097
  171MOL0     H23029   2.650   0.277   8.103  0.1964 -1.9643  0.4753
  171MOL0     H23030   2.688   0.468   8.281 -2.4825 -0.2454  2.5792
  171MOL0     H23031   2.703   0.349   8.392  1.2231 -0.1557  0.0810
  171MOL0     H23032   2.938   0.374   8.341 -1.7466 -1.6921  1.2789
  171MOL0     H23033   2.898   0.247   8.230 -0.7475 -0.3770 -1.0080
  171MOL0     H23034   2.872   0.409   8.051  1.0134 -3.8392 -0.6881
  171MOL0     H23035   3.038   0.421   8.127 -0.6707  0.5981  0.7919
  171MOL0     H23036   2.705   0.631   8.091  0.7742  0.4478 -1.7416
  171MOL0     H23037   2.805   0.999   8.201 -2.9575  0.6445  2.2774
  171MOL0     H23038   2.696   0.907   8.101 -1.1889 -0.4536  0.7400
  171MOL0     H23039   2.711   0.876   8.399  2.2933 -2.6276 -2.2854
  171MOL0     H23040   2.599   0.800   8.284  0.0721  0.2562 -0.9091
  171MOL0     H23041   2.492   0.995   8.231 -0.5595  0.7972  0.5387
  171MOL0     H23042   2.626   1.107   8.267  0.2573  0.7408  0.0787
  171MOL0     H23043   2.481   1.171   8.444 -4.0888 -1.7963  1.9813
  171MOL0     H23044   2.587   1.058   8.512 -0.2611  2.5012  0.7124
  171MOL0     H23045   2.315   1.176   8.267 -0.0026 -0.6075 -1.7302
  171MOL0     H23046   2.215   1.278   8.108  0.5396  0.2450 -3.4402
  171MOL0     H23047   2.120   1.154   8.024  0.0181  1.3567 -0.2915
  171MOL0     H23048   2.032   1.272   8.109  1.0494  1.4980 -2.7804
  171MOL0     H23049   1.764   0.696   8.009  0.4813  0.5528 -0.5920
  171MOL0     H23050   1.563   0.657   7.898 -0.5744 -0.4315 -0.1810
  171MOL0     H23051   1.191   0.697   7.818 -1.5093 -1.1903  1.0154
  171MOL0     H23052   1.366   0.672   7.789  2.0279  0.0934  1.5613
  171MOL0     H23053   1.359   0.503   7.980 -0.4238 -1.3885  0.4592
  171MOL0     H23054   1.199   0.569   8.014 -1.3660 -0.9855 -0.6611
  171MOL0     H23055   1.118   0.495   7.798 -0.0488  1.3806  0.7526
  171MOL0     H23056   1.151   0.366   7.905 -0.3941  0.2675 -0.5236
  171MOL0     H23057   1.244   0.346   7.640  0.8039  0.9802  0.1738
  171MOL0     H23058   1.348   0.463   7.671  0.4729 -0.6341 -1.4864
  171MOL0     H23059   1.342   0.190   7.811  2.7578 -1.7142 -0.6256
  171MOL0     H23060   1.455   0.304   7.872 -0.8385 -4.2365  2.0582
  171MOL0     H23061   1.463   0.205   7.584  1.4531  0.8321 -1.5061
  171MOL0     H23062   1.573   0.308   7.654  0.7724 -1.0231  0.4781
  171MOL0     H23063   1.560   0.071   7.829 -0.1752 -1.5757 -0.8607
  171MOL0     H23064   1.695   0.143   7.761 -0.6872 -1.3714  3.9927
  171MOL0     H23065   1.667   0.062   7.553 -2.3242  1.5981 -1.3583
  171MOL0     H23066   1.526  -0.033   7.592  0.7321 -1.2644 -0.1184
  171MOL0     H23067   1.368   0.978   8.111 -1.2439 -1.2113  1.4502
  171MOL0     H23068   1.610   1.038   8.210  0.6304  0.0824  0.1495
  171MOL0     H23069   1.985   0.825   8.349 -2.5772  1.8548 -2.0242
  171MOL0     H23070   2.218   0.793   8.424  3.6766  1.6453 -0.7236
  171MOL0     H23071   2.309   0.408   7.743 -0.0084  0.8359 -1.0437
  171MOL0     H23072   2.126   0.420   7.571  0.0000  1.6459 -0.5877
  171MOL0     H23073   1.785   0.327   7.274 -1.6108 -0.8008  1.8769
  171MOL0     H23074   1.560   0.359   7.154 -0.0794 -1.1232  0.7278
  171MOL0     H23075   1.322   0.702   7.234 -2.1051  0.0908 -0.3277
  171MOL0     H23076   1.225   0.615   7.116 -1.4737  1.0516  1.0236
  171MOL0     H23077   1.133   0.613   7.342  2.1549  1.8373  1.3583
  171MOL0     H23078   1.260   0.530   7.420 -0.8947 -2.6618 -0.1047
  171MOL0     H23079   1.088   0.366   7.374  1.6622 -1.5516 -0.0180
  171MOL0     H23080   1.220   0.336   7.250  3.0303  3.8491 -1.4756
  171MOL0     H23081   0.981   0.333   7.149  1.4391  1.1663 -1.4261
  171MOL0     H23082   1.083   0.437   7.073  0.3858 -3.2562 -0.2995
  171MOL0     H23083   0.736   0.608   7.295  1.3020  1.7810  0.8160
  171MOL0     H23084   1.452   0.670   7.413 -0.7073 -2.5595  3.8493
  171MOL0     H23085   1.658   0.675   7.524 -1.9604  0.2695 -0.5608
  172MOL0     O23086   2.175  11.473   8.409 -0.1396  0.2051 -0.5921
  172MOL0     C23087   2.077  11.476   8.486 -0.0263  0.4827  0.8752
  172MOL0     O23088   2.062  11.561   8.589 -0.7348 -0.8286 -0.0310
  172MOL0     C23089   2.166  11.644   8.623  0.6364  0.5369 -0.4706
  172MOL0     C23090   2.242  11.608   8.738  0.3481 -0.1739 -0.5982
  172MOL0     C23091   2.330  11.704   8.790 -0.6392  0.0299  0.2197
  172MOL0     C23092   2.371  11.819   8.719 -0.4564  0.9723  1.1668
  172MOL0     O23093   2.461  11.910   8.763 -0.6995  0.0590  0.0340
  172MOL0     C23094   2.528  11.896   8.890 -0.3912 -0.4292 -0.1894
  172MOL0     C23095   2.650  11.985   8.888 -0.2767 -1.1007 -0.6303
  172MOL0     C23096   2.735  11.945   9.007 -0.0173 -0.9195 -0.2634
  172MOL0     C23097   2.844  12.044   9.022  0.7849 -0.0268  0.1957
  172MOL0     C23098   2.787  12.180   9.078  0.2511  0.4469 -0.2362
  172MOL0     C23099   2.900  12.260   9.145 -0.2404  0.5269 -0.5385
  172MOL0     C23100   2.839  12.396   9.189  0.5244  0.7297 -0.0013
  172MOL0     C23101   2.938  12.505   9.157 -0.3693  0.5218 -0.2310
  172MOL0     N23102   3.074  12.487   9.205 -0.4872  0.0857  0.0633
  172MOL0     C23103   3.180  12.433   9.135 -0.2169  0.1582 -0.5032
  172MOL0     C23104   3.293  12.456   9.205 -0.6949 -0.2090  0.8040
  172MOL0     C23105   3.435  12.437   9.151  0.5802  1.0175 -0.8766
  172MOL0     C23106   3.530  12.539   9.213  0.8104 -0.2902  0.4288
  172MOL0     C23107   3.681  12.499   9.230 -0.5870  0.6446  0.5737
  172MOL0     C23108   3.727  12.514   9.082  0.5437 -0.4188 -0.7585
  172MOL0     O23109   3.846  12.437   9.067 -1.0146 -0.9304 -0.3805
  172MOL0     C23110   3.917  12.438   8.946 -0.1814  0.6157 -1.8445
  172MOL0     C23111   4.045  12.384   8.952 -0.2668  0.2762 -0.8018
  172MOL0     C23112   4.123  12.377   8.831 -0.2327 -0.0022  0.4505
  172MOL0     C23113   4.252  12.286   8.835  0.0232 -0.1654  0.1368
  172MOL0     C23114   4.075  12.454   8.719 -0.3333 -0.0001  0.1187
  172MOL0     C23115   4.154  12.473   8.596  0.8536  0.2752  0.3233
  172MOL0     O23116   4.120  12.589   8.532 -0.3472 -0.1101 -0.0640
  172MOL0     C23117   4.220  12.638   8.463 -0.9677  0.0945  1.0599
  172MOL0     C23118   4.326  12.689   8.538 -0.1900 -0.7263  0.1977
  172MOL0     C23119   4.439  12.728   8.465 -0.2934  0.0551 -0.7174
  172MOL0     C23120   4.452  12.715   8.329  0.7364  0.0291 -0.1194
  172MOL0     O23121   4.574  12.751   8.287 -1.0540  0.0369  0.1394
  172MOL0     C23122   4.583  12.818   8.167  0.8675  0.4754 -0.1287
  172MOL0     C23123   4.722  12.863   8.127 -0.5378  0.1439  0.6225
  172MOL0     C23124   4.793  12.964   8.209  0.1955 -0.7765  0.7692
  172MOL0     C23125   4.729  13.101   8.189  0.4042  0.4940 -0.5472
  172MOL0     C23126   4.783  13.215   8.276 -0.5227 -0.6497 -0.0962
  172MOL0     C23127   4.928  13.245   8.246  0.2112 -0.4201 -0.3314
  172MOL0     C23128   4.986  13.345   8.347 -0.3806  0.0999  0.1005
  172MOL0     C23129   5.128  13.386   8.311 -0.2505  1.2640 -0.1236
  172MOL0    Cl23130   5.177  13.498   8.439 -0.0620  0.4346 -0.8078
  172MOL0     C23131   4.349  12.658   8.246  0.0378  0.3972 -0.2214
  172MOL0     C23132   4.229  12.623   8.317  0.2711  0.2453  0.0412
  172MOL0     O23133   4.237  12.390   8.557  0.6226 -0.9077 -0.1825
  172MOL0     C23134   3.959  12.524   8.725 -0.7472 -0.8594 -1.3629
  172MOL0     C23135   3.886  12.516   8.845  0.3181 -0.5792 -0.1923
  172MOL0     N23136   3.241  12.512   9.326 -0.1716  0.2880  0.3099
  172MOL0     N23137   3.115  12.532   9.327  0.7794  0.9423 -0.5317
  172MOL0     C23138   2.303  11.853   8.599  0.2039  0.7567  0.3429
  172MOL0     C23139   2.204  11.763   8.550  0.7832  0.4645 -0.0490
  172MOL0     C23140   1.957  11.391   8.458 -0.3785 -0.0043 -0.0374
  172MOL0     C23141   1.835  11.421   8.523 -0.1337 -0.3110  0.7220
  172MOL0     C23142   1.729  11.332   8.519  0.6066  0.0908 -0.6071
  172MOL0     C23143   1.743  11.219   8.428 -0.0708 -0.1619  1.0007
  172MOL0     O23144   1.631  11.148   8.414 -0.3898 -0.0786 -0.2632
  172MOL0     C23145   1.662  11.005   8.413 -0.9452  0.5278 -0.7454
  172MOL0     C23146   1.534  10.923   8.409 -0.6450  0.8192  0.9331
  172MOL0     C23147   1.552  10.768   8.376  0.5174 -0.0411 -0.2870
  172MOL0     C23148   1.592  10.688   8.503 -0.4260  0.9413  0.4154
  172MOL0     C23149   1.489  10.628   8.584 -0.2061 -0.0728 -0.4673
  172MOL0     C23150   1.416  10.580   8.670 -0.8770 -0.7285  0.3104
  172MOL0     C23151   1.861  11.206   8.354 -0.2226  1.3219  1.2030
  172MOL0     C23152   1.961  11.290   8.376  0.4693 -1.1995  0.4359
  172MOL0     H23153   2.227  11.518   8.797  2.8614  0.3797  1.0210
  172MOL0     H23154   2.379  11.673   8.882 -0.3729 -1.3810 -0.3785
  172MOL0     H23155   2.477  11.932   8.980  2.2959  0.2155  1.1958
  172MOL0     H23156   2.563  11.794   8.904 -1.5265 -0.6744  1.0499
  172MOL0     H23157   2.711  11.958   8.802 -1.5903 -0.9608 -1.6460
  172MOL0     H23158   2.603  12.084   8.889  3.2880  0.7438 -0.0987
  172MOL0     H23159   2.675  11.936   9.098 -2.5515 -2.0096 -1.9140
  172MOL0     H23160   2.779  11.847   8.987 -0.9152 -1.1171 -1.3958
  172MOL0     H23161   2.917  12.006   9.093 -1.1415  0.1438  2.3837
  172MOL0     H23162   2.888  12.063   8.924  1.7718  0.3033  0.6937
  172MOL0     H23163   2.735  12.231   8.997 -0.2310 -2.0062 -1.5689
  172MOL0     H23164   2.718  12.161   9.160  0.3670 -0.7152 -0.3955
  172MOL0     H23165   2.947  12.204   9.227  1.3736  1.0794 -1.0542
  172MOL0     H23166   2.984  12.272   9.076  2.0437 -2.5191  1.4115
  172MOL0     H23167   2.752  12.422   9.127  0.7398  2.3272  0.3260
  172MOL0     H23168   2.814  12.392   9.296 -2.3788  1.5870 -0.5342
  172MOL0     H23169   2.907  12.603   9.193 -0.4007 -0.2271  1.9354
  172MOL0     H23170   2.932  12.508   9.048 -0.6052 -0.6625 -0.2710
  172MOL0     H23171   3.174  12.384   9.038 -0.6381 -3.3276  1.1217
  172MOL0     H23172   3.465  12.335   9.179 -0.6538  1.1978  1.3674
  172MOL0     H23173   3.440  12.431   9.042  1.2659  0.9785 -0.8445
  172MOL0     H23174   3.485  12.552   9.312  1.4556 -0.8734  0.8107
  172MOL0     H23175   3.525  12.637   9.164 -3.4948  1.3684  3.5379
  172MOL0     H23176   3.668  12.391   9.246  1.8209  0.4836  1.7936
  172MOL0     H23177   3.739  12.555   9.303  0.8491 -2.4007  1.9781
  172MOL0     H23178   3.750  12.620   9.066  0.4628  0.2887  2.8485
  172MOL0     H23179   3.656  12.471   9.011 -0.1764 -0.2500 -0.1493
  172MOL0     H23180   4.071  12.334   9.045 -1.5659  2.3008  0.7310
  172MOL0     H23181   4.339  12.335   8.791 -1.7434  0.9913 -2.2904
  172MOL0     H23182   4.257  12.243   8.936  1.4581 -1.5804 -0.5016
  172MOL0     H23183   4.236  12.199   8.771 -0.1274 -2.1907  2.7587
  172MOL0     H23184   4.323  12.688   8.647  1.8759 -0.2630  0.2970
  172MOL0     H23185   4.525  12.767   8.519  0.6455 -0.2434 -1.9501
  172MOL0     H23186   4.565  12.748   8.085  2.4918  0.4509 -0.4871
  172MOL0     H23187   4.506  12.896   8.165  0.3745  0.3522  4.2602
  172MOL0     H23188   4.788  12.777   8.112 -2.0729 -1.2157  1.2593
  172MOL0     H23189   4.723  12.893   8.022 -2.5068 -2.8550 -0.4090
  172MOL0     H23190   4.897  12.972   8.176 -0.1894 -0.7946 -0.5369
  172MOL0     H23191   4.804  12.937   8.314  3.5894  1.1631  1.0551
  172MOL0     H23192   4.737  13.134   8.085 -0.4564 -3.1185 -1.8687
  172MOL0     H23193   4.623  13.087   8.211  0.5601 -1.6681 -0.9623
  172MOL0     H23194   4.782  13.187   8.381  2.7088  0.4019  0.3182
  172MOL0     H23195   4.716  13.301   8.267  0.4296  0.5768  3.2247
  172MOL0     H23196   4.996  13.159   8.253  1.8413  0.8828  0.5306
  172MOL0     H23197   4.927  13.280   8.142  1.6128 -0.4872 -0.3814
  172MOL0     H23198   4.983  13.289   8.441 -0.4273  2.4620  1.5840
  172MOL0     H23199   4.926  13.436   8.349  2.1600  2.1304 -3.5173
  172MOL0     H23200   5.132  13.434   8.213 -2.5142 -2.4708 -2.2892
  172MOL0     H23201   5.196  13.300   8.314  1.7619  2.7985  2.1687
  172MOL0     H23202   4.357  12.651   8.138 -0.8018 -1.3053 -0.2099
  172MOL0     H23203   4.144  12.581   8.263 -0.1437  1.9777 -0.7393
  172MOL0     H23204   3.916  12.571   8.637  0.6666  0.0188 -1.6128
  172MOL0     H23205   3.789  12.564   8.843  2.1502  3.5791 -0.3254
  172MOL0     H23206   2.333  11.944   8.548 -0.1324  2.2298  2.6462
  172MOL0     H23207   2.143  11.781   8.462  1.0368  1.1680 -0.0870
  172MOL0     H23208   1.827  11.512   8.582  1.6722  0.7376 -0.5254
  172MOL0     H23209   1.645  11.351   8.586 -1.6799 -2.0617 -2.6605
  172MOL0     H23210   1.723  10.978   8.327  0.8450 -1.2386  0.9541
  172MOL0     H23211   1.725  10.987   8.501 -2.6248  2.0475  0.8623
  172MOL0     H23212   1.477  10.970   8.328  1.6213 -1.3840 -2.1701
  172MOL0     H23213   1.478  10.935   8.502 -1.6395 -1.1270  0.6559
  172MOL0     H23214   1.618  10.755   8.290 -2.6214 -2.2635 -2.6097
  172MOL0     H23215   1.463  10.719   8.334  1.8561 -2.5758 -0.3592
  172MOL0     H23216   1.650  10.743   8.577  1.0131 -0.9263  0.7549
  172MOL0     H23217   1.646  10.601   8.465 -1.6592  0.4068 -0.1662
  172MOL0     H23218   1.331  10.553   8.730 -1.6217 -0.9239 -0.7902
  172MOL0     H23219   1.859  11.141   8.267  0.1994  1.9396  0.7261
  172MOL0     H23220   2.050  11.281   8.314  0.5196  3.2035 -0.4102
  173MOL0     O23221   6.280   6.366   9.492 -0.1738  0.1228  0.0205
  173MOL0     C23222   6.393   6.321   9.482  0.2716  0.2610 -0.1483
  173MOL0     O23223   6.449   6.226   9.561  0.5058 -0.7304 -0.0352
  173MOL0     C23224   6.373   6.130   9.625 -0.6092 -0.2631  1.0973
  173MOL0     C23225   6.275   6.053   9.560  0.1999 -0.9376  0.6465
  173MOL0     C23226   6.180   5.973   9.628 -0.2348  0.2235 -0.1159
  173MOL0     C23227   6.198   5.955   9.763  0.9729 -0.0017  0.9022
  173MOL0     O23228   6.132   5.846   9.823  0.5465  0.5143  0.5409
  173MOL0     C23229   5.990   5.853   9.844  0.8316  0.2367  0.2850
  173MOL0     C23230   5.954   5.831   9.990  0.2691 -0.8440 -0.1662
  173MOL0     C23231   5.924   5.960  10.081  0.3033 -1.2724  0.5663
  173MOL0     C23232   6.058   6.052  10.102 -0.9461 -0.0851 -0.8803
  173MOL0     C23233   6.152   6.014  10.217  0.0696  0.1511  0.4458
  173MOL0     C23234   6.286   6.097  10.216  0.1801  0.3346  0.1352
  173MOL0     C23235   6.352   6.115  10.347 -1.3091 -0.3120 -1.2289
  173MOL0     C23236   6.298   6.245  10.415  0.2900  0.4377  0.1607
  173MOL0     N23237   6.316   6.244  10.559 -0.4609  0.0507  0.1618
  173MOL0     C23238   6.222   6.186  10.646 -0.8572  0.0797 -0.1865
  173MOL0     C23239   6.247   6.230  10.768 -0.8103  0.2228 -0.1198
  173MOL0     C23240   6.191   6.182  10.892  0.0646  1.7007 -0.0576
  173MOL0     C23241   6.124   6.048  10.876  0.1105  1.3890 -0.2680
  173MOL0     C23242   5.973   6.039  10.820 -0.3362  0.0890 -0.2870
  173MOL0     C23243   5.858   6.068  10.916  0.3424  0.7065 -0.6853
  173MOL0     O23244   5.733   6.053  10.848 -0.3276 -0.0843 -0.2786
  173MOL0     C23245   5.666   6.179  10.826  1.0004  1.1726  0.0937
  173MOL0     C23246   5.679   6.241  10.711  0.0985 -0.6962  0.2771
  173MOL0     C23247   5.618   6.364  10.682  1.4409  0.0587  0.0806
  173MOL0     C23248   5.654   6.426  10.545 -0.5869  0.3863  0.2938
  173MOL0     C23249   5.534   6.428  10.777  0.8503 -0.6745 -0.7101
  173MOL0     C23250   5.484   6.574  10.762  0.1547  0.7369  0.5956
  173MOL0     O23251   5.410   6.622  10.862 -0.2801  0.4227  0.2393
  173MOL0     C23252   5.349   6.741  10.844 -0.1257  0.3436 -0.7575
  173MOL0     C23253   5.213   6.733  10.854 -0.1844 -0.5709  0.7374
  173MOL0     C23254   5.134   6.848  10.851 -0.4983  0.3435 -0.1464
  173MOL0     C23255   5.199   6.973  10.845 -0.2019 -0.3657 -0.1993
  173MOL0     O23256   5.128   7.087  10.857  1.0964 -0.4757 -0.3734
  173MOL0     C23257   5.128   7.172  10.747 -0.0151  0.2680  0.2611
  173MOL0     C23258   5.010   7.123  10.662 -0.2055  0.5487 -0.7881
  173MOL0     C23259   4.876   7.162  10.737 -1.1144  0.8673 -0.5856
  173MOL0     C23260   4.745   7.129  10.661 -0.1788  1.5357  0.2264
  173MOL0     C23261   4.713   6.971  10.638 -0.5355 -0.5638 -0.7004
  173MOL0     C23262   4.679   6.881  10.759 -0.8582  0.8680  0.2804
  173MOL0     C23263   4.611   6.757  10.718 -0.7936  0.0031 -0.6569
  173MOL0     C23264   4.570   6.641  10.827  0.0585  0.5621 -0.6007
  173MOL0    Cl23265   4.471   6.505  10.768 -0.1935  0.1074  0.2249
  173MOL0     C23266   5.341   6.977  10.831  0.0397  0.1001 -0.4195
  173MOL0     C23267   5.416   6.860  10.838 -0.6060 -0.8028 -0.5060
  173MOL0     O23268   5.516   6.632  10.662  0.5318  0.5811  0.4582
  173MOL0     C23269   5.512   6.364  10.893 -0.2927 -0.0469 -0.7359
  173MOL0     C23270   5.582   6.244  10.931  0.2506 -0.8268  0.3378
  173MOL0     N23271   6.346   6.323  10.760  0.0206 -0.1474 -1.1476
  173MOL0     N23272   6.389   6.330  10.639 -0.3542  0.5901  0.4778
  173MOL0     C23273   6.316   6.009   9.822 -0.2335 -1.0907 -0.6887
  173MOL0     C23274   6.399   6.100   9.756 -0.2643  0.1876  0.2027
  173MOL0     C23275   6.480   6.363   9.374 -0.1296  0.4200  0.8503
  173MOL0     C23276   6.595   6.282   9.349 -0.3187  0.3924 -0.3330
  173MOL0     C23277   6.688   6.320   9.250  0.6585  0.0054 -0.5274
  173MOL0     C23278   6.674   6.442   9.180  0.4122  0.1807 -0.3995
  173MOL0     O23279   6.763   6.479   9.085  0.6560 -0.0450 -0.2089
  173MOL0     C23280   6.812   6.380   8.991 -0.1992 -0.9053  0.8005
  173MOL0     C23281   6.722   6.369   8.869  0.3551 -0.1629  0.3407
  173MOL0     C23282   6.740   6.239   8.795 -0.6080  0.4199 -0.3678
  173MOL0     C23283   6.874   6.238   8.707  0.5055 -0.2921 -0.7094
  173MOL0     C23284   6.899   6.117   8.640 -0.4341  0.0923  0.3427
  173MOL0     C23285   6.905   6.015   8.575  0.8142 -0.5486 -0.2945
  173MOL0     C23286   6.567   6.525   9.224 -1.0202 -0.1089  0.8970
  173MOL0     C23287   6.468   6.495   9.322  0.6719  0.6379  1.4145
  173MOL0     H23288   6.267   6.064   9.452  1.4811 -3.4472  0.2299
  173MOL0     H23289   6.107   5.911   9.578 -0.3354 -0.5976  0.9992
  173MOL0     H23290   5.932   5.930   9.792 -0.0877 -0.4157  0.3236
  173MOL0     H23291   5.949   5.759   9.806  1.0528 -1.4487  3.8182
  173MOL0     H23292   5.864   5.769   9.992 -1.4155  1.2947 -2.5485
  173MOL0     H23293   6.028   5.777  10.049 -0.0188 -1.3892 -0.2994
  173MOL0     H23294   5.848   6.026  10.038  1.8557  0.2285  0.0160
  173MOL0     H23295   5.884   5.942  10.181 -1.0016  2.3973  0.8647
  173MOL0     H23296   6.114   6.060  10.008 -1.2008  2.3610 -0.8939
  173MOL0     H23297   6.018   6.152  10.120 -2.7581 -0.5694 -1.9913
  173MOL0     H23298   6.093   6.024  10.308  1.0258  2.2514  0.9032
  173MOL0     H23299   6.171   5.907  10.223 -0.5329  0.1211  3.1044
  173MOL0     H23300   6.363   6.041  10.162 -0.5101 -0.3663 -0.1500
  173MOL0     H23301   6.267   6.184  10.153  0.8121 -1.7231 -3.1592
  173MOL0     H23302   6.318   6.036  10.415 -1.2209  0.7304  0.0728
  173MOL0     H23303   6.461   6.111  10.344 -1.1050  2.2484  0.0678
  173MOL0     H23304   6.194   6.264  10.389 -0.2792  3.5522  3.8329
  173MOL0     H23305   6.351   6.334  10.380 -0.8286  0.9705 -0.1895
  173MOL0     H23306   6.151   6.108  10.622  2.5899 -3.5007  0.2039
  173MOL0     H23307   6.271   6.167  10.966 -1.5425  1.7468  1.7728
  173MOL0     H23308   6.122   6.248  10.946  1.5181  1.1736  2.6712
  173MOL0     H23309   6.118   6.000  10.974  0.5513  0.3898 -0.7133
  173MOL0     H23310   6.192   5.994  10.810 -0.6262 -0.0472  0.1212
  173MOL0     H23311   5.960   5.938  10.778 -1.5733 -0.8742  2.2162
  173MOL0     H23312   5.958   6.100  10.730 -2.0602  0.0641 -0.0633
  173MOL0     H23313   5.879   6.167  10.956  1.2872  0.7654 -1.3093
  173MOL0     H23314   5.871   5.993  10.995  2.5866 -0.6524 -2.2307
  173MOL0     H23315   5.747   6.201  10.637 -1.7191  0.1354 -1.9651
  173MOL0     H23316   5.716   6.368  10.476  2.6347  1.8585  1.7651
  173MOL0     H23317   5.565   6.438  10.481  1.1837  4.3886 -1.7556
  173MOL0     H23318   5.712   6.518  10.545 -2.1543  1.4240 -0.2137
  173MOL0     H23319   5.163   6.637  10.857 -0.0793 -0.7023 -1.0983
  173MOL0     H23320   5.026   6.842  10.863 -0.6406 -3.5260 -1.7734
  173MOL0     H23321   5.103   7.271  10.785 -1.4974 -0.3649  1.0243
  173MOL0     H23322   5.224   7.184  10.696  0.5264 -2.9632  0.3180
  173MOL0     H23323   5.006   7.173  10.565  0.1643 -0.9461 -1.6120
  173MOL0     H23324   5.020   7.014  10.660 -0.4469  0.4694  0.7911
  173MOL0     H23325   4.889   7.268  10.760  0.2007  0.6955 -0.4529
  173MOL0     H23326   4.883   7.113  10.834 -0.2554  2.1683  0.0386
  173MOL0     H23327   4.655   7.165  10.712 -0.1285 -0.8868  2.2753
  173MOL0     H23328   4.748   7.163  10.558  2.8029 -0.6318 -0.5394
  173MOL0     H23329   4.804   6.937  10.587  1.5537  3.3508  0.0517
  173MOL0     H23330   4.632   6.959  10.565  0.0721  0.9877 -1.6889
  173MOL0     H23331   4.780   6.860  10.794  0.0579  0.0395 -2.5879
  173MOL0     H23332   4.604   6.938  10.814 -1.0099 -0.9417  2.1017
  173MOL0     H23333   4.681   6.714  10.645 -0.7172 -1.5137  0.2586
  173MOL0     H23334   4.527   6.775  10.650 -0.9031  2.2483  0.0099
  173MOL0     H23335   4.521   6.693  10.911 -0.3514  1.4727 -1.3870
  173MOL0     H23336   4.661   6.600  10.872 -0.6424 -1.2052 -0.7303
  173MOL0     H23337   5.395   7.071  10.837  0.1022 -0.0324  1.9555
  173MOL0     H23338   5.523   6.846  10.823 -0.5284  1.0984 -2.2418
  173MOL0     H23339   5.445   6.399  10.972  2.1942  5.1363 -0.4939
  173MOL0     H23340   5.565   6.199  11.028 -2.2944  1.6565  1.1507
  173MOL0     H23341   6.339   5.969   9.920 -3.3459 -0.1122  0.5586
  173MOL0     H23342   6.491   6.147   9.790 -0.9978  1.3073  0.7324
  173MOL0     H23343   6.614   6.191   9.404  1.6543 -0.1350 -1.7863
  173MOL0     H23344   6.771   6.251   9.241  2.3581  1.4740  2.3057
  173MOL0     H23345   6.915   6.409   8.966  1.0455 -0.6414  5.4447
  173MOL0     H23346   6.823   6.282   9.039 -0.6123  0.4744  3.9361
  173MOL0     H23347   6.748   6.456   8.808 -2.2415  1.4712  1.4013
  173MOL0     H23348   6.618   6.377   8.901 -0.2456 -2.7030 -0.7206
  173MOL0     H23349   6.656   6.222   8.727 -0.6123  1.3851 -0.6060
  173MOL0     H23350   6.745   6.149   8.857 -2.1791  0.5175 -0.0678
  173MOL0     H23351   6.953   6.258   8.779 -0.0815 -1.6326  0.3346
  173MOL0     H23352   6.860   6.316   8.631  0.7925 -1.1068 -1.6220
  173MOL0     H23353   6.890   5.929   8.513 -0.1756  1.3109 -2.7891
  173MOL0     H23354   6.561   6.609   9.156 -0.3679 -1.6294 -1.1538
  173MOL0     H23355   6.389   6.563   9.352 -0.2509  0.8005 -1.1411
  174MOL0     O23356   8.694   7.892   3.446  0.6215 -0.5077 -0.7398
  174MOL0     C23357   8.753   7.796   3.483 -0.5815 -0.6519 -0.3066
  174MOL0     O23358   8.746   7.747   3.604 -0.5612  0.9403 -0.4222
  174MOL0     C23359   8.682   7.819   3.701 -0.5727  0.3452 -0.5646
  174MOL0     C23360   8.741   7.936   3.750 -0.4587  0.7446  0.8555
  174MOL0     C23361   8.670   8.020   3.838 -0.9702  0.1701  0.0888
  174MOL0     C23362   8.552   7.976   3.908 -0.0683 -1.1924 -0.0693
  174MOL0     O23363   8.504   8.065   4.004  0.1616  1.4706  0.3057
  174MOL0     C23364   8.400   8.010   4.086 -0.1178 -0.1038 -0.6156
  174MOL0     C23365   8.346   8.114   4.187 -0.6778  0.3566 -0.1925
  174MOL0     C23366   8.230   8.044   4.268 -0.4472 -0.6377  0.3981
  174MOL0     C23367   8.187   8.148   4.375 -0.0102 -0.7780 -0.8775
  174MOL0     C23368   8.141   8.074   4.511 -0.0893  0.5762 -0.4989
  174MOL0     C23369   8.102   8.187   4.615 -0.1628 -0.0681  0.0237
  174MOL0     C23370   7.976   8.256   4.566 -0.4134 -0.0460 -1.1032
  174MOL0     C23371   7.905   8.352   4.672 -0.3553  0.2499  0.4282
  174MOL0     N23372   7.819   8.455   4.615  0.4762 -0.5712  0.3455
  174MOL0     C23373   7.716   8.427   4.533 -0.5831  0.0775 -0.1143
  174MOL0     C23374   7.665   8.546   4.488  0.0636 -0.2178  0.0445
  174MOL0     C23375   7.536   8.577   4.414 -0.7741  0.0898  0.0419
  174MOL0     C23376   7.462   8.705   4.449 -0.5065 -1.4456  0.2815
  174MOL0     C23377   7.349   8.679   4.558  0.0507  1.0029  0.1692
  174MOL0     C23378   7.270   8.806   4.595 -0.2568 -0.3904  0.9980
  174MOL0     O23379   7.161   8.772   4.679  0.7788 -0.6599  0.2152
  174MOL0     C23380   7.069   8.873   4.714 -0.1850  0.4258 -0.0831
  174MOL0     C23381   7.068   9.011   4.683  0.9677 -0.2339  0.2492
  174MOL0     C23382   6.963   9.096   4.724  0.2977 -0.5236 -0.5555
  174MOL0     C23383   6.976   9.240   4.688 -0.0188 -0.5184 -0.5245
  174MOL0     C23384   6.856   9.048   4.806 -1.2731 -0.7204  0.4917
  174MOL0     C23385   6.739   9.129   4.853  0.1894  0.2620  0.0491
  174MOL0     O23386   6.672   9.090   4.956  0.4667  1.1430  0.2730
  174MOL0     C23387   6.594   9.183   5.014  0.3549  0.3977  0.3998
  174MOL0     C23388   6.632   9.295   5.087 -0.2920  0.3293  0.0415
  174MOL0     C23389   6.530   9.376   5.141  0.5565 -0.3340  0.2882
  174MOL0     C23390   6.393   9.339   5.131  0.0539 -0.7397  0.6396
  174MOL0     O23391   6.287   9.409   5.184  0.2682  0.2006  0.5963
  174MOL0     C23392   6.312   9.426   5.324  0.4909  0.8605  0.0517
  174MOL0     C23393   6.179   9.419   5.400 -0.0816 -0.5233 -0.5638
  174MOL0     C23394   6.086   9.532   5.380  0.6997 -0.0824 -0.5664
  174MOL0     C23395   5.972   9.545   5.488  0.2948  0.3324  0.3292
  174MOL0     C23396   5.857   9.637   5.454  0.5612  0.2280  0.3571
  174MOL0     C23397   5.795   9.595   5.314 -0.4089 -0.3054 -0.1871
  174MOL0     C23398   5.649   9.645   5.303  1.5345  0.1258 -0.1497
  174MOL0     C23399   5.635   9.796   5.258 -0.3496 -0.4838  0.3618
  174MOL0    Cl23400   5.478   9.850   5.332  0.0427  0.3133 -0.1327
  174MOL0     C23401   6.358   9.227   5.059  0.5390 -0.8349 -0.8531
  174MOL0     C23402   6.460   9.146   5.003  0.8007 -0.0705 -0.5955
  174MOL0     O23403   6.710   9.227   4.788  0.3297 -0.0968 -0.4000
  174MOL0     C23404   6.871   8.913   4.839 -0.2688 -0.4252 -0.0622
  174MOL0     C23405   6.973   8.830   4.792  0.2666  0.2757 -0.2002
  174MOL0     N23406   7.747   8.643   4.534 -0.1509 -0.1661 -0.3051
  174MOL0     N23407   7.843   8.594   4.618  0.6037 -0.5869 -0.1225
  174MOL0     C23408   8.501   7.852   3.878 -0.0328  0.1409  1.2148
  174MOL0     C23409   8.570   7.774   3.771  0.3140 -0.3828 -0.7252
  174MOL0     C23410   8.811   7.712   3.379  1.0144 -0.0199 -0.3953
  174MOL0     C23411   8.801   7.738   3.244  0.0523  0.8148  0.2076
  174MOL0     C23412   8.844   7.642   3.143 -0.3034 -0.2025 -0.2704
  174MOL0     C23413   8.903   7.523   3.185  0.3230 -0.0130 -0.3594
  174MOL0     O23414   8.938   7.425   3.106  0.2976  0.1037  0.3693
  174MOL0     C23415   8.933   7.434   2.963 -0.7587 -0.3482 -0.7437
  174MOL0     C23416   8.992   7.310   2.893  0.2015 -0.0750  0.5569
  174MOL0     C23417   9.012   7.327   2.742 -0.3474  0.3575  1.2422
  174MOL0     C23418   8.889   7.326   2.668  0.6610  0.0684  0.9436
  174MOL0     C23419   8.923   7.352   2.521  0.1692 -0.3142  1.1626
  174MOL0     C23420   8.924   7.379   2.407  0.1603  0.1198  0.6282
  174MOL0     C23421   8.909   7.493   3.320 -0.4098 -0.4141 -0.8562
  174MOL0     C23422   8.868   7.585   3.414  0.3517  0.5351 -0.6230
  174MOL0     H23423   8.819   7.980   3.689 -1.2935  0.6840 -0.2942
  174MOL0     H23424   8.708   8.118   3.865 -0.0010  0.4494 -2.0874
  174MOL0     H23425   8.316   7.969   4.030  0.4376 -2.1541 -0.0503
  174MOL0     H23426   8.442   7.923   4.139  0.6634  0.5602 -0.1091
  174MOL0     H23427   8.429   8.146   4.251 -0.9834  0.8125 -0.0176
  174MOL0     H23428   8.303   8.197   4.130  0.9481  1.7276  0.4640
  174MOL0     H23429   8.142   8.017   4.209 -1.3142  2.0453  0.3164
  174MOL0     H23430   8.270   7.952   4.311 -1.8603 -2.2896 -1.5976
  174MOL0     H23431   8.269   8.210   4.412 -0.8633 -0.6303  0.8598
  174MOL0     H23432   8.112   8.210   4.324  1.5290  0.8793 -1.2292
  174MOL0     H23433   8.060   8.001   4.513  2.0630 -2.0337  2.5213
  174MOL0     H23434   8.227   8.026   4.560 -3.3468 -2.5937  2.7325
  174MOL0     H23435   8.080   8.133   4.707 -1.9875 -3.0800 -2.0030
  174MOL0     H23436   8.194   8.246   4.613  2.7717 -4.1443 -3.0070
  174MOL0     H23437   7.989   8.315   4.475 -1.4613  2.4582  0.2700
  174MOL0     H23438   7.896   8.183   4.548 -2.4539  1.3457  1.5325
  174MOL0     H23439   7.976   8.378   4.751  0.1582  0.0002  0.0462
  174MOL0     H23440   7.840   8.289   4.733  1.2189 -1.6533  0.2199
  174MOL0     H23441   7.667   8.336   4.500  2.9598 -1.1352 -2.5978
  174MOL0     H23442   7.573   8.592   4.312  0.3141 -1.3933  0.1746
  174MOL0     H23443   7.473   8.488   4.424 -0.6623 -0.1549 -1.3202
  174MOL0     H23444   7.427   8.748   4.355  1.2755 -0.9082 -0.1765
  174MOL0     H23445   7.537   8.772   4.491 -0.1391 -1.8381  0.2664
  174MOL0     H23446   7.402   8.633   4.642  1.4329  0.2759 -1.0552
  174MOL0     H23447   7.277   8.607   4.518 -0.1203  0.6954  0.9978
  174MOL0     H23448   7.240   8.846   4.498  1.8137 -0.7330  0.1720
  174MOL0     H23449   7.330   8.885   4.640  0.9666  2.1714 -4.3466
  174MOL0     H23450   7.154   9.049   4.629 -1.2093  2.1768 -1.7437
  174MOL0     H23451   6.892   9.306   4.664  0.1588  0.4640  1.3381
  174MOL0     H23452   7.004   9.292   4.781 -2.2166  0.0503 -0.1185
  174MOL0     H23453   7.052   9.240   4.609  2.5000 -2.2307  1.7169
  174MOL0     H23454   6.738   9.312   5.095  0.4284 -2.6924 -1.6319
  174MOL0     H23455   6.551   9.462   5.205 -3.9831  0.4749  1.0473
  174MOL0     H23456   6.377   9.355   5.375 -1.0805  1.7642  3.6502
  174MOL0     H23457   6.351   9.527   5.340 -1.8324  2.0500 -1.2153
  174MOL0     H23458   6.130   9.322   5.385 -0.0954 -0.6807  0.4724
  174MOL0     H23459   6.202   9.403   5.506  0.4907 -1.1568 -0.7701
  174MOL0     H23460   6.046   9.510   5.281 -2.5143 -0.0949  0.6115
  174MOL0     H23461   6.144   9.624   5.365  3.2398 -1.1106  1.9498
  174MOL0     H23462   5.930   9.446   5.503  2.4071 -0.0578  6.2003
  174MOL0     H23463   6.030   9.571   5.577  1.9443  3.1629 -1.4204
  174MOL0     H23464   5.896   9.738   5.440  1.6970 -0.4085 -1.4682
  174MOL0     H23465   5.788   9.631   5.538  1.4732 -2.2017  1.0228
  174MOL0     H23466   5.854   9.643   5.236 -0.2089 -0.6982 -0.2831
  174MOL0     H23467   5.798   9.486   5.309 -1.7423 -0.6644  3.5376
  174MOL0     H23468   5.616   9.647   5.408  1.1738  2.8087 -0.2364
  174MOL0     H23469   5.588   9.577   5.244 -0.2224  1.3994  0.1243
  174MOL0     H23470   5.653   9.793   5.150 -1.2777  1.0033  0.1369
  174MOL0     H23471   5.713   9.860   5.300 -1.2195  1.5594 -0.9521
  174MOL0     H23472   6.252   9.209   5.044  0.1100 -2.1930  2.7460
  174MOL0     H23473   6.429   9.068   4.934  3.3218 -1.2312 -0.5390
  174MOL0     H23474   6.794   8.858   4.892 -1.1724 -0.6494 -1.5342
  174MOL0     H23475   6.965   8.723   4.812 -1.1161  0.4586  0.3675
  174MOL0     H23476   8.402   7.828   3.915  0.1391 -0.4950  1.2758
  174MOL0     H23477   8.517   7.687   3.734  0.5092 -1.5303  1.5017
  174MOL0     H23478   8.756   7.834   3.221 -1.2220 -0.2450 -1.9615
  174MOL0     H23479   8.824   7.664   3.039 -2.8849  0.0018  0.2093
  174MOL0     H23480   8.828   7.447   2.935 -0.9262  1.6660  0.6036
  174MOL0     H23481   8.988   7.523   2.930  2.4253 -1.1934  1.7851
  174MOL0     H23482   8.931   7.219   2.902 -2.5588  1.4667 -0.9674
  174MOL0     H23483   9.084   7.279   2.942  0.4509 -2.6598 -1.3579
  174MOL0     H23484   9.087   7.253   2.715  2.6687  2.0797  4.0161
  174MOL0     H23485   9.060   7.424   2.726  3.1492 -1.5531 -1.0755
  174MOL0     H23486   8.827   7.408   2.707  0.1715 -1.1775  2.9282
  174MOL0     H23487   8.850   7.225   2.680  1.0852 -0.1142  0.7809
  174MOL0     H23488   8.931   7.402   2.302 -2.8341 -1.7146 -0.0949
  174MOL0     H23489   8.958   7.406   3.362  1.5383  1.0882  0.1550
  174MOL0     H23490   8.876   7.554   3.517  4.8427 -4.0720 -1.8950
  175MOL0     O23491  10.976   3.918   9.130 -0.4942 -0.6519 -0.0783
  175MOL0     C23492  10.984   4.027   9.070  0.6218  0.8266  1.0905
  175MOL0     O23493  10.992   4.150   9.121  0.6440 -0.3794 -0.0365
  175MOL0     C23494  10.984   4.175   9.257  0.5628 -0.2795 -0.1331
  175MOL0     C23495  10.875   4.129   9.334 -0.4816 -0.1605 -0.4551
  175MOL0     C23496  10.895   4.147   9.473  0.1411  0.4505 -0.7049
  175MOL0     C23497  10.987   4.221   9.534  0.5227 -1.1093 -0.4516
  175MOL0     O23498  10.978   4.242   9.671  0.1188  0.0341 -0.0442
  175MOL0     C23499  11.105   4.268   9.746 -0.8561 -0.1034  0.3831
  175MOL0     C23500  11.123   4.411   9.793 -0.4771  0.8290 -0.0820
  175MOL0     C23501  11.018   4.457   9.892  0.2942  0.6421  0.0826
  175MOL0     C23502  11.039   4.424  10.041 -0.2092 -0.3661  1.0971
  175MOL0     C23503  11.125   4.524  10.120 -0.0317 -0.0456  0.3831
  175MOL0     C23504  11.139   4.501  10.269  0.5452 -0.3377  0.5488
  175MOL0     C23505  11.000   4.513  10.357 -0.1309  0.5789 -0.5811
  175MOL0     C23506  10.989   4.656  10.417  0.0252  0.9054  0.0967
  175MOL0     N23507  10.884   4.649  10.518 -0.0317 -0.5910 -0.2741
  175MOL0     C23508  10.752   4.652  10.501  0.2339 -0.1061  0.4831
  175MOL0     C23509  10.715   4.662  10.629 -0.1404 -0.1097  0.0937
  175MOL0     C23510  10.570   4.706  10.659  0.0096  0.3736  0.0941
  175MOL0     C23511  10.558   4.830  10.744  0.2256 -1.1751 -0.1813
  175MOL0     C23512  10.560   4.963  10.651 -0.0175  0.7622  0.1789
  175MOL0     C23513  10.698   5.030  10.647 -0.7316  0.4018  0.3016
  175MOL0     O23514  10.737   5.089  10.777  0.1452 -0.6957 -0.2991
  175MOL0     C23515  10.852   5.163  10.792  0.1933  0.7051 -0.2015
  175MOL0     C23516  10.945   5.189  10.687  0.2938  0.2944  0.0751
  175MOL0     C23517  11.044   5.289  10.698  0.6243  0.0506  0.5919
  175MOL0     C23518  11.134   5.310  10.577 -0.3582  0.4879 -0.4597
  175MOL0     C23519  11.066   5.347  10.819 -0.0044 -0.5834 -0.3075
  175MOL0     C23520  11.178   5.439  10.849  0.0546 -0.3634 -0.2238
  175MOL0     O23521  11.202   5.462  10.987  0.5763  1.0413  0.2075
  175MOL0     C23522  11.301   5.553  11.021  0.7843 -0.8866  0.5261
  175MOL0     C23523  11.282   5.684  10.990  0.3831  0.4822  0.5693
  175MOL0     C23524  11.376   5.780  11.018 -0.2664  0.2026  0.4715
  175MOL0     C23525  11.495   5.744  11.087 -0.4106 -0.0142 -0.4820
  175MOL0     O23526  11.582   5.838  11.131 -0.1841 -0.3961 -0.6971
  175MOL0     C23527  11.534   5.932  11.226  1.0785 -0.4672  0.8472
  175MOL0     C23528  11.441   5.872  11.335 -0.2133 -0.1233  0.7118
  175MOL0     C23529  11.311   5.960  11.338  0.0387  0.0792 -0.3064
  175MOL0     C23530  11.199   5.893  11.427  0.0704 -0.6980 -0.2821
  175MOL0     C23531  11.210   5.909  11.577 -0.5870  0.0195 -0.2562
  175MOL0     C23532  11.212   6.058  11.615  0.0603 -0.6841  0.5010
  175MOL0     C23533  11.238   6.083  11.761 -0.3473  0.7398 -0.0265
  175MOL0     C23534  11.111   6.099  11.844 -0.6210 -0.3319  0.0747
  175MOL0    Cl23535  11.004   5.952  11.853 -0.1806  0.0153  0.4305
  175MOL0     C23536  11.522   5.603  11.116  0.5840 -0.3626  0.4960
  175MOL0     C23537  11.422   5.510  11.079 -0.3353 -0.0885  0.2306
  175MOL0     O23538  11.250   5.490  10.762  0.3816 -0.7408 -0.1213
  175MOL0     C23539  10.990   5.299  10.933  0.8470 -0.4767  0.0662
  175MOL0     C23540  10.881   5.215  10.921 -0.5520 -0.2966  0.4400
  175MOL0     N23541  10.814   4.664  10.721 -0.6997  0.8066 -0.4022
  175MOL0     N23542  10.917   4.647  10.649 -0.7311 -0.1071 -0.0264
  175MOL0     C23543  11.088   4.270   9.456  1.1472  0.1289 -0.6563
  175MOL0     C23544  11.084   4.248   9.314  0.3701 -0.3111 -0.4157
  175MOL0     C23545  10.993   4.015   8.926  0.2308  0.0948 -0.6190
  175MOL0     C23546  10.995   3.893   8.862  0.2811  0.0934  0.6862
  175MOL0     C23547  11.024   3.895   8.727  2.2410  0.0171  1.2872
  175MOL0     C23548  11.027   4.008   8.644  0.0031  0.1619 -0.7205
  175MOL0     O23549  11.061   4.009   8.513 -1.1189  0.3748  1.1056
  175MOL0     C23550  11.093   3.891   8.455  0.6426  0.0174 -0.8020
  175MOL0     C23551  11.124   3.912   8.309  0.1916  0.4072  0.5378
  175MOL0     C23552  11.241   4.007   8.274 -0.1465 -0.1042  0.4927
  175MOL0     C23553  11.222   4.153   8.320  0.0147  0.4395 -0.3203
  175MOL0     C23554  11.304   4.242   8.237 -0.1081  0.5363 -0.7226
  175MOL0     C23555  11.365   4.310   8.158 -0.3416 -0.1523 -0.3837
  175MOL0     C23556  11.023   4.128   8.709 -0.0871  0.0676  0.2198
  175MOL0     C23557  11.002   4.134   8.850 -0.2211  0.3671 -0.4873
  175MOL0     H23558  10.790   4.074   9.295 -2.2786  2.2485 -0.1754
  175MOL0     H23559  10.814   4.114   9.537  0.6491  1.3272  0.4172
  175MOL0     H23560  11.107   4.213   9.841 -0.5668  1.4715  1.3257
  175MOL0     H23561  11.189   4.228   9.689 -1.6146  0.6917 -1.3453
  175MOL0     H23562  11.216   4.402   9.849  2.2531 -2.3022 -4.4919
  175MOL0     H23563  11.139   4.468   9.700  4.4971  0.4197  0.2481
  175MOL0     H23564  11.004   4.566   9.882  1.5861  0.7996 -0.1588
  175MOL0     H23565  10.919   4.421   9.864  0.6583 -0.5947  0.3565
  175MOL0     H23566  10.941   4.426  10.091 -0.5530  2.6987  0.5267
  175MOL0     H23567  11.093   4.330  10.038  2.5156  1.1280  0.1843
  175MOL0     H23568  11.222   4.522  10.070  0.3875 -0.0862  1.1760
  175MOL0     H23569  11.089   4.627  10.108  1.0952  0.4156  0.8236
  175MOL0     H23570  11.182   4.403  10.289  2.1830  0.2664  0.2295
  175MOL0     H23571  11.220   4.572  10.292  1.4214 -0.1686 -2.5185
  175MOL0     H23572  10.910   4.492  10.299 -0.3771 -0.5096  0.1470
  175MOL0     H23573  11.006   4.433  10.432 -2.7188  1.4534  0.6848
  175MOL0     H23574  10.960   4.724  10.336 -1.3891 -0.6915 -0.7987
  175MOL0     H23575  11.083   4.685  10.465  1.3718  2.2380 -3.0796
  175MOL0     H23576  10.687   4.658  10.413 -1.5000 -1.0665  1.6446
  175MOL0     H23577  10.524   4.719  10.560 -1.0010 -1.4118  0.2877
  175MOL0     H23578  10.532   4.624  10.719 -2.8989  0.0493 -1.9934
  175MOL0     H23579  10.623   4.832  10.832  1.4005  2.4914 -0.9420
  175MOL0     H23580  10.463   4.824  10.797  0.2696  3.0952  0.7542
  175MOL0     H23581  10.490   5.036  10.692  0.3163  1.3326 -0.2417
  175MOL0     H23582  10.525   4.959  10.547  3.8804  0.9707 -1.3019
  175MOL0     H23583  10.698   5.100  10.563 -3.5560 -0.6555 -0.6721
  175MOL0     H23584  10.769   4.947  10.634 -1.1126  0.0521  0.4638
  175MOL0     H23585  10.934   5.139  10.591 -2.7944  2.0641 -0.6205
  175MOL0     H23586  11.139   5.419  10.566 -2.5015  0.7890  0.9737
  175MOL0     H23587  11.230   5.260  10.593 -0.4763 -0.4606 -2.3174
  175MOL0     H23588  11.073   5.267  10.496 -2.8721 -0.5365  1.8372
  175MOL0     H23589  11.184   5.707  10.950 -0.8414 -0.3562  2.8879
  175MOL0     H23590  11.359   5.886  11.001  0.0511 -0.0723 -2.0336
  175MOL0     H23591  11.626   5.959  11.279  0.6867 -0.1094  1.3634
  175MOL0     H23592  11.481   6.018  11.184 -1.0500 -0.7531  2.7691
  175MOL0     H23593  11.425   5.765  11.327 -3.0382  0.2995 -0.4596
  175MOL0     H23594  11.492   5.886  11.431  1.4029 -1.7029  0.1284
  175MOL0     H23595  11.276   5.969  11.235 -0.7586  2.2580  0.1031
  175MOL0     H23596  11.345   6.058  11.371 -1.9304  0.9816 -0.8356
  175MOL0     H23597  11.107   5.934  11.385  0.3966  0.0111 -0.3306
  175MOL0     H23598  11.201   5.786  11.407  1.0544 -1.1779  2.1013
  175MOL0     H23599  11.307   5.869  11.610  0.6134 -0.8285 -4.2495
  175MOL0     H23600  11.129   5.848  11.618 -1.4230 -0.2075 -2.1224
  175MOL0     H23601  11.292   6.110  11.561  0.0042  1.0191  1.9514
  175MOL0     H23602  11.128   6.109  11.568 -2.2607 -4.0311  0.6841
  175MOL0     H23603  11.299   6.173  11.771 -1.5796  1.4731  1.1413
  175MOL0     H23604  11.286   5.995  11.805 -0.8540  0.8055  0.6647
  175MOL0     H23605  11.066   6.192  11.807  4.2642  1.5052 -2.1742
  175MOL0     H23606  11.145   6.111  11.947  2.4207  2.6559 -1.0635
  175MOL0     H23607  11.620   5.593  11.163 -0.1572  1.5473  2.6268
  175MOL0     H23608  11.435   5.403  11.080  1.9655  0.1271  2.6875
  175MOL0     H23609  10.994   5.340  11.033 -1.6545 -0.7318  0.3390
  175MOL0     H23610  10.814   5.197  11.005 -2.1085  2.3328 -0.1238
  175MOL0     H23611  11.161   4.342   9.494 -1.0582  1.4813  1.3252
  175MOL0     H23612  11.171   4.263   9.250  1.4431 -2.7864  0.2994
  175MOL0     H23613  10.991   3.806   8.926  0.4184 -0.9008 -0.6087
  175MOL0     H23614  11.031   3.801   8.675  0.4941  0.9137 -0.7328
  175MOL0     H23615  11.180   3.851   8.509 -0.8397 -2.3624 -0.0092
  175MOL0     H23616  11.016   3.817   8.476  0.8115  0.1868  0.5219
  175MOL0     H23617  11.036   3.957   8.261  0.2391  1.4837  1.4109
  175MOL0     H23618  11.148   3.817   8.262 -0.3827  1.2390 -1.5273
  175MOL0     H23619  11.257   4.000   8.166 -0.9845 -3.2533  0.4782
  175MOL0     H23620  11.330   3.969   8.325  1.9375  2.2435 -1.1290
  175MOL0     H23621  11.269   4.162   8.418  1.4592 -0.7147 -0.8697
  175MOL0     H23622  11.116   4.179   8.310  0.2673  0.7320 -3.1959
  175MOL0     H23623  11.419   4.368   8.086  0.3371 -0.1534  0.1170
  175MOL0     H23624  11.022   4.225   8.661 -2.8189  0.2622  0.4769
  175MOL0     H23625  11.000   4.229   8.902  2.2912 -1.0773  2.6052
  176MOL0     O23626   2.868  11.280   2.552  0.1256 -0.1207 -0.5094
  176MOL0     C23627   2.954  11.232   2.472 -0.7298 -0.7554  0.1655
  176MOL0     O23628   3.028  11.296   2.380 -0.5755  0.7216  1.0302
  176MOL0     C23629   3.021  11.427   2.359 -0.0841  0.5962 -0.3257
  176MOL0     C23630   2.995  11.524   2.448 -0.5060  0.0898  0.2157
  176MOL0     C23631   3.024  11.655   2.412  0.4616 -0.7545 -0.3891
  176MOL0     C23632   3.059  11.702   2.288  0.7881  0.4718 -0.9477
  176MOL0     O23633   3.069  11.836   2.256  0.3317 -0.0993  0.3569
  176MOL0     C23634   3.110  11.868   2.118  0.6560 -0.9986 -0.4396
  176MOL0     C23635   3.098  12.021   2.093 -0.1110 -0.1176  0.1896
  176MOL0     C23636   3.183  12.073   1.969  0.4683  0.0243 -0.0824
  176MOL0     C23637   3.156  12.228   1.941 -0.2303 -0.4661  0.5370
  176MOL0     C23638   3.259  12.273   1.836 -0.4552  0.1119  0.4395
  176MOL0     C23639   3.266  12.428   1.816 -0.9788  0.2971 -0.7382
  176MOL0     C23640   3.260  12.506   1.945  0.9920  0.6660 -0.2580
  176MOL0     C23641   3.135  12.588   1.972  0.3014  0.2815  0.1427
  176MOL0     N23642   3.121  12.629   2.111 -0.4260 -0.4677 -0.2757
  176MOL0     C23643   3.063  12.536   2.200  0.5541 -0.0417 -1.1133
  176MOL0     C23644   3.081  12.596   2.320 -0.3393  0.7417 -0.8774
  176MOL0     C23645   3.058  12.533   2.462 -0.4319 -0.9003  0.3296
  176MOL0     C23646   3.145  12.416   2.492  0.2272  0.3900  0.4628
  176MOL0     C23647   3.112  12.367   2.633 -0.3790  0.8144  0.2735
  176MOL0     C23648   3.074  12.214   2.633 -0.2880  0.4222  0.9797
  176MOL0     O23649   3.183  12.133   2.599 -1.0969  0.6798  0.2522
  176MOL0     C23650   3.177  12.002   2.650 -1.1217  0.8420 -0.3711
  176MOL0     C23651   3.297  11.919   2.645 -0.4561  0.0585  0.5435
  176MOL0     C23652   3.307  11.785   2.696  0.0424 -0.3305  0.2062
  176MOL0     C23653   3.437  11.703   2.678 -0.2988  0.0986 -0.4075
  176MOL0     C23654   3.192  11.734   2.763  0.1931  0.7925  0.2671
  176MOL0     C23655   3.186  11.598   2.818  0.3708 -0.9447  0.5204
  176MOL0     O23656   3.234  11.498   2.741 -0.5932  0.1874  0.9643
  176MOL0     C23657   3.265  11.389   2.813  0.3668 -0.1471  0.9549
  176MOL0     C23658   3.374  11.391   2.898 -0.7574  0.1415  0.2717
  176MOL0     C23659   3.412  11.266   2.955  0.1480  0.8559 -0.7354
  176MOL0     C23660   3.343  11.148   2.938 -1.2124  0.3645  0.2280
  176MOL0     O23661   3.384  11.040   3.012  0.0842 -0.6414 -0.4534
  176MOL0     C23662   3.284  10.980   3.095 -0.2216  0.8879  0.0480
  176MOL0     C23663   3.360  10.870   3.168  0.1052  1.4930  0.6560
  176MOL0     C23664   3.390  10.747   3.081 -0.0887  1.4871  0.2579
  176MOL0     C23665   3.427  10.624   3.163 -0.2585 -0.6736 -1.2425
  176MOL0     C23666   3.409  10.501   3.085 -0.1934  0.2402 -1.1515
  176MOL0     C23667   3.273  10.444   3.093  0.2055 -0.4695 -0.4000
  176MOL0     C23668   3.249  10.353   3.218 -0.3202  0.0334  0.3508
  176MOL0     C23669   3.097  10.337   3.253 -0.4677  0.0872 -0.3905
  176MOL0    Cl23670   3.013  10.269   3.123  0.2262  0.3680 -1.0965
  176MOL0     C23671   3.236  11.148   2.848  0.6307  0.2286 -0.5242
  176MOL0     C23672   3.195  11.271   2.789  0.3294  0.6524 -0.2575
  176MOL0     O23673   3.120  11.576   2.920 -1.0223 -0.0761  0.5830
  176MOL0     C23674   3.080  11.811   2.775 -0.2615 -0.2177  0.0845
  176MOL0     C23675   3.071  11.930   2.713  0.2088 -0.1593 -0.0266
  176MOL0     N23676   3.138  12.718   2.300  0.3024 -0.2684  0.0993
  176MOL0     N23677   3.138  12.744   2.174  0.1239  0.5761 -0.2876
  176MOL0     C23678   3.078  11.595   2.202 -0.7934 -0.3386 -0.5907
  176MOL0     C23679   3.066  11.462   2.230 -0.2072  0.3326 -0.1321
  176MOL0     C23680   2.992  11.091   2.485 -0.4434  0.9605 -0.1291
  176MOL0     C23681   3.079  11.022   2.394  0.1561  0.2838  0.9444
  176MOL0     C23682   3.109  10.887   2.408  1.2478  0.3139 -0.1251
  176MOL0     C23683   3.063  10.810   2.520 -0.2832  0.4743 -0.1851
  176MOL0     O23684   3.104  10.679   2.543  0.7565  0.1931  0.0259
  176MOL0     C23685   3.098  10.626   2.679 -0.3251 -0.1297  0.7015
  176MOL0     C23686   3.195  10.508   2.681 -0.6659 -0.2785 -0.1033
  176MOL0     C23687   3.332  10.571   2.661 -0.5614  0.8930  0.8960
  176MOL0     C23688   3.442  10.467   2.629 -1.0303  0.8302  1.2819
  176MOL0     C23689   3.466  10.381   2.742 -0.0310  0.6845  0.6644
  176MOL0     C23690   3.505  10.325   2.842 -0.9808 -0.3994  0.0029
  176MOL0     C23691   2.983  10.887   2.616 -0.2154  0.3840 -0.4723
  176MOL0     C23692   2.950  11.021   2.599  0.1552  0.8466 -0.2439
  176MOL0     H23693   2.983  11.495   2.552 -2.3226  1.0383  0.2999
  176MOL0     H23694   3.021  11.731   2.489  2.9458 -0.4769 -0.4781
  176MOL0     H23695   3.212  11.828   2.116  2.2203  2.3331  2.2539
  176MOL0     H23696   3.053  11.818   2.039  1.3758 -0.5297 -1.2783
  176MOL0     H23697   2.993  12.047   2.073 -1.0659 -2.4972  1.6850
  176MOL0     H23698   3.148  12.074   2.174 -1.4433  1.1591  0.2344
  176MOL0     H23699   3.290  12.067   1.991  1.0447  2.5242 -1.8389
  176MOL0     H23700   3.158  12.009   1.884  0.2702 -0.4115  0.2965
  176MOL0     H23701   3.054  12.243   1.903 -0.8857 -2.0412  1.6011
  176MOL0     H23702   3.168  12.272   2.041  0.3567  0.4432  0.0870
  176MOL0     H23703   3.356  12.233   1.865 -1.0182 -1.7078 -0.0133
  176MOL0     H23704   3.240  12.224   1.739  0.4387 -0.0027  0.3137
  176MOL0     H23705   3.367  12.451   1.781 -0.8317  1.6416  0.5000
  176MOL0     H23706   3.200  12.479   1.744  0.4101  3.2563 -0.0486
  176MOL0     H23707   3.287  12.449   2.035  0.8114 -1.0537 -1.2562
  176MOL0     H23708   3.342  12.578   1.943  0.2476  1.6464  1.6615
  176MOL0     H23709   3.045  12.535   1.939  0.2135 -0.2331  1.1518
  176MOL0     H23710   3.142  12.672   1.901 -0.6992 -3.2385 -4.6013
  176MOL0     H23711   3.031  12.434   2.180  2.7452 -1.3913  1.6371
  176MOL0     H23712   3.069  12.614   2.535  1.1323  0.0271 -0.8475
  176MOL0     H23713   2.958  12.490   2.468 -0.1059 -1.5250  1.5640
  176MOL0     H23714   3.252  12.438   2.485  2.1893 -5.6819  3.6695
  176MOL0     H23715   3.117  12.332   2.428  1.9511 -1.9800  2.5956
  176MOL0     H23716   3.029  12.413   2.688  1.2821  4.6469 -0.1381
  176MOL0     H23717   3.197  12.382   2.699 -0.6787  1.1960  0.5767
  176MOL0     H23718   2.986  12.198   2.570  0.4112  0.0591  0.0785
  176MOL0     H23719   3.050  12.197   2.738  2.6728 -1.5992  1.4501
  176MOL0     H23720   3.383  11.968   2.600  0.1022 -1.8849 -0.6106
  176MOL0     H23721   3.517  11.778   2.672 -0.1117 -0.1698 -1.6627
  176MOL0     H23722   3.452  11.650   2.773 -3.4548  0.9289  0.6557
  176MOL0     H23723   3.444  11.632   2.594  0.2058 -0.6903  0.2778
  176MOL0     H23724   3.428  11.482   2.923 -1.2835  0.7429 -0.7451
  176MOL0     H23725   3.496  11.268   3.024  1.6783  1.8621 -2.5531
  176MOL0     H23726   3.226  11.042   3.163  1.1736  0.7304  1.4441
  176MOL0     H23727   3.218  10.926   3.027 -0.8770 -1.0714  2.1043
  176MOL0     H23728   3.444  10.916   3.221  2.2893  2.5848 -3.3614
  176MOL0     H23729   3.294  10.844   3.252 -1.1815  2.2130 -0.0951
  176MOL0     H23730   3.471  10.761   3.009 -0.7297 -0.5164 -0.9223
  176MOL0     H23731   3.300  10.714   3.029  1.5475 -1.9436 -0.6879
  176MOL0     H23732   3.534  10.624   3.186 -0.4071  1.4253 -0.3496
  176MOL0     H23733   3.367  10.628   3.255 -0.0485 -3.2205 -0.9309
  176MOL0     H23734   3.478  10.419   3.108 -1.1180  0.1531  1.6990
  176MOL0     H23735   3.428  10.532   2.982  3.3537 -1.0891 -1.0166
  176MOL0     H23736   3.197  10.521   3.075 -0.7987 -0.1258  4.0469
  176MOL0     H23737   3.278  10.370   3.013  2.0843 -2.3281  1.3097
  176MOL0     H23738   3.293  10.393   3.310  1.5481 -0.1321 -0.4166
  176MOL0     H23739   3.300  10.257   3.204  0.7208  0.1293  2.9645
  176MOL0     H23740   3.043  10.430   3.272  0.1150  0.0779  1.4893
  176MOL0     H23741   3.092  10.274   3.343  4.7396 -1.4193 -0.8178
  176MOL0     H23742   3.176  11.060   2.826 -0.5242  0.4020  1.6703
  176MOL0     H23743   3.102  11.280   2.733 -0.1821  3.6212  0.8832
  176MOL0     H23744   2.983  11.774   2.808 -0.1932  0.2118  0.7889
  176MOL0     H23745   2.982  11.991   2.723  1.7189  2.4286 -1.1155
  176MOL0     H23746   3.102  11.608   2.097  1.3348 -0.5234 -0.1851
  176MOL0     H23747   3.090  11.388   2.155  1.5857  0.4469  0.2779
  176MOL0     H23748   3.118  11.077   2.309  1.8904 -0.8168  0.9846
  176MOL0     H23749   3.168  10.850   2.324 -1.4243  1.8702 -2.8563
  176MOL0     H23750   3.123  10.692   2.762  1.7050  0.9878 -0.7053
  176MOL0     H23751   3.000  10.597   2.717  0.5956 -0.3732  3.0722
  176MOL0     H23752   3.158  10.442   2.602 -1.4660  0.8971 -0.7563
  176MOL0     H23753   3.184  10.456   2.776  0.4237 -1.1261 -0.4249
  176MOL0     H23754   3.368  10.618   2.753 -0.5116 -0.7685  1.7705
  176MOL0     H23755   3.340  10.652   2.588 -1.2496  0.7097  0.6076
  176MOL0     H23756   3.530  10.526   2.602 -1.5821  0.8207 -0.7151
  176MOL0     H23757   3.412  10.418   2.536  2.5921  2.2810 -0.8659
  176MOL0     H23758   3.536  10.258   2.920 -0.3247 -1.1441 -0.8913
  176MOL0     H23759   2.943  10.832   2.701  1.1212  0.0542 -0.0385
  176MOL0     H23760   2.897  11.071   2.679 -1.2772  0.3719 -0.8669
  177MOL0     O23761   5.790   0.144   6.789 -0.1693  0.4248 -0.3424
  177MOL0     C23762   5.870   0.083   6.710 -0.0317 -0.4536  0.6399
  177MOL0     O23763   5.836  -0.002   6.616  0.2549 -0.2098 -0.9056
  177MOL0     C23764   5.705  -0.042   6.601  0.6653 -0.8524  0.0871
  177MOL0     C23765   5.626  -0.084   6.701 -0.3918  0.9518 -0.1418
  177MOL0     C23766   5.489  -0.120   6.683 -0.4443  0.3092  0.7862
  177MOL0     C23767   5.429  -0.116   6.556  0.1894 -0.0663 -0.7971
  177MOL0     O23768   5.304  -0.140   6.514 -0.3036 -0.2779  0.0534
  177MOL0     C23769   5.206  -0.047   6.551 -0.1258 -0.1726 -0.2220
  177MOL0     C23770   5.069  -0.119   6.540  0.8154  0.6358 -0.7534
  177MOL0     C23771   5.057  -0.225   6.655 -0.6667 -0.8324  0.8326
  177MOL0     C23772   5.023  -0.157   6.787 -0.6135 -0.1352 -0.2976
  177MOL0     C23773   4.997  -0.257   6.904 -0.6800  0.7190  0.4607
  177MOL0     C23774   4.848  -0.283   6.903  0.0770 -0.4858 -0.2865
  177MOL0     C23775   4.821  -0.413   6.973 -0.4340 -0.5352 -0.0745
  177MOL0     C23776   4.676  -0.456   6.990 -0.4913 -0.4244  0.0553
  177MOL0     N23777   4.601  -0.378   7.088  0.6613 -0.6138  0.3090
  177MOL0     C23778   4.625  -0.355   7.216  0.2419 -0.0074 -0.4701
  177MOL0     C23779   4.515  -0.300   7.264 -0.5043 -0.8256  0.3712
  177MOL0     C23780   4.513  -0.243   7.406 -0.1249  0.8267  0.2709
  177MOL0     C23781   4.532  -0.092   7.424 -0.4252 -0.5063  0.3813
  177MOL0     C23782   4.674  -0.063   7.385 -1.0097  0.2524  0.0537
  177MOL0     C23783   4.708   0.084   7.401  0.3988 -0.2137 -0.5869
  177MOL0     O23784   4.842   0.118   7.358 -0.2166  0.0309 -0.9842
  177MOL0     C23785   4.952   0.075   7.434 -0.4047 -0.4645 -0.3883
  177MOL0     C23786   4.952   0.071   7.579  0.1418 -0.6215  0.7075
  177MOL0     C23787   5.052   0.003   7.650  0.0378  0.3704 -0.2012
  177MOL0     C23788   5.040   0.005   7.802  0.1058  0.5306 -0.2146
  177MOL0     C23789   5.155  -0.067   7.575 -0.5022  0.8640  1.0347
  177MOL0     C23790   5.268  -0.155   7.637  0.4320  0.0356 -0.1181
  177MOL0     O23791   5.293  -0.143   7.775 -0.0314  0.6799 -0.1650
  177MOL0     C23792   5.387  -0.222   7.840  0.1723 -0.0044  0.7783
  177MOL0     C23793   5.345  -0.352   7.863 -0.5283  1.3629 -0.7107
  177MOL0     C23794   5.439  -0.427   7.934  0.6804  0.8013  0.4953
  177MOL0     C23795   5.566  -0.394   7.975 -0.5430  0.6843 -0.2935
  177MOL0     O23796   5.652  -0.476   8.034  0.3582  0.5364 -0.4634
  177MOL0     C23797   5.777  -0.427   8.072  0.4102 -0.5568 -0.9032
  177MOL0     C23798   5.857  -0.532   8.134 -1.3280  0.0549 -0.2326
  177MOL0     C23799   5.789  -0.601   8.248  0.8324 -0.3732 -0.0602
  177MOL0     C23800   5.883  -0.644   8.357 -0.4381  0.0497 -0.0114
  177MOL0     C23801   5.822  -0.730   8.476 -0.3336  0.0731  0.0625
  177MOL0     C23802   5.760  -0.866   8.429 -0.0407 -0.9102  0.0237
  177MOL0     C23803   5.848  -0.964   8.343 -0.1054 -0.8052  0.0840
  177MOL0     C23804   5.754  -1.061   8.275 -0.5643 -0.9008 -0.7189
  177MOL0    Cl23805   5.649  -1.152   8.395 -0.3017 -0.2271  0.7286
  177MOL0     C23806   5.606  -0.264   7.931 -0.8789  0.7273 -0.4045
  177MOL0     C23807   5.517  -0.179   7.858  0.3454  0.1979 -0.7164
  177MOL0     O23808   5.337  -0.219   7.561  0.8281  0.4460  0.0039
  177MOL0     C23809   5.148  -0.063   7.431  0.5108  0.0801  0.0401
  177MOL0     C23810   5.049   0.013   7.365 -0.2749 -0.0248  0.6658
  177MOL0     N23811   4.424  -0.285   7.160 -0.3314  0.2507  0.1692
  177MOL0     N23812   4.475  -0.335   7.056  0.9174 -0.5163 -0.1485
  177MOL0     C23813   5.515  -0.080   6.450 -0.0026 -0.2298  0.4545
  177MOL0     C23814   5.640  -0.040   6.470 -0.7053 -1.9909  0.1353
  177MOL0     C23815   6.008   0.131   6.722 -0.9247  0.2816 -0.0183
  177MOL0     C23816   6.072   0.104   6.846 -1.4623  0.3359 -0.0406
  177MOL0     C23817   6.203   0.140   6.869  0.3730 -0.0474  0.0115
  177MOL0     C23818   6.282   0.193   6.766  0.0205  0.5411 -0.4912
  177MOL0     O23819   6.412   0.235   6.805  0.8097 -0.0122 -0.0901
  177MOL0     C23820   6.495   0.310   6.716  0.0172  0.7064 -0.3222
  177MOL0     C23821   6.535   0.221   6.602 -0.0626  0.5147 -0.5761
  177MOL0     C23822   6.645   0.287   6.509 -0.3312  0.0665  1.2291
  177MOL0     C23823   6.650   0.226   6.362 -0.6088  0.9774 -1.0292
  177MOL0     C23824   6.614   0.078   6.357 -0.0296 -0.3558  0.5467
  177MOL0     C23825   6.585  -0.039   6.368 -0.0311 -0.4735  0.7212
  177MOL0     C23826   6.219   0.215   6.644 -0.0462 -0.2366 -0.5114
  177MOL0     C23827   6.089   0.171   6.615 -0.1239  0.8092  0.1299
  177MOL0     H23828   5.665  -0.079   6.803 -0.4064  2.9471 -0.1961
  177MOL0     H23829   5.432  -0.151   6.770 -0.3209  1.1306  1.1672
  177MOL0     H23830   5.239   0.000   6.644 -0.3723  1.4780 -0.9390
  177MOL0     H23831   5.206   0.031   6.474 -0.4901 -0.6366 -0.6994
  177MOL0     H23832   4.996  -0.040   6.561 -0.7846 -1.3596  1.8084
  177MOL0     H23833   5.055  -0.159   6.440 -0.6688  0.0090 -0.3142
  177MOL0     H23834   4.981  -0.299   6.627 -0.7010  0.4740 -2.9345
  177MOL0     H23835   5.152  -0.280   6.663 -2.0321 -3.4396  0.3851
  177MOL0     H23836   5.114  -0.104   6.818 -0.8737 -0.2094  0.6349
  177MOL0     H23837   4.940  -0.086   6.774 -0.0695  0.4163 -0.7838
  177MOL0     H23838   5.056  -0.345   6.880 -0.4337  0.7621  0.8963
  177MOL0     H23839   5.031  -0.213   6.998 -0.3720 -0.6521  1.0079
  177MOL0     H23840   4.797  -0.203   6.959  3.9055  1.9476  0.1130
  177MOL0     H23841   4.805  -0.284   6.802 -2.8304  2.9925  0.6969
  177MOL0     H23842   4.861  -0.480   6.897 -0.5430 -0.1931 -0.4387
  177MOL0     H23843   4.884  -0.423   7.062  0.2946  0.4803 -0.4552
  177MOL0     H23844   4.687  -0.555   7.037 -2.6710  0.1396  1.9445
  177MOL0     H23845   4.633  -0.464   6.890  0.3850 -3.7431 -0.1826
  177MOL0     H23846   4.714  -0.385   7.270 -1.0999 -2.1990  0.6735
  177MOL0     H23847   4.411  -0.267   7.436 -0.3435  0.6160 -0.6316
  177MOL0     H23848   4.573  -0.296   7.481 -0.2762 -2.3528 -1.6748
  177MOL0     H23849   4.511  -0.070   7.529 -4.6097 -0.7403 -0.2422
  177MOL0     H23850   4.477  -0.020   7.363  2.0409  3.1675  2.1030
  177MOL0     H23851   4.698  -0.086   7.281 -0.4756  2.0647 -0.2392
  177MOL0     H23852   4.731  -0.133   7.447  1.7476  1.2380 -1.2501
  177MOL0     H23853   4.687   0.117   7.503 -0.4390 -2.1022 -0.1090
  177MOL0     H23854   4.643   0.154   7.348 -0.1536  1.3876  2.0469
  177MOL0     H23855   4.890   0.141   7.635  0.1880 -0.2739  0.3283
  177MOL0     H23856   5.047  -0.097   7.841  4.2983 -0.0711 -1.9090
  177MOL0     H23857   5.126   0.060   7.841  0.4087 -0.8045  1.0891
  177MOL0     H23858   4.943   0.051   7.820 -0.9335 -1.0705 -1.3860
  177MOL0     H23859   5.241  -0.380   7.852 -0.6688  1.9786 -0.9770
  177MOL0     H23860   5.383  -0.514   7.966 -1.8104  1.8016 -0.8816
  177MOL0     H23861   5.835  -0.380   7.992  0.4844 -1.4927 -1.4149
  177MOL0     H23862   5.756  -0.355   8.151 -0.4641 -2.9728  1.1993
  177MOL0     H23863   5.878  -0.608   8.058 -3.5668 -1.5635  0.6541
  177MOL0     H23864   5.943  -0.477   8.173 -0.7565 -1.7046  1.0978
  177MOL0     H23865   5.733  -0.685   8.206  0.5247 -0.0496 -0.3055
  177MOL0     H23866   5.726  -0.529   8.300  0.5990 -0.2062 -0.5679
  177MOL0     H23867   5.957  -0.709   8.309  0.1225 -1.2031  2.4122
  177MOL0     H23868   5.929  -0.558   8.407  0.7656  1.0053 -2.5907
  177MOL0     H23869   5.743  -0.664   8.513  1.4783  3.0164 -0.9642
  177MOL0     H23870   5.892  -0.758   8.555 -1.8385 -2.6199  0.5793
  177MOL0     H23871   5.721  -0.916   8.518  0.2842 -3.1782 -1.0443
  177MOL0     H23872   5.679  -0.839   8.361  0.7868  0.3518 -0.4961
  177MOL0     H23873   5.927  -1.023   8.391  0.3263 -2.7488 -2.7429
  177MOL0     H23874   5.902  -0.908   8.266 -0.8855 -1.7803 -1.2097
  177MOL0     H23875   5.815  -1.127   8.213  2.5770 -0.7394  1.9165
  177MOL0     H23876   5.690  -1.000   8.210  2.3922  2.1562 -1.0579
  177MOL0     H23877   5.704  -0.222   7.953 -1.5766  1.5335  1.4058
  177MOL0     H23878   5.544  -0.084   7.813  0.7454  0.8160  0.7701
  177MOL0     H23879   5.211  -0.117   7.362 -1.2371  0.2322 -1.7621
  177MOL0     H23880   5.041   0.022   7.257  1.2726  1.5745  0.6388
  177MOL0     H23881   5.472  -0.076   6.350 -1.3754 -0.5704  1.0040
  177MOL0     H23882   5.701  -0.007   6.387 -0.4586  0.7490  1.2942
  177MOL0     H23883   6.011   0.076   6.931  1.5110  0.0637  2.1573
  177MOL0     H23884   6.250   0.127   6.965  0.5527  2.9661  0.4480
  177MOL0     H23885   6.439   0.396   6.678  0.0314  0.8942  0.0832
  177MOL0     H23886   6.582   0.352   6.767 -0.6669  0.3542  1.1831
  177MOL0     H23887   6.447   0.185   6.547  0.4060  0.4904 -1.3220
  177MOL0     H23888   6.584   0.131   6.640  0.6273  0.5505 -1.3354
  177MOL0     H23889   6.746   0.257   6.538 -0.3166 -3.0998 -1.5843
  177MOL0     H23890   6.637   0.396   6.508  2.0503  0.2955 -0.5719
  177MOL0     H23891   6.752   0.241   6.324  0.1953  0.1660  0.6682
  177MOL0     H23892   6.592   0.283   6.289 -2.1700 -1.3775 -1.7543
  177MOL0     H23893   6.572  -0.145   6.372  1.3546 -0.6248  2.7670
  177MOL0     H23894   6.257   0.274   6.562 -2.7600  0.4408 -1.3709
  177MOL0     H23895   6.060   0.180   6.511  0.8826  0.8382 -0.1572
  178MOL0     O23896   5.755   4.818   0.396 -1.0871 -0.0987 -1.0338
  178MOL0     C23897   5.640   4.833   0.360 -0.3865  0.2725 -1.1506
  178MOL0     O23898   5.566   4.730   0.306 -0.1082  0.3485 -0.6483
  178MOL0     C23899   5.616   4.598   0.315 -0.0035 -0.0481  0.5372
  178MOL0     C23900   5.697   4.535   0.418  0.8858  0.1320  0.5248
  178MOL0     C23901   5.719   4.400   0.411 -0.3250 -0.3662  0.7580
  178MOL0     C23902   5.666   4.321   0.304 -0.0906  0.2685 -0.6207
  178MOL0     O23903   5.692   4.189   0.294 -0.4150  0.2484  0.8124
  178MOL0     C23904   5.689   4.117   0.422 -0.2876  0.0916 -0.0669
  178MOL0     C23905   5.643   3.978   0.379  0.3742 -0.4232 -0.2834
  178MOL0     C23906   5.655   3.882   0.497  0.1535  0.7810  0.0772
  178MOL0     C23907   5.597   3.744   0.453  0.5089  0.5452  0.5903
  178MOL0     C23908   5.625   3.635   0.559 -0.1318  0.7261  0.1131
  178MOL0     C23909   5.779   3.599   0.558  0.0348 -0.2436 -0.4156
  178MOL0     C23910   5.797   3.465   0.628 -0.0876 -0.1059 -0.0970
  178MOL0     C23911   5.906   3.375   0.577  0.7164 -0.0687 -0.4489
  178MOL0     N23912   5.916   3.259   0.663 -0.1968  0.9359 -0.5911
  178MOL0     C23913   5.986   3.246   0.776  0.2517 -0.2601  0.2240
  178MOL0     C23914   5.980   3.121   0.824 -0.4089  0.5648 -0.4523
  178MOL0     C23915   6.072   3.079   0.934  0.4217  0.4366 -0.1637
  178MOL0     C23916   6.077   3.181   1.045 -0.5143 -0.3090 -0.0740
  178MOL0     C23917   5.939   3.242   1.102 -1.1782 -0.1862  0.1327
  178MOL0     C23918   5.932   3.396   1.091  0.3110  0.2288 -0.1297
  178MOL0     O23919   5.836   3.468   1.164 -0.0255 -0.3492  1.2221
  178MOL0     C23920   5.817   3.608   1.148  0.4340  0.2914  0.2895
  178MOL0     C23921   5.861   3.687   1.047  0.9626  1.3459  0.9856
  178MOL0     C23922   5.827   3.825   1.033  0.0992  0.1462 -0.1486
  178MOL0     C23923   5.903   3.908   0.935  1.1228  0.0441 -0.6487
  178MOL0     C23924   5.751   3.887   1.135 -0.2433 -0.4130 -0.4304
  178MOL0     C23925   5.709   4.029   1.138  0.5079  0.3401  0.5435
  178MOL0     O23926   5.665   4.080   1.258 -0.0585 -0.2675  0.2685
  178MOL0     C23927   5.707   4.212   1.276 -0.3209  0.0321  0.7981
  178MOL0     C23928   5.618   4.311   1.237 -0.5958  0.1144 -0.0304
  178MOL0     C23929   5.648   4.449   1.273 -0.4550  0.1582  1.0853
  178MOL0     C23930   5.767   4.482   1.344 -1.8844  0.8277  0.0554
  178MOL0     O23931   5.780   4.602   1.405 -0.2401  0.1477 -0.1414
  178MOL0     C23932   5.698   4.716   1.374  0.0420  0.7737  0.5581
  178MOL0     C23933   5.715   4.838   1.464  0.5440 -0.7256 -0.0118
  178MOL0     C23934   5.692   4.801   1.612  0.2878 -0.8604  0.1694
  178MOL0     C23935   5.734   4.932   1.689  0.0214  0.5047  0.6365
  178MOL0     C23936   5.727   4.903   1.835  0.3463 -0.0435  0.0220
  178MOL0     C23937   5.769   5.033   1.917 -0.8563  0.6766 -0.8145
  178MOL0     C23938   5.802   4.998   2.068 -0.2944  0.4551  0.4398
  178MOL0     C23939   5.751   5.097   2.172  0.2662  0.2783 -0.4952
  178MOL0    Cl23940   5.830   5.277   2.162  0.2298  0.6483  0.1791
  178MOL0     C23941   5.859   4.375   1.365  0.3497 -0.1234 -0.3227
  178MOL0     C23942   5.826   4.247   1.337  0.0445  0.5515  0.5350
  178MOL0     O23943   5.685   4.075   1.029 -0.6159  0.5152  0.3288
  178MOL0     C23944   5.707   3.806   1.244 -0.2001 -0.1347 -0.0645
  178MOL0     C23945   5.739   3.668   1.244 -0.2632 -0.6138 -0.7178
  178MOL0     N23946   5.876   3.060   0.752 -0.2518  0.5206  0.5663
  178MOL0     N23947   5.846   3.134   0.659  0.4656  0.1908 -0.1003
  178MOL0     C23948   5.599   4.379   0.202  0.4673 -0.7027  0.5531
  178MOL0     C23949   5.573   4.518   0.206  1.2201  0.1245 -0.0471
  178MOL0     C23950   5.597   4.974   0.389  0.1181 -0.5695 -0.8479
  178MOL0     C23951   5.684   5.075   0.419  0.0441  0.0281 -0.1606
  178MOL0     C23952   5.629   5.207   0.433  0.6246  0.2617 -0.0555
  178MOL0     C23953   5.486   5.230   0.437 -0.6952 -0.2056  0.3564
  178MOL0     O23954   5.425   5.349   0.464  0.0294 -0.1134  0.4669
  178MOL0     C23955   5.500   5.472   0.468 -0.0591 -0.5025  0.7600
  178MOL0     C23956   5.409   5.589   0.507  0.3911  0.2624 -0.0144
  178MOL0     C23957   5.492   5.721   0.491 -0.6315 -0.1659 -0.8263
  178MOL0     C23958   5.584   5.767   0.618  0.4102 -0.3957  0.8555
  178MOL0     C23959   5.626   5.902   0.611  0.6773 -0.8335  0.0266
  178MOL0     C23960   5.678   6.011   0.616 -0.2915  0.5350  0.0702
  178MOL0     C23961   5.406   5.119   0.417  1.1686  0.4898  0.0078
  178MOL0     C23962   5.450   4.989   0.400 -0.7565  0.6901 -0.7278
  178MOL0     H23963   5.746   4.578   0.505  1.7144 -1.0443  0.6751
  178MOL0     H23964   5.782   4.366   0.493  2.0435 -0.3904 -0.9702
  178MOL0     H23965   5.786   4.097   0.469 -2.4033 -0.9951  4.3381
  178MOL0     H23966   5.609   4.149   0.489 -0.0690  0.0742  0.2047
  178MOL0     H23967   5.540   3.975   0.342  0.9058 -2.6340 -1.8121
  178MOL0     H23968   5.713   3.949   0.299  1.8150  2.7519 -0.3011
  178MOL0     H23969   5.756   3.873   0.536  0.2763 -1.2800 -0.5937
  178MOL0     H23970   5.604   3.918   0.587  1.6201 -1.3031  1.8682
  178MOL0     H23971   5.490   3.755   0.432  0.9188  0.0685 -2.1591
  178MOL0     H23972   5.644   3.714   0.359  0.7401 -0.3023  0.9670
  178MOL0     H23973   5.609   3.666   0.663  2.3321 -1.4333  1.2450
  178MOL0     H23974   5.565   3.554   0.516  1.4393  0.0155 -0.8431
  178MOL0     H23975   5.813   3.595   0.454 -0.1783 -1.3553 -0.4612
  178MOL0     H23976   5.838   3.675   0.610  1.5098 -1.7860  0.2702
  178MOL0     H23977   5.802   3.471   0.738  0.6316  0.3575 -0.1474
  178MOL0     H23978   5.706   3.412   0.599  1.7466 -2.4869 -1.8283
  178MOL0     H23979   6.000   3.432   0.578  1.1423 -0.6138 -3.0075
  178MOL0     H23980   5.883   3.346   0.474 -2.0385  3.0268 -0.8683
  178MOL0     H23981   6.055   3.316   0.822  0.7711 -2.3545  2.8727
  178MOL0     H23982   6.037   2.983   0.972  2.0921  0.6633  2.1301
  178MOL0     H23983   6.165   3.060   0.881 -0.3192  0.6889 -1.6226
  178MOL0     H23984   6.140   3.270   1.032 -0.2306 -0.0529  2.5483
  178MOL0     H23985   6.125   3.124   1.125 -1.6882 -0.3042  0.6536
  178MOL0     H23986   5.927   3.222   1.209 -2.3399  0.3705  0.1213
  178MOL0     H23987   5.852   3.191   1.059 -2.8233  2.0639  0.6157
  178MOL0     H23988   5.939   3.420   0.984  2.5386 -2.6498 -0.7811
  178MOL0     H23989   6.018   3.446   1.137 -2.5213  2.8974  2.7001
  178MOL0     H23990   5.921   3.637   0.972 -0.5649 -0.9015  1.1587
  178MOL0     H23991   5.951   3.841   0.864 -1.0979 -1.6319 -0.7047
  178MOL0     H23992   5.848   3.984   0.878 -0.3379 -0.1688  0.4150
  178MOL0     H23993   5.972   3.950   1.009  0.3692 -2.7332  1.8650
  178MOL0     H23994   5.521   4.288   1.194 -0.5255 -0.1748 -0.0360
  178MOL0     H23995   5.579   4.524   1.237  1.6459  0.3060 -3.2829
  178MOL0     H23996   5.725   4.750   1.274  3.2399 -0.6754  0.8122
  178MOL0     H23997   5.593   4.684   1.376  0.3064 -0.2788 -0.8485
  178MOL0     H23998   5.818   4.872   1.453 -0.9880  4.3592 -1.4408
  178MOL0     H23999   5.668   4.935   1.445 -1.8497 -1.9931 -1.0960
  178MOL0     H24000   5.765   4.723   1.639  2.0544  0.3525 -0.9049
  178MOL0     H24001   5.586   4.781   1.626 -0.0277  0.4195 -0.3034
  178MOL0     H24002   5.832   4.962   1.653  0.1688 -2.8826 -2.3067
  178MOL0     H24003   5.670   5.018   1.667  0.6783  1.2497  1.5739
  178MOL0     H24004   5.796   4.822   1.862  3.0726  2.1681  0.0889
  178MOL0     H24005   5.620   4.885   1.851  0.3422 -1.6626 -1.5533
  178MOL0     H24006   5.855   5.083   1.872 -1.0003  2.5590  0.8925
  178MOL0     H24007   5.691   5.110   1.915  0.3919  1.9987 -0.3924
  178MOL0     H24008   5.911   4.994   2.072 -0.1291 -0.3490 -2.3955
  178MOL0     H24009   5.755   4.903   2.097 -1.2923  0.2182 -1.7424
  178MOL0     H24010   5.770   5.070   2.276 -1.1463  0.6555 -0.1175
  178MOL0     H24011   5.645   5.121   2.163  0.8454  3.0826 -0.8881
  178MOL0     H24012   5.960   4.403   1.394  1.3984 -3.8098  0.0461
  178MOL0     H24013   5.901   4.179   1.376 -0.4247  0.0473  0.5722
  178MOL0     H24014   5.648   3.856   1.320  0.8899  0.4651  0.4104
  178MOL0     H24015   5.704   3.604   1.324 -0.3637  0.3089 -0.0016
  178MOL0     H24016   5.578   4.333   0.106 -2.3595  0.0488  0.7127
  178MOL0     H24017   5.510   4.561   0.128 -0.8345 -1.8304  0.4364
  178MOL0     H24018   5.789   5.051   0.414  0.0003  0.0435 -1.3965
  178MOL0     H24019   5.693   5.294   0.448  0.8821  0.0410  0.1151
  178MOL0     H24020   5.581   5.460   0.541  0.1621  0.1253  0.6303
  178MOL0     H24021   5.539   5.484   0.367 -0.2650 -2.1719  0.4614
  178MOL0     H24022   5.372   5.575   0.608 -0.8544 -1.5552 -0.6799
  178MOL0     H24023   5.326   5.589   0.436 -0.2929  1.9210  0.7226
  178MOL0     H24024   5.423   5.806   0.491 -1.7773 -1.0114 -2.7393
  178MOL0     H24025   5.552   5.719   0.400  1.0748  1.5043  0.1810
  178MOL0     H24026   5.675   5.708   0.635  0.4868 -0.7448 -0.6170
  178MOL0     H24027   5.521   5.760   0.707  0.4701 -2.8869  0.7827
  178MOL0     H24028   5.736   6.100   0.630 -0.0725  0.4555 -0.3297
  178MOL0     H24029   5.299   5.135   0.418  1.3798  2.0022  1.0529
  178MOL0     H24030   5.376   4.909   0.397 -2.6892  2.4265 -2.0662
  179MOL0     O24031   7.539  11.282   4.292 -0.1071  0.0025 -0.2191
  179MOL0     C24032   7.564  11.377   4.223 -0.2632 -0.9965  0.0534
  179MOL0     O24033   7.665  11.379   4.125 -0.5980  0.0170 -0.1520
  179MOL0     C24034   7.734  11.258   4.087  0.3465 -0.5672 -0.2186
  179MOL0     C24035   7.850  11.228   4.150 -0.1971 -1.0003 -1.0313
  179MOL0     C24036   7.924  11.112   4.110  0.1949  0.7943 -0.3527
  179MOL0     C24037   7.868  11.025   4.012 -0.2024  0.6728 -0.8237
  179MOL0     O24038   7.948  10.924   3.960 -0.0945  0.6563  0.2500
  179MOL0     C24039   8.087  10.949   3.938 -0.5348 -0.5197 -0.7470
  179MOL0     C24040   8.155  10.823   3.880  0.7751  0.2936 -0.7070
  179MOL0     C24041   8.305  10.847   3.875 -0.7885  0.3357 -1.0486
  179MOL0     C24042   8.381  10.719   3.832 -0.3012  0.6502 -0.3511
  179MOL0     C24043   8.461  10.656   3.947  0.4564 -0.0921 -0.7513
  179MOL0     C24044   8.583  10.741   3.974  1.0152 -0.1485  0.0644
  179MOL0     C24045   8.627  10.744   4.122 -0.2754 -0.8128  0.7326
  179MOL0     C24046   8.721  10.625   4.163  0.2992 -0.3083 -0.2411
  179MOL0     N24047   8.749  10.604   4.302 -0.3565  0.1128 -0.1424
  179MOL0     C24048   8.768  10.485   4.372 -0.0155  0.7291  0.2078
  179MOL0     C24049   8.834  10.522   4.484  0.0128 -1.5678  0.3357
  179MOL0     C24050   8.874  10.423   4.583 -0.0765  0.1803 -0.7611
  179MOL0     C24051   8.801  10.289   4.596  0.2519  0.6547 -0.3572
  179MOL0     C24052   8.862  10.197   4.708  0.3605  0.2708  0.6036
  179MOL0     C24053   8.887  10.256   4.857  0.4281 -0.8365 -0.0972
  179MOL0     O24054   8.926  10.142   4.932  0.1030  0.4404  0.3930
  179MOL0     C24055   8.997  10.163   5.052  0.2470  0.9383 -0.6759
  179MOL0     C24056   9.027  10.049   5.142  0.3850 -0.8793 -0.4244
  179MOL0     C24057   9.122  10.052   5.241 -0.3247 -0.8285  0.0355
  179MOL0     C24058   9.133   9.929   5.320 -0.1875 -0.1244  0.2540
  179MOL0     C24059   9.200  10.166   5.256 -0.2952  0.0382 -0.7963
  179MOL0     C24060   9.312  10.189   5.350 -1.1052  0.0170 -0.5496
  179MOL0     O24061   9.411  10.280   5.307  0.2409  0.4233 -0.9705
  179MOL0     C24062   9.528  10.299   5.369 -0.6865 -0.7571 -0.5027
  179MOL0     C24063   9.585  10.427   5.363 -0.5324  0.0858 -0.3565
  179MOL0     C24064   9.701  10.458   5.429 -0.5253  0.6007 -0.6608
  179MOL0     C24065   9.784  10.354   5.492  0.1391 -0.5269  0.4724
  179MOL0     O24066   9.913  10.394   5.520 -0.3863  0.2165  0.3990
  179MOL0     C24067  10.008  10.286   5.532 -1.1856 -0.7409 -1.3379
  179MOL0     C24068  10.159  10.330   5.538 -0.8153 -0.5852  0.6720
  179MOL0     C24069  10.218  10.388   5.410  0.4364  0.7576 -0.1192
  179MOL0     C24070  10.235  10.280   5.299  0.0111  0.3081  0.0914
  179MOL0     C24071  10.203  10.341   5.159  0.2821 -0.5232  0.9627
  179MOL0     C24072  10.308  10.449   5.131  0.1022 -0.0850  0.1632
  179MOL0     C24073  10.344  10.452   4.985  0.1656  0.0431  0.3193
  179MOL0     C24074  10.255  10.531   4.881  0.5448 -1.1065 -0.5828
  179MOL0    Cl24075  10.261  10.451   4.718  0.2256  0.1012  0.0835
  179MOL0     C24076   9.733  10.227   5.494 -0.5698 -0.9828 -0.6395
  179MOL0     C24077   9.608  10.194   5.436  0.0361 -0.5860  0.4719
  179MOL0     O24078   9.323  10.128   5.459 -0.2711  0.6432  0.4771
  179MOL0     C24079   9.168  10.281   5.179  0.9056 -0.6789 -0.6658
  179MOL0     C24080   9.075  10.276   5.077  0.8422 -0.0125  0.4075
  179MOL0     N24081   8.875  10.655   4.474 -0.0823  0.6988 -0.1993
  179MOL0     N24082   8.822  10.701   4.369 -0.3339 -0.4406 -0.6646
  179MOL0     C24083   7.743  11.051   3.951 -0.4807  0.5984 -0.3900
  179MOL0     C24084   7.675  11.168   3.993  0.6156  0.6653  0.9438
  179MOL0     C24085   7.479  11.500   4.250 -0.5165 -1.1152 -0.0325
  179MOL0     C24086   7.370  11.508   4.347  0.6499 -1.1811 -0.0673
  179MOL0     C24087   7.301  11.626   4.359  0.3909 -0.0811  0.5536
  179MOL0     C24088   7.337  11.736   4.277 -0.5879 -0.1220 -0.2760
  179MOL0     O24089   7.272  11.854   4.272  1.1648  0.1432 -0.4945
  179MOL0     C24090   7.155  11.888   4.350 -0.4238  0.6794 -1.1883
  179MOL0     C24091   7.105  12.035   4.328 -0.2149  0.1756  0.2507
  179MOL0     C24092   7.198  12.145   4.380 -0.5562 -0.3704  0.0943
  179MOL0     C24093   7.341  12.141   4.328 -0.7989  0.4895  0.4526
  179MOL0     C24094   7.337  12.154   4.181 -0.7248 -0.0674 -0.6019
  179MOL0     C24095   7.324  12.174   4.060 -0.6814  0.2653  0.6058
  179MOL0     C24096   7.441  11.721   4.189 -0.6891  0.6008  1.1630
  179MOL0     C24097   7.521  11.610   4.170  0.5690  0.3113  0.0678
  179MOL0     H24098   7.892  11.290   4.228 -1.8302 -1.6753  0.4753
  179MOL0     H24099   8.017  11.100   4.166  0.3342  2.1211 -0.2652
  179MOL0     H24100   8.087  11.035   3.870 -3.5953  0.1662 -0.0241
  179MOL0     H24101   8.135  10.973   4.033  0.1956 -1.7690 -0.7864
  179MOL0     H24102   8.147  10.735   3.945  0.8755  0.6826 -0.1593
  179MOL0     H24103   8.111  10.788   3.786  2.2249 -2.5024 -0.4670
  179MOL0     H24104   8.314  10.939   3.815 -2.9637  1.6572  0.5240
  179MOL0     H24105   8.346  10.878   3.972 -0.1042 -1.0483 -0.8756
  179MOL0     H24106   8.311  10.642   3.799 -0.6826  1.2655 -1.0101
  179MOL0     H24107   8.444  10.754   3.749 -3.0330  0.8338 -2.4844
  179MOL0     H24108   8.390  10.655   4.030  1.2443 -1.1721 -0.0654
  179MOL0     H24109   8.490  10.551   3.935 -0.4287 -0.7881  2.3208
  179MOL0     H24110   8.670  10.714   3.914  1.9131  2.0575  0.2983
  179MOL0     H24111   8.563  10.845   3.949  0.6228 -0.6361 -1.7570
  179MOL0     H24112   8.681  10.837   4.138  1.0547 -0.8430 -2.6394
  179MOL0     H24113   8.541  10.739   4.190  0.2321 -1.0993  1.3641
  179MOL0     H24114   8.819  10.630   4.116  0.8244  1.9867  0.9357
  179MOL0     H24115   8.670  10.532   4.136  0.0107 -1.0508  2.5230
  179MOL0     H24116   8.727  10.388   4.345 -0.2059  0.4454  1.4807
  179MOL0     H24117   8.976  10.388   4.564 -0.1286  0.6800 -2.0956
  179MOL0     H24118   8.884  10.467   4.682  0.1546 -2.9287  0.7020
  179MOL0     H24119   8.796  10.240   4.499  1.8698  1.2158 -0.7434
  179MOL0     H24120   8.696  10.314   4.618  0.5912  1.7003  0.1292
  179MOL0     H24121   8.954  10.149   4.674  0.4935 -0.7037  2.2429
  179MOL0     H24122   8.790  10.114   4.707  3.1271 -2.3239 -0.1273
  179MOL0     H24123   8.794  10.295   4.900 -1.9072 -4.4899 -1.4555
  179MOL0     H24124   8.962  10.336   4.857 -0.7191  0.5791  4.4364
  179MOL0     H24125   8.976   9.955   5.125 -0.4179 -0.3713 -0.8288
  179MOL0     H24126   9.220   9.875   5.284 -0.2958  0.4916 -0.9729
  179MOL0     H24127   9.151   9.956   5.425  0.2791 -2.0497  0.7176
  179MOL0     H24128   9.045   9.864   5.316  0.8592 -1.5087 -1.7573
  179MOL0     H24129   9.541  10.503   5.298 -0.3937 -2.1474 -3.2276
  179MOL0     H24130   9.740  10.558   5.413  1.4166 -0.6716 -5.6126
  179MOL0     H24131   9.993  10.229   5.624 -2.6857 -0.7610 -1.5759
  179MOL0     H24132  10.001  10.227   5.440  2.0977 -1.9424 -0.9509
  179MOL0     H24133  10.158  10.412   5.610  1.0517  0.3240 -0.2669
  179MOL0     H24134  10.235  10.263   5.579  1.2459  0.7658 -0.7734
  179MOL0     H24135  10.310  10.445   5.422  1.4881 -1.0654  1.0540
  179MOL0     H24136  10.151  10.465   5.371 -0.5841  1.2370  2.3891
  179MOL0     H24137  10.332  10.230   5.291 -0.1096  0.1179 -0.1878
  179MOL0     H24138  10.168  10.200   5.331  0.2567  1.0631  2.6733
  179MOL0     H24139  10.104  10.384   5.150  0.6110 -0.1913 -3.0219
  179MOL0     H24140  10.199  10.262   5.083 -0.0475 -0.4462  0.9012
  179MOL0     H24141  10.262  10.545   5.153  0.5024  0.4533 -1.2417
  179MOL0     H24142  10.402  10.426   5.182  0.8860  1.9011 -0.2973
  179MOL0     H24143  10.352  10.347   4.954  0.0315 -0.1226  0.8482
  179MOL0     H24144  10.442  10.500   4.980  0.6370 -0.6733  2.0916
  179MOL0     H24145  10.304  10.628   4.867 -1.5646  0.0021 -0.7885
  179MOL0     H24146  10.151  10.531   4.914  0.4176  0.6799 -0.8922
  179MOL0     H24147   9.787  10.142   5.535  1.1411  1.6042  2.9093
  179MOL0     H24148   9.574  10.091   5.438  1.4798 -1.0691  1.6599
  179MOL0     H24149   9.211  10.380   5.172 -1.7924  0.6594  0.3125
  179MOL0     H24150   9.067  10.365   5.015 -3.0771  0.4670  1.3398
  179MOL0     H24151   7.699  10.999   3.866  0.3686 -3.2513  1.2833
  179MOL0     H24152   7.569  11.179   3.973  0.8138 -2.7343 -3.6897
  179MOL0     H24153   7.351  11.419   4.408  0.3541 -1.7516 -0.9752
  179MOL0     H24154   7.226  11.642   4.436  1.9240  0.4299  1.9736
  179MOL0     H24155   7.068  11.822   4.340  0.6129 -1.3109  1.6804
  179MOL0     H24156   7.200  11.871   4.449  0.6657  0.1263 -1.7610
  179MOL0     H24157   7.007  12.040   4.376 -0.8390 -0.7074 -0.8786
  179MOL0     H24158   7.082  12.042   4.221 -0.0572 -1.0016  0.1302
  179MOL0     H24159   7.207  12.147   4.490  3.2094  1.3876 -0.0673
  179MOL0     H24160   7.162  12.237   4.334  0.1509 -1.1924 -2.2124
  179MOL0     H24161   7.388  12.044   4.349 -0.6754 -0.1479 -2.3436
  179MOL0     H24162   7.404  12.222   4.365 -0.9900  0.7277  0.2521
  179MOL0     H24163   7.290  12.198   3.961  1.4086 -2.3765 -0.9064
  179MOL0     H24164   7.456  11.804   4.120 -3.8738 -1.2473 -2.1398
  179MOL0     H24165   7.594  11.616   4.090 -2.5234 -2.3876 -3.3100
  180MOL0     O24166   0.990   8.289  10.316 -0.2333  0.3332  0.5544
  180MOL0     C24167   0.941   8.263  10.204  0.1680  0.1133 -0.3739
  180MOL0     O24168   0.856   8.335  10.139  0.3180 -0.3255  0.2487
  180MOL0     C24169   0.843   8.472  10.157  0.3445 -0.5876 -0.4917
  180MOL0     C24170   0.940   8.556  10.225 -0.2839  0.9244  1.4601
  180MOL0     C24171   0.933   8.697  10.221 -0.0929  0.3660  0.1176
  180MOL0     C24172   0.830   8.762  10.170 -0.3279  0.4489  0.1714
  180MOL0     O24173   0.847   8.900  10.184  0.4125 -1.0157 -0.5205
  180MOL0     C24174   0.781   8.988  10.080 -0.5058  0.4870  0.2207
  180MOL0     C24175   0.806   9.134  10.094  0.9465  0.1763 -1.0730
  180MOL0     C24176   0.735   9.228   9.996  0.9773  0.8014  0.3860
  180MOL0     C24177   0.718   9.375  10.043 -0.0842 -0.2643  0.3503
  180MOL0     C24178   0.668   9.484   9.950 -0.1791  0.0003 -0.2741
  180MOL0     C24179   0.764   9.513   9.841  0.0650 -0.1427  0.4492
  180MOL0     C24180   0.894   9.593   9.882  0.7270  0.2193 -0.6027
  180MOL0     C24181   0.957   9.652   9.759  0.7576 -0.3931 -0.3893
  180MOL0     N24182   1.047   9.765   9.789  1.0846 -0.2286 -0.1043
  180MOL0     C24183   1.005   9.898   9.804 -0.2919 -0.1503 -0.1560
  180MOL0     C24184   1.123   9.976   9.802  0.5912  0.1495  0.4406
  180MOL0     C24185   1.132  10.130   9.818 -0.1236  0.5182 -0.0451
  180MOL0     C24186   1.153  10.176   9.962 -0.0289 -0.8749  0.1301
  180MOL0     C24187   1.249  10.099  10.045  0.1380  0.1233  0.4755
  180MOL0     C24188   1.403  10.114  10.006 -0.1954  0.5594  0.2357
  180MOL0     O24189   1.486  10.054  10.102 -0.0045  0.1850  0.1276
  180MOL0     C24190   1.629  10.049  10.089  0.0479 -0.2644 -0.3951
  180MOL0     C24191   1.701  10.156  10.039  0.4082  0.0951 -0.4013
  180MOL0     C24192   1.837  10.164  10.032 -1.0243 -0.0992 -0.9233
  180MOL0     C24193   1.891  10.291   9.973  0.9750 -0.6559 -0.2235
  180MOL0     C24194   1.911  10.059  10.097  0.2418 -0.4860  0.3132
  180MOL0     C24195   2.056  10.075  10.128 -0.2333  0.3484 -0.5100
  180MOL0     O24196   2.128   9.970  10.170 -0.2776 -0.7909 -0.1174
  180MOL0     C24197   2.258   9.976  10.212 -0.2081  0.8905  0.5340
  180MOL0     C24198   2.320   9.843  10.235  1.2521  0.4515  0.1549
  180MOL0     C24199   2.448   9.831  10.287 -0.0056 -0.8103 -1.1145
  180MOL0     C24200   2.525   9.944  10.324 -0.2575  0.1956  0.0837
  180MOL0     O24201   2.650   9.921  10.375 -0.3482  0.2846 -0.0987
  180MOL0     C24202   2.705  10.026  10.460 -0.3841  0.4588 -0.4623
  180MOL0     C24203   2.832   9.973  10.533 -0.8163 -0.5134 -1.0051
  180MOL0     C24204   2.937   9.935  10.439 -0.4155 -0.0970  0.2012
  180MOL0     C24205   3.036   9.841  10.504 -0.3371 -0.3193 -0.7719
  180MOL0     C24206   3.148   9.806  10.410  0.0506  1.0478 -0.5931
  180MOL0     C24207   3.238   9.698  10.473  0.3717 -0.6097 -0.1636
  180MOL0     C24208   3.323   9.751  10.590 -0.2554  1.0509  0.1038
  180MOL0     C24209   3.406   9.628  10.645 -0.1045 -0.9768 -0.0198
  180MOL0    Cl24210   3.549   9.606  10.558  0.0072  0.0127  0.1474
  180MOL0     C24211   2.460  10.065  10.299 -0.9969  0.2090  0.4830
  180MOL0     C24212   2.341  10.087  10.230 -0.1581  0.3999  0.1374
  180MOL0     O24213   2.099  10.190  10.127  0.0866 -0.4067 -0.0159
  180MOL0     C24214   1.838   9.951  10.149 -0.2058 -0.1481 -0.2096
  180MOL0     C24215   1.695   9.939  10.147 -0.1406 -0.6118  0.7952
  180MOL0     N24216   1.222   9.878   9.777  0.4922 -0.1266  0.2330
  180MOL0     N24217   1.176   9.763   9.769  0.4050  0.3313  0.2502
  180MOL0     C24218   0.728   8.690  10.119  0.1746  0.1432  0.9240
  180MOL0     C24219   0.728   8.546  10.114 -0.4198  0.7363 -0.2116
  180MOL0     C24220   0.980   8.140  10.144  0.2500  0.5281 -0.0025
  180MOL0     C24221   0.955   8.121  10.004  0.8196  0.1319  0.3649
  180MOL0     C24222   0.992   7.998   9.939 -0.0428  0.2182 -0.0772
  180MOL0     C24223   1.064   7.904  10.010  0.7252  0.2303 -1.0061
  180MOL0     O24224   1.091   7.786   9.948 -0.3794  0.5588 -0.1113
  180MOL0     C24225   1.145   7.674  10.015  0.1250 -0.3172  0.2527
  180MOL0     C24226   1.146   7.568   9.904  0.6921  0.7098  0.3644
  180MOL0     C24227   1.002   7.541   9.855 -0.9854  0.3131  0.0674
  180MOL0     C24228   0.997   7.443   9.727  0.2718  0.0326 -0.7290
  180MOL0     C24229   1.008   7.308   9.773  0.2041 -0.1877 -0.6036
  180MOL0     C24230   1.033   7.195   9.812  0.0942 -0.3217 -0.1448
  180MOL0     C24231   1.088   7.932  10.142 -0.1696 -0.4064 -0.8002
  180MOL0     C24232   1.057   8.045  10.209  0.5177  0.1562 -0.1894
  180MOL0     H24233   1.031   8.523  10.273  0.4652  2.1597  0.9567
  180MOL0     H24234   1.009   8.749  10.277  0.6536 -1.4287  0.8521
  180MOL0     H24235   0.824   8.956   9.984  0.6649 -2.9183  1.7077
  180MOL0     H24236   0.673   8.971  10.082 -0.6799 -0.2182 -4.2072
  180MOL0     H24237   0.784   9.176  10.193  0.7873 -2.6513  0.1948
  180MOL0     H24238   0.913   9.154  10.083  1.5649 -0.0580  2.9438
  180MOL0     H24239   0.795   9.228   9.904  2.8995 -1.5580  1.5150
  180MOL0     H24240   0.634   9.190   9.981  1.2996  0.2051 -0.3762
  180MOL0     H24241   0.644   9.385  10.124 -1.0257  1.0876 -0.6445
  180MOL0     H24242   0.807   9.409  10.097 -0.1016 -2.2998  1.8231
  180MOL0     H24243   0.581   9.449   9.893 -0.2782  0.9098 -0.7092
  180MOL0     H24244   0.649   9.575  10.008  1.9285  1.5288 -1.7913
  180MOL0     H24245   0.780   9.430   9.772 -1.3157  1.2861 -1.6970
  180MOL0     H24246   0.715   9.580   9.770  1.6999  0.2501 -0.3473
  180MOL0     H24247   0.860   9.671   9.951 -2.1758 -2.7379  1.6385
  180MOL0     H24248   0.963   9.537   9.946  0.4503 -0.4606 -0.8863
  180MOL0     H24249   0.873   9.696   9.704 -1.1056 -4.1313 -0.8296
  180MOL0     H24250   0.989   9.572   9.693 -0.1410 -0.4571 -0.7564
  180MOL0     H24251   0.907   9.942   9.815 -0.4811  0.1577 -2.5297
  180MOL0     H24252   1.224  10.151   9.764 -1.0186 -0.8735 -2.2639
  180MOL0     H24253   1.054  10.187   9.767 -0.2375  1.7279  1.4068
  180MOL0     H24254   1.055  10.187  10.010 -1.4953  1.2392 -2.9431
  180MOL0     H24255   1.185  10.281   9.959 -1.0769 -0.5144  0.7830
  180MOL0     H24256   1.227   9.992  10.034 -0.8150  0.4359 -0.8412
  180MOL0     H24257   1.243  10.139  10.147  4.8817  0.4392  0.8880
  180MOL0     H24258   1.427  10.221  10.001  0.4662  0.3691 -1.7446
  180MOL0     H24259   1.417  10.064   9.910 -2.9063 -1.3691  0.7339
  180MOL0     H24260   1.647  10.237   9.991  2.3888  0.1545 -2.6982
  180MOL0     H24261   1.843  10.323   9.881  0.8418  0.0631  0.0924
  180MOL0     H24262   1.883  10.368  10.050  0.1835 -0.5803 -0.3738
  180MOL0     H24263   1.996  10.288   9.942  0.9395  0.4726 -0.4819
  180MOL0     H24264   2.264   9.753  10.210  0.7957  0.4541  1.1108
  180MOL0     H24265   2.479   9.726  10.289  2.4506 -0.2044 -2.4182
  180MOL0     H24266   2.732  10.124  10.419 -3.4907  1.5615 -0.0848
  180MOL0     H24267   2.619  10.036  10.526 -0.3327  1.8538 -0.5830
  180MOL0     H24268   2.874  10.049  10.600  1.0834 -1.6512 -0.8382
  180MOL0     H24269   2.802   9.886  10.593 -0.5160 -1.1187 -1.7273
  180MOL0     H24270   2.986  10.024  10.399  1.4026 -1.6116 -1.1681
  180MOL0     H24271   2.887   9.889  10.354 -0.5524  0.3159  0.0568
  180MOL0     H24272   3.082   9.884  10.593  3.6895 -2.3087 -1.6616
  180MOL0     H24273   2.996   9.742  10.526  3.3594 -1.8361 -0.1675
  180MOL0     H24274   3.199   9.895  10.370  0.9757  0.3806 -0.9256
  180MOL0     H24275   3.108   9.768  10.315 -0.4912  0.0323  0.0237
  180MOL0     H24276   3.166   9.622  10.506 -3.9005  4.0977  2.8017
  180MOL0     H24277   3.307   9.664  10.395 -2.1930 -2.0647 -1.9616
  180MOL0     H24278   3.252   9.780  10.668  0.5017 -0.2047  1.3139
  180MOL0     H24279   3.380   9.841  10.568  1.4966 -0.7316 -3.3716
  180MOL0     H24280   3.346   9.538  10.651 -1.0803 -0.2650  1.6547
  180MOL0     H24281   3.434   9.637  10.751  0.3286 -5.5745  0.4242
  180MOL0     H24282   2.532  10.144  10.319  0.1771 -0.3149 -1.3959
  180MOL0     H24283   2.320  10.190  10.203  1.4097  0.6732 -0.1046
  180MOL0     H24284   1.890   9.873  10.202  1.7940  1.8598  0.9568
  180MOL0     H24285   1.638   9.855  10.185  1.7363 -2.7896 -0.9221
  180MOL0     H24286   0.643   8.748  10.085 -0.9070 -1.5079  0.6566
  180MOL0     H24287   0.647   8.487  10.074 -1.1589  0.0746  2.1193
  180MOL0     H24288   0.887   8.185   9.948  1.5745  0.3402 -0.3277
  180MOL0     H24289   0.958   7.994   9.836 -2.6928 -1.2162  0.7619
  180MOL0     H24290   1.248   7.701  10.040  0.2275 -2.1632  2.0463
  180MOL0     H24291   1.098   7.660  10.113  0.9356  1.5105  0.9506
  180MOL0     H24292   1.194   7.477   9.942 -1.1134 -0.2417  0.5004
  180MOL0     H24293   1.207   7.602   9.820  0.4506  2.1572  0.7418
  180MOL0     H24294   0.961   7.637   9.821 -3.2203 -1.6830 -3.5366
  180MOL0     H24295   0.934   7.508   9.934  0.1690  2.2124  1.9528
  180MOL0     H24296   1.082   7.463   9.660 -1.1753  1.4990 -2.2153
  180MOL0     H24297   0.902   7.452   9.673 -1.1620 -0.3459  1.6072
  180MOL0     H24298   1.057   7.091   9.821 -0.7549 -0.3893  1.6686
  180MOL0     H24299   1.146   7.863  10.203  1.2089  3.0598  2.1617
  180MOL0     H24300   1.103   8.050  10.307 -1.8381  1.4291  0.9070
  181MOL0     O24301   0.286   7.215   6.579  0.5317  0.3900  0.2778
  181MOL0     C24302   0.190   7.258   6.519  1.2340  0.7199 -0.7720
  181MOL0     O24303   0.094   7.345   6.574  0.5073  0.3699 -1.1317
  181MOL0     C24304   0.105   7.391   6.703 -0.1097 -0.2859 -0.2472
  181MOL0     C24305   0.188   7.496   6.722  0.4080 -0.3790  0.3855
  181MOL0     C24306   0.208   7.553   6.850  0.5425  0.1339 -0.6809
  181MOL0     C24307   0.144   7.496   6.954  0.0292 -0.8543 -0.2728
  181MOL0     O24308   0.163   7.563   7.076  0.0484 -0.1618  0.0702
  181MOL0     C24309   0.054   7.560   7.171  0.8253  0.1683  0.1807
  181MOL0     C24310   0.029   7.707   7.210 -0.1714  0.4606 -0.6231
  181MOL0     C24311   0.077   7.733   7.351  0.1725  0.3666 -0.6120
  181MOL0     C24312  -0.040   7.692   7.430  0.4666  0.2431 -0.0506
  181MOL0     C24313  -0.011   7.705   7.579  0.4557 -0.4649 -0.9619
  181MOL0     C24314  -0.131   7.661   7.666 -0.1548 -0.3618 -0.4361
  181MOL0     C24315  -0.110   7.715   7.800 -0.5668  0.9484 -0.4392
  181MOL0     C24316  -0.235   7.694   7.893 -0.3607 -0.1048  0.7107
  181MOL0     N24317  -0.253   7.553   7.910 -0.0062  0.1003  0.4793
  181MOL0     C24318  -0.185   7.463   7.983  0.0033 -0.3761  0.0728
  181MOL0     C24319  -0.234   7.350   7.945 -0.0461 -0.7525  0.5879
  181MOL0     C24320  -0.177   7.224   8.004  0.2022 -0.4520 -0.7659
  181MOL0     C24321  -0.280   7.144   8.085 -0.0483  0.9498 -0.5379
  181MOL0     C24322  -0.343   7.223   8.192 -0.6598 -0.3876 -0.3929
  181MOL0     C24323  -0.444   7.144   8.275 -0.3668  1.7322 -0.2699
  181MOL0     O24324  -0.468   7.209   8.399  0.5651 -1.2960  0.5700
  181MOL0     C24325  -0.600   7.227   8.427  0.2511 -0.4478 -0.3304
  181MOL0     C24326  -0.615   7.356   8.470  0.9840  0.4887  0.0657
  181MOL0     C24327  -0.742   7.405   8.494 -0.2682 -0.1164 -0.1498
  181MOL0     C24328  -0.753   7.552   8.524 -0.4421 -0.0941  0.8684
  181MOL0     C24329  -0.854   7.322   8.473  0.1549  0.2610  0.0153
  181MOL0     C24330  -1.001   7.360   8.497  0.0654  0.5043  0.6287
  181MOL0     O24331  -1.101   7.278   8.446  0.9376  0.4590  0.7014
  181MOL0     C24332  -1.235   7.297   8.478  0.5510  0.2050 -0.0679
  181MOL0     C24333  -1.301   7.406   8.437  0.2315 -0.1883  0.2423
  181MOL0     C24334  -1.437   7.419   8.467 -0.5543 -0.4375  0.1503
  181MOL0     C24335  -1.510   7.322   8.535  0.0844 -0.4233 -0.2020
  181MOL0     O24336  -1.640   7.331   8.572 -0.1730 -0.0393 -0.1059
  181MOL0     C24337  -1.728   7.417   8.498  0.1431 -0.7255  0.1996
  181MOL0     C24338  -1.865   7.418   8.555 -0.1156  0.2482 -0.6639
  181MOL0     C24339  -1.974   7.508   8.489 -0.2384  0.3959 -0.2228
  181MOL0     C24340  -2.042   7.451   8.369  0.8430 -0.1572 -0.0100
  181MOL0     C24341  -2.153   7.543   8.328  0.2404 -0.1150  0.0138
  181MOL0     C24342  -2.116   7.681   8.265 -0.1792  0.5557  0.5173
  181MOL0     C24343  -2.208   7.716   8.152  0.1543 -0.1907  0.8998
  181MOL0     C24344  -2.244   7.608   8.042 -0.2036  0.3241 -0.8188
  181MOL0    Cl24345  -2.342   7.679   7.907 -0.0668 -0.3942  0.1869
  181MOL0     C24346  -1.442   7.208   8.582  0.3356 -0.0165  1.2003
  181MOL0     C24347  -1.302   7.189   8.552  0.5215 -0.0713 -0.3806
  181MOL0     O24348  -1.018   7.462   8.569 -0.5190 -0.1546  0.3132
  181MOL0     C24349  -0.830   7.193   8.432  0.1202 -0.6766  0.6977
  181MOL0     C24350  -0.703   7.144   8.413 -0.2639  0.6132 -0.5913
  181MOL0     N24351  -0.340   7.365   7.853 -0.0689 -0.0066 -0.2970
  181MOL0     N24352  -0.348   7.492   7.838 -0.9173 -0.1039  0.7796
  181MOL0     C24353   0.082   7.372   6.939  0.0197 -0.2742 -0.7044
  181MOL0     C24354   0.048   7.327   6.810 -0.0377  0.6737  0.4948
  181MOL0     C24355   0.162   7.217   6.386 -0.5507  0.8430  0.2669
  181MOL0     C24356   0.260   7.147   6.319  0.7689 -0.4382  0.4634
  181MOL0     C24357   0.239   7.123   6.178 -0.5235 -0.1226 -0.5784
  181MOL0     C24358   0.129   7.168   6.103 -1.0136 -0.3164  0.4747
  181MOL0     O24359   0.102   7.137   5.971 -0.8990  0.7083 -0.6659
  181MOL0     C24360   0.211   7.081   5.896  0.0762  0.1150  0.0870
  181MOL0     C24361   0.177   7.071   5.742 -0.2414  0.2914 -0.1038
  181MOL0     C24362   0.094   6.935   5.711 -0.1270 -0.1232  0.8471
  181MOL0     C24363   0.033   6.942   5.566 -0.5225  0.0938 -0.1845
  181MOL0     C24364   0.133   6.981   5.464 -1.1058 -0.2420 -0.2160
  181MOL0     C24365   0.228   6.996   5.387  0.6186 -0.4624 -0.4882
  181MOL0     C24366   0.031   7.233   6.186 -0.1349  0.1672 -0.4349
  181MOL0     C24367   0.054   7.263   6.320 -1.0523  0.6662  0.0217
  181MOL0     H24368   0.232   7.539   6.632 -0.6045 -2.0698 -0.9662
  181MOL0     H24369   0.255   7.651   6.858 -1.5982  1.2717 -1.1233
  181MOL0     H24370  -0.040   7.521   7.131 -0.2504  2.6310  0.1296
  181MOL0     H24371   0.074   7.495   7.258 -0.6562  0.6383  0.9065
  181MOL0     H24372   0.088   7.777   7.150  2.2861 -0.4997  0.5111
  181MOL0     H24373  -0.078   7.725   7.201 -1.0880 -2.4154  2.3903
  181MOL0     H24374   0.161   7.666   7.371 -1.3817 -1.7978 -0.9999
  181MOL0     H24375   0.100   7.838   7.368 -3.1776  0.7126  3.2141
  181MOL0     H24376  -0.131   7.751   7.422  0.1470  0.7022  4.4638
  181MOL0     H24377  -0.067   7.589   7.401  0.6666 -0.5339  2.3353
  181MOL0     H24378   0.076   7.641   7.590  0.1558 -0.4634  2.0082
  181MOL0     H24379   0.015   7.809   7.602  3.8259 -1.1918 -1.0172
  181MOL0     H24380  -0.227   7.692   7.624 -0.2010  0.3692  0.1990
  181MOL0     H24381  -0.130   7.552   7.654 -0.9556 -0.1233 -3.6771
  181MOL0     H24382  -0.030   7.668   7.857 -1.4851 -0.4397 -0.2558
  181MOL0     H24383  -0.081   7.820   7.803 -2.4216  1.4846  1.5650
  181MOL0     H24384  -0.321   7.729   7.835  0.4169  0.0094 -0.3796
  181MOL0     H24385  -0.227   7.745   7.989 -1.9952  1.3711  0.1280
  181MOL0     H24386  -0.092   7.481   8.035 -0.4015  0.5585  0.5030
  181MOL0     H24387  -0.142   7.156   7.925 -1.6316  0.6651 -2.6359
  181MOL0     H24388  -0.087   7.244   8.062  0.6922 -3.3592 -0.3427
  181MOL0     H24389  -0.223   7.057   8.119  1.2999  1.2082 -1.9900
  181MOL0     H24390  -0.362   7.116   8.019 -1.4023  0.2769  1.3660
  181MOL0     H24391  -0.394   7.310   8.150 -0.3951  1.4849  2.8029
  181MOL0     H24392  -0.268   7.267   8.259 -0.2302 -2.3706  0.5168
  181MOL0     H24393  -0.423   7.039   8.297 -2.5011  1.8249  2.6938
  181MOL0     H24394  -0.535   7.149   8.214  0.0146  0.6456 -0.9579
  181MOL0     H24395  -0.526   7.413   8.496  0.3922  1.0955  0.7947
  181MOL0     H24396  -0.655   7.600   8.512 -0.2695  0.2678  3.3121
  181MOL0     H24397  -0.817   7.590   8.444  1.4844  1.2773 -0.1014
  181MOL0     H24398  -0.795   7.561   8.624  0.9922 -2.9962  1.8483
  181MOL0     H24399  -1.255   7.494   8.393 -1.5625  0.1760 -1.0006
  181MOL0     H24400  -1.484   7.508   8.427 -2.1096 -1.2382  0.1170
  181MOL0     H24401  -1.687   7.518   8.511 -1.5970 -0.1018  1.1625
  181MOL0     H24402  -1.730   7.389   8.392 -0.3914 -5.5735  1.3006
  181MOL0     H24403  -1.905   7.316   8.562  1.4154 -0.2635  4.7869
  181MOL0     H24404  -1.855   7.451   8.659  2.1428  0.0694 -0.7617
  181MOL0     H24405  -1.923   7.605   8.485  1.1741 -0.2993  0.1152
  181MOL0     H24406  -2.060   7.511   8.556  0.3770  1.0781  0.5729
  181MOL0     H24407  -1.979   7.427   8.283 -1.9943 -2.9290 -1.5731
  181MOL0     H24408  -2.084   7.354   8.400 -1.7521  0.7689 -0.3194
  181MOL0     H24409  -2.224   7.558   8.410  1.2680  1.4733  0.6469
  181MOL0     H24410  -2.200   7.479   8.252 -1.0222  0.7636  0.0176
  181MOL0     H24411  -2.112   7.760   8.340 -0.0898  3.6313 -2.4926
  181MOL0     H24412  -2.015   7.673   8.222 -0.0347 -2.5860  1.1658
  181MOL0     H24413  -2.153   7.791   8.094 -0.0270 -0.5821  0.2132
  181MOL0     H24414  -2.293   7.762   8.203 -1.0910  2.2203 -2.9110
  181MOL0     H24415  -2.312   7.533   8.084 -0.6513  1.1208 -0.0821
  181MOL0     H24416  -2.162   7.555   7.992  0.1835  1.0193 -0.9297
  181MOL0     H24417  -1.503   7.132   8.631 -1.3604  0.7812  0.3985
  181MOL0     H24418  -1.250   7.109   8.604  0.9632 -0.4212 -1.3471
  181MOL0     H24419  -0.906   7.116   8.439 -0.7299  0.2878  3.1548
  181MOL0     H24420  -0.691   7.037   8.405  0.4638  0.6821 -0.4298
  181MOL0     H24421   0.054   7.318   7.029  1.8103 -2.0326 -1.1314
  181MOL0     H24422  -0.007   7.238   6.782  3.1493 -0.5267 -2.7312
  181MOL0     H24423   0.350   7.123   6.375  2.2438  1.3176 -1.0316
  181MOL0     H24424   0.324   7.070   6.136  1.3434  0.9274  1.6500
  181MOL0     H24425   0.286   7.161   5.899 -1.1762  2.0430 -5.9646
  181MOL0     H24426   0.245   6.988   5.941 -2.8929 -0.2300  1.8548
  181MOL0     H24427   0.272   7.053   5.691  0.4104 -0.5563  1.3568
  181MOL0     H24428   0.121   7.161   5.714  0.4018  0.6838 -0.1628
  181MOL0     H24429  -0.001   6.940   5.765 -1.7224  0.0190 -1.7773
  181MOL0     H24430   0.152   6.845   5.732  1.6577  0.8744  0.3808
  181MOL0     H24431  -0.046   7.017   5.557 -0.5305  0.3534  1.7470
  181MOL0     H24432  -0.012   6.844   5.546  0.8212 -0.8983  1.4098
  181MOL0     H24433   0.302   7.000   5.310  0.0704  4.7632 -1.1413
  181MOL0     H24434  -0.055   7.280   6.140 -1.6104 -0.2672  1.7309
  181MOL0     H24435  -0.017   7.330   6.368 -2.2050 -1.1632  0.9896
  182MOL0     O24436   6.916   5.282   9.592  0.5301 -0.1966  0.2504
  182MOL0     C24437   6.809   5.282   9.534 -0.0930  0.0286  0.6903
  182MOL0     O24438   6.748   5.395   9.474 -0.7511 -0.2699  0.2043
  182MOL0     C24439   6.799   5.523   9.478  1.0283 -0.0257  0.7097
  182MOL0     C24440   6.774   5.608   9.363  0.2181 -0.2222 -0.3903
  182MOL0     C24441   6.827   5.743   9.366  0.2917  0.0253 -0.4803
  182MOL0     C24442   6.890   5.793   9.479 -0.0294  0.6298  0.1704
  182MOL0     O24443   6.925   5.922   9.479 -0.4928  0.4753  0.1070
  182MOL0     C24444   7.017   5.968   9.583  0.1584 -0.8306 -0.0454
  182MOL0     C24445   7.072   6.100   9.537  0.3298  0.4984 -0.2754
  182MOL0     C24446   7.215   6.126   9.589 -0.5635  0.3266  0.4351
  182MOL0     C24447   7.241   6.269   9.551  0.2126 -0.4898  0.4515
  182MOL0     C24448   7.378   6.315   9.605  0.3350  0.8068  0.0058
  182MOL0     C24449   7.408   6.447   9.538 -0.4043  0.4370 -0.1749
  182MOL0     C24450   7.530   6.505   9.612 -0.5866 -0.0660 -0.5345
  182MOL0     C24451   7.520   6.661   9.604 -0.2803 -0.3763 -0.3330
  182MOL0     N24452   7.652   6.725   9.627  0.5324 -0.4381 -0.5121
  182MOL0     C24453   7.768   6.723   9.548  0.0680  0.5059 -0.2552
  182MOL0     C24454   7.852   6.807   9.613  0.3689  0.7745  1.1510
  182MOL0     C24455   7.987   6.846   9.570  0.2013  0.1126  0.5214
  182MOL0     C24456   8.085   6.781   9.643 -0.9464 -1.1991 -0.2853
  182MOL0     C24457   8.079   6.631   9.629 -0.5953 -0.3522 -0.1447
  182MOL0     C24458   8.200   6.571   9.694  0.1381  0.7014 -0.2237
  182MOL0     O24459   8.309   6.592   9.611 -0.2639 -0.2551  0.1613
  182MOL0     C24460   8.388   6.484   9.578 -0.2091  0.5775 -0.1696
  182MOL0     C24461   8.411   6.364   9.654 -0.7094  0.4990  0.1632
  182MOL0     C24462   8.516   6.279   9.616  0.1265 -0.3494 -0.9672
  182MOL0     C24463   8.531   6.167   9.715  0.2415 -1.4446  0.0846
  182MOL0     C24464   8.586   6.285   9.494 -0.3850 -0.4735 -0.0641
  182MOL0     C24465   8.687   6.189   9.444 -0.5350 -0.0800 -0.4324
  182MOL0     O24466   8.750   6.216   9.325  0.5643  1.0008  0.1766
  182MOL0     C24467   8.798   6.104   9.260  0.6399 -1.0506  0.7715
  182MOL0     C24468   8.709   6.026   9.186  0.3246  0.5597  0.3279
  182MOL0     C24469   8.751   5.905   9.127 -0.2168 -0.7454  0.0048
  182MOL0     C24470   8.884   5.877   9.122  0.3060  0.6512  0.3572
  182MOL0     O24471   8.918   5.752   9.061 -0.6068  0.3312 -0.2595
  182MOL0     C24472   9.054   5.739   9.014  0.4266 -0.9429 -1.2461
  182MOL0     C24473   9.091   5.591   8.968 -0.3530  0.2328  0.4000
  182MOL0     C24474   9.218   5.582   8.886  0.0531  0.0503 -0.0923
  182MOL0     C24475   9.198   5.624   8.743  0.3681 -0.0298 -0.5814
  182MOL0     C24476   9.320   5.572   8.654  0.3482 -0.3362 -0.3172
  182MOL0     C24477   9.425   5.691   8.642  0.4008  0.7664 -0.6814
  182MOL0     C24478   9.561   5.651   8.573 -0.0442 -0.0721 -0.2680
  182MOL0     C24479   9.542   5.608   8.432  0.6745 -0.3411 -0.2037
  182MOL0    Cl24480   9.516   5.427   8.429  0.5394 -0.3170 -0.5890
  182MOL0     C24481   8.967   5.963   9.191 -0.6024  1.2009 -0.1442
  182MOL0     C24482   8.935   6.072   9.260  0.1907  0.6022  0.4525
  182MOL0     O24483   8.709   6.089   9.507  0.7034 -0.3611  0.0283
  182MOL0     C24484   8.558   6.403   9.420  0.2554  0.2268 -0.1239
  182MOL0     C24485   8.467   6.502   9.462 -1.1646 -0.1435  0.1978
  182MOL0     N24486   7.788   6.866   9.715 -0.2094  0.3551 -0.3920
  182MOL0     N24487   7.664   6.824   9.727 -0.0517  0.1886 -0.1429
  182MOL0     C24488   6.920   5.704   9.586 -0.4621 -0.5841 -0.1980
  182MOL0     C24489   6.874   5.568   9.581  0.2221 -0.9657 -0.3535
  182MOL0     C24490   6.719   5.166   9.557  0.3956 -1.1297 -0.8779
  182MOL0     C24491   6.582   5.171   9.527  0.0564 -0.1922  0.2093
  182MOL0     C24492   6.494   5.068   9.571  0.3145 -0.4246 -0.0380
  182MOL0     C24493   6.540   4.965   9.653  0.2874  0.3816 -0.4498
  182MOL0     O24494   6.467   4.866   9.718  0.4163  0.1186 -0.6471
  182MOL0     C24495   6.329   4.892   9.737  0.3043  0.4242  0.2955
  182MOL0     C24496   6.268   4.773   9.817 -0.2632 -0.5308 -0.1296
  182MOL0     C24497   6.319   4.758   9.968  0.7708 -0.7918 -0.4396
  182MOL0     C24498   6.276   4.623  10.032 -0.5514  0.3416 -0.0651
  182MOL0     C24499   6.332   4.508   9.958 -0.0918 -1.3612  0.4054
  182MOL0     C24500   6.376   4.417   9.891  0.3361 -0.5369  0.7828
  182MOL0     C24501   6.683   4.958   9.670 -0.1361  0.0827  0.5521
  182MOL0     C24502   6.768   5.055   9.620 -0.2811  0.2251  0.0347
  182MOL0     H24503   6.706   5.577   9.285  1.2299 -1.7942 -0.6799
  182MOL0     H24504   6.792   5.805   9.284 -0.7573 -1.9212 -1.5689
  182MOL0     H24505   6.954   5.979   9.672 -0.0788 -0.6679 -0.2291
  182MOL0     H24506   7.096   5.898   9.610  0.0790 -0.7031  0.5329
  182MOL0     H24507   7.080   6.098   9.428 -1.5177  2.0046 -0.4827
  182MOL0     H24508   7.002   6.176   9.574  1.1509  1.2883 -0.3107
  182MOL0     H24509   7.218   6.117   9.698 -0.1357  2.9746  0.7115
  182MOL0     H24510   7.290   6.053   9.558 -2.4488 -1.9143  0.8980
  182MOL0     H24511   7.226   6.283   9.444 -2.6801 -2.8496  0.4236
  182MOL0     H24512   7.169   6.330   9.606  1.8606  1.6387  0.3718
  182MOL0     H24513   7.374   6.317   9.714 -0.2355  1.1039 -0.0183
  182MOL0     H24514   7.444   6.230   9.580  0.1264  0.5460  0.3380
  182MOL0     H24515   7.444   6.432   9.436  1.6163 -0.3409  0.5885
  182MOL0     H24516   7.322   6.514   9.535 -2.7890 -2.1862  2.7290
  182MOL0     H24517   7.546   6.485   9.718  1.8499 -0.1573 -0.8773
  182MOL0     H24518   7.622   6.471   9.564 -0.8336 -0.4170 -0.7672
  182MOL0     H24519   7.453   6.690   9.685 -1.1552  0.2647 -1.2586
  182MOL0     H24520   7.491   6.694   9.504 -1.6068  1.2209  0.5170
  182MOL0     H24521   7.792   6.678   9.453 -0.4247  0.9760 -0.6054
  182MOL0     H24522   7.999   6.815   9.466 -1.5732  5.2476 -1.5412
  182MOL0     H24523   7.989   6.955   9.566  1.4141  0.0550 -1.5935
  182MOL0     H24524   8.074   6.809   9.748  1.4984  3.3431 -0.9602
  182MOL0     H24525   8.183   6.824   9.620 -0.7572 -0.4109  1.7934
  182MOL0     H24526   8.067   6.606   9.524 -0.0792  1.7971 -0.7695
  182MOL0     H24527   7.995   6.596   9.689  0.0702  0.5929  1.4232
  182MOL0     H24528   8.185   6.464   9.711 -0.4027  0.7216 -0.5739
  182MOL0     H24529   8.219   6.605   9.796 -0.5003 -4.5353  1.9417
  182MOL0     H24530   8.352   6.348   9.743 -0.9466  0.2865 -0.0300
  182MOL0     H24531   8.502   6.073   9.667 -6.2002 -0.6500  1.4862
  182MOL0     H24532   8.636   6.166   9.744  0.2548 -3.1017  0.0754
  182MOL0     H24533   8.465   6.168   9.802  1.5216 -0.7817  1.0885
  182MOL0     H24534   8.602   6.045   9.184  0.5377  1.7835 -1.0093
  182MOL0     H24535   8.673   5.858   9.068 -1.6216 -0.0835  1.2665
  182MOL0     H24536   9.077   5.824   8.950 -0.7786  1.8730  1.7703
  182MOL0     H24537   9.120   5.752   9.101 -0.9170  0.1838 -0.3610
  182MOL0     H24538   9.112   5.526   9.054  0.6955  0.6493  0.4670
  182MOL0     H24539   9.013   5.547   8.905  1.9933 -0.6482 -2.1045
  182MOL0     H24540   9.252   5.478   8.893  3.0786  0.9397  0.2632
  182MOL0     H24541   9.297   5.645   8.930  0.0652  1.1167 -1.5668
  182MOL0     H24542   9.106   5.570   8.718 -0.3619  1.2793 -0.8801
  182MOL0     H24543   9.171   5.727   8.716 -2.1533 -0.6565 -0.7343
  182MOL0     H24544   9.288   5.536   8.556 -0.5211  0.1703 -0.2276
  182MOL0     H24545   9.381   5.494   8.700  3.4264  1.1833 -1.5180
  182MOL0     H24546   9.371   5.772   8.594 -0.4817  0.3013 -0.4993
  182MOL0     H24547   9.443   5.717   8.747  1.8002 -1.3867 -0.3110
  182MOL0     H24548   9.602   5.565   8.625 -0.2754  0.2832  0.5218
  182MOL0     H24549   9.642   5.723   8.581  0.0343 -0.0647 -1.0689
  182MOL0     H24550   9.644   5.617   8.395  0.8376  3.4554  0.8156
  182MOL0     H24551   9.459   5.660   8.383  0.6464  0.3406  0.5479
  182MOL0     H24552   9.074   5.948   9.202 -0.6815  1.5972  1.3984
  182MOL0     H24553   9.003   6.127   9.324  1.0809  0.2122 -0.1364
  182MOL0     H24554   8.610   6.423   9.327 -2.2524 -3.0985 -2.5068
  182MOL0     H24555   8.463   6.597   9.409  1.1483  0.2528  0.6495
  182MOL0     H24556   6.969   5.738   9.677  1.1528 -2.9859 -0.0790
  182MOL0     H24557   6.882   5.517   9.676  0.4309  1.3747  0.9755
  182MOL0     H24558   6.534   5.246   9.465 -1.7355 -1.8797 -0.5606
  182MOL0     H24559   6.390   5.097   9.558 -0.8707 -3.6488  1.2951
  182MOL0     H24560   6.319   4.978   9.804 -2.1056  1.0445 -0.7571
  182MOL0     H24561   6.272   4.905   9.645 -1.4317 -1.5812  1.0122
  182MOL0     H24562   6.270   4.678   9.762  0.0440 -2.4803  2.9441
  182MOL0     H24563   6.164   4.803   9.833 -1.2945 -3.1199 -1.4112
  182MOL0     H24564   6.271   4.837  10.027  1.8964 -0.5942  0.2322
  182MOL0     H24565   6.426   4.770   9.987  0.6536 -1.6418  0.8396
  182MOL0     H24566   6.168   4.609  10.043 -0.7416  2.4178  1.3661
  182MOL0     H24567   6.312   4.621  10.135 -0.1344 -0.3126 -0.2220
  182MOL0     H24568   6.418   4.329   9.845  0.5549 -0.2463  0.4221
  182MOL0     H24569   6.734   4.871   9.712 -0.4328 -0.4026 -0.0684
  182MOL0     H24570   6.872   5.058   9.649  0.0431 -1.2635 -0.8876
  183MOL0     O24571   5.719   7.665   4.747  0.3088  0.0887 -1.1767
  183MOL0     C24572   5.684   7.593   4.842  1.3340  0.2270  0.7503
  183MOL0     O24573   5.607   7.487   4.841 -0.6729 -0.0842  1.1771
  183MOL0     C24574   5.545   7.443   4.726  0.2105 -0.5807 -0.0582
  183MOL0     C24575   5.501   7.517   4.614 -0.1127 -0.9496  0.0147
  183MOL0     C24576   5.450   7.445   4.508 -0.8046  0.2016 -0.1402
  183MOL0     C24577   5.419   7.313   4.511 -0.1653  1.0260 -0.9383
  183MOL0     O24578   5.365   7.256   4.398 -0.4110  0.0982 -0.3382
  183MOL0     C24579   5.298   7.127   4.415 -0.4347 -0.7856 -0.3029
  183MOL0     C24580   5.227   7.089   4.287 -0.1581 -0.6284  0.2387
  183MOL0     C24581   5.127   7.198   4.238 -0.1492 -0.6101  0.5339
  183MOL0     C24582   5.047   7.155   4.113  0.3915  0.0260  0.3117
  183MOL0     C24583   5.129   7.170   3.979 -0.0603 -0.0059 -0.1081
  183MOL0     C24584   5.099   7.308   3.921 -0.0710 -0.2779  0.1509
  183MOL0     C24585   5.170   7.325   3.782 -0.0789 -0.6561  0.6259
  183MOL0     C24586   5.105   7.256   3.671  0.0341  0.1747 -0.3447
  183MOL0     N24587   5.161   7.301   3.537  0.0181  0.7453 -0.6230
  183MOL0     C24588   5.238   7.230   3.447 -0.2578  0.4800  0.2425
  183MOL0     C24589   5.264   7.306   3.337  1.0434  0.8983  0.3162
  183MOL0     C24590   5.351   7.271   3.220  0.1292  0.2312 -0.3540
  183MOL0     C24591   5.299   7.158   3.139 -0.7678 -1.2577 -0.6793
  183MOL0     C24592   5.180   7.191   3.047 -0.2795  0.1983  0.2639
  183MOL0     C24593   5.223   7.309   2.944  0.8599  1.1351 -0.1722
  183MOL0     O24594   5.341   7.273   2.879  0.0218  0.5181  0.4094
  183MOL0     C24595   5.387   7.369   2.787 -0.1961 -0.1145  0.0083
  183MOL0     C24596   5.494   7.330   2.708  0.4634 -0.2567  0.6707
  183MOL0     C24597   5.536   7.410   2.591  0.7899 -1.1711 -0.7022
  183MOL0     C24598   5.666   7.366   2.533  0.0470 -0.5902  0.3079
  183MOL0     C24599   5.470   7.530   2.558 -0.2033 -0.9915 -0.4390
  183MOL0     C24600   5.487   7.587   2.426 -0.1481 -0.0163 -0.2968
  183MOL0     O24601   5.436   7.711   2.396  1.0876 -0.5188  0.0198
  183MOL0     C24602   5.430   7.766   2.272 -1.5015 -0.9178  1.1376
  183MOL0     C24603   5.551   7.798   2.199  0.3227 -0.0024  0.2657
  183MOL0     C24604   5.543   7.858   2.072  0.4951  0.4573 -0.7730
  183MOL0     C24605   5.423   7.886   2.008  0.1053 -0.4408 -0.6436
  183MOL0     O24606   5.422   7.942   1.883  0.6792 -0.2663  0.9920
  183MOL0     C24607   5.298   7.994   1.830  0.5970  0.4809  0.4947
  183MOL0     C24608   5.245   7.907   1.716  0.5987  0.0698  0.0418
  183MOL0     C24609   5.120   7.978   1.654 -0.0063 -0.5032  0.1252
  183MOL0     C24610   5.126   7.986   1.499  0.1390 -0.2322  0.6476
  183MOL0     C24611   4.991   8.043   1.448 -0.2876 -0.3828 -0.4222
  183MOL0     C24612   4.961   8.001   1.299  0.0508  0.7700 -0.0201
  183MOL0     C24613   4.820   8.035   1.266  1.1998 -0.6150  1.4291
  183MOL0     C24614   4.770   7.975   1.126  0.1002  0.3599 -0.0637
  183MOL0    Cl24615   4.674   8.094   1.037 -0.2037  0.3199  0.1548
  183MOL0     C24616   5.310   7.839   2.067 -0.6213  0.7436 -0.5672
  183MOL0     C24617   5.317   7.786   2.198 -0.2852  0.1148  0.3885
  183MOL0     O24618   5.514   7.503   2.335 -0.0035  0.5137 -0.3885
  183MOL0     C24619   5.373   7.576   2.649 -0.3091  0.8534 -1.0610
  183MOL0     C24620   5.334   7.493   2.758 -0.1353  0.0694  0.9078
  183MOL0     N24621   5.195   7.421   3.361  0.2164  0.5094 -0.6868
  183MOL0     N24622   5.130   7.421   3.483 -0.8381  0.3743 -0.6487
  183MOL0     C24623   5.444   7.249   4.629  0.4259  0.5960  0.0152
  183MOL0     C24624   5.509   7.310   4.730 -0.7931  0.2768 -0.9666
  183MOL0     C24625   5.758   7.604   4.972 -0.3061 -0.2805 -0.0859
  183MOL0     C24626   5.873   7.681   4.981 -0.7133 -0.3563  0.9532
  183MOL0     C24627   5.956   7.679   5.088 -0.0511  0.3444  0.3274
  183MOL0     C24628   5.939   7.590   5.193 -0.0392 -1.7250  0.2811
  183MOL0     O24629   6.005   7.613   5.310  0.5237  0.1733  0.0984
  183MOL0     C24630   5.989   7.531   5.423  0.0478  0.2735  0.2984
  183MOL0     C24631   6.087   7.556   5.527  0.0511  0.1246 -0.4986
  183MOL0     C24632   6.229   7.548   5.478  0.2883  0.0962 -0.0903
  183MOL0     C24633   6.331   7.594   5.584 -1.1434  0.1258 -0.3721
  183MOL0     C24634   6.469   7.547   5.553  1.3156 -0.3797  0.8550
  183MOL0     C24635   6.585   7.514   5.541  0.9463 -0.0662  0.1527
  183MOL0     C24636   5.828   7.511   5.190 -0.3025  0.1555  1.1321
  183MOL0     C24637   5.738   7.519   5.081 -0.6223 -0.0012 -0.2154
  183MOL0     H24638   5.517   7.624   4.599 -1.6808 -0.7441 -0.3787
  183MOL0     H24639   5.426   7.506   4.421  1.2259  0.4046 -0.6167
  183MOL0     H24640   5.377   7.057   4.444  1.4158  0.8421 -1.1927
  183MOL0     H24641   5.228   7.111   4.497 -1.6842 -1.8360 -1.5070
  183MOL0     H24642   5.302   7.081   4.207 -0.4846 -1.3764  0.0029
  183MOL0     H24643   5.179   6.992   4.304  0.0240 -0.5813  1.0493
  183MOL0     H24644   5.052   7.209   4.317 -4.2634  0.1941 -3.0804
  183MOL0     H24645   5.182   7.288   4.210 -0.3216 -0.8891 -0.7622
  183MOL0     H24646   5.004   7.056   4.129 -2.2346  0.9018 -0.6839
  183MOL0     H24647   4.957   7.218   4.106  1.0045  0.8427 -0.4494
  183MOL0     H24648   5.234   7.156   4.003  0.6508  0.3931 -2.6416
  183MOL0     H24649   5.098   7.086   3.915 -1.7599 -1.5881  2.5878
  183MOL0     H24650   4.991   7.323   3.911 -0.1080 -0.7274 -0.1574
  183MOL0     H24651   5.130   7.386   3.991 -1.3807 -0.1154  0.5877
  183MOL0     H24652   5.185   7.432   3.765  4.3753 -1.5235 -2.9049
  183MOL0     H24653   5.278   7.309   3.785  0.9654  4.4240 -0.0904
  183MOL0     H24654   4.998   7.272   3.654  0.2127 -0.3099 -2.2153
  183MOL0     H24655   5.116   7.147   3.680  1.6651  0.4396  1.7355
  183MOL0     H24656   5.287   7.133   3.452  0.4462  0.8625  1.3953
  183MOL0     H24657   5.359   7.358   3.155  0.6286 -0.1781 -0.8480
  183MOL0     H24658   5.452   7.238   3.248  1.0991  1.7743 -1.8698
  183MOL0     H24659   5.262   7.091   3.217  3.2794  0.1722  2.7897
  183MOL0     H24660   5.380   7.110   3.083 -0.7517 -1.2873 -0.6302
  183MOL0     H24661   5.093   7.229   3.102  1.1589  0.9028  2.1609
  183MOL0     H24662   5.152   7.105   2.987 -1.2996 -1.5478  3.0169
  183MOL0     H24663   5.228   7.405   2.995  0.0133 -0.9754  4.4313
  183MOL0     H24664   5.140   7.311   2.873  0.0906 -1.0262  0.5586
  183MOL0     H24665   5.541   7.235   2.729 -0.2917 -0.2764  2.5239
  183MOL0     H24666   5.748   7.378   2.604  0.6554  0.2033 -0.5094
  183MOL0     H24667   5.662   7.259   2.513 -1.0071 -0.8281  1.6132
  183MOL0     H24668   5.707   7.426   2.451 -0.8617 -0.8739 -0.3689
  183MOL0     H24669   5.649   7.783   2.242  0.6768  1.2563 -0.0464
  183MOL0     H24670   5.636   7.866   2.018  0.6529 -2.3572 -1.0757
  183MOL0     H24671   5.219   8.012   1.903 -0.7402  0.2154 -0.8179
  183MOL0     H24672   5.311   8.100   1.803 -2.1944  0.7568 -0.0210
  183MOL0     H24673   5.321   7.876   1.644 -0.4873 -0.4850 -0.8963
  183MOL0     H24674   5.209   7.820   1.771 -2.0361 -0.4200 -2.2277
  183MOL0     H24675   5.099   8.082   1.682 -0.9255 -0.6536  0.0395
  183MOL0     H24676   5.032   7.921   1.685  0.2295 -0.1893  1.4205
  183MOL0     H24677   5.204   8.058   1.472 -1.3825  0.9045 -0.9298
  183MOL0     H24678   5.140   7.885   1.460 -3.2468 -0.5482 -0.0704
  183MOL0     H24679   4.981   8.151   1.463 -0.5897 -0.2596 -1.4059
  183MOL0     H24680   4.915   7.990   1.506 -0.6037  1.2616  0.7267
  183MOL0     H24681   5.036   8.037   1.228  2.0194  0.0539  1.5749
  183MOL0     H24682   4.962   7.893   1.286 -1.1512  0.9927 -2.4671
  183MOL0     H24683   4.817   8.143   1.254  1.7752 -0.5228  2.0220
  183MOL0     H24684   4.752   8.023   1.351 -1.0768  1.4755  0.0210
  183MOL0     H24685   4.718   7.880   1.144 -1.3834  0.7517 -1.9564
  183MOL0     H24686   4.858   7.959   1.063  0.6595 -1.1157  1.0088
  183MOL0     H24687   5.208   7.841   2.031 -0.8094 -0.1243 -0.1064
  183MOL0     H24688   5.224   7.770   2.252  0.2151 -0.8321  1.0006
  183MOL0     H24689   5.331   7.676   2.640 -0.2327  0.9982  0.1156
  183MOL0     H24690   5.267   7.548   2.823  2.5403  1.2707  2.8648
  183MOL0     H24691   5.431   7.142   4.643 -3.3440  0.3773 -3.5651
  183MOL0     H24692   5.534   7.254   4.820 -2.1046 -0.3141 -0.9398
  183MOL0     H24693   5.887   7.756   4.904 -1.8786  1.9855  2.8810
  183MOL0     H24694   6.041   7.747   5.077 -0.2540  0.1909 -3.9121
  183MOL0     H24695   5.884   7.548   5.447 -0.3089 -0.6792 -0.4967
  183MOL0     H24696   5.989   7.425   5.396 -0.6236  0.8123 -2.0920
  183MOL0     H24697   6.078   7.485   5.610  0.3667 -1.0259 -1.4285
  183MOL0     H24698   6.068   7.657   5.563 -0.4218 -0.4931  1.0624
  183MOL0     H24699   6.236   7.601   5.382 -0.9810 -1.8960 -1.3505
  183MOL0     H24700   6.253   7.445   5.453 -1.4620 -0.9850  2.2819
  183MOL0     H24701   6.295   7.537   5.670 -0.7719 -1.8519 -1.4496
  183MOL0     H24702   6.319   7.700   5.605 -0.2395  0.3874 -1.1101
  183MOL0     H24703   6.683   7.469   5.537  0.4677 -1.3652  1.8262
  183MOL0     H24704   5.798   7.454   5.277 -1.2371 -1.2852 -0.0699
  183MOL0     H24705   5.646   7.463   5.076  0.3207 -1.8041  1.4543
  184MOL0     O24706   1.703  10.179   5.335 -0.6323  0.9624 -0.9216
  184MOL0     C24707   1.809  10.163   5.269  0.5640 -0.2504 -0.0873
  184MOL0     O24708   1.826  10.069   5.176  0.0246 -0.5470 -0.1440
  184MOL0     C24709   1.724   9.982   5.152  0.0918  0.4680  0.1151
  184MOL0     C24710   1.592  10.017   5.122 -0.3227  0.1205 -0.6566
  184MOL0     C24711   1.508   9.908   5.088 -0.0589 -0.1393 -0.3547
  184MOL0     C24712   1.538   9.774   5.098 -0.4089 -0.0730  0.0259
  184MOL0     O24713   1.447   9.673   5.070  0.8038  0.3658  0.3596
  184MOL0     C24714   1.307   9.709   5.103 -0.6586  0.0299 -0.8542
  184MOL0     C24715   1.238   9.743   4.972  0.0111 -0.2423 -0.4492
  184MOL0     C24716   1.231   9.638   4.863  0.4274  0.2806  0.0852
  184MOL0     C24717   1.163   9.704   4.741  0.2676 -0.1394 -0.1765
  184MOL0     C24718   1.143   9.603   4.622  0.1986  0.0821 -0.6711
  184MOL0     C24719   1.263   9.518   4.586 -0.2852  0.4116 -0.3788
  184MOL0     C24720   1.231   9.431   4.457  0.1442 -0.4235 -0.3766
  184MOL0     C24721   1.342   9.328   4.442 -0.2745 -0.8074 -0.0975
  184MOL0     N24722   1.327   9.221   4.540 -0.1592 -1.1683  0.1068
  184MOL0     C24723   1.245   9.112   4.532  0.0057  0.6998 -0.9244
  184MOL0     C24724   1.288   9.026   4.636 -0.5244 -0.4299  0.3308
  184MOL0     C24725   1.226   8.885   4.655  0.4478  0.0741  0.6454
  184MOL0     C24726   1.313   8.768   4.619  0.2807  0.7225 -0.2739
  184MOL0     C24727   1.441   8.755   4.692  0.4164  0.0950  0.6013
  184MOL0     C24728   1.412   8.700   4.837  0.2737  0.0078 -0.9048
  184MOL0     O24729   1.534   8.641   4.870 -0.2553 -0.3970  0.2771
  184MOL0     C24730   1.548   8.504   4.885 -0.7462 -1.2892  0.0621
  184MOL0     C24731   1.483   8.404   4.812 -0.3683  0.7118 -0.6260
  184MOL0     C24732   1.499   8.261   4.839 -0.2568  0.5446  0.7582
  184MOL0     C24733   1.399   8.176   4.765 -0.0318  0.0308 -0.9594
  184MOL0     C24734   1.603   8.230   4.926  0.3591  0.7070 -0.0559
  184MOL0     C24735   1.636   8.093   4.946 -0.3347  0.7522  0.6714
  184MOL0     O24736   1.584   7.992   4.878 -0.4470  0.1504  0.5381
  184MOL0     C24737   1.635   7.871   4.893  0.1561 -0.7981 -1.1076
  184MOL0     C24738   1.553   7.763   4.905  0.4685  0.5947  0.2192
  184MOL0     C24739   1.598   7.622   4.926 -0.0089 -0.2082  1.4054
  184MOL0     C24740   1.732   7.602   4.919  0.6001 -0.0410 -0.3415
  184MOL0     O24741   1.793   7.474   4.916  1.1097 -0.5647  0.3766
  184MOL0     C24742   1.724   7.374   4.982 -0.1543 -0.6034 -0.1452
  184MOL0     C24743   1.808   7.250   4.978  0.7069  0.0884  0.7507
  184MOL0     C24744   1.729   7.131   5.027  0.4547  0.1481  0.3560
  184MOL0     C24745   1.816   7.005   5.009 -0.3904 -1.3822  0.6778
  184MOL0     C24746   1.744   6.892   5.094 -0.4645 -0.6086  0.3625
  184MOL0     C24747   1.612   6.838   5.030  0.3399 -0.3475  0.2150
  184MOL0     C24748   1.584   6.694   5.045  0.4683 -0.4654  0.4760
  184MOL0     C24749   1.687   6.607   4.987  0.3173 -0.3424  0.7869
  184MOL0    Cl24750   1.669   6.431   5.017 -0.6388 -0.1303  0.0435
  184MOL0     C24751   1.816   7.710   4.884 -0.2837 -0.2091 -0.2312
  184MOL0     C24752   1.770   7.846   4.873  0.1510 -0.0920  0.4168
  184MOL0     O24753   1.729   8.075   5.025 -0.3218 -0.0245  0.1070
  184MOL0     C24754   1.675   8.333   4.996 -0.1158  0.1047  0.2773
  184MOL0     C24755   1.643   8.465   4.976 -0.3413 -0.5583  0.1050
  184MOL0     N24756   1.382   9.093   4.699  0.6067 -0.1441 -0.2413
  184MOL0     N24757   1.413   9.202   4.642  0.5379  0.3419  0.5088
  184MOL0     C24758   1.670   9.751   5.143 -0.2465 -0.2865  0.9111
  184MOL0     C24759   1.766   9.850   5.161  0.0508  0.2694 -0.0311
  184MOL0     C24760   1.917  10.261   5.281  0.2891  0.4387  0.3051
  184MOL0     C24761   2.050  10.229   5.255  0.0814 -0.0445  0.1652
  184MOL0     C24762   2.160  10.325   5.271 -0.6276  0.0129 -0.9642
  184MOL0     C24763   2.131  10.452   5.329  0.3004 -0.0038 -0.7843
  184MOL0     O24764   2.227  10.549   5.344 -0.2122 -0.5972  0.4410
  184MOL0     C24765   2.369  10.514   5.349 -0.8500  0.3681 -0.2001
  184MOL0     C24766   2.465  10.633   5.349 -0.1420  0.9090  0.1658
  184MOL0     C24767   2.457  10.724   5.477  0.5540 -0.5975 -0.3829
  184MOL0     C24768   2.547  10.696   5.595 -0.0348  0.4085  0.2105
  184MOL0     C24769   2.676  10.763   5.578  0.1183 -1.3466  0.2480
  184MOL0     C24770   2.776  10.823   5.558 -1.1868 -0.3683  0.7050
  184MOL0     C24771   1.997  10.476   5.364 -0.3948  0.1397  1.2463
  184MOL0     C24772   1.894  10.389   5.336 -0.1732 -0.2520 -1.0491
  184MOL0     H24773   1.557  10.119   5.127 -0.1522  0.1770 -0.6197
  184MOL0     H24774   1.408   9.941   5.064  0.7166  2.1210 -0.7299
  184MOL0     H24775   1.260   9.622   5.148 -0.8854  0.4878 -0.1983
  184MOL0     H24776   1.311   9.787   5.180  3.3286 -3.7930  3.4167
  184MOL0     H24777   1.139   9.768   5.012 -1.2938 -0.6621 -3.1622
  184MOL0     H24778   1.277   9.835   4.926  1.1940  0.4692  1.8516
  184MOL0     H24779   1.332   9.610   4.829 -0.1838 -0.5191 -1.1477
  184MOL0     H24780   1.164   9.552   4.869 -1.2095  0.7775 -5.3119
  184MOL0     H24781   1.062   9.731   4.775 -0.5937 -0.4968 -2.3010
  184MOL0     H24782   1.216   9.792   4.705  1.2079 -0.9773 -0.8695
  184MOL0     H24783   1.057   9.538   4.637 -0.7765  1.2570 -0.9635
  184MOL0     H24784   1.116   9.655   4.530  0.8357  1.4567 -0.1131
  184MOL0     H24785   1.343   9.586   4.556  0.7852 -0.4823  0.3557
  184MOL0     H24786   1.287   9.445   4.664 -2.8678  0.2109  0.2976
  184MOL0     H24787   1.134   9.381   4.463  1.0677 -2.3717 -0.8416
  184MOL0     H24788   1.231   9.509   4.381  0.8598  1.8227  1.8089
  184MOL0     H24789   1.440   9.376   4.454 -0.9215  0.6573 -0.4869
  184MOL0     H24790   1.323   9.296   4.339  0.9494 -0.7814 -0.3457
  184MOL0     H24791   1.162   9.099   4.464 -1.8765 -1.4432  1.5449
  184MOL0     H24792   1.211   8.875   4.763 -1.3666 -6.2263  0.1997
  184MOL0     H24793   1.127   8.882   4.608 -0.3603  1.7478  2.1222
  184MOL0     H24794   1.335   8.785   4.513 -1.9957  3.0382 -0.5077
  184MOL0     H24795   1.254   8.676   4.628 -1.6749  1.2834 -4.5184
  184MOL0     H24796   1.497   8.846   4.714  1.8676 -1.4704  4.1795
  184MOL0     H24797   1.506   8.689   4.636 -0.3832 -0.0245 -0.2061
  184MOL0     H24798   1.331   8.627   4.844 -0.4154  0.7369 -1.1141
  184MOL0     H24799   1.386   8.784   4.902 -1.6717  1.5767 -3.5589
  184MOL0     H24800   1.412   8.443   4.739 -0.0590 -1.9706 -2.5296
  184MOL0     H24801   1.450   8.145   4.673 -1.9849 -1.4267 -1.6121
  184MOL0     H24802   1.379   8.086   4.822  1.6897  0.4044  0.3122
  184MOL0     H24803   1.311   8.235   4.737  1.6150  4.0826  1.5244
  184MOL0     H24804   1.450   7.774   4.875  0.1051 -1.3649  0.6276
  184MOL0     H24805   1.524   7.543   4.933  1.3494 -1.4413  2.3444
  184MOL0     H24806   1.709   7.407   5.085 -2.4062  3.1466 -1.4785
  184MOL0     H24807   1.636   7.357   4.919 -0.8950  2.2608 -0.0438
  184MOL0     H24808   1.841   7.253   4.874 -1.5585 -0.0675 -0.0085
  184MOL0     H24809   1.899   7.260   5.039 -1.1865  0.2544  3.7609
  184MOL0     H24810   1.641   7.119   4.964  2.1140  1.8589 -2.4907
  184MOL0     H24811   1.690   7.157   5.126  0.1620  0.0455  0.2665
  184MOL0     H24812   1.826   6.973   4.905 -3.0511 -5.5928  1.4817
  184MOL0     H24813   1.921   7.031   5.029  0.3618 -2.9576 -0.9323
  184MOL0     H24814   1.732   6.919   5.199  2.2970 -2.0409  1.1499
  184MOL0     H24815   1.824   6.817   5.101  0.8934  0.7570 -0.1577
  184MOL0     H24816   1.534   6.898   5.078  1.8107  0.6720  1.4638
  184MOL0     H24817   1.621   6.864   4.924  1.4026  0.4946  0.4889
  184MOL0     H24818   1.482   6.671   5.011  0.3504 -0.9617  1.1376
  184MOL0     H24819   1.580   6.692   5.154 -0.4220  1.1768  0.5016
  184MOL0     H24820   1.783   6.631   5.032 -0.0050  2.6304  0.0584
  184MOL0     H24821   1.686   6.623   4.879 -0.3300 -1.8637  0.5408
  184MOL0     H24822   1.917   7.700   4.844  0.4894  6.0304 -0.7271
  184MOL0     H24823   1.840   7.926   4.849  2.1455 -2.3733 -1.8486
  184MOL0     H24824   1.756   8.295   5.058  0.9789 -3.1830 -2.8339
  184MOL0     H24825   1.699   8.544   5.025 -0.5695 -2.6415  4.1060
  184MOL0     H24826   1.699   9.656   5.187  0.9219  0.8402  2.6873
  184MOL0     H24827   1.863   9.817   5.196 -0.1614  2.1705  2.6259
  184MOL0     H24828   2.071  10.138   5.200 -2.7996 -0.8636  0.2535
  184MOL0     H24829   2.261  10.308   5.235  0.2845 -0.7303  1.7134
  184MOL0     H24830   2.390  10.445   5.431  1.1092 -1.3795 -2.0284
  184MOL0     H24831   2.393  10.465   5.254  2.7496  0.6733  0.4081
  184MOL0     H24832   2.440  10.697   5.263 -2.6674 -2.0959 -1.5868
  184MOL0     H24833   2.563  10.594   5.322 -1.1501 -1.9029  0.2204
  184MOL0     H24834   2.353  10.718   5.511  1.2216 -0.2977  1.8777
  184MOL0     H24835   2.463  10.827   5.441  1.3987 -0.6958 -0.5307
  184MOL0     H24836   2.552  10.588   5.611 -2.7686  0.2095  0.1824
  184MOL0     H24837   2.499  10.732   5.686  1.2414 -1.6270  1.7911
  184MOL0     H24838   2.859  10.869   5.510 -0.7886 -1.5774  0.1898
  184MOL0     H24839   1.966  10.567   5.414  0.6032 -0.1181  2.3848
  184MOL0     H24840   1.792  10.409   5.368 -0.6975 -1.8297 -1.6139
  185MOL0     O24841   1.312   1.499   0.259 -0.6100  0.1492 -0.1973
  185MOL0     C24842   1.380   1.558   0.338 -1.3604 -0.1504 -0.0691
  185MOL0     O24843   1.338   1.590   0.459  0.4366 -0.1925 -0.3762
  185MOL0     C24844   1.211   1.556   0.495  0.6098 -0.3739 -0.3588
  185MOL0     C24845   1.108   1.653   0.480 -1.3262 -0.2323 -0.0960
  185MOL0     C24846   0.981   1.635   0.524  0.2275  0.7338 -0.2271
  185MOL0     C24847   0.944   1.522   0.597 -0.0527 -0.6390 -1.2388
  185MOL0     O24848   0.818   1.532   0.649  0.2231 -0.3755 -0.3370
  185MOL0     C24849   0.755   1.405   0.687 -0.2852  0.0250  0.0180
  185MOL0     C24850   0.605   1.396   0.672 -0.3026 -0.8651 -0.3036
  185MOL0     C24851   0.580   1.360   0.524 -0.1327 -0.0493  0.0822
  185MOL0     C24852   0.448   1.282   0.510  0.5277 -1.0255  0.4760
  185MOL0     C24853   0.413   1.235   0.363 -1.1496 -0.4264  0.2025
  185MOL0     C24854   0.522   1.142   0.317  0.7725  0.3314 -0.4842
  185MOL0     C24855   0.472   1.061   0.190 -0.7158 -0.2065  0.5278
  185MOL0     C24856   0.380   0.936   0.216 -0.3441 -0.3226 -0.2783
  185MOL0     N24857   0.426   0.852   0.326  1.5608 -0.1472  0.0290
  185MOL0     C24858   0.523   0.754   0.321 -0.7836 -0.3669  0.4101
  185MOL0     C24859   0.521   0.691   0.439  0.6923 -0.2940  0.3460
  185MOL0     C24860   0.618   0.578   0.476 -0.5087  0.3297 -0.7689
  185MOL0     C24861   0.692   0.510   0.369 -0.1053  0.7350  0.2685
  185MOL0     C24862   0.610   0.393   0.308  0.0673  0.2652  0.1195
  185MOL0     C24863   0.501   0.435   0.219  0.5896  0.3974  0.6178
  185MOL0     O24864   0.562   0.480   0.098  0.4566 -0.1796 -0.3607
  185MOL0     C24865   0.483   0.575   0.026  0.4176  0.1510 -0.0939
  185MOL0     C24866   0.337   0.562   0.029 -0.0508  0.4873 -0.0346
  185MOL0     C24867   0.260   0.664  -0.032  0.5637  0.4800 -0.4416
  185MOL0     C24868   0.109   0.645  -0.005  0.1023 -0.0152 -0.5035
  185MOL0     C24869   0.318   0.764  -0.108  0.1549 -0.2082 -0.1810
  185MOL0     C24870   0.245   0.867  -0.188 -0.1119  0.3867  0.5540
  185MOL0     O24871   0.317   0.984  -0.200  0.5670  0.8459 -0.0236
  185MOL0     C24872   0.258   1.101  -0.239  0.0208 -0.0365 -0.3152
  185MOL0     C24873   0.132   1.115  -0.300 -0.5352  0.5268  0.5883
  185MOL0     C24874   0.093   1.235  -0.354  0.3856 -0.3560  0.0057
  185MOL0     C24875   0.180   1.353  -0.351  0.3298  1.3271  0.0410
  185MOL0     O24876   0.128   1.468  -0.404  0.6349  1.3257  0.2793
  185MOL0     C24877   0.207   1.540  -0.498  0.4554 -1.1585  0.2261
  185MOL0     C24878   0.285   1.666  -0.451  0.3484 -0.2611 -0.9094
  185MOL0     C24879   0.187   1.776  -0.396 -0.2394 -0.1314 -0.4749
  185MOL0     C24880   0.033   1.753  -0.410 -0.1431 -0.7814 -0.7253
  185MOL0     C24881  -0.058   1.850  -0.337  1.2335 -0.0442  1.1399
  185MOL0     C24882  -0.046   2.010  -0.365  0.1156 -0.1523  0.6537
  185MOL0     C24883  -0.168   2.092  -0.402  0.2053  0.1881  0.3505
  185MOL0     C24884  -0.206   2.081  -0.558 -0.2599 -0.2933  0.0059
  185MOL0    Cl24885  -0.271   1.910  -0.591  0.2692  0.2574  0.0477
  185MOL0     C24886   0.307   1.338  -0.296  0.0832 -0.3594  0.0229
  185MOL0     C24887   0.341   1.209  -0.248 -0.6140  0.3182 -0.0829
  185MOL0     O24888   0.137   0.838  -0.235 -0.0813  0.0330  0.3989
  185MOL0     C24889   0.456   0.760  -0.125 -0.3673 -0.1777 -1.1362
  185MOL0     C24890   0.540   0.671  -0.054  0.2840  1.3031  0.3017
  185MOL0     N24891   0.422   0.757   0.518  1.1593  0.1128  0.2258
  185MOL0     N24892   0.377   0.854   0.453  0.7316  0.7948  1.4383
  185MOL0     C24893   1.050   1.436   0.629  0.6189  0.3373  0.9868
  185MOL0     C24894   1.182   1.452   0.575  0.6389 -0.1837  0.6440
  185MOL0     C24895   1.508   1.626   0.297 -0.4073 -0.2634 -0.2845
  185MOL0     C24896   1.573   1.596   0.171 -0.0130 -0.5221 -0.1294
  185MOL0     C24897   1.685   1.671   0.127  0.5287 -0.1710 -0.3565
  185MOL0     C24898   1.744   1.754   0.219 -0.1578  0.4306 -0.2990
  185MOL0     O24899   1.868   1.815   0.207  0.3803 -0.7424 -0.1219
  185MOL0     C24900   1.941   1.781   0.082  0.5905 -0.6526 -0.2327
  185MOL0     C24901   2.037   1.905   0.052  0.8444 -0.0862 -0.2439
  185MOL0     C24902   2.138   1.875  -0.057 -0.0438 -1.1543 -0.6881
  185MOL0     C24903   2.134   1.969  -0.181  0.2923  0.5572  0.5681
  185MOL0     C24904   2.264   1.976  -0.245 -0.5303 -0.8162 -0.2667
  185MOL0     C24905   2.371   1.980  -0.296 -0.2885 -0.3402 -0.3228
  185MOL0     C24906   1.685   1.788   0.338  1.0521  0.0179  0.5205
  185MOL0     C24907   1.556   1.733   0.370  0.8772 -1.1166  0.3499
  185MOL0     H24908   1.131   1.752   0.441 -3.4595  0.7627  0.9816
  185MOL0     H24909   0.908   1.715   0.523 -0.8057 -0.1765  0.3588
  185MOL0     H24910   0.805   1.315   0.650 -0.0080 -0.5123  1.6237
  185MOL0     H24911   0.773   1.399   0.795  0.6296  0.3294 -0.1147
  185MOL0     H24912   0.569   1.325   0.748  0.8348 -1.8188 -0.6298
  185MOL0     H24913   0.567   1.497   0.689 -1.9841 -1.3098 -1.1860
  185MOL0     H24914   0.565   1.450   0.462  1.0513 -1.1800 -1.9547
  185MOL0     H24915   0.659   1.303   0.474 -1.3089  0.4158 -2.5020
  185MOL0     H24916   0.456   1.190   0.568  0.7288 -0.1499  1.8750
  185MOL0     H24917   0.366   1.340   0.552 -2.1850 -2.7030 -2.0438
  185MOL0     H24918   0.314   1.189   0.355 -1.8255  1.1644 -1.0701
  185MOL0     H24919   0.410   1.323   0.299  1.3009  1.7331  2.8115
  185MOL0     H24920   0.610   1.198   0.285 -0.2471  2.5891  0.4212
  185MOL0     H24921   0.549   1.066   0.391 -3.9318 -2.4484 -1.1670
  185MOL0     H24922   0.423   1.130   0.121 -0.3008  0.2060  0.6395
  185MOL0     H24923   0.566   1.027   0.144 -0.1705  1.0410  0.6521
  185MOL0     H24924   0.375   0.884   0.120 -1.9327  2.4300 -1.8122
  185MOL0     H24925   0.278   0.973   0.230 -0.6355 -0.9833 -0.5945
  185MOL0     H24926   0.591   0.733   0.239  0.9211 -3.8723  2.4674
  185MOL0     H24927   0.691   0.615   0.548  0.9631 -1.2972 -1.3760
  185MOL0     H24928   0.577   0.495   0.534  3.4590 -1.3146 -0.0137
  185MOL0     H24929   0.783   0.475   0.420 -1.0680 -1.3431  0.6633
  185MOL0     H24930   0.731   0.584   0.298 -1.7792  0.3323 -1.1131
  185MOL0     H24931   0.560   0.349   0.395  1.5069 -0.4551  0.6126
  185MOL0     H24932   0.669   0.322   0.250 -0.0246  2.0270 -2.2421
  185MOL0     H24933   0.445   0.514   0.269  1.1654  3.0583 -2.5489
  185MOL0     H24934   0.434   0.355   0.187  1.1855  0.8615 -2.0616
  185MOL0     H24935   0.276   0.492   0.085 -1.1909 -1.6312 -3.6097
  185MOL0     H24936   0.095   0.605   0.096  3.0684 -1.9174 -0.7172
  185MOL0     H24937   0.058   0.742  -0.006  1.7985  0.9126  0.0931
  185MOL0     H24938   0.063   0.579  -0.080 -0.4358  0.1288 -0.3074
  185MOL0     H24939   0.055   1.039  -0.311 -0.1886  0.3837 -1.3446
  185MOL0     H24940  -0.006   1.241  -0.399 -0.0120 -1.7458  0.6483
  185MOL0     H24941   0.271   1.474  -0.557 -0.7383  0.4712 -3.1261
  185MOL0     H24942   0.133   1.586  -0.563  0.1460 -0.9291  0.7285
  185MOL0     H24943   0.353   1.635  -0.371  1.9929 -0.0776 -2.1815
  185MOL0     H24944   0.347   1.706  -0.531 -0.6962 -0.2566 -1.7223
  185MOL0     H24945   0.214   1.876  -0.431  0.1542  0.3677  1.1879
  185MOL0     H24946   0.208   1.771  -0.289 -2.2471 -0.3762 -0.0528
  185MOL0     H24947   0.003   1.763  -0.515  0.5029  1.8301 -0.7102
  185MOL0     H24948   0.002   1.651  -0.383  0.2628 -0.9065 -0.7237
  185MOL0     H24949  -0.037   1.853  -0.229  2.5637 -3.7659  1.1323
  185MOL0     H24950  -0.162   1.822  -0.356  0.9060  0.6439  1.8637
  185MOL0     H24951  -0.011   2.060  -0.274 -2.4748 -2.0444  2.8672
  185MOL0     H24952   0.008   2.038  -0.456 -3.5803  2.5302 -0.9771
  185MOL0     H24953  -0.157   2.198  -0.380  1.4343  0.0082  0.6853
  185MOL0     H24954  -0.255   2.052  -0.348 -1.3490 -0.6344 -2.5223
  185MOL0     H24955  -0.127   2.111  -0.627 -0.0757 -0.2414  0.2383
  185MOL0     H24956  -0.293   2.142  -0.582 -0.6872 -1.6839 -2.3045
  185MOL0     H24957   0.375   1.422  -0.283  1.1939 -1.2077 -0.0992
  185MOL0     H24958   0.441   1.198  -0.208 -0.1329 -0.7517 -1.4731
  185MOL0     H24959   0.492   0.832  -0.197 -0.6614  0.5514 -0.5730
  185MOL0     H24960   0.648   0.678  -0.063  0.3138  2.2605  1.1609
  185MOL0     H24961   1.056   1.356   0.702  3.6782  0.6197  1.1769
  185MOL0     H24962   1.256   1.381   0.613  0.0348 -1.4676 -0.4842
  185MOL0     H24963   1.527   1.511   0.122  0.9129 -0.6179 -0.8612
  185MOL0     H24964   1.726   1.640   0.032 -0.8914  2.4755 -1.9722
  185MOL0     H24965   1.997   1.688   0.091 -1.1495 -1.5646  4.2564
  185MOL0     H24966   1.863   1.777   0.005 -0.9875 -2.0671  1.3248
  185MOL0     H24967   2.082   1.943   0.145  1.9863 -4.6145  1.3202
  185MOL0     H24968   1.970   1.977   0.006 -1.5611 -2.1970 -0.2345
  185MOL0     H24969   2.122   1.771  -0.087  1.3412 -1.7928  0.6238
  185MOL0     H24970   2.234   1.874  -0.003 -0.5725  0.3685  0.3296
  185MOL0     H24971   2.103   2.070  -0.152 -4.6397 -1.3176  2.9016
  185MOL0     H24972   2.053   1.935  -0.246  0.2860  1.3062  0.1706
  185MOL0     H24973   2.469   1.989  -0.338  0.1454  2.7330  1.0621
  185MOL0     H24974   1.731   1.867   0.397  3.6408  1.2643 -2.7870
  185MOL0     H24975   1.509   1.762   0.463 -2.5888 -0.1127 -1.5405
  186MOL0     O24976  10.747   6.864   9.387 -0.4915  0.0066  0.6850
  186MOL0     C24977  10.735   6.988   9.376  0.1028 -0.2046 -0.2799
  186MOL0     O24978  10.648   7.074   9.450 -0.0677 -0.5808  0.0390
  186MOL0     C24979  10.539   7.012   9.496  0.5466  0.2778 -0.2192
  186MOL0     C24980  10.526   6.981   9.639  0.0617  0.7790  0.0411
  186MOL0     C24981  10.403   6.932   9.685 -0.2880  0.6685 -0.0178
  186MOL0     C24982  10.288   6.920   9.596  0.3901 -0.0342  0.8781
  186MOL0     O24983  10.156   6.868   9.621 -0.0302 -0.7023 -0.6230
  186MOL0     C24984  10.127   6.834   9.756  0.4397  0.1060  0.1095
  186MOL0     C24985   9.990   6.777   9.763 -0.3858  0.7607  0.1167
  186MOL0     C24986   9.881   6.873   9.726  1.2523 -0.1275 -0.2310
  186MOL0     C24987   9.742   6.809   9.686 -0.6053  0.1472  0.0388
  186MOL0     C24988   9.705   6.695   9.783  0.9741  0.5729 -0.4275
  186MOL0     C24989   9.558   6.654   9.752 -0.6538 -0.5800 -0.6353
  186MOL0     C24990   9.549   6.554   9.640 -1.3662 -1.0246  0.0644
  186MOL0     C24991   9.551   6.407   9.677 -0.3122  0.7334 -0.8686
  186MOL0     N24992   9.412   6.364   9.712 -0.3099 -0.0683 -0.3633
  186MOL0     C24993   9.313   6.308   9.633 -0.3353 -0.2726  0.3195
  186MOL0     C24994   9.196   6.291   9.709  0.5960 -1.3134  0.5683
  186MOL0     C24995   9.061   6.251   9.643  0.2980 -0.7155  0.7460
  186MOL0     C24996   9.001   6.366   9.562 -0.5155  0.4585  0.4569
  186MOL0     C24997   8.946   6.489   9.644  0.3051  0.8162  0.2432
  186MOL0     C24998   8.858   6.453   9.760 -0.1336  1.3115  1.4117
  186MOL0     O24999   8.760   6.556   9.792 -0.3015  0.8769 -0.0182
  186MOL0     C25000   8.649   6.517   9.877  0.4296 -0.0089  0.2938
  186MOL0     C25001   8.635   6.398   9.952  0.1747  0.4502 -1.0828
  186MOL0     C25002   8.528   6.359  10.017  0.4442  0.4794 -0.0161
  186MOL0     C25003   8.523   6.225  10.091 -0.2877 -0.2163  0.3752
  186MOL0     C25004   8.421   6.454  10.029  0.1762 -0.9632  0.3431
  186MOL0     C25005   8.287   6.421  10.101 -0.1129  0.2390 -0.2527
  186MOL0     O25006   8.291   6.334  10.210 -0.3598  0.4277 -0.2057
  186MOL0     C25007   8.175   6.308  10.281 -0.0188 -0.8730 -0.3679
  186MOL0     C25008   8.111   6.415  10.351 -0.5782 -0.2135  1.2371
  186MOL0     C25009   8.003   6.391  10.428  0.3533  0.9216 -1.3162
  186MOL0     C25010   7.953   6.262  10.442  0.6014 -0.5331 -1.2021
  186MOL0     O25011   7.838   6.233  10.516  0.4911 -0.0938 -0.0033
  186MOL0     C25012   7.716   6.292  10.479  0.4686 -0.2990  0.4021
  186MOL0     C25013   7.649   6.195  10.384  0.7580 -0.4574  0.8488
  186MOL0     C25014   7.629   6.062  10.455 -0.4946 -1.3257  0.6128
  186MOL0     C25015   7.549   5.955  10.383 -0.5136  0.4681  0.3205
  186MOL0     C25016   7.534   5.825  10.467 -0.6570  0.1909  0.1105
  186MOL0     C25017   7.424   5.729  10.403 -0.3325  0.4748  0.5777
  186MOL0     C25018   7.447   5.589  10.483 -0.1502 -0.0628 -0.1133
  186MOL0     C25019   7.320   5.501  10.478 -0.6541  0.5580  0.3330
  186MOL0    Cl25020   7.192   5.567  10.580 -0.0453 -0.3394  0.4916
  186MOL0     C25021   8.025   6.154  10.380  1.3237  0.3328 -0.0546
  186MOL0     C25022   8.138   6.174  10.303  0.0116 -1.0167 -1.2428
  186MOL0     O25023   8.180   6.477  10.061 -0.0064 -0.4170  0.8207
  186MOL0     C25024   8.434   6.585   9.968  0.1915 -0.3440  0.1692
  186MOL0     C25025   8.541   6.613   9.887  0.8383  0.8012  0.3967
  186MOL0     N25026   9.221   6.348   9.826 -0.4250  0.2685 -0.3169
  186MOL0     N25027   9.350   6.387   9.830 -0.3718  0.4494  0.0867
  186MOL0     C25028  10.313   6.954   9.456 -0.8306  0.9571 -0.4123
  186MOL0     C25029  10.428   7.011   9.409  0.2042 -0.3342 -0.3852
  186MOL0     C25030  10.816   7.046   9.267 -0.1754  0.1102  0.1474
  186MOL0     C25031  10.816   7.183   9.227  0.3264 -0.0775 -0.3191
  186MOL0     C25032  10.899   7.218   9.123 -0.2736  0.7023 -0.0221
  186MOL0     C25033  10.973   7.130   9.047 -0.4407 -1.2506  0.6884
  186MOL0     O25034  11.043   7.184   8.942 -0.0213  0.0271 -0.4612
  186MOL0     C25035  11.089   7.099   8.841 -1.0955  0.9198  0.2730
  186MOL0     C25036  11.161   7.197   8.732 -0.6677  0.0271 -0.7141
  186MOL0     C25037  11.298   7.255   8.783 -0.0534  0.0823  0.3592
  186MOL0     C25038  11.358   7.355   8.688  0.5310 -0.6831 -0.1972
  186MOL0     C25039  11.402   7.297   8.557  0.1169  0.2541  0.2170
  186MOL0     C25040  11.441   7.247   8.451 -0.3091 -0.5765 -0.3816
  186MOL0     C25041  10.975   7.002   9.082  0.5703  0.3421  0.9439
  186MOL0     C25042  10.899   6.957   9.188 -0.8689  0.6271 -0.3208
  186MOL0     H25043  10.619   6.991   9.693 -0.0971  0.7468  0.3216
  186MOL0     H25044  10.401   6.920   9.793  2.5232  1.7921  0.2500
  186MOL0     H25045  10.196   6.761   9.798 -0.0590 -2.4372 -3.0833
  186MOL0     H25046  10.130   6.932   9.805 -1.3045 -0.3395  1.2081
  186MOL0     H25047   9.983   6.686   9.703  2.2461 -1.9478  3.4818
  186MOL0     H25048   9.977   6.749   9.868 -1.1248 -1.2026 -0.4512
  186MOL0     H25049   9.865   6.938   9.812  3.2861  0.0547  0.0716
  186MOL0     H25050   9.911   6.942   9.646 -3.5372 -1.2048 -3.3868
  186MOL0     H25051   9.677   6.896   9.680 -0.1467  0.7921  3.0902
  186MOL0     H25052   9.758   6.758   9.590 -3.6676  0.5012 -0.7580
  186MOL0     H25053   9.764   6.603   9.782 -2.5971 -1.9467  1.5982
  186MOL0     H25054   9.717   6.736   9.884 -0.3270  0.7118 -0.3174
  186MOL0     H25055   9.508   6.620   9.843  0.9565  0.4658  0.7183
  186MOL0     H25056   9.509   6.747   9.722  3.0408  1.6466 -0.3329
  186MOL0     H25057   9.461   6.568   9.575 -0.4954 -0.2981 -1.0071
  186MOL0     H25058   9.636   6.565   9.575 -1.1662 -1.4250  0.2625
  186MOL0     H25059   9.618   6.374   9.757 -1.3327  3.1144  1.1513
  186MOL0     H25060   9.577   6.361   9.582 -3.0690  0.3278 -1.5313
  186MOL0     H25061   9.324   6.275   9.530 -0.0949  0.5490  0.0727
  186MOL0     H25062   9.099   6.174   9.575  3.0299 -0.0652  1.4248
  186MOL0     H25063   8.991   6.206   9.714 -1.3319 -0.5172 -0.6442
  186MOL0     H25064   8.911   6.321   9.519  1.5573 -2.1502 -1.5000
  186MOL0     H25065   9.068   6.405   9.485 -2.6592 -0.2219 -1.9101
  186MOL0     H25066   8.910   6.560   9.569 -2.2980 -1.4742 -0.8551
  186MOL0     H25067   9.035   6.529   9.694  0.3425  0.7985  0.1906
  186MOL0     H25068   8.919   6.423   9.846 -1.1792  1.6309  2.2833
  186MOL0     H25069   8.809   6.359   9.735  2.0698  0.6114 -0.6193
  186MOL0     H25070   8.722   6.333   9.954 -0.7793 -0.8499 -0.9355
  186MOL0     H25071   8.530   6.246  10.198 -1.4799  3.5280 -0.1285
  186MOL0     H25072   8.429   6.173  10.072 -1.4391  1.1548  2.1178
  186MOL0     H25073   8.599   6.163  10.042 -0.2476 -0.2086  0.4308
  186MOL0     H25074   8.163   6.509  10.344 -1.9778  0.5193  0.2754
  186MOL0     H25075   7.952   6.463  10.492  0.7802  1.7158 -1.8415
  186MOL0     H25076   7.657   6.304  10.569 -0.9473 -1.1308 -0.3855
  186MOL0     H25077   7.731   6.384  10.421  3.1319 -0.3591  0.8513
  186MOL0     H25078   7.542   6.209  10.367  0.1691 -5.8644 -2.2634
  186MOL0     H25079   7.693   6.190  10.284  1.1918  0.7941  0.9616
  186MOL0     H25080   7.586   6.084  10.553 -2.3811 -0.7549 -0.3023
  186MOL0     H25081   7.733   6.028  10.457  0.4622  0.8408 -2.9460
  186MOL0     H25082   7.449   5.988  10.355 -0.6132 -0.9647 -1.1697
  186MOL0     H25083   7.598   5.924  10.290 -1.8095 -3.8222  0.8934
  186MOL0     H25084   7.504   5.856  10.567 -2.1550 -1.1490  0.1297
  186MOL0     H25085   7.630   5.773  10.472 -1.0727 -0.4916  1.4776
  186MOL0     H25086   7.322   5.761  10.423  0.2244  4.1482 -1.5751
  186MOL0     H25087   7.441   5.723  10.295 -1.2195  1.6772  0.3499
  186MOL0     H25088   7.487   5.596  10.585 -0.7881  0.1547  0.1223
  186MOL0     H25089   7.519   5.531  10.423  1.3038  0.4989  1.0139
  186MOL0     H25090   7.356   5.402  10.509 -0.8245  0.3670 -0.0833
  186MOL0     H25091   7.297   5.486  10.373  0.1581 -1.8925  0.4295
  186MOL0     H25092   7.975   6.063  10.411 -0.3837  1.3727  0.3997
  186MOL0     H25093   8.203   6.099  10.258  1.9775 -0.1056 -0.0519
  186MOL0     H25094   8.355   6.647  10.009 -1.3925 -3.3737  2.0342
  186MOL0     H25095   8.550   6.711   9.841  1.1175  1.0272  0.9276
  186MOL0     H25096  10.224   6.936   9.396 -0.3902  0.3549 -0.8965
  186MOL0     H25097  10.434   7.042   9.305  0.2163  0.2215 -0.2193
  186MOL0     H25098  10.759   7.258   9.280 -2.7146 -1.8295 -0.8844
  186MOL0     H25099  10.921   7.323   9.107  2.0934  0.5914  1.9550
  186MOL0     H25100  11.161   7.025   8.878 -0.1559  1.0502 -1.2113
  186MOL0     H25101  11.008   7.046   8.791  1.1055 -2.4757  0.0005
  186MOL0     H25102  11.088   7.272   8.698  1.1652  2.7455  0.9919
  186MOL0     H25103  11.195   7.138   8.647  2.5233  1.2600 -0.4417
  186MOL0     H25104  11.373   7.175   8.791  1.2749  1.4503  2.7482
  186MOL0     H25105  11.278   7.292   8.884 -0.1607 -0.3118  0.4856
  186MOL0     H25106  11.438   7.410   8.738  1.6217 -1.0827 -1.4595
  186MOL0     H25107  11.280   7.430   8.672  0.0243 -0.7374  1.7586
  186MOL0     H25108  11.471   7.201   8.359  1.4225 -0.8358  0.2729
  186MOL0     H25109  11.033   6.923   9.036 -3.2726 -2.6989  0.7778
  186MOL0     H25110  10.905   6.849   9.197 -0.4070  0.5351 -1.5057
  187MOL0     O25111   0.519   2.890   8.589  0.3757 -0.7480  0.9046
  187MOL0     C25112   0.559   2.815   8.684  0.0809 -0.3204 -0.4833
  187MOL0     O25113   0.685   2.761   8.696 -0.1686  0.1978  0.6081
  187MOL0     C25114   0.763   2.768   8.585  0.0000  1.0616  0.4440
  187MOL0     C25115   0.843   2.872   8.555 -0.0287 -0.0141 -0.4677
  187MOL0     C25116   0.921   2.883   8.440  0.8484  0.1737 -0.4609
  187MOL0     C25117   0.905   2.776   8.343 -0.5733  0.4018 -0.3472
  187MOL0     O25118   0.998   2.781   8.240  0.2283  0.4459  0.3906
  187MOL0     C25119   1.021   2.666   8.154 -0.4582  0.0508 -0.4527
  187MOL0     C25120   1.135   2.707   8.057 -1.1106  0.9707  0.1505
  187MOL0     C25121   1.279   2.697   8.128  0.1153 -0.4150 -0.8373
  187MOL0     C25122   1.383   2.761   8.044  0.2373  0.2505  0.3135
  187MOL0     C25123   1.522   2.736   8.101  0.2284  0.1314 -0.2493
  187MOL0     C25124   1.573   2.598   8.045 -0.6168 -1.1168  0.1488
  187MOL0     C25125   1.677   2.624   7.929  0.1136 -0.1580  0.7031
  187MOL0     C25126   1.690   2.517   7.825 -0.0423  0.7145  0.5943
  187MOL0     N25127   1.671   2.383   7.866  0.4976 -0.2524 -0.1009
  187MOL0     C25128   1.740   2.274   7.809  0.0261  0.1144  0.0873
  187MOL0     C25129   1.667   2.163   7.836 -0.1862 -0.6654  0.6534
  187MOL0     C25130   1.712   2.024   7.811  0.2401 -0.0181 -0.2336
  187MOL0     C25131   1.592   1.917   7.815  0.5621 -0.6869 -1.5434
  187MOL0     C25132   1.596   1.852   7.959  0.1053  0.1935 -0.2489
  187MOL0     C25133   1.471   1.760   7.981 -0.7146 -0.5462 -0.4588
  187MOL0     O25134   1.433   1.704   7.851  0.0351  0.0080 -0.1923
  187MOL0     C25135   1.329   1.611   7.859  0.1306 -0.3768  0.3500
  187MOL0     C25136   1.317   1.529   7.743  0.7615 -0.0414  0.4790
  187MOL0     C25137   1.220   1.424   7.733  0.6691 -0.1301  0.1699
  187MOL0     C25138   1.218   1.356   7.598 -0.0155 -0.1090 -0.0616
  187MOL0     C25139   1.142   1.397   7.850  0.6446 -0.8016 -0.1814
  187MOL0     C25140   1.046   1.285   7.857  0.8296  0.6129 -0.6191
  187MOL0     O25141   1.036   1.230   7.982 -0.3954 -0.0806  0.2060
  187MOL0     C25142   0.992   1.101   8.006 -0.7467 -0.5048  1.4239
  187MOL0     C25143   1.038   0.994   7.925 -0.3716 -0.2105  0.1257
  187MOL0     C25144   0.983   0.874   7.932  0.8248  0.6120 -0.1490
  187MOL0     C25145   0.901   0.834   8.046  0.3422 -0.3132 -0.9116
  187MOL0     O25146   0.824   0.717   8.044 -0.0142 -0.0067 -0.1417
  187MOL0     C25147   0.808   0.622   7.935 -0.2886  0.0279  0.7452
  187MOL0     C25148   0.731   0.504   7.988  0.0767 -0.4507  0.1287
  187MOL0     C25149   0.592   0.539   8.048  0.0231 -0.6669 -0.1282
  187MOL0     C25150   0.558   0.420   8.133 -0.2594  0.0905  1.3120
  187MOL0     C25151   0.437   0.459   8.216 -0.1373  0.2718 -0.4098
  187MOL0     C25152   0.407   0.353   8.320  0.0373 -0.4770  0.3417
  187MOL0     C25153   0.309   0.402   8.417  0.3760 -0.1382  0.7575
  187MOL0     C25154   0.233   0.299   8.508 -1.1338 -0.7161  0.4653
  187MOL0    Cl25155   0.346   0.267   8.635  0.3774 -0.0109 -0.0659
  187MOL0     C25156   0.867   0.929   8.139 -0.3336 -0.0786 -0.9583
  187MOL0     C25157   0.908   1.057   8.116 -0.8891  0.3727  0.0166
  187MOL0     O25158   0.987   1.234   7.758  0.1998 -0.2698  0.3173
  187MOL0     C25159   1.161   1.483   7.963  0.4652 -0.0094  0.4787
  187MOL0     C25160   1.246   1.583   7.967 -0.1121  1.3741 -0.8749
  187MOL0     N25161   1.548   2.204   7.883  1.1196 -0.6501 -0.3750
  187MOL0     N25162   1.555   2.331   7.911 -0.0240  0.1151  0.5936
  187MOL0     C25163   0.826   2.659   8.372  0.2138 -0.6506 -0.2498
  187MOL0     C25164   0.753   2.653   8.493  0.1700 -0.4930  0.5676
  187MOL0     C25165   0.469   2.796   8.800  0.1013 -0.8659  0.6700
  187MOL0     C25166   0.524   2.748   8.918 -1.2626  0.4832 -0.3895
  187MOL0     C25167   0.437   2.729   9.021 -0.5861 -0.5045 -0.0035
  187MOL0     C25168   0.299   2.752   9.014 -0.0171  0.6277 -0.8171
  187MOL0     O25169   0.210   2.720   9.117  0.3092  0.4637  0.3019
  187MOL0     C25170   0.267   2.693   9.246 -0.3198 -0.1673  0.4608
  187MOL0     C25171   0.153   2.692   9.345 -0.3004  0.5301 -0.1182
  187MOL0     C25172   0.093   2.826   9.367  0.0585  0.8204  0.1156
  187MOL0     C25173   0.030   2.834   9.503 -0.1820 -0.7739  0.7732
  187MOL0     C25174  -0.089   2.752   9.501  0.7130 -0.5102 -0.1438
  187MOL0     C25175  -0.194   2.690   9.504  0.4337  0.2510  0.1406
  187MOL0     C25176   0.248   2.807   8.897  0.0874  0.3777 -0.5919
  187MOL0     C25177   0.331   2.827   8.787  0.2604 -0.6219 -0.6063
  187MOL0     H25178   0.865   2.948   8.628  0.5752  1.4947 -2.1386
  187MOL0     H25179   1.000   2.956   8.422  1.4775 -1.2108 -3.8766
  187MOL0     H25180   1.055   2.577   8.207  3.6146 -0.0374 -2.8573
  187MOL0     H25181   0.926   2.652   8.100 -1.4788  3.4238  0.1929
  187MOL0     H25182   1.145   2.636   7.974 -1.3232  2.5243 -1.2679
  187MOL0     H25183   1.106   2.808   8.026 -2.5955  0.7448  0.7204
  187MOL0     H25184   1.276   2.745   8.226  1.9689  3.5552 -2.5355
  187MOL0     H25185   1.305   2.591   8.143  0.7610  0.1272  2.7995
  187MOL0     H25186   1.381   2.715   7.945  0.4943  2.1264 -0.6074
  187MOL0     H25187   1.360   2.867   8.035  0.7121  0.3796  0.6116
  187MOL0     H25188   1.593   2.819   8.091 -1.9941  2.5916  2.3571
  187MOL0     H25189   1.514   2.731   8.210 -2.8680  1.5873 -0.2768
  187MOL0     H25190   1.638   2.545   8.114 -1.1535 -0.8825  0.8393
  187MOL0     H25191   1.494   2.525   8.026 -0.2411 -0.8684 -3.0089
  187MOL0     H25192   1.669   2.729   7.899 -2.2599  0.1363  2.1168
  187MOL0     H25193   1.775   2.630   7.978 -0.4379  2.0790  1.6956
  187MOL0     H25194   1.797   2.528   7.806  0.5163 -0.0739  2.9951
  187MOL0     H25195   1.618   2.536   7.744 -1.5743 -3.3220  0.7973
  187MOL0     H25196   1.837   2.284   7.761 -0.6349  3.2437 -0.8273
  187MOL0     H25197   1.764   2.015   7.715 -0.7193 -1.1309 -0.6779
  187MOL0     H25198   1.781   1.992   7.889 -2.5785 -0.2118  2.3812
  187MOL0     H25199   1.613   1.834   7.748 -1.1401 -1.9039 -0.6473
  187MOL0     H25200   1.491   1.954   7.794  0.2034 -1.0585 -0.5255
  187MOL0     H25201   1.593   1.924   8.041  1.0579 -1.6991  1.5355
  187MOL0     H25202   1.691   1.800   7.975  0.8997  0.6952 -2.7870
  187MOL0     H25203   1.401   1.830   8.028  0.6658 -0.9810  2.4394
  187MOL0     H25204   1.500   1.684   8.054  4.1385  2.6916  1.4711
  187MOL0     H25205   1.379   1.548   7.656  0.9123  0.6633  0.7335
  187MOL0     H25206   1.318   1.335   7.559 -0.5821 -1.6867 -0.7549
  187MOL0     H25207   1.164   1.261   7.594  3.5204 -2.2244 -2.7273
  187MOL0     H25208   1.172   1.416   7.519  2.9036  2.3933 -0.0204
  187MOL0     H25209   1.105   1.019   7.843 -0.3582 -1.1911 -0.1777
  187MOL0     H25210   0.993   0.793   7.860 -0.7478 -1.1978  1.5540
  187MOL0     H25211   0.744   0.671   7.860  0.4940 -0.7775 -0.4809
  187MOL0     H25212   0.906   0.588   7.900 -2.1640 -2.9067 -2.3691
  187MOL0     H25213   0.719   0.437   7.902  1.2944 -0.2167 -0.2447
  187MOL0     H25214   0.793   0.453   8.063 -2.0659 -0.2454  2.1532
  187MOL0     H25215   0.522   0.549   7.965  2.1710  2.6537 -1.7452
  187MOL0     H25216   0.583   0.628   8.111 -3.8102 -2.2317  1.8601
  187MOL0     H25217   0.539   0.326   8.081 -0.7123 -1.1269  3.5504
  187MOL0     H25218   0.643   0.410   8.201  0.0671  4.1935  1.7635
  187MOL0     H25219   0.346   0.485   8.162 -0.1065 -0.4978 -0.8555
  187MOL0     H25220   0.458   0.560   8.251 -1.3220 -0.8391  4.1592
  187MOL0     H25221   0.373   0.258   8.278  2.0490 -0.6953 -0.9440
  187MOL0     H25222   0.499   0.320   8.368  0.3646 -2.1217 -1.2909
  187MOL0     H25223   0.240   0.452   8.348  2.5687  1.4175 -0.4265
  187MOL0     H25224   0.355   0.475   8.484 -0.7034  0.6486  0.6657
  187MOL0     H25225   0.193   0.213   8.453 -0.2722 -0.0776 -1.2383
  187MOL0     H25226   0.148   0.358   8.543  0.4927  2.6374 -0.8087
  187MOL0     H25227   0.788   0.919   8.213  1.5497  0.6570  1.2527
  187MOL0     H25228   0.858   1.133   8.174  0.0722  0.4511  0.7672
  187MOL0     H25229   1.101   1.468   8.053  1.1284  0.4266  1.0081
  187MOL0     H25230   1.250   1.640   8.059 -2.1717 -0.4223  0.4311
  187MOL0     H25231   0.819   2.569   8.312  0.3258 -1.5023  0.9747
  187MOL0     H25232   0.678   2.579   8.515  1.3229 -1.9186 -0.1423
  187MOL0     H25233   0.623   2.705   8.930 -1.9033 -0.6523  1.2988
  187MOL0     H25234   0.480   2.688   9.112 -2.1879 -0.8001  0.6619
  187MOL0     H25235   0.321   2.598   9.241  1.7025  1.0057 -1.7849
  187MOL0     H25236   0.336   2.775   9.266  0.2434 -0.5218 -0.0074
  187MOL0     H25237   0.179   2.646   9.440 -2.7081  0.4845  0.6021
  187MOL0     H25238   0.082   2.626   9.293  1.9026  0.3994 -3.2232
  187MOL0     H25239   0.024   2.851   9.285  0.3040  2.4665  0.3880
  187MOL0     H25240   0.176   2.897   9.366 -0.3907  1.3490 -0.6026
  187MOL0     H25241   0.006   2.938   9.525  1.9740 -0.5315  2.3086
  187MOL0     H25242   0.095   2.791   9.580  0.4396 -2.6198 -0.7018
  187MOL0     H25243  -0.288   2.637   9.500 -0.3039  1.5787 -0.7642
  187MOL0     H25244   0.140   2.818   8.898  0.2174  2.3509  1.7644
  187MOL0     H25245   0.266   2.859   8.707 -0.0863 -0.2255 -0.1667
  188MOL0     O25246   6.780   9.647   1.013  0.2839  0.1270 -0.2470
  188MOL0     C25247   6.670   9.672   1.061 -0.1530 -1.1151  1.1763
  188MOL0     O25248   6.656   9.703   1.191 -0.6188  0.0892  0.1820
  188MOL0     C25249   6.761   9.677   1.280  0.0096  0.4899 -0.0461
  188MOL0     C25250   6.858   9.575   1.272 -0.3412 -0.4724 -0.3470
  188MOL0     C25251   6.970   9.565   1.360 -0.4567  0.7040  1.1444
  188MOL0     C25252   6.984   9.652   1.476  1.1023 -0.2651  0.0694
  188MOL0     O25253   7.103   9.660   1.546  0.2849 -0.3654  0.3079
  188MOL0     C25254   7.115   9.718   1.674 -0.0440  1.0430  0.7647
  188MOL0     C25255   7.025   9.632   1.761  0.3390  0.3863 -0.2919
  188MOL0     C25256   7.064   9.506   1.810  0.3580  0.6177  0.1801
  188MOL0     C25257   6.961   9.455   1.911  0.9407 -0.0522  0.4591
  188MOL0     C25258   7.035   9.357   2.007  0.7677  0.0353 -0.1209
  188MOL0     C25259   7.094   9.230   1.926 -0.6236  0.7833  0.2237
  188MOL0     C25260   7.167   9.132   2.022 -0.2822  0.3939 -1.1934
  188MOL0     C25261   7.294   9.060   1.950  0.6613 -0.3260  0.2339
  188MOL0     N25262   7.250   8.958   1.848 -0.0208 -0.2207  0.5370
  188MOL0     C25263   7.175   8.992   1.734 -0.7767 -0.8464  0.1003
  188MOL0     C25264   7.176   8.880   1.656 -0.8109  0.2319  0.1445
  188MOL0     C25265   7.118   8.869   1.512  0.0273  0.1621 -0.3992
  188MOL0     C25266   6.964   8.832   1.514 -0.9411 -0.0490  0.8021
  188MOL0     C25267   6.938   8.687   1.558  0.5343  0.1212  0.2259
  188MOL0     C25268   6.978   8.570   1.473  0.3598  1.2419  0.2630
  188MOL0     O25269   6.933   8.438   1.521  0.1575  0.1882 -0.1282
  188MOL0     C25270   6.798   8.427   1.531  0.2248 -0.4180 -0.3425
  188MOL0     C25271   6.717   8.441   1.414 -0.0713 -0.8678 -0.3956
  188MOL0     C25272   6.581   8.434   1.409  0.4526  0.6141  0.5307
  188MOL0     C25273   6.521   8.451   1.274  0.2646  0.6111  0.5455
  188MOL0     C25274   6.515   8.411   1.529 -0.0230  0.0365  0.0138
  188MOL0     C25275   6.365   8.389   1.536  0.6271 -0.1677  0.0155
  188MOL0     O25276   6.307   8.353   1.415  0.8412  0.2214 -0.3918
  188MOL0     C25277   6.166   8.357   1.395 -0.7592  0.8803 -0.5765
  188MOL0     C25278   6.060   8.384   1.489  0.5366  0.1626 -0.3848
  188MOL0     C25279   5.928   8.403   1.441 -1.0420  0.7438 -0.3933
  188MOL0     C25280   5.898   8.395   1.309 -0.1158  0.1137 -0.2377
  188MOL0     O25281   5.780   8.425   1.245 -0.6755 -0.1484 -0.7598
  188MOL0     C25282   5.682   8.501   1.324 -0.3415 -0.3510  0.0593
  188MOL0     C25283   5.576   8.572   1.238 -0.0041  0.8668  0.3399
  188MOL0     C25284   5.478   8.471   1.175 -0.0137  0.5521 -1.1183
  188MOL0     C25285   5.405   8.526   1.051  0.0723 -0.1882 -0.8106
  188MOL0     C25286   5.316   8.423   0.978  0.8346  0.0738  0.2318
  188MOL0     C25287   5.178   8.400   1.049 -0.3122 -0.6212  0.4467
  188MOL0     C25288   5.073   8.328   0.964  0.7712 -0.6561  0.5288
  188MOL0     C25289   5.094   8.181   0.943 -0.0679 -0.5999 -1.0726
  188MOL0    Cl25290   5.246   8.151   0.858 -0.1205 -0.1734 -0.3247
  188MOL0     C25291   6.001   8.359   1.220 -0.4965  0.6281 -0.3319
  188MOL0     C25292   6.135   8.354   1.261  0.8114  0.6620 -0.4381
  188MOL0     O25293   6.307   8.393   1.641  0.2663 -0.5233  0.9326
  188MOL0     C25294   6.594   8.389   1.649  1.0234  0.3137 -1.1116
  188MOL0     C25295   6.735   8.399   1.648 -0.3392 -0.8104 -0.6786
  188MOL0     N25296   7.253   8.785   1.720  0.2380 -0.0370  1.0413
  188MOL0     N25297   7.294   8.830   1.832 -0.5528  0.3238  0.4336
  188MOL0     C25298   6.874   9.742   1.492 -0.9145  0.1883 -0.3467
  188MOL0     C25299   6.773   9.755   1.393 -0.5779  0.0347  0.4873
  188MOL0     C25300   6.559   9.702   0.956 -0.1308  0.1014  0.3232
  188MOL0     C25301   6.435   9.764   0.982  0.3605  0.0049 -0.2836
  188MOL0     C25302   6.330   9.776   0.884  0.1309 -0.1021  0.1192
  188MOL0     C25303   6.354   9.730   0.750  0.1687 -0.8398 -0.6678
  188MOL0     O25304   6.258   9.745   0.650  0.9535 -0.4447  0.0335
  188MOL0     C25305   6.289   9.766   0.513  0.3953 -0.4184  0.4093
  188MOL0     C25306   6.374   9.890   0.470 -0.4830 -0.7012 -0.0785
  188MOL0     C25307   6.306  10.029   0.498 -0.8159  0.7696 -0.6088
  188MOL0     C25308   6.183  10.042   0.414 -0.1518 -0.4562 -0.0281
  188MOL0     C25309   6.140  10.187   0.419  0.4756 -0.1663 -0.4441
  188MOL0     C25310   6.110  10.301   0.428 -1.1054  0.7275  0.8107
  188MOL0     C25311   6.483   9.671   0.728 -0.5793 -0.2817  0.2516
  188MOL0     C25312   6.581   9.668   0.823 -0.0453 -0.3818  0.9223
  188MOL0     H25313   6.847   9.503   1.192 -2.6992 -0.4269 -0.1446
  188MOL0     H25314   7.044   9.489   1.342 -2.6129 -1.3767  0.4886
  188MOL0     H25315   7.213   9.717   1.724 -1.2377 -1.5345  3.3079
  188MOL0     H25316   7.082   9.823   1.678 -0.5235  0.9373 -0.1957
  188MOL0     H25317   7.004   9.695   1.848  2.4918 -0.1652  0.6953
  188MOL0     H25318   6.924   9.626   1.720  1.0644  0.8067 -2.2468
  188MOL0     H25319   7.064   9.441   1.722 -1.6516  5.0511 -3.5550
  188MOL0     H25320   7.164   9.513   1.852 -0.1698 -0.2537  1.6694
  188MOL0     H25321   6.929   9.537   1.976  3.9710  2.4185 -0.8789
  188MOL0     H25322   6.870   9.420   1.862 -0.5351  2.2664  1.3486
  188MOL0     H25323   7.125   9.407   2.045  0.4237 -0.5373  1.5179
  188MOL0     H25324   6.964   9.319   2.080  0.8145 -3.3354 -1.6341
  188MOL0     H25325   7.014   9.172   1.878 -0.0970 -0.4173  0.7522
  188MOL0     H25326   7.169   9.257   1.851 -0.3871 -0.0072  0.1637
  188MOL0     H25327   7.218   9.189   2.100 -2.7229  2.9670 -1.3044
  188MOL0     H25328   7.100   9.059   2.066  0.3911 -0.4573 -1.5511
  188MOL0     H25329   7.366   9.013   2.017 -0.1774 -3.2175 -0.7230
  188MOL0     H25330   7.360   9.133   1.902  0.9850 -0.5069  0.4038
  188MOL0     H25331   7.130   9.085   1.701 -3.7993 -2.2482 -0.0798
  188MOL0     H25332   7.128   8.964   1.459 -1.4585 -2.0510 -5.1896
  188MOL0     H25333   7.159   8.792   1.447  1.1251 -0.5434  1.0771
  188MOL0     H25334   6.924   8.847   1.413  0.3770 -0.8865  0.1287
  188MOL0     H25335   6.906   8.904   1.572  0.0233  1.0058  0.5020
  188MOL0     H25336   6.833   8.673   1.583  0.8589 -0.4618  1.3652
  188MOL0     H25337   6.986   8.688   1.657  2.2201  2.0390 -0.5278
  188MOL0     H25338   7.085   8.566   1.452  0.5237  1.4755  1.0449
  188MOL0     H25339   6.934   8.594   1.375 -0.6282 -2.1727 -0.2457
  188MOL0     H25340   6.775   8.445   1.322 -1.2304  1.3241 -1.1055
  188MOL0     H25341   6.468   8.368   1.226 -0.0523  2.4787 -2.6841
  188MOL0     H25342   6.439   8.523   1.273 -0.4139 -0.0906 -2.0217
  188MOL0     H25343   6.597   8.470   1.197 -0.1794 -2.4972 -0.8460
  188MOL0     H25344   6.075   8.399   1.596 -2.1885 -1.7285  0.3559
  188MOL0     H25345   5.853   8.424   1.516 -0.4440 -0.6654  0.6561
  188MOL0     H25346   5.630   8.428   1.387 -3.9750  2.5930  0.8027
  188MOL0     H25347   5.733   8.574   1.387 -0.2527 -1.2230  1.0395
  188MOL0     H25348   5.528   8.650   1.297  0.1453 -0.5259  2.3863
  188MOL0     H25349   5.627   8.633   1.162 -1.2325  1.4815 -0.0079
  188MOL0     H25350   5.407   8.459   1.257  1.0058  0.0067 -0.3078
  188MOL0     H25351   5.530   8.376   1.160 -2.0944 -0.9877  0.7676
  188MOL0     H25352   5.354   8.619   1.077  0.9875 -0.3711  1.9252
  188MOL0     H25353   5.481   8.553   0.976  0.0533 -1.3117 -1.2675
  188MOL0     H25354   5.382   8.336   0.984  4.6590  2.8107  1.3872
  188MOL0     H25355   5.307   8.449   0.872  2.4063  1.9572  0.5175
  188MOL0     H25356   5.200   8.346   1.141 -1.0170  1.7205  2.0706
  188MOL0     H25357   5.141   8.499   1.074 -0.1860 -0.3546 -0.3903
  188MOL0     H25358   5.061   8.379   0.867 -0.0018  1.6735  1.7635
  188MOL0     H25359   4.978   8.343   1.016 -0.4319 -1.8284 -1.1867
  188MOL0     H25360   5.005   8.135   0.900 -0.6374 -1.7200  1.1607
  188MOL0     H25361   5.105   8.145   1.045  1.2167  0.6171 -0.7473
  188MOL0     H25362   5.988   8.347   1.113  1.9032 -1.6409 -0.4601
  188MOL0     H25363   6.215   8.345   1.188  0.3540  0.6269 -0.9407
  188MOL0     H25364   6.544   8.353   1.739  1.3272 -1.1620 -1.5132
  188MOL0     H25365   6.780   8.376   1.744 -0.8419  1.2034  0.1033
  188MOL0     H25366   6.876   9.806   1.580 -0.2880 -2.6614  1.8677
  188MOL0     H25367   6.697   9.832   1.405  0.2097  0.7222  1.1522
  188MOL0     H25368   6.411   9.814   1.076  0.4136 -0.1106 -0.2084
  188MOL0     H25369   6.235   9.829   0.890  0.6742  1.4987 -3.0374
  188MOL0     H25370   6.349   9.681   0.479  2.7832  0.5525  1.9445
  188MOL0     H25371   6.194   9.773   0.459 -0.4182 -1.5960  1.6472
  188MOL0     H25372   6.402   9.872   0.366  0.4402 -1.7315  0.3362
  188MOL0     H25373   6.462   9.887   0.536 -0.8946 -0.6480  0.4854
  188MOL0     H25374   6.379  10.108   0.477  0.0560  0.6236  1.6346
  188MOL0     H25375   6.282  10.039   0.604 -3.2247 -1.1910 -0.8867
  188MOL0     H25376   6.097   9.980   0.443 -2.0573  0.5175 -3.0856
  188MOL0     H25377   6.207  10.007   0.313 -1.5015 -0.0363 -0.5157
  188MOL0     H25378   6.097  10.407   0.422 -1.5011  0.6171 -1.8080
  188MOL0     H25379   6.491   9.619   0.633  2.0999  1.5176 -0.6007
  188MOL0     H25380   6.672   9.629   0.777 -0.1465  2.2740 -1.8378
  189MOL0     O25381   0.376   4.636   9.902 -0.2652 -0.6193  0.4648
  189MOL0     C25382   0.487   4.595   9.881 -1.1585  0.4852  0.6091
  189MOL0     O25383   0.545   4.467   9.897 -0.2182  0.8251 -0.3976
  189MOL0     C25384   0.482   4.370   9.977  0.6124 -1.3792  0.8642
  189MOL0     C25385   0.412   4.390  10.092  0.4813 -0.9729  0.0312
  189MOL0     C25386   0.340   4.290  10.160 -0.0746 -0.1405  0.3415
  189MOL0     C25387   0.354   4.159  10.116 -0.2578 -1.4346 -0.1165
  189MOL0     O25388   0.312   4.060  10.198  0.0304  0.5036 -0.6646
  189MOL0     C25389   0.386   3.942  10.218  0.4867 -0.1605  0.1377
  189MOL0     C25390   0.340   3.883  10.352  0.0884  0.3422 -0.1493
  189MOL0     C25391   0.414   3.746  10.379  0.0045 -0.5882  0.0006
  189MOL0     C25392   0.562   3.776  10.424 -0.1786  0.6399 -0.2411
  189MOL0     C25393   0.625   3.661  10.486  0.8245  0.5847 -0.2646
  189MOL0     C25394   0.572   3.628  10.625 -0.2844  0.1514  0.6282
  189MOL0     C25395   0.690   3.579  10.715 -0.8138  0.3293 -0.1588
  189MOL0     C25396   0.730   3.437  10.685 -1.2985 -0.2163 -0.4454
  189MOL0     N25397   0.820   3.373  10.788  0.3145 -0.6566  0.0431
  189MOL0     C25398   0.792   3.348  10.915 -0.0562  0.4231  0.5357
  189MOL0     C25399   0.901   3.265  10.963  0.1098 -0.4081 -0.5833
  189MOL0     C25400   0.915   3.205  11.095 -0.6166  0.5702 -0.2385
  189MOL0     C25401   1.001   3.303  11.188 -1.1311 -0.5525  0.5186
  189MOL0     C25402   1.145   3.302  11.136 -0.3500  0.5264 -0.7010
  189MOL0     C25403   1.244   3.363  11.248  0.1887  0.4500  0.7284
  189MOL0     O25404   1.231   3.505  11.230  0.4032  0.0834 -0.0391
  189MOL0     C25405   1.332   3.593  11.253 -0.7034  0.2699 -0.3573
  189MOL0     C25406   1.464   3.565  11.288 -0.0684 -0.7992  0.6811
  189MOL0     C25407   1.558   3.660  11.329  1.4333 -0.1525 -0.2243
  189MOL0     C25408   1.700   3.613  11.349 -0.1275  0.0681  0.5270
  189MOL0     C25409   1.513   3.795  11.341  0.8269 -0.3837  0.0145
  189MOL0     C25410   1.602   3.905  11.395 -0.6229  0.4800  0.1811
  189MOL0     O25411   1.530   4.013  11.435 -0.0743  0.7895 -0.0126
  189MOL0     C25412   1.583   4.131  11.448 -0.7201 -0.7780 -0.2029
  189MOL0     C25413   1.506   4.245  11.420  0.6681 -0.2227  0.0558
  189MOL0     C25414   1.561   4.378  11.423 -0.4271  0.3223  0.6079
  189MOL0     C25415   1.689   4.402  11.472  0.3586  0.6332 -0.8358
  189MOL0     O25416   1.733   4.530  11.490 -0.8214  0.4709 -1.3401
  189MOL0     C25417   1.876   4.560  11.503  0.6256  0.5768  0.0420
  189MOL0     C25418   1.910   4.697  11.568  0.4275 -0.1174 -0.4248
  189MOL0     C25419   1.888   4.698  11.718 -0.5506  0.5785  0.2486
  189MOL0     C25420   1.868   4.839  11.775  0.4214 -0.2130  0.3582
  189MOL0     C25421   1.972   4.944  11.740 -0.1188  0.9832  0.3323
  189MOL0     C25422   1.938   5.073  11.807 -0.0570 -0.1558 -0.2918
  189MOL0     C25423   2.031   5.186  11.758 -0.2220 -0.4157 -0.4403
  189MOL0     C25424   1.964   5.317  11.709  0.8299 -0.4079 -0.8422
  189MOL0    Cl25425   2.105   5.429  11.651 -0.1087  0.4655 -0.2448
  189MOL0     C25426   1.763   4.287  11.501  0.6486  0.3819 -0.2945
  189MOL0     C25427   1.713   4.156  11.492  1.1379 -0.6444  0.1127
  189MOL0     O25428   1.719   3.886  11.407  0.0567  0.0670  0.2210
  189MOL0     C25429   1.385   3.832  11.284  0.1503 -0.1063  0.4444
  189MOL0     C25430   1.292   3.733  11.254  0.7937  0.1013 -0.4055
  189MOL0     N25431   0.981   3.244  10.847 -0.0864  0.8867  0.1585
  189MOL0     N25432   0.936   3.303  10.754 -0.0431 -0.4807  1.2913
  189MOL0     C25433   0.429   4.135  10.003  0.7543 -0.0147  0.7798
  189MOL0     C25434   0.501   4.238   9.937 -0.6065 -0.5155  0.0671
  189MOL0     C25435   0.572   4.699   9.829  0.2466  0.0154 -0.3256
  189MOL0     C25436   0.705   4.678   9.801  0.8053  0.7238 -0.3285
  189MOL0     C25437   0.792   4.783   9.761  0.5747  0.0665  0.3743
  189MOL0     C25438   0.741   4.913   9.749  0.2138  0.4763  0.7118
  189MOL0     O25439   0.821   5.021   9.725 -0.7771 -0.8774  0.0147
  189MOL0     C25440   0.946   5.008   9.644 -0.4194  0.9869 -0.4232
  189MOL0     C25441   0.951   5.103   9.518  0.5455 -0.4695 -0.6695
  189MOL0     C25442   0.904   5.241   9.531 -0.6910  0.7367 -0.6566
  189MOL0     C25443   0.990   5.338   9.614 -0.8859 -0.0083  0.5865
  189MOL0     C25444   1.135   5.339   9.559  0.0382  0.5456 -0.4396
  189MOL0     C25445   1.243   5.330   9.507 -0.5309  0.7375 -0.9392
  189MOL0     C25446   0.608   4.939   9.765 -0.4059  1.3043 -0.2012
  189MOL0     C25447   0.528   4.834   9.804  0.3894 -0.6555  0.1672
  189MOL0     H25448   0.383   4.479  10.147  2.3527 -1.7290  2.3490
  189MOL0     H25449   0.285   4.325  10.247  1.3679  2.0683  0.4441
  189MOL0     H25450   0.373   3.874  10.133  1.8425 -0.5074  0.1894
  189MOL0     H25451   0.494   3.955  10.225  0.5097 -0.8748  1.4188
  189MOL0     H25452   0.348   3.953  10.436 -1.4557  0.4146 -0.0331
  189MOL0     H25453   0.238   3.849  10.329 -0.5372  1.0500  1.4231
  189MOL0     H25454   0.357   3.687  10.451 -1.7233  1.4401  0.4116
  189MOL0     H25455   0.415   3.678  10.293  1.7070  0.0731 -0.5492
  189MOL0     H25456   0.628   3.803  10.341 -0.7719 -0.0033 -0.9299
  189MOL0     H25457   0.560   3.868  10.484 -1.6468 -0.0948  0.9134
  189MOL0     H25458   0.629   3.567  10.429  2.2173 -0.2724  1.1525
  189MOL0     H25459   0.729   3.695  10.491  0.7681  0.5871  3.1251
  189MOL0     H25460   0.540   3.727  10.657  1.9114  1.1244 -0.0085
  189MOL0     H25461   0.491   3.555  10.619 -0.3478  0.2931 -0.2778
  189MOL0     H25462   0.776   3.645  10.709  0.0583 -0.8578 -1.0633
  189MOL0     H25463   0.650   3.576  10.817 -4.0175 -0.7464 -1.3122
  189MOL0     H25464   0.795   3.439  10.597  2.5069 -3.6921  1.9511
  189MOL0     H25465   0.641   3.376  10.666 -2.2932  1.7960 -2.7786
  189MOL0     H25466   0.708   3.383  10.975  1.8457  2.0123  2.3957
  189MOL0     H25467   0.818   3.191  11.144 -0.4868  0.5741  0.0222
  189MOL0     H25468   0.955   3.105  11.074 -2.6512  0.5967 -5.9343
  189MOL0     H25469   0.994   3.265  11.290 -1.5593 -2.1485 -0.0772
  189MOL0     H25470   0.953   3.401  11.197 -2.2097 -1.2325  3.0263
  189MOL0     H25471   1.168   3.360  11.047  0.7366  1.8949  0.4259
  189MOL0     H25472   1.185   3.201  11.118 -0.5074  0.5146 -0.9904
  189MOL0     H25473   1.345   3.330  11.222 -0.7307 -1.2587 -0.9140
  189MOL0     H25474   1.229   3.335  11.353  0.6269 -1.1562  0.3985
  189MOL0     H25475   1.484   3.460  11.307 -4.8813 -2.2540 -0.6615
  189MOL0     H25476   1.716   3.509  11.318 -0.2687  0.5348 -1.2231
  189MOL0     H25477   1.763   3.680  11.290 -0.7281 -0.6758 -1.0096
  189MOL0     H25478   1.722   3.624  11.455 -1.8882  1.0339  0.8336
  189MOL0     H25479   1.411   4.225  11.373  1.0154 -1.2672 -0.2362
  189MOL0     H25480   1.498   4.460  11.391 -0.6046 -0.2982 -0.7309
  189MOL0     H25481   1.937   4.496  11.568  1.0654  3.0513  2.2534
  189MOL0     H25482   1.917   4.556  11.402 -1.6803 -0.1494 -0.9229
  189MOL0     H25483   2.014   4.724  11.549  0.9515 -0.4919  1.6717
  189MOL0     H25484   1.854   4.777  11.518 -0.1150  0.3666  0.9009
  189MOL0     H25485   1.959   4.635  11.772  0.6649  2.2488  0.6627
  189MOL0     H25486   1.800   4.634  11.731  0.7301 -1.6810 -1.3944
  189MOL0     H25487   1.778   4.883  11.732  0.8612 -2.6269 -3.4607
  189MOL0     H25488   1.852   4.828  11.883  5.6526  1.7227  1.6650
  189MOL0     H25489   1.979   4.948  11.631 -0.6657 -1.7968  0.1165
  189MOL0     H25490   2.071   4.913  11.775  0.7439  0.4520 -2.3248
  189MOL0     H25491   1.835   5.090  11.776 -0.8063 -3.1964  0.2288
  189MOL0     H25492   1.945   5.062  11.916  1.7978  1.6553 -0.1499
  189MOL0     H25493   2.090   5.150  11.674 -1.3610  0.9708 -1.8969
  189MOL0     H25494   2.097   5.220  11.838  1.0335 -2.6878 -0.4209
  189MOL0     H25495   1.898   5.359  11.785  2.7831 -1.1478  1.3833
  189MOL0     H25496   1.895   5.295  11.628  0.6528  0.1614 -0.8505
  189MOL0     H25497   1.870   4.289  11.521  0.3272  0.8034  1.5736
  189MOL0     H25498   1.783   4.081  11.527  2.4586  0.5076  0.0300
  189MOL0     H25499   1.350   3.934  11.285  1.7673  0.5799 -2.3351
  189MOL0     H25500   1.186   3.746  11.239  1.0073  2.2888 -0.3019
  189MOL0     H25501   0.455   4.034   9.973  0.5416  0.6931 -2.1516
  189MOL0     H25502   0.544   4.209   9.842 -4.2001  0.1424 -1.9130
  189MOL0     H25503   0.740   4.575   9.790 -1.6043 -0.2186  0.1438
  189MOL0     H25504   0.897   4.764   9.745  0.9689  1.2227  1.3867
  189MOL0     H25505   1.030   5.027   9.712 -1.5507  0.4758  1.1575
  189MOL0     H25506   0.946   4.907   9.601 -2.1595  1.1652 -0.9229
  189MOL0     H25507   0.886   5.050   9.448  0.4531 -1.2294 -0.0304
  189MOL0     H25508   1.049   5.088   9.471 -0.4468  0.3394 -3.1619
  189MOL0     H25509   0.805   5.233   9.575 -0.5244 -1.1671 -0.5402
  189MOL0     H25510   0.891   5.268   9.426 -1.7397  0.3919 -0.6264
  189MOL0     H25511   0.997   5.301   9.717 -0.4136 -3.4329 -0.5603
  189MOL0     H25512   0.942   5.436   9.608 -0.4123  0.1939  0.0330
  189MOL0     H25513   1.343   5.312   9.473 -0.7503 -1.6376 -0.4357
  189MOL0     H25514   0.573   5.042   9.761 -1.8271  0.8623  0.3338
  189MOL0     H25515   0.422   4.857   9.814  0.9449  2.0552  0.5145
  190MOL0     O25516   6.682   2.826   8.010 -0.5108 -0.1061  0.2114
  190MOL0     C25517   6.802   2.839   7.971 -1.1927  0.9334 -0.2451
  190MOL0     O25518   6.875   2.956   7.968  1.0993  0.2723 -0.5961
  190MOL0     C25519   6.823   3.069   8.021  0.0844 -0.0849 -0.0448
  190MOL0     C25520   6.846   3.105   8.160 -0.7973 -0.3063 -0.0179
  190MOL0     C25521   6.774   3.210   8.227 -0.6928  0.0350 -0.3285
  190MOL0     C25522   6.670   3.270   8.162  0.4927 -0.6051 -0.2872
  190MOL0     O25523   6.596   3.370   8.224 -0.2627 -0.5264 -0.8342
  190MOL0     C25524   6.469   3.342   8.272  0.5694 -1.5761  0.0499
  190MOL0     C25525   6.437   3.455   8.379  0.4374  0.8559  0.7776
  190MOL0     C25526   6.295   3.463   8.419 -0.1213  0.1473  0.0638
  190MOL0     C25527   6.195   3.482   8.309  0.4329 -0.0703 -0.6682
  190MOL0     C25528   6.051   3.456   8.368  0.5069 -0.2660 -0.0547
  190MOL0     C25529   5.948   3.507   8.262 -0.5506 -0.8489 -0.8396
  190MOL0     C25530   5.803   3.497   8.318 -1.2316  0.9405 -0.9229
  190MOL0     C25531   5.772   3.368   8.388 -0.6985 -1.3692  0.4912
  190MOL0     N25532   5.688   3.383   8.518 -0.3244  1.1601 -0.2810
  190MOL0     C25533   5.600   3.478   8.548  0.1569  0.2721 -0.0363
  190MOL0     C25534   5.563   3.454   8.679 -0.2834  0.1205  0.7461
  190MOL0     C25535   5.455   3.520   8.756  0.0894  0.0187  0.1357
  190MOL0     C25536   5.321   3.493   8.695 -0.2701  0.0860 -0.0177
  190MOL0     C25537   5.207   3.532   8.783 -0.6512 -0.6807  0.0601
  190MOL0     C25538   5.079   3.531   8.701 -0.3527  0.8330 -0.7117
  190MOL0     O25539   4.969   3.583   8.769 -0.0705  0.4668 -0.4107
  190MOL0     C25540   4.914   3.539   8.892  0.0261 -0.4848 -0.5343
  190MOL0     C25541   4.812   3.618   8.954  0.5591 -1.1030  0.2597
  190MOL0     C25542   4.757   3.589   9.076  0.7766  0.1306  0.1718
  190MOL0     C25543   4.660   3.694   9.123  0.8490 -1.5404  0.5505
  190MOL0     C25544   4.789   3.473   9.149 -0.1477  0.5389 -0.6216
  190MOL0     C25545   4.715   3.426   9.274 -0.3165  0.5495  0.1273
  190MOL0     O25546   4.786   3.326   9.342 -0.8682  0.0417 -0.2167
  190MOL0     C25547   4.717   3.239   9.429  0.0246  0.0358  0.2360
  190MOL0     C25548   4.664   3.284   9.555 -0.1091  0.9185  0.5785
  190MOL0     C25549   4.610   3.179   9.637  0.4145 -1.2499 -0.4822
  190MOL0     C25550   4.593   3.044   9.593  0.4397  0.7400 -0.4109
  190MOL0     O25551   4.551   2.958   9.691  0.0904 -0.3240  0.3963
  190MOL0     C25552   4.660   2.896   9.763  0.9827 -0.6949  0.4944
  190MOL0     C25553   4.619   2.758   9.814  0.2814 -0.3072 -0.3679
  190MOL0     C25554   4.561   2.759   9.952 -0.2968 -0.1152 -0.7882
  190MOL0     C25555   4.485   2.629   9.988 -0.2335 -0.2467 -0.6133
  190MOL0     C25556   4.419   2.648  10.129 -0.1801 -0.8723  0.0031
  190MOL0     C25557   4.513   2.666  10.254 -0.6245  0.5997  0.2465
  190MOL0     C25558   4.446   2.643  10.394  0.7043 -0.2802  0.0227
  190MOL0     C25559   4.395   2.492  10.411  0.3391 -1.0044 -0.5787
  190MOL0    Cl25560   4.517   2.398  10.501 -0.3470 -0.2376  0.0755
  190MOL0     C25561   4.652   3.002   9.476  0.1812 -0.0690  0.0251
  190MOL0     C25562   4.716   3.102   9.396 -0.4284  0.6081  0.4615
  190MOL0     O25563   4.599   3.466   9.296 -0.0423  0.3922  0.2531
  190MOL0     C25564   4.887   3.389   9.094 -0.6144  0.0425  0.1249
  190MOL0     C25565   4.954   3.420   8.969  0.7351  0.1599 -0.4064
  190MOL0     N25566   5.624   3.345   8.716  0.9824 -0.2621 -0.2624
  190MOL0     N25567   5.702   3.298   8.620 -0.0854 -0.0113  0.1264
  190MOL0     C25568   6.650   3.228   8.027  0.3402  0.0321  0.0453
  190MOL0     C25569   6.719   3.128   7.959  0.0546 -0.5504 -0.4217
  190MOL0     C25570   6.876   2.710   7.936  1.4031  0.5526  0.2226
  190MOL0     C25571   6.998   2.715   7.868  0.4046  0.7517 -0.5644
  190MOL0     C25572   7.063   2.601   7.829  0.7202  0.6266  0.1666
  190MOL0     C25573   7.016   2.478   7.864 -0.6356 -0.5118 -0.3992
  190MOL0     O25574   7.102   2.375   7.837  0.1521 -0.5499 -0.1593
  190MOL0     C25575   7.052   2.243   7.813  0.0579  0.5118 -0.5525
  190MOL0     C25576   7.167   2.138   7.792 -0.7195  0.0737 -0.5651
  190MOL0     C25577   7.123   2.004   7.754  0.1277  0.7778  0.1595
  190MOL0     C25578   7.031   1.955   7.875  0.2472  0.3231  0.1240
  190MOL0     C25579   7.044   1.803   7.872  0.9618 -0.7400  0.2503
  190MOL0     C25580   7.041   1.681   7.868  0.1031  0.6999 -0.2438
  190MOL0     C25581   6.899   2.461   7.933 -0.3024 -0.5810  0.7918
  190MOL0     C25582   6.827   2.580   7.965 -0.0319  0.1695  0.2678
  190MOL0     H25583   6.910   3.038   8.217 -1.6364  0.1154  1.4585
  190MOL0     H25584   6.802   3.234   8.329 -3.7487  2.1457  0.1749
  190MOL0     H25585   6.400   3.336   8.188 -0.4444 -2.7162  0.9249
  190MOL0     H25586   6.472   3.242   8.318  1.5878 -0.9773  1.3533
  190MOL0     H25587   6.502   3.439   8.465 -2.4602 -1.4682  2.7211
  190MOL0     H25588   6.459   3.555   8.338  3.9260 -0.3983 -0.8918
  190MOL0     H25589   6.278   3.367   8.469  2.8841 -0.5923 -0.1140
  190MOL0     H25590   6.287   3.538   8.498  2.7175 -2.3212  2.9919
  190MOL0     H25591   6.210   3.585   8.273  4.9995 -1.4330 -3.4959
  190MOL0     H25592   6.218   3.422   8.221 -2.5098  1.8093 -2.8909
  190MOL0     H25593   6.039   3.348   8.376 -2.5652 -0.0777 -1.1686
  190MOL0     H25594   6.045   3.510   8.463  2.6953  0.2039 -0.1274
  190MOL0     H25595   5.970   3.609   8.232  2.4792 -1.1421 -0.0039
  190MOL0     H25596   5.956   3.453   8.168 -0.5378  0.2918 -1.5106
  190MOL0     H25597   5.797   3.578   8.391 -1.4680  1.2362 -1.2677
  190MOL0     H25598   5.733   3.514   8.236 -2.7276  2.6150  0.6075
  190MOL0     H25599   5.852   3.297   8.409 -0.4555 -0.9653  0.9400
  190MOL0     H25600   5.696   3.316   8.328 -0.5757 -0.6521 -0.2948
  190MOL0     H25601   5.560   3.555   8.483 -3.2699 -1.4478 -0.2080
  190MOL0     H25602   5.458   3.477   8.857  0.3484  0.4540  0.3191
  190MOL0     H25603   5.467   3.629   8.763 -1.2493  0.1169  1.6001
  190MOL0     H25604   5.307   3.390   8.663  1.8525  0.8242 -4.0656
  190MOL0     H25605   5.322   3.546   8.599 -0.0442 -0.7145 -0.4672
  190MOL0     H25606   5.209   3.626   8.838 -2.9314 -2.1651  3.0612
  190MOL0     H25607   5.193   3.456   8.861 -1.5861  2.0739  2.7652
  190MOL0     H25608   5.046   3.429   8.682  0.2975  0.0497  1.8983
  190MOL0     H25609   5.098   3.577   8.604 -2.6619  0.3445 -1.4576
  190MOL0     H25610   4.793   3.704   8.891  3.3647 -0.9222 -0.4560
  190MOL0     H25611   4.715   3.738   9.207 -0.5472  1.0098  0.2331
  190MOL0     H25612   4.646   3.778   9.054  1.1797 -0.9322  1.2094
  190MOL0     H25613   4.563   3.667   9.166  0.5232  0.2402  1.0272
  190MOL0     H25614   4.671   3.387   9.587 -2.5146  0.9258  1.2486
  190MOL0     H25615   4.583   3.191   9.741 -1.0254 -2.3919 -0.6857
  190MOL0     H25616   4.751   2.892   9.701 -0.3330  2.2042 -1.8771
  190MOL0     H25617   4.675   2.964   9.848 -0.4020 -0.2680  0.4172
  190MOL0     H25618   4.549   2.720   9.740  0.0025 -0.5438  0.0138
  190MOL0     H25619   4.715   2.705   9.816  0.7499  0.4973 -0.9319
  190MOL0     H25620   4.489   2.842   9.953  1.5709  1.5671 -1.0662
  190MOL0     H25621   4.636   2.787  10.026 -0.6940 -0.1209 -0.3816
  190MOL0     H25622   4.397   2.616   9.925 -1.4096 -0.3612  0.9883
  190MOL0     H25623   4.548   2.539   9.984  3.1295  1.8384  0.6343
  190MOL0     H25624   4.347   2.570  10.154 -1.4371  0.5929  1.1152
  190MOL0     H25625   4.362   2.741  10.128 -0.6910 -1.1799 -1.1574
  190MOL0     H25626   4.597   2.596  10.243 -1.4614 -0.3889 -0.0640
  190MOL0     H25627   4.551   2.768  10.242  0.1537  0.2017 -0.7917
  190MOL0     H25628   4.359   2.708  10.403  0.5201 -0.1605 -2.0053
  190MOL0     H25629   4.512   2.667  10.477 -1.2231  1.8742  1.0320
  190MOL0     H25630   4.384   2.454  10.309 -0.3999  3.0392 -2.1992
  190MOL0     H25631   4.303   2.474  10.468  1.8027 -2.2566  1.5223
  190MOL0     H25632   4.655   2.893   9.476  0.6089 -0.1103 -2.1894
  190MOL0     H25633   4.759   3.073   9.300  2.2498  1.8606  1.2088
  190MOL0     H25634   4.914   3.294   9.138 -1.6096 -0.0798  0.4781
  190MOL0     H25635   5.036   3.355   8.941  2.7923  3.8030 -3.7922
  190MOL0     H25636   6.579   3.279   7.963 -1.3072 -2.4382 -0.2271
  190MOL0     H25637   6.699   3.093   7.858  1.6694  1.6201 -1.5767
  190MOL0     H25638   7.036   2.813   7.840 -3.5902  2.7107  0.0366
  190MOL0     H25639   7.144   2.609   7.758  0.7441  0.4612  0.1729
  190MOL0     H25640   6.986   2.211   7.894 -0.9133  0.0271 -1.5122
  190MOL0     H25641   6.991   2.241   7.722  0.3460  2.3675 -0.8269
  190MOL0     H25642   7.219   2.121   7.887 -1.5908  1.7845  0.2601
  190MOL0     H25643   7.235   2.164   7.710  0.4909 -1.7556 -0.2164
  190MOL0     H25644   7.210   1.938   7.746  2.2241  3.5970 -2.6031
  190MOL0     H25645   7.074   1.995   7.656  0.0768 -2.0073  0.3706
  190MOL0     H25646   6.929   1.984   7.848  1.5174  2.0928 -3.5248
  190MOL0     H25647   7.058   1.996   7.972 -0.4192 -0.6847  0.7453
  190MOL0     H25648   7.025   1.576   7.881 -0.0694  0.6663 -0.7065
  190MOL0     H25649   6.857   2.366   7.964 -2.5778  0.8589  2.5248
  190MOL0     H25650   6.738   2.555   8.022  1.0829 -2.0559  1.1728
  191MOL0     O25651   0.420   9.235   9.858 -0.1642  0.1850 -0.2046
  191MOL0     C25652   0.360   9.128   9.864 -0.0265 -0.1505 -1.1746
  191MOL0     O25653   0.421   9.011   9.864 -0.4774  0.3250  0.0385
  191MOL0     C25654   0.391   8.919   9.953  0.0876  0.5318 -0.5044
  191MOL0     C25655   0.412   8.941  10.098 -0.1089 -0.1455  1.0633
  191MOL0     C25656   0.380   8.851  10.190 -0.5485  0.5943  0.0617
  191MOL0     C25657   0.309   8.737  10.147  0.0858 -0.2320  0.9259
  191MOL0     O25658   0.229   8.661  10.220 -0.0501  1.1556 -0.4325
  191MOL0     C25659   0.154   8.743  10.310  0.5683  0.3224  0.8811
  191MOL0     C25660   0.014   8.677  10.338 -0.4905 -0.1295 -1.3394
  191MOL0     C25661  -0.063   8.663  10.216  0.0056  0.1011  0.4404
  191MOL0     C25662  -0.168   8.771  10.192 -0.0489 -0.0584 -0.1963
  191MOL0     C25663  -0.283   8.742  10.101  0.5268  0.7166  0.4157
  191MOL0     C25664  -0.236   8.710   9.960  0.3138  0.5946  0.0159
  191MOL0     C25665  -0.350   8.655   9.887  0.1769 -0.1992  0.1535
  191MOL0     C25666  -0.311   8.580   9.772 -1.0314  0.7670  0.9969
  191MOL0     N25667  -0.239   8.656   9.663  0.3621  0.1304 -0.0909
  191MOL0     C25668  -0.304   8.718   9.561  0.6723  0.0257  0.8325
  191MOL0     C25669  -0.213   8.790   9.495  0.0459  0.1834  0.5746
  191MOL0     C25670  -0.222   8.869   9.368 -0.3631  0.1165  0.4922
  191MOL0     C25671  -0.340   8.965   9.349 -0.2111 -1.4309  0.2616
  191MOL0     C25672  -0.320   9.092   9.429  0.4624 -0.2440  0.4297
  191MOL0     C25673  -0.441   9.184   9.412  0.3025 -0.4092 -0.6041
  191MOL0     O25674  -0.422   9.301   9.497  0.5333 -0.8829 -0.1126
  191MOL0     C25675  -0.371   9.416   9.435 -0.1186 -0.6407  0.2582
  191MOL0     C25676  -0.307   9.431   9.311  0.0408 -1.2863  0.4442
  191MOL0     C25677  -0.251   9.563   9.274  0.0399  0.8036  0.8111
  191MOL0     C25678  -0.189   9.560   9.135  0.1468 -0.4783 -0.6108
  191MOL0     C25679  -0.246   9.672   9.357  0.0535 -0.4838  0.0959
  191MOL0     C25680  -0.210   9.810   9.326 -0.2398  0.1199  0.4931
  191MOL0     O25681  -0.260   9.912   9.410  0.1438 -0.9815  0.7326
  191MOL0     C25682  -0.259  10.046   9.377 -0.8649  0.6709  0.2199
  191MOL0     C25683  -0.243  10.099   9.247  0.4784  0.3635  0.0504
  191MOL0     C25684  -0.241  10.235   9.233  0.5445 -0.0545  0.3460
  191MOL0     C25685  -0.258  10.325   9.341 -0.1513  0.4171  0.2726
  191MOL0     O25686  -0.265  10.465   9.307 -0.4212 -0.6026 -0.3540
  191MOL0     C25687  -0.397  10.508   9.329 -0.5236 -0.4378 -0.5600
  191MOL0     C25688  -0.397  10.664   9.348 -0.7732  1.0478  0.1062
  191MOL0     C25689  -0.360  10.703   9.484 -0.4245  0.0903 -0.2412
  191MOL0     C25690  -0.325  10.856   9.458 -0.6320  0.1709 -0.1931
  191MOL0     C25691  -0.272  10.925   9.577  0.5193 -0.1231 -0.2472
  191MOL0     C25692  -0.298  11.077   9.579  0.9270 -0.2832 -0.5389
  191MOL0     C25693  -0.250  11.151   9.454 -0.3247 -0.7561 -0.0335
  191MOL0     C25694  -0.300  11.299   9.461 -0.2486  0.5405  0.2248
  191MOL0    Cl25695  -0.238  11.378   9.312 -0.2071  0.4501 -0.2734
  191MOL0     C25696  -0.265  10.273   9.473  0.6326  0.4805  0.4128
  191MOL0     C25697  -0.268  10.139   9.489 -0.0479  0.2578 -0.3829
  191MOL0     O25698  -0.127   9.826   9.236  0.6082 -0.2034  0.1568
  191MOL0     C25699  -0.322   9.660   9.466  0.2441  0.2423 -0.8175
  191MOL0     C25700  -0.381   9.539   9.511  0.1304  0.5293  0.3872
  191MOL0     N25701  -0.093   8.777   9.553 -0.6379 -0.4127 -0.4160
  191MOL0     N25702  -0.103   8.684   9.649  0.3154 -0.0638 -0.8785
  191MOL0     C25703   0.284   8.713  10.012  0.0885 -0.0786  0.2816
  191MOL0     C25704   0.342   8.796   9.916  2.2092  0.4063  0.3246
  191MOL0     C25705   0.209   9.144   9.866 -0.5130 -0.2099  0.0264
  191MOL0     C25706   0.124   9.044   9.837  0.5022 -0.7188  0.5459
  191MOL0     C25707  -0.014   9.059   9.849  0.0145  0.4643 -0.2536
  191MOL0     C25708  -0.074   9.181   9.887 -0.0124 -0.5868  0.1434
  191MOL0     O25709  -0.214   9.190   9.900  0.6466 -0.3233 -0.2160
  191MOL0     C25710  -0.270   9.270   9.793 -0.1044 -0.1927 -0.0771
  191MOL0     C25711  -0.421   9.283   9.819  0.0312 -0.6035  0.4206
  191MOL0     C25712  -0.512   9.158   9.792  0.0364 -0.8306  0.1000
  191MOL0     C25713  -0.652   9.158   9.862 -0.5150 -0.0362 -0.3325
  191MOL0     C25714  -0.636   9.170  10.006  0.1074 -0.2363  0.2452
  191MOL0     C25715  -0.617   9.179  10.121 -0.4802 -0.0435 -0.3018
  191MOL0     C25716   0.018   9.286   9.924 -1.1343 -0.5847 -0.0541
  191MOL0     C25717   0.153   9.276   9.904 -0.4118  0.8181  0.5255
  191MOL0     H25718   0.437   9.045  10.117  2.3481  0.1136 -2.5563
  191MOL0     H25719   0.397   8.867  10.296  0.6982 -2.6395  0.4650
  191MOL0     H25720   0.204   8.745  10.407  3.3677 -2.2695 -0.3446
  191MOL0     H25721   0.134   8.845  10.276 -3.1700  1.0271  4.3862
  191MOL0     H25722   0.042   8.579  10.377 -2.7054  1.1701  4.5591
  191MOL0     H25723  -0.042   8.730  10.416  0.7799 -2.3877  1.2963
  191MOL0     H25724   0.006   8.667  10.131  0.4937  1.5717  0.8806
  191MOL0     H25725  -0.111   8.565  10.218  1.4208 -0.8825 -3.6459
  191MOL0     H25726  -0.213   8.803  10.287  0.6736  1.0002 -0.1870
  191MOL0     H25727  -0.116   8.857  10.149 -2.2274  1.6715  0.4363
  191MOL0     H25728  -0.330   8.655  10.149  2.0671  0.9797  2.5267
  191MOL0     H25729  -0.358   8.820  10.095  0.1745  0.3341 -0.3687
  191MOL0     H25730  -0.206   8.805   9.916 -0.1898  0.7949  0.0991
  191MOL0     H25731  -0.154   8.638   9.967  0.0772  0.3454  0.2644
  191MOL0     H25732  -0.413   8.597   9.955 -1.8422 -1.6267 -2.7033
  191MOL0     H25733  -0.401   8.745   9.849 -0.7694 -1.7872 -2.6041
  191MOL0     H25734  -0.398   8.530   9.729 -0.7281  1.9352 -1.0850
  191MOL0     H25735  -0.245   8.500   9.808  0.8891  3.1280  3.1160
  191MOL0     H25736  -0.409   8.725   9.535  0.6148  1.3041  1.3566
  191MOL0     H25737  -0.128   8.922   9.348  0.5673 -1.9330 -1.0007
  191MOL0     H25738  -0.234   8.791   9.292  0.3503 -2.1220  2.5682
  191MOL0     H25739  -0.429   8.914   9.388 -0.8849  0.9289  2.0692
  191MOL0     H25740  -0.364   8.987   9.245  1.9966 -0.3031 -0.0500
  191MOL0     H25741  -0.231   9.153   9.410  1.5105 -1.5683  0.9357
  191MOL0     H25742  -0.302   9.061   9.533  4.3750 -2.9204 -0.8119
  191MOL0     H25743  -0.535   9.133   9.432 -0.3264 -0.2469 -2.8619
  191MOL0     H25744  -0.459   9.217   9.309 -1.9771  1.6643  0.3724
  191MOL0     H25745  -0.297   9.346   9.244  0.2863 -1.5569  0.8224
  191MOL0     H25746  -0.227   9.648   9.084  1.5422 -0.0266 -0.9114
  191MOL0     H25747  -0.083   9.586   9.145  1.1892 -3.6550 -2.0681
  191MOL0     H25748  -0.211   9.461   9.093 -0.6917 -0.0129 -1.3054
  191MOL0     H25749  -0.234  10.036   9.160  1.6128 -1.7320  1.5871
  191MOL0     H25750  -0.240  10.284   9.137  3.4914 -0.9926 -0.2035
  191MOL0     H25751  -0.466  10.501   9.244 -1.5872  0.9759  0.1476
  191MOL0     H25752  -0.440  10.456   9.416 -0.1756  0.2177  0.0086
  191MOL0     H25753  -0.328  10.691   9.269  1.1657 -0.7837  1.0705
  191MOL0     H25754  -0.499  10.700   9.331 -0.3291  2.3113 -0.0077
  191MOL0     H25755  -0.276  10.646   9.525  0.4668  1.4076 -0.1344
  191MOL0     H25756  -0.435  10.692   9.563 -1.1042 -1.4778 -1.0759
  191MOL0     H25757  -0.251  10.863   9.378  1.8220 -3.0867  1.5049
  191MOL0     H25758  -0.410  10.913   9.421 -1.3295 -0.3088  0.6441
  191MOL0     H25759  -0.164  10.912   9.587  0.6789  2.4383  2.9058
  191MOL0     H25760  -0.306  10.889   9.675 -1.9862  2.3121 -0.1062
  191MOL0     H25761  -0.407  11.088   9.587  0.8583 -1.2916  0.0673
  191MOL0     H25762  -0.258  11.121   9.670 -0.0912  0.3772 -0.3952
  191MOL0     H25763  -0.300  11.115   9.364  2.7981 -3.4554 -0.9170
  191MOL0     H25764  -0.145  11.131   9.430 -0.4418 -0.3047 -0.9402
  191MOL0     H25765  -0.260  11.343   9.553 -0.6981  0.1857  0.5944
  191MOL0     H25766  -0.409  11.307   9.461 -0.2274  0.8394 -0.3198
  191MOL0     H25767  -0.282  10.341   9.556  0.0944  0.3829  0.3874
  191MOL0     H25768  -0.285  10.085   9.582  0.0074  0.2841 -0.3576
  191MOL0     H25769  -0.336   9.742   9.536  0.2541 -0.7413  0.3789
  191MOL0     H25770  -0.454   9.544   9.591  0.5505 -3.8242  1.2529
  191MOL0     H25771   0.221   8.635   9.970 -0.8439 -0.0900  1.6237
  191MOL0     H25772   0.330   8.780   9.809  0.6017 -2.9183  0.8660
  191MOL0     H25773   0.163   8.945   9.814 -1.1511 -1.4941  0.8668
  191MOL0     H25774  -0.076   8.972   9.834 -1.4472  1.1426  1.4904
  191MOL0     H25775  -0.224   9.369   9.803  2.4356 -1.0660 -2.0350
  191MOL0     H25776  -0.246   9.229   9.695  2.1501 -1.9730  1.1211
  191MOL0     H25777  -0.451   9.363   9.751 -2.7418 -0.9814  1.1106
  191MOL0     H25778  -0.441   9.329   9.916  0.1327 -0.2436  0.2731
  191MOL0     H25779  -0.461   9.066   9.821  0.4471 -1.0333 -1.2360
  191MOL0     H25780  -0.533   9.166   9.685  3.1153  2.0146 -0.4780
  191MOL0     H25781  -0.707   9.067   9.837 -1.6319  0.3489  0.6244
  191MOL0     H25782  -0.727   9.229   9.827 -2.6218 -2.8110 -1.8565
  191MOL0     H25783  -0.610   9.176  10.228 -0.9918 -4.1226 -0.2506
  191MOL0     H25784  -0.029   9.380   9.952  0.5239  0.1848  0.2831
  191MOL0     H25785   0.203   9.371   9.919 -0.3770  0.6351  1.6839
  192MOL0     O25786   3.641   3.375   4.327 -0.2212 -0.1966 -0.2481
  192MOL0     C25787   3.620   3.286   4.246  0.6838 -0.3040  0.7500
  192MOL0     O25788   3.620   3.301   4.108 -0.0225  0.0583  0.2039
  192MOL0     C25789   3.607   3.426   4.059  0.1686 -0.0469  0.0402
  192MOL0     C25790   3.474   3.485   4.068 -0.3288  0.6810 -0.9530
  192MOL0     C25791   3.454   3.617   4.037 -0.3525 -1.1386  0.0066
  192MOL0     C25792   3.560   3.700   3.993  0.1903  0.3663  0.3581
  192MOL0     O25793   3.546   3.822   3.949 -0.2286 -0.0298  0.8378
  192MOL0     C25794   3.424   3.894   3.975 -0.3179  0.6658  0.0871
  192MOL0     C25795   3.450   4.024   3.908 -0.2265 -0.6093  1.0590
  192MOL0     C25796   3.335   4.124   3.943 -0.1181  0.4416  0.7717
  192MOL0     C25797   3.362   4.255   3.867  0.2805  0.2411  0.0358
  192MOL0     C25798   3.244   4.350   3.865 -0.0198  0.5617 -0.2249
  192MOL0     C25799   3.276   4.466   3.788 -0.5098 -0.8668  1.1081
  192MOL0     C25800   3.163   4.560   3.766 -0.1611 -0.1988 -0.2875
  192MOL0     C25801   3.104   4.641   3.881  0.3122 -0.7137 -0.2541
  192MOL0     N25802   3.155   4.771   3.910  0.3657 -0.8787 -0.2790
  192MOL0     C25803   3.269   4.789   3.981 -0.6329 -0.4883  0.2375
  192MOL0     C25804   3.272   4.924   4.004  0.6896 -0.6944  0.8810
  192MOL0     C25805   3.382   4.997   4.077 -0.3211  0.2428  0.3673
  192MOL0     C25806   3.397   5.141   4.012 -0.1750  0.0717 -0.0397
  192MOL0     C25807   3.487   5.230   4.095 -0.6635 -0.1454  1.3010
  192MOL0     C25808   3.548   5.340   3.997 -0.1391 -0.4113 -1.0455
  192MOL0     O25809   3.668   5.405   4.058  0.1317  0.5580 -0.1133
  192MOL0     C25810   3.751   5.459   3.969  0.5425 -1.2591 -0.9266
  192MOL0     C25811   3.716   5.597   3.940  0.6783 -0.4376 -0.2119
  192MOL0     C25812   3.792   5.676   3.852 -0.1445 -1.7013 -0.8121
  192MOL0     C25813   3.765   5.824   3.855  0.3633 -0.1095 -0.2592
  192MOL0     C25814   3.903   5.620   3.785  0.3479  0.5927  0.3509
  192MOL0     C25815   3.997   5.692   3.701 -0.0689 -0.3193 -0.4409
  192MOL0     O25816   4.030   5.656   3.579  0.1357 -0.3075 -0.5148
  192MOL0     C25817   4.136   5.715   3.511 -0.4286  0.1116 -0.0392
  192MOL0     C25818   4.101   5.751   3.380  0.3884  0.0240  0.1014
  192MOL0     C25819   4.197   5.795   3.283 -0.4488  0.1676 -0.1061
  192MOL0     C25820   4.331   5.821   3.334 -0.2351  0.2762 -0.2953
  192MOL0     O25821   4.431   5.874   3.260  0.4072 -0.1653  0.1905
  192MOL0     C25822   4.409   5.923   3.127 -0.6261 -0.0011 -0.1103
  192MOL0     C25823   4.534   6.000   3.093 -0.5480 -0.0015  0.3004
  192MOL0     C25824   4.674   5.927   3.102  1.2760  0.3163 -0.5636
  192MOL0     C25825   4.774   6.027   3.060 -0.8146  0.0927 -0.1080
  192MOL0     C25826   4.908   5.961   3.036 -0.2571  0.3480  0.2015
  192MOL0     C25827   4.912   5.881   2.905 -0.5950  0.4265  0.5944
  192MOL0     C25828   5.047   5.841   2.865 -0.0161  0.0150  0.1748
  192MOL0     C25829   5.035   5.730   2.755 -0.8958 -0.3434 -0.0472
  192MOL0    Cl25830   5.167   5.737   2.641 -0.1249 -0.1720 -0.5266
  192MOL0     C25831   4.360   5.785   3.470  0.3208 -0.6607 -0.7882
  192MOL0     C25832   4.265   5.717   3.549  0.3320  0.3001 -0.5129
  192MOL0     O25833   4.048   5.787   3.769  0.9798 -0.1917  0.3020
  192MOL0     C25834   3.929   5.482   3.797 -0.7030  0.1524  0.1238
  192MOL0     C25835   3.863   5.404   3.903  0.1138  1.2213 -0.1059
  192MOL0     N25836   3.153   4.978   3.945  0.3883 -0.6155 -0.1158
  192MOL0     N25837   3.083   4.885   3.894 -0.5083  0.5011  0.5597
  192MOL0     C25838   3.689   3.642   3.990 -0.3935 -0.1946  0.3730
  192MOL0     C25839   3.709   3.505   4.017 -0.6648 -0.5630  0.1379
  192MOL0     C25840   3.603   3.151   4.299 -0.4563 -0.0775  0.7195
  192MOL0     C25841   3.514   3.133   4.400  0.2305  1.0995  0.4460
  192MOL0     C25842   3.473   3.006   4.444  0.1626  0.6728  0.8949
  192MOL0     C25843   3.538   2.894   4.394 -0.1472  0.7574 -0.1324
  192MOL0     O25844   3.483   2.767   4.427  0.6435  0.2821  0.3403
  192MOL0     C25845   3.513   2.662   4.328 -0.3002 -0.0083 -0.9864
  192MOL0     C25846   3.414   2.542   4.330 -0.5685 -0.7803  0.1909
  192MOL0     C25847   3.271   2.575   4.286 -0.1830  0.2726 -0.0926
  192MOL0     C25848   3.187   2.661   4.384  0.0588  0.8820  0.4067
  192MOL0     C25849   3.059   2.695   4.332  0.0554  0.6566 -0.0343
  192MOL0     C25850   2.952   2.708   4.282 -0.2000  0.8849 -0.0523
  192MOL0     C25851   3.640   2.901   4.298  0.2304  0.1159  0.1419
  192MOL0     C25852   3.665   3.034   4.242  0.0173 -0.1301  0.1553
  192MOL0     H25853   3.388   3.431   4.106  1.9597 -0.5052  3.2133
  192MOL0     H25854   3.353   3.654   4.019 -0.9482 -2.2153  0.9874
  192MOL0     H25855   3.341   3.845   3.924  1.3707 -2.7007  0.3305
  192MOL0     H25856   3.402   3.905   4.081 -0.8160  0.7273 -0.0219
  192MOL0     H25857   3.546   4.064   3.941  0.0671 -0.6406  0.2469
  192MOL0     H25858   3.453   4.005   3.801 -0.9334 -1.2959  1.1492
  192MOL0     H25859   3.236   4.088   3.917  0.4815  0.8285 -2.4158
  192MOL0     H25860   3.340   4.141   4.051 -0.7885 -1.1477  1.0792
  192MOL0     H25861   3.445   4.314   3.905 -0.6278  0.8729  1.1006
  192MOL0     H25862   3.384   4.219   3.766 -0.2858 -0.1240  0.0347
  192MOL0     H25863   3.158   4.293   3.830  1.2748 -1.2889 -0.5466
  192MOL0     H25864   3.209   4.366   3.967  0.9822 -3.1402  0.8310
  192MOL0     H25865   3.364   4.516   3.830  0.9524 -2.3521 -0.0755
  192MOL0     H25866   3.314   4.423   3.695 -0.7347 -2.6595  1.8149
  192MOL0     H25867   3.191   4.641   3.698 -0.5908  2.4788  2.4823
  192MOL0     H25868   3.075   4.502   3.736 -2.4723  1.8305  2.0442
  192MOL0     H25869   3.112   4.576   3.968  1.8385 -2.3598 -1.5430
  192MOL0     H25870   3.001   4.674   3.862  0.7852  1.3854  0.5064
  192MOL0     H25871   3.333   4.709   4.017  0.5314  0.3087 -0.0012
  192MOL0     H25872   3.364   4.998   4.185 -0.8217  0.5934  0.2856
  192MOL0     H25873   3.473   4.941   4.054 -0.6680  0.2344 -1.0826
  192MOL0     H25874   3.301   5.194   4.010  0.0365  1.0833  4.7309
  192MOL0     H25875   3.436   5.143   3.910  0.3553 -0.3443  0.1515
  192MOL0     H25876   3.572   5.173   4.134 -0.1090 -0.7330 -0.6593
  192MOL0     H25877   3.437   5.287   4.173  3.4288  2.1177  2.5719
  192MOL0     H25878   3.479   5.416   3.961  0.3741  0.9537  0.7356
  192MOL0     H25879   3.593   5.291   3.910 -0.3117 -0.6501 -0.9995
  192MOL0     H25880   3.636   5.639   4.000 -0.3153 -1.9431 -0.4101
  192MOL0     H25881   3.662   5.830   3.890  1.0652  0.7723  1.7568
  192MOL0     H25882   3.818   5.881   3.932 -1.3202  1.2945 -0.0883
  192MOL0     H25883   3.756   5.876   3.759 -0.2105 -0.0463 -0.1737
  192MOL0     H25884   3.994   5.757   3.359  0.0091  2.6191  2.2289
  192MOL0     H25885   4.160   5.807   3.182  2.9931 -2.1062 -1.8374
  192MOL0     H25886   4.406   5.832   3.066  2.4800  0.3649 -0.9767
  192MOL0     H25887   4.323   5.988   3.106 -0.5822 -0.8348 -3.6308
  192MOL0     H25888   4.528   6.039   2.991  0.3760 -1.8770 -0.5234
  192MOL0     H25889   4.549   6.084   3.162  2.0477 -0.6083  0.5872
  192MOL0     H25890   4.667   5.859   3.016 -0.5730 -1.0353  0.5892
  192MOL0     H25891   4.699   5.886   3.200  0.5201  1.3930  0.1016
  192MOL0     H25892   4.741   6.073   2.967 -0.3903  0.7947  0.0854
  192MOL0     H25893   4.798   6.104   3.134  1.5656 -1.9117  1.3798
  192MOL0     H25894   4.923   5.894   3.121  2.0865 -1.6107 -1.6182
  192MOL0     H25895   4.996   6.025   3.028  1.8590 -2.4999 -1.2010
  192MOL0     H25896   4.845   5.796   2.925  0.2787 -0.4605 -0.1912
  192MOL0     H25897   4.878   5.946   2.824  2.2715  0.6286 -0.5570
  192MOL0     H25898   5.111   5.802   2.946 -0.3140  2.0995  1.4966
  192MOL0     H25899   5.105   5.924   2.824  3.3919 -1.3001  1.8918
  192MOL0     H25900   4.938   5.732   2.704 -0.2331 -0.3232 -1.3461
  192MOL0     H25901   5.042   5.634   2.807 -0.8877 -0.3616 -0.0821
  192MOL0     H25902   4.460   5.793   3.512  0.1248 -0.5437 -0.3442
  192MOL0     H25903   4.292   5.675   3.645  0.1127 -0.2353 -0.6822
  192MOL0     H25904   4.000   5.423   3.739  0.1999  1.7843 -0.4907
  192MOL0     H25905   3.882   5.298   3.916 -3.7423  0.4356  0.3321
  192MOL0     H25906   3.779   3.697   3.966 -1.6165  0.8766 -2.0518
  192MOL0     H25907   3.804   3.453   4.015 -0.2350  0.1980  0.3879
  192MOL0     H25908   3.463   3.220   4.441  0.9753  1.8362 -0.1500
  192MOL0     H25909   3.403   2.997   4.526  0.1568 -0.5890  0.7764
  192MOL0     H25910   3.503   2.707   4.229 -1.7964  1.2994 -0.3120
  192MOL0     H25911   3.608   2.611   4.346 -0.2201  0.0614 -1.2149
  192MOL0     H25912   3.414   2.507   4.434  0.6100  0.5667  0.6822
  192MOL0     H25913   3.452   2.461   4.267 -2.1907 -0.2577 -1.5815
  192MOL0     H25914   3.206   2.487   4.283 -0.4685  0.3952  1.5943
  192MOL0     H25915   3.288   2.614   4.185  2.5841 -1.0406 -0.2270
  192MOL0     H25916   3.243   2.753   4.404 -0.1286  0.7567  1.5798
  192MOL0     H25917   3.168   2.606   4.477 -2.4194  1.4731  0.3175
  192MOL0     H25918   2.854   2.726   4.243  0.3505  0.3367 -1.7411
  192MOL0     H25919   3.699   2.822   4.253  0.4130  2.7092 -4.8852
  192MOL0     H25920   3.738   3.051   4.164 -0.8893 -1.7082 -1.1065
  193MOL0     O25921   4.773   4.906   3.115  0.1442 -0.8937 -0.4101
  193MOL0     C25922   4.814   4.926   3.231 -1.2733 -0.3529  0.5508
  193MOL0     O25923   4.787   4.842   3.340  0.2721 -0.2233  0.9825
  193MOL0     C25924   4.684   4.747   3.344  0.0722 -0.4496 -0.8702
  193MOL0     C25925   4.711   4.638   3.433 -0.4333 -0.6178  1.7821
  193MOL0     C25926   4.617   4.538   3.447  0.1741 -0.0852 -0.7520
  193MOL0     C25927   4.494   4.536   3.372 -0.0147  0.2020  0.2116
  193MOL0     O25928   4.415   4.428   3.388  0.1130 -0.1921  0.6050
  193MOL0     C25929   4.280   4.447   3.392 -0.0196 -0.5454 -1.1009
  193MOL0     C25930   4.214   4.319   3.443  0.4015 -0.2400 -0.0327
  193MOL0     C25931   4.256   4.280   3.585 -0.8425  0.6709  0.0907
  193MOL0     C25932   4.362   4.165   3.598  0.3684 -0.0896  0.1329
  193MOL0     C25933   4.463   4.176   3.714 -0.3887 -0.8483  0.2034
  193MOL0     C25934   4.539   4.044   3.727  0.5835  1.3200 -0.7621
  193MOL0     C25935   4.455   3.942   3.815 -0.4179  0.0413  1.2165
  193MOL0     C25936   4.534   3.813   3.864 -0.1899  0.0877  0.0780
  193MOL0     N25937   4.660   3.833   3.931  0.1153  0.3902  0.0911
  193MOL0     C25938   4.700   3.933   4.014  0.0142  0.6981  0.3509
  193MOL0     C25939   4.820   3.899   4.072 -0.3104  0.5937  0.1400
  193MOL0     C25940   4.895   3.978   4.176  0.0957  1.4274 -0.5213
  193MOL0     C25941   4.876   3.920   4.318  0.2875 -0.2672 -0.4815
  193MOL0     C25942   4.958   3.981   4.426 -1.0099  0.2623 -0.2694
  193MOL0     C25943   4.978   4.133   4.408  0.0513  0.9661  0.0290
  193MOL0     O25944   4.851   4.200   4.420  0.7286 -0.1651 -0.5428
  193MOL0     C25945   4.864   4.339   4.421 -0.3669 -1.3784 -0.1646
  193MOL0     C25946   4.752   4.415   4.405 -0.4844  1.1258  0.1119
  193MOL0     C25947   4.750   4.553   4.375  0.1157  0.4358  0.1358
  193MOL0     C25948   4.614   4.605   4.334  0.2635 -0.4735  0.6361
  193MOL0     C25949   4.872   4.621   4.372  0.5958 -0.0856 -0.0022
  193MOL0     C25950   4.884   4.756   4.319  0.2753  0.2214 -0.7514
  193MOL0     O25951   4.797   4.846   4.373 -0.2800 -0.8173 -0.3385
  193MOL0     C25952   4.792   4.971   4.316  0.2349 -0.3704 -0.4242
  193MOL0     C25953   4.707   5.013   4.204 -0.1161  0.2235  1.5901
  193MOL0     C25954   4.718   5.141   4.155 -0.6108 -0.1480  0.5439
  193MOL0     C25955   4.811   5.232   4.203 -0.1038 -0.7098  0.4277
  193MOL0     O25956   4.823   5.355   4.139  0.0620  0.0974  0.6873
  193MOL0     C25957   4.936   5.438   4.162 -0.2818  0.5627 -1.0120
  193MOL0     C25958   4.904   5.564   4.081 -0.0364 -0.3087  0.1307
  193MOL0     C25959   5.026   5.655   4.066 -0.0530  0.0669 -0.2310
  193MOL0     C25960   5.000   5.803   4.075  0.0203 -0.1772 -0.2737
  193MOL0     C25961   5.138   5.877   4.074  0.8656  0.6087 -0.6346
  193MOL0     C25962   5.123   6.016   4.125  0.0386  0.2843  0.2590
  193MOL0     C25963   5.266   6.063   4.149  0.1365  0.1864  0.3796
  193MOL0     C25964   5.265   6.202   4.214  0.0688 -0.0310 -0.5615
  193MOL0    Cl25965   5.162   6.317   4.112 -0.1804 -0.1219 -0.5512
  193MOL0     C25966   4.884   5.196   4.318  0.1759  0.2175  0.3618
  193MOL0     C25967   4.881   5.066   4.370  0.2162  0.5448  0.4026
  193MOL0     O25968   4.985   4.782   4.259 -0.3553  0.2543 -0.0880
  193MOL0     C25969   4.990   4.551   4.401  0.8697  0.0395  0.1045
  193MOL0     C25970   4.985   4.413   4.433  0.5279 -0.2079  0.2891
  193MOL0     N25971   4.856   3.778   4.015 -0.2149 -0.9793  0.4278
  193MOL0     N25972   4.758   3.731   3.941 -0.3010 -0.7184  0.3466
  193MOL0     C25973   4.461   4.653   3.297  0.7077 -0.4537  0.5223
  193MOL0     C25974   4.560   4.752   3.280  0.9221  0.1007  0.1502
  193MOL0     C25975   4.905   5.043   3.253  0.0742 -0.3366  0.1615
  193MOL0     C25976   4.944   5.074   3.384 -0.0116  0.7986  1.5394
  193MOL0     C25977   5.018   5.189   3.410 -0.2083 -0.2306  0.5570
  193MOL0     C25978   5.084   5.253   3.303 -0.3506 -0.8014 -0.2035
  193MOL0     O25979   5.179   5.350   3.347 -0.1357  0.3048  0.2108
  193MOL0     C25980   5.253   5.432   3.253  1.1962 -0.1391 -0.0965
  193MOL0     C25981   5.334   5.539   3.322 -0.3374  0.2429  0.0862
  193MOL0     C25982   5.435   5.605   3.228 -0.3604 -0.6951  1.0479
  193MOL0     C25983   5.456   5.754   3.264 -0.2230 -0.0316  0.5417
  193MOL0     C25984   5.344   5.836   3.214 -0.3193 -0.8738 -0.3723
  193MOL0     C25985   5.241   5.902   3.182 -0.4731 -0.5860 -1.1922
  193MOL0     C25986   5.046   5.218   3.177 -0.2970 -0.1360  0.5292
  193MOL0     C25987   4.959   5.114   3.145 -0.5702  0.3182 -0.5823
  193MOL0     H25988   4.807   4.633   3.484  1.0401 -1.3219 -0.8338
  193MOL0     H25989   4.647   4.456   3.512 -0.4384  0.3378  0.0903
  193MOL0     H25990   4.268   4.521   3.472 -0.2734 -2.4793  0.7117
  193MOL0     H25991   4.235   4.477   3.296 -0.4231  1.1755 -0.4234
  193MOL0     H25992   4.107   4.339   3.452  0.6998  1.1448  0.8052
  193MOL0     H25993   4.237   4.236   3.376  0.2945  1.7382 -2.6960
  193MOL0     H25994   4.285   4.372   3.637  0.1171 -0.1569  1.0535
  193MOL0     H25995   4.166   4.247   3.637 -1.9581  2.5348 -0.5227
  193MOL0     H25996   4.309   4.071   3.611  0.8656 -0.7656 -2.2477
  193MOL0     H25997   4.414   4.152   3.502 -3.1042 -2.9482 -1.6056
  193MOL0     H25998   4.536   4.255   3.697  0.4019 -1.5731  0.1482
  193MOL0     H25999   4.406   4.205   3.803 -2.9856 -2.4053 -0.8157
  193MOL0     H26000   4.578   4.005   3.633  2.1127  0.9054  0.0088
  193MOL0     H26001   4.624   4.081   3.785 -1.0433  3.7699  0.2502
  193MOL0     H26002   4.416   3.999   3.900  0.8639  1.0753  1.1473
  193MOL0     H26003   4.367   3.909   3.758  0.5652 -0.6865  0.0660
  193MOL0     H26004   4.546   3.745   3.779  2.1665  1.4192 -0.7368
  193MOL0     H26005   4.473   3.749   3.929 -0.2456 -0.7202 -0.7430
  193MOL0     H26006   4.647   4.024   4.039  1.1735  0.5194  3.9504
  193MOL0     H26007   5.002   3.979   4.152  0.0509  0.8118 -0.7761
  193MOL0     H26008   4.864   4.083   4.169 -0.7377  1.0963 -2.5297
  193MOL0     H26009   4.894   3.812   4.314  2.5510 -0.1595  2.8877
  193MOL0     H26010   4.770   3.930   4.344  0.2279  1.8829 -1.3156
  193MOL0     H26011   5.063   3.950   4.431 -1.0160  0.4181  1.3760
  193MOL0     H26012   4.931   3.958   4.529  2.5746  0.2191  0.8075
  193MOL0     H26013   5.025   4.167   4.315  1.7448  0.6284  0.7083
  193MOL0     H26014   5.045   4.160   4.491 -0.6447 -0.2143  1.0243
  193MOL0     H26015   4.661   4.356   4.398  1.8060 -2.6658 -0.4834
  193MOL0     H26016   4.553   4.515   4.324  1.3238 -1.1673  0.2428
  193MOL0     H26017   4.572   4.662   4.418 -4.2103 -2.4987  0.0493
  193MOL0     H26018   4.610   4.661   4.240 -0.1754  0.3594  1.1341
  193MOL0     H26019   4.632   4.940   4.175  1.0089 -0.6954  0.8651
  193MOL0     H26020   4.642   5.179   4.088 -1.9861 -0.0674  2.0838
  193MOL0     H26021   4.932   5.472   4.266 -2.3501 -0.2993 -0.7693
  193MOL0     H26022   5.031   5.388   4.142 -0.3653 -1.3429  2.4821
  193MOL0     H26023   4.877   5.515   3.987  0.9763 -2.3364  0.8232
  193MOL0     H26024   4.820   5.620   4.121  0.9450  0.5104  1.1340
  193MOL0     H26025   5.077   5.626   3.974  0.8840 -0.4381  0.4379
  193MOL0     H26026   5.094   5.622   4.145 -1.9113 -2.6942  0.3599
  193MOL0     H26027   4.945   5.833   3.985  2.9069  3.5797 -1.0284
  193MOL0     H26028   4.940   5.840   4.158 -0.7090 -0.8404 -0.4957
  193MOL0     H26029   5.180   5.861   3.974 -0.6527  0.6220 -1.3041
  193MOL0     H26030   5.200   5.824   4.147  0.6446 -0.8844 -1.4919
  193MOL0     H26031   5.066   6.081   4.058  0.7589 -1.2373 -1.9749
  193MOL0     H26032   5.080   6.010   4.225  2.6006  1.6639  1.5275
  193MOL0     H26033   5.324   6.059   4.057  1.3713  4.2293  0.7659
  193MOL0     H26034   5.327   6.011   4.223  1.8967  2.0440  0.3282
  193MOL0     H26035   5.372   6.226   4.224  1.1233 -4.2406  0.4149
  193MOL0     H26036   5.230   6.193   4.317 -4.0278  5.4757 -1.0575
  193MOL0     H26037   4.949   5.266   4.369  2.8974 -2.4838  0.9063
  193MOL0     H26038   4.952   5.047   4.450 -0.0043  1.6599  0.8836
  193MOL0     H26039   5.088   4.598   4.402  2.2501 -2.6681  0.1509
  193MOL0     H26040   5.077   4.358   4.446  0.2729 -0.4711  1.0019
  193MOL0     H26041   4.360   4.674   3.266  0.1019  0.6767  3.0135
  193MOL0     H26042   4.538   4.842   3.224  3.7013  1.8567  1.6291
  193MOL0     H26043   4.907   5.021   3.472 -1.3463  0.3442  0.7283
  193MOL0     H26044   5.021   5.215   3.515 -1.1494 -1.8377  1.0024
  193MOL0     H26045   5.327   5.376   3.196 -0.7086  0.5210 -3.5070
  193MOL0     H26046   5.186   5.483   3.183  1.4141  2.0210  1.2014
  193MOL0     H26047   5.386   5.493   3.407 -0.8545 -0.4266  0.0488
  193MOL0     H26048   5.265   5.617   3.357 -0.7910  0.4924 -1.3186
  193MOL0     H26049   5.411   5.594   3.122 -0.6103 -0.7368  1.1095
  193MOL0     H26050   5.534   5.562   3.249  2.4080  3.3632 -2.0204
  193MOL0     H26051   5.555   5.791   3.235  1.1891  0.2708  5.0641
  193MOL0     H26052   5.458   5.761   3.373 -0.5975  0.7740  0.5003
  193MOL0     H26053   5.161   5.963   3.146 -0.3230  0.1586 -0.3055
  193MOL0     H26054   5.093   5.267   3.093 -1.6273  0.6794  0.2347
  193MOL0     H26055   4.943   5.101   3.039 -0.6633 -0.1157 -0.5131
  194MOL0     O26056   6.854   9.108   3.836 -0.8699 -0.8709 -0.0285
  194MOL0     C26057   6.849   9.016   3.755 -0.1494 -0.4245  1.6194
  194MOL0     O26058   6.873   9.027   3.624  0.2249 -0.5252  0.4926
  194MOL0     C26059   6.897   9.145   3.567  0.4151 -1.1593 -0.0964
  194MOL0     C26060   7.013   9.228   3.573  0.8461 -0.2724  0.0603
  194MOL0     C26061   7.018   9.353   3.509  0.3694 -0.3084 -0.2897
  194MOL0     C26062   6.905   9.402   3.441 -0.3915  0.3075  0.0841
  194MOL0     O26063   6.911   9.530   3.386 -0.0409 -0.2781 -0.3440
  194MOL0     C26064   6.798   9.578   3.317 -0.1079 -0.6224 -0.5683
  194MOL0     C26065   6.823   9.715   3.249  0.1436  0.1345  0.6310
  194MOL0     C26066   6.953   9.710   3.177 -0.7108 -1.3907 -0.1271
  194MOL0     C26067   6.974   9.843   3.106 -0.3324 -0.5452  1.6231
  194MOL0     C26068   7.092   9.846   2.992  0.3126  0.6530 -0.1324
  194MOL0     C26069   7.093   9.990   2.933 -0.1012 -0.6909 -0.0634
  194MOL0     C26070   7.202  10.018   2.840 -0.4468  0.6042 -0.8124
  194MOL0     C26071   7.176   9.980   2.700  0.3890 -0.7918 -0.2801
  194MOL0     N26072   7.214   9.845   2.662  0.6500 -0.0614 -0.2685
  194MOL0     C26073   7.153   9.768   2.564 -0.0004 -0.1615  0.5000
  194MOL0     C26074   7.246   9.671   2.540 -0.0295  1.1108 -0.2831
  194MOL0     C26075   7.230   9.570   2.424 -0.7313  0.2276  0.0727
  194MOL0     C26076   7.191   9.443   2.500  0.5283  0.2159 -0.3794
  194MOL0     C26077   7.051   9.446   2.561 -0.9857 -0.9037  0.3028
  194MOL0     C26078   6.992   9.307   2.591  1.1504  1.0629 -0.5689
  194MOL0     O26079   6.855   9.322   2.621 -0.5731  0.4471 -0.5345
  194MOL0     C26080   6.792   9.200   2.635  0.4833  0.4267 -0.5702
  194MOL0     C26081   6.668   9.184   2.568  0.3000 -0.0607 -0.7111
  194MOL0     C26082   6.585   9.065   2.580 -0.0084 -0.6401  0.2871
  194MOL0     C26083   6.452   9.062   2.507 -0.9202  0.1938 -0.0766
  194MOL0     C26084   6.635   8.960   2.662  0.4066 -0.2436  0.1215
  194MOL0     C26085   6.572   8.827   2.661  0.5753 -0.2530  0.7044
  194MOL0     O26086   6.658   8.726   2.704  0.6965  0.7283 -0.3600
  194MOL0     C26087   6.593   8.612   2.750  0.5871 -0.0044  0.2108
  194MOL0     C26088   6.630   8.487   2.696  0.0407  0.1004  0.6423
  194MOL0     C26089   6.606   8.374   2.773  1.2814 -0.1801  0.7379
  194MOL0     C26090   6.537   8.383   2.891  1.3735  0.3248 -0.3296
  194MOL0     O26091   6.504   8.259   2.954  0.7501 -0.2278  0.1609
  194MOL0     C26092   6.403   8.271   3.048 -0.0063  0.2392  0.5752
  194MOL0     C26093   6.360   8.141   3.119 -0.4732  0.4903 -0.4706
  194MOL0     C26094   6.474   8.109   3.219 -0.1888 -0.2594 -0.1975
  194MOL0     C26095   6.457   7.978   3.283 -0.2859 -0.3438  0.4047
  194MOL0     C26096   6.550   7.960   3.397  0.0537  0.2114  0.2360
  194MOL0     C26097   6.495   7.847   3.486  0.2381 -0.5653  0.3200
  194MOL0     C26098   6.604   7.807   3.599  0.6167 -0.6533  0.4950
  194MOL0     C26099   6.582   7.655   3.650 -0.3702 -0.4630  0.1130
  194MOL0    Cl26100   6.406   7.624   3.694 -0.2908 -0.2396 -0.2757
  194MOL0     C26101   6.485   8.512   2.935 -0.1754  0.2172 -0.3917
  194MOL0     C26102   6.516   8.627   2.862  0.9790  0.5141  0.1165
  194MOL0     O26103   6.470   8.804   2.603 -0.4253  0.4488  0.2463
  194MOL0     C26104   6.757   8.985   2.730 -0.9316  0.5933  0.6977
  194MOL0     C26105   6.842   9.097   2.718  1.6501 -0.1122 -1.1148
  194MOL0     N26106   7.348   9.684   2.626 -0.4930 -0.4422  0.1938
  194MOL0     N26107   7.337   9.794   2.692  0.8872  0.4076 -0.2947
  194MOL0     C26108   6.790   9.323   3.432 -0.2509 -0.9547 -0.1188
  194MOL0     C26109   6.788   9.199   3.495  0.8606 -0.8837 -0.2930
  194MOL0     C26110   6.808   8.874   3.792  0.5970  0.3186  0.4067
  194MOL0     C26111   6.785   8.775   3.692 -0.5908 -0.1379 -0.2027
  194MOL0     C26112   6.776   8.645   3.735  0.0139 -0.1167 -0.5711
  194MOL0     C26113   6.769   8.608   3.868  0.6344  0.4144 -0.2786
  194MOL0     O26114   6.755   8.480   3.920  0.4182 -0.5721 -0.1338
  194MOL0     C26115   6.740   8.361   3.849 -0.5364  0.4249  0.1535
  194MOL0     C26116   6.683   8.251   3.947 -0.3071 -0.7986 -0.3805
  194MOL0     C26117   6.712   8.099   3.910 -0.4701  1.1194 -0.0303
  194MOL0     C26118   6.698   8.007   4.032  0.3564 -0.3848 -0.0329
  194MOL0     C26119   6.572   8.028   4.095  0.5470  0.4015 -0.1840
  194MOL0     C26120   6.463   8.061   4.134  0.3567 -0.1904 -0.3414
  194MOL0     C26121   6.789   8.703   3.962 -0.0255 -0.1347  0.4906
  194MOL0     C26122   6.808   8.840   3.926  0.6894 -0.6418 -0.2843
  194MOL0     H26123   7.100   9.192   3.628  0.5892 -0.0446  0.6292
  194MOL0     H26124   7.113   9.405   3.513 -0.1983  1.2641 -3.4744
  194MOL0     H26125   6.784   9.506   3.235 -1.7859 -1.0202  0.0356
  194MOL0     H26126   6.718   9.580   3.391  1.5477 -0.1768  1.2888
  194MOL0     H26127   6.739   9.736   3.182 -1.1181 -3.5780  0.8047
  194MOL0     H26128   6.840   9.796   3.320 -3.3682  1.1251  0.5211
  194MOL0     H26129   7.033   9.696   3.250 -0.0106 -0.3142 -0.6513
  194MOL0     H26130   6.960   9.638   3.095 -2.3084 -3.5221  1.5063
  194MOL0     H26131   6.878   9.858   3.056 -1.3881  0.1610  3.7622
  194MOL0     H26132   6.990   9.921   3.180 -0.7765 -0.4165  1.5869
  194MOL0     H26133   7.181   9.811   3.044  0.4739  1.8261  0.4310
  194MOL0     H26134   7.094   9.777   2.907  2.8370 -0.9935  1.1458
  194MOL0     H26135   7.000  10.013   2.879  1.2959  0.8362 -1.9683
  194MOL0     H26136   7.090  10.051   3.024 -2.1310 -2.8499  1.4440
  194MOL0     H26137   7.200  10.128   2.842  2.0755  0.6854 -0.4813
  194MOL0     H26138   7.300   9.989   2.878 -0.3275  2.9381  0.8953
  194MOL0     H26139   7.236  10.046   2.636  0.4820  0.4118  1.0087
  194MOL0     H26140   7.069   9.991   2.680  0.1127 -2.2252  0.3331
  194MOL0     H26141   7.062   9.784   2.506 -2.0735  1.0356  3.8292
  194MOL0     H26142   7.157   9.594   2.346 -1.5616 -0.3839  0.6392
  194MOL0     H26143   7.328   9.558   2.378 -1.1779  0.7697 -1.0383
  194MOL0     H26144   7.268   9.404   2.568 -0.2508 -0.9242 -0.1071
  194MOL0     H26145   7.196   9.372   2.416  3.6922  1.3056 -1.2297
  194MOL0     H26146   6.991   9.494   2.483 -1.3084 -0.9038  0.5481
  194MOL0     H26147   7.061   9.501   2.655  1.4536 -0.6513 -0.0554
  194MOL0     H26148   7.046   9.258   2.672 -0.9585 -2.4859 -1.0967
  194MOL0     H26149   7.005   9.247   2.501  1.0618  0.1291  0.0297
  194MOL0     H26150   6.644   9.274   2.513  1.9187  0.2280 -0.9938
  194MOL0     H26151   6.430   9.164   2.471 -0.4747  1.7923  3.7241
  194MOL0     H26152   6.468   8.997   2.420  1.7026 -1.2336  1.3538
  194MOL0     H26153   6.367   9.019   2.560 -0.2180 -1.9906 -0.6247
  194MOL0     H26154   6.699   8.497   2.613  0.0748  0.0728  0.6680
  194MOL0     H26155   6.661   8.284   2.747  3.5554  0.5278  2.6962
  194MOL0     H26156   6.434   8.345   3.123  0.5037 -0.9594  1.5861
  194MOL0     H26157   6.317   8.307   2.991  0.2162  0.3415  0.3024
  194MOL0     H26158   6.262   8.143   3.169  1.4496  1.9115  3.6592
  194MOL0     H26159   6.354   8.062   3.043 -1.1465 -0.5200  0.6090
  194MOL0     H26160   6.475   8.182   3.300 -1.6057  0.7002 -0.9857
  194MOL0     H26161   6.572   8.112   3.170 -0.6979  2.8313 -1.2414
  194MOL0     H26162   6.356   7.979   3.327  0.8117 -1.0136  3.1655
  194MOL0     H26163   6.466   7.899   3.207 -3.7782 -0.8768  0.3780
  194MOL0     H26164   6.559   8.050   3.459  0.6613 -0.6194  1.3821
  194MOL0     H26165   6.652   7.928   3.372 -0.8082 -1.8246 -0.8927
  194MOL0     H26166   6.400   7.867   3.536 -0.6768 -2.3209 -0.6261
  194MOL0     H26167   6.490   7.768   3.411  1.4506 -2.4357  2.1230
  194MOL0     H26168   6.593   7.867   3.690  0.2071 -0.7199  0.4948
  194MOL0     H26169   6.705   7.814   3.559 -0.6761  1.0647 -2.8314
  194MOL0     H26170   6.652   7.629   3.730 -0.4946  0.4606  0.5285
  194MOL0     H26171   6.600   7.601   3.557  1.7157  1.0479 -0.4339
  194MOL0     H26172   6.443   8.527   3.034 -0.7070  2.8329 -0.9577
  194MOL0     H26173   6.491   8.724   2.903  1.9903  0.1653  1.6320
  194MOL0     H26174   6.803   8.907   2.789  0.1189  1.8869  1.6543
  194MOL0     H26175   6.928   9.113   2.782 -0.0190 -1.0718  1.5444
  194MOL0     H26176   6.701   9.358   3.380  1.5366 -1.9092 -4.1850
  194MOL0     H26177   6.688   9.155   3.491  0.1410  0.6857 -0.4815
  194MOL0     H26178   6.797   8.796   3.587  1.6746 -0.4906 -0.0648
  194MOL0     H26179   6.762   8.571   3.656  0.8996 -0.4233 -0.4591
  194MOL0     H26180   6.659   8.379   3.778 -2.1646 -2.3000  1.1776
  194MOL0     H26181   6.832   8.324   3.803  1.0710 -0.0449  3.4667
  194MOL0     H26182   6.578   8.282   3.952  0.7541  3.1321  2.2791
  194MOL0     H26183   6.722   8.269   4.048  0.4336  0.8738 -0.9334
  194MOL0     H26184   6.806   8.094   3.854 -1.2770  4.3497 -1.9434
  194MOL0     H26185   6.651   8.057   3.830  0.0368 -0.9092  0.5874
  194MOL0     H26186   6.766   8.033   4.114 -1.1375 -2.6835  2.0990
  194MOL0     H26187   6.708   7.904   4.000 -3.2277 -1.0164  0.4291
  194MOL0     H26188   6.359   8.082   4.146 -0.9555 -4.9707 -1.5239
  194MOL0     H26189   6.784   8.678   4.068  0.1281  0.1454  0.5655
  194MOL0     H26190   6.827   8.908   4.009 -1.1982  2.1522 -1.9803
  195MOL0     O26191   2.477   9.327   4.752 -0.3910 -0.1364  0.3421
  195MOL0     C26192   2.519   9.213   4.731 -0.4809 -0.1880 -0.0033
  195MOL0     O26193   2.608   9.177   4.624  0.0146  0.1649  0.6279
  195MOL0     C26194   2.643   9.270   4.514 -0.8167  1.2606  0.1721
  195MOL0     C26195   2.553   9.333   4.427  0.8604  0.4327  1.0076
  195MOL0     C26196   2.601   9.400   4.313 -0.1267  0.5083  0.1660
  195MOL0     C26197   2.735   9.396   4.278 -0.7607 -1.1429 -0.2944
  195MOL0     O26198   2.788   9.440   4.161 -0.0622 -0.3479  0.6218
  195MOL0     C26199   2.701   9.428   4.047 -0.0304 -0.3764  0.5882
  195MOL0     C26200   2.775   9.397   3.911 -0.9866 -0.3253  0.1241
  195MOL0     C26201   2.734   9.511   3.811  0.4904 -0.1921  0.2076
  195MOL0     C26202   2.819   9.511   3.684  0.3955 -0.0625  0.0801
  195MOL0     C26203   2.810   9.634   3.593  0.0661  1.1304 -0.1224
  195MOL0     C26204   2.671   9.666   3.531  0.1535  0.5873  0.0127
  195MOL0     C26205   2.597   9.554   3.468 -0.3821 -0.0776 -0.7875
  195MOL0     C26206   2.693   9.487   3.360 -0.2278 -0.3103  0.3662
  195MOL0     N26207   2.609   9.439   3.253 -0.0877 -0.0168  0.4481
  195MOL0     C26208   2.606   9.485   3.127  0.5520 -0.2400 -0.4084
  195MOL0     C26209   2.492   9.441   3.064 -0.7588  0.0143 -0.1790
  195MOL0     C26210   2.452   9.477   2.929 -0.0613 -0.8575 -0.3484
  195MOL0     C26211   2.396   9.361   2.852 -0.0300 -0.1237  0.2167
  195MOL0     C26212   2.504   9.247   2.837  0.4910 -0.9935  0.0189
  195MOL0     C26213   2.414   9.124   2.800 -0.3942 -0.0537 -0.6642
  195MOL0     O26214   2.355   9.135   2.666 -0.9039  0.4692 -0.3068
  195MOL0     C26215   2.451   9.138   2.565  0.6376 -0.2074 -0.2789
  195MOL0     C26216   2.468   9.253   2.495  0.6125 -0.4145  0.5541
  195MOL0     C26217   2.562   9.268   2.393  0.5352  0.1915 -0.2987
  195MOL0     C26218   2.570   9.397   2.331 -0.9134 -0.6456  0.5795
  195MOL0     C26219   2.655   9.163   2.363 -0.0887  0.5289 -0.0037
  195MOL0     C26220   2.765   9.166   2.270  0.5374  1.0848 -0.3248
  195MOL0     O26221   2.849   9.055   2.263 -0.0125  0.4774  0.5792
  195MOL0     C26222   2.957   9.043   2.180  0.2274  0.3032 -0.5703
  195MOL0     C26223   3.050   9.152   2.176 -0.5821  0.1650 -0.5608
  195MOL0     C26224   3.170   9.135   2.104  0.4732  0.1935  0.3553
  195MOL0     C26225   3.205   9.011   2.044  0.2547 -0.7573  0.2426
  195MOL0     O26226   3.319   8.981   1.963 -0.2801 -0.1007 -0.3965
  195MOL0     C26227   3.379   9.099   1.896  0.1433  0.1511 -0.4642
  195MOL0     C26228   3.500   9.074   1.811 -1.1835 -0.5204 -0.5927
  195MOL0     C26229   3.475   8.979   1.688  0.1667  0.1178 -0.6327
  195MOL0     C26230   3.582   8.992   1.576  0.8313 -0.1632 -0.0828
  195MOL0     C26231   3.566   9.128   1.508  0.6730  0.4600 -0.0435
  195MOL0     C26232   3.707   9.174   1.466 -0.0377 -0.1294  0.9814
  195MOL0     C26233   3.714   9.312   1.407 -0.7541  0.2465  0.3419
  195MOL0     C26234   3.676   9.425   1.494 -0.1269 -0.5119  0.5959
  195MOL0    Cl26235   3.797   9.433   1.624 -0.4844  0.1236 -0.0483
  195MOL0     C26236   3.119   8.906   2.056  0.0245  0.7398 -0.3718
  195MOL0     C26237   2.999   8.916   2.128 -0.3830  0.2904 -1.0648
  195MOL0     O26238   2.768   9.255   2.180  0.2039 -0.0311  0.1645
  195MOL0     C26239   2.627   9.047   2.436  0.3669 -0.7235 -0.0223
  195MOL0     C26240   2.528   9.029   2.532  0.0844 -0.3856 -0.6472
  195MOL0     N26241   2.446   9.341   3.147 -0.4587 -0.1021  1.0317
  195MOL0     N26242   2.512   9.344   3.258  0.1584  0.2406  0.0429
  195MOL0     C26243   2.823   9.340   4.375 -0.2117  0.0929 -0.0555
  195MOL0     C26244   2.781   9.273   4.490  0.6132 -0.5685 -0.2341
  195MOL0     C26245   2.480   9.104   4.821  0.1265 -0.2311 -0.1995
  195MOL0     C26246   2.500   8.968   4.776  0.7871  0.1435  0.3033
  195MOL0     C26247   2.442   8.849   4.838  0.8174 -0.4057 -0.5142
  195MOL0     C26248   2.372   8.872   4.960  0.1233  0.2314  0.3221
  195MOL0     O26249   2.334   8.756   5.020 -0.1066  0.7023  0.3828
  195MOL0     C26250   2.289   8.745   5.154 -0.1000 -0.3475  0.6403
  195MOL0     C26251   2.267   8.604   5.197 -0.2852  0.4572 -0.2189
  195MOL0     C26252   2.171   8.523   5.105  0.6445  0.3564  0.0322
  195MOL0     C26253   2.028   8.490   5.174 -0.4919  0.6211 -0.1880
  195MOL0     C26254   2.042   8.424   5.302  0.1395 -0.0826  0.6963
  195MOL0     C26255   2.049   8.365   5.409 -0.3360  0.4636 -0.0592
  195MOL0     C26256   2.371   9.008   5.014 -0.6620 -0.0045  1.7800
  195MOL0     C26257   2.414   9.125   4.945 -0.1414 -0.3280  0.0756
  195MOL0     H26258   2.447   9.339   4.448  0.9528 -0.2494  1.7394
  195MOL0     H26259   2.532   9.454   4.249  1.5300  0.6153 -1.6342
  195MOL0     H26260   2.622   9.353   4.056 -0.2317  0.0069  2.3616
  195MOL0     H26261   2.634   9.513   4.035 -1.1371 -1.4063 -0.8427
  195MOL0     H26262   2.882   9.379   3.926 -0.7342  0.0944 -1.0013
  195MOL0     H26263   2.743   9.301   3.870  3.2899 -2.9753  2.2488
  195MOL0     H26264   2.630   9.491   3.788  0.5032 -0.0479  0.0220
  195MOL0     H26265   2.738   9.606   3.866 -3.5388 -0.5570  1.3941
  195MOL0     H26266   2.924   9.513   3.716 -0.2505  0.7813  2.3879
  195MOL0     H26267   2.809   9.412   3.639  0.5883 -0.6057  1.1772
  195MOL0     H26268   2.841   9.724   3.649 -0.8913  2.4985 -1.6941
  195MOL0     H26269   2.883   9.623   3.512 -2.0829  1.2196 -2.1799
  195MOL0     H26270   2.603   9.703   3.609  1.4251  0.6113  1.1381
  195MOL0     H26271   2.679   9.748   3.458  1.2557  0.1926 -0.3270
  195MOL0     H26272   2.576   9.484   3.550 -1.4681 -0.1152 -1.0816
  195MOL0     H26273   2.498   9.592   3.441 -1.0195 -1.6103 -0.6840
  195MOL0     H26274   2.752   9.404   3.400  2.8577  1.1008 -0.8754
  195MOL0     H26275   2.764   9.561   3.320  1.1372 -1.3340  0.8433
  195MOL0     H26276   2.675   9.559   3.085  1.5702 -0.1973  1.2595
  195MOL0     H26277   2.378   9.557   2.940  0.9231 -0.0906  0.9659
  195MOL0     H26278   2.533   9.516   2.867  1.3381 -4.2186 -0.8898
  195MOL0     H26279   2.362   9.386   2.751 -2.5722  0.4254  1.1443
  195MOL0     H26280   2.305   9.331   2.904  0.8999 -0.5365  1.6680
  195MOL0     H26281   2.546   9.230   2.936  0.2280  0.9023  0.4857
  195MOL0     H26282   2.582   9.261   2.762 -0.0759 -1.4257 -0.6710
  195MOL0     H26283   2.329   9.114   2.868 -1.2467 -3.2156 -2.0023
  195MOL0     H26284   2.477   9.036   2.814 -0.9456 -0.1689  1.3561
  195MOL0     H26285   2.409   9.336   2.531  1.1898  1.2518 -2.0716
  195MOL0     H26286   2.546   9.389   2.225 -0.7436  0.6147  0.4242
  195MOL0     H26287   2.511   9.472   2.386  0.1810  0.5858  0.1354
  195MOL0     H26288   2.670   9.440   2.318 -0.4645 -1.6676  0.5971
  195MOL0     H26289   3.033   9.244   2.231  0.0065  1.8133 -2.9841
  195MOL0     H26290   3.238   9.220   2.105 -2.9615  3.2795 -1.3497
  195MOL0     H26291   3.311   9.158   1.834 -0.8447 -1.7681 -1.2989
  195MOL0     H26292   3.404   9.166   1.980 -2.9655  0.1913  0.5582
  195MOL0     H26293   3.532   9.174   1.781 -1.2085 -0.8322 -1.7298
  195MOL0     H26294   3.570   9.028   1.881  0.9440  2.0491 -0.8512
  195MOL0     H26295   3.376   9.001   1.647  0.5927  2.2395 -0.6798
  195MOL0     H26296   3.481   8.872   1.710 -1.8337 -0.1281 -1.0674
  195MOL0     H26297   3.688   8.991   1.602  0.8733 -0.0582 -0.2480
  195MOL0     H26298   3.570   8.907   1.509 -3.0303  0.1733 -0.0760
  195MOL0     H26299   3.519   9.204   1.571  0.4964 -0.8038  1.4035
  195MOL0     H26300   3.510   9.123   1.413  0.7491 -1.8087 -0.0372
  195MOL0     H26301   3.775   9.164   1.551 -1.2083 -0.6175  1.8967
  195MOL0     H26302   3.743   9.095   1.399 -2.7621 -1.3290  0.7636
  195MOL0     H26303   3.650   9.307   1.319  1.6187  2.6826 -1.6849
  195MOL0     H26304   3.817   9.329   1.376 -1.3429 -1.3757 -2.9446
  195MOL0     H26305   3.576   9.426   1.538  0.3976 -1.4231  1.8657
  195MOL0     H26306   3.681   9.503   1.418  0.0757 -0.0576  1.0725
  195MOL0     H26307   3.143   8.819   1.995  1.7191  1.6197 -1.0400
  195MOL0     H26308   2.939   8.827   2.145  0.7351 -0.3188 -0.2415
  195MOL0     H26309   2.688   8.960   2.412 -1.4671 -1.6732 -1.5773
  195MOL0     H26310   2.512   8.929   2.569  1.6875  0.2668  2.1700
  195MOL0     H26311   2.930   9.334   4.357 -0.0480  2.5918 -0.2258
  195MOL0     H26312   2.861   9.235   4.552 -1.3018 -0.5124  2.4598
  195MOL0     H26313   2.545   8.957   4.678  1.4667  0.4810  0.5723
  195MOL0     H26314   2.445   8.748   4.799 -0.0418 -1.2623  1.4583
  195MOL0     H26315   2.357   8.799   5.221 -0.4899 -1.3640  1.8949
  195MOL0     H26316   2.191   8.794   5.155 -0.4136 -0.8853 -0.9046
  195MOL0     H26317   2.214   8.611   5.292 -1.4938 -0.3790 -0.8024
  195MOL0     H26318   2.365   8.556   5.204  0.0454  0.6554 -2.5893
  195MOL0     H26319   2.220   8.430   5.076  1.3442  1.1253 -1.3456
  195MOL0     H26320   2.162   8.575   5.009  0.6240 -0.4683 -0.4209
  195MOL0     H26321   1.981   8.429   5.096  3.0921 -0.0509 -2.0329
  195MOL0     H26322   1.977   8.587   5.177 -1.7929  0.0441 -2.0596
  195MOL0     H26323   2.060   8.313   5.502  1.2321 -0.8300 -0.9196
  195MOL0     H26324   2.322   9.007   5.111  5.0028 -2.9856  5.1455
  195MOL0     H26325   2.422   9.225   4.987 -3.6921 -0.7335  2.1128
  196MOL0     O26326   7.396   5.359   4.800  0.5228  0.0663  0.0221
  196MOL0     C26327   7.396   5.254   4.863  0.5167  0.9380 -0.0130
  196MOL0     O26328   7.285   5.200   4.927 -0.5491 -0.1243  0.1343
  196MOL0     C26329   7.160   5.241   4.933 -0.2063 -1.1647  0.0825
  196MOL0     C26330   7.109   5.341   4.846 -0.0869  0.5086 -0.0526
  196MOL0     C26331   6.979   5.375   4.847 -0.7752  0.2472 -0.7578
  196MOL0     C26332   6.886   5.326   4.946  0.5725  0.7092  1.5282
  196MOL0     O26333   6.758   5.359   4.965  0.2667 -0.0615 -1.0843
  196MOL0     C26334   6.687   5.435   4.876 -0.8568  0.2785  0.0360
  196MOL0     C26335   6.735   5.586   4.884 -0.4933  1.1056 -0.0265
  196MOL0     C26336   6.702   5.665   4.757 -0.2321  0.0216  0.3724
  196MOL0     C26337   6.726   5.813   4.765 -0.8400 -0.1375 -0.2172
  196MOL0     C26338   6.733   5.873   4.619 -0.4259 -0.3023 -0.3535
  196MOL0     C26339   6.712   6.018   4.626 -0.8904 -0.2780  0.5501
  196MOL0     C26340   6.676   6.065   4.491  0.2381 -0.2114  0.4914
  196MOL0     C26341   6.613   6.208   4.511  0.0649 -0.3513 -0.8140
  196MOL0     N26342   6.576   6.247   4.377 -0.0212  0.5661 -1.4620
  196MOL0     C26343   6.644   6.345   4.316  0.8445 -0.7355 -0.7132
  196MOL0     C26344   6.598   6.351   4.185  0.5482  0.0880 -0.3776
  196MOL0     C26345   6.654   6.431   4.077 -0.6213 -0.3279  0.8581
  196MOL0     C26346   6.558   6.454   3.956 -0.0042 -0.4422 -0.5028
  196MOL0     C26347   6.621   6.530   3.838 -0.0082  0.5733 -0.2975
  196MOL0     C26348   6.516   6.568   3.732  0.9988 -0.4453  0.7350
  196MOL0     O26349   6.437   6.677   3.784 -0.7491  0.6031 -0.4818
  196MOL0     C26350   6.336   6.728   3.708 -0.3741 -0.6972  0.6223
  196MOL0     C26351   6.281   6.852   3.747 -0.1567 -1.3946  0.0888
  196MOL0     C26352   6.209   6.936   3.654  0.6165  0.9514  0.6129
  196MOL0     C26353   6.185   7.077   3.701 -0.6155  0.7129  0.8981
  196MOL0     C26354   6.160   6.873   3.535  0.4479  0.3933 -0.2236
  196MOL0     C26355   6.062   6.930   3.430 -0.8219  0.0532 -0.2267
  196MOL0     O26356   6.001   6.843   3.340  0.2212  0.2429  0.2001
  196MOL0     C26357   5.929   6.906   3.243  0.1475 -0.4039  0.6078
  196MOL0     C26358   5.999   6.971   3.138 -1.2644  0.7201 -0.3795
  196MOL0     C26359   5.933   7.031   3.036  0.2352 -0.0120 -0.0135
  196MOL0     C26360   5.792   7.032   3.038  1.1507 -0.6349 -0.3783
  196MOL0     O26361   5.723   7.114   2.951 -0.4847 -0.0487  0.6975
  196MOL0     C26362   5.649   7.220   3.009 -0.0117 -0.0245 -0.6256
  196MOL0     C26363   5.748   7.331   3.046 -0.5364  0.3080 -0.0567
  196MOL0     C26364   5.832   7.378   2.923  0.2370 -0.4515 -0.6767
  196MOL0     C26365   5.829   7.535   2.921  0.2617  0.0486  0.3013
  196MOL0     C26366   5.905   7.602   2.808 -0.9141  0.6369  0.1381
  196MOL0     C26367   6.058   7.570   2.802 -0.0579 -0.0203 -0.4843
  196MOL0     C26368   6.121   7.637   2.683 -0.3207 -0.0288  0.5898
  196MOL0     C26369   6.280   7.620   2.699 -0.1795  0.2066 -0.5007
  196MOL0    Cl26370   6.336   7.710   2.840 -0.1757 -0.1640 -0.0725
  196MOL0     C26371   5.719   6.964   3.136  0.1150  0.2750 -0.6190
  196MOL0     C26372   5.791   6.901   3.240  0.8199 -0.0468  0.2357
  196MOL0     O26373   6.035   7.049   3.441  0.0818 -0.5765 -0.5505
  196MOL0     C26374   6.187   6.737   3.513 -0.2227 -0.0783 -0.4702
  196MOL0     C26375   6.283   6.671   3.593  0.0347  0.0827  0.9785
  196MOL0     N26376   6.499   6.249   4.178  0.1355 -0.2416 -0.8229
  196MOL0     N26377   6.492   6.179   4.292 -0.3460  0.3884 -0.7752
  196MOL0     C26378   6.939   5.231   5.026 -1.3272 -0.1408  0.5291
  196MOL0     C26379   7.075   5.197   5.028  0.1083 -0.1321  0.1129
  196MOL0     C26380   7.525   5.183   4.888  0.0195  0.2090 -0.3730
  196MOL0     C26381   7.543   5.112   5.010 -0.0964 -1.0005  0.8180
  196MOL0     C26382   7.667   5.046   5.030  0.2252 -0.4539  0.3973
  196MOL0     C26383   7.772   5.061   4.943 -0.0004  0.0942 -0.2625
  196MOL0     O26384   7.889   4.990   4.963 -0.4901 -0.0955  0.6234
  196MOL0     C26385   7.990   5.069   5.030 -0.4107  0.1877  0.2543
  196MOL0     C26386   8.115   4.992   5.072  0.4437  0.2753 -0.6194
  196MOL0     C26387   8.159   4.876   4.973 -0.5415 -1.0503 -0.4252
  196MOL0     C26388   8.091   4.747   5.010  1.4560 -0.0396  1.2224
  196MOL0     C26389   8.131   4.630   4.925  0.1633 -1.4608  0.2647
  196MOL0     C26390   8.179   4.538   4.865  0.6439 -0.6076 -0.0351
  196MOL0     C26391   7.754   5.137   4.822  0.7118  0.1783  1.2654
  196MOL0     C26392   7.631   5.190   4.796  0.7780 -0.2457  0.1653
  196MOL0     H26393   7.169   5.391   4.770 -0.2243 -1.1886 -1.3331
  196MOL0     H26394   6.946   5.449   4.775  1.2016  2.1029  0.1316
  196MOL0     H26395   6.719   5.385   4.784  0.1407 -2.7105  1.8649
  196MOL0     H26396   6.580   5.433   4.899 -0.5987  0.2345  1.3337
  196MOL0     H26397   6.685   5.638   4.966  1.8053  0.0791  2.1593
  196MOL0     H26398   6.843   5.596   4.897 -0.2818 -1.0675  0.3380
  196MOL0     H26399   6.766   5.627   4.677  0.2314 -0.0208  0.7622
  196MOL0     H26400   6.598   5.648   4.727 -0.2041  0.3851  0.0677
  196MOL0     H26401   6.655   5.869   4.826  2.6378  3.8511  0.6708
  196MOL0     H26402   6.827   5.830   4.802 -0.2714 -1.0564 -1.2699
  196MOL0     H26403   6.826   5.843   4.568  0.7566 -1.2242  2.1765
  196MOL0     H26404   6.652   5.828   4.561 -0.4126  0.1724 -0.7475
  196MOL0     H26405   6.625   6.030   4.691 -0.1974 -0.9421  1.6323
  196MOL0     H26406   6.797   6.076   4.664  0.1241 -1.6862  0.4758
  196MOL0     H26407   6.770   6.066   4.436  0.8359 -0.0143  1.4855
  196MOL0     H26408   6.609   5.998   4.436 -0.3149  0.0597  0.8246
  196MOL0     H26409   6.680   6.280   4.559 -2.1842  0.2093  1.8010
  196MOL0     H26410   6.526   6.206   4.578 -0.6169 -0.3390 -1.6878
  196MOL0     H26411   6.726   6.406   4.354  2.7511 -1.3540 -3.5396
  196MOL0     H26412   6.673   6.530   4.120 -3.0987  0.3543  0.5301
  196MOL0     H26413   6.751   6.390   4.050  0.0653  1.8074 -0.1161
  196MOL0     H26414   6.463   6.488   3.999 -0.2013 -0.5249 -0.8648
  196MOL0     H26415   6.535   6.356   3.912  2.3471 -0.5340 -1.6698
  196MOL0     H26416   6.705   6.473   3.796  1.5504  2.5746 -0.0274
  196MOL0     H26417   6.658   6.628   3.869 -2.3369  1.6259 -0.5782
  196MOL0     H26418   6.445   6.486   3.714  2.1584 -1.2628 -0.3050
  196MOL0     H26419   6.560   6.596   3.636  1.7726  0.1236  1.2422
  196MOL0     H26420   6.314   6.898   3.839  3.0369 -0.0116 -1.5838
  196MOL0     H26421   6.165   7.142   3.615 -0.1376 -3.4462 -2.7012
  196MOL0     H26422   6.097   7.092   3.764 -0.3484  0.4961  1.3290
  196MOL0     H26423   6.270   7.120   3.755 -1.4832 -0.1846  3.0586
  196MOL0     H26424   6.106   6.954   3.144 -1.6496 -1.6398  1.5278
  196MOL0     H26425   5.988   7.079   2.955 -0.2835  1.1030  0.2748
  196MOL0     H26426   5.568   7.257   2.947  0.8474  1.2912 -1.0034
  196MOL0     H26427   5.600   7.190   3.102  3.3998 -0.4720  1.1955
  196MOL0     H26428   5.683   7.412   3.082 -1.6518 -1.1376  1.3313
  196MOL0     H26429   5.823   7.313   3.123  0.6963  1.7830 -0.8412
  196MOL0     H26430   5.790   7.338   2.830 -1.6672  0.9154 -0.4665
  196MOL0     H26431   5.933   7.339   2.935 -0.2197 -1.8378 -1.0935
  196MOL0     H26432   5.722   7.558   2.918 -0.1135 -1.6034  0.2800
  196MOL0     H26433   5.868   7.567   3.019 -0.3726 -0.3073  0.6737
  196MOL0     H26434   5.910   7.710   2.818  1.7345  0.5785  0.1837
  196MOL0     H26435   5.855   7.573   2.715  0.7376  2.5991 -1.4655
  196MOL0     H26436   6.106   7.591   2.898 -1.1604 -1.4391  0.4096
  196MOL0     H26437   6.059   7.463   2.778  0.7333 -0.3427  0.8770
  196MOL0     H26438   6.088   7.739   2.664 -1.6620 -0.7483 -1.2306
  196MOL0     H26439   6.097   7.577   2.595 -3.6674 -2.0101  2.6344
  196MOL0     H26440   6.333   7.657   2.611  2.0756  0.0114  0.7283
  196MOL0     H26441   6.310   7.516   2.714  0.8470  0.5576 -0.0847
  196MOL0     H26442   5.612   6.949   3.125  0.3765 -3.2434  0.5452
  196MOL0     H26443   5.744   6.850   3.323 -0.8312  0.6456 -0.2465
  196MOL0     H26444   6.157   6.686   3.422 -1.4244  0.5197 -0.4380
  196MOL0     H26445   6.324   6.574   3.565  4.6366  2.4737 -1.9256
  196MOL0     H26446   6.866   5.191   5.096 -1.8262  1.3134  0.8839
  196MOL0     H26447   7.110   5.121   5.097 -1.0824 -2.0712 -1.3203
  196MOL0     H26448   7.470   5.113   5.090 -0.3305  0.2342  0.6100
  196MOL0     H26449   7.689   5.002   5.126  1.1681  2.1863  1.4618
  196MOL0     H26450   8.004   5.153   4.963 -1.4724  0.3713  0.2451
  196MOL0     H26451   7.948   5.114   5.121  0.1071 -1.3848  1.3226
  196MOL0     H26452   8.101   4.955   5.175 -0.3961  2.6625  0.1963
  196MOL0     H26453   8.207   5.049   5.087  1.8563 -1.1103 -3.2451
  196MOL0     H26454   8.267   4.861   4.981 -0.3400  0.5447  0.4062
  196MOL0     H26455   8.142   4.893   4.866  2.0397 -0.7561 -0.8538
  196MOL0     H26456   7.983   4.752   4.995  1.6780 -0.9157 -1.1866
  196MOL0     H26457   8.091   4.733   5.118 -1.2236  0.3012  1.3238
  196MOL0     H26458   8.227   4.448   4.833  1.0875 -1.3634  2.5804
  196MOL0     H26459   7.834   5.153   4.750 -0.4305 -2.5660 -0.8184
  196MOL0     H26460   7.617   5.253   4.709 -4.2913 -1.8873 -0.5130
  197MOL0     O26461   3.159   1.967   3.417  0.2974 -0.3604  0.1498
  197MOL0     C26462   3.166   2.071   3.353  0.0319  1.1673  0.0394
  197MOL0     O26463   3.283   2.154   3.347  0.7185  0.1262  0.0097
  197MOL0     C26464   3.393   2.101   3.401 -0.1769 -0.2580 -0.2941
  197MOL0     C26465   3.406   2.080   3.542  0.2923 -0.3718 -0.1645
  197MOL0     C26466   3.520   2.049   3.607 -1.2063  0.5021  0.8059
  197MOL0     C26467   3.641   2.034   3.529  0.2477 -0.0360 -0.2366
  197MOL0     O26468   3.752   1.998   3.596 -0.0470  0.6361  0.1954
  197MOL0     C26469   3.875   2.032   3.540 -0.5776  0.1888 -0.3855
  197MOL0     C26470   3.980   1.992   3.645 -0.4176  0.0387  0.0529
  197MOL0     C26471   4.123   2.030   3.611 -0.2380 -0.3623 -0.0162
  197MOL0     C26472   4.206   2.002   3.735 -0.3651 -0.3447  0.2216
  197MOL0     C26473   4.217   1.846   3.770 -1.1083  0.0175  0.0417
  197MOL0     C26474   4.276   1.761   3.654 -0.1417 -0.1392 -0.7237
  197MOL0     C26475   4.310   1.621   3.705  0.0439 -0.4283 -0.8348
  197MOL0     C26476   4.206   1.527   3.749 -0.2695 -0.2992 -0.3499
  197MOL0     N26477   4.255   1.416   3.827  0.2897  0.6754  0.0075
  197MOL0     C26478   4.333   1.409   3.940 -0.5063  0.2312  0.5986
  197MOL0     C26479   4.323   1.282   3.983  0.2322 -0.1327  1.6768
  197MOL0     C26480   4.373   1.230   4.107  0.5412 -0.7418  0.3792
  197MOL0     C26481   4.522   1.184   4.118  0.9720 -0.0092  0.3690
  197MOL0     C26482   4.561   1.162   4.265 -1.3265  0.0456 -0.0128
  197MOL0     C26483   4.710   1.189   4.298 -0.1913  1.3614 -0.4471
  197MOL0     O26484   4.732   1.199   4.433 -0.0046  0.2217  1.1270
  197MOL0     C26485   4.760   1.099   4.513 -0.6263  0.2856 -0.8350
  197MOL0     C26486   4.752   0.964   4.481 -0.9228  0.8677 -0.0728
  197MOL0     C26487   4.797   0.859   4.558 -0.8549 -0.2505 -0.3915
  197MOL0     C26488   4.779   0.721   4.506 -0.2279  0.5632  0.0509
  197MOL0     C26489   4.840   0.894   4.690 -0.5092  0.7016  0.2917
  197MOL0     C26490   4.875   0.802   4.806 -0.0793 -0.4567  0.6382
  197MOL0     O26491   4.930   0.857   4.923 -0.4299  0.2453 -0.0848
  197MOL0     C26492   4.953   0.767   5.027  0.1986 -0.4632 -0.6663
  197MOL0     C26493   5.030   0.649   4.991  0.1136  0.3324  0.0677
  197MOL0     C26494   5.059   0.562   5.099 -0.0664  0.3017  0.3542
  197MOL0     C26495   4.998   0.583   5.226  0.3302  0.0588  0.0705
  197MOL0     O26496   5.041   0.505   5.321 -1.5043  0.2001  0.4732
  197MOL0     C26497   4.972   0.385   5.334  0.3500 -0.5917 -0.5364
  197MOL0     C26498   5.068   0.277   5.374 -0.6886  0.1441 -0.2460
  197MOL0     C26499   5.141   0.323   5.502  0.5711  0.1691 -0.1700
  197MOL0     C26500   5.185   0.204   5.586 -0.3757 -0.0333  0.3478
  197MOL0     C26501   5.293   0.238   5.689  0.0535  0.2852  0.1500
  197MOL0     C26502   5.304   0.146   5.806  0.1281 -0.8804 -0.6633
  197MOL0     C26503   5.413   0.193   5.896 -0.4756  0.2214 -0.5622
  197MOL0     C26504   5.421   0.101   6.023 -0.5972 -0.5318 -0.2406
  197MOL0    Cl26505   5.273   0.119   6.119 -0.5291 -0.2341 -0.5970
  197MOL0     C26506   4.934   0.699   5.252  0.4359 -0.7715 -0.5000
  197MOL0     C26507   4.908   0.796   5.159  0.6475  0.4105 -0.4960
  197MOL0     O26508   4.836   0.687   4.791  0.4235 -0.3759  0.1636
  197MOL0     C26509   4.859   1.029   4.719 -0.5260 -0.6988  0.4878
  197MOL0     C26510   4.827   1.128   4.632 -0.1323 -0.3094  0.5572
  197MOL0     N26511   4.246   1.208   3.891  0.3541 -0.2315  0.3336
  197MOL0     N26512   4.202   1.293   3.794  0.5879 -0.5986 -0.3627
  197MOL0     C26513   3.632   2.050   3.386  0.0964 -0.1341 -0.8444
  197MOL0     C26514   3.509   2.088   3.320  0.7687  0.5606  0.6306
  197MOL0     C26515   3.047   2.113   3.281  0.1971 -0.5749 -0.6991
  197MOL0     C26516   2.942   2.022   3.253  0.3825  0.3218  0.3355
  197MOL0     C26517   2.839   2.063   3.164  0.8647  1.1420 -0.5311
  197MOL0     C26518   2.819   2.192   3.116 -0.4714 -0.2472  0.1291
  197MOL0     O26519   2.710   2.226   3.037  0.3433  0.7758 -1.0106
  197MOL0     C26520   2.740   2.255   2.905 -0.4747 -0.4595 -0.6671
  197MOL0     C26521   2.771   2.129   2.822 -0.0518  0.7370  0.5478
  197MOL0     C26522   2.649   2.036   2.796  0.4528 -0.6621 -0.6601
  197MOL0     C26523   2.669   1.896   2.738 -0.7472 -0.1286  0.9533
  197MOL0     C26524   2.756   1.882   2.627 -0.8549  0.0108 -0.5300
  197MOL0     C26525   2.836   1.844   2.535 -0.1422  0.1668 -1.2585
  197MOL0     C26526   2.916   2.279   3.164  0.1060 -0.1510 -0.5467
  197MOL0     C26527   3.016   2.246   3.247 -0.1477 -0.1538 -0.3814
  197MOL0     H26528   3.316   2.102   3.598  1.6511  1.8536  1.3015
  197MOL0     H26529   3.509   2.025   3.712  1.4829 -3.7086  0.3719
  197MOL0     H26530   3.896   1.964   3.457 -1.8347 -0.2702 -0.3611
  197MOL0     H26531   3.879   2.140   3.524 -1.3006  0.1168 -1.1124
  197MOL0     H26532   3.956   2.028   3.745 -1.7639  1.8582 -0.8879
  197MOL0     H26533   3.967   1.884   3.656 -3.4753  0.1977 -1.0001
  197MOL0     H26534   4.163   1.981   3.521 -1.1282 -1.8407  0.3510
  197MOL0     H26535   4.124   2.137   3.588 -0.9436 -0.4065 -0.2892
  197MOL0     H26536   4.304   2.037   3.700 -1.4656  2.7958 -0.0474
  197MOL0     H26537   4.175   2.062   3.820  0.4192  1.8243 -0.9454
  197MOL0     H26538   4.290   1.849   3.851  0.7892 -1.1638 -1.5660
  197MOL0     H26539   4.120   1.818   3.813  1.0651 -3.4806  3.3767
  197MOL0     H26540   4.194   1.755   3.582 -1.4866 -2.2215  0.8891
  197MOL0     H26541   4.362   1.810   3.607 -0.2511 -0.1736 -0.9622
  197MOL0     H26542   4.365   1.576   3.622  1.5710 -2.9980  1.4041
  197MOL0     H26543   4.389   1.625   3.782 -0.1555 -0.6273 -0.6197
  197MOL0     H26544   4.145   1.491   3.666  1.3521 -2.9465 -0.5070
  197MOL0     H26545   4.136   1.578   3.817 -0.7119 -3.3453  1.6800
  197MOL0     H26546   4.405   1.479   3.983 -0.7426  1.6613 -1.2306
  197MOL0     H26547   4.364   1.314   4.177  0.3011  2.8810 -3.6346
  197MOL0     H26548   4.299   1.159   4.145 -0.5335 -1.0358 -2.0962
  197MOL0     H26549   4.586   1.262   4.076 -0.9217  1.1019 -0.5824
  197MOL0     H26550   4.534   1.094   4.056  1.0963  0.9483 -1.0574
  197MOL0     H26551   4.545   1.059   4.299  0.6347  0.0882  1.1931
  197MOL0     H26552   4.498   1.217   4.335 -1.7848 -0.0984 -0.3070
  197MOL0     H26553   4.735   1.290   4.262 -1.9957  1.6460 -1.0144
  197MOL0     H26554   4.774   1.112   4.254 -2.0839 -0.4808 -0.1394
  197MOL0     H26555   4.723   0.932   4.381  1.6727 -0.4277 -0.5138
  197MOL0     H26556   4.689   0.671   4.542  0.8166 -1.1388  0.4145
  197MOL0     H26557   4.787   0.713   4.397 -1.1362 -0.5238  0.0506
  197MOL0     H26558   4.860   0.657   4.543 -1.0540  0.3647  1.5852
  197MOL0     H26559   5.078   0.618   4.899  0.7526 -0.7020  0.7284
  197MOL0     H26560   5.123   0.476   5.085  0.8395  1.0261 -0.0625
  197MOL0     H26561   4.886   0.392   5.402 -0.8023  0.9555 -2.0950
  197MOL0     H26562   4.930   0.347   5.241  0.4417 -1.8505 -0.0908
  197MOL0     H26563   5.012   0.185   5.396 -1.0289  0.2199 -0.7769
  197MOL0     H26564   5.141   0.266   5.293  1.4181  2.9577  1.1522
  197MOL0     H26565   5.085   0.405   5.547  1.2748  1.1348 -1.0284
  197MOL0     H26566   5.238   0.361   5.471  2.1271  0.7342  4.5480
  197MOL0     H26567   5.098   0.160   5.637 -1.0773  3.5551  2.6094
  197MOL0     H26568   5.237   0.127   5.529  2.7299 -2.1286  5.3430
  197MOL0     H26569   5.273   0.333   5.741 -1.8576 -0.9401  1.7820
  197MOL0     H26570   5.394   0.251   5.648  0.6441 -1.1084  1.0983
  197MOL0     H26571   5.212   0.141   5.863 -1.7283  0.4533 -3.3255
  197MOL0     H26572   5.331   0.048   5.764 -1.0175 -1.0423 -1.0596
  197MOL0     H26573   5.394   0.293   5.936  2.1424 -0.0015  1.5951
  197MOL0     H26574   5.509   0.191   5.844 -2.3227 -0.1952 -4.2296
  197MOL0     H26575   5.511   0.099   6.085 -1.4679 -3.5777  1.1063
  197MOL0     H26576   5.429   0.005   5.971  0.1957  0.3956 -1.9423
  197MOL0     H26577   4.904   0.716   5.355 -1.3581 -3.7070 -0.4034
  197MOL0     H26578   4.862   0.891   5.187  1.7025  0.8250 -0.1178
  197MOL0     H26579   4.889   1.076   4.812 -1.5262  0.5833  0.1816
  197MOL0     H26580   4.829   1.233   4.660 -1.7580 -0.6790  2.3465
  197MOL0     H26581   3.730   2.041   3.339 -1.2378 -1.9042 -3.4659
  197MOL0     H26582   3.502   2.134   3.222 -1.6848  2.9697  1.7945
  197MOL0     H26583   2.945   1.918   3.285  1.3904  0.8379  2.1025
  197MOL0     H26584   2.768   1.983   3.143  1.1324  0.4513  1.0549
  197MOL0     H26585   2.654   2.310   2.864 -1.5297 -0.6763  1.1502
  197MOL0     H26586   2.828   2.316   2.886 -1.9118  1.3875 -1.7526
  197MOL0     H26587   2.850   2.060   2.853  1.0115  0.1196 -3.0359
  197MOL0     H26588   2.806   2.168   2.726 -2.4532 -1.4824 -1.3722
  197MOL0     H26589   2.585   2.093   2.727  0.2400  0.2700  0.2799
  197MOL0     H26590   2.600   2.023   2.893  3.4592 -2.2400  0.7637
  197MOL0     H26591   2.568   1.873   2.703 -0.2107 -1.6964  0.3187
  197MOL0     H26592   2.691   1.824   2.817 -1.6178 -2.4393 -0.7848
  197MOL0     H26593   2.895   1.790   2.463  3.0010 -1.2230  2.0633
  197MOL0     H26594   2.908   2.380   3.125 -0.3645  0.1171  0.2391
  197MOL0     H26595   3.081   2.329   3.271 -1.6708  1.1519 -0.5968
  198MOL0     O26596   6.042   8.331   3.069  0.5035  0.5933 -0.7263
  198MOL0     C26597   5.925   8.303   3.049 -1.2473 -0.4740 -0.1288
  198MOL0     O26598   5.865   8.181   3.071 -0.9654 -0.4639 -0.5841
  198MOL0     C26599   5.948   8.089   3.118 -0.1658  0.1092  0.6387
  198MOL0     C26600   5.965   8.096   3.249 -0.2587  0.8851 -0.2876
  198MOL0     C26601   6.046   8.000   3.314  0.0438  0.3480  0.0548
  198MOL0     C26602   6.113   7.895   3.242  0.2696 -0.9292 -0.5852
  198MOL0     O26603   6.166   7.794   3.321 -0.6168  0.3982  0.3946
  198MOL0     C26604   6.205   7.669   3.253 -1.4631  0.2764  0.9452
  198MOL0     C26605   6.204   7.530   3.336  0.7409  0.0315 -0.3606
  198MOL0     C26606   6.070   7.475   3.324 -0.0332  0.0284 -0.0444
  198MOL0     C26607   5.978   7.543   3.420 -0.4589  0.1222 -0.7890
  198MOL0     C26608   5.849   7.468   3.443  0.0446 -0.6352  0.2708
  198MOL0     C26609   5.872   7.347   3.532  0.1323  0.5338 -0.6202
  198MOL0     C26610   5.742   7.293   3.595  0.1005  0.4727  1.0011
  198MOL0     C26611   5.687   7.175   3.506 -0.7981  0.1698  0.0536
  198MOL0     N26612   5.567   7.106   3.558 -0.1397 -0.1106 -0.1331
  198MOL0     C26613   5.521   7.113   3.692 -0.0791 -0.1943  0.1011
  198MOL0     C26614   5.449   7.001   3.704  0.3234 -0.0316  0.7975
  198MOL0     C26615   5.393   6.938   3.825  0.4047  0.2110  0.6314
  198MOL0     C26616   5.498   6.835   3.864  0.2481  0.0688  0.1263
  198MOL0     C26617   5.442   6.728   3.974 -0.6877 -0.3598 -0.6684
  198MOL0     C26618   5.444   6.782   4.124  0.3555  0.1338  0.7291
  198MOL0     O26619   5.555   6.863   4.154  1.1786 -0.2654 -0.5116
  198MOL0     C26620   5.601   6.875   4.285 -0.0845  0.3826 -0.8546
  198MOL0     C26621   5.525   6.839   4.398  0.3987  0.2781  0.1679
  198MOL0     C26622   5.542   6.883   4.532  0.3949  0.8516 -0.0244
  198MOL0     C26623   5.429   6.856   4.621  0.4527 -0.4226  0.0416
  198MOL0     C26624   5.656   6.956   4.566 -0.8005  0.7055  0.7542
  198MOL0     C26625   5.687   7.007   4.698  0.3914  0.1269  0.0506
  198MOL0     O26626   5.816   7.045   4.728  0.0234  1.3707  0.1147
  198MOL0     C26627   5.854   7.059   4.862  0.5286 -0.3031 -0.0953
  198MOL0     C26628   5.875   6.947   4.946 -0.1401  0.6044  0.1290
  198MOL0     C26629   5.914   6.973   5.083 -0.2774 -0.0903 -0.6585
  198MOL0     C26630   5.944   7.106   5.120 -0.6941  0.7005  1.1600
  198MOL0     O26631   5.975   7.129   5.248 -0.3452 -0.1451 -0.9117
  198MOL0     C26632   6.094   7.078   5.309 -0.2358 -0.1656 -0.6756
  198MOL0     C26633   6.193   7.188   5.339  0.3328 -0.1180 -1.3921
  198MOL0     C26634   6.339   7.163   5.275  1.1648 -0.4603 -0.3582
  198MOL0     C26635   6.445   7.262   5.332  0.4409  0.6435 -0.5058
  198MOL0     C26636   6.587   7.250   5.272 -0.1562  0.0605 -0.1920
  198MOL0     C26637   6.654   7.114   5.293 -0.3216 -0.3406 -0.0868
  198MOL0     C26638   6.762   7.082   5.197 -0.0622  0.4170  0.5671
  198MOL0     C26639   6.884   7.182   5.194  0.5072  0.0159  0.7611
  198MOL0    Cl26640   6.950   7.215   5.356 -0.1920  0.3028  0.0884
  198MOL0     C26641   5.930   7.208   5.039  0.3744 -1.1196  2.0671
  198MOL0     C26642   5.883   7.186   4.906  0.3934 -0.7841 -0.1544
  198MOL0     O26643   5.600   7.015   4.780 -0.0462 -0.1487  0.3854
  198MOL0     C26644   5.743   6.979   4.456  0.0258 -0.0631  0.1958
  198MOL0     C26645   5.722   6.944   4.327  0.8366 -0.0961  0.3076
  198MOL0     N26646   5.442   6.933   3.582  0.3976  0.3014 -0.4192
  198MOL0     N26647   5.516   6.997   3.491 -0.4611  0.6364 -0.0501
  198MOL0     C26648   6.098   7.902   3.101 -1.2006  0.7076 -0.4750
  198MOL0     C26649   6.020   8.001   3.037  0.1441 -0.2413 -0.6979
  198MOL0     C26650   5.830   8.406   3.001  0.0348  0.6413 -0.6561
  198MOL0     C26651   5.874   8.496   2.907  0.1599 -1.2907  0.6223
  198MOL0     C26652   5.791   8.593   2.860 -0.3634  1.2940  0.9728
  198MOL0     C26653   5.655   8.607   2.897 -0.9965 -0.2349 -0.0906
  198MOL0     O26654   5.564   8.699   2.839  0.1174  0.0299 -0.3536
  198MOL0     C26655   5.612   8.834   2.821 -0.1306  0.9052  0.5731
  198MOL0     C26656   5.589   8.905   2.943  0.9516  0.2258 -0.6917
  198MOL0     C26657   5.622   9.057   2.952  0.7260 -0.2822  0.2235
  198MOL0     C26658   5.772   9.061   2.954  0.4086  0.1767  0.0761
  198MOL0     C26659   5.813   9.194   2.995 -0.9261 -0.0323 -0.3996
  198MOL0     C26660   5.830   9.305   3.031  0.2515  0.0393 -0.1959
  198MOL0     C26661   5.606   8.508   2.987 -0.0287  0.0996  0.5580
  198MOL0     C26662   5.694   8.406   3.041  0.5279 -0.0549 -0.2604
  198MOL0     H26663   5.912   8.180   3.293 -0.7892  2.5516 -3.7589
  198MOL0     H26664   6.072   8.001   3.420 -0.2557  1.4400  0.1358
  198MOL0     H26665   6.144   7.657   3.162  0.7573  0.2212 -0.6128
  198MOL0     H26666   6.307   7.687   3.218 -1.2381 -2.8628 -0.4020
  198MOL0     H26667   6.271   7.466   3.277 -0.2449 -2.2538  0.8598
  198MOL0     H26668   6.242   7.543   3.437  4.5042  0.1651 -1.6457
  198MOL0     H26669   6.031   7.465   3.222  2.1039  1.5796 -1.0955
  198MOL0     H26670   6.085   7.369   3.345  0.6157  0.3556  1.2645
  198MOL0     H26671   6.015   7.562   3.522 -1.9295 -0.0898 -0.1924
  198MOL0     H26672   5.957   7.637   3.368  1.8428 -0.3529 -2.7385
  198MOL0     H26673   5.774   7.537   3.485  0.7915 -1.3887  3.0263
  198MOL0     H26674   5.808   7.436   3.346  0.7560 -4.0238  0.9657
  198MOL0     H26675   5.933   7.269   3.487 -0.4221  0.0276 -0.5080
  198MOL0     H26676   5.912   7.395   3.622 -4.5044  4.6303 -0.2672
  198MOL0     H26677   5.760   7.246   3.692 -1.0891 -0.3061  0.8643
  198MOL0     H26678   5.668   7.373   3.598 -0.1657  0.3481 -1.1855
  198MOL0     H26679   5.762   7.097   3.503 -0.2183  0.1977  5.2384
  198MOL0     H26680   5.665   7.201   3.402  0.4676 -0.8351 -0.4841
  198MOL0     H26681   5.546   7.174   3.778 -0.7111 -4.2711  3.4829
  198MOL0     H26682   5.370   7.015   3.899 -1.5572 -1.0546  1.4246
  198MOL0     H26683   5.300   6.889   3.794  0.2173  2.6350 -3.2913
  198MOL0     H26684   5.594   6.881   3.890 -0.1020  0.3587  0.9486
  198MOL0     H26685   5.522   6.767   3.782  1.5172 -3.3489  3.0786
  198MOL0     H26686   5.512   6.645   3.965  1.9866  1.3915  1.9701
  198MOL0     H26687   5.341   6.694   3.949 -0.6845  0.3502 -1.7321
  198MOL0     H26688   5.445   6.691   4.184  0.5357 -2.4073 -2.8194
  198MOL0     H26689   5.353   6.844   4.130  0.5250  0.3241  1.5192
  198MOL0     H26690   5.435   6.783   4.373  0.6553 -0.4504  0.8227
  198MOL0     H26691   5.457   6.811   4.716 -2.7459  1.2043  1.9260
  198MOL0     H26692   5.380   6.951   4.647  0.6886  1.1022 -4.2194
  198MOL0     H26693   5.346   6.798   4.580 -0.7547  0.6590  0.8624
  198MOL0     H26694   5.858   6.853   4.896  1.2003  1.5546 -2.2571
  198MOL0     H26695   5.915   6.898   5.162 -3.8917  0.0933 -0.2717
  198MOL0     H26696   6.061   7.027   5.400 -0.9559  0.6616 -0.4654
  198MOL0     H26697   6.131   6.997   5.245  0.5710 -1.6690  1.5527
  198MOL0     H26698   6.145   7.284   5.316  2.1845  0.4714 -3.0144
  198MOL0     H26699   6.217   7.188   5.445  5.0258 -0.9234 -2.2558
  198MOL0     H26700   6.317   7.188   5.171  0.8232 -0.7085 -0.3476
  198MOL0     H26701   6.378   7.061   5.286  3.4395  0.5928  2.7762
  198MOL0     H26702   6.413   7.365   5.314  1.0250  1.3316  2.0031
  198MOL0     H26703   6.451   7.243   5.440  0.0697 -0.4823 -0.6625
  198MOL0     H26704   6.647   7.336   5.302  3.2235 -2.2000  0.0763
  198MOL0     H26705   6.573   7.250   5.163 -1.3472 -3.0151 -0.1433
  198MOL0     H26706   6.705   7.117   5.389  1.1975 -1.6568 -0.7956
  198MOL0     H26707   6.586   7.029   5.282 -0.5493 -0.3721  1.4494
  198MOL0     H26708   6.726   7.072   5.094  0.3042  1.7651  0.2832
  198MOL0     H26709   6.796   6.981   5.222  2.1297  1.3531  1.6679
  198MOL0     H26710   6.852   7.276   5.149 -4.1710 -1.7987 -0.2521
  198MOL0     H26711   6.955   7.123   5.134 -2.9273 -2.2373 -1.4379
  198MOL0     H26712   5.949   7.311   5.068 -2.0938  0.1487 -0.4242
  198MOL0     H26713   5.861   7.260   4.829  2.4750 -0.1870 -0.2276
  198MOL0     H26714   5.827   7.042   4.482 -1.1714  0.5958  2.8242
  198MOL0     H26715   5.789   6.970   4.246  1.3556  1.2937  1.1621
  198MOL0     H26716   6.155   7.831   3.043  2.8660 -0.4745  4.3031
  198MOL0     H26717   6.003   8.006   2.930  1.4994  1.6842 -0.8707
  198MOL0     H26718   5.969   8.485   2.855 -0.6837  0.8310 -1.5241
  198MOL0     H26719   5.841   8.652   2.784  1.7000  1.1671  2.1450
  198MOL0     H26720   5.720   8.834   2.804  0.3251  0.0768  3.0691
  198MOL0     H26721   5.568   8.880   2.733  2.0917  2.8055  0.3430
  198MOL0     H26722   5.644   8.854   3.022 -2.3270 -1.3309  0.7913
  198MOL0     H26723   5.486   8.889   2.978  1.6168 -0.6713  0.9912
  198MOL0     H26724   5.581   9.103   3.043  1.1315  1.9636 -0.6793
  198MOL0     H26725   5.573   9.110   2.870  1.5687  0.1587  0.0004
  198MOL0     H26726   5.814   9.039   2.855  2.6276 -0.5012  1.0967
  198MOL0     H26727   5.827   9.003   3.029  1.3907  0.9109 -0.0450
  198MOL0     H26728   5.853   9.401   3.072  0.9427  1.3957 -3.4402
  198MOL0     H26729   5.502   8.511   3.018 -0.3877  0.3460 -0.6194
  198MOL0     H26730   5.662   8.336   3.116  0.2808 -1.2285 -1.4320
  199MOL0     O26731   8.801   3.433   0.531  0.6400  0.9910 -0.3356
  199MOL0     C26732   8.779   3.321   0.587 -0.6833 -0.2636 -0.1377
  199MOL0     O26733   8.695   3.294   0.690  0.1871  0.0769  0.2614
  199MOL0     C26734   8.652   3.407   0.757  0.5546  0.5397 -0.8539
  199MOL0     C26735   8.753   3.480   0.834  0.1473  0.4394  1.4453
  199MOL0     C26736   8.708   3.593   0.908 -1.2356  0.2464 -0.9867
  199MOL0     C26737   8.574   3.635   0.906  0.0082 -0.4373  1.1711
  199MOL0     O26738   8.525   3.750   0.969  0.2447  0.2563 -0.1272
  199MOL0     C26739   8.621   3.838   1.041 -0.3084  0.3427 -0.9591
  199MOL0     C26740   8.561   3.966   1.102  0.1049  0.3296 -0.4909
  199MOL0     C26741   8.613   3.997   1.240 -0.3793 -0.0544  0.0902
  199MOL0     C26742   8.602   3.886   1.358  0.2428  0.1841  0.5092
  199MOL0     C26743   8.645   3.920   1.495 -0.2657 -1.0982  0.2470
  199MOL0     C26744   8.599   3.814   1.594  0.2629 -0.6127  0.7960
  199MOL0     C26745   8.628   3.837   1.739  0.2979  0.6563 -0.1456
  199MOL0     C26746   8.624   3.697   1.808 -0.5867  1.1818 -0.3539
  199MOL0     N26747   8.727   3.679   1.907  0.0672 -1.1507  0.5061
  199MOL0     C26748   8.859   3.653   1.877 -0.5001 -0.2704 -0.1629
  199MOL0     C26749   8.912   3.608   1.999  0.2620  0.3295  0.1314
  199MOL0     C26750   9.045   3.568   2.017 -0.5186  0.7043  0.1032
  199MOL0     C26751   9.118   3.648   2.124  0.0029  0.1132 -0.2661
  199MOL0     C26752   9.137   3.794   2.083 -1.3252  0.1680 -0.9064
  199MOL0     C26753   9.248   3.870   2.164 -0.3729 -0.2225 -0.1557
  199MOL0     O26754   9.386   3.818   2.148 -0.4599  0.0302  0.5058
  199MOL0     C26755   9.460   3.842   2.033  0.5550  0.1754  0.1252
  199MOL0     C26756   9.558   3.744   2.000  0.3511  0.0716 -0.0858
  199MOL0     C26757   9.629   3.747   1.881  0.1119  0.6789  0.0523
  199MOL0     C26758   9.700   3.618   1.857  0.7316  0.0775 -0.5056
  199MOL0     C26759   9.604   3.851   1.795 -0.3224  0.5228 -0.5625
  199MOL0     C26760   9.649   3.845   1.658  0.0837  0.0030 -0.7492
  199MOL0     O26761   9.752   3.766   1.609 -0.1179 -0.1283  0.1157
  199MOL0     C26762   9.754   3.738   1.469 -0.4590  0.5698 -1.0442
  199MOL0     C26763   9.793   3.828   1.369  0.1401 -0.0170  0.2337
  199MOL0     C26764   9.773   3.799   1.235  0.7984  0.1704  0.1960
  199MOL0     C26765   9.725   3.671   1.200 -0.2010 -0.4269  0.8451
  199MOL0     O26766   9.683   3.640   1.074  0.0384  0.5265  0.0732
  199MOL0     C26767   9.600   3.749   1.019  0.7813 -1.4671  0.2294
  199MOL0     C26768   9.507   3.694   0.908  0.2747  0.0309 -0.0753
  199MOL0     C26769   9.390   3.613   0.952  0.8040  0.3869 -0.8121
  199MOL0     C26770   9.412   3.476   1.017  0.4588 -0.0954 -0.6311
  199MOL0     C26771   9.289   3.405   1.086 -0.3233 -0.4143  0.6502
  199MOL0     C26772   9.186   3.356   0.974  0.2498 -0.4491  0.1851
  199MOL0     C26773   9.112   3.227   1.001  0.5733  0.0699 -1.0310
  199MOL0     C26774   9.207   3.105   1.013  0.2791 -0.2247 -0.2180
  199MOL0    Cl26775   9.098   2.969   1.055  0.0240  0.2915 -0.7258
  199MOL0     C26776   9.691   3.574   1.297  0.9261 -0.3385 -0.6839
  199MOL0     C26777   9.712   3.613   1.429  1.0940 -0.1294 -0.7451
  199MOL0     O26778   9.589   3.924   1.588 -0.2248  0.5676 -0.0139
  199MOL0     C26779   9.518   3.954   1.839 -0.2629 -0.5922  0.1067
  199MOL0     C26780   9.448   3.951   1.950  0.0195  0.7763 -0.0738
  199MOL0     N26781   8.812   3.611   2.096 -0.8909 -0.5398 -0.7202
  199MOL0     N26782   8.708   3.643   2.038  0.0343 -0.9436 -0.5575
  199MOL0     C26783   8.483   3.557   0.842 -0.1842  0.1918 -1.0179
  199MOL0     C26784   8.518   3.448   0.765  0.3350  0.4123 -0.0544
  199MOL0     C26785   8.873   3.214   0.549 -0.8457 -0.1339 -0.4776
  199MOL0     C26786   8.966   3.227   0.449 -0.0386  0.3785  0.5779
  199MOL0     C26787   9.037   3.116   0.416 -0.0202  0.5276 -0.6540
  199MOL0     C26788   9.040   2.994   0.493  0.4699  1.1423 -0.0441
  199MOL0     O26789   9.129   2.889   0.468 -0.4585  0.4647  0.7100
  199MOL0     C26790   9.080   2.791   0.368  0.6679 -0.2116  0.2395
  199MOL0     C26791   9.192   2.750   0.268  0.2503 -0.2504 -0.2882
  199MOL0     C26792   9.278   2.636   0.320 -0.7112  0.4581 -1.7274
  199MOL0     C26793   9.398   2.595   0.233  0.3602  0.0009 -0.7313
  199MOL0     C26794   9.472   2.487   0.296  0.4497 -0.0587 -0.6130
  199MOL0     C26795   9.529   2.399   0.362  0.5212 -0.6905 -0.9326
  199MOL0     C26796   8.952   2.984   0.606  0.5859 -0.4035 -0.5235
  199MOL0     C26797   8.866   3.090   0.631  0.7760 -0.1762 -0.1993
  199MOL0     H26798   8.857   3.458   0.814 -0.5381 -0.7819 -1.3384
  199MOL0     H26799   8.786   3.639   0.968 -1.0709  0.1063 -1.0953
  199MOL0     H26800   8.674   3.779   1.117 -0.0506  0.2957 -1.1756
  199MOL0     H26801   8.707   3.864   0.979 -0.4941 -0.3505 -1.5314
  199MOL0     H26802   8.594   4.048   1.037  1.0302 -0.0088 -0.4545
  199MOL0     H26803   8.452   3.960   1.106  0.0098  2.0303  2.3985
  199MOL0     H26804   8.716   4.034   1.243  0.0851 -1.3187  2.1463
  199MOL0     H26805   8.554   4.083   1.272  0.0095 -0.0557  0.8502
  199MOL0     H26806   8.499   3.851   1.353  0.6618 -0.9455 -0.8596
  199MOL0     H26807   8.658   3.797   1.329  0.6146  0.1426  1.3202
  199MOL0     H26808   8.753   3.933   1.504 -0.3998  1.0324 -0.5583
  199MOL0     H26809   8.622   4.026   1.508  1.2416 -0.2919 -2.6490
  199MOL0     H26810   8.491   3.813   1.576  0.5348 -0.2749 -1.1100
  199MOL0     H26811   8.652   3.726   1.557  2.2298  0.9908 -0.4771
  199MOL0     H26812   8.725   3.884   1.758  0.1455  0.6188  0.7696
  199MOL0     H26813   8.552   3.905   1.779 -0.0813  0.6977 -0.9228
  199MOL0     H26814   8.628   3.620   1.731  2.6743 -0.0855  0.9284
  199MOL0     H26815   8.528   3.673   1.855  1.3727 -4.7665  1.5214
  199MOL0     H26816   8.907   3.677   1.782  3.0260  2.1571  2.0017
  199MOL0     H26817   9.054   3.465   2.053  3.0877  1.1985  1.0359
  199MOL0     H26818   9.097   3.574   1.920 -0.1211 -1.7113  0.0963
  199MOL0     H26819   9.218   3.609   2.148  2.0106  5.6322  1.9687
  199MOL0     H26820   9.072   3.638   2.223  0.3084 -0.2443 -0.1556
  199MOL0     H26821   9.037   3.835   2.099 -2.2053 -2.1816  0.2080
  199MOL0     H26822   9.168   3.797   1.979 -1.5700 -2.0861 -1.1061
  199MOL0     H26823   9.232   3.873   2.272 -0.3794 -1.7298 -0.0852
  199MOL0     H26824   9.251   3.974   2.131  1.3398  0.2198  1.2793
  199MOL0     H26825   9.561   3.664   2.074 -3.8475  1.2367  1.5755
  199MOL0     H26826   9.704   3.549   1.942 -1.2880  1.2029  0.5928
  199MOL0     H26827   9.639   3.559   1.788  2.5701 -1.7655 -0.6405
  199MOL0     H26828   9.794   3.638   1.806  2.5063 -4.6060  0.4483
  199MOL0     H26829   9.830   3.920   1.412 -0.5043  0.4417 -0.1894
  199MOL0     H26830   9.796   3.859   1.148 -2.1447 -0.0805 -0.8641
  199MOL0     H26831   9.530   3.798   1.088 -0.9930 -2.2537 -0.9496
  199MOL0     H26832   9.667   3.822   0.973 -1.0564 -1.3845 -2.5384
  199MOL0     H26833   9.462   3.783   0.865 -0.2161  0.9715  2.2157
  199MOL0     H26834   9.564   3.637   0.834  0.5086  0.3762 -0.1647
  199MOL0     H26835   9.321   3.611   0.868 -0.2629  1.0165  0.0250
  199MOL0     H26836   9.338   3.668   1.030  1.9710  1.1667 -0.5494
  199MOL0     H26837   9.441   3.408   0.935  0.5686 -1.5714  0.5901
  199MOL0     H26838   9.492   3.461   1.090 -1.1739  0.7278  1.3973
  199MOL0     H26839   9.247   3.477   1.158  1.2738 -1.9410  3.2686
  199MOL0     H26840   9.318   3.319   1.147 -0.0860 -0.3250  0.6651
  199MOL0     H26841   9.114   3.435   0.953  0.4137 -0.6580 -1.2778
  199MOL0     H26842   9.241   3.343   0.880  0.1522 -3.4845  0.4648
  199MOL0     H26843   9.044   3.214   0.917 -0.1143 -3.3467 -0.0930
  199MOL0     H26844   9.063   3.246   1.097  1.9670 -0.4464 -0.1805
  199MOL0     H26845   9.278   3.116   1.096 -1.5908  2.6930  1.1879
  199MOL0     H26846   9.259   3.078   0.922  1.1098 -2.8955  0.9646
  199MOL0     H26847   9.639   3.480   1.281 -1.3697  0.1338  2.8895
  199MOL0     H26848   9.686   3.551   1.515  0.8482  1.0510  0.0606
  199MOL0     H26849   9.496   4.045   1.784 -2.1816 -1.8480 -1.3410
  199MOL0     H26850   9.399   4.042   1.985  0.9669  1.0870  0.5087
  199MOL0     H26851   8.376   3.578   0.842 -0.3956 -0.8425 -1.4684
  199MOL0     H26852   8.453   3.387   0.703  3.5873 -2.3071 -1.0726
  199MOL0     H26853   8.972   3.314   0.384 -3.9499  1.2627  1.1123
  199MOL0     H26854   9.097   3.114   0.325  1.8629  2.5648  0.4455
  199MOL0     H26855   9.047   2.699   0.419 -0.8037  0.2448  0.1696
  199MOL0     H26856   8.985   2.823   0.325 -1.5369 -1.1559  3.8981
  199MOL0     H26857   9.239   2.846   0.245 -2.8081  2.2001  2.5727
  199MOL0     H26858   9.153   2.710   0.174  1.6019 -1.8943 -0.1858
  199MOL0     H26859   9.217   2.546   0.318 -0.1953  0.0910 -1.3267
  199MOL0     H26860   9.320   2.665   0.417 -1.0286  2.6530 -2.1892
  199MOL0     H26861   9.475   2.672   0.222 -0.4649  0.9439 -0.1244
  199MOL0     H26862   9.357   2.553   0.141 -1.1229 -1.3278  0.4792
  199MOL0     H26863   9.566   2.323   0.427  0.8765  0.4165  0.1924
  199MOL0     H26864   8.952   2.895   0.669 -0.1157  0.3488  0.5699
  199MOL0     H26865   8.794   3.083   0.711 -0.4125 -2.3780 -1.3782
  200MOL0     O26866   8.815   0.829   9.236 -0.3611 -0.4462  0.4361
  200MOL0     C26867   8.837   0.883   9.127  0.0982 -0.3659  0.1595
  200MOL0     O26868   8.918   0.833   9.023  0.2629 -0.1814 -0.3238
  200MOL0     C26869   8.935   0.699   9.021 -0.5641  0.0827 -0.1599
  200MOL0     C26870   8.870   0.619   8.927  0.9144 -1.2905 -0.1113
  200MOL0     C26871   8.882   0.481   8.924 -0.2107  0.0606 -0.6937
  200MOL0     C26872   8.966   0.417   9.016 -0.8934  0.0956 -0.8335
  200MOL0     O26873   8.995   0.282   8.993 -0.2899  0.2310 -0.4543
  200MOL0     C26874   9.056   0.205   9.097 -0.6886 -0.2092 -0.6650
  200MOL0     C26875   9.071   0.059   9.046 -0.1298 -0.5809 -0.3258
  200MOL0     C26876   9.169  -0.032   9.117 -0.2714 -0.1470  0.4439
  200MOL0     C26877   9.207  -0.161   9.040 -0.0919 -1.0075 -1.3405
  200MOL0     C26878   9.322  -0.239   9.107 -0.2913 -0.8978  0.9334
  200MOL0     C26879   9.307  -0.306   9.244  0.0190 -0.7032 -0.0081
  200MOL0     C26880   9.437  -0.363   9.299  0.8006  0.9046  0.9733
  200MOL0     C26881   9.505  -0.482   9.223  0.2144 -0.1493  0.4004
  200MOL0     N26882   9.408  -0.599   9.204 -0.1775 -0.4402 -0.3243
  200MOL0     C26883   9.392  -0.699   9.298 -0.8980  0.8515 -0.1747
  200MOL0     C26884   9.291  -0.775   9.259 -0.3602  0.2726  0.4522
  200MOL0     C26885   9.242  -0.893   9.326  0.2891 -0.1024  0.0919
  200MOL0     C26886   9.121  -0.871   9.422 -0.3251  1.3386  0.4082
  200MOL0     C26887   9.143  -0.775   9.532 -0.3991 -0.4109  0.4006
  200MOL0     C26888   9.232  -0.826   9.647 -0.0206  0.7419  0.4828
  200MOL0     O26889   9.366  -0.851   9.599  0.3695  0.4194 -0.3583
  200MOL0     C26890   9.470  -0.829   9.689 -0.1321 -1.2043  0.3772
  200MOL0     C26891   9.574  -0.753   9.645  0.6618  0.0380 -0.0860
  200MOL0     C26892   9.692  -0.747   9.713 -0.4639  0.1415 -0.3610
  200MOL0     C26893   9.799  -0.668   9.652 -0.6654  0.0175  0.6890
  200MOL0     C26894   9.706  -0.816   9.834 -0.4457  0.1697 -0.4517
  200MOL0     C26895   9.832  -0.830   9.912 -0.3108  0.2679 -0.2849
  200MOL0     O26896   9.956  -0.818   9.848 -0.1395  0.3411 -0.3878
  200MOL0     C26897  10.079  -0.816   9.908  0.1214  0.3913 -0.6042
  200MOL0     C26898  10.188  -0.821   9.821  0.6734 -0.4765  0.1415
  200MOL0     C26899  10.321  -0.814   9.871  0.7376  1.0852 -0.0924
  200MOL0     C26900  10.342  -0.807  10.008  0.1619 -1.1015 -0.1103
  200MOL0     O26901  10.473  -0.808  10.060 -1.1869 -0.3432  0.0619
  200MOL0     C26902  10.565  -0.853   9.973 -0.8562  0.4774 -0.2838
  200MOL0     C26903  10.701  -0.878  10.049  0.4002  0.8679  0.1214
  200MOL0     C26904  10.715  -1.016  10.093  0.5166 -0.8943  0.5111
  200MOL0     C26905  10.602  -1.072  10.176  0.4876 -0.5635 -0.4387
  200MOL0     C26906  10.623  -1.225  10.187  0.3389 -0.2728  0.3303
  200MOL0     C26907  10.550  -1.309  10.080 -0.2464 -0.7236  0.4644
  200MOL0     C26908  10.449  -1.414  10.144 -0.0950 -0.0914  0.1342
  200MOL0     C26909  10.383  -1.513  10.043  0.3210  0.0197  0.7583
  200MOL0    Cl26910  10.342  -1.441   9.888  0.0995  0.3494  0.0983
  200MOL0     C26911  10.224  -0.791  10.092 -0.7415  1.2452 -0.1846
  200MOL0     C26912  10.101  -0.811  10.047 -1.0581  0.5048  0.7046
  200MOL0     O26913   9.811  -0.836  10.035  0.2112 -0.9381 -0.8137
  200MOL0     C26914   9.594  -0.891   9.885  1.1702  0.0499  0.1461
  200MOL0     C26915   9.475  -0.892   9.815  1.1915 -0.5754  0.2505
  200MOL0     N26916   9.246  -0.724   9.139  0.5885  0.2087  0.5153
  200MOL0     N26917   9.322  -0.625   9.108  0.7393  0.3510 -0.6465
  200MOL0     C26918   9.037   0.489   9.117  0.2073 -0.6803  0.1900
  200MOL0     C26919   9.016   0.639   9.115  0.2340 -0.3821 -0.0541
  200MOL0     C26920   8.814   1.029   9.120 -0.2046  1.1152  0.7499
  200MOL0     C26921   8.865   1.099   9.018 -0.1227 -1.0659 -0.4035
  200MOL0     C26922   8.856   1.234   9.015 -0.5046 -1.2472  0.6161
  200MOL0     C26923   8.796   1.305   9.119 -0.5403 -0.0558  0.2318
  200MOL0     O26924   8.772   1.439   9.120  0.1734  0.0947  0.4247
  200MOL0     C26925   8.840   1.520   9.211 -0.6000  0.5753 -1.0785
  200MOL0     C26926   8.831   1.659   9.155  0.5860  0.2919 -0.5654
  200MOL0     C26927   8.900   1.756   9.244 -0.5505 -0.0924  0.2508
  200MOL0     C26928   8.952   1.875   9.170  1.0141 -0.3263  0.0976
  200MOL0     C26929   8.850   1.986   9.142  0.2858  0.0870  0.5066
  200MOL0     C26930   8.754   2.056   9.128 -0.2764  0.4310 -0.4689
  200MOL0     C26931   8.747   1.227   9.228  0.7556 -0.8016  0.0941
  200MOL0     C26932   8.746   1.088   9.225 -0.7008  0.3043 -0.2455
  200MOL0     H26933   8.814   0.672   8.850 -1.8012  2.0330  3.7428
  200MOL0     H26934   8.829   0.419   8.851  0.4972 -0.2640 -0.9428
  200MOL0     H26935   9.156   0.244   9.116 -1.4467  1.6006 -0.2335
  200MOL0     H26936   9.008   0.216   9.194 -0.3268  3.5119 -0.7865
  200MOL0     H26937   8.971   0.016   9.057  0.0622 -0.8117  0.5417
  200MOL0     H26938   9.100   0.067   8.941  0.7209  3.0048  0.0320
  200MOL0     H26939   9.261   0.019   9.149 -1.2015 -0.6272  4.3040
  200MOL0     H26940   9.112  -0.062   9.205 -0.9760  0.7448  0.3042
  200MOL0     H26941   9.119  -0.226   9.051  0.9397 -1.9658  2.4140
  200MOL0     H26942   9.223  -0.135   8.934  0.3875  0.6418 -0.8940
  200MOL0     H26943   9.356  -0.318   9.040 -1.4348  0.1604 -0.9827
  200MOL0     H26944   9.416  -0.183   9.107  1.3182 -3.2129 -2.3664
  200MOL0     H26945   9.270  -0.229   9.313  2.2434  2.1034 -1.7515
  200MOL0     H26946   9.233  -0.387   9.238  0.6055 -1.1435 -1.7746
  200MOL0     H26947   9.510  -0.281   9.295  1.2246  0.6027  2.1532
  200MOL0     H26948   9.423  -0.388   9.404 -0.4382  2.0179  1.1087
  200MOL0     H26949   9.588  -0.527   9.278  1.8782  0.6972 -1.2729
  200MOL0     H26950   9.550  -0.446   9.130  1.1963 -0.5909  0.6938
  200MOL0     H26951   9.466  -0.712   9.376  0.2445 -1.6166 -1.5524
  200MOL0     H26952   9.204  -0.958   9.246  0.2196 -0.0712  0.0990
  200MOL0     H26953   9.322  -0.939   9.384  0.6745  0.3416 -0.0843
  200MOL0     H26954   9.090  -0.967   9.466  2.8368  1.0940  2.4672
  200MOL0     H26955   9.036  -0.836   9.364  0.7389  0.1822 -2.0047
  200MOL0     H26956   9.051  -0.735   9.576 -2.7795 -1.4999 -3.1497
  200MOL0     H26957   9.200  -0.690   9.493 -2.2523  0.9245  0.4947
  200MOL0     H26958   9.205  -0.923   9.690  0.3959  0.8482  1.0004
  200MOL0     H26959   9.231  -0.760   9.735  0.1158  2.2906 -0.6432
  200MOL0     H26960   9.577  -0.720   9.541  3.2335 -2.4485 -0.9406
  200MOL0     H26961   9.781  -0.669   9.545 -4.5913 -1.7219  1.1896
  200MOL0     H26962   9.798  -0.567   9.694 -0.3461 -0.6539  2.3961
  200MOL0     H26963   9.901  -0.698   9.681 -0.5226  1.6640  2.0748
  200MOL0     H26964  10.180  -0.810   9.713  1.6797 -1.3530 -0.0339
  200MOL0     H26965  10.401  -0.799   9.800 -0.5967 -1.2288 -2.2654
  200MOL0     H26966  10.540  -0.950   9.928 -1.0814  0.3080  0.2010
  200MOL0     H26967  10.580  -0.779   9.894 -0.2543  0.5027 -0.1530
  200MOL0     H26968  10.792  -0.848   9.997  0.4083  2.5254  0.9970
  200MOL0     H26969  10.703  -0.810  10.136 -1.9633 -0.2027  1.1127
  200MOL0     H26970  10.806  -1.024  10.153  0.3041  0.4875  1.0452
  200MOL0     H26971  10.727  -1.073  10.000  3.1272 -0.9836  0.8446
  200MOL0     H26972  10.606  -1.023  10.274 -1.6632  0.4178 -0.7725
  200MOL0     H26973  10.498  -1.059  10.145 -0.9251  2.6079  4.4076
  200MOL0     H26974  10.586  -1.255  10.285  0.2221  2.9089  1.3862
  200MOL0     H26975  10.731  -1.242  10.187  0.4329 -0.2680  3.4974
  200MOL0     H26976  10.499  -1.243  10.010  0.1732  0.9377  1.6786
  200MOL0     H26977  10.631  -1.355  10.021 -0.6498  3.0792 -3.5867
  200MOL0     H26978  10.372  -1.360  10.200  1.6891  3.4476 -0.5367
  200MOL0     H26979  10.502  -1.471  10.222 -0.7554  1.0753  1.4806
  200MOL0     H26980  10.292  -1.568  10.070  0.0024 -0.4443 -1.0899
  200MOL0     H26981  10.455  -1.594  10.024  0.4106 -0.6071  3.4309
  200MOL0     H26982  10.243  -0.760  10.194  5.1575 -1.5747  0.0233
  200MOL0     H26983  10.021  -0.818  10.121  0.0413  2.2401  2.1490
  200MOL0     H26984   9.585  -0.940   9.982 -2.9767  0.2376  0.0548
  200MOL0     H26985   9.377  -0.923   9.851 -0.5450  0.4903 -3.0773
  200MOL0     H26986   9.105   0.443   9.188 -0.6872  0.1425  1.6274
  200MOL0     H26987   9.069   0.707   9.182  0.3214 -0.9344  0.4384
  200MOL0     H26988   8.940   1.054   8.954  1.8992  0.9868  0.3967
  200MOL0     H26989   8.900   1.286   8.930 -0.9771 -0.2322  0.9710
  200MOL0     H26990   8.790   1.507   9.307 -1.2256 -0.2358 -1.4987
  200MOL0     H26991   8.947   1.496   9.213 -0.5623  0.5604 -2.4702
  200MOL0     H26992   8.726   1.690   9.151 -0.1744 -2.2129 -2.4095
  200MOL0     H26993   8.864   1.672   9.051  2.1789  1.8889  0.0833
  200MOL0     H26994   8.992   1.706   9.277  0.7270  1.3194 -1.0138
  200MOL0     H26995   8.840   1.787   9.330 -0.1089  0.0353  0.5181
  200MOL0     H26996   9.003   1.851   9.077  3.3895  1.6451  0.7797
  200MOL0     H26997   9.021   1.919   9.243 -1.5123 -0.6259  2.8883
  200MOL0     H26998   8.681   2.134   9.115 -1.1941  0.2685  2.9528
  200MOL0     H26999   8.691   1.289   9.297  1.9205 -0.6269  0.9173
  200MOL0     H27000   8.703   1.030   9.306 -2.5899  1.4091 -0.4001
  201MOL0     O27001   0.387  10.220   9.126 -0.3395  0.5604 -0.7801
  201MOL0     C27002   0.373  10.299   9.217  0.2312  0.4685  0.2280
  201MOL0     O27003   0.430  10.421   9.215 -0.2790 -0.2997  0.8883
  201MOL0     C27004   0.467  10.490   9.094 -0.7860  0.5201 -0.2614
  201MOL0     C27005   0.547  10.603   9.108 -0.3772 -0.6185  0.5556
  201MOL0     C27006   0.592  10.667   8.994 -0.3302 -0.0928  0.1301
  201MOL0     C27007   0.557  10.627   8.860 -0.5584  0.4970 -0.0059
  201MOL0     O27008   0.627  10.687   8.753 -0.5989  0.4577  0.5519
  201MOL0     C27009   0.716  10.796   8.749 -0.5207  0.3852 -0.0175
  201MOL0     C27010   0.769  10.812   8.605 -0.0825 -0.4349 -0.1583
  201MOL0     C27011   0.833  10.682   8.558  0.0529  1.1894 -0.6320
  201MOL0     C27012   0.869  10.700   8.409  0.2174  0.5754  0.3175
  201MOL0     C27013   0.948  10.579   8.366  0.4336 -0.4653 -0.0964
  201MOL0     C27014   1.087  10.577   8.423  0.1108  0.3133 -0.1412
  201MOL0     C27015   1.166  10.453   8.382  0.7720 -0.0549  0.0370
  201MOL0     C27016   1.146  10.319   8.469  0.0173 -0.4324 -0.0551
  201MOL0     N27017   1.243  10.220   8.449 -1.0203 -0.4998  0.5300
  201MOL0     C27018   1.364  10.245   8.379  1.0652  0.8073 -0.4162
  201MOL0     C27019   1.453  10.152   8.415  0.0085  0.9040 -0.3845
  201MOL0     C27020   1.595  10.142   8.362 -0.5475  0.3108 -0.1383
  201MOL0     C27021   1.674  10.267   8.383  0.1345 -0.0027 -0.9031
  201MOL0     C27022   1.803  10.231   8.462  0.2164  0.6675  0.5282
  201MOL0     C27023   1.919  10.333   8.428 -0.0781 -0.3580 -0.0828
  201MOL0     O27024   1.909  10.463   8.494  0.3929  0.4440  0.5481
  201MOL0     C27025   1.978  10.576   8.436 -0.0772 -0.0363  0.0803
  201MOL0     C27026   2.088  10.578   8.343 -0.3936 -0.1494 -0.3837
  201MOL0     C27027   2.154  10.690   8.314 -0.8743 -0.4333  0.3589
  201MOL0     C27028   2.263  10.680   8.209  1.1961  0.1419 -0.4887
  201MOL0     C27029   2.116  10.800   8.392 -0.2859  0.0212  0.0317
  201MOL0     C27030   2.181  10.932   8.385  0.4065 -1.2346  0.0553
  201MOL0     O27031   2.244  10.968   8.498 -0.1186 -0.3703  0.5250
  201MOL0     C27032   2.328  11.083   8.499  0.3178 -1.0320  0.6412
  201MOL0     C27033   2.293  11.194   8.569 -0.4721 -0.0037 -1.1114
  201MOL0     C27034   2.373  11.307   8.565  1.5120 -0.4942  0.1575
  201MOL0     C27035   2.498  11.314   8.516  0.3336  0.0320  0.2375
  201MOL0     O27036   2.585  11.410   8.527 -0.6490  0.6458  0.2484
  201MOL0     C27037   2.546  11.530   8.592  0.2984 -0.7260 -0.6294
  201MOL0     C27038   2.660  11.640   8.571  0.1647  0.6652 -0.9003
  201MOL0     C27039   2.766  11.636   8.683 -0.2644 -0.4009  0.4491
  201MOL0     C27040   2.898  11.688   8.642 -0.2911 -0.8197 -0.0460
  201MOL0     C27041   2.988  11.726   8.755  1.0159 -0.3843  0.3154
  201MOL0     C27042   3.018  11.618   8.859  0.8979  0.5843 -0.0943
  201MOL0     C27043   3.129  11.666   8.952  0.7092  0.3613 -1.0464
  201MOL0     C27044   3.261  11.652   8.889 -0.3207  0.0484  0.6896
  201MOL0    Cl27045   3.409  11.729   8.975 -0.2178  0.0456 -0.2591
  201MOL0     C27046   2.541  11.192   8.465  0.5412 -0.3134  0.7986
  201MOL0     C27047   2.461  11.080   8.448  0.5476  0.8215  1.7496
  201MOL0     O27048   2.197  10.987   8.275 -0.0214  0.5804  0.0856
  201MOL0     C27049   2.005  10.804   8.475  0.4244 -0.7138  1.2111
  201MOL0     C27050   1.938  10.690   8.500 -0.4397 -0.5293  0.0958
  201MOL0     N27051   1.382  10.064   8.502 -0.5639 -0.4390 -0.7662
  201MOL0     N27052   1.271  10.114   8.529  1.0585 -0.2129  0.0393
  201MOL0     C27053   0.464  10.533   8.850 -0.1086  0.7443 -0.2395
  201MOL0     C27054   0.420  10.455   8.964  0.7158 -0.2576 -0.2458
  201MOL0     C27055   0.317  10.258   9.347 -0.4434  0.6231 -0.1872
  201MOL0     C27056   0.200  10.175   9.342 -0.1504 -0.2818 -0.0091
  201MOL0     C27057   0.136  10.112   9.453 -0.1836 -0.5874 -0.4481
  201MOL0     C27058   0.196  10.123   9.580 -0.2195  0.1064 -0.3400
  201MOL0     O27059   0.149  10.063   9.696  0.0239  0.2586 -0.0794
  201MOL0     C27060   0.010  10.043   9.696  0.0986  0.5222  0.4568
  201MOL0     C27061  -0.033   9.900   9.658 -1.3780  0.0686 -0.8602
  201MOL0     C27062   0.023   9.808   9.776  0.6484  0.8468  0.1085
  201MOL0     C27063  -0.057   9.673   9.820  0.2035  0.1155  0.7845
  201MOL0     C27064  -0.201   9.675   9.803  0.3805 -0.6399  0.0785
  201MOL0     C27065  -0.320   9.681   9.796  1.1534 -0.1379 -0.0775
  201MOL0     C27066   0.313  10.205   9.588 -0.4081  0.4905 -0.5324
  201MOL0     C27067   0.363  10.277   9.479 -0.0449  0.2470 -1.2109
  201MOL0     H27068   0.601  10.635   9.196  2.0150 -3.1160  0.1224
  201MOL0     H27069   0.666  10.746   8.998  1.2320 -1.5440  2.4862
  201MOL0     H27070   0.651  10.881   8.770  0.5715  1.2433 -0.0361
  201MOL0     H27071   0.795  10.787   8.824 -0.7406  0.6436  0.2455
  201MOL0     H27072   0.684  10.828   8.538 -0.7427 -2.9392 -0.0255
  201MOL0     H27073   0.835  10.899   8.597 -0.4835 -0.0616  0.5333
  201MOL0     H27074   0.918  10.658   8.622  0.4785  0.5509 -1.4111
  201MOL0     H27075   0.773  10.591   8.572 -2.0200  1.9040 -3.7338
  201MOL0     H27076   0.772  10.697   8.359 -0.8207 -3.0477  2.2097
  201MOL0     H27077   0.908  10.798   8.380  0.9554 -0.0342 -0.8201
  201MOL0     H27078   0.896  10.483   8.371 -1.5578  0.4637 -1.6196
  201MOL0     H27079   0.967  10.591   8.259  2.4570 -0.8873  0.1658
  201MOL0     H27080   1.139  10.661   8.376  1.3398 -0.6784 -0.6236
  201MOL0     H27081   1.100  10.589   8.531  0.4624  1.9016 -0.3369
  201MOL0     H27082   1.146  10.430   8.278 -2.9823 -1.0158  0.8255
  201MOL0     H27083   1.272  10.483   8.386  0.7821 -0.0387 -0.3368
  201MOL0     H27084   1.044  10.283   8.453  0.2700 -1.9332  1.4383
  201MOL0     H27085   1.137  10.340   8.576 -1.8481  0.4123 -0.3302
  201MOL0     H27086   1.383  10.326   8.310  0.6224  1.5139  0.2720
  201MOL0     H27087   1.645  10.065   8.421 -0.7793  0.9376  0.9212
  201MOL0     H27088   1.601  10.113   8.257 -0.1879  2.1559 -0.6586
  201MOL0     H27089   1.603  10.334   8.434 -0.8517  0.3674 -2.6634
  201MOL0     H27090   1.696  10.325   8.292 -0.4047  2.2663  0.3363
  201MOL0     H27091   1.848  10.132   8.449 -2.6304 -0.6347 -0.2181
  201MOL0     H27092   1.778  10.234   8.569  0.3848  2.2541  0.5478
  201MOL0     H27093   1.920  10.347   8.320 -5.3443  2.1167 -0.1480
  201MOL0     H27094   2.013  10.286   8.457  0.4674 -0.8983 -2.5730
  201MOL0     H27095   2.123  10.488   8.293  0.7933  1.7864 -3.3194
  201MOL0     H27096   2.297  10.576   8.202  3.6211  0.9803 -2.5126
  201MOL0     H27097   2.220  10.708   8.112 -2.2040  4.1277  1.8244
  201MOL0     H27098   2.339  10.752   8.239  0.8257  0.1143  0.5493
  201MOL0     H27099   2.194  11.192   8.613 -0.0953  1.1992 -0.1405
  201MOL0     H27100   2.322  11.392   8.609 -0.1696 -0.5202 -1.5969
  201MOL0     H27101   2.456  11.556   8.537 -0.4133  1.0513  1.2469
  201MOL0     H27102   2.529  11.515   8.699 -2.4353 -2.5707 -1.2317
  201MOL0     H27103   2.713  11.624   8.476 -1.2023 -4.0665 -1.1058
  201MOL0     H27104   2.620  11.742   8.579  0.1250  0.5602  0.3045
  201MOL0     H27105   2.785  11.531   8.704 -0.2042 -0.2136  1.3860
  201MOL0     H27106   2.733  11.703   8.764  2.4341  1.7593 -0.0825
  201MOL0     H27107   2.953  11.620   8.575  1.8498 -0.4653  1.2586
  201MOL0     H27108   2.878  11.778   8.583 -1.4960 -1.8564 -1.2866
  201MOL0     H27109   2.946  11.807   8.815  2.6898  0.0001  1.0340
  201MOL0     H27110   3.081  11.768   8.715  0.8324 -1.5425 -1.4246
  201MOL0     H27111   2.924  11.596   8.911  2.2455 -1.5969  1.6208
  201MOL0     H27112   3.044  11.526   8.806 -1.4670 -0.3395  0.2182
  201MOL0     H27113   3.144  11.618   9.049  3.4452  3.5568  0.3542
  201MOL0     H27114   3.105  11.770   8.976  2.1925  0.8818 -1.6976
  201MOL0     H27115   3.253  11.703   8.792  0.2746  1.6297  1.4482
  201MOL0     H27116   3.289  11.549   8.863  0.0725 -0.1163  1.7014
  201MOL0     H27117   2.638  11.182   8.418 -0.5232 -2.3421 -1.1762
  201MOL0     H27118   2.485  10.986   8.399 -1.2607  0.3243  1.7548
  201MOL0     H27119   1.982  10.889   8.537  0.0964  1.7119 -1.9791
  201MOL0     H27120   1.860  10.682   8.575 -2.0254 -1.7959 -1.6048
  201MOL0     H27121   0.440  10.504   8.748 -0.7287 -0.6128  0.2663
  201MOL0     H27122   0.358  10.367   8.952  0.0812  0.2456 -0.7555
  201MOL0     H27123   0.157  10.149   9.245 -3.1347  1.5245  0.6842
  201MOL0     H27124   0.049  10.049   9.439  1.7044 -3.1184 -1.5420
  201MOL0     H27125  -0.023  10.071   9.796  2.9999  0.8439  1.4239
  201MOL0     H27126  -0.048  10.106   9.627  0.2502  3.3391  2.7154
  201MOL0     H27127   0.011   9.875   9.561 -2.5350  1.1728 -1.6918
  201MOL0     H27128  -0.141   9.884   9.646 -2.4604  5.1921 -0.5019
  201MOL0     H27129   0.036   9.872   9.864 -0.7067 -3.1371  3.5505
  201MOL0     H27130   0.124   9.775   9.751  0.5905  0.9170 -0.2240
  201MOL0     H27131  -0.034   9.660   9.927  2.7928 -3.3060  0.0075
  201MOL0     H27132  -0.007   9.597   9.758  0.8846  0.6568  0.6568
  201MOL0     H27133  -0.426   9.684   9.811  1.3188  3.2238  1.2119
  201MOL0     H27134   0.380  10.211   9.674  0.5688  0.2483 -1.2512
  201MOL0     H27135   0.450  10.342   9.486 -0.2899  1.0103 -4.0116
  202MOL0     O27136   1.261   0.780   7.528  0.2162 -0.1110  1.1576
  202MOL0     C27137   1.193   0.885   7.514  0.2833 -0.6251  0.2991
  202MOL0     O27138   1.248   1.014   7.520  0.9982  0.3375  0.4561
  202MOL0     C27139   1.380   1.008   7.536  0.4700  0.3970 -0.4096
  202MOL0     C27140   1.444   1.053   7.654  1.3210 -0.2106  0.0831
  202MOL0     C27141   1.580   1.039   7.669 -0.2843  0.3506  0.3752
  202MOL0     C27142   1.660   1.004   7.564  0.8845  0.3325  0.5488
  202MOL0     O27143   1.797   1.013   7.572  0.1467  0.3604  0.5642
  202MOL0     C27144   1.856   0.946   7.679 -0.0885 -0.2837  1.0134
  202MOL0     C27145   1.961   1.035   7.745 -0.9977  0.3309  0.1675
  202MOL0     C27146   2.066   1.080   7.640 -0.1024 -0.3150  0.0924
  202MOL0     C27147   2.164   1.174   7.714  0.5948 -0.6545  0.0828
  202MOL0     C27148   2.287   1.239   7.637  0.4746  0.7214  0.4957
  202MOL0     C27149   2.370   1.342   7.708  0.3301 -0.4050 -0.4238
  202MOL0     C27150   2.476   1.407   7.618 -0.0038  0.4589  0.3985
  202MOL0     C27151   2.605   1.326   7.605 -0.4483 -0.1365 -0.0893
  202MOL0     N27152   2.659   1.272   7.731  1.4036  0.3813  0.2815
  202MOL0     C27153   2.699   1.358   7.832  0.9885 -0.3762  0.4034
  202MOL0     C27154   2.724   1.278   7.936  0.9729  0.1649 -1.2404
  202MOL0     C27155   2.775   1.318   8.071 -0.6623  0.5804 -0.0889
  202MOL0     C27156   2.670   1.379   8.157  0.2038 -0.1517 -1.4405
  202MOL0     C27157   2.717   1.445   8.292  1.0760  0.6640  0.1319
  202MOL0     C27158   2.616   1.555   8.351 -0.4940  0.6569 -0.3183
  202MOL0     O27159   2.509   1.486   8.403  0.9064  0.6222  0.1124
  202MOL0     C27160   2.392   1.547   8.439  0.2996 -1.0773 -0.0124
  202MOL0     C27161   2.374   1.689   8.443  0.0643  0.1143 -0.4893
  202MOL0     C27162   2.254   1.743   8.487 -0.0647 -0.5714  0.6379
  202MOL0     C27163   2.242   1.900   8.494 -0.2352  0.7993 -0.0669
  202MOL0     C27164   2.148   1.672   8.518  0.6541  0.5009  0.1445
  202MOL0     C27165   2.024   1.730   8.573  0.2215 -1.0700  0.1912
  202MOL0     O27166   1.907   1.695   8.512 -0.4253 -0.3747 -0.5706
  202MOL0     C27167   1.790   1.748   8.561 -0.5308  0.3708 -0.3835
  202MOL0     C27168   1.697   1.656   8.596  0.7852 -0.0370 -0.0460
  202MOL0     C27169   1.578   1.699   8.659  0.1562  0.3890  0.2636
  202MOL0     C27170   1.560   1.839   8.663  0.4585 -0.0367  0.1449
  202MOL0     O27171   1.446   1.905   8.710  0.5892 -0.0138 -0.2103
  202MOL0     C27172   1.320   1.835   8.724  0.0440  0.4075  0.2510
  202MOL0     C27173   1.192   1.884   8.647 -0.9672 -0.8850  0.1450
  202MOL0     C27174   1.186   2.041   8.646  0.2329  0.4350 -0.7893
  202MOL0     C27175   1.150   2.096   8.787  0.0221  1.1456 -0.0434
  202MOL0     C27176   1.126   2.242   8.784 -0.3827  0.5395 -0.0862
  202MOL0     C27177   1.062   2.284   8.917 -0.0610 -0.4200 -0.5927
  202MOL0     C27178   1.087   2.436   8.941  0.4401  0.0124 -0.2182
  202MOL0     C27179   0.999   2.497   9.053 -0.3850 -0.3153  0.4015
  202MOL0    Cl27180   0.982   2.665   9.022  0.4870  0.2612  0.1026
  202MOL0     C27181   1.645   1.933   8.614  0.6822  0.1727 -0.1491
  202MOL0     C27182   1.770   1.891   8.575  0.0531 -0.3006  0.0051
  202MOL0     O27183   2.040   1.796   8.674  0.1646 -0.2956 -0.3479
  202MOL0     C27184   2.155   1.530   8.503  0.0469 -0.0105  0.5518
  202MOL0     C27185   2.276   1.472   8.463  0.7057 -0.0163  0.2214
  202MOL0     N27186   2.689   1.144   7.903  0.1445 -0.0749 -0.4576
  202MOL0     N27187   2.634   1.152   7.785  0.3691  0.6994 -0.0071
  202MOL0     C27188   1.598   0.972   7.441  0.8990  0.5204  0.2103
  202MOL0     C27189   1.459   0.969   7.430 -0.7982  0.1751  0.6084
  202MOL0     C27190   1.048   0.877   7.498 -0.0588  0.4007 -0.2753
  202MOL0     C27191   0.976   0.988   7.449  0.1842 -0.2368 -0.3734
  202MOL0     C27192   0.836   0.980   7.454 -0.3982 -0.2579 -0.4656
  202MOL0     C27193   0.775   0.870   7.511 -0.0424 -1.2442  0.3088
  202MOL0     O27194   0.636   0.887   7.523  0.3358 -0.0246 -0.0560
  202MOL0     C27195   0.549   0.792   7.591  0.2398  0.7503  0.0446
  202MOL0     C27196   0.399   0.832   7.622 -1.4939  0.8615  0.5784
  202MOL0     C27197   0.395   0.916   7.747 -0.3354  0.7715 -0.7249
  202MOL0     C27198   0.411   0.854   7.891 -0.1587 -0.1112 -0.0766
  202MOL0     C27199   0.297   0.771   7.935  0.3497 -0.4411 -0.1933
  202MOL0     C27200   0.194   0.709   7.952 -0.2258  1.5143 -0.4675
  202MOL0     C27201   0.840   0.757   7.551  0.0072 -0.4101  0.4400
  202MOL0     C27202   0.976   0.755   7.539 -0.1069  0.9930 -0.8167
  202MOL0     H27203   1.387   1.090   7.739 -0.0487 -0.0873 -0.8525
  202MOL0     H27204   1.622   1.053   7.768 -0.7418  1.4815  0.4311
  202MOL0     H27205   1.790   0.906   7.756 -0.8901 -0.7855  0.0851
  202MOL0     H27206   1.904   0.855   7.642  0.1936 -0.8098  2.5596
  202MOL0     H27207   1.913   1.123   7.789  0.2383  0.4959  1.2739
  202MOL0     H27208   2.007   0.982   7.829 -2.1985 -1.0863 -0.0447
  202MOL0     H27209   2.114   0.986   7.614 -0.2267 -0.0466 -1.2000
  202MOL0     H27210   2.025   1.131   7.551  2.1235  1.3205 -0.0684
  202MOL0     H27211   2.106   1.260   7.750 -1.5805 -1.1603 -1.9309
  202MOL0     H27212   2.206   1.125   7.802 -1.1237  1.7138  2.3905
  202MOL0     H27213   2.353   1.153   7.624 -0.6477 -0.0367 -0.3682
  202MOL0     H27214   2.260   1.281   7.540  0.4095  1.2430  0.7359
  202MOL0     H27215   2.305   1.426   7.733  3.1902  1.3366  1.7150
  202MOL0     H27216   2.419   1.311   7.801 -1.1216  0.1912  0.5810
  202MOL0     H27217   2.419   1.441   7.531 -0.2109  2.3869  1.2435
  202MOL0     H27218   2.497   1.502   7.668 -3.3207 -0.0665  3.2331
  202MOL0     H27219   2.674   1.375   7.535  0.2353 -1.3869 -0.3264
  202MOL0     H27220   2.575   1.246   7.536 -2.4482  3.1016 -3.3162
  202MOL0     H27221   2.720   1.464   7.837 -0.3991 -0.1364  3.1639
  202MOL0     H27222   2.813   1.228   8.120  0.2040  0.5619 -0.7758
  202MOL0     H27223   2.860   1.384   8.054  0.0533 -0.5151 -0.8865
  202MOL0     H27224   2.586   1.316   8.189 -0.0549  0.7076 -0.3626
  202MOL0     H27225   2.629   1.459   8.094 -1.0284  0.8361  0.5119
  202MOL0     H27226   2.819   1.482   8.281  0.8737  1.0919 -0.3463
  202MOL0     H27227   2.737   1.361   8.359  1.6878 -1.2949 -2.3304
  202MOL0     H27228   2.590   1.626   8.272 -2.2026  0.2627 -0.1600
  202MOL0     H27229   2.658   1.603   8.440 -2.5082 -1.2173  1.7854
  202MOL0     H27230   2.452   1.762   8.423  0.4568  0.9840  3.4515
  202MOL0     H27231   2.156   1.930   8.434  0.5906  1.0050 -1.1630
  202MOL0     H27232   2.237   1.937   8.597 -1.1302  2.6533 -0.7289
  202MOL0     H27233   2.334   1.949   8.460  0.2988  0.5997  1.0247
  202MOL0     H27234   1.712   1.549   8.588  1.0544 -0.4390  3.7027
  202MOL0     H27235   1.517   1.633   8.719 -0.0223  0.3144  0.0011
  202MOL0     H27236   1.344   1.730   8.708 -1.6275 -0.0761  0.6611
  202MOL0     H27237   1.293   1.841   8.830 -2.0332 -0.1353 -0.1988
  202MOL0     H27238   1.207   1.860   8.542  0.1187  0.3444  0.0034
  202MOL0     H27239   1.106   1.840   8.699  0.5392 -2.5243  1.4019
  202MOL0     H27240   1.104   2.064   8.578 -3.0576  0.4384  2.7960
  202MOL0     H27241   1.275   2.093   8.609 -0.7090  2.1676 -0.7145
  202MOL0     H27242   1.054   2.053   8.816  0.7745 -0.8617 -0.3198
  202MOL0     H27243   1.227   2.068   8.861  0.6221  0.5826 -0.8602
  202MOL0     H27244   1.055   2.273   8.706 -3.1727 -1.8055  1.3041
  202MOL0     H27245   1.221   2.294   8.774 -0.1975  0.4622  1.1433
  202MOL0     H27246   0.956   2.260   8.924 -0.6002  1.9705  0.8766
  202MOL0     H27247   1.107   2.237   9.005 -3.5527 -0.7211  1.2292
  202MOL0     H27248   1.071   2.484   8.844  0.2099  2.4582  0.9528
  202MOL0     H27249   1.194   2.439   8.966  0.7974 -1.9897 -1.2894
  202MOL0     H27250   1.040   2.479   9.153  1.5320  2.0425  0.1361
  202MOL0     H27251   0.898   2.456   9.045  0.3435 -2.0917 -0.3983
  202MOL0     H27252   1.619   2.038   8.617  2.0196  0.5149  1.0668
  202MOL0     H27253   1.845   1.960   8.538 -0.6982 -0.2398 -1.4515
  202MOL0     H27254   2.069   1.470   8.529  0.0724 -0.4778 -0.3723
  202MOL0     H27255   2.297   1.366   8.456  0.3950 -0.0472 -0.3064
  202MOL0     H27256   1.644   0.912   7.363 -2.3675 -0.9431 -0.7914
  202MOL0     H27257   1.425   0.928   7.335  2.7876 -0.2738 -0.6369
  202MOL0     H27258   1.022   1.083   7.422  0.7692  0.1404  1.7006
  202MOL0     H27259   0.780   1.070   7.430  1.4795  1.9047  2.4503
  202MOL0     H27260   0.554   0.707   7.523 -5.7587  0.4043 -0.5081
  202MOL0     H27261   0.597   0.772   7.687 -0.1846  1.2035  0.3582
  202MOL0     H27262   0.354   0.734   7.641  1.3572 -0.8551 -0.7414
  202MOL0     H27263   0.368   0.878   7.528 -0.1503 -1.3998 -1.0681
  202MOL0     H27264   0.300   0.969   7.746 -0.9067 -0.1933 -2.2393
  202MOL0     H27265   0.477   0.988   7.742 -1.3454  2.0212  0.2471
  202MOL0     H27266   0.421   0.934   7.965  1.0352  1.5960 -1.9735
  202MOL0     H27267   0.501   0.792   7.891 -1.7727 -2.6667  1.8362
  202MOL0     H27268   0.096   0.666   7.964  1.0826 -1.0956  2.1968
  202MOL0     H27269   0.779   0.679   7.593 -1.0142  1.0870  1.8697
  202MOL0     H27270   1.029   0.668   7.575  1.0061  0.6710 -3.0358
  203MOL0     O27271   2.077   8.227   1.971 -0.2646 -0.1854 -0.4069
  203MOL0     C27272   2.084   8.298   2.072  0.8381  0.3517 -0.0214
  203MOL0     O27273   2.087   8.246   2.202 -0.4060 -0.1185 -0.3607
  203MOL0     C27274   2.069   8.114   2.232 -0.4876 -0.0556  0.0045
  203MOL0     C27275   2.127   8.071   2.347  0.7207 -0.2982 -0.7876
  203MOL0     C27276   2.121   7.935   2.387  0.1770 -0.9533  0.1558
  203MOL0     C27277   2.068   7.843   2.298 -0.0381 -0.0006  0.2260
  203MOL0     O27278   2.067   7.708   2.310  0.1403  0.0795  0.0198
  203MOL0     C27279   2.149   7.644   2.406 -0.2039  0.2678  0.5411
  203MOL0     C27280   2.077   7.612   2.536  0.6511  0.9262 -0.2275
  203MOL0     C27281   1.957   7.513   2.532  0.4631 -0.6509  0.0586
  203MOL0     C27282   1.896   7.483   2.676 -0.3455 -0.4060  0.7961
  203MOL0     C27283   1.784   7.380   2.664 -0.9771  0.1020  0.5950
  203MOL0     C27284   1.739   7.318   2.800 -0.5412  0.2491 -0.2480
  203MOL0     C27285   1.640   7.204   2.785 -0.1006 -0.0113  0.7022
  203MOL0     C27286   1.576   7.153   2.915 -0.4307 -0.5719  0.1226
  203MOL0     N27287   1.499   7.033   2.897 -0.5574  0.4782 -0.9057
  203MOL0     C27288   1.376   7.000   2.924  0.1418 -0.7932  0.0718
  203MOL0     C27289   1.359   6.867   2.902 -0.3104 -0.0354  0.0489
  203MOL0     C27290   1.247   6.777   2.941 -0.3507 -1.0214 -0.3314
  203MOL0     C27291   1.272   6.701   3.073 -0.1934  0.2146 -0.2828
  203MOL0     C27292   1.284   6.779   3.205 -0.3747 -0.2136  0.2578
  203MOL0     C27293   1.434   6.787   3.243  0.0602 -0.3123 -0.0791
  203MOL0     O27294   1.450   6.903   3.332 -0.1929  0.3479 -0.1780
  203MOL0     C27295   1.578   6.942   3.352 -0.1074 -1.5807 -0.2323
  203MOL0     C27296   1.618   7.073   3.306 -1.2169 -0.2285  0.9893
  203MOL0     C27297   1.746   7.120   3.333 -0.9045  0.3940 -0.8307
  203MOL0     C27298   1.786   7.268   3.306  0.2217 -0.3575 -0.3599
  203MOL0     C27299   1.838   7.037   3.397 -0.5370  0.7193  0.0817
  203MOL0     C27300   1.970   7.083   3.453 -0.1654  0.0237  0.7160
  203MOL0     O27301   1.972   7.190   3.540  0.5097  0.2731 -0.4470
  203MOL0     C27302   2.098   7.230   3.576  0.6109 -0.5674 -0.4905
  203MOL0     C27303   2.177   7.292   3.489  0.2492  0.7379  0.8229
  203MOL0     C27304   2.305   7.323   3.537  0.0162 -0.0515  0.0359
  203MOL0     C27305   2.346   7.295   3.669 -0.0011  0.2544 -0.3175
  203MOL0     O27306   2.479   7.321   3.703 -0.5680 -0.4168  0.3427
  203MOL0     C27307   2.521   7.327   3.838 -0.8034  0.1883 -0.3390
  203MOL0     C27308   2.660   7.381   3.855 -0.8663  0.3061  0.3730
  203MOL0     C27309   2.672   7.441   3.994  0.3199  0.5961  0.8680
  203MOL0     C27310   2.819   7.449   4.015 -0.9064  0.3593  0.7143
  203MOL0     C27311   2.862   7.494   4.155  0.6583 -0.6747 -0.1590
  203MOL0     C27312   3.011   7.537   4.157 -0.1001  1.3205 -0.1069
  203MOL0     C27313   3.061   7.542   4.297  0.7073 -0.0906 -0.3184
  203MOL0     C27314   3.210   7.516   4.319 -1.1857 -0.3342 -0.3199
  203MOL0    Cl27315   3.308   7.646   4.255 -0.1420  0.5750 -0.1171
  203MOL0     C27316   2.256   7.236   3.759 -0.3405  0.9215 -0.7349
  203MOL0     C27317   2.131   7.199   3.711 -0.0985  0.6049  0.5327
  203MOL0     O27318   2.057   7.004   3.420 -1.5389  0.1816  0.2633
  203MOL0     C27319   1.799   6.904   3.418 -0.3644 -0.6353  0.6192
  203MOL0     C27320   1.677   6.853   3.396  0.0002 -0.7568  0.5808
  203MOL0     N27321   1.478   6.818   2.848 -1.1801 -0.2234 -1.1313
  203MOL0     N27322   1.559   6.924   2.851  0.3384  0.0324  0.1812
  203MOL0     C27323   2.009   7.891   2.179 -0.8050  0.9677 -0.6378
  203MOL0     C27324   2.009   8.023   2.147  0.3152  1.1351 -0.1390
  203MOL0     C27325   2.080   8.441   2.061  0.1316  0.2881 -0.8407
  203MOL0     C27326   2.083   8.530   2.170  0.0823  0.7004  1.1758
  203MOL0     C27327   2.072   8.664   2.149  0.1086  0.1238 -0.1850
  203MOL0     C27328   2.050   8.714   2.020  0.0315 -0.5897 -1.0239
  203MOL0     O27329   2.024   8.852   2.003  0.0023  0.4348 -0.4558
  203MOL0     C27330   1.894   8.887   1.971  0.6945 -0.9656  0.0133
  203MOL0     C27331   1.876   8.950   1.834  0.0426 -0.5547  0.0297
  203MOL0     C27332   1.745   9.035   1.822  0.1374  0.8341  0.5974
  203MOL0     C27333   1.670   9.026   1.685 -0.7491  0.6086 -0.1490
  203MOL0     C27334   1.540   9.092   1.714 -0.2514 -0.5722 -0.5495
  203MOL0     C27335   1.446   9.169   1.735  1.6507  1.4453 -0.5846
  203MOL0     C27336   2.051   8.636   1.907  0.0842  0.2699 -0.8367
  203MOL0     C27337   2.075   8.499   1.935  0.5248  0.5364 -0.0684
  203MOL0     H27338   2.183   8.145   2.403 -0.4580 -0.7791  1.0854
  203MOL0     H27339   2.160   7.912   2.485 -0.4167 -0.2011  0.5715
  203MOL0     H27340   2.169   7.544   2.366 -1.5050 -0.0583  0.6593
  203MOL0     H27341   2.240   7.703   2.419 -2.2417  3.5927  0.9948
  203MOL0     H27342   2.152   7.566   2.601 -1.2470 -0.5471  1.0290
  203MOL0     H27343   2.035   7.704   2.578  0.3028  1.1976 -1.1399
  203MOL0     H27344   1.891   7.573   2.468 -1.1637 -0.6895  1.6025
  203MOL0     H27345   1.959   7.417   2.480 -0.9345 -0.2110 -0.8799
  203MOL0     H27346   1.971   7.453   2.749 -0.8090 -0.1809  1.3687
  203MOL0     H27347   1.853   7.571   2.726 -0.6317 -2.0758  3.6732
  203MOL0     H27348   1.691   7.421   2.625 -1.7849  0.8123  3.1209
  203MOL0     H27349   1.809   7.299   2.594 -1.4974  0.8697 -0.5101
  203MOL0     H27350   1.826   7.287   2.859 -1.0266  0.6324  0.7042
  203MOL0     H27351   1.697   7.401   2.858  0.7628  3.2088 -3.1835
  203MOL0     H27352   1.560   7.235   2.717 -0.1466 -0.1580  0.6889
  203MOL0     H27353   1.687   7.121   2.731 -1.6292 -1.1525  1.0737
  203MOL0     H27354   1.501   7.229   2.940 -1.0622 -1.2140  0.1818
  203MOL0     H27355   1.663   7.155   2.982  0.8247  1.1040 -1.4414
  203MOL0     H27356   1.305   7.077   2.954 -0.9267 -0.9770 -1.8051
  203MOL0     H27357   1.150   6.828   2.948 -0.4699 -1.5155  2.7545
  203MOL0     H27358   1.230   6.706   2.859 -3.2943 -1.5782  0.6332
  203MOL0     H27359   1.353   6.628   3.064 -1.2549 -1.1423  0.7551
  203MOL0     H27360   1.180   6.642   3.076 -0.3673  0.5109  0.4403
  203MOL0     H27361   1.241   6.731   3.293  0.5729  0.3314  1.0387
  203MOL0     H27362   1.234   6.876   3.202  1.7230  1.1028  3.2728
  203MOL0     H27363   1.495   6.790   3.152 -1.7294 -0.2330 -1.3269
  203MOL0     H27364   1.460   6.694   3.293 -2.4233 -0.6882  0.6377
  203MOL0     H27365   1.552   7.142   3.253  1.0826  2.7652  1.7105
  203MOL0     H27366   1.894   7.276   3.295  0.0379  3.3064 -0.8751
  203MOL0     H27367   1.735   7.304   3.215 -1.2863  1.2702  1.0407
  203MOL0     H27368   1.747   7.341   3.379  1.9772  0.6503 -0.3727
  203MOL0     H27369   2.146   7.305   3.386 -1.3110 -0.8320  1.0462
  203MOL0     H27370   2.379   7.359   3.467 -1.0494  0.5917 -0.7758
  203MOL0     H27371   2.453   7.390   3.896  0.9322  0.1769  1.8459
  203MOL0     H27372   2.518   7.233   3.895  0.0343 -1.1203 -2.3292
  203MOL0     H27373   2.726   7.298   3.830 -4.9517 -2.8626 -1.1327
  203MOL0     H27374   2.680   7.469   3.794 -0.9462 -0.3893 -0.6692
  203MOL0     H27375   2.625   7.373   4.066 -1.3645 -1.8923 -2.3328
  203MOL0     H27376   2.618   7.536   4.002  0.3101  0.6799 -0.1117
  203MOL0     H27377   2.869   7.357   3.982 -1.2029  0.4474  0.0165
  203MOL0     H27378   2.846   7.524   3.940 -0.9197 -0.0870  0.2564
  203MOL0     H27379   2.830   7.407   4.213 -0.4649 -0.4172 -0.3643
  203MOL0     H27380   2.800   7.573   4.200  1.2396  0.6606 -1.6095
  203MOL0     H27381   3.075   7.470   4.100 -1.9126 -0.8881  0.2886
  203MOL0     H27382   3.001   7.636   4.113 -0.1555  1.4346  0.1620
  203MOL0     H27383   3.001   7.473   4.357  0.4380 -1.7495 -2.3966
  203MOL0     H27384   3.039   7.642   4.337 -1.0770 -0.4409 -0.3267
  203MOL0     H27385   3.234   7.419   4.276 -3.3146 -0.3914 -1.5049
  203MOL0     H27386   3.227   7.519   4.427  0.9893 -1.2072 -0.5842
  203MOL0     H27387   2.282   7.202   3.859 -2.7684 -0.9510 -0.6308
  203MOL0     H27388   2.056   7.149   3.771  1.7219 -0.9239  1.6122
  203MOL0     H27389   1.872   6.847   3.475  1.4852  2.7336  1.9436
  203MOL0     H27390   1.661   6.748   3.421  1.5948 -1.1510  0.0724
  203MOL0     H27391   1.960   7.821   2.112 -1.1270  2.2515 -1.8060
  203MOL0     H27392   1.957   8.060   2.059 -2.8932  0.6538  1.3974
  203MOL0     H27393   2.098   8.490   2.270 -0.7345  1.9262  1.8006
  203MOL0     H27394   2.083   8.729   2.235 -2.3328  1.4404 -0.7719
  203MOL0     H27395   1.826   8.803   1.990  0.0662 -0.4332  0.1697
  203MOL0     H27396   1.863   8.961   2.046  1.7348  0.0893 -0.5694
  203MOL0     H27397   1.886   8.865   1.765 -0.8532 -0.1476 -0.6215
  203MOL0     H27398   1.954   9.024   1.815  0.6874 -1.5977 -1.6323
  203MOL0     H27399   1.757   9.137   1.860 -1.9144  1.1533  0.5003
  203MOL0     H27400   1.681   8.994   1.901 -0.1712  0.9279  0.3987
  203MOL0     H27401   1.657   8.923   1.649  1.3141 -0.3608  1.6694
  203MOL0     H27402   1.719   9.099   1.620  0.1693  0.5641  0.4769
  203MOL0     H27403   1.364   9.231   1.763 -0.6318 -0.6927 -2.1204
  203MOL0     H27404   2.032   8.682   1.811 -3.5434 -0.0599 -0.4220
  203MOL0     H27405   2.058   8.440   1.845 -0.1503 -0.5796  0.7617
  204MOL0     O27406   2.592   8.278   0.758 -1.0528  0.7163 -0.1429
  204MOL0     C27407   2.689   8.228   0.807  0.6823  0.5507  0.0902
  204MOL0     O27408   2.726   8.097   0.801  0.5960  0.5638  0.7760
  204MOL0     C27409   2.625   8.005   0.785  0.2965 -0.6934  0.5911
  204MOL0     C27410   2.632   7.914   0.670  0.1932  0.0099  0.3532
  204MOL0     C27411   2.523   7.840   0.633 -0.2841  0.3121 -0.1033
  204MOL0     C27412   2.404   7.854   0.697  0.2913  0.7427 -0.2486
  204MOL0     O27413   2.298   7.770   0.661 -0.6575 -0.4795 -0.0668
  204MOL0     C27414   2.245   7.693   0.763 -0.5536 -0.6156 -0.6071
  204MOL0     C27415   2.168   7.586   0.708  0.1670 -0.9116 -0.4563
  204MOL0     C27416   2.102   7.484   0.806 -0.5233  1.2983  0.0327
  204MOL0     C27417   1.979   7.549   0.870  0.0241 -0.4249  0.2019
  204MOL0     C27418   1.943   7.461   0.991 -0.4054  0.6595 -0.2909
  204MOL0     C27419   1.803   7.497   1.040  0.7948 -0.7644  0.0695
  204MOL0     C27420   1.788   7.443   1.182  0.5267  0.8978 -0.3651
  204MOL0     C27421   1.680   7.520   1.266  0.6189  0.9942 -0.2062
  204MOL0     N27422   1.681   7.477   1.406 -0.0205 -0.9085  0.6055
  204MOL0     C27423   1.573   7.506   1.490 -0.1956 -0.0828  0.1037
  204MOL0     C27424   1.614   7.470   1.611  0.2943  0.6400  0.3352
  204MOL0     C27425   1.519   7.460   1.733 -0.7795  0.6476  0.0470
  204MOL0     C27426   1.431   7.330   1.724  0.4263 -0.4232  0.0411
  204MOL0     C27427   1.328   7.320   1.833 -0.9286  0.0176 -0.3506
  204MOL0     C27428   1.253   7.445   1.873  0.0737  0.3743  0.5201
  204MOL0     O27429   1.185   7.495   1.761  0.2134 -0.2727 -0.1452
  204MOL0     C27430   1.080   7.575   1.773 -0.6807 -0.4017  0.0828
  204MOL0     C27431   0.996   7.589   1.881  0.1901 -1.1274 -0.0821
  204MOL0     C27432   0.884   7.671   1.883 -0.9072  0.2640  0.1508
  204MOL0     C27433   0.816   7.682   2.012 -0.1585 -0.0567 -0.3314
  204MOL0     C27434   0.853   7.745   1.758  0.6475  0.7769  0.4017
  204MOL0     C27435   0.733   7.831   1.738  0.2834 -0.4905 -0.6161
  204MOL0     O27436   0.674   7.849   1.615  0.1367  0.0871 -0.2222
  204MOL0     C27437   0.548   7.912   1.615  0.6507  0.1670 -0.1462
  204MOL0     C27438   0.556   8.050   1.632  0.2628  0.1088  0.1129
  204MOL0     C27439   0.444   8.132   1.621  0.1487  0.4399  0.0082
  204MOL0     C27440   0.317   8.078   1.584 -0.9898  0.3779  0.2549
  204MOL0     O27441   0.213   8.169   1.570 -0.5543 -0.0002  0.0952
  204MOL0     C27442   0.097   8.140   1.501  1.1630  0.4431  1.2845
  204MOL0     C27443   0.121   8.186   1.355  0.9073  0.2374  0.2136
  204MOL0     C27444  -0.015   8.224   1.281  0.1860 -0.7942 -0.1480
  204MOL0     C27445  -0.089   8.333   1.347 -0.0397 -0.1468 -0.9209
  204MOL0     C27446  -0.189   8.417   1.255 -0.1630 -0.0766 -0.6090
  204MOL0     C27447  -0.291   8.333   1.176 -0.2699  0.8060 -0.2337
  204MOL0     C27448  -0.383   8.246   1.268 -0.8880  0.1001  0.0138
  204MOL0     C27449  -0.513   8.196   1.192 -0.3783  0.0269  0.6514
  204MOL0    Cl27450  -0.631   8.328   1.162  0.2701 -0.0989 -0.0130
  204MOL0     C27451   0.309   7.934   1.559 -0.1625  0.3664 -0.8930
  204MOL0     C27452   0.423   7.861   1.570 -0.2521  0.6316  1.1089
  204MOL0     O27453   0.697   7.889   1.845 -0.3650  1.1038  0.4386
  204MOL0     C27454   0.927   7.720   1.647  0.7108 -0.0859 -0.6046
  204MOL0     C27455   1.046   7.640   1.655 -0.5613  0.9313  0.1128
  204MOL0     N27456   1.744   7.417   1.610  0.3912  0.1032  0.5155
  204MOL0     N27457   1.782   7.424   1.479  0.2162 -0.1218 -0.9699
  204MOL0     C27458   2.392   7.938   0.809  0.4972 -0.6776 -0.4437
  204MOL0     C27459   2.504   8.012   0.854 -0.0952  0.8727 -0.3281
  204MOL0     C27460   2.779   8.330   0.851  0.6809  0.6417 -0.4932
  204MOL0     C27461   2.753   8.466   0.839 -0.0424  0.1956  0.8067
  204MOL0     C27462   2.861   8.554   0.864  0.4874 -0.3659 -1.0996
  204MOL0     C27463   2.981   8.519   0.921  0.7808  0.6473 -0.7488
  204MOL0     O27464   3.080   8.603   0.973 -0.4955 -0.4790 -0.7298
  204MOL0     C27465   3.053   8.744   0.961  0.0375  0.1434  0.0557
  204MOL0     C27466   3.174   8.811   1.027 -0.2025  0.3823 -0.1820
  204MOL0     C27467   3.162   8.963   1.021  0.2341  0.9029 -0.1234
  204MOL0     C27468   3.295   9.019   1.068 -0.8465 -0.4392  0.4490
  204MOL0     C27469   3.325   9.006   1.212  0.0284 -0.9209  0.5566
  204MOL0     C27470   3.337   8.982   1.329  0.5466  0.7806  0.2074
  204MOL0     C27471   2.999   8.379   0.943 -0.5993 -0.4520 -0.7363
  204MOL0     C27472   2.895   8.299   0.916 -0.3056  0.6761  0.4759
  204MOL0     H27473   2.719   7.903   0.606  1.0029  0.9593  1.2447
  204MOL0     H27474   2.519   7.778   0.544 -0.8656  3.0459 -2.0854
  204MOL0     H27475   2.331   7.647   0.813 -0.9206 -0.3018  0.3445
  204MOL0     H27476   2.188   7.757   0.831  1.7056 -0.5285  1.3883
  204MOL0     H27477   2.089   7.618   0.639  1.9076 -0.2840 -2.2583
  204MOL0     H27478   2.224   7.520   0.641  0.3100 -0.1418 -1.1119
  204MOL0     H27479   2.087   7.390   0.751  1.8925  1.0806 -0.3530
  204MOL0     H27480   2.186   7.461   0.872  0.8074  0.9544 -1.6947
  204MOL0     H27481   1.999   7.647   0.913 -6.2917  1.7340 -0.7517
  204MOL0     H27482   1.903   7.552   0.791  0.6382 -3.7432 -0.6655
  204MOL0     H27483   1.965   7.358   0.961  2.7365  1.1613 -0.1043
  204MOL0     H27484   2.015   7.498   1.065 -0.4365  1.6190 -0.7220
  204MOL0     H27485   1.776   7.603   1.032 -0.0874 -1.0100 -0.3385
  204MOL0     H27486   1.730   7.437   0.986  0.0627 -1.9719  2.3021
  204MOL0     H27487   1.756   7.339   1.175  0.8311  0.7387  0.4661
  204MOL0     H27488   1.883   7.432   1.236  1.0690 -2.4120 -1.7437
  204MOL0     H27489   1.580   7.501   1.225 -0.4487  1.8883  1.8275
  204MOL0     H27490   1.705   7.626   1.275  0.5769  0.8782  1.8058
  204MOL0     H27491   1.475   7.545   1.464 -1.1046 -0.4930  2.6470
  204MOL0     H27492   1.590   7.444   1.815  2.6508  0.9025 -2.6209
  204MOL0     H27493   1.451   7.545   1.729 -1.7623 -0.1719 -1.7719
  204MOL0     H27494   1.503   7.250   1.738  1.7509  1.2092  4.2062
  204MOL0     H27495   1.396   7.327   1.620 -2.2855 -0.3801  0.8764
  204MOL0     H27496   1.380   7.279   1.920  0.4104  1.2105 -0.5497
  204MOL0     H27497   1.253   7.246   1.802 -1.3650  0.3908 -0.1849
  204MOL0     H27498   1.314   7.519   1.926  1.5165 -0.5233  0.1520
  204MOL0     H27499   1.176   7.419   1.946 -0.6377  1.0016  0.0145
  204MOL0     H27500   1.015   7.536   1.974  0.6622 -1.1085 -0.1667
  204MOL0     H27501   0.842   7.782   2.049  2.1793 -0.4750 -0.6979
  204MOL0     H27502   0.708   7.665   2.011 -0.2604 -0.1020  2.8027
  204MOL0     H27503   0.864   7.610   2.077 -0.1388 -0.0760 -0.3676
  204MOL0     H27504   0.654   8.086   1.658  0.9841 -1.8768  0.3127
  204MOL0     H27505   0.438   8.240   1.633 -2.9015  0.4890 -1.0138
  204MOL0     H27506   0.062   8.037   1.506  3.0538 -0.2308  1.3972
  204MOL0     H27507   0.022   8.200   1.554  1.6129  1.7523  0.4890
  204MOL0     H27508   0.176   8.278   1.375 -0.4886  1.0912  0.2432
  204MOL0     H27509   0.180   8.115   1.296 -2.3489 -3.0163  0.5164
  204MOL0     H27510  -0.081   8.138   1.264 -1.7741  0.2562  1.6075
  204MOL0     H27511   0.015   8.271   1.187 -1.6380  0.0789 -0.3360
  204MOL0     H27512  -0.145   8.286   1.429 -2.2226  1.0614 -1.6442
  204MOL0     H27513  -0.031   8.405   1.406 -1.0514 -1.8513  2.4215
  204MOL0     H27514  -0.128   8.478   1.187  3.2507  2.3990  4.1216
  204MOL0     H27515  -0.251   8.479   1.321 -0.8070 -2.0224  0.6952
  204MOL0     H27516  -0.361   8.404   1.131  1.1748  3.2848  1.1281
  204MOL0     H27517  -0.247   8.275   1.095  0.6715  0.8482  0.2334
  204MOL0     H27518  -0.405   8.295   1.363 -0.2822 -2.3226  1.5181
  204MOL0     H27519  -0.318   8.160   1.288  1.6965  1.4004 -2.1409
  204MOL0     H27520  -0.553   8.111   1.249  0.8449 -0.4838  0.7732
  204MOL0     H27521  -0.497   8.149   1.095 -2.6849 -1.5415  0.9412
  204MOL0     H27522   0.220   7.880   1.526  0.6086  0.2147 -2.8924
  204MOL0     H27523   0.418   7.757   1.540 -3.6033  1.1083 -0.5251
  204MOL0     H27524   0.911   7.776   1.556  1.2806 -0.1647 -0.7560
  204MOL0     H27525   1.110   7.627   1.569  0.5153 -0.5666  1.0986
  204MOL0     H27526   2.300   7.967   0.856  2.0379  1.3842  1.4905
  204MOL0     H27527   2.495   8.092   0.926  0.0372  2.0822 -1.6051
  204MOL0     H27528   2.655   8.501   0.807  0.4058 -0.8793 -2.0993
  204MOL0     H27529   2.844   8.659   0.842  0.6799 -0.5846 -2.3611
  204MOL0     H27530   3.035   8.779   0.859 -1.1990 -1.9329 -0.4945
  204MOL0     H27531   2.961   8.772   1.013 -0.1810  0.4027 -0.4689
  204MOL0     H27532   3.262   8.756   0.993 -0.6653 -0.4407 -0.0685
  204MOL0     H27533   3.179   8.786   1.134  0.4164  2.8779  0.4495
  204MOL0     H27534   3.080   8.997   1.084 -1.0930  1.2165 -1.9257
  204MOL0     H27535   3.135   9.006   0.924  0.0196 -0.6151 -0.7576
  204MOL0     H27536   3.295   9.120   1.025 -3.2310 -0.1102  1.1039
  204MOL0     H27537   3.373   8.968   1.011  0.5676  0.0651  1.8569
  204MOL0     H27538   3.336   8.950   1.431 -1.4581 -1.1160 -0.3248
  204MOL0     H27539   3.090   8.336   0.984  0.9078 -2.8237 -5.8675
  204MOL0     H27540   2.913   8.195   0.941 -2.7117  0.1417  0.2056
  205MOL0     O27541   0.897  11.344   2.828 -0.2760  0.4465 -0.7416
  205MOL0     C27542   0.866  11.247   2.911 -0.3396 -0.3271  0.5293
  205MOL0     O27543   0.740  11.205   2.944 -0.0609 -0.1316 -0.2509
  205MOL0     C27544   0.633  11.238   2.860  0.9236 -0.2111  0.1415
  205MOL0     C27545   0.636  11.210   2.722  1.0691  0.5749  0.0039
  205MOL0     C27546   0.519  11.234   2.641 -0.6617 -0.0949  1.1194
  205MOL0     C27547   0.398  11.280   2.702 -0.5625  0.2184  0.2344
  205MOL0     O27548   0.288  11.290   2.622 -0.5132  0.9776 -0.4579
  205MOL0     C27549   0.171  11.366   2.655 -0.6128  0.2116  0.2055
  205MOL0     C27550   0.097  11.373   2.521  0.0449  0.5963 -1.0539
  205MOL0     C27551  -0.059  11.375   2.538  0.6778  0.3188  0.2098
  205MOL0     C27552  -0.116  11.490   2.623  0.8327  0.7382  0.3315
  205MOL0     C27553  -0.266  11.507   2.592  0.0840  0.0889 -0.2107
  205MOL0     C27554  -0.322  11.627   2.676  0.1616  0.3315  1.1822
  205MOL0     C27555  -0.347  11.596   2.823  0.3015 -0.2568 -0.3452
  205MOL0     C27556  -0.491  11.521   2.825 -0.3177 -0.0832  1.0683
  205MOL0     N27557  -0.544  11.503   2.960 -0.5754 -0.2599 -0.5334
  205MOL0     C27558  -0.660  11.553   3.012  0.0810  0.5046  0.5374
  205MOL0     C27559  -0.656  11.505   3.144  0.5680 -0.1321 -0.3181
  205MOL0     C27560  -0.767  11.527   3.236  0.8167 -0.5710  0.2114
  205MOL0     C27561  -0.822  11.393   3.277  0.3815  0.2093 -0.3168
  205MOL0     C27562  -0.880  11.304   3.166  0.0644  0.2244  0.3572
  205MOL0     C27563  -0.955  11.179   3.211  1.2229  0.1042 -0.3884
  205MOL0     O27564  -1.080  11.208   3.281  0.0708 -0.3046  0.1838
  205MOL0     C27565  -1.192  11.243   3.206 -0.4543  0.2477  0.3073
  205MOL0     C27566  -1.198  11.253   3.065  0.6541 -0.1008  0.1360
  205MOL0     C27567  -1.317  11.294   2.995 -0.1330 -0.1252  0.0623
  205MOL0     C27568  -1.314  11.284   2.843  0.2646  0.6509 -0.1937
  205MOL0     C27569  -1.424  11.339   3.067  0.1340  0.7267 -0.0452
  205MOL0     C27570  -1.544  11.409   3.004 -0.8977  0.1919 -0.6804
  205MOL0     O27571  -1.655  11.410   3.073  0.3301  0.1670 -0.1360
  205MOL0     C27572  -1.764  11.478   3.017 -0.2481 -0.2126  0.2369
  205MOL0     C27573  -1.849  11.421   2.926 -0.3960 -0.2514 -0.1508
  205MOL0     C27574  -1.969  11.483   2.895  0.0683  0.1632  0.1415
  205MOL0     C27575  -1.998  11.606   2.960  0.4959 -0.2470 -0.4332
  205MOL0     O27576  -2.115  11.672   2.941 -0.9350  0.0795  0.1337
  205MOL0     C27577  -2.215  11.616   2.858 -0.1703  1.0859  0.3876
  205MOL0     C27578  -2.337  11.708   2.841  0.9782 -0.9709 -0.8403
  205MOL0     C27579  -2.459  11.640   2.765  0.3027 -0.0233  0.2627
  205MOL0     C27580  -2.546  11.741   2.698  0.7657 -0.7405 -0.0036
  205MOL0     C27581  -2.512  11.783   2.559  0.2454 -0.3104  0.1156
  205MOL0     C27582  -2.531  11.681   2.446  0.9292 -0.1448 -0.2146
  205MOL0     C27583  -2.510  11.747   2.307  0.1659  0.0210  0.6722
  205MOL0     C27584  -2.600  11.685   2.196 -0.8415  0.1097  0.1095
  205MOL0    Cl27585  -2.532  11.525   2.149 -0.3931 -0.1097 -0.4903
  205MOL0     C27586  -1.911  11.673   3.039  0.2809 -0.1247 -0.1285
  205MOL0     C27587  -1.787  11.610   3.062  0.3250  0.1988 -0.5500
  205MOL0     O27588  -1.522  11.480   2.909  0.8395 -0.6554 -0.6173
  205MOL0     C27589  -1.419  11.331   3.204 -0.1419  0.4285  0.7700
  205MOL0     C27590  -1.303  11.285   3.274  0.1174  0.2427 -1.3770
  205MOL0     N27591  -0.541  11.433   3.167 -0.6785 -0.1301  0.0437
  205MOL0     N27592  -0.478  11.438   3.060  0.2758  0.2290 -0.4227
  205MOL0     C27593   0.393  11.302   2.837  0.3686  0.2133 -0.2358
  205MOL0     C27594   0.508  11.287   2.912  0.6143  0.0167 -0.1982
  205MOL0     C27595   0.980  11.207   2.991 -0.8149 -0.9473 -0.5852
  205MOL0     C27596   1.101  11.174   2.931  0.0818 -0.8428  0.4672
  205MOL0     C27597   1.213  11.150   3.007 -0.1791  0.3199  0.2856
  205MOL0     C27598   1.210  11.150   3.151  0.8863 -0.5903 -0.5076
  205MOL0     O27599   1.307  11.129   3.246  0.3412 -0.1490 -0.5295
  205MOL0     C27600   1.435  11.070   3.195  0.4824 -0.4442  0.1413
  205MOL0     C27601   1.513  11.052   3.326 -0.0304 -1.0480 -0.1852
  205MOL0     C27602   1.613  10.933   3.330  0.1515  0.3092  0.4056
  205MOL0     C27603   1.734  10.938   3.246  0.0107 -0.7254 -0.3975
  205MOL0     C27604   1.707  10.946   3.109 -1.2769 -0.7975  0.1682
  205MOL0     C27605   1.677  10.940   2.990  0.1561  0.6591  0.8934
  205MOL0     C27606   1.082  11.179   3.213 -1.3225 -0.9141 -0.1664
  205MOL0     C27607   0.971  11.209   3.135  0.5878  0.3557  1.7027
  205MOL0     H27608   0.727  11.167   2.682 -0.0257  1.7777 -4.3703
  205MOL0     H27609   0.514  11.225   2.533 -1.7049  1.7679  0.9796
  205MOL0     H27610   0.110  11.325   2.735 -0.6495  2.9701  1.7397
  205MOL0     H27611   0.206  11.460   2.701  2.1068 -0.9137  0.6559
  205MOL0     H27612   0.126  11.468   2.476  4.0792  1.5118  2.7967
  205MOL0     H27613   0.116  11.290   2.452 -4.2452 -0.2182 -1.5855
  205MOL0     H27614  -0.095  11.392   2.436 -1.9540  2.1700  1.3395
  205MOL0     H27615  -0.099  11.278   2.569 -0.5699  0.9637  0.6598
  205MOL0     H27616  -0.098  11.485   2.731 -0.9673 -1.6937  0.5952
  205MOL0     H27617  -0.081  11.588   2.589 -2.9558  1.4269 -2.1393
  205MOL0     H27618  -0.281  11.531   2.486  1.3697  1.7479 -0.0634
  205MOL0     H27619  -0.319  11.414   2.613  0.7285 -0.0473  0.9232
  205MOL0     H27620  -0.256  11.711   2.657 -0.7805  0.6974 -0.6659
  205MOL0     H27621  -0.420  11.664   2.644  0.3404  1.3008  1.7158
  205MOL0     H27622  -0.269  11.531   2.865 -1.2060 -2.9092 -1.4335
  205MOL0     H27623  -0.357  11.687   2.882 -0.3402 -0.6925  0.2342
  205MOL0     H27624  -0.478  11.424   2.777 -1.9167 -0.2151  0.8311
  205MOL0     H27625  -0.552  11.595   2.771 -0.4928  0.0730  1.4761
  205MOL0     H27626  -0.736  11.616   2.966  0.3722  0.7691  0.4125
  205MOL0     H27627  -0.728  11.586   3.319 -0.3801  1.9638 -0.9134
  205MOL0     H27628  -0.846  11.598   3.207  0.9955 -0.6752 -0.5392
  205MOL0     H27629  -0.908  11.404   3.345  0.3483  0.7607 -0.4423
  205MOL0     H27630  -0.752  11.331   3.333  1.3809  0.5309 -1.1875
  205MOL0     H27631  -0.795  11.265   3.108  2.5271  1.1250  3.1092
  205MOL0     H27632  -0.929  11.365   3.090  2.5972  2.7880  0.6309
  205MOL0     H27633  -0.886  11.117   3.270 -0.4285 -0.4526  1.0258
  205MOL0     H27634  -0.979  11.127   3.118 -1.5475  2.0064 -0.8680
  205MOL0     H27635  -1.115  11.225   3.001 -0.3326 -2.0390 -0.3721
  205MOL0     H27636  -1.320  11.383   2.798 -0.7769 -0.6594 -3.1369
  205MOL0     H27637  -1.224  11.231   2.810  1.3518  2.9493 -1.1543
  205MOL0     H27638  -1.392  11.217   2.806  0.9186 -0.3855  0.2492
  205MOL0     H27639  -1.831  11.320   2.891  0.5937 -0.3816  0.6968
  205MOL0     H27640  -2.038  11.436   2.825  2.3341 -3.2836  0.0205
  205MOL0     H27641  -2.170  11.589   2.762  1.5392  2.6725  0.6922
  205MOL0     H27642  -2.250  11.530   2.916 -1.2656  0.9276 -0.4791
  205MOL0     H27643  -2.369  11.732   2.943  1.3754  2.1623 -1.3731
  205MOL0     H27644  -2.309  11.806   2.803 -1.7406 -0.2438 -1.1180
  205MOL0     H27645  -2.528  11.590   2.833 -1.0558  1.4307  0.0260
  205MOL0     H27646  -2.427  11.564   2.693  0.0277  2.3131 -2.5295
  205MOL0     H27647  -2.649  11.704   2.691 -0.1673  1.9465 -4.6073
  205MOL0     H27648  -2.548  11.836   2.752 -0.4400 -0.7336 -0.0260
  205MOL0     H27649  -2.406  11.808   2.556  0.0733  1.0629  2.7819
  205MOL0     H27650  -2.573  11.867   2.525  2.0436  0.9409 -0.1151
  205MOL0     H27651  -2.464  11.595   2.449 -0.0255 -0.9472 -0.9357
  205MOL0     H27652  -2.628  11.630   2.456  0.9497 -0.9890 -3.2197
  205MOL0     H27653  -2.404  11.748   2.278  0.5652  2.5586  1.9476
  205MOL0     H27654  -2.544  11.851   2.312  1.1496  0.3749  0.2357
  205MOL0     H27655  -2.604  11.748   2.107 -4.0353  2.2361  1.5755
  205MOL0     H27656  -2.705  11.681   2.228 -0.9643  0.9534 -0.1729
  205MOL0     H27657  -1.923  11.763   3.097  1.0821  0.8119 -1.3548
  205MOL0     H27658  -1.734  11.655   3.146 -1.1664  0.5638  0.2309
  205MOL0     H27659  -1.502  11.365   3.264  0.0684  0.4114  1.0718
  205MOL0     H27660  -1.297  11.297   3.381 -0.7409  1.9624 -1.4741
  205MOL0     H27661   0.307  11.355   2.876  2.0264  0.6548  3.2236
  205MOL0     H27662   0.520  11.319   3.015  2.2509 -2.7122  0.5393
  205MOL0     H27663   1.112  11.188   2.824  0.0139 -2.1585  0.2737
  205MOL0     H27664   1.305  11.117   2.961 -0.9088 -0.4427 -0.6861
  205MOL0     H27665   1.424  10.978   3.136 -0.0370  1.8475 -3.6693
  205MOL0     H27666   1.479  11.141   3.124  0.0712  2.8932  2.9931
  205MOL0     H27667   1.453  11.054   3.417  1.0488  3.0660  0.6426
  205MOL0     H27668   1.566  11.147   3.335 -1.0356 -0.4904 -0.0051
  205MOL0     H27669   1.560  10.844   3.296  1.8796 -0.4292 -0.5136
  205MOL0     H27670   1.633  10.914   3.436 -0.9186  0.6220  0.6797
  205MOL0     H27671   1.796  10.848   3.258 -0.1370 -0.9333 -1.1468
  205MOL0     H27672   1.793  11.027   3.270 -0.9595 -0.6685  2.1520
  205MOL0     H27673   1.659  10.940   2.884 -0.5702 -1.0383  0.9847
  205MOL0     H27674   1.082  11.192   3.320 -1.4712  1.4480 -0.4131
  205MOL0     H27675   0.876  11.228   3.184 -1.4621 -3.7500 -0.1088
  206MOL0     O27676  10.805   9.097   1.169 -0.3907 -0.1995 -0.3309
  206MOL0     C27677  10.921   9.131   1.191  0.2618 -0.5841  0.2576
  206MOL0     O27678  11.003   9.180   1.100 -0.5408 -0.9679  0.8549
  206MOL0     C27679  10.966   9.238   0.979 -0.7613 -0.2577 -0.2799
  206MOL0     C27680  11.067   9.284   0.896  0.2125 -0.8867 -0.8229
  206MOL0     C27681  11.051   9.345   0.775 -0.6810 -0.4114  0.7015
  206MOL0     C27682  10.923   9.354   0.721  0.5819 -0.3190  0.8015
  206MOL0     O27683  10.889   9.415   0.600 -0.3449  0.1021 -0.2089
  206MOL0     C27684  10.984   9.385   0.493 -0.4178 -0.6885  0.2023
  206MOL0     C27685  10.931   9.391   0.351  0.6428 -0.1946 -1.3274
  206MOL0     C27686  10.835   9.276   0.309 -0.4342  0.3396  0.2500
  206MOL0     C27687  10.798   9.285   0.150  0.0410 -0.4233  0.8005
  206MOL0     C27688  10.722   9.158   0.113  1.0379 -0.1064  0.3348
  206MOL0     C27689  10.577   9.158   0.153 -0.3011  0.1351  0.3443
  206MOL0     C27690  10.502   9.020   0.119 -1.1430 -0.1123 -0.0467
  206MOL0     C27691  10.523   8.921   0.241 -0.3504 -0.2500  0.7786
  206MOL0     N27692  10.456   8.961   0.363  0.5656 -0.0454 -0.6361
  206MOL0     C27693  10.526   9.012   0.469 -0.5542 -0.1287 -0.1582
  206MOL0     C27694  10.432   9.028   0.571 -0.2983 -0.0123  0.4018
  206MOL0     C27695  10.463   9.075   0.704  0.3352  0.2326  0.0355
  206MOL0     C27696  10.543   8.971   0.798  0.9983 -0.7812  0.1293
  206MOL0     C27697  10.675   8.922   0.758 -0.6035  0.4702  0.4274
  206MOL0     C27698  10.751   8.865   0.883  0.3420 -0.0419 -1.1194
  206MOL0     O27699  10.855   8.769   0.860  0.5520 -0.5437 -0.6102
  206MOL0     C27700  10.827   8.640   0.845  0.5415  0.8111 -0.1936
  206MOL0     C27701  10.700   8.579   0.819 -0.1889 -0.7167 -0.1189
  206MOL0     C27702  10.687   8.440   0.798  0.8301 -0.6925  0.3112
  206MOL0     C27703  10.548   8.388   0.759  0.0832  0.7510 -0.3658
  206MOL0     C27704  10.800   8.350   0.812  0.3716 -0.8875  0.1933
  206MOL0     C27705  10.792   8.199   0.812  0.4387  0.7143  0.7131
  206MOL0     O27706  10.887   8.125   0.874 -0.2843  0.1775 -0.3120
  206MOL0     C27707  10.878   7.987   0.890  0.2078 -0.6118  0.8713
  206MOL0     C27708  11.003   7.921   0.923 -0.5778  1.5740 -0.3108
  206MOL0     C27709  11.007   7.789   0.967 -0.2310  0.0991  1.0544
  206MOL0     C27710  10.885   7.713   0.982  1.2470 -0.8960  0.4973
  206MOL0     O27711  10.882   7.591   1.030  0.0563 -0.4060 -0.1014
  206MOL0     C27712  10.861   7.492   0.932 -0.0066 -0.1941 -0.7058
  206MOL0     C27713  10.983   7.492   0.838  0.9183 -0.2786 -0.2213
  206MOL0     C27714  10.977   7.375   0.747  0.0911 -0.0547 -0.2803
  206MOL0     C27715  11.113   7.331   0.707 -0.5725 -0.4159 -0.4393
  206MOL0     C27716  11.101   7.231   0.591  0.3497  0.8676 -0.5556
  206MOL0     C27717  11.088   7.088   0.650 -0.5889  0.2510 -0.7625
  206MOL0     C27718  11.099   6.985   0.540  0.1213  1.1014  0.1723
  206MOL0     C27719  11.034   6.851   0.570 -0.1631 -0.0131 -0.4290
  206MOL0    Cl27720  11.145   6.732   0.669  0.6705 -0.4442  0.5675
  206MOL0     C27721  10.762   7.779   0.946 -0.4610 -0.0557  0.8529
  206MOL0     C27722  10.765   7.912   0.904 -0.1218 -1.0983 -0.1610
  206MOL0     O27723  10.706   8.152   0.740 -0.6274 -0.7481 -1.0613
  206MOL0     C27724  10.925   8.411   0.836  0.3378 -0.5642  0.8274
  206MOL0     C27725  10.935   8.548   0.854 -0.7103 -0.1551  0.2744
  206MOL0     N27726  10.306   8.996   0.520 -1.0646 -0.0360 -0.7205
  206MOL0     N27727  10.327   8.949   0.402  0.2068 -0.0036  0.8406
  206MOL0     C27728  10.816   9.315   0.801  1.0325  0.1893 -0.6866
  206MOL0     C27729  10.834   9.254   0.925 -0.1089  0.5999 -0.5831
  206MOL0     C27730  10.978   9.121   1.325  0.2299  0.2068 -0.0804
  206MOL0     C27731  10.926   9.031   1.422  0.4581  0.3793 -0.1040
  206MOL0     C27732  10.989   9.023   1.546  0.5756 -0.0391 -0.0360
  206MOL0     C27733  11.104   9.097   1.578  0.0557 -0.7642  0.2395
  206MOL0     O27734  11.178   9.074   1.695 -0.1520  0.2706 -0.3145
  206MOL0     C27735  11.120   9.012   1.804 -0.5000  0.3231 -0.0398
  206MOL0     C27736  11.210   9.021   1.922  0.3017 -0.3161 -0.7625
  206MOL0     C27737  11.265   9.159   1.957 -0.1885  0.4645 -0.1524
  206MOL0     C27738  11.195   9.291   1.918 -0.2180  0.3935 -0.2324
  206MOL0     C27739  11.057   9.280   1.958  0.3379  0.7283  0.6520
  206MOL0     C27740  10.936   9.264   1.988  0.6121 -0.1042  0.3254
  206MOL0     C27741  11.159   9.185   1.480  0.7923  0.0936 -0.1055
  206MOL0     C27742  11.102   9.190   1.354  0.7480 -0.7695  0.5172
  206MOL0     H27743  11.169   9.277   0.934 -0.0146  1.9654  0.5575
  206MOL0     H27744  11.132   9.394   0.722 -1.6723  1.0436  0.4815
  206MOL0     H27745  11.063   9.460   0.506 -1.6426  0.3235  2.2102
  206MOL0     H27746  11.028   9.286   0.505  0.5611 -0.3058 -0.0471
  206MOL0     H27747  10.888   9.491   0.343 -1.0340 -0.5193  1.8821
  206MOL0     H27748  11.023   9.392   0.291  3.2605  0.5020  2.2969
  206MOL0     H27749  10.881   9.178   0.330  0.2040  0.2998 -1.2094
  206MOL0     H27750  10.744   9.267   0.369 -0.5087 -2.7836 -0.1683
  206MOL0     H27751  10.729   9.371   0.147 -1.3102 -1.3849  2.5502
  206MOL0     H27752  10.886   9.306   0.088 -2.7650  3.1020 -2.5749
  206MOL0     H27753  10.713   9.140   0.005  0.8241 -1.3978  0.5515
  206MOL0     H27754  10.778   9.082   0.168  0.9127 -1.0292 -0.7799
  206MOL0     H27755  10.587   9.177   0.261 -1.4686  1.3093  0.2741
  206MOL0     H27756  10.516   9.238   0.112  0.0492 -0.4012 -1.2856
  206MOL0     H27757  10.396   9.040   0.101 -0.8758 -0.1643 -1.8112
  206MOL0     H27758  10.547   8.984   0.026 -2.2925  1.3255 -1.2161
  206MOL0     H27759  10.632   8.911   0.249 -0.1447  1.7497  1.1003
  206MOL0     H27760  10.479   8.824   0.218 -4.4030  1.9438 -1.6987
  206MOL0     H27761  10.633   9.028   0.471 -0.2011 -1.5906  4.4546
  206MOL0     H27762  10.523   9.167   0.706 -0.9131  1.0663  1.8064
  206MOL0     H27763  10.371   9.095   0.758  0.3603 -1.7648  0.9088
  206MOL0     H27764  10.483   8.879   0.800  5.0373 -3.6684  1.6327
  206MOL0     H27765  10.532   9.016   0.897 -3.3617 -0.5705 -0.2599
  206MOL0     H27766  10.734   8.999   0.708 -0.3539 -0.0617 -0.1129
  206MOL0     H27767  10.654   8.839   0.691  0.8156  1.3510 -1.1915
  206MOL0     H27768  10.672   8.814   0.939  1.3101 -0.0509  0.2925
  206MOL0     H27769  10.791   8.945   0.945 -0.8876 -0.3095  0.0643
  206MOL0     H27770  10.607   8.637   0.822  0.7149  0.7761  0.2025
  206MOL0     H27771  10.521   8.310   0.832  2.1833 -3.3722 -3.5359
  206MOL0     H27772  10.472   8.467   0.763  1.5064  2.1683 -0.6693
  206MOL0     H27773  10.553   8.336   0.663  1.9660 -0.2611  0.2183
  206MOL0     H27774  11.094   7.979   0.911  0.5751 -0.1936 -0.3682
  206MOL0     H27775  11.107   7.761   0.996  2.2919  2.5460 -3.9857
  206MOL0     H27776  10.847   7.395   0.981 -3.7320  0.3714 -0.3097
  206MOL0     H27777  10.771   7.520   0.876 -1.0042  3.6909  2.3610
  206MOL0     H27778  10.983   7.586   0.783 -1.0929 -1.0693 -1.7170
  206MOL0     H27779  11.072   7.483   0.902  0.1156  2.4041  1.4226
  206MOL0     H27780  10.916   7.417   0.666 -1.1299 -0.0802  0.6074
  206MOL0     H27781  10.926   7.288   0.789  2.8862 -2.2182 -1.0701
  206MOL0     H27782  11.163   7.424   0.678 -1.8126 -0.1325 -1.8398
  206MOL0     H27783  11.180   7.281   0.777 -1.8019  0.2743  1.3150
  206MOL0     H27784  11.197   7.241   0.538  1.5679 -3.4973  0.4421
  206MOL0     H27785  11.032   7.263   0.512 -0.2166  2.6778  0.6077
  206MOL0     H27786  11.170   7.063   0.717  0.5926 -0.7857 -2.5373
  206MOL0     H27787  10.991   7.097   0.701 -0.1814  1.8697 -0.2162
  206MOL0     H27788  11.206   6.974   0.525  0.3933  2.3671  1.1254
  206MOL0     H27789  11.061   7.026   0.446 -0.1520  0.7504  0.1251
  206MOL0     H27790  11.018   6.807   0.472  1.6791  2.4284 -1.9424
  206MOL0     H27791  10.939   6.866   0.622  0.4997 -0.6710  1.0409
  206MOL0     H27792  10.668   7.727   0.962  0.4745 -2.2577 -0.4657
  206MOL0     H27793  10.672   7.959   0.874  1.2726  1.1806 -1.1881
  206MOL0     H27794  11.011   8.346   0.844  2.5421  2.2147  1.0236
  206MOL0     H27795  11.032   8.592   0.873 -0.9816  0.1048  1.1181
  206MOL0     H27796  10.714   9.337   0.768  0.6916  1.9679  1.3302
  206MOL0     H27797  10.739   9.241   0.977 -0.9104  1.3546 -1.8238
  206MOL0     H27798  10.837   8.973   1.400  1.3304 -1.0166 -0.0989
  206MOL0     H27799  10.951   8.952   1.618 -0.9972  0.4046 -0.4033
  206MOL0     H27800  11.020   9.052   1.825  0.0571  1.3543  0.7885
  206MOL0     H27801  11.118   8.906   1.780  2.3416  0.8381 -3.5432
  206MOL0     H27802  11.294   8.952   1.917 -1.0942 -2.2271  0.5727
  206MOL0     H27803  11.159   8.976   2.008 -1.3515  1.2235 -0.8800
  206MOL0     H27804  11.364   9.166   1.910 -0.8409  1.8138 -1.4325
  206MOL0     H27805  11.300   9.161   2.060  1.5401 -0.6597 -0.6680
  206MOL0     H27806  11.201   9.319   1.812 -3.0816  3.2789  0.2372
  206MOL0     H27807  11.242   9.367   1.980 -0.6396  0.7246 -0.3131
  206MOL0     H27808  10.830   9.247   1.993  0.6964 -1.7276 -1.8440
  206MOL0     H27809  11.249   9.240   1.507  1.6336 -1.0822 -0.4312
  206MOL0     H27810  11.147   9.254   1.278 -0.2659  2.7108  2.5866
  207MOL0     O27811   4.046   6.828   8.068  0.4010 -0.1304  0.2876
  207MOL0     C27812   3.993   6.934   8.049  0.6577  0.0107 -0.2128
  207MOL0     O27813   3.996   7.046   8.131 -0.2640  0.0806  0.3329
  207MOL0     C27814   4.071   7.061   8.238  0.1869 -0.1403  0.5319
  207MOL0     C27815   4.029   7.151   8.336 -0.7354 -0.1992 -0.8617
  207MOL0     C27816   4.104   7.183   8.443 -1.1068  0.0692 -0.0937
  207MOL0     C27817   4.228   7.126   8.461 -0.3283  0.6869  0.3941
  207MOL0     O27818   4.296   7.185   8.563  0.7075 -0.6600  0.2056
  207MOL0     C27819   4.417   7.112   8.606  0.2294 -0.4802  0.0649
  207MOL0     C27820   4.488   7.183   8.716  0.6845 -0.0595  0.6747
  207MOL0     C27821   4.567   7.302   8.666  0.6194 -0.2001 -0.0575
  207MOL0     C27822   4.498   7.388   8.559 -0.7682 -0.1801 -0.3200
  207MOL0     C27823   4.584   7.516   8.565 -0.5451 -0.1023  0.0331
  207MOL0     C27824   4.520   7.601   8.452  0.4388  0.4446  0.2511
  207MOL0     C27825   4.603   7.718   8.409 -1.1188  0.9166  0.5436
  207MOL0     C27826   4.548   7.798   8.293 -0.3214  0.0430  0.4085
  207MOL0     N27827   4.628   7.924   8.279 -0.6746  0.2325 -0.3502
  207MOL0     C27828   4.614   8.044   8.349  0.7443 -0.2825 -0.3204
  207MOL0     C27829   4.694   8.142   8.291 -0.6821  1.2531  0.2148
  207MOL0     C27830   4.721   8.278   8.330  0.1816 -0.2060  0.2227
  207MOL0     C27831   4.639   8.390   8.243  0.0387 -0.3026 -0.8055
  207MOL0     C27832   4.490   8.391   8.259 -0.5512 -0.5805 -0.1658
  207MOL0     C27833   4.429   8.524   8.229 -0.7545 -0.6103 -0.4649
  207MOL0     O27834   4.284   8.501   8.216  0.3917 -0.7842 -0.5709
  207MOL0     C27835   4.194   8.606   8.241 -0.3483 -0.7162  0.5283
  207MOL0     C27836   4.229   8.738   8.261  0.2213  0.3649 -0.4022
  207MOL0     C27837   4.139   8.835   8.311 -0.1570 -0.7327  0.2792
  207MOL0     C27838   4.194   8.975   8.332  0.9656 -0.5290  0.4133
  207MOL0     C27839   4.003   8.796   8.328 -0.4933  0.0364 -0.3588
  207MOL0     C27840   3.900   8.889   8.379  0.2430 -0.4104 -0.9609
  207MOL0     O27841   3.786   8.904   8.305  0.1279  0.6167 -0.0336
  207MOL0     C27842   3.714   9.020   8.337 -0.0795  0.7955  0.4911
  207MOL0     C27843   3.583   8.999   8.387 -0.5373  0.3019 -0.4542
  207MOL0     C27844   3.501   9.104   8.428 -0.3551 -0.1098  0.5236
  207MOL0     C27845   3.555   9.235   8.426  1.0110 -0.1611 -0.1688
  207MOL0     O27846   3.489   9.345   8.466 -0.3943 -0.5939  0.3699
  207MOL0     C27847   3.344   9.362   8.451 -0.2306 -0.4435  0.3986
  207MOL0     C27848   3.278   9.345   8.587 -0.9460 -0.1926 -0.3241
  207MOL0     C27849   3.126   9.365   8.572 -0.5159 -0.1551 -0.6671
  207MOL0     C27850   3.054   9.347   8.707 -0.2995  0.0318  0.4800
  207MOL0     C27851   2.910   9.398   8.686  0.0081 -0.4527 -0.4687
  207MOL0     C27852   2.803   9.339   8.764 -1.1496  0.2305 -0.0441
  207MOL0     C27853   2.827   9.360   8.916  0.5394 -0.3946  0.0853
  207MOL0     C27854   2.726   9.276   9.003  0.3149 -0.8017 -0.0670
  207MOL0    Cl27855   2.782   9.114   9.048  0.1031  0.3154 -0.3794
  207MOL0     C27856   3.681   9.253   8.375 -0.1094 -0.2088 -0.3610
  207MOL0     C27857   3.764   9.151   8.328  0.3483 -0.3256  0.0281
  207MOL0     O27858   3.931   8.948   8.489 -0.0870 -0.1546  0.5181
  207MOL0     C27859   3.962   8.665   8.294 -0.7391 -0.6235 -0.5255
  207MOL0     C27860   4.053   8.579   8.244 -0.2967  1.3195  0.9649
  207MOL0     N27861   4.768   8.078   8.186  0.6387  0.2875  0.1449
  207MOL0     N27862   4.722   7.951   8.183  1.1322  0.8163  0.4727
  207MOL0     C27863   4.273   7.032   8.369 -0.3878 -0.3100 -0.3601
  207MOL0     C27864   4.196   7.003   8.259 -0.6421 -0.8232 -0.3936
  207MOL0     C27865   3.927   6.960   7.922  0.0710 -0.0709  0.0834
  207MOL0     C27866   3.916   7.100   7.885 -0.2092 -0.2552 -0.0244
  207MOL0     C27867   3.854   7.136   7.770  0.6417  0.4353  0.0141
  207MOL0     C27868   3.786   7.041   7.686 -0.2016 -0.0374  0.4729
  207MOL0     O27869   3.729   7.067   7.566  0.7157  0.6130 -0.7327
  207MOL0     C27870   3.744   7.197   7.502 -0.2903  0.5401  0.0986
  207MOL0     C27871   3.725   7.193   7.355 -0.0703 -0.2877  1.0634
  207MOL0     C27872   3.834   7.105   7.279  0.1749 -0.7812  0.0444
  207MOL0     C27873   3.818   7.102   7.129  0.2023 -0.5208  0.3485
  207MOL0     C27874   3.742   6.988   7.082 -0.9784  0.2643 -0.8859
  207MOL0     C27875   3.664   6.907   7.037  0.0411  0.8019  0.7256
  207MOL0     C27876   3.792   6.907   7.729 -1.0570 -0.1099  0.3631
  207MOL0     C27877   3.863   6.864   7.843 -0.7376  1.0287  0.2055
  207MOL0     H27878   3.943   7.215   8.319  1.4545  4.0270  2.0938
  207MOL0     H27879   4.063   7.269   8.496 -3.2906 -0.8913 -0.1321
  207MOL0     H27880   4.382   7.011   8.633  0.9767 -1.2309 -1.6370
  207MOL0     H27881   4.500   7.097   8.536  0.6227 -1.8290  0.7724
  207MOL0     H27882   4.400   7.206   8.777  0.9309 -3.2062  2.4516
  207MOL0     H27883   4.564   7.124   8.768 -1.4184 -1.1881  2.6607
  207MOL0     H27884   4.597   7.363   8.752  1.2379  1.5276 -1.4160
  207MOL0     H27885   4.661   7.261   8.627 -1.3274 -1.4846 -3.8778
  207MOL0     H27886   4.524   7.331   8.469 -0.8365  2.6524 -2.2681
  207MOL0     H27887   4.395   7.416   8.582 -0.0854  0.3826  2.4567
  207MOL0     H27888   4.572   7.571   8.659 -2.0589 -1.7519  0.8681
  207MOL0     H27889   4.690   7.493   8.551 -0.8088 -1.6685  0.3417
  207MOL0     H27890   4.512   7.531   8.368  0.8626 -0.2236  0.7490
  207MOL0     H27891   4.421   7.632   8.486 -0.2900 -0.3531 -1.0735
  207MOL0     H27892   4.607   7.769   8.505  4.1380 -2.1059  2.3674
  207MOL0     H27893   4.706   7.696   8.380 -1.2289 -0.1726  0.9119
  207MOL0     H27894   4.450   7.843   8.311  0.1072  1.1117  0.1801
  207MOL0     H27895   4.553   7.749   8.196  3.3439  1.4483 -0.2751
  207MOL0     H27896   4.547   8.078   8.428 -2.1489 -0.2638 -2.6167
  207MOL0     H27897   4.691   8.297   8.433  0.1534  1.0049  0.0073
  207MOL0     H27898   4.824   8.311   8.313 -1.1080  2.8621 -2.5273
  207MOL0     H27899   4.660   8.375   8.137 -3.2093  0.5102 -1.6938
  207MOL0     H27900   4.669   8.490   8.276 -1.8429 -0.4610  1.6886
  207MOL0     H27901   4.461   8.372   8.363  0.9390  1.8829  0.7849
  207MOL0     H27902   4.443   8.318   8.192  0.7821 -0.0935 -1.6899
  207MOL0     H27903   4.463   8.564   8.133 -0.0032 -1.7318 -0.6826
  207MOL0     H27904   4.461   8.597   8.304  2.4054  0.4199 -2.6268
  207MOL0     H27905   4.335   8.757   8.246  0.5952  0.3714  1.9043
  207MOL0     H27906   4.297   8.996   8.304  1.0611 -2.1489 -0.5837
  207MOL0     H27907   4.145   9.051   8.270  0.4670  0.9558  2.5560
  207MOL0     H27908   4.191   9.007   8.436 -2.6765 -1.1091  0.6397
  207MOL0     H27909   3.540   8.900   8.396 -0.9073  0.5633  0.8958
  207MOL0     H27910   3.400   9.080   8.459 -0.5220 -3.8920 -2.3176
  207MOL0     H27911   3.325   9.458   8.404  0.3141 -0.5593 -0.0716
  207MOL0     H27912   3.306   9.294   8.373 -2.3576  1.8924 -0.7271
  207MOL0     H27913   3.306   9.254   8.643  0.8123 -0.3551 -1.3743
  207MOL0     H27914   3.321   9.425   8.648 -0.3407  0.2382 -1.2869
  207MOL0     H27915   3.094   9.289   8.500  1.9738 -2.4054  0.4172
  207MOL0     H27916   3.107   9.464   8.531  0.8444 -0.5218 -2.2795
  207MOL0     H27917   3.056   9.242   8.738  0.6941 -0.2843 -0.5824
  207MOL0     H27918   3.111   9.400   8.784 -0.1843  1.6936 -0.6868
  207MOL0     H27919   2.897   9.380   8.579 -0.1279  2.1391 -0.9643
  207MOL0     H27920   2.898   9.506   8.694  0.7199 -0.4508  0.8120
  207MOL0     H27921   2.712   9.393   8.736  1.2362  4.3169 -0.8251
  207MOL0     H27922   2.794   9.236   8.729 -0.3117  0.7091 -1.7990
  207MOL0     H27923   2.818   9.466   8.937  3.2512  0.4783 -2.4535
  207MOL0     H27924   2.929   9.328   8.942  1.1856  0.2464 -1.5404
  207MOL0     H27925   2.632   9.278   8.946  0.6866  3.6949 -0.9334
  207MOL0     H27926   2.725   9.324   9.102 -0.4416  1.1933 -0.9828
  207MOL0     H27927   3.729   9.349   8.389  0.3335 -0.5116  0.2988
  207MOL0     H27928   3.864   9.164   8.288  0.9499 -0.6568  1.3691
  207MOL0     H27929   3.856   8.643   8.294 -0.5660 -1.4987 -0.4082
  207MOL0     H27930   4.006   8.486   8.214 -1.2670  1.7013  1.2493
  207MOL0     H27931   4.374   7.003   8.397 -0.6445  1.8376  3.6163
  207MOL0     H27932   4.230   6.920   8.199  0.4112 -0.8132  0.1531
  207MOL0     H27933   3.950   7.183   7.946 -0.0612 -1.6990  1.9529
  207MOL0     H27934   3.865   7.242   7.748 -1.6377  0.9126  0.9256
  207MOL0     H27935   3.670   7.267   7.543 -0.0681  1.9354 -1.7236
  207MOL0     H27936   3.848   7.231   7.510  0.4644 -1.1849 -1.7277
  207MOL0     H27937   3.732   7.298   7.325 -3.1904  0.0626  1.2384
  207MOL0     H27938   3.626   7.157   7.325 -0.6745  1.4686  0.8219
  207MOL0     H27939   3.835   7.004   7.321 -2.1713 -0.3401  1.3666
  207MOL0     H27940   3.936   7.137   7.304 -0.5743  2.7456 -0.9485
  207MOL0     H27941   3.923   7.093   7.102 -0.0766 -0.8865 -0.6532
  207MOL0     H27942   3.771   7.195   7.093 -0.2350 -2.0049 -3.3549
  207MOL0     H27943   3.604   6.831   6.991  2.5195  0.7540 -2.7886
  207MOL0     H27944   3.734   6.830   7.678 -0.5946 -0.0651 -0.2385
  207MOL0     H27945   3.882   6.760   7.869  3.0909  1.0525 -1.6881
  208MOL0     O27946  10.095   6.480   6.634 -0.1228 -0.1383  0.2451
  208MOL0     C27947  10.040   6.395   6.565  0.6135 -0.4051 -0.2105
  208MOL0     O27948   9.901   6.373   6.566 -0.3502 -0.5696  0.4554
  208MOL0     C27949   9.825   6.463   6.632 -1.0368 -0.3601  0.1837
  208MOL0     C27950   9.789   6.447   6.765 -0.6868  0.3525  0.2140
  208MOL0     C27951   9.709   6.537   6.840 -0.7045 -0.0912 -0.8612
  208MOL0     C27952   9.666   6.652   6.774  0.0565 -0.3035 -0.2955
  208MOL0     O27953   9.589   6.753   6.825  0.5120  0.1795  0.4396
  208MOL0     C27954   9.570   6.747   6.973 -0.0201  0.3680 -0.0771
  208MOL0     C27955   9.438   6.679   7.008 -0.8800 -0.3427  0.4878
  208MOL0     C27956   9.407   6.673   7.153  0.9426  0.9740  1.1842
  208MOL0     C27957   9.281   6.582   7.181  0.0945 -1.0803  0.1710
  208MOL0     C27958   9.275   6.531   7.328  0.0594 -0.1244 -0.3265
  208MOL0     C27959   9.368   6.413   7.376  0.8879 -0.8032 -0.1804
  208MOL0     C27960   9.393   6.414   7.526 -1.1453 -0.1856 -0.1954
  208MOL0     C27961   9.278   6.459   7.614  0.2031 -0.8569  0.2532
  208MOL0     N27962   9.293   6.457   7.764  0.1476  0.6018  0.7694
  208MOL0     C27963   9.369   6.546   7.836  0.5680 -0.4951  0.2819
  208MOL0     C27964   9.383   6.486   7.955 -0.2042 -0.4576  0.1882
  208MOL0     C27965   9.483   6.532   8.059  0.0986 -0.6331 -0.2305
  208MOL0     C27966   9.412   6.560   8.199  0.0892  0.7827  0.1546
  208MOL0     C27967   9.386   6.424   8.266 -0.5894  0.2432  0.1342
  208MOL0     C27968   9.346   6.433   8.406  0.4329  0.2773 -0.6836
  208MOL0     O27969   9.244   6.534   8.425  0.5512  0.1608  0.8748
  208MOL0     C27970   9.209   6.575   8.545  0.8310  0.0102 -0.9495
  208MOL0     C27971   9.145   6.700   8.553  0.3417  0.8965 -0.0633
  208MOL0     C27972   9.117   6.752   8.680  0.1791  0.0234  0.5734
  208MOL0     C27973   9.055   6.887   8.674 -0.2287 -0.2185 -0.2290
  208MOL0     C27974   9.136   6.678   8.796 -0.0424 -0.3311  0.3572
  208MOL0     C27975   9.082   6.729   8.928 -0.7242 -0.0856  0.3571
  208MOL0     O27976   8.957   6.779   8.924 -0.6973 -0.7391 -0.5666
  208MOL0     C27977   8.892   6.817   9.034 -0.6374 -0.5635  0.3456
  208MOL0     C27978   8.881   6.952   9.052 -0.9229  0.0166  0.5386
  208MOL0     C27979   8.792   7.002   9.147  0.7961 -0.7301 -0.1490
  208MOL0     C27980   8.732   6.925   9.242 -0.6352  0.2885 -0.0637
  208MOL0     O27981   8.643   6.976   9.330  0.0165  0.0959  0.4515
  208MOL0     C27982   8.534   7.061   9.289  0.1909  0.2152  0.3623
  208MOL0     C27983   8.528   7.190   9.379  0.4247 -0.2649  0.2089
  208MOL0     C27984   8.399   7.268   9.359  0.7335  0.8479 -0.1591
  208MOL0     C27985   8.390   7.384   9.458 -0.0390  0.7709 -0.0956
  208MOL0     C27986   8.237   7.408   9.490  0.2047 -0.4520 -0.3818
  208MOL0     C27987   8.221   7.559   9.535  0.7559 -1.0910 -0.1863
  208MOL0     C27988   8.080   7.622   9.572 -1.0684  0.2033 -0.4263
  208MOL0     C27989   8.089   7.765   9.609 -1.1163  0.7192  0.4442
  208MOL0    Cl27990   8.083   7.859   9.464 -0.3145  0.4380  0.0121
  208MOL0     C27991   8.754   6.791   9.230  0.6104  0.7553 -0.8462
  208MOL0     C27992   8.833   6.733   9.129  0.1191 -0.2050  0.3387
  208MOL0     O27993   9.153   6.711   9.029 -0.8582 -0.2353  0.1670
  208MOL0     C27994   9.214   6.568   8.785  0.8994  0.0142  0.1187
  208MOL0     C27995   9.254   6.518   8.671  0.8483  0.0118  0.4049
  208MOL0     N27996   9.304   6.366   7.957  0.3366  0.0198  0.5975
  208MOL0     N27997   9.251   6.360   7.840  0.0788  0.2870  0.5771
  208MOL0     C27998   9.699   6.674   6.640  0.2907  0.7366 -0.9301
  208MOL0     C27999   9.771   6.578   6.569 -0.1667  0.5946  1.0091
  208MOL0     C28000  10.117   6.318   6.468  0.5001  0.8788 -0.8855
  208MOL0     C28001  10.257   6.338   6.447 -0.2153  0.2183  0.8955
  208MOL0     C28002  10.333   6.246   6.375  0.5312  0.1258  0.1012
  208MOL0     C28003  10.266   6.139   6.307  0.4661  0.2708 -0.6195
  208MOL0     O28004  10.327   6.038   6.226  0.4911 -0.9758 -0.1108
  208MOL0     C28005  10.449   6.069   6.168 -0.5662  0.3274 -0.0029
  208MOL0     C28006  10.480   5.960   6.071  0.5811  0.6607  0.5480
  208MOL0     C28007  10.374   5.968   5.960 -0.9141  0.1914  0.4526
  208MOL0     C28008  10.399   5.871   5.846  0.4683  0.0971 -0.9452
  208MOL0     C28009  10.522   5.916   5.765  0.4165 -0.7729 -0.0845
  208MOL0     C28010  10.603   5.950   5.682 -0.5573 -0.4410 -0.3407
  208MOL0     C28011  10.125   6.116   6.338 -0.3471 -0.6458 -0.6067
  208MOL0     C28012  10.054   6.212   6.401 -0.0007 -0.0296 -0.1071
  208MOL0     H28013   9.833   6.362   6.816  0.4106 -0.3113 -1.7545
  208MOL0     H28014   9.680   6.502   6.939 -1.3302 -0.0205 -1.0124
  208MOL0     H28015   9.651   6.696   7.027  1.9077  3.1512 -0.0940
  208MOL0     H28016   9.571   6.849   7.012 -0.5202  0.0789  0.7086
  208MOL0     H28017   9.360   6.737   6.957 -0.4045 -0.7305 -0.7084
  208MOL0     H28018   9.437   6.582   6.957 -2.1485 -0.1810  0.1590
  208MOL0     H28019   9.484   6.628   7.216 -1.7173 -1.5648  2.9241
  208MOL0     H28020   9.395   6.778   7.182  2.8610  1.3803  0.6482
  208MOL0     H28021   9.187   6.636   7.167  0.0392 -1.3181 -0.4148
  208MOL0     H28022   9.287   6.499   7.110  0.7217 -2.0117  1.2650
  208MOL0     H28023   9.288   6.620   7.389 -0.0472 -0.8020  0.7127
  208MOL0     H28024   9.174   6.491   7.341  0.4088 -1.5803 -1.6716
  208MOL0     H28025   9.316   6.322   7.346 -0.5172 -0.4018  0.8875
  208MOL0     H28026   9.462   6.417   7.321 -0.4637 -2.3535 -2.7716
  208MOL0     H28027   9.417   6.312   7.557 -0.5927 -0.1729 -0.5629
  208MOL0     H28028   9.482   6.474   7.549  0.4563 -1.1727 -3.2671
  208MOL0     H28029   9.187   6.404   7.591 -1.1464  1.9243 -1.6106
  208MOL0     H28030   9.243   6.561   7.596 -1.2734 -1.0716  1.6057
  208MOL0     H28031   9.400   6.644   7.802 -0.3562 -0.1596  0.4003
  208MOL0     H28032   9.562   6.457   8.068 -0.3114 -1.2896 -1.8045
  208MOL0     H28033   9.521   6.629   8.024  2.7155  0.0435  3.7548
  208MOL0     H28034   9.316   6.610   8.180  0.4782  0.9025 -1.7024
  208MOL0     H28035   9.467   6.634   8.258 -0.0863  2.9214 -2.1908
  208MOL0     H28036   9.480   6.367   8.273  0.0407  1.3174  0.8123
  208MOL0     H28037   9.317   6.355   8.217  0.3575 -0.5805 -0.0943
  208MOL0     H28038   9.432   6.467   8.464  0.6475 -1.2791 -0.0274
  208MOL0     H28039   9.314   6.333   8.437  2.1556 -0.7242 -1.8942
  208MOL0     H28040   9.128   6.747   8.457 -0.4073  4.2709  1.5702
  208MOL0     H28041   8.949   6.868   8.695  0.1387 -2.4754 -0.2268
  208MOL0     H28042   9.104   6.955   8.744 -0.1741 -0.0904 -0.3886
  208MOL0     H28043   9.068   6.943   8.581  2.6215  0.4824  0.4899
  208MOL0     H28044   8.927   7.029   8.991 -0.3940 -1.3352 -0.8393
  208MOL0     H28045   8.769   7.108   9.159 -0.5093 -1.0362  0.1893
  208MOL0     H28046   8.553   7.094   9.187  3.5054  2.1571  1.4645
  208MOL0     H28047   8.442   7.003   9.301 -0.1688  0.6742 -0.1258
  208MOL0     H28048   8.539   7.163   9.484  0.4824  0.0967  0.2986
  208MOL0     H28049   8.604   7.262   9.346 -2.9422  4.7436  2.2218
  208MOL0     H28050   8.318   7.194   9.368  1.2650  0.1709 -0.8190
  208MOL0     H28051   8.391   7.308   9.258 -2.9174  0.7696 -0.0321
  208MOL0     H28052   8.429   7.349   9.554  0.8961 -0.6424 -0.9384
  208MOL0     H28053   8.451   7.465   9.417  4.0203 -2.8437 -2.0018
  208MOL0     H28054   8.186   7.334   9.552  3.5647 -2.2290  0.4892
  208MOL0     H28055   8.183   7.405   9.395 -0.9675 -2.1856  0.2919
  208MOL0     H28056   8.286   7.561   9.623 -1.6447 -1.3749  1.7128
  208MOL0     H28057   8.259   7.629   9.462 -0.2209 -0.9506 -0.5798
  208MOL0     H28058   8.045   7.557   9.653  5.2645 -0.4099  2.4803
  208MOL0     H28059   8.024   7.614   9.479  2.2946 -2.0555 -2.4509
  208MOL0     H28060   8.185   7.773   9.661  0.1807 -2.2735 -1.2480
  208MOL0     H28061   8.004   7.799   9.669 -1.7729 -3.6738  2.3552
  208MOL0     H28062   8.695   6.733   9.300  0.8403  3.0100  1.3489
  208MOL0     H28063   8.846   6.625   9.131  0.8725 -0.1235  1.8610
  208MOL0     H28064   9.233   6.520   8.881 -0.0299 -1.9229 -0.6048
  208MOL0     H28065   9.319   6.432   8.680  1.2773  0.4519  1.7781
  208MOL0     H28066   9.652   6.760   6.592  0.1093  0.2495 -1.6489
  208MOL0     H28067   9.782   6.577   6.462 -0.4656 -2.4851  0.9073
  208MOL0     H28068  10.303   6.426   6.491 -0.0065 -0.7099  2.6058
  208MOL0     H28069  10.440   6.263   6.360  0.1462  1.6180 -1.2416
  208MOL0     H28070  10.440   6.160   6.107  0.0744  1.7498  1.9254
  208MOL0     H28071  10.524   6.080   6.247  4.4066 -1.1522 -4.0157
  208MOL0     H28072  10.458   5.870   6.128 -0.2548  1.0088  0.7775
  208MOL0     H28073  10.587   5.962   6.046  1.0631  1.2317  2.5222
  208MOL0     H28074  10.371   6.073   5.930  1.1184 -0.3426 -1.9341
  208MOL0     H28075  10.279   5.940   6.006 -2.2635  1.0374 -1.7025
  208MOL0     H28076  10.315   5.869   5.775  0.8482 -2.2774 -1.4023
  208MOL0     H28077  10.386   5.773   5.892  0.0945  1.5410  2.2638
  208MOL0     H28078  10.669   5.977   5.602  0.6536  0.1023  0.8020
  208MOL0     H28079  10.087   6.023   6.298 -4.5846  1.1241 -1.1701
  208MOL0     H28080   9.947   6.201   6.411  0.1438 -1.0827  0.4923
  209MOL0     O28081   2.614   2.151   8.576  0.2076  0.4632 -0.4157
  209MOL0     C28082   2.596   2.224   8.684  0.4071  1.2051  0.2423
  209MOL0     O28083   2.478   2.287   8.714 -0.3506 -0.3318  0.3933
  209MOL0     C28084   2.380   2.285   8.628  0.0736 -0.5964  0.0368
  209MOL0     C28085   2.265   2.219   8.658 -0.3046  0.1935 -0.3883
  209MOL0     C28086   2.152   2.229   8.579 -0.7931 -0.1401  0.1512
  209MOL0     C28087   2.148   2.297   8.459  0.6622 -0.1278 -0.1111
  209MOL0     O28088   2.034   2.300   8.383 -0.0744  0.7523  0.3504
  209MOL0     C28089   2.040   2.323   8.242  0.8360  0.1527 -0.5118
  209MOL0     C28090   2.094   2.207   8.160 -0.0047 -0.3013 -0.0231
  209MOL0     C28091   2.014   2.081   8.204 -0.1523 -0.5860  1.0407
  209MOL0     C28092   2.043   1.942   8.136 -0.1606  0.0234 -1.1839
  209MOL0     C28093   1.928   1.853   8.177  0.3942  1.5949  0.5367
  209MOL0     C28094   1.944   1.718   8.108  0.6054 -0.1151  0.1099
  209MOL0     C28095   1.841   1.620   8.163  1.0993  0.2156  0.5115
  209MOL0     C28096   1.873   1.477   8.112 -0.0161 -0.0386  0.4063
  209MOL0     N28097   1.844   1.458   7.968 -0.5048  0.2235  0.5081
  209MOL0     C28098   1.730   1.483   7.899  0.3998  0.5262 -0.4796
  209MOL0     C28099   1.762   1.484   7.771 -0.2753 -0.5264  0.0458
  209MOL0     C28100   1.664   1.506   7.662  0.4939  1.2568  1.0640
  209MOL0     C28101   1.712   1.460   7.519  0.6938 -0.4371 -0.2531
  209MOL0     C28102   1.603   1.411   7.431  0.5859  0.3849 -0.3925
  209MOL0     C28103   1.645   1.382   7.288 -0.5851  0.5471 -0.1651
  209MOL0     O28104   1.548   1.294   7.238  0.4505  0.6592 -0.3142
  209MOL0     C28105   1.541   1.259   7.105  0.2639 -0.3478  0.0950
  209MOL0     C28106   1.641   1.277   7.011 -0.0464  0.1811  0.2398
  209MOL0     C28107   1.620   1.280   6.873  0.2119 -0.8766 -0.9168
  209MOL0     C28108   1.748   1.326   6.792 -0.3225 -0.2474  0.3758
  209MOL0     C28109   1.493   1.255   6.824 -0.9506  0.1091 -0.7653
  209MOL0     C28110   1.449   1.272   6.679 -1.1045  0.3011  0.1050
  209MOL0     O28111   1.322   1.246   6.659 -0.0056 -0.1621 -0.1507
  209MOL0     C28112   1.250   1.262   6.541 -0.0877  0.3884 -0.4938
  209MOL0     C28113   1.189   1.379   6.502  0.1061  0.1926 -0.1136
  209MOL0     C28114   1.100   1.377   6.385  0.2082 -0.4921  0.1797
  209MOL0     C28115   1.081   1.256   6.309 -0.9477 -0.0139 -0.1888
  209MOL0     O28116   1.008   1.248   6.199 -0.6133  0.7466  0.3495
  209MOL0     C28117   0.901   1.338   6.174  0.2160  0.2793 -0.0738
  209MOL0     C28118   0.817   1.292   6.063 -0.0409  0.2178  0.3030
  209MOL0     C28119   0.689   1.381   6.031  0.5039  0.1806 -0.2176
  209MOL0     C28120   0.599   1.308   5.922 -0.1668  0.4424 -0.3088
  209MOL0     C28121   0.471   1.389   5.887 -0.0461  1.0650 -0.2178
  209MOL0     C28122   0.478   1.451   5.745 -0.2535 -0.2244 -0.4113
  209MOL0     C28123   0.335   1.506   5.710  0.2626  0.0354 -0.0160
  209MOL0     C28124   0.321   1.511   5.554 -0.0968 -0.2728 -0.8592
  209MOL0    Cl28125   0.154   1.525   5.495 -0.2288 -0.4998 -0.0297
  209MOL0     C28126   1.169   1.151   6.348  0.4963 -0.2731  0.5460
  209MOL0     C28127   1.249   1.144   6.463  0.9825  0.7532 -0.1984
  209MOL0     O28128   1.532   1.313   6.593  0.1535 -0.6217  0.9140
  209MOL0     C28129   1.392   1.231   6.921 -0.4687  0.2302  0.1352
  209MOL0     C28130   1.413   1.246   7.057 -0.3450  1.3464 -0.5059
  209MOL0     N28131   1.898   1.474   7.764  0.1017 -0.0904  0.0549
  209MOL0     N28132   1.946   1.451   7.879  0.4249  0.1852 -0.3765
  209MOL0     C28133   2.268   2.359   8.415  0.0413 -0.4231 -0.3359
  209MOL0     C28134   2.380   2.362   8.507  0.6612 -0.1564 -0.0851
  209MOL0     C28135   2.695   2.211   8.794  0.0299 -0.8636  0.0847
  209MOL0     C28136   2.695   2.094   8.876  0.0438 -0.3585  0.4725
  209MOL0     C28137   2.786   2.090   8.985 -0.6480 -0.7890 -0.3720
  209MOL0     C28138   2.866   2.202   9.020 -0.0119  0.2253 -0.0845
  209MOL0     O28139   2.922   2.205   9.145 -0.3545  0.0314  0.1811
  209MOL0     C28140   2.837   2.265   9.246  0.4867  0.0796 -0.2139
  209MOL0     C28141   2.907   2.324   9.362 -0.8613  0.0474 -0.3964
  209MOL0     C28142   2.980   2.216   9.453  0.2396 -0.1070  0.0605
  209MOL0     C28143   3.046   2.291   9.576  0.4921  0.0830 -0.6521
  209MOL0     C28144   3.135   2.201   9.647 -0.7667 -0.1644  0.2741
  209MOL0     C28145   3.216   2.134   9.708  0.4671 -0.2249  0.2730
  209MOL0     C28146   2.857   2.315   8.942  0.2377 -0.8151  0.6712
  209MOL0     C28147   2.775   2.320   8.828  0.6336 -0.6080 -0.1695
  209MOL0     H28148   2.263   2.172   8.756  0.5873 -1.2088 -0.9965
  209MOL0     H28149   2.059   2.188   8.616  0.2642 -0.1330  2.9983
  209MOL0     H28150   1.936   2.351   8.220 -0.4819 -0.9631  3.4375
  209MOL0     H28151   2.095   2.411   8.208  0.2256 -0.6170 -3.8513
  209MOL0     H28152   2.074   2.237   8.056 -1.3708 -1.1621 -0.0389
  209MOL0     H28153   2.201   2.186   8.165  1.1874  3.1677 -4.5527
  209MOL0     H28154   2.028   2.073   8.312 -2.5311  0.0757  1.4597
  209MOL0     H28155   1.908   2.093   8.179  0.0827 -1.0238 -0.2623
  209MOL0     H28156   2.048   1.944   8.027  2.9550  1.8416 -1.1349
  209MOL0     H28157   2.139   1.910   8.179 -0.7223  0.5695  0.5690
  209MOL0     H28158   1.927   1.841   8.286  1.8165 -0.2203  0.3974
  209MOL0     H28159   1.837   1.901   8.140 -1.6699 -3.6900 -2.2734
  209MOL0     H28160   1.935   1.734   8.000  0.7555  0.1115  0.1305
  209MOL0     H28161   2.048   1.686   8.124  0.8961  1.5245  1.9461
  209MOL0     H28162   1.846   1.625   8.272  0.7932  0.1205  0.5329
  209MOL0     H28163   1.742   1.649   8.126 -0.1395 -2.8924  1.0658
  209MOL0     H28164   1.825   1.403   8.178  0.2238  0.1154  0.7536
  209MOL0     H28165   1.980   1.460   8.125 -0.2091 -1.8972 -0.1395
  209MOL0     H28166   1.629   1.493   7.937 -0.8357  2.0210 -3.7723
  209MOL0     H28167   1.578   1.443   7.684  2.4907 -1.8696  0.5668
  209MOL0     H28168   1.640   1.613   7.654 -1.8510  0.7551  0.7817
  209MOL0     H28169   1.788   1.382   7.528 -0.2080 -1.8159 -3.2986
  209MOL0     H28170   1.748   1.551   7.469  0.0877  1.1893  2.0910
  209MOL0     H28171   1.526   1.486   7.451  1.0199  0.2476  2.2809
  209MOL0     H28172   1.558   1.320   7.471  2.5846  0.0186  1.2206
  209MOL0     H28173   1.742   1.333   7.281 -1.4581 -1.0910 -1.5688
  209MOL0     H28174   1.661   1.466   7.219  1.8506 -0.9040 -1.4919
  209MOL0     H28175   1.740   1.299   7.050 -0.7712  0.6839  1.8618
  209MOL0     H28176   1.726   1.430   6.764  3.4845  0.3015 -1.1753
  209MOL0     H28177   1.844   1.320   6.844  1.2415 -1.0747 -2.4013
  209MOL0     H28178   1.758   1.263   6.704  2.3186 -0.2806  0.6421
  209MOL0     H28179   1.187   1.468   6.563 -0.1494  0.7155 -0.8621
  209MOL0     H28180   1.049   1.467   6.353  1.1518 -1.2374 -3.9701
  209MOL0     H28181   0.837   1.352   6.262 -0.8801  1.9811 -1.0789
  209MOL0     H28182   0.937   1.439   6.153  0.5599  0.4851  1.3929
  209MOL0     H28183   0.872   1.287   5.968 -2.7518 -0.0455 -1.3773
  209MOL0     H28184   0.788   1.189   6.083  0.0513  0.1444  0.0663
  209MOL0     H28185   0.726   1.478   5.996  3.5817 -1.1631 -1.0378
  209MOL0     H28186   0.628   1.399   6.120 -0.2442 -0.6039 -0.5576
  209MOL0     H28187   0.655   1.305   5.829 -0.6290 -3.0112 -0.6111
  209MOL0     H28188   0.576   1.202   5.941 -2.9940  1.1589  0.7471
  209MOL0     H28189   0.458   1.465   5.965  3.2306  0.3222  1.2257
  209MOL0     H28190   0.381   1.327   5.894  0.3569  0.7091  3.6378
  209MOL0     H28191   0.554   1.531   5.740 -0.3621 -0.0209  0.9024
  209MOL0     H28192   0.510   1.378   5.670 -1.0942  0.4300 -1.4326
  209MOL0     H28193   0.310   1.598   5.764  1.2930  0.6465 -0.5602
  209MOL0     H28194   0.263   1.429   5.741  0.4747 -0.4521 -0.7089
  209MOL0     H28195   0.364   1.424   5.503  0.8947  0.9928 -2.2819
  209MOL0     H28196   0.377   1.600   5.521 -2.4616  2.2813  1.4890
  209MOL0     H28197   1.159   1.059   6.291  0.5592 -0.1459  0.3285
  209MOL0     H28198   1.300   1.054   6.494 -2.2843 -0.3786  2.3992
  209MOL0     H28199   1.291   1.217   6.885 -1.4714 -1.2707  3.2310
  209MOL0     H28200   1.334   1.243   7.132  0.0343 -0.2411 -0.1357
  209MOL0     H28201   2.279   2.421   8.327  0.2113  1.8607  1.2306
  209MOL0     H28202   2.472   2.418   8.493  0.3988 -0.2073 -2.2067
  209MOL0     H28203   2.649   1.999   8.850  1.9493 -0.8868 -1.2082
  209MOL0     H28204   2.801   1.994   9.034  1.7309  0.7056  2.1387
  209MOL0     H28205   2.759   2.334   9.211 -1.9495 -2.4656 -0.1119
  209MOL0     H28206   2.788   2.177   9.287 -1.1356 -0.4188 -3.0160
  209MOL0     H28207   2.852   2.392   9.427 -0.4732 -1.2249  1.3729
  209MOL0     H28208   2.979   2.396   9.322 -0.1478  1.1012  2.4925
  209MOL0     H28209   3.053   2.179   9.380 -1.6710 -0.8228 -1.5562
  209MOL0     H28210   2.916   2.134   9.486  1.4366 -1.4315 -0.7901
  209MOL0     H28211   2.968   2.333   9.640 -0.8048 -2.3876 -0.4701
  209MOL0     H28212   3.110   2.370   9.536 -3.0865  1.7522 -3.8305
  209MOL0     H28213   3.268   2.064   9.772  0.7142 -1.4970 -1.2624
  209MOL0     H28214   2.895   2.410   8.980  0.4065 -0.2755 -0.7613
  209MOL0     H28215   2.766   2.412   8.772 -2.6605 -0.0802  0.9917
  210MOL0     O28216   2.023   3.342   3.129  0.3755 -0.7403  0.9127
  210MOL0     C28217   1.949   3.255   3.164  0.1781  0.2847 -1.1412
  210MOL0     O28218   1.878   3.176   3.086  0.2589  0.5715  0.1636
  210MOL0     C28219   1.889   3.208   2.950 -0.1630 -0.0889  0.2940
  210MOL0     C28220   1.842   3.326   2.901  0.4660 -0.2310  0.7193
  210MOL0     C28221   1.843   3.346   2.761 -0.0040  0.1545 -0.4045
  210MOL0     C28222   1.894   3.257   2.673 -0.6474 -1.5236  1.0288
  210MOL0     O28223   1.913   3.288   2.541  1.0486 -0.6488 -0.5869
  210MOL0     C28224   1.967   3.418   2.523 -0.6892 -0.3429 -0.0178
  210MOL0     C28225   2.012   3.426   2.375  0.3668 -0.0728  0.1516
  210MOL0     C28226   1.909   3.393   2.265  0.1961 -0.4652  0.6115
  210MOL0     C28227   1.795   3.495   2.255 -0.1569 -0.2239 -0.3805
  210MOL0     C28228   1.700   3.476   2.138 -0.3201  0.6917 -0.0006
  210MOL0     C28229   1.579   3.571   2.155 -0.0654 -0.0547  0.2254
  210MOL0     C28230   1.456   3.522   2.093 -0.1123  0.1704  0.0020
  210MOL0     C28231   1.373   3.644   2.048 -0.1648  0.2320 -0.9999
  210MOL0     N28232   1.430   3.724   1.935 -0.3502 -0.0443  0.0111
  210MOL0     C28233   1.511   3.673   1.840 -0.1492 -0.9221 -0.2052
  210MOL0     C28234   1.559   3.794   1.777  0.8468  0.3497 -0.6441
  210MOL0     C28235   1.653   3.786   1.662  0.3344 -0.0677  0.0283
  210MOL0     C28236   1.787   3.846   1.688  1.0989  0.2003 -0.0701
  210MOL0     C28237   1.877   3.825   1.561 -0.6565  0.5564 -0.0437
  210MOL0     C28238   2.031   3.824   1.593 -0.1418  1.0894  0.1318
  210MOL0     O28239   2.068   3.957   1.641  0.2077  0.2173  0.1851
  210MOL0     C28240   2.200   3.987   1.669 -0.6044  0.9291  0.3082
  210MOL0     C28241   2.280   4.057   1.573 -0.2653  0.1182  0.2718
  210MOL0     C28242   2.406   4.101   1.590  0.1958 -0.0569 -0.3416
  210MOL0     C28243   2.459   4.184   1.478 -0.3698  0.3002 -0.2652
  210MOL0     C28244   2.478   4.044   1.705 -0.0216 -0.8437  0.6264
  210MOL0     C28245   2.631   4.065   1.726 -0.2569 -0.1762 -0.1162
  210MOL0     O28246   2.717   4.135   1.637  0.0810  0.2697  0.3694
  210MOL0     C28247   2.852   4.132   1.668  0.2918 -0.5365 -0.7443
  210MOL0     C28248   2.907   4.229   1.756 -0.2142  0.3656  0.2292
  210MOL0     C28249   3.043   4.213   1.796  0.0317  0.2355 -0.4709
  210MOL0     C28250   3.122   4.099   1.757  0.2345 -0.0824 -0.3463
  210MOL0     O28251   3.247   4.089   1.802  0.1708  0.1973  0.1836
  210MOL0     C28252   3.298   3.954   1.842  0.0892 -0.6332 -0.0303
  210MOL0     C28253   3.445   3.976   1.851 -0.6957 -0.5469 -0.4119
  210MOL0     C28254   3.529   3.855   1.884 -0.0777  0.4356  0.0787
  210MOL0     C28255   3.480   3.783   2.004 -0.1520  0.9044 -1.2934
  210MOL0     C28256   3.561   3.643   2.032 -0.8406 -0.3420 -0.2535
  210MOL0     C28257   3.706   3.649   2.088 -0.2394 -0.3036  0.5351
  210MOL0     C28258   3.758   3.518   2.144  0.7071 -0.1980 -0.2566
  210MOL0     C28259   3.776   3.417   2.038  0.0612 -0.3425  0.1059
  210MOL0    Cl28260   3.891   3.476   1.914  0.1406  0.3209 -0.5878
  210MOL0     C28261   3.063   4.009   1.667 -0.2519 -0.7460 -0.2423
  210MOL0     C28262   2.930   4.029   1.626 -0.1451  0.4868 -0.0396
  210MOL0     O28263   2.673   4.020   1.831 -0.3868  0.3449  0.5483
  210MOL0     C28264   2.403   3.966   1.797 -0.9294  0.2262 -0.7190
  210MOL0     C28265   2.272   3.942   1.784  0.6740 -0.7495 -0.0549
  210MOL0     N28266   1.492   3.900   1.822 -0.3208 -0.0887 -0.1654
  210MOL0     N28267   1.411   3.863   1.920 -1.0466  0.4352  0.9639
  210MOL0     C28268   1.952   3.147   2.728 -0.3977  1.0955  0.8256
  210MOL0     C28269   1.939   3.110   2.860  0.9348  0.2266  0.2280
  210MOL0     C28270   1.922   3.238   3.311 -0.2991  0.2694  0.8586
  210MOL0     C28271   2.030   3.250   3.402  0.2781  0.2470 -0.4611
  210MOL0     C28272   2.006   3.240   3.538 -0.8719  0.8662  0.4477
  210MOL0     C28273   1.878   3.224   3.598  0.8791 -0.6936  0.3419
  210MOL0     O28274   1.856   3.221   3.733 -0.6207  0.4118  0.4597
  210MOL0     C28275   1.726   3.221   3.783  0.0078 -0.0513  0.0550
  210MOL0     C28276   1.728   3.217   3.934  0.3766 -0.2341 -0.1189
  210MOL0     C28277   1.794   3.086   3.974 -0.5335  0.2349 -0.5129
  210MOL0     C28278   1.760   3.064   4.123  0.5163 -0.0050  1.0038
  210MOL0     C28279   1.815   3.180   4.195 -0.0914  0.0972 -0.2736
  210MOL0     C28280   1.855   3.275   4.258  0.3274  0.0199 -0.9535
  210MOL0     C28281   1.775   3.212   3.503 -0.4432  0.5945 -0.0538
  210MOL0     C28282   1.796   3.218   3.364  0.1719  0.1135  0.1134
  210MOL0     H28283   1.788   3.400   2.960 -2.8786 -2.1383  0.3005
  210MOL0     H28284   1.788   3.429   2.716 -0.3339 -1.2870 -2.8790
  210MOL0     H28285   1.897   3.500   2.544 -1.6095 -0.7460 -1.3606
  210MOL0     H28286   2.060   3.412   2.581 -1.5039 -0.5354  1.3163
  210MOL0     H28287   2.049   3.528   2.356  0.9590 -0.6686 -2.2220
  210MOL0     H28288   2.103   3.365   2.364  0.5705  0.3292 -0.4584
  210MOL0     H28289   1.958   3.401   2.168  0.0609  0.9538  0.6401
  210MOL0     H28290   1.864   3.293   2.271 -0.4354 -0.3131 -1.0433
  210MOL0     H28291   1.736   3.468   2.343 -2.8744 -2.1953 -2.5928
  210MOL0     H28292   1.836   3.596   2.255  2.5664 -1.2229 -1.6696
  210MOL0     H28293   1.772   3.485   2.056  2.7013 -4.3840  1.6682
  210MOL0     H28294   1.659   3.375   2.126  0.3148  0.4203  0.0996
  210MOL0     H28295   1.554   3.584   2.261  0.4639 -3.5171  0.8925
  210MOL0     H28296   1.614   3.664   2.108  1.7763 -2.3651 -3.4818
  210MOL0     H28297   1.488   3.460   2.008 -1.8246  0.0310 -0.5831
  210MOL0     H28298   1.403   3.455   2.161  1.9177 -2.3069 -0.6414
  210MOL0     H28299   1.352   3.707   2.135  0.3261  0.2671 -0.9061
  210MOL0     H28300   1.272   3.607   2.031 -0.6124  1.0690 -0.2877
  210MOL0     H28301   1.542   3.572   1.815  1.2963 -1.6021  3.5916
  210MOL0     H28302   1.668   3.687   1.619 -1.7356 -0.4742  0.1402
  210MOL0     H28303   1.591   3.842   1.590 -1.2960  0.0270  1.4439
  210MOL0     H28304   1.835   3.794   1.772  1.0526  0.2373 -0.0210
  210MOL0     H28305   1.784   3.954   1.705  0.6900  0.3631 -1.1083
  210MOL0     H28306   1.866   3.914   1.498  0.3029  1.3441  0.8598
  210MOL0     H28307   1.838   3.741   1.503  1.0937  0.0673 -0.5703
  210MOL0     H28308   2.092   3.800   1.506 -1.2839 -0.0350 -0.3898
  210MOL0     H28309   2.061   3.754   1.672  0.7688 -0.6148 -1.6416
  210MOL0     H28310   2.231   4.083   1.479  0.3881 -3.3499 -1.1737
  210MOL0     H28311   2.546   4.243   1.506 -0.0959 -0.8382  1.4581
  210MOL0     H28312   2.477   4.120   1.391  0.7936  1.5290 -0.9659
  210MOL0     H28313   2.376   4.250   1.454  0.0056  1.0167  0.3527
  210MOL0     H28314   2.849   4.316   1.786 -3.5859 -1.0412 -1.6585
  210MOL0     H28315   3.084   4.278   1.873 -2.3313  1.2856  0.0092
  210MOL0     H28316   3.240   3.914   1.926 -2.0513 -1.3916 -1.7522
  210MOL0     H28317   3.291   3.876   1.766  2.7080  0.0283 -1.0574
  210MOL0     H28318   3.468   4.015   1.752  0.7866 -1.8928 -0.6502
  210MOL0     H28319   3.470   4.047   1.930 -0.0993  1.4390 -2.3058
  210MOL0     H28320   3.635   3.881   1.891 -0.7204  2.9166  1.9088
  210MOL0     H28321   3.520   3.786   1.800  0.8839 -0.5954  0.7837
  210MOL0     H28322   3.478   3.845   2.095 -1.6028 -2.3624  1.0938
  210MOL0     H28323   3.382   3.746   1.975 -1.2024 -1.0765  3.7289
  210MOL0     H28324   3.577   3.582   1.943  1.0683 -0.7029  0.2887
  210MOL0     H28325   3.508   3.574   2.098  3.6471 -4.2687 -0.1919
  210MOL0     H28326   3.773   3.689   2.013 -1.7132  1.2467 -0.0153
  210MOL0     H28327   3.699   3.724   2.167  1.6090  0.1077  0.3351
  210MOL0     H28328   3.689   3.471   2.215  0.5251 -0.8420 -0.8451
  210MOL0     H28329   3.850   3.542   2.198  1.2268 -0.2844 -1.0911
  210MOL0     H28330   3.676   3.388   2.005 -0.4669  0.0580  1.3232
  210MOL0     H28331   3.829   3.333   2.083 -0.4223 -2.4387 -2.9237
  210MOL0     H28332   3.115   3.922   1.630 -3.0359 -2.5456 -0.2484
  210MOL0     H28333   2.900   3.952   1.555 -0.2077  1.3560 -0.9845
  210MOL0     H28334   2.456   3.920   1.879 -0.1183 -1.9627 -2.3594
  210MOL0     H28335   2.223   3.882   1.859  0.8503  1.0014  1.5094
  210MOL0     H28336   1.999   3.084   2.654 -0.5060  3.1407 -1.0781
  210MOL0     H28337   1.975   3.015   2.896 -1.8539 -1.2098 -0.4485
  210MOL0     H28338   2.133   3.265   3.374  0.3799 -0.4142 -0.4642
  210MOL0     H28339   2.089   3.232   3.607 -2.4773 -0.9441  2.3162
  210MOL0     H28340   1.683   3.317   3.753  0.9638 -0.0736 -1.5204
  210MOL0     H28341   1.663   3.143   3.738  0.4864  1.5907 -3.8412
  210MOL0     H28342   1.626   3.232   3.971  0.3382  1.5268 -0.8490
  210MOL0     H28343   1.791   3.299   3.969 -0.9047  0.5778  0.3620
  210MOL0     H28344   1.903   3.088   3.972 -0.3043 -2.2001  2.4935
  210MOL0     H28345   1.759   3.000   3.915 -0.5037  2.9117 -4.8262
  210MOL0     H28346   1.803   2.972   4.163  2.1414 -2.0029 -4.4249
  210MOL0     H28347   1.653   3.057   4.145  0.1748  0.1615 -0.5094
  210MOL0     H28348   1.881   3.352   4.327  0.5309 -0.5683 -0.3692
  210MOL0     H28349   1.668   3.198   3.513 -0.1606 -2.8371 -0.7380
  210MOL0     H28350   1.716   3.204   3.293  0.6462  1.5447 -0.7411
  211MOL0     O28351   5.574   5.289   6.057 -0.1761 -0.2423 -0.3972
  211MOL0     C28352   5.464   5.300   6.110  0.0758 -0.7760 -0.0703
  211MOL0     O28353   5.381   5.403   6.101 -0.2602 -0.6648 -0.7889
  211MOL0     C28354   5.414   5.531   6.056 -0.2164  0.9524  0.1031
  211MOL0     C28355   5.312   5.598   5.982 -0.4534  0.8223  0.1432
  211MOL0     C28356   5.339   5.728   5.933 -0.3363  0.7110 -0.3499
  211MOL0     C28357   5.465   5.788   5.938  0.1305 -0.3368 -0.8772
  211MOL0     O28358   5.498   5.904   5.876 -0.6251 -0.5313 -0.0376
  211MOL0     C28359   5.426   5.940   5.757  0.1183  0.8599 -0.2376
  211MOL0     C28360   5.528   6.025   5.679 -1.1427 -0.6466 -0.0744
  211MOL0     C28361   5.454   6.092   5.570 -1.0190 -0.2659  0.7946
  211MOL0     C28362   5.546   6.195   5.500  0.1325  0.0939  0.2378
  211MOL0     C28363   5.466   6.297   5.418 -0.2108  0.2658  0.5458
  211MOL0     C28364   5.564   6.421   5.382 -0.1643  0.4967 -0.3661
  211MOL0     C28365   5.687   6.377   5.289 -0.2208 -0.4465 -0.3903
  211MOL0     C28366   5.754   6.505   5.237 -0.7664 -0.1640 -0.3503
  211MOL0     N28367   5.774   6.613   5.335  0.2291  0.4089 -0.1739
  211MOL0     C28368   5.852   6.590   5.449 -0.2061  0.0246 -1.1030
  211MOL0     C28369   5.824   6.689   5.534  0.5999 -0.7726  0.0149
  211MOL0     C28370   5.877   6.709   5.678 -0.2744 -0.2299  0.8424
  211MOL0     C28371   5.787   6.650   5.793  0.4527 -0.3338 -0.6408
  211MOL0     C28372   5.756   6.502   5.769 -0.2100 -0.1120  0.3866
  211MOL0     C28373   5.688   6.441   5.896 -0.2165 -0.9392 -0.6494
  211MOL0     O28374   5.643   6.307   5.880 -0.8531 -0.6968 -0.0014
  211MOL0     C28375   5.688   6.225   5.981 -0.0178 -0.2306  0.2763
  211MOL0     C28376   5.582   6.165   6.055 -0.8743  0.9712 -0.4103
  211MOL0     C28377   5.611   6.085   6.174  1.2984 -0.1291 -0.0317
  211MOL0     C28378   5.497   6.020   6.260 -0.4823 -0.1754  0.2774
  211MOL0     C28379   5.747   6.063   6.203 -0.3969  0.2019  0.1612
  211MOL0     C28380   5.796   5.974   6.310 -0.9657 -0.6994  0.5089
  211MOL0     O28381   5.923   5.925   6.316 -0.3402 -0.0685  0.7270
  211MOL0     C28382   5.944   5.813   6.394  0.1053  0.8511  0.1630
  211MOL0     C28383   5.888   5.686   6.363 -0.3472 -0.0786  0.1568
  211MOL0     C28384   5.928   5.573   6.446  0.2610 -0.2391  0.6175
  211MOL0     C28385   6.025   5.589   6.538 -0.0329  0.8695  0.0698
  211MOL0     O28386   6.090   5.487   6.601 -0.6117 -0.1278  0.1910
  211MOL0     C28387   6.046   5.355   6.574 -0.5509  0.4699 -0.1670
  211MOL0     C28388   6.147   5.271   6.642 -0.0533 -0.6016  0.2936
  211MOL0     C28389   6.134   5.119   6.599 -1.0638 -0.8451  0.2785
  211MOL0     C28390   6.260   5.038   6.618  0.5401 -0.4951 -0.5124
  211MOL0     C28391   6.321   5.053   6.758 -0.3998  0.4967  0.8171
  211MOL0     C28392   6.416   4.935   6.775  0.6550  0.7035 -0.0982
  211MOL0     C28393   6.338   4.806   6.811  0.0522 -0.3378  0.6314
  211MOL0     C28394   6.223   4.800   6.920  0.4177  0.8490 -0.4630
  211MOL0    Cl28395   6.274   4.862   7.075 -0.1565 -0.1766  0.0925
  211MOL0     C28396   6.072   5.714   6.566  0.4714 -0.5524  0.7688
  211MOL0     C28397   6.033   5.824   6.492 -0.1799 -0.5972  0.9769
  211MOL0     O28398   5.718   5.965   6.408 -0.4961 -0.2988  0.3078
  211MOL0     C28399   5.844   6.124   6.117  0.5363 -0.2936  0.3839
  211MOL0     C28400   5.820   6.195   6.010  0.1286 -0.1942 -1.1615
  211MOL0     N28401   5.728   6.771   5.477 -0.3250 -0.1241  0.5608
  211MOL0     N28402   5.699   6.730   5.356 -0.8726 -0.5248 -0.1225
  211MOL0     C28403   5.562   5.721   6.012  0.7765  0.3481  0.9187
  211MOL0     C28404   5.530   5.609   6.087 -1.2906  0.9015  0.6205
  211MOL0     C28405   5.410   5.180   6.178 -0.3744  0.1173  0.6418
  211MOL0     C28406   5.458   5.051   6.140 -0.9312  0.0531 -0.8238
  211MOL0     C28407   5.389   4.944   6.198  0.4918 -0.2450 -0.5379
  211MOL0     C28408   5.282   4.947   6.289  0.3857  0.6693 -0.8248
  211MOL0     O28409   5.217   4.842   6.360 -0.6683 -0.3107  0.6943
  211MOL0     C28410   5.265   4.712   6.337 -0.3250  0.2797 -0.2685
  211MOL0     C28411   5.170   4.620   6.420  0.3343 -0.1410  0.9800
  211MOL0     C28412   5.207   4.467   6.408  0.3024 -1.1970 -0.0079
  211MOL0     C28413   5.081   4.381   6.449 -0.4970 -0.3103  0.2918
  211MOL0     C28414   5.106   4.237   6.462 -0.3796 -0.4602 -1.4945
  211MOL0     C28415   5.138   4.120   6.472  0.1341  1.0584  0.6879
  211MOL0     C28416   5.240   5.074   6.320  0.3695 -0.5574 -0.5358
  211MOL0     C28417   5.301   5.189   6.264  0.6137  0.2111 -0.4433
  211MOL0     H28418   5.224   5.537   5.968  0.2722 -0.6959  1.8551
  211MOL0     H28419   5.255   5.782   5.889 -0.4916 -0.4491 -1.5595
  211MOL0     H28420   5.394   5.855   5.695 -0.1308  0.5564  0.3058
  211MOL0     H28421   5.332   5.988   5.784 -1.6322 -0.7973 -2.9423
  211MOL0     H28422   5.570   6.104   5.742 -2.5105 -1.1366  1.5360
  211MOL0     H28423   5.604   5.953   5.648  1.3744  0.8042  2.2885
  211MOL0     H28424   5.427   6.008   5.506 -1.1709 -2.6439  3.7435
  211MOL0     H28425   5.368   6.150   5.605 -2.7525 -1.2125 -1.6130
  211MOL0     H28426   5.605   6.253   5.573  0.0114  3.0793 -1.8306
  211MOL0     H28427   5.621   6.146   5.437  0.6326 -2.8893  2.9178
  211MOL0     H28428   5.428   6.241   5.332 -0.5810  1.0188  0.2092
  211MOL0     H28429   5.393   6.350   5.480  1.6970  0.4561  2.7706
  211MOL0     H28430   5.500   6.486   5.321 -0.4250 -1.0525 -1.7971
  211MOL0     H28431   5.588   6.474   5.475  1.3873  1.4998 -1.2870
  211MOL0     H28432   5.751   6.328   5.363 -0.8440 -0.2489  0.3001
  211MOL0     H28433   5.658   6.313   5.206  0.3218  0.7829 -1.5573
  211MOL0     H28434   5.688   6.558   5.168 -0.5820  1.7166  0.8478
  211MOL0     H28435   5.851   6.480   5.193  0.6498 -2.6471  3.6561
  211MOL0     H28436   5.920   6.507   5.465 -0.5148 -0.4366 -2.1083
  211MOL0     H28437   5.979   6.670   5.689  1.1247  2.4087 -1.5564
  211MOL0     H28438   5.891   6.816   5.693 -0.2024  0.0317 -0.8712
  211MOL0     H28439   5.694   6.708   5.790  0.0799 -0.8770  0.2111
  211MOL0     H28440   5.833   6.660   5.892  1.6689  0.1547 -1.2310
  211MOL0     H28441   5.842   6.442   5.738 -1.1932 -1.5716  0.3323
  211MOL0     H28442   5.680   6.494   5.690 -0.1493  1.1527  0.1813
  211MOL0     H28443   5.598   6.500   5.913 -0.0044 -1.4216  3.1865
  211MOL0     H28444   5.758   6.455   5.980 -1.9494 -0.6408  0.7961
  211MOL0     H28445   5.477   6.177   6.030 -1.7123  0.7899  2.6534
  211MOL0     H28446   5.488   6.064   6.359  1.8386  1.4978 -0.1580
  211MOL0     H28447   5.402   6.043   6.211 -1.4021 -1.0647  1.5857
  211MOL0     H28448   5.500   5.912   6.274  0.8356 -0.3479 -1.0401
  211MOL0     H28449   5.807   5.675   6.290 -0.6248  0.0962  0.4364
  211MOL0     H28450   5.869   5.484   6.428  0.4189  0.0114 -1.3686
  211MOL0     H28451   5.944   5.329   6.604  0.1923 -1.0728  1.1642
  211MOL0     H28452   6.054   5.334   6.467  2.0848 -2.7451  0.4866
  211MOL0     H28453   6.247   5.305   6.613 -0.4121  1.1394  0.9882
  211MOL0     H28454   6.138   5.285   6.750 -2.1471 -1.4074  0.2697
  211MOL0     H28455   6.111   5.098   6.494  2.9754  1.5619 -1.3185
  211MOL0     H28456   6.053   5.081   6.662 -0.4905  0.2244  1.7300
  211MOL0     H28457   6.229   4.934   6.602 -3.4451  0.4080  0.2539
  211MOL0     H28458   6.337   5.063   6.545  1.3019 -0.6529  0.2323
  211MOL0     H28459   6.246   5.069   6.836 -1.6514 -0.9131 -0.0472
  211MOL0     H28460   6.381   5.145   6.758 -1.6233  1.3594  2.6367
  211MOL0     H28461   6.491   4.915   6.699  1.1932 -0.6971  0.7551
  211MOL0     H28462   6.475   4.954   6.866  3.3526 -1.2953 -1.2920
  211MOL0     H28463   6.405   4.727   6.846  0.5001 -0.6918 -0.9666
  211MOL0     H28464   6.296   4.776   6.715  1.8918  0.3705 -0.4358
  211MOL0     H28465   6.187   4.698   6.936  0.6771  1.1404  2.6649
  211MOL0     H28466   6.137   4.865   6.901 -1.3183  0.2928  4.0753
  211MOL0     H28467   6.146   5.721   6.645 -0.4393 -0.6231  1.6396
  211MOL0     H28468   6.083   5.920   6.498 -0.9833  0.0988 -1.8194
  211MOL0     H28469   5.949   6.101   6.133  0.6531  0.2203  0.3758
  211MOL0     H28470   5.899   6.235   5.946  0.2416 -0.3328 -1.1099
  211MOL0     H28471   5.655   5.771   6.039 -0.3481  3.4463 -0.4569
  211MOL0     H28472   5.601   5.573   6.161  1.5972  0.5111 -2.1296
  211MOL0     H28473   5.545   5.030   6.079 -0.2757 -1.3551  0.5292
  211MOL0     H28474   5.416   4.845   6.162  2.4411 -0.3656  1.0657
  211MOL0     H28475   5.241   4.682   6.234 -1.8113 -0.5957  0.3027
  211MOL0     H28476   5.371   4.701   6.364  0.0684  3.9776  0.1191
  211MOL0     H28477   5.074   4.625   6.369  0.8487 -1.8156 -0.2168
  211MOL0     H28478   5.162   4.657   6.523  0.6478 -0.5033  1.1373
  211MOL0     H28479   5.284   4.457   6.486 -1.4225 -0.5883  1.8664
  211MOL0     H28480   5.246   4.430   6.313  2.3477 -0.7609  0.6052
  211MOL0     H28481   5.015   4.393   6.363 -0.7360 -0.1103  0.5015
  211MOL0     H28482   5.041   4.415   6.545 -0.1180 -0.2877  0.4444
  211MOL0     H28483   5.168   4.020   6.496 -2.1059  0.2227  0.2340
  211MOL0     H28484   5.158   5.080   6.390 -1.8538 -2.5591 -2.7767
  211MOL0     H28485   5.259   5.287   6.283  1.5258  0.7748 -1.2024
  212MOL0     O28486   9.867   8.956   6.462  0.2984  0.2534  0.2770
  212MOL0     C28487   9.957   8.970   6.379  0.2579 -0.2727 -0.4660
  212MOL0     O28488  10.084   8.996   6.409  0.0025  0.0619  0.5101
  212MOL0     C28489  10.154   8.956   6.528  0.0902 -0.1182  0.9670
  212MOL0     C28490  10.115   8.991   6.658  0.8588  0.2927 -0.4897
  212MOL0     C28491  10.185   8.954   6.768 -0.8352 -0.6738  0.2722
  212MOL0     C28492  10.306   8.881   6.746  0.2437 -1.1719  0.2234
  212MOL0     O28493  10.390   8.877   6.851 -0.5023 -0.5613  0.1345
  212MOL0     C28494  10.358   8.781   6.953 -0.4488 -1.0547  0.2073
  212MOL0     C28495  10.485   8.750   7.019 -1.1222 -0.4430 -0.4114
  212MOL0     C28496  10.436   8.665   7.138 -1.4443  0.1518  0.2558
  212MOL0     C28497  10.393   8.512   7.102  0.1760 -1.0540 -0.4524
  212MOL0     C28498  10.356   8.422   7.228  0.2186 -0.4294 -0.2205
  212MOL0     C28499  10.360   8.275   7.188  0.5527  0.4253 -0.6134
  212MOL0     C28500  10.495   8.219   7.206  0.1936  0.3506  0.0471
  212MOL0     C28501  10.505   8.081   7.141  0.1632  0.9317  0.4902
  212MOL0     N28502  10.406   7.985   7.187 -0.1800 -0.3985 -0.0618
  212MOL0     C28503  10.387   7.956   7.321  0.8112  0.2516  0.1218
  212MOL0     C28504  10.273   7.878   7.326 -0.6444 -0.0739 -0.1798
  212MOL0     C28505  10.218   7.828   7.461 -0.9314  0.5514  0.9255
  212MOL0     C28506  10.208   7.675   7.475  0.0556  0.6899 -0.2371
  212MOL0     C28507  10.121   7.612   7.355  0.1336  0.3475 -0.1783
  212MOL0     C28508  10.025   7.492   7.412 -0.5589 -1.2464  0.3527
  212MOL0     O28509  10.119   7.406   7.479 -0.2621  0.2138 -0.0770
  212MOL0     C28510  10.210   7.344   7.410 -0.2380 -0.2636 -0.9159
  212MOL0     C28511  10.323   7.295   7.481  0.1520 -1.2071  0.1496
  212MOL0     C28512  10.424   7.216   7.414  0.7900 -0.3514 -1.0610
  212MOL0     C28513  10.552   7.189   7.489 -0.2158 -0.3038 -0.1854
  212MOL0     C28514  10.425   7.196   7.282  0.8138 -0.1384 -0.2729
  212MOL0     C28515  10.529   7.111   7.213  0.6394 -0.0378  0.4630
  212MOL0     O28516  10.580   7.177   7.106 -0.0353  0.0879  0.3947
  212MOL0     C28517  10.697   7.140   7.052 -1.0386  0.1138  0.1026
  212MOL0     C28518  10.812   7.222   7.059 -0.7700  1.1007 -0.3276
  212MOL0     C28519  10.926   7.186   6.991 -0.0156  0.1082  0.2858
  212MOL0     C28520  10.924   7.071   6.901  0.5991  0.1385 -0.4012
  212MOL0     O28521  11.032   7.035   6.825 -0.4451 -0.1883  0.9130
  212MOL0     C28522  11.107   7.152   6.782 -0.0386 -0.4004 -0.1593
  212MOL0     C28523  11.206   7.122   6.677 -0.0377 -0.2304  0.9064
  212MOL0     C28524  11.139   7.069   6.552  0.5904  0.2785 -0.4083
  212MOL0     C28525  11.227   7.064   6.427 -0.2027  0.5235 -0.3005
  212MOL0     C28526  11.148   7.024   6.305  0.1906  0.3532  0.6291
  212MOL0     C28527  11.226   7.025   6.171  0.8675  0.2731  0.0721
  212MOL0     C28528  11.350   6.929   6.175 -0.1738 -0.1054  0.3434
  212MOL0     C28529  11.335   6.774   6.139 -0.2919  0.1790  1.3189
  212MOL0    Cl28530  11.487   6.710   6.066  0.1060 -0.2100 -0.1165
  212MOL0     C28531  10.808   6.997   6.883 -0.2198  0.1410  0.6116
  212MOL0     C28532  10.699   7.029   6.962 -0.4142  0.3881 -0.3481
  212MOL0     O28533  10.559   6.999   7.252  0.0817  0.0053 -0.7092
  212MOL0     C28534  10.312   7.249   7.209 -0.1212 -0.2230  1.0881
  212MOL0     C28535  10.213   7.320   7.276 -0.0769  0.2750  0.6385
  212MOL0     N28536  10.214   7.874   7.199 -0.2437  0.5034 -0.1968
  212MOL0     N28537  10.303   7.939   7.121 -0.3235  1.0319 -0.7672
  212MOL0     C28538  10.348   8.845   6.618  0.0785  0.1327  0.5902
  212MOL0     C28539  10.276   8.878   6.514 -0.2850 -0.0353 -1.0827
  212MOL0     C28540   9.928   8.959   6.236  0.8289  0.6048  1.0329
  212MOL0     C28541  10.027   8.956   6.138  0.4499 -0.9286  0.2176
  212MOL0     C28542   9.995   8.955   6.003 -0.5760  0.0673  0.7353
  212MOL0     C28543   9.868   8.939   5.956  0.4262  0.0033  0.2227
  212MOL0     O28544   9.830   8.933   5.826 -0.4604  0.0215 -0.1409
  212MOL0     C28545   9.892   9.028   5.733  0.6462  1.4783  0.4877
  212MOL0     C28546   9.810   9.046   5.609  0.6271  0.2020  0.3843
  212MOL0     C28547   9.788   8.916   5.532  0.4499 -0.6346  0.5933
  212MOL0     C28548   9.922   8.846   5.481 -0.7756  0.0808  0.7461
  212MOL0     C28549   9.895   8.704   5.450  0.0295  0.1568  0.8688
  212MOL0     C28550   9.830   8.596   5.421  0.4441  0.9220  0.5346
  212MOL0     C28551   9.760   8.936   6.047 -0.2774 -0.5428 -0.4107
  212MOL0     C28552   9.791   8.939   6.186  0.4701 -0.3710  0.0907
  212MOL0     H28553  10.017   9.038   6.661  1.7079  2.1249  0.9464
  212MOL0     H28554  10.153   8.986   6.867  0.2372 -0.5496  0.5936
  212MOL0     H28555  10.285   8.816   7.027  0.0003 -0.0073  0.1841
  212MOL0     H28556  10.313   8.699   6.896  2.2271 -0.1262 -3.6518
  212MOL0     H28557  10.545   8.690   6.949  1.1413  0.6748  0.4495
  212MOL0     H28558  10.544   8.837   7.050 -1.1089 -0.2668 -0.9245
  212MOL0     H28559  10.512   8.668   7.218 -1.7045 -1.9394  0.6606
  212MOL0     H28560  10.354   8.715   7.190 -3.1488  1.1419 -3.1421
  212MOL0     H28561  10.316   8.523   7.026  0.8616 -1.3768 -1.2119
  212MOL0     H28562  10.483   8.471   7.054 -0.7035 -1.7829 -1.5384
  212MOL0     H28563  10.425   8.435   7.312 -1.2432 -1.6891  1.2458
  212MOL0     H28564  10.260   8.461   7.263 -0.2484 -2.5048  0.9324
  212MOL0     H28565  10.282   8.220   7.241 -0.9317  1.5661 -1.5505
  212MOL0     H28566  10.332   8.271   7.083  2.3899  1.2515 -1.1796
  212MOL0     H28567  10.562   8.288   7.154  1.6948  0.1693  1.6233
  212MOL0     H28568  10.526   8.220   7.311  2.8888  3.7350 -0.6266
  212MOL0     H28569  10.609   8.055   7.165  0.4123  0.2018 -1.2414
  212MOL0     H28570  10.510   8.076   7.032 -1.9405 -2.9979  0.3997
  212MOL0     H28571  10.450   7.984   7.405  0.4658  1.4610 -0.0041
  212MOL0     H28572  10.276   7.868   7.545 -0.3389  0.6518  0.4784
  212MOL0     H28573  10.123   7.878   7.479 -0.6611  1.7170 -0.6890
  212MOL0     H28574  10.154   7.638   7.562  0.0207 -0.9944 -0.9304
  212MOL0     H28575  10.302   7.620   7.471 -2.2095 -4.0419  2.6400
  212MOL0     H28576  10.173   7.586   7.263  0.0623  1.8139 -0.6602
  212MOL0     H28577  10.050   7.685   7.315  0.0604  0.4931  0.2140
  212MOL0     H28578   9.977   7.433   7.333 -0.2499  0.6351 -1.3248
  212MOL0     H28579   9.950   7.515   7.488  0.9338 -0.9194  1.7923
  212MOL0     H28580  10.329   7.310   7.588 -3.4793 -2.0692  0.5924
  212MOL0     H28581  10.549   7.227   7.591  2.1367 -1.8950  0.5345
  212MOL0     H28582  10.573   7.084   7.511 -0.0933 -0.2038  0.1771
  212MOL0     H28583  10.633   7.231   7.428 -1.8993  1.3771 -1.4266
  212MOL0     H28584  10.821   7.297   7.137  2.0829 -0.4353  0.9916
  212MOL0     H28585  11.017   7.243   7.006  0.6588 -0.5021 -1.2315
  212MOL0     H28586  11.042   7.232   6.746 -1.2953 -1.5635 -0.5374
  212MOL0     H28587  11.167   7.176   6.871  1.6021 -1.1153 -1.0388
  212MOL0     H28588  11.266   7.208   6.649  0.3172 -0.8934 -0.4534
  212MOL0     H28589  11.271   7.044   6.718 -1.7025 -2.2785 -0.0879
  212MOL0     H28590  11.052   7.133   6.532  1.2144  1.5594  0.8277
  212MOL0     H28591  11.097   6.971   6.577  0.9029  0.1159 -0.5148
  212MOL0     H28592  11.269   7.165   6.417 -0.5766  0.6092 -1.0396
  212MOL0     H28593  11.299   6.985   6.449 -3.3439 -1.5769  3.7876
  212MOL0     H28594  11.064   7.095   6.298 -0.7560 -0.7061  1.0278
  212MOL0     H28595  11.107   6.924   6.315 -3.2907  1.3276 -1.7589
  212MOL0     H28596  11.166   6.994   6.085  0.5362 -0.5679  0.5895
  212MOL0     H28597  11.256   7.130   6.164  1.2941  0.1458 -0.0352
  212MOL0     H28598  11.400   6.931   6.272 -1.1919 -0.6159  0.8954
  212MOL0     H28599  11.426   6.976   6.111  0.7177  2.1871  2.8908
  212MOL0     H28600  11.254   6.756   6.068  1.9962  1.1835 -1.7431
  212MOL0     H28601  11.317   6.717   6.231 -0.4599  1.1245  1.8821
  212MOL0     H28602  10.822   6.907   6.824  0.7517 -1.2609  2.8475
  212MOL0     H28603  10.603   6.979   6.956 -0.4688 -0.1443  2.8144
  212MOL0     H28604  10.287   7.229   7.105 -1.6795  0.1629  1.3588
  212MOL0     H28605  10.130   7.343   7.209  1.6273 -0.1808 -1.7488
  212MOL0     H28606  10.447   8.805   6.595 -0.2434 -0.6363  0.5090
  212MOL0     H28607  10.318   8.854   6.416 -2.4952  2.3954 -2.7724
  212MOL0     H28608  10.134   8.960   6.155  1.0962 -5.1619 -1.6879
  212MOL0     H28609  10.071   8.955   5.925  1.1636 -1.1835  2.3309
  212MOL0     H28610   9.894   9.131   5.770 -0.3293  1.4409  0.6745
  212MOL0     H28611   9.992   8.988   5.716  0.1739  0.2530  0.4641
  212MOL0     H28612   9.854   9.130   5.554  0.2046  1.0948  1.3712
  212MOL0     H28613   9.714   9.080   5.649 -1.3096 -2.1288 -1.8579
  212MOL0     H28614   9.725   8.936   5.445  0.5757  1.7139  0.9770
  212MOL0     H28615   9.738   8.847   5.600  0.9207 -0.2638  1.3336
  212MOL0     H28616   9.995   8.846   5.563  3.9708 -1.8869 -2.9666
  212MOL0     H28617   9.972   8.895   5.397  1.9737  1.8523  3.2125
  212MOL0     H28618   9.767   8.510   5.411  0.1367  1.2293 -0.1799
  212MOL0     H28619   9.659   8.923   6.010  0.2901 -1.2817 -1.7740
  212MOL0     H28620   9.716   8.926   6.263  1.3907  1.8646  1.4495
  213MOL0     O28621   5.857   7.788  10.176 -0.4354 -0.2540  0.5246
  213MOL0     C28622   5.773   7.734  10.113 -0.2194 -0.3848  0.6513
  213MOL0     O28623   5.637   7.752  10.128  0.4264 -0.8503  0.0022
  213MOL0     C28624   5.599   7.854  10.212  0.1899  0.6150 -0.2373
  213MOL0     C28625   5.568   7.980  10.158  0.2196  0.0101 -0.1553
  213MOL0     C28626   5.524   8.089  10.232 -0.0219  0.9111 -0.4269
  213MOL0     C28627   5.498   8.066  10.369 -0.4171 -1.5432  0.7140
  213MOL0     O28628   5.478   8.157  10.471  0.1730 -1.2125  0.0252
  213MOL0     C28629   5.487   8.296  10.436  0.1940  0.0930  0.1093
  213MOL0     C28630   5.356   8.357  10.382  0.9612 -0.8308 -0.0511
  213MOL0     C28631   5.374   8.513  10.364  0.6758 -0.4309 -1.2076
  213MOL0     C28632   5.393   8.578  10.508  0.3472 -1.3398  0.5290
  213MOL0     C28633   5.264   8.552  10.594  0.0997 -0.7146  0.2675
  213MOL0     C28634   5.262   8.626  10.735 -0.5313  0.1477  0.5852
  213MOL0     C28635   5.159   8.574  10.827  0.5629 -0.2212 -0.1879
  213MOL0     C28636   5.107   8.659  10.935  0.1908 -0.4564  1.0913
  213MOL0     N28637   5.202   8.718  11.029  0.5591  0.1064 -0.4319
  213MOL0     C28638   5.294   8.809  10.986  0.2253 -0.4612  0.0482
  213MOL0     C28639   5.362   8.844  11.102  0.9857  0.5879 -0.0432
  213MOL0     C28640   5.478   8.942  11.111 -0.1616  0.1939  1.1544
  213MOL0     C28641   5.448   9.088  11.149 -0.2308  0.7485 -0.2411
  213MOL0     C28642   5.549   9.192  11.107  0.0855 -0.3224 -0.3134
  213MOL0     C28643   5.662   9.190  11.212 -0.0510 -0.5561 -0.1217
  213MOL0     O28644   5.747   9.290  11.158  0.0423  0.3781 -0.0354
  213MOL0     C28645   5.843   9.329  11.248 -0.3197 -0.6355 -0.2873
  213MOL0     C28646   5.916   9.440  11.207  0.6523 -0.8530  0.2678
  213MOL0     C28647   6.022   9.504  11.276  0.2530  0.5130  0.0899
  213MOL0     C28648   6.083   9.633  11.207  0.3484  1.3713  0.4052
  213MOL0     C28649   6.054   9.458  11.404  0.5058  0.6770  0.0960
  213MOL0     C28650   6.165   9.514  11.487 -1.1804  0.3367 -1.3925
  213MOL0     O28651   6.176   9.460  11.612  0.2873 -0.0888 -0.7590
  213MOL0     C28652   6.281   9.467  11.706 -0.5922 -0.7090  1.7577
  213MOL0     C28653   6.268   9.377  11.814 -0.5369  0.6117 -1.0712
  213MOL0     C28654   6.372   9.361  11.909  0.7664  0.3315  0.4791
  213MOL0     C28655   6.496   9.428  11.895  0.0512 -0.4658  0.2251
  213MOL0     O28656   6.585   9.402  11.998 -0.2686 -0.7900 -0.0992
  213MOL0     C28657   6.724   9.434  11.974  0.9190  0.5713  0.6025
  213MOL0     C28658   6.794   9.398  12.100 -0.1503 -0.9477  1.0458
  213MOL0     C28659   6.933   9.463  12.108 -0.5028 -0.1979  0.2903
  213MOL0     C28660   7.031   9.373  12.180 -1.2564 -0.5933 -1.2142
  213MOL0     C28661   7.146   9.454  12.236  0.2813 -0.0897  0.0016
  213MOL0     C28662   7.119   9.473  12.390  0.1825 -0.2133 -0.0822
  213MOL0     C28663   7.223   9.568  12.453 -0.2186 -0.6486  0.1634
  213MOL0     C28664   7.197   9.569  12.607 -0.7112 -0.0557  0.1750
  213MOL0    Cl28665   7.254   9.413  12.688  0.3055  0.4624  0.3143
  213MOL0     C28666   6.511   9.504  11.783  0.0867  0.3034  0.2193
  213MOL0     C28667   6.406   9.526  11.690 -0.2559  0.3543 -0.3446
  213MOL0     O28668   6.247   9.590  11.439 -0.2078 -1.3377 -0.0004
  213MOL0     C28669   5.986   9.334  11.445  0.6272  0.1002 -0.2882
  213MOL0     C28670   5.885   9.265  11.366  0.1050 -0.1882 -0.1075
  213MOL0     N28671   5.302   8.777  11.213  0.6614 -0.1759  0.3126
  213MOL0     N28672   5.195   8.706  11.168 -0.4963  0.7068  0.4142
  213MOL0     C28673   5.521   7.941  10.418  0.3718 -0.6616  0.3005
  213MOL0     C28674   5.565   7.829  10.343  0.4148  0.0373 -1.0565
  213MOL0     C28675   5.823   7.624  10.016 -0.0608 -0.8735  0.7124
  213MOL0     C28676   5.953   7.639   9.958 -0.9225  0.4293 -1.1573
  213MOL0     C28677   5.997   7.551   9.867 -0.2388 -0.1592  0.7156
  213MOL0     C28678   5.916   7.454   9.821 -0.9084  1.9789  0.6943
  213MOL0     O28679   5.969   7.364   9.731  0.0271 -0.5879  0.0256
  213MOL0     C28680   5.885   7.299   9.633 -0.8560 -0.1984  0.2236
  213MOL0     C28681   5.953   7.211   9.528  0.4169  0.4006  0.1813
  213MOL0     C28682   5.837   7.135   9.464  0.3117 -0.1676 -0.1008
  213MOL0     C28683   5.879   7.086   9.325 -0.3666  0.0314 -0.3039
  213MOL0     C28684   5.997   6.997   9.342  0.3153 -0.3914 -0.6576
  213MOL0     C28685   6.085   6.928   9.312 -0.0807  0.6141  0.7681
  213MOL0     C28686   5.781   7.431   9.868  0.2442  0.2425  1.0233
  213MOL0     C28687   5.740   7.518   9.976 -0.1910 -0.4483 -0.2982
  213MOL0     H28688   5.567   7.975  10.049 -3.6515  0.0924 -0.2751
  213MOL0     H28689   5.522   8.192  10.196 -0.2155  1.5688  1.3381
  213MOL0     H28690   5.519   8.350  10.526 -3.7386  0.2515  1.6230
  213MOL0     H28691   5.559   8.316  10.356 -1.5404 -1.8498 -2.1165
  213MOL0     H28692   5.346   8.311  10.284 -0.7268 -0.4280 -0.0999
  213MOL0     H28693   5.268   8.334  10.443  0.4720  0.8103 -0.0845
  213MOL0     H28694   5.456   8.534  10.295 -0.2458  0.1974 -2.1431
  213MOL0     H28695   5.287   8.559  10.316  0.8454  2.9052  1.3819
  213MOL0     H28696   5.480   8.551  10.568 -0.0401 -0.2277  1.6196
  213MOL0     H28697   5.392   8.685  10.488 -1.1577 -1.0835  1.8269
  213MOL0     H28698   5.173   8.580  10.540  1.0065  0.8022 -0.5575
  213MOL0     H28699   5.277   8.450  10.631  5.7898 -0.5168 -0.3807
  213MOL0     H28700   5.363   8.625  10.777 -0.5519  1.0520  0.6876
  213MOL0     H28701   5.248   8.732  10.710  1.8067  0.9814  2.3826
  213MOL0     H28702   5.081   8.544  10.757  0.9657 -1.4739 -0.1321
  213MOL0     H28703   5.186   8.479  10.875 -2.8360 -3.5413 -4.0303
  213MOL0     H28704   5.027   8.600  10.980 -1.6259  0.4736 -0.7857
  213MOL0     H28705   5.054   8.742  10.887  0.0292 -1.7368 -1.0350
  213MOL0     H28706   5.316   8.849  10.887  0.8971 -1.7219 -0.3400
  213MOL0     H28707   5.549   8.892  11.178  1.2641 -0.5139 -0.7884
  213MOL0     H28708   5.528   8.955  11.015  0.7981 -1.7898  1.3465
  213MOL0     H28709   5.430   9.092  11.256 -2.2220 -1.2016 -0.4192
  213MOL0     H28710   5.356   9.116  11.096 -0.3938  0.9979  0.1750
  213MOL0     H28711   5.492   9.284  11.119 -0.2023 -0.5149 -0.2140
  213MOL0     H28712   5.579   9.176  11.003 -0.5675  1.4749 -0.8214
  213MOL0     H28713   5.713   9.093  11.207 -1.6076 -1.5912  2.2284
  213MOL0     H28714   5.614   9.216  11.307  1.2686 -0.1631  0.4638
  213MOL0     H28715   5.912   9.475  11.104  4.2935  1.3669  0.7009
  213MOL0     H28716   6.097   9.714  11.278  0.0315 -0.0615  2.1759
  213MOL0     H28717   6.178   9.598  11.164 -0.0367 -0.1821  0.7448
  213MOL0     H28718   6.008   9.663  11.133 -0.5726  0.5203  0.9759
  213MOL0     H28719   6.168   9.337  11.831 -1.8856  4.3402  0.7888
  213MOL0     H28720   6.351   9.313  12.004 -2.3795 -0.1270 -0.3341
  213MOL0     H28721   6.768   9.385  11.886  0.0495 -0.3420  0.6573
  213MOL0     H28722   6.729   9.542  11.964 -1.8026  0.7559  0.4532
  213MOL0     H28723   6.729   9.424  12.185 -2.6829  1.7632 -1.4713
  213MOL0     H28724   6.815   9.290  12.103  3.8188 -0.3331  0.6180
  213MOL0     H28725   6.922   9.560  12.158  0.4729  1.4257 -2.4578
  213MOL0     H28726   6.971   9.480  12.007 -0.5798  1.2002  0.4699
  213MOL0     H28727   6.975   9.327  12.262 -0.9835 -0.7570 -1.1156
  213MOL0     H28728   7.080   9.293  12.125  0.2059 -0.5675 -0.0315
  213MOL0     H28729   7.147   9.556  12.197  2.1426 -0.1383 -0.1875
  213MOL0     H28730   7.245   9.410  12.220  0.6769  0.0795  1.7468
  213MOL0     H28731   7.025   9.525  12.406  0.7711  1.1595 -0.9174
  213MOL0     H28732   7.124   9.373  12.434  2.2214 -0.3074 -0.4186
  213MOL0     H28733   7.205   9.672  12.423 -1.8847 -0.8063  0.5319
  213MOL0     H28734   7.326   9.551  12.421 -0.2425  2.1419 -1.7858
  213MOL0     H28735   7.089   9.583  12.618 -1.0508  0.4134 -2.9513
  213MOL0     H28736   7.252   9.652  12.651 -2.4053  0.0518  2.2765
  213MOL0     H28737   6.606   9.547  11.754  0.0299 -0.5336 -1.2879
  213MOL0     H28738   6.426   9.588  11.603  0.2361 -1.8355 -1.8800
  213MOL0     H28739   6.006   9.292  11.543  1.2407  2.2088  0.5442
  213MOL0     H28740   5.843   9.169  11.395  0.7931 -0.3361  0.4237
  213MOL0     H28741   5.510   7.923  10.524  2.3921 -0.2040  0.6173
  213MOL0     H28742   5.582   7.729  10.383 -0.9988 -0.0493 -0.6416
  213MOL0     H28743   6.028   7.702  10.005  0.3706 -1.5971 -0.3382
  213MOL0     H28744   6.101   7.567   9.838 -0.0232 -1.9512  0.4031
  213MOL0     H28745   5.825   7.233   9.694 -1.2178 -0.1464 -0.0708
  213MOL0     H28746   5.824   7.373   9.579 -0.5050 -0.3618 -0.4058
  213MOL0     H28747   6.001   7.138   9.593  1.5494  0.6878 -0.3105
  213MOL0     H28748   6.029   7.258   9.465  1.5030 -2.0256 -0.4533
  213MOL0     H28749   5.749   7.200   9.450  1.1056  0.9595  0.0438
  213MOL0     H28750   5.806   7.049   9.524 -0.3161 -0.3829 -0.7181
  213MOL0     H28751   5.901   7.168   9.255 -0.1076  1.4281  1.3351
  213MOL0     H28752   5.791   7.027   9.298  0.4382 -1.4906  0.2715
  213MOL0     H28753   6.168   6.860   9.310 -0.9039 -0.4349 -1.7155
  213MOL0     H28754   5.715   7.350   9.840 -0.0847  0.2091  1.8723
  213MOL0     H28755   5.638   7.525  10.014 -0.2009  1.3851 -0.5289
  214MOL0     O28756   7.499   9.251  10.144  0.0906 -0.1715  0.5328
  214MOL0     C28757   7.531   9.344  10.218  0.6420  0.5861 -0.0354
  214MOL0     O28758   7.483   9.470  10.213 -0.1229  0.0989  0.4986
  214MOL0     C28759   7.405   9.499  10.098 -0.2623 -0.3662  0.4299
  214MOL0     C28760   7.322   9.613  10.094  0.1415  0.2477  0.2880
  214MOL0     C28761   7.251   9.640   9.974 -0.5188 -0.4151 -0.0887
  214MOL0     C28762   7.266   9.575   9.855 -0.0763  0.0126  0.7911
  214MOL0     O28763   7.201   9.619   9.737  0.4549 -0.4963  0.2141
  214MOL0     C28764   7.080   9.546   9.715 -0.0731 -0.1889 -0.2905
  214MOL0     C28765   6.998   9.621   9.613  0.5377  0.4938  0.1089
  214MOL0     C28766   6.961   9.763   9.643 -1.1843 -0.4264  1.2321
  214MOL0     C28767   6.864   9.782   9.765 -0.2105 -0.1207  0.8037
  214MOL0     C28768   6.797   9.924   9.787 -0.1147  0.3383  0.2017
  214MOL0     C28769   6.895  10.033   9.836 -1.5660 -0.3654 -0.7190
  214MOL0     C28770   6.825  10.161   9.885  0.9236  0.8802 -0.4997
  214MOL0     C28771   6.926  10.267   9.948  0.1296  0.6859 -0.8631
  214MOL0     N28772   6.850  10.389   9.991  0.0135 -0.3273 -0.5685
  214MOL0     C28773   6.782  10.396  10.105 -0.3055 -0.7245  0.0311
  214MOL0     C28774   6.689  10.494  10.094  0.1282  0.0102  1.1184
  214MOL0     C28775   6.600  10.533  10.198 -0.7174 -1.0283 -0.0864
  214MOL0     C28776   6.458  10.531  10.159 -0.9187  0.3558  0.2799
  214MOL0     C28777   6.353  10.541  10.271  0.3963  0.4944  0.0036
  214MOL0     C28778   6.314  10.687  10.310 -0.0753  0.7974 -0.5658
  214MOL0     O28779   6.284  10.687  10.453  0.1397  0.1983 -0.3328
  214MOL0     C28780   6.228  10.797  10.508  0.8697  0.1430  0.2725
  214MOL0     C28781   6.190  10.789  10.636 -0.0652 -0.2851 -0.5726
  214MOL0     C28782   6.137  10.894  10.709  0.4630  0.0340  0.8729
  214MOL0     C28783   6.119  10.865  10.861  0.4237  0.2037 -0.0094
  214MOL0     C28784   6.122  11.022  10.640 -0.3977  0.0967  0.6009
  214MOL0     C28785   6.065  11.148  10.700 -0.3776 -0.1519 -0.5719
  214MOL0     O28786   6.076  11.261  10.630  0.8723  0.8920 -0.0918
  214MOL0     C28787   6.013  11.374  10.673  0.3055 -0.0645 -0.2266
  214MOL0     C28788   5.972  11.451  10.569 -0.1327 -0.4558 -0.3828
  214MOL0     C28789   5.908  11.574  10.584  0.8742  0.3252  0.5156
  214MOL0     C28790   5.862  11.616  10.710  0.2710 -0.1069  0.8243
  214MOL0     O28791   5.782  11.730  10.713  0.6186 -0.5630 -0.2563
  214MOL0     C28792   5.707  11.753  10.834  0.0443 -0.0640 -0.0772
  214MOL0     C28793   5.606  11.866  10.815 -0.0050  0.0658 -0.2917
  214MOL0     C28794   5.661  12.018  10.822 -0.0656  0.8559  0.5198
  214MOL0     C28795   5.581  12.105  10.726 -0.6205  0.5790  0.4248
  214MOL0     C28796   5.608  12.258  10.747  0.3042  0.0436  0.2627
  214MOL0     C28797   5.555  12.343  10.640 -0.4952 -0.8562 -0.3086
  214MOL0     C28798   5.623  12.487  10.645  0.0766  0.6792  1.0523
  214MOL0     C28799   5.543  12.600  10.591 -0.4725  0.4813 -0.5041
  214MOL0    Cl28800   5.628  12.750  10.626 -0.3913  0.2159 -0.0488
  214MOL0     C28801   5.894  11.535  10.817  0.5015  1.1683 -1.2908
  214MOL0     C28802   5.969  11.418  10.805 -0.7405 -0.4265  0.0609
  214MOL0     O28803   5.990  11.137  10.801  0.1168 -0.2151  0.0812
  214MOL0     C28804   6.172  11.032  10.513 -0.1128  0.5153 -0.6032
  214MOL0     C28805   6.213  10.919  10.445  0.3428  0.2265  0.5511
  214MOL0     N28806   6.702  10.549   9.967  0.6235 -0.9590  0.0170
  214MOL0     N28807   6.796  10.486   9.906 -0.5600  0.4269  0.7829
  214MOL0     C28808   7.367   9.482   9.850 -0.4963  0.3364  0.1785
  214MOL0     C28809   7.440   9.458   9.970  0.4386  0.5962  0.4840
  214MOL0     C28810   7.645   9.321  10.314 -0.3858 -1.1666 -0.0827
  214MOL0     C28811   7.709   9.435  10.374  0.2868 -0.2717 -0.2439
  214MOL0     C28812   7.822   9.418  10.459 -0.3707 -0.1425 -0.2569
  214MOL0     C28813   7.855   9.283  10.498  0.0983 -0.2081 -0.7062
  214MOL0     O28814   7.969   9.239  10.560  0.5652 -1.0070  0.0696
  214MOL0     C28815   8.001   9.304  10.682  0.5877  0.3625  0.5666
  214MOL0     C28816   7.930   9.229  10.802  0.4937  0.5182 -0.1376
  214MOL0     C28817   7.942   9.074  10.801 -0.3256 -0.3683 -0.5989
  214MOL0     C28818   7.874   8.993  10.913 -0.3109  0.0576  0.6421
  214MOL0     C28819   7.729   9.031  10.917 -0.0390  0.5274 -0.6252
  214MOL0     C28820   7.616   9.069  10.920  0.3015  0.4287 -0.3972
  214MOL0     C28821   7.798   9.175  10.435  1.2281 -0.1198 -0.0830
  214MOL0     C28822   7.698   9.199  10.346  0.7184 -1.3308  0.1036
  214MOL0     H28823   7.286   9.666  10.182  0.9865  0.9524  0.2187
  214MOL0     H28824   7.190   9.730   9.978 -0.7760 -0.6327  1.4710
  214MOL0     H28825   7.085   9.446   9.669 -2.6782 -1.2855  1.5347
  214MOL0     H28826   7.017   9.535   9.803 -0.6924 -4.7659 -1.0586
  214MOL0     H28827   7.049   9.609   9.517  0.7444 -4.4528  0.5583
  214MOL0     H28828   6.904   9.568   9.593 -1.0718  2.9231  0.6923
  214MOL0     H28829   7.041   9.836   9.661 -2.7529  1.1924  1.8497
  214MOL0     H28830   6.925   9.807   9.549 -0.2063  1.4522  1.6788
  214MOL0     H28831   6.781   9.717   9.736 -0.1994  0.5358 -0.8323
  214MOL0     H28832   6.914   9.740   9.852  0.6910  0.0469  0.3843
  214MOL0     H28833   6.728   9.945   9.704 -1.6794  0.7344  1.5400
  214MOL0     H28834   6.733   9.917   9.876 -0.8433  0.3182 -0.3106
  214MOL0     H28835   6.964   9.988   9.908  0.9000  2.2091 -1.2727
  214MOL0     H28836   6.965  10.065   9.758  1.2641 -3.7576  0.1950
  214MOL0     H28837   6.765  10.205   9.805  1.2203  1.6264 -0.3220
  214MOL0     H28838   6.751  10.129   9.959  1.7770  0.3706  0.1443
  214MOL0     H28839   6.994  10.289   9.865  0.8429  4.1260  0.4719
  214MOL0     H28840   6.990  10.229  10.028 -0.7650  0.0622 -0.4259
  214MOL0     H28841   6.785  10.329  10.190 -2.5438 -2.6788 -1.3171
  214MOL0     H28842   6.619  10.479  10.291  1.4168 -1.0922 -0.4993
  214MOL0     H28843   6.623  10.637  10.224  0.6609 -0.7287 -2.2126
  214MOL0     H28844   6.452  10.432  10.114  2.7681 -0.1945  0.6590
  214MOL0     H28845   6.432  10.606  10.084 -0.4489  0.1994 -0.0460
  214MOL0     H28846   6.393  10.487  10.358  3.8968 -0.2196 -1.8722
  214MOL0     H28847   6.261  10.488  10.246  0.2776  1.2734 -1.2995
  214MOL0     H28848   6.241  10.727  10.240  0.9823 -0.2001 -2.3055
  214MOL0     H28849   6.396  10.757  10.293 -0.7699  1.5356 -0.8917
  214MOL0     H28850   6.188  10.690  10.681  0.6157  0.5445  1.4299
  214MOL0     H28851   6.212  10.898  10.909  0.6819 -0.5438  0.0255
  214MOL0     H28852   6.031  10.909  10.908  0.4824 -0.2259  0.5167
  214MOL0     H28853   6.122  10.759  10.887  1.0841  0.2890  0.2837
  214MOL0     H28854   6.003  11.421  10.469  2.7150  2.9285 -0.6974
  214MOL0     H28855   5.893  11.629  10.491 -1.2386 -0.7163  0.1817
  214MOL0     H28856   5.658  11.661  10.868  2.6261 -0.9141  1.6949
  214MOL0     H28857   5.773  11.784  10.916 -2.0336  2.3844  0.8156
  214MOL0     H28858   5.556  11.847  10.720  0.8217  2.4638 -1.2879
  214MOL0     H28859   5.520  11.869  10.883 -0.3039  0.6363 -0.6901
  214MOL0     H28860   5.766  12.017  10.793 -0.5320 -1.3865 -1.4624
  214MOL0     H28861   5.652  12.056  10.924 -2.5002 -0.6710  0.9812
  214MOL0     H28862   5.592  12.079  10.620 -0.8097  2.8108 -0.1780
  214MOL0     H28863   5.476  12.081  10.745  0.5891 -3.2975  3.5604
  214MOL0     H28864   5.717  12.268  10.743  0.2260  0.8161 -0.1284
  214MOL0     H28865   5.573  12.285  10.847  0.3462  2.1064 -0.2326
  214MOL0     H28866   5.591  12.299  10.546  2.4677  2.4634 -0.9272
  214MOL0     H28867   5.446  12.343  10.648 -0.3688  1.2614  2.6596
  214MOL0     H28868   5.721  12.476  10.598 -0.1559  1.4181  0.3740
  214MOL0     H28869   5.641  12.511  10.751 -1.2841 -2.8334  2.2298
  214MOL0     H28870   5.448  12.600  10.646  0.3788 -1.1322  1.0899
  214MOL0     H28871   5.527  12.592  10.484  1.4495 -0.0304 -0.7870
  214MOL0     H28872   5.858  11.568  10.913  1.0849  0.1342 -0.6985
  214MOL0     H28873   6.001  11.367  10.895 -2.3273 -1.0098  0.3288
  214MOL0     H28874   6.157  11.122  10.454 -0.6168 -0.6396 -2.3254
  214MOL0     H28875   6.242  10.941  10.342 -3.5362 -1.0548 -1.0215
  214MOL0     H28876   7.421   9.423   9.776  1.9121  1.3775  1.0130
  214MOL0     H28877   7.523   9.389   9.957 -0.3108 -0.4344  0.9998
  214MOL0     H28878   7.667   9.532  10.350 -1.6879 -0.5720  1.7035
  214MOL0     H28879   7.863   9.507  10.506  1.9001 -0.2555 -1.8779
  214MOL0     H28880   8.110   9.312  10.691  0.4486  3.0213  0.6001
  214MOL0     H28881   7.966   9.407  10.687 -1.1131 -0.1539 -0.0800
  214MOL0     H28882   7.823   9.249  10.790  0.0808 -1.9435 -1.0017
  214MOL0     H28883   7.971   9.258  10.899 -2.2252  2.8819  0.4457
  214MOL0     H28884   8.049   9.055  10.790 -0.6614 -2.3928 -0.6858
  214MOL0     H28885   7.908   9.021  10.712  3.0241 -5.5022  0.7468
  214MOL0     H28886   7.918   8.999  11.013  1.4539  2.1749 -0.1804
  214MOL0     H28887   7.881   8.889  10.881 -0.5745 -0.0082  0.7925
  214MOL0     H28888   7.516   9.106  10.913 -0.1828 -1.1013 -2.8133
  214MOL0     H28889   7.813   9.069  10.451 -2.1493 -0.4493  1.8685
  214MOL0     H28890   7.642   9.118  10.299 -1.5666  1.8884 -3.2396
  215MOL0     O28891   4.923   7.870   5.044  0.6202 -0.0271  1.3529
  215MOL0     C28892   4.858   7.940   4.964 -0.0929 -0.3836 -0.1521
  215MOL0     O28893   4.749   7.898   4.895  0.0353  0.3109  0.4631
  215MOL0     C28894   4.704   7.772   4.916  0.2120  0.8191  0.1769
  215MOL0     C28895   4.569   7.752   4.941  0.3036  0.2098 -0.5932
  215MOL0     C28896   4.499   7.636   4.940 -0.1041  0.5871 -0.1045
  215MOL0     C28897   4.577   7.514   4.941  0.9286  0.3108  0.9147
  215MOL0     O28898   4.522   7.394   4.953 -0.3894  0.6129  0.2511
  215MOL0     C28899   4.470   7.364   5.077  0.6181  0.2417  0.7109
  215MOL0     C28900   4.593   7.348   5.177 -0.5291 -0.4364  0.2581
  215MOL0     C28901   4.691   7.238   5.130 -0.3505 -0.2444 -0.3714
  215MOL0     C28902   4.681   7.104   5.208  0.0443  0.0313 -0.3666
  215MOL0     C28903   4.793   7.004   5.170 -0.7239 -0.4633 -0.4674
  215MOL0     C28904   4.841   7.022   5.022 -0.1604  0.5336  0.5194
  215MOL0     C28905   4.944   6.916   4.975  0.0265 -1.0766  1.1467
  215MOL0     C28906   4.982   6.956   4.830 -0.6567 -0.1833  0.5712
  215MOL0     N28907   4.873   6.949   4.727 -0.7105  0.5674 -0.0576
  215MOL0     C28908   4.799   7.053   4.686 -0.3618 -0.4678 -0.2564
  215MOL0     C28909   4.702   7.005   4.603  0.8781 -0.5157 -0.2092
  215MOL0     C28910   4.589   7.082   4.536  0.4884 -0.1752  0.6813
  215MOL0     C28911   4.635   7.185   4.422 -0.2177  0.5878 -0.0735
  215MOL0     C28912   4.514   7.264   4.386 -0.6503  0.4931 -0.0965
  215MOL0     C28913   4.442   7.225   4.256  0.4033 -0.8597  0.2735
  215MOL0     O28914   4.320   7.294   4.238  0.0595  0.0948 -0.1926
  215MOL0     C28915   4.254   7.296   4.113  0.6369  0.6234 -0.1056
  215MOL0     C28916   4.296   7.212   4.009  0.5412 -0.0627 -0.1105
  215MOL0     C28917   4.238   7.223   3.879 -0.0677  0.1873  0.6353
  215MOL0     C28918   4.288   7.133   3.772  0.9291 -0.7981 -0.4668
  215MOL0     C28919   4.135   7.317   3.863 -0.1613  0.7442 -0.5249
  215MOL0     C28920   4.069   7.327   3.733  0.4000 -0.1175  0.6651
  215MOL0     O28921   4.145   7.389   3.637 -1.5774 -0.4128  0.5103
  215MOL0     C28922   4.115   7.425   3.504  0.5658 -0.6326 -0.8026
  215MOL0     C28923   3.983   7.437   3.461 -0.4480  0.1404 -0.5164
  215MOL0     C28924   3.960   7.495   3.336 -0.0518  0.2707 -0.2755
  215MOL0     C28925   4.070   7.531   3.258 -0.2312  0.8691 -1.3789
  215MOL0     O28926   4.056   7.579   3.139  0.2053 -1.1301  0.5164
  215MOL0     C28927   3.967   7.687   3.109 -0.6510  0.3012 -0.2536
  215MOL0     C28928   4.023   7.791   3.015 -0.1572  0.7926  0.3447
  215MOL0     C28929   4.154   7.843   3.038 -0.3903  0.1803  0.4501
  215MOL0     C28930   4.183   7.988   3.004  1.1597  0.1687 -0.5880
  215MOL0     C28931   4.287   8.049   3.098 -0.6129  0.2290  0.1887
  215MOL0     C28932   4.349   8.189   3.051 -0.0207 -0.8493 -0.3981
  215MOL0     C28933   4.450   8.243   3.159 -0.5149 -0.3188  0.2029
  215MOL0     C28934   4.522   8.364   3.115  0.5464 -0.6368 -0.4061
  215MOL0    Cl28935   4.578   8.457   3.248 -0.2283 -0.1035 -0.2624
  215MOL0     C28936   4.201   7.525   3.301  0.6975 -0.3809  0.0991
  215MOL0     C28937   4.221   7.476   3.427  0.3287  0.4125  0.3278
  215MOL0     O28938   3.962   7.273   3.724  0.5146 -0.1180  0.3463
  215MOL0     C28939   4.086   7.391   3.973 -0.8017 -0.4508  1.1888
  215MOL0     C28940   4.153   7.397   4.089 -0.8392 -0.2880 -0.3360
  215MOL0     N28941   4.716   6.866   4.600  0.2081 -0.4556 -0.7804
  215MOL0     N28942   4.824   6.839   4.668  0.0035 -0.2553 -0.4562
  215MOL0     C28943   4.717   7.527   4.906 -0.5328 -0.7889 -0.5098
  215MOL0     C28944   4.776   7.656   4.891 -0.0427 -0.9554 -0.7120
  215MOL0     C28945   4.902   8.078   4.936 -0.5410 -0.4249  0.0716
  215MOL0     C28946   4.804   8.178   4.915 -0.7326  0.2904 -0.3176
  215MOL0     C28947   4.833   8.301   4.872  0.2068 -0.4813 -0.7850
  215MOL0     C28948   4.964   8.341   4.850  1.1687 -0.1865  0.5282
  215MOL0     O28949   5.016   8.459   4.800  0.2414  0.5040 -0.2210
  215MOL0     C28950   4.916   8.545   4.736 -1.7056 -0.4755 -0.1390
  215MOL0     C28951   4.864   8.658   4.831  0.6160  0.7631  0.4242
  215MOL0     C28952   4.958   8.768   4.856 -0.1759  1.2598 -0.4979
  215MOL0     C28953   4.955   8.863   4.740  0.3406 -0.2830  0.2400
  215MOL0     C28954   5.060   8.962   4.749  0.7165 -0.7184 -0.8380
  215MOL0     C28955   5.145   9.049   4.766 -0.4442 -0.2265  0.9628
  215MOL0     C28956   5.060   8.244   4.865 -0.4080 -0.7518 -0.3250
  215MOL0     C28957   5.033   8.121   4.914  1.2741  1.0287  0.0304
  215MOL0     H28958   4.513   7.843   4.959  0.6021  0.7572 -2.2489
  215MOL0     H28959   4.397   7.623   4.975 -1.7189 -2.8439 -4.9677
  215MOL0     H28960   4.410   7.450   5.110 -0.1961  0.2978 -0.8255
  215MOL0     H28961   4.403   7.279   5.071  1.2904 -0.3673  1.5027
  215MOL0     H28962   4.653   7.439   5.180  1.7354 -1.8716  1.6050
  215MOL0     H28963   4.541   7.312   5.266  0.5369 -0.1232  1.0330
  215MOL0     H28964   4.665   7.228   5.024  0.6579 -0.4184 -0.6223
  215MOL0     H28965   4.791   7.284   5.127 -1.4044  2.1633 -3.0965
  215MOL0     H28966   4.669   7.123   5.315  1.8574 -1.9215  0.2661
  215MOL0     H28967   4.588   7.056   5.174  1.5216 -3.7290  0.3343
  215MOL0     H28968   4.877   7.024   5.238  0.1589  2.5165 -2.2830
  215MOL0     H28969   4.758   6.902   5.194  2.9313 -1.7255  0.1365
  215MOL0     H28970   4.757   7.009   4.952 -0.1834 -0.9560  0.7751
  215MOL0     H28971   4.874   7.124   5.000 -0.8957  0.7355  0.3467
  215MOL0     H28972   5.034   6.930   5.036  0.6644  0.5959 -0.1143
  215MOL0     H28973   4.923   6.809   4.968  2.7374 -1.5762 -1.8905
  215MOL0     H28974   5.060   6.893   4.787 -1.3170 -0.6903  0.0999
  215MOL0     H28975   5.028   7.055   4.830  4.5005 -2.2141 -1.6058
  215MOL0     H28976   4.812   7.157   4.712  2.6837 -1.1439  1.2907
  215MOL0     H28977   4.508   7.018   4.503 -0.8432  0.3907  2.6457
  215MOL0     H28978   4.528   7.139   4.607 -0.3887  0.2909 -0.4221
  215MOL0     H28979   4.669   7.131   4.333 -1.9542  0.7240 -0.8726
  215MOL0     H28980   4.713   7.246   4.466  2.7366 -1.9454 -1.4006
  215MOL0     H28981   4.554   7.365   4.370 -0.1791  0.1758 -0.9513
  215MOL0     H28982   4.438   7.274   4.465  0.4810  1.0748  0.9603
  215MOL0     H28983   4.426   7.117   4.243 -0.0457 -0.6291 -1.2816
  215MOL0     H28984   4.502   7.256   4.170 -0.3615 -2.3525 -0.8431
  215MOL0     H28985   4.371   7.133   4.019 -1.3693 -2.0140 -0.3691
  215MOL0     H28986   4.383   7.089   3.806  0.7729 -0.1607  0.8786
  215MOL0     H28987   4.225   7.049   3.742  2.3196 -2.1674  0.2902
  215MOL0     H28988   4.314   7.190   3.683  0.2429 -1.0921 -0.8546
  215MOL0     H28989   3.905   7.404   3.529  2.3423 -2.8278  1.5536
  215MOL0     H28990   3.859   7.520   3.303 -0.2335  2.4421  1.7235
  215MOL0     H28991   3.871   7.647   3.075 -0.7287 -2.6106  2.8679
  215MOL0     H28992   3.949   7.734   3.207  0.9590 -0.2358  0.3321
  215MOL0     H28993   4.043   7.739   2.921  0.2308  1.5852 -0.0198
  215MOL0     H28994   3.958   7.878   3.011 -0.0102  0.9221  0.7212
  215MOL0     H28995   4.230   7.785   2.985 -1.8487 -0.5747 -0.9185
  215MOL0     H28996   4.181   7.820   3.141 -1.5707  1.3595  1.0519
  215MOL0     H28997   4.213   7.990   2.899 -3.0558 -1.0922 -2.0423
  215MOL0     H28998   4.087   8.040   2.996 -0.2523 -2.2553 -0.6732
  215MOL0     H28999   4.370   7.979   3.105 -0.1277  0.1597 -3.9749
  215MOL0     H29000   4.233   8.071   3.191  3.7052  1.8151  2.6066
  215MOL0     H29001   4.396   8.179   2.953  0.0607  3.2407 -0.9683
  215MOL0     H29002   4.267   8.262   3.054 -0.9907 -1.9445  0.5303
  215MOL0     H29003   4.533   8.176   3.186  0.1670  0.1861 -0.6036
  215MOL0     H29004   4.399   8.274   3.250  0.4159  2.4616 -0.1425
  215MOL0     H29005   4.457   8.421   3.048  1.4155  0.9404  0.0412
  215MOL0     H29006   4.605   8.333   3.051  3.6101  2.6767  1.5895
  215MOL0     H29007   4.285   7.561   3.242  1.6987  0.3800  1.9170
  215MOL0     H29008   4.317   7.478   3.477  0.0757 -0.5655  0.8715
  215MOL0     H29009   4.007   7.462   3.950 -0.4037 -0.3016  0.2160
  215MOL0     H29010   4.132   7.458   4.176  2.3328  1.0951 -0.3913
  215MOL0     H29011   4.763   7.434   4.874  0.5449 -0.2696 -0.4875
  215MOL0     H29012   4.880   7.679   4.871  0.5324  1.2795  3.5152
  215MOL0     H29013   4.701   8.157   4.943 -1.0772  0.5335 -1.3737
  215MOL0     H29014   4.752   8.374   4.876  0.9430  0.2949  0.4932
  215MOL0     H29015   4.962   8.589   4.647 -1.4651  0.5990  0.4935
  215MOL0     H29016   4.848   8.478   4.685  1.8340 -1.1149 -4.6649
  215MOL0     H29017   4.842   8.610   4.927 -1.1188 -0.7947 -0.6814
  215MOL0     H29018   4.770   8.698   4.791 -0.8598  0.2450  3.1691
  215MOL0     H29019   5.060   8.731   4.869 -0.3082  0.6443 -1.1413
  215MOL0     H29020   4.929   8.816   4.950  1.3911  0.3589  0.5041
  215MOL0     H29021   4.858   8.914   4.747 -0.4249 -1.4776 -1.2030
  215MOL0     H29022   4.953   8.803   4.649  1.7417 -0.0088 -0.0014
  215MOL0     H29023   5.217   9.121   4.798 -0.3042 -0.4388  1.1307
  215MOL0     H29024   5.157   8.272   4.825  1.6444 -1.4828  3.6215
  215MOL0     H29025   5.120   8.056   4.922  0.2140 -0.2217  2.6455
  216MOL0     O29026   0.391   9.796  11.000  0.0619  0.0567 -0.0436
  216MOL0     C29027   0.398   9.735  10.893  0.0672  0.3782 -0.5899
  216MOL0     O29028   0.510   9.658  10.863 -0.0985  0.1857  0.5297
  216MOL0     C29029   0.627   9.671  10.937 -0.7361 -0.5538 -1.1256
  216MOL0     C29030   0.655   9.578  11.038  0.0677  0.4481  0.2284
  216MOL0     C29031   0.776   9.561  11.095  0.3380 -0.3412 -0.1275
  216MOL0     C29032   0.882   9.645  11.068 -0.6587  0.5168 -0.4636
  216MOL0     O29033   1.005   9.603  11.128 -0.0796  0.1288 -0.4961
  216MOL0     C29034   1.085   9.705  11.188 -1.2462 -0.0744  0.3583
  216MOL0     C29035   1.187   9.656  11.292  0.3994 -0.7760 -0.6450
  216MOL0     C29036   1.271   9.531  11.256  0.1784 -0.1115  2.3561
  216MOL0     C29037   1.369   9.498  11.368 -0.0743 -0.9538  0.8785
  216MOL0     C29038   1.475   9.387  11.341  1.0848  0.0088 -0.4696
  216MOL0     C29039   1.566   9.410  11.227  0.5848  0.0562 -0.3594
  216MOL0     C29040   1.696   9.328  11.254  0.2480  0.2473  0.5083
  216MOL0     C29041   1.795   9.360  11.136 -0.1847 -0.0659  0.2814
  216MOL0     N29042   1.757   9.304  11.002  1.2524  0.6120 -0.7237
  216MOL0     C29043   1.757   9.368  10.882 -0.1200 -0.0820 -0.4143
  216MOL0     C29044   1.730   9.270  10.789 -0.7633 -0.7348 -0.5386
  216MOL0     C29045   1.712   9.285  10.645  1.1623  0.4774  0.4476
  216MOL0     C29046   1.573   9.227  10.610  0.5748 -0.2041 -0.3365
  216MOL0     C29047   1.469   9.298  10.698  0.2946  0.5131 -0.3962
  216MOL0     C29048   1.325   9.231  10.676 -0.9416 -0.8715 -0.0596
  216MOL0     O29049   1.218   9.292  10.745  0.0194  0.0387 -0.0308
  216MOL0     C29050   1.192   9.262  10.882  0.0348  0.2178  0.4614
  216MOL0     C29051   1.267   9.165  10.958  0.2386 -0.8027  0.8716
  216MOL0     C29052   1.225   9.125  11.090 -0.0810 -0.2387  0.2958
  216MOL0     C29053   1.314   9.016  11.162  0.2795  0.2269 -0.8500
  216MOL0     C29054   1.107   9.170  11.149 -0.9259  0.1917 -0.5720
  216MOL0     C29055   1.052   9.122  11.280 -0.4584  0.0318  0.1221
  216MOL0     O29056   1.073   8.990  11.316  0.3440  0.7715 -0.0505
  216MOL0     C29057   1.009   8.936  11.422 -0.1468  0.5741 -0.6812
  216MOL0     C29058   1.085   8.889  11.528 -0.3233 -0.6251 -1.1095
  216MOL0     C29059   1.037   8.871  11.658  0.0879 -1.0391 -0.5052
  216MOL0     C29060   0.903   8.882  11.685  0.8829 -0.4890 -0.4072
  216MOL0     O29061   0.854   8.876  11.814  0.3073  0.5010  0.4010
  216MOL0     C29062   0.919   8.794  11.911  0.2984 -0.4642  0.6907
  216MOL0     C29063   0.939   8.646  11.874  0.8438  0.8668  0.5082
  216MOL0     C29064   1.056   8.563  11.935 -0.2062  0.4476  1.0516
  216MOL0     C29065   1.112   8.453  11.847 -0.2069 -0.6154  0.0539
  216MOL0     C29066   1.198   8.361  11.950  0.4372 -1.4731  0.7383
  216MOL0     C29067   1.122   8.247  12.015 -0.1932  0.5234  1.3188
  216MOL0     C29068   1.029   8.284  12.131  0.5149 -1.8871 -0.1886
  216MOL0     C29069   0.982   8.159  12.204 -0.4638  0.6720  0.2560
  216MOL0    Cl29070   0.867   8.178  12.339 -0.1672  0.4425 -0.0141
  216MOL0     C29071   0.813   8.920  11.578  0.1275 -0.0757  0.2052
  216MOL0     C29072   0.860   8.948  11.445  0.1110  0.8473 -0.3983
  216MOL0     O29073   1.011   9.206  11.354 -0.4790 -0.4377  1.0100
  216MOL0     C29074   1.052   9.287  11.090 -0.5072  0.1745  0.8824
  216MOL0     C29075   1.095   9.330  10.958  1.0646  0.9093  0.1982
  216MOL0     N29076   1.702   9.144  10.850  0.5478 -0.9828 -0.0450
  216MOL0     N29077   1.728   9.172  10.973  0.4567  0.0518  0.5561
  216MOL0     C29078   0.854   9.756  10.992 -0.2264  0.1175 -0.3852
  216MOL0     C29079   0.729   9.764  10.924  0.2816 -0.4283 -0.5723
  216MOL0     C29080   0.285   9.733  10.801 -1.0467  0.6395 -1.0483
  216MOL0     C29081   0.162   9.816  10.818 -0.4993 -0.5528  0.2892
  216MOL0     C29082   0.062   9.818  10.719 -1.1098 -0.8466  0.4761
  216MOL0     C29083   0.064   9.725  10.615 -0.4034 -0.4500  0.6130
  216MOL0     O29084  -0.032   9.708  10.523 -0.0643 -0.1733 -0.5530
  216MOL0     C29085  -0.044   9.823  10.439  0.2126 -1.1289 -0.6766
  216MOL0     C29086  -0.080   9.787  10.283 -0.1549 -0.7449 -0.8204
  216MOL0     C29087  -0.223   9.731  10.258 -0.3603  0.1742 -0.2251
  216MOL0     C29088  -0.254   9.688  10.120 -0.5484  0.2860 -0.3708
  216MOL0     C29089  -0.370   9.606  10.112  0.6346 -0.2347 -0.0313
  216MOL0     C29090  -0.467   9.538  10.092  0.0803  0.5576 -0.6966
  216MOL0     C29091   0.175   9.651  10.609 -0.4466  0.8675 -0.3439
  216MOL0     C29092   0.286   9.648  10.693 -0.8507 -0.2973 -0.6176
  216MOL0     H29093   0.577   9.505  11.059 -0.1469  1.0550  1.6257
  216MOL0     H29094   0.794   9.472  11.155  0.6347  1.0227  1.9045
  216MOL0     H29095   1.140   9.756  11.109  3.7371 -0.0349  3.4412
  216MOL0     H29096   1.013   9.774  11.233 -1.1292  2.3138 -2.8130
  216MOL0     H29097   1.255   9.739  11.313 -1.9280  1.5379 -1.6243
  216MOL0     H29098   1.135   9.630  11.384 -0.9683 -2.3128 -1.7912
  216MOL0     H29099   1.207   9.444  11.248 -1.1296  0.9562  0.5312
  216MOL0     H29100   1.311   9.553  11.156  3.1985  1.9263  3.8196
  216MOL0     H29101   1.417   9.594  11.388  1.1052 -1.6444  1.4743
  216MOL0     H29102   1.316   9.480  11.462 -0.2072  1.9573  1.4666
  216MOL0     H29103   1.532   9.367  11.433  3.6230  0.0307 -1.9452
  216MOL0     H29104   1.423   9.292  11.327  0.5494  0.0140  1.2346
  216MOL0     H29105   1.513   9.396  11.132 -1.2331 -1.7255  0.8445
  216MOL0     H29106   1.587   9.517  11.227  1.3425 -0.0888  0.0426
  216MOL0     H29107   1.744   9.349  11.349  2.0509 -0.8231 -0.1298
  216MOL0     H29108   1.680   9.220  11.260  1.8808 -0.1603 -1.3689
  216MOL0     H29109   1.894   9.325  11.167 -0.9296 -0.8184  1.8980
  216MOL0     H29110   1.817   9.466  11.122  2.0948 -0.1650  2.3209
  216MOL0     H29111   1.778   9.471  10.855  4.1788 -0.2820  1.3783
  216MOL0     H29112   1.716   9.387  10.607 -0.1331 -0.2180 -1.6998
  216MOL0     H29113   1.785   9.229  10.586  0.7028  0.2869  0.0541
  216MOL0     H29114   1.571   9.119  10.627  2.3695 -0.7893 -3.1622
  216MOL0     H29115   1.554   9.239  10.503 -2.9398  2.6325  0.4162
  216MOL0     H29116   1.463   9.407  10.691  0.5126  1.1564  5.0665
  216MOL0     H29117   1.483   9.287  10.806  2.0280  4.6958  0.0099
  216MOL0     H29118   1.334   9.122  10.678  2.1177 -0.7757 -1.9762
  216MOL0     H29119   1.308   9.257  10.571  1.6595 -3.6111 -1.3101
  216MOL0     H29120   1.341   9.111  10.901 -0.2787 -0.1218 -0.4922
  216MOL0     H29121   1.306   9.011  11.271  0.1956  0.1260 -0.8595
  216MOL0     H29122   1.297   8.916  11.121  1.3940  0.7931 -2.8162
  216MOL0     H29123   1.417   9.044  11.139  0.4041 -0.2147 -0.8435
  216MOL0     H29124   1.187   8.861  11.503  0.4251  0.0820  0.8950
  216MOL0     H29125   1.100   8.853  11.744 -2.8889  2.2521  2.7536
  216MOL0     H29126   1.012   8.845  11.938 -0.9877  2.4890 -0.0131
  216MOL0     H29127   0.854   8.798  11.998 -0.2917  0.4139  0.2273
  216MOL0     H29128   0.842   8.606  11.904  0.9259 -1.7525 -2.1945
  216MOL0     H29129   0.922   8.624  11.768 -0.0800 -1.3371  1.0675
  216MOL0     H29130   1.036   8.526  12.036 -0.0119 -0.5870  0.7186
  216MOL0     H29131   1.134   8.637  11.957 -1.1873  0.7429  4.0109
  216MOL0     H29132   1.024   8.399  11.810 -2.0316  1.9107  0.4462
  216MOL0     H29133   1.172   8.498  11.767 -0.7424  1.3164  0.6731
  216MOL0     H29134   1.245   8.432  12.019  1.0003  3.3404 -3.9660
  216MOL0     H29135   1.280   8.325  11.887  1.9908  0.5636  1.4570
  216MOL0     H29136   1.071   8.189  11.938  1.1053  1.0805 -0.0010
  216MOL0     H29137   1.196   8.176  12.055 -0.5078 -0.0701  0.8561
  216MOL0     H29138   0.946   8.347  12.098  1.9086  1.5430  2.2846
  216MOL0     H29139   1.086   8.344  12.203 -0.3595  0.6643 -1.4829
  216MOL0     H29140   1.071   8.129  12.260 -1.1728 -3.6814 -0.6108
  216MOL0     H29141   0.953   8.080  12.134  1.9018 -0.4646  0.4467
  216MOL0     H29142   0.709   8.935  11.605 -1.4027 -7.1092  0.3314
  216MOL0     H29143   0.798   8.977  11.361  1.4627 -0.3587 -1.8702
  216MOL0     H29144   0.967   9.343  11.127  1.8392  2.9968  2.3231
  216MOL0     H29145   1.039   9.406  10.904 -1.1410 -1.2684 -0.8095
  216MOL0     H29146   0.938   9.823  10.983 -0.2499  0.6685  2.5041
  216MOL0     H29147   0.718   9.844  10.852  0.9614 -0.8371 -1.1381
  216MOL0     H29148   0.150   9.888  10.898 -0.6594  1.1041 -1.1766
  216MOL0     H29149  -0.023   9.886  10.716  1.1429  2.3885  2.9101
  216MOL0     H29150  -0.133   9.866  10.486  0.6866  0.1249 -0.8656
  216MOL0     H29151   0.032   9.902  10.438 -1.3117  0.4315 -2.7738
  216MOL0     H29152  -0.009   9.714  10.243 -2.3314 -3.1446 -0.6253
  216MOL0     H29153  -0.057   9.878  10.228 -2.1805 -0.0133 -0.5500
  216MOL0     H29154  -0.289   9.812  10.291  0.2490  1.0369 -1.0737
  216MOL0     H29155  -0.239   9.651  10.331  2.2903  1.9775  2.6270
  216MOL0     H29156  -0.173   9.635  10.070  0.5583  0.3945  1.2229
  216MOL0     H29157  -0.272   9.783  10.069 -2.3260  0.6315  0.8093
  216MOL0     H29158  -0.554   9.476  10.100  0.8967 -0.5774 -0.3899
  216MOL0     H29159   0.185   9.587  10.522  0.9997 -2.1995  1.9103
  216MOL0     H29160   0.379   9.594  10.678 -0.6529  0.3040 -1.6535
  217MOL0     O29161   4.901   0.192   1.449 -0.3688 -0.4038  0.0810
  217MOL0     C29162   4.893   0.117   1.542  0.8186 -1.1196 -0.0255
  217MOL0     O29163   4.877   0.159   1.668 -0.3794  0.1580 -0.2248
  217MOL0     C29164   4.891   0.290   1.701 -0.7763  0.6928  0.1377
  217MOL0     C29165   4.776   0.365   1.725  0.0981  0.6307 -0.4082
  217MOL0     C29166   4.786   0.505   1.770  0.0536 -0.0560  0.0517
  217MOL0     C29167   4.913   0.561   1.778  0.0195 -0.3978  0.5057
  217MOL0     O29168   4.914   0.692   1.804 -0.2814 -0.1790  0.3734
  217MOL0     C29169   5.018   0.728   1.891  0.2878 -0.2731 -0.7883
  217MOL0     C29170   4.948   0.821   1.992  0.7145 -0.2971  0.9455
  217MOL0     C29171   4.840   0.753   2.078 -0.5269  0.1121 -0.2922
  217MOL0     C29172   4.901   0.657   2.184  0.6749  0.6033 -0.0526
  217MOL0     C29173   4.823   0.674   2.322 -0.3850 -0.2868 -0.2596
  217MOL0     C29174   4.899   0.590   2.432  0.6011 -0.5383 -0.0600
  217MOL0     C29175   5.026   0.649   2.486  0.0053  0.3578 -1.1077
  217MOL0     C29176   5.081   0.563   2.610  0.3263  0.0196  0.1273
  217MOL0     N29177   5.197   0.630   2.668 -0.6685  0.3457  0.2341
  217MOL0     C29178   5.206   0.744   2.744 -0.2429  0.4399  0.0268
  217MOL0     C29179   5.342   0.758   2.773  0.1491  0.1870  0.5140
  217MOL0     C29180   5.409   0.874   2.844 -0.8837  0.3965  0.9172
  217MOL0     C29181   5.435   0.996   2.767 -0.5844  0.2135  0.4247
  217MOL0     C29182   5.489   0.976   2.622  1.1023  1.0560 -0.1026
  217MOL0     C29183   5.500   1.109   2.563  1.0135 -0.3524 -0.1378
  217MOL0     O29184   5.601   1.186   2.621 -0.1223 -0.6627  0.2366
  217MOL0     C29185   5.642   1.311   2.568  0.3291 -0.0330 -0.1308
  217MOL0     C29186   5.745   1.387   2.636  0.1834  0.0686 -0.5474
  217MOL0     C29187   5.792   1.512   2.608  0.0733  1.1051 -0.2623
  217MOL0     C29188   5.899   1.571   2.707  0.7537 -0.3760  0.2384
  217MOL0     C29189   5.740   1.573   2.486  0.7530  0.0280 -0.3130
  217MOL0     C29190   5.783   1.709   2.431  0.2582 -0.2765 -0.5400
  217MOL0     O29191   5.716   1.755   2.326  0.5263 -0.1081 -0.1471
  217MOL0     C29192   5.778   1.847   2.242  0.8684 -1.1038 -0.1317
  217MOL0     C29193   5.824   1.794   2.120  0.0747 -0.6070 -0.6638
  217MOL0     C29194   5.875   1.876   2.025 -0.0822  0.2149 -0.1297
  217MOL0     C29195   5.887   2.015   2.036 -0.4451  0.4426 -0.9534
  217MOL0     O29196   5.938   2.097   1.942 -0.1238  0.6633 -0.5712
  217MOL0     C29197   6.076   2.071   1.906  0.4723  1.3914 -0.8415
  217MOL0     C29198   6.100   2.096   1.752 -0.4936  0.2659 -0.3454
  217MOL0     C29199   6.101   1.968   1.676  0.1186 -0.1271  0.0352
  217MOL0     C29200   6.132   1.968   1.528 -0.1212  0.2027 -0.3346
  217MOL0     C29201   6.131   1.823   1.465  0.6748  0.2730 -0.1514
  217MOL0     C29202   5.992   1.752   1.472 -0.9851  0.7250 -0.3860
  217MOL0     C29203   5.987   1.609   1.432 -0.6845 -0.5936 -0.0426
  217MOL0     C29204   5.843   1.569   1.420 -0.0876 -0.5918 -0.1165
  217MOL0    Cl29205   5.821   1.387   1.454 -0.2649 -0.0109 -0.0873
  217MOL0     C29206   5.852   2.071   2.157 -0.0538 -0.2730 -0.0619
  217MOL0     C29207   5.786   1.986   2.260 -0.3846 -0.4421 -0.1857
  217MOL0     O29208   5.856   1.777   2.494  0.4707  0.6119 -1.0099
  217MOL0     C29209   5.639   1.501   2.417  0.4432  0.8504 -0.4000
  217MOL0     C29210   5.588   1.374   2.453  0.2641  0.7503 -0.6673
  217MOL0     N29211   5.411   0.651   2.707  0.6924  0.8234  0.0422
  217MOL0     N29212   5.318   0.563   2.669 -0.1219 -0.3252 -0.4931
  217MOL0     C29213   5.028   0.483   1.747  0.1030 -0.9015  0.0307
  217MOL0     C29214   5.016   0.344   1.713 -0.4562 -0.1840  0.8075
  217MOL0     C29215   4.898  -0.022   1.512 -0.8316  0.2324 -0.4392
  217MOL0     C29216   4.874  -0.074   1.387 -0.2024  0.1090  0.3158
  217MOL0     C29217   4.883  -0.214   1.368  0.2193 -0.5780  0.7405
  217MOL0     C29218   4.909  -0.307   1.469  0.4790 -0.0542 -0.0147
  217MOL0     O29219   4.898  -0.446   1.454 -0.2607 -0.2066  0.0063
  217MOL0     C29220   4.866  -0.488   1.321 -0.5598  0.4034  0.4486
  217MOL0     C29221   4.854  -0.639   1.324  0.7256 -0.3950  0.1856
  217MOL0     C29222   4.996  -0.708   1.314 -0.2495  0.5446 -0.0115
  217MOL0     C29223   4.984  -0.854   1.254 -0.3905 -0.7944 -0.2278
  217MOL0     C29224   4.899  -0.931   1.343  1.1956 -1.2073 -0.1422
  217MOL0     C29225   4.821  -0.994   1.418  0.0100 -0.3678 -0.7686
  217MOL0     C29226   4.942  -0.250   1.589  0.0118  0.2419 -0.9334
  217MOL0     C29227   4.937  -0.109   1.615  0.3988  0.4395 -0.7156
  217MOL0     H29228   4.680   0.316   1.716  0.2189 -0.0610  1.5630
  217MOL0     H29229   4.694   0.558   1.793  1.2126  1.2162  2.0441
  217MOL0     H29230   5.077   0.650   1.941  1.1964 -1.5492 -3.6038
  217MOL0     H29231   5.086   0.792   1.834  0.3786  0.0252 -0.3482
  217MOL0     H29232   5.007   0.884   2.060 -2.3558  2.2619  1.4634
  217MOL0     H29233   4.892   0.892   1.930  0.0449 -2.2639 -0.8194
  217MOL0     H29234   4.781   0.826   2.133 -2.2171 -3.0927  2.4918
  217MOL0     H29235   4.770   0.705   2.009 -2.1541  3.1225 -0.8880
  217MOL0     H29236   4.896   0.551   2.158  2.9849 -0.0133  1.6877
  217MOL0     H29237   5.007   0.680   2.195  0.4371  0.8441  1.9548
  217MOL0     H29238   4.812   0.781   2.341 -2.9615 -0.6934  0.8466
  217MOL0     H29239   4.722   0.638   2.300  0.6443 -1.5550 -3.5062
  217MOL0     H29240   4.833   0.573   2.518 -1.1522  1.0969 -1.0086
  217MOL0     H29241   4.929   0.493   2.391  1.7910 -0.3645  0.3356
  217MOL0     H29242   5.092   0.659   2.400  1.2045  0.7496 -0.1759
  217MOL0     H29243   5.000   0.749   2.521 -2.6745 -0.4910 -0.4683
  217MOL0     H29244   5.110   0.465   2.571 -1.1087 -1.2952  2.1564
  217MOL0     H29245   4.993   0.544   2.672  0.5946 -3.4132 -0.3688
  217MOL0     H29246   5.126   0.809   2.776  0.2905  0.1577  2.0636
  217MOL0     H29247   5.356   0.896   2.937  0.1749  2.2087  1.1468
  217MOL0     H29248   5.512   0.848   2.870 -1.2366 -2.2389  0.0014
  217MOL0     H29249   5.521   1.042   2.816 -0.5604 -2.6663  3.3996
  217MOL0     H29250   5.353   1.069   2.767  0.7232  1.7453 -0.3052
  217MOL0     H29251   5.416   0.937   2.551 -0.2506  1.7933  0.8463
  217MOL0     H29252   5.578   0.912   2.621  0.3272 -0.0479 -0.3383
  217MOL0     H29253   5.410   1.170   2.579  0.1879 -2.2386  3.6863
  217MOL0     H29254   5.512   1.083   2.457  1.9458 -0.6419  0.0334
  217MOL0     H29255   5.801   1.331   2.710 -1.0406  1.7224  1.7635
  217MOL0     H29256   5.866   1.674   2.725 -2.4914 -1.3635  0.5012
  217MOL0     H29257   5.898   1.517   2.802 -0.6776  0.0118  0.4724
  217MOL0     H29258   6.006   1.571   2.683  1.4322  2.4979  2.5956
  217MOL0     H29259   5.824   1.687   2.103  3.2229 -0.7360 -0.3994
  217MOL0     H29260   5.905   1.834   1.929 -0.5127  3.0075 -1.5740
  217MOL0     H29261   6.146   2.142   1.952  0.9599 -0.3663  1.2619
  217MOL0     H29262   6.114   1.972   1.933 -0.5321  1.6050  1.5979
  217MOL0     H29263   6.043   2.176   1.705 -2.4286 -1.0286 -0.3097
  217MOL0     H29264   6.202   2.136   1.748 -0.5460  0.4514  0.1359
  217MOL0     H29265   6.003   1.922   1.690  1.8419 -3.8004  1.0366
  217MOL0     H29266   6.180   1.904   1.715  1.4612 -0.6574 -3.1947
  217MOL0     H29267   6.063   2.037   1.478 -0.7232  0.6251  1.0470
  217MOL0     H29268   6.231   2.011   1.506  1.0552 -2.2359 -0.0511
  217MOL0     H29269   6.204   1.770   1.527  1.6107  1.3839 -0.2483
  217MOL0     H29270   6.166   1.823   1.361  0.3430  2.2141 -0.3109
  217MOL0     H29271   5.946   1.763   1.571  0.9022 -1.2690  0.7916
  217MOL0     H29272   5.939   1.800   1.389  0.5571  2.6058 -0.3410
  217MOL0     H29273   6.035   1.547   1.508 -0.3218 -2.4733 -1.6987
  217MOL0     H29274   6.044   1.597   1.339 -0.1354 -0.6965  0.2992
  217MOL0     H29275   5.814   1.587   1.316 -1.9392 -0.6202  0.3609
  217MOL0     H29276   5.773   1.627   1.481 -3.4313 -2.6407 -1.6883
  217MOL0     H29277   5.868   2.175   2.184 -0.4034 -0.2759  0.1677
  217MOL0     H29278   5.762   2.039   2.352 -2.1719 -1.5611  0.0291
  217MOL0     H29279   5.590   1.547   2.332 -1.3625 -0.5582 -0.1689
  217MOL0     H29280   5.500   1.343   2.398 -0.8591  1.5870  0.5830
  217MOL0     H29281   5.126   0.528   1.754 -0.3576  0.0283  0.7828
  217MOL0     H29282   5.105   0.288   1.685 -1.6900 -2.1388  0.6525
  217MOL0     H29283   4.859  -0.015   1.297  5.3692  2.3111  0.4100
  217MOL0     H29284   4.868  -0.234   1.263  0.1590  4.0092 -0.3457
  217MOL0     H29285   4.770  -0.445   1.292 -0.2264  0.4036 -0.7149
  217MOL0     H29286   4.948  -0.465   1.252 -0.3928 -0.9416  0.1783
  217MOL0     H29287   4.790  -0.667   1.240 -0.1104  1.1769  0.2536
  217MOL0     H29288   4.797  -0.664   1.415 -0.7677  2.0124  0.0129
  217MOL0     H29289   5.038  -0.714   1.415 -1.1657 -0.9232  0.3121
  217MOL0     H29290   5.064  -0.654   1.246 -2.9849  1.3990 -2.2551
  217MOL0     H29291   5.086  -0.893   1.263 -0.4704 -0.4885  4.6359
  217MOL0     H29292   4.943  -0.857   1.153 -1.5724  3.7364 -0.1118
  217MOL0     H29293   4.746  -1.048   1.470  2.7462 -1.9491  1.8362
  217MOL0     H29294   4.970  -0.320   1.667 -0.2621 -0.7240 -1.6898
  217MOL0     H29295   4.968  -0.073   1.712  0.5380  1.3256 -1.0830
  218MOL0     O29296   5.964   0.865   1.523  0.6215 -0.6875  0.5100
  218MOL0     C29297   5.999   0.922   1.422 -0.2639 -0.2625  0.8653
  218MOL0     O29298   6.051   1.047   1.411  0.6304  0.0346  0.2811
  218MOL0     C29299   6.072   1.130   1.518 -0.8137 -0.6850  0.4544
  218MOL0     C29300   6.122   1.254   1.478 -1.0789 -1.2555  0.8534
  218MOL0     C29301   6.173   1.351   1.574  0.2957  0.8381  0.0942
  218MOL0     C29302   6.177   1.321   1.709 -0.6607  1.4268  0.4359
  218MOL0     O29303   6.229   1.418   1.791  0.8599 -0.5119  0.7417
  218MOL0     C29304   6.257   1.383   1.924 -0.2206  0.3917 -0.2025
  218MOL0     C29305   6.374   1.463   1.966  0.0899 -0.0157 -0.8880
  218MOL0     C29306   6.351   1.616   2.009  0.1066 -0.2683 -0.1013
  218MOL0     C29307   6.300   1.633   2.149 -0.0707  0.1048  1.5360
  218MOL0     C29308   6.208   1.751   2.188 -0.1470  0.5004  0.0636
  218MOL0     C29309   6.287   1.883   2.193 -0.8186  0.6960  0.7045
  218MOL0     C29310   6.203   2.011   2.230 -0.1141  0.2754 -0.8597
  218MOL0     C29311   6.281   2.135   2.266 -0.0833 -0.6993  1.7542
  218MOL0     N29312   6.392   2.157   2.163  0.8747  0.9401 -0.7910
  218MOL0     C29313   6.399   2.258   2.068 -0.9348  0.0574  0.4837
  218MOL0     C29314   6.527   2.249   2.016 -0.4521 -1.0001 -0.1948
  218MOL0     C29315   6.601   2.325   1.908 -0.9178 -0.8976 -0.1156
  218MOL0     C29316   6.651   2.459   1.978  0.4166  0.3695  0.2019
  218MOL0     C29317   6.741   2.563   1.894  0.3505 -0.4257 -0.3555
  218MOL0     C29318   6.797   2.675   1.983  0.3379 -0.2515  0.4826
  218MOL0     O29319   6.847   2.779   1.897 -0.3773 -0.1563  0.2312
  218MOL0     C29320   6.755   2.868   1.842 -0.5729  0.5869 -0.8156
  218MOL0     C29321   6.794   2.929   1.715  0.3683  0.3603  0.1817
  218MOL0     C29322   6.714   3.038   1.671 -1.5079 -0.6519  0.3122
  218MOL0     C29323   6.763   3.101   1.547  0.5010 -0.0195  1.4633
  218MOL0     C29324   6.607   3.080   1.741 -0.3633 -0.4812 -0.5141
  218MOL0     C29325   6.542   3.222   1.711  0.9272  0.4288 -0.9720
  218MOL0     O29326   6.463   3.273   1.807 -0.4017  0.1447 -0.4163
  218MOL0     C29327   6.428   3.407   1.820 -1.0012  0.6188 -0.4150
  218MOL0     C29328   6.469   3.513   1.747  0.2090 -0.0658  0.3061
  218MOL0     C29329   6.429   3.648   1.759 -0.9353  0.0065  0.9124
  218MOL0     C29330   6.340   3.688   1.847  1.3512  0.4983 -0.0568
  218MOL0     O29331   6.291   3.817   1.870 -0.4196  0.5980  0.0634
  218MOL0     C29332   6.313   3.915   1.763 -0.7560  0.2482 -0.2239
  218MOL0     C29333   6.210   4.023   1.802  0.5650 -0.1988 -0.0392
  218MOL0     C29334   6.213   4.143   1.718 -0.3862  0.7438  0.0749
  218MOL0     C29335   6.066   4.199   1.712  0.0873 -0.0981 -0.7436
  218MOL0     C29336   6.073   4.340   1.643  0.0348 -0.9313 -0.2340
  218MOL0     C29337   6.114   4.446   1.743 -0.5505  0.5626 -0.1222
  218MOL0     C29338   6.105   4.586   1.687 -0.0447  0.4509 -0.5986
  218MOL0     C29339   6.111   4.689   1.804  0.4504  0.2243 -0.5183
  218MOL0    Cl29340   6.111   4.858   1.743 -0.2261 -0.5083 -0.0874
  218MOL0     C29341   6.289   3.592   1.931 -0.0444 -0.5540 -0.4918
  218MOL0     C29342   6.333   3.449   1.919 -0.9624 -0.1536  0.4552
  218MOL0     O29343   6.565   3.279   1.604 -0.3464  0.8782 -0.0095
  218MOL0     C29344   6.572   3.022   1.858 -1.4507 -0.3549  0.1640
  218MOL0     C29345   6.652   2.921   1.912  0.0070 -0.0101  0.2407
  218MOL0     N29346   6.588   2.147   2.083  0.5365 -0.0765 -0.5992
  218MOL0     N29347   6.509   2.099   2.166  0.0448  0.6725 -0.3311
  218MOL0     C29348   6.118   1.200   1.739 -0.3891 -0.1078 -0.5566
  218MOL0     C29349   6.058   1.117   1.656 -0.2044 -0.2527  0.0100
  218MOL0     C29350   6.004   0.837   1.306 -0.6857 -1.1061  0.9257
  218MOL0     C29351   6.081   0.888   1.197  0.6037 -0.3254  0.7577
  218MOL0     C29352   6.078   0.815   1.082 -0.8201 -0.5974  0.1240
  218MOL0     C29353   6.025   0.691   1.067  0.6908 -0.1530  0.5184
  218MOL0     O29354   6.040   0.628   0.942 -0.8866 -0.0101 -0.2087
  218MOL0     C29355   6.046   0.486   0.946  0.1668  0.4858  0.3551
  218MOL0     C29356   6.174   0.417   1.015 -0.6264 -0.5191 -0.0206
  218MOL0     C29357   6.299   0.487   0.949 -1.0904 -0.6824 -0.1983
  218MOL0     C29358   6.433   0.432   1.000 -0.0126 -0.0055 -0.1120
  218MOL0     C29359   6.460   0.298   0.944  0.2365 -0.1933  0.3330
  218MOL0     C29360   6.477   0.191   0.891 -0.1817 -0.1027  0.9438
  218MOL0     C29361   5.951   0.639   1.181 -0.6689  0.3587  0.0573
  218MOL0     C29362   5.939   0.713   1.294 -0.8269  0.0974 -0.7016
  218MOL0     H29363   6.138   1.273   1.373  0.5904 -2.8354  0.7877
  218MOL0     H29364   6.222   1.441   1.539 -0.1144  0.6039 -1.1367
  218MOL0     H29365   6.166   1.395   1.983  0.8206 -1.8274  2.0674
  218MOL0     H29366   6.272   1.275   1.940 -1.6609  0.2397  0.2972
  218MOL0     H29367   6.418   1.401   2.045 -3.3947  1.1826  2.2790
  218MOL0     H29368   6.444   1.466   1.882 -0.9230 -1.4783 -1.8112
  218MOL0     H29369   6.444   1.672   1.995 -0.6035  0.7941 -0.7045
  218MOL0     H29370   6.277   1.655   1.939  1.4840 -0.3906 -1.6954
  218MOL0     H29371   6.249   1.538   2.167 -1.2338  0.8133  2.0841
  218MOL0     H29372   6.395   1.627   2.202  1.2788  1.4382 -0.5853
  218MOL0     H29373   6.119   1.764   2.125 -2.3402  0.6731  2.9932
  218MOL0     H29374   6.174   1.745   2.292 -0.3766 -1.5664 -0.0853
  218MOL0     H29375   6.370   1.868   2.263 -0.7418  1.2530  0.7365
  218MOL0     H29376   6.334   1.921   2.102 -2.8666 -0.1490 -0.7824
  218MOL0     H29377   6.133   2.028   2.148 -0.4572  1.4047 -0.3592
  218MOL0     H29378   6.142   2.000   2.320  0.0142  4.2090 -0.0935
  218MOL0     H29379   6.317   2.151   2.368  3.3395  1.5991  0.3781
  218MOL0     H29380   6.217   2.223   2.255  2.6480  1.1721 -1.1383
  218MOL0     H29381   6.328   2.329   2.028 -1.0584  1.1088  2.4561
  218MOL0     H29382   6.681   2.268   1.860  1.6353  4.0485 -2.4972
  218MOL0     H29383   6.540   2.349   1.820 -4.2537 -0.0996  2.2201
  218MOL0     H29384   6.705   2.433   2.070  0.0405 -2.4495 -0.2780
  218MOL0     H29385   6.559   2.508   2.011  1.2397  0.7249  2.1223
  218MOL0     H29386   6.676   2.602   1.816 -0.2190  3.2655  1.7446
  218MOL0     H29387   6.825   2.506   1.852 -0.8644 -0.6071 -2.6839
  218MOL0     H29388   6.874   2.643   2.053 -0.5202 -1.0142  1.0967
  218MOL0     H29389   6.712   2.703   2.047  1.6794 -2.3838  3.4130
  218MOL0     H29390   6.877   2.893   1.656 -0.0667 -0.2394 -0.0740
  218MOL0     H29391   6.848   3.045   1.507  0.1558  1.3462 -1.4241
  218MOL0     H29392   6.689   3.100   1.467  2.2078  1.0458 -0.2227
  218MOL0     H29393   6.807   3.200   1.566  0.1179  0.6619 -0.8531
  218MOL0     H29394   6.554   3.492   1.683  2.3971 -0.6373  3.1820
  218MOL0     H29395   6.476   3.726   1.700  2.1807 -2.7198 -0.5348
  218MOL0     H29396   6.416   3.950   1.776 -1.0422  0.3736  2.1627
  218MOL0     H29397   6.294   3.878   1.662  1.7763  1.4959 -1.2471
  218MOL0     H29398   6.112   3.976   1.798  0.8575 -0.7216 -3.3228
  218MOL0     H29399   6.220   4.048   1.908 -1.5903  2.1067 -0.3022
  218MOL0     H29400   6.252   4.119   1.619  3.9819 -3.1536  2.3889
  218MOL0     H29401   6.284   4.205   1.773 -0.0956  1.8154 -1.4505
  218MOL0     H29402   6.005   4.124   1.661  0.1920 -0.1889 -0.7361
  218MOL0     H29403   6.032   4.212   1.815  0.9861 -1.2459 -0.2726
  218MOL0     H29404   5.971   4.364   1.612 -0.7527 -0.5917  2.3917
  218MOL0     H29405   6.142   4.323   1.560  0.7421 -4.3616  0.8777
  218MOL0     H29406   6.047   4.431   1.829  3.7004 -2.3467  3.1138
  218MOL0     H29407   6.216   4.425   1.777 -0.7441  2.9139  2.2701
  218MOL0     H29408   6.018   4.609   1.624  0.4691 -0.7828 -1.8081
  218MOL0     H29409   6.195   4.588   1.625  2.9135 -0.7217  3.3304
  218MOL0     H29410   6.189   4.670   1.878 -0.5720  0.3241  0.6053
  218MOL0     H29411   6.029   4.684   1.876  0.4213  0.6617 -0.5151
  218MOL0     H29412   6.221   3.622   2.010  2.4507  1.0229  1.1760
  218MOL0     H29413   6.289   3.368   1.975 -0.1236 -0.9152  0.0393
  218MOL0     H29414   6.497   3.071   1.919 -0.0773  1.6349  0.3628
  218MOL0     H29415   6.618   2.896   2.012 -0.9716 -1.8422 -0.4979
  218MOL0     H29416   6.102   1.181   1.844 -0.4133  1.0457 -0.3377
  218MOL0     H29417   5.999   1.038   1.700 -2.5506  0.5243 -1.5667
  218MOL0     H29418   6.149   0.972   1.207 -0.5549  0.5247  1.8542
  218MOL0     H29419   6.141   0.847   1.000 -0.0354 -1.1339  0.5038
  218MOL0     H29420   5.962   0.436   0.996 -0.6652  0.4258 -1.0592
  218MOL0     H29421   6.057   0.458   0.841 -1.4724 -2.0489  0.7749
  218MOL0     H29422   6.163   0.309   1.003 -5.8912 -0.5503  2.6717
  218MOL0     H29423   6.180   0.429   1.123 -2.9073 -0.1111  0.1025
  218MOL0     H29424   6.297   0.594   0.969  1.5935 -0.6360  0.2143
  218MOL0     H29425   6.295   0.487   0.840 -1.7767 -0.2842 -0.1767
  218MOL0     H29426   6.420   0.422   1.108  0.9064  2.3309  0.2758
  218MOL0     H29427   6.522   0.493   0.986  2.1445 -3.1808 -1.5317
  218MOL0     H29428   6.483   0.093   0.849  1.7571 -0.7252  2.5176
  218MOL0     H29429   5.917   0.536   1.174 -1.2659  0.3647  2.2951
  218MOL0     H29430   5.884   0.664   1.374  3.7759 -0.7818  2.3682
  219MOL0     O29431   4.696   8.145  10.295  0.3096 -0.4848 -0.4669
  219MOL0     C29432   4.798   8.125  10.235 -0.1565  1.2167  0.9717
  219MOL0     O29433   4.913   8.197  10.248  0.6861  0.3534  0.0114
  219MOL0     C29434   4.899   8.317  10.310 -1.1657  0.3426  0.4183
  219MOL0     C29435   4.957   8.337  10.439 -1.3588 -1.0228  0.0372
  219MOL0     C29436   4.950   8.454  10.513  0.6436 -0.9782 -0.5455
  219MOL0     C29437   4.877   8.559  10.456 -0.6226 -1.0134 -0.3187
  219MOL0     O29438   4.882   8.678  10.533 -0.3257 -0.5761 -0.6539
  219MOL0     C29439   4.775   8.775  10.510 -0.0904  0.2623  0.6677
  219MOL0     C29440   4.787   8.893  10.596  0.3236 -0.4209  0.0863
  219MOL0     C29441   4.810   8.863  10.747  0.8241 -0.4140 -0.3073
  219MOL0     C29442   4.716   8.766  10.807  0.7038  0.8447  0.5939
  219MOL0     C29443   4.726   8.745  10.963  0.0183  0.7021 -0.1204
  219MOL0     C29444   4.617   8.650  11.026  0.3293  0.5989 -0.3113
  219MOL0     C29445   4.631   8.635  11.173 -0.3715  0.4284 -0.4571
  219MOL0     C29446   4.512   8.560  11.241  0.1077  0.0455  0.5151
  219MOL0     N29447   4.548   8.515  11.375  0.1558 -0.2280  0.2855
  219MOL0     C29448   4.525   8.391  11.437  0.8734 -0.4525 -0.2103
  219MOL0     C29449   4.579   8.409  11.560  0.0774  0.7579  0.1472
  219MOL0     C29450   4.595   8.295  11.662 -0.2695 -0.3234  0.7729
  219MOL0     C29451   4.734   8.228  11.646 -0.1287  0.4110  0.1756
  219MOL0     C29452   4.833   8.308  11.729 -0.1269 -0.0712  0.6852
  219MOL0     C29453   4.970   8.257  11.723 -0.2306  0.6445 -0.7980
  219MOL0     O29454   5.049   8.326  11.823  0.5540 -0.2860  0.6296
  219MOL0     C29455   5.173   8.277  11.850 -1.0677  0.9294  0.0063
  219MOL0     C29456   5.261   8.193  11.776  0.3981  0.4813 -0.6047
  219MOL0     C29457   5.388   8.151  11.814 -0.7390 -0.5864  0.1978
  219MOL0     C29458   5.478   8.059  11.741  0.1102  0.8023  0.0077
  219MOL0     C29459   5.444   8.213  11.931  0.6138 -0.3077  0.1777
  219MOL0     C29460   5.587   8.205  11.980 -0.4495 -0.2964 -0.0964
  219MOL0     O29461   5.615   8.173  12.111 -0.7738  0.7035  0.7373
  219MOL0     C29462   5.713   8.241  12.171 -0.0697 -0.2780  0.0397
  219MOL0     C29463   5.804   8.167  12.240  0.8792  0.2901 -0.3215
  219MOL0     C29464   5.917   8.214  12.307  0.2961  0.3735  1.2076
  219MOL0     C29465   5.941   8.350  12.300  0.1659  0.3300  0.2076
  219MOL0     O29466   6.038   8.397  12.383  0.3429  0.0766  0.0798
  219MOL0     C29467   6.162   8.401  12.319  0.4180 -0.6924 -0.1906
  219MOL0     C29468   6.262   8.462  12.413 -0.1395  0.9215  0.3170
  219MOL0     C29469   6.249   8.606  12.461 -0.2585  0.5782 -0.0685
  219MOL0     C29470   6.244   8.715  12.354 -0.3419  0.8860 -0.8720
  219MOL0     C29471   6.363   8.726  12.264 -0.2429  0.3461 -0.7073
  219MOL0     C29472   6.381   8.864  12.193 -0.5934 -0.8814 -0.3149
  219MOL0     C29473   6.254   8.890  12.110  0.1432  0.1859 -0.3584
  219MOL0     C29474   6.268   9.011  12.009 -0.8924  0.8092  0.8022
  219MOL0    Cl29475   6.414   8.976  11.912  0.4147 -0.1873 -0.3420
  219MOL0     C29476   5.854   8.431  12.228  0.4862 -0.2546 -0.3047
  219MOL0     C29477   5.738   8.375  12.166  0.5908  0.1229 -0.2229
  219MOL0     O29478   5.668   8.228  11.896 -0.3437 -0.4384  0.1618
  219MOL0     C29479   5.363   8.302  12.001 -0.4681 -0.0690  0.4114
  219MOL0     C29480   5.233   8.333  11.961  0.1525 -0.0495  0.1475
  219MOL0     N29481   4.647   8.533  11.556 -0.7741 -0.0542  0.3695
  219MOL0     N29482   4.623   8.599  11.458  0.7425 -0.3886  1.3889
  219MOL0     C29483   4.818   8.549  10.330 -0.8332 -0.4823 -0.0358
  219MOL0     C29484   4.842   8.428  10.251  0.6533  0.1008  0.3891
  219MOL0     C29485   4.800   8.017  10.135 -0.3208  0.5441 -1.0903
  219MOL0     C29486   4.685   7.948  10.095 -0.5066 -0.4758  0.3504
  219MOL0     C29487   4.702   7.832  10.013  0.6151 -0.0409  0.6795
  219MOL0     C29488   4.826   7.798   9.947  0.2374  0.0365 -0.3240
  219MOL0     O29489   4.841   7.715   9.847 -0.3344  0.1533 -0.3770
  219MOL0     C29490   4.745   7.743   9.738  0.1875  0.0804 -0.6191
  219MOL0     C29491   4.833   7.804   9.617  0.5091  0.8929 -0.4220
  219MOL0     C29492   4.831   7.953   9.621 -0.3581 -0.0323 -0.2274
  219MOL0     C29493   4.948   8.004   9.542 -0.0869  0.6763  0.8048
  219MOL0     C29494   4.955   8.145   9.551  0.0924 -0.2100 -0.1948
  219MOL0     C29495   4.967   8.265   9.573 -0.9504  0.6413  0.1773
  219MOL0     C29496   4.936   7.885   9.983  0.9010  0.5928  0.4629
  219MOL0     C29497   4.924   7.987  10.073 -0.4959 -0.8093  0.2015
  219MOL0     H29498   5.004   8.262  10.502 -1.2549  0.0044  1.2342
  219MOL0     H29499   4.974   8.455  10.619  3.5709  0.7362 -1.1185
  219MOL0     H29500   4.766   8.815  10.409 -0.4645 -1.2113  0.0917
  219MOL0     H29501   4.680   8.725  10.534 -0.0816  0.2478  0.6726
  219MOL0     H29502   4.869   8.961  10.568  0.8199 -0.9568  0.2229
  219MOL0     H29503   4.692   8.942  10.573  1.3794  0.8359 -1.9414
  219MOL0     H29504   4.914   8.832  10.763  0.7713 -0.4376 -0.0109
  219MOL0     H29505   4.798   8.957  10.801 -2.6668  1.6232 -4.1218
  219MOL0     H29506   4.616   8.802  10.781  1.1299  0.8468 -1.1264
  219MOL0     H29507   4.735   8.674  10.751 -2.0314  1.2512 -1.1519
  219MOL0     H29508   4.820   8.701  10.997  0.3003  0.2388 -1.4210
  219MOL0     H29509   4.712   8.844  11.008 -1.3348  0.7322 -0.5834
  219MOL0     H29510   4.513   8.679  11.008 -0.9320 -3.8040 -1.5120
  219MOL0     H29511   4.628   8.549  10.984 -1.2315  0.2971 -0.0726
  219MOL0     H29512   4.722   8.576  11.185  0.5874  1.9696  0.0676
  219MOL0     H29513   4.640   8.730  11.226  0.8485  0.2524 -0.3258
  219MOL0     H29514   4.479   8.478  11.177  0.2939  0.9621 -0.8075
  219MOL0     H29515   4.428   8.628  11.262  1.2556  1.0855  1.9703
  219MOL0     H29516   4.460   8.316  11.395 -2.0178  0.5509  2.1464
  219MOL0     H29517   4.578   8.337  11.762 -2.8742  3.8721 -1.1296
  219MOL0     H29518   4.507   8.233  11.642 -1.0191  1.1382 -0.7421
  219MOL0     H29519   4.770   8.210  11.544  2.8925 -1.8772  1.4914
  219MOL0     H29520   4.731   8.133  11.699  1.9838  1.8479  3.1969
  219MOL0     H29521   4.798   8.302  11.832 -0.8412 -2.2356  0.3583
  219MOL0     H29522   4.839   8.409  11.686 -0.4067 -0.4361 -0.2297
  219MOL0     H29523   5.018   8.288  11.630  1.9124 -0.6362 -0.1715
  219MOL0     H29524   4.972   8.148  11.730  1.3952  0.7325  0.9085
  219MOL0     H29525   5.220   8.150  11.685  0.4149 -1.6545  0.3189
  219MOL0     H29526   5.530   8.110  11.660  0.2706  0.6084 -0.0120
  219MOL0     H29527   5.543   8.003  11.808 -0.2496  2.4422  1.8239
  219MOL0     H29528   5.417   7.976  11.703 -0.8678 -0.0632  3.1494
  219MOL0     H29529   5.783   8.061  12.238  0.5757  0.3459 -0.1131
  219MOL0     H29530   5.982   8.143  12.356 -0.2678 -1.7129 -0.8915
  219MOL0     H29531   6.194   8.298  12.301 -2.5344 -2.1761  2.2103
  219MOL0     H29532   6.164   8.459  12.226  2.5738  0.2049  0.3565
  219MOL0     H29533   6.271   8.400  12.503  1.4719  1.8116  0.8109
  219MOL0     H29534   6.355   8.461  12.355 -1.6827  2.3877 -2.3846
  219MOL0     H29535   6.336   8.627  12.524  1.9039 -2.1374 -1.9144
  219MOL0     H29536   6.158   8.608  12.522 -0.7526 -0.6558 -0.7330
  219MOL0     H29537   6.145   8.701  12.309 -1.0491  0.7936  0.6536
  219MOL0     H29538   6.242   8.809  12.410  2.5881  0.7150 -0.3266
  219MOL0     H29539   6.349   8.647  12.190 -0.6005  1.8460 -2.3130
  219MOL0     H29540   6.447   8.704  12.330  0.0723 -0.6394 -1.4101
  219MOL0     H29541   6.397   8.943  12.267  1.7825 -2.0653  0.5407
  219MOL0     H29542   6.470   8.866  12.130 -0.1730  0.4335  0.2932
  219MOL0     H29543   6.185   8.906  12.193  2.8044 -1.0580  2.2952
  219MOL0     H29544   6.236   8.796  12.057  1.7149  1.3579 -3.2517
  219MOL0     H29545   6.270   9.109  12.058  1.6681  1.7661 -0.9919
  219MOL0     H29546   6.186   9.018  11.936  0.2645  0.0736 -0.6244
  219MOL0     H29547   5.884   8.533  12.206  1.7220  0.7464  4.7158
  219MOL0     H29548   5.685   8.451  12.109  0.2368  2.0346  2.4933
  219MOL0     H29549   5.411   8.342  12.090  3.7763  0.3464 -1.8189
  219MOL0     H29550   5.174   8.403  12.019  1.6204 -0.2136  1.9347
  219MOL0     H29551   4.782   8.635  10.275 -1.2292 -1.9088 -2.0672
  219MOL0     H29552   4.800   8.425  10.151 -0.6469 -2.0757  0.9291
  219MOL0     H29553   4.583   7.952  10.132 -0.7378  2.7599 -0.3314
  219MOL0     H29554   4.618   7.767   9.994 -0.1261  1.6425 -2.3176
  219MOL0     H29555   4.704   7.643   9.717 -0.6823  0.2451  0.2114
  219MOL0     H29556   4.663   7.813   9.754  0.2925  0.5090 -1.8761
  219MOL0     H29557   4.792   7.760   9.526  0.1581 -1.0392  0.6203
  219MOL0     H29558   4.935   7.766   9.625 -0.3725 -3.1357 -4.4596
  219MOL0     H29559   4.843   7.976   9.727 -3.3188 -2.8508  0.9002
  219MOL0     H29560   4.738   7.996   9.583  2.3266  2.8385 -4.4972
  219MOL0     H29561   4.947   7.975   9.437  2.5482  0.7264  0.6866
  219MOL0     H29562   5.036   7.961   9.591 -0.2366 -2.1899 -1.2041
  219MOL0     H29563   4.991   8.369   9.583 -0.3267  0.6415 -1.1219
  219MOL0     H29564   5.028   7.855   9.933 -0.3566  0.4028 -1.8980
  219MOL0     H29565   5.018   8.031  10.106  1.2031 -4.0277  0.1266
  220MOL0     O29566   0.200   0.706   6.884 -0.0913 -1.0357  0.6975
  220MOL0     C29567   0.280   0.643   6.944  0.6978  0.5462 -0.5618
  220MOL0     O29568   0.376   0.702   7.025  0.4196 -0.2361 -0.1101
  220MOL0     C29569   0.385   0.832   7.077  0.8993 -0.2598 -0.0483
  220MOL0     C29570   0.316   0.942   7.017 -0.1405  0.1564 -0.1627
  220MOL0     C29571   0.339   1.064   7.076  0.5148 -0.0925 -0.7105
  220MOL0     C29572   0.435   1.088   7.178 -0.0290 -0.5948  1.3740
  220MOL0     O29573   0.455   1.217   7.227  0.2383  0.7241  0.2187
  220MOL0     C29574   0.336   1.282   7.280 -0.4589  0.5571  0.2130
  220MOL0     C29575   0.365   1.288   7.430 -0.8042  0.2742  0.0649
  220MOL0     C29576   0.273   1.402   7.500 -0.7339  0.5852 -0.6628
  220MOL0     C29577   0.292   1.381   7.650  0.7852  0.3295  1.1800
  220MOL0     C29578   0.214   1.477   7.737 -0.5011 -0.9289 -0.5335
  220MOL0     C29579   0.237   1.630   7.707 -0.4798 -0.5797  0.0135
  220MOL0     C29580   0.156   1.731   7.792 -0.3408 -0.1231 -0.1490
  220MOL0     C29581   0.192   1.871   7.736 -0.4825 -0.9369  0.1411
  220MOL0     N29582   0.114   1.982   7.797 -0.4642 -1.3607  0.3372
  220MOL0     C29583   0.161   2.117   7.777  0.5961 -0.1475  0.6448
  220MOL0     C29584   0.059   2.186   7.828 -0.3054  0.7001  1.5046
  220MOL0     C29585   0.063   2.339   7.824  1.1634 -0.7017  0.1947
  220MOL0     C29586   0.067   2.391   7.975  0.4593  1.5780  0.6880
  220MOL0     C29587  -0.078   2.404   8.033  0.2456 -0.8256 -0.4571
  220MOL0     C29588  -0.191   2.471   7.957 -0.2903 -1.3416  0.0497
  220MOL0     O29589  -0.190   2.617   7.974 -0.0192 -0.3486  0.4077
  220MOL0     C29590  -0.282   2.679   7.902  1.4063 -0.2619  0.1416
  220MOL0     C29591  -0.375   2.630   7.805 -0.5492 -0.0690 -0.4768
  220MOL0     C29592  -0.475   2.719   7.749 -0.0479  0.7322  0.8592
  220MOL0     C29593  -0.583   2.643   7.665  0.1824 -0.3785 -0.2956
  220MOL0     C29594  -0.486   2.852   7.798  0.1211 -0.7226  0.6835
  220MOL0     C29595  -0.605   2.941   7.764  0.3649  0.3571 -0.7775
  220MOL0     O29596  -0.672   2.988   7.873  0.7449  0.5717 -0.0535
  220MOL0     C29597  -0.784   3.055   7.853 -0.3444  1.2732  0.4244
  220MOL0     C29598  -0.891   2.994   7.794 -0.3653  0.2694  0.7778
  220MOL0     C29599  -1.010   3.066   7.766 -0.5249  0.3480 -0.2294
  220MOL0     C29600  -1.023   3.202   7.818 -0.3463 -0.4698  0.6515
  220MOL0     O29601  -1.143   3.268   7.799  0.9290 -0.0912 -0.5627
  220MOL0     C29602  -1.160   3.405   7.850  0.5788 -0.3923  0.1577
  220MOL0     C29603  -1.296   3.452   7.811  0.4223  0.6329  1.0150
  220MOL0     C29604  -1.310   3.475   7.658 -0.1052  0.1557  0.1761
  220MOL0     C29605  -1.436   3.529   7.614 -0.6779 -0.0516 -1.4211
  220MOL0     C29606  -1.429   3.572   7.468  0.0225  0.5660  0.8775
  220MOL0     C29607  -1.569   3.611   7.402  0.0453  0.4565 -0.2197
  220MOL0     C29608  -1.570   3.656   7.253  0.6917 -0.3124  0.4343
  220MOL0     C29609  -1.527   3.798   7.231 -0.2882 -0.0060 -0.6581
  220MOL0    Cl29610  -1.554   3.850   7.059  0.2117  0.0422  0.1374
  220MOL0     C29611  -0.910   3.266   7.875 -0.8605 -0.3639  0.6616
  220MOL0     C29612  -0.792   3.185   7.898 -0.1086 -0.1608  0.3309
  220MOL0     O29613  -0.647   2.956   7.650 -0.9699  0.3444 -0.2294
  220MOL0     C29614  -0.389   2.894   7.888  0.1839  0.6607  0.0474
  220MOL0     C29615  -0.283   2.812   7.939  0.0313 -0.7229 -0.2629
  220MOL0     N29616  -0.034   2.102   7.884  0.7395  0.5190  0.1052
  220MOL0     N29617   0.005   1.979   7.871  0.6050  0.3765 -0.1348
  220MOL0     C29618   0.496   0.974   7.243  0.9975 -0.3021 -0.8210
  220MOL0     C29619   0.471   0.847   7.187  0.3135 -0.8148 -0.6256
  220MOL0     C29620   0.288   0.497   6.926 -1.1211 -0.2579  0.5117
  220MOL0     C29621   0.186   0.433   6.858  0.4292  0.2692  0.2332
  220MOL0     C29622   0.190   0.293   6.842 -0.7940  1.3860 -0.3006
  220MOL0     C29623   0.295   0.220   6.897 -0.5319  0.4614 -0.0038
  220MOL0     O29624   0.281   0.080   6.890 -0.4254 -0.2211  0.3979
  220MOL0     C29625   0.364  -0.009   6.964  0.9306 -0.2396 -0.0087
  220MOL0     C29626   0.354  -0.149   6.908 -0.0025 -0.5403  0.0925
  220MOL0     C29627   0.448  -0.173   6.791 -0.1816  0.2339  0.3782
  220MOL0     C29628   0.396  -0.287   6.714 -0.0054  0.9896 -0.4862
  220MOL0     C29629   0.498  -0.342   6.626 -0.4939  0.0455 -0.6986
  220MOL0     C29630   0.588  -0.373   6.550 -0.3110  0.0466 -0.2541
  220MOL0     C29631   0.398   0.284   6.969 -0.5197  0.6357  0.1291
  220MOL0     C29632   0.392   0.425   6.984 -0.5454 -0.0094 -0.4989
  220MOL0     H29633   0.266   0.930   6.922  0.2770  1.8979 -0.6425
  220MOL0     H29634   0.287   1.151   7.038 -0.3604  0.6285  1.9454
  220MOL0     H29635   0.333   1.384   7.242 -1.0954  0.6220  0.4337
  220MOL0     H29636   0.240   1.230   7.271  0.4945 -1.0815 -1.1896
  220MOL0     H29637   0.355   1.190   7.477  1.6010 -0.4042 -0.7388
  220MOL0     H29638   0.468   1.325   7.434  0.1954 -2.2826  4.0890
  220MOL0     H29639   0.302   1.501   7.465 -2.3014  0.3336 -2.8735
  220MOL0     H29640   0.171   1.381   7.468 -1.0954  0.3970  0.5560
  220MOL0     H29641   0.247   1.285   7.674  0.9825 -0.0125  0.2271
  220MOL0     H29642   0.400   1.378   7.669  0.5472 -0.4361  2.5363
  220MOL0     H29643   0.108   1.453   7.733 -0.4421 -1.5863  1.0827
  220MOL0     H29644   0.234   1.461   7.844  1.3445  0.6524 -0.5889
  220MOL0     H29645   0.338   1.669   7.724 -1.6686  3.6950 -1.2326
  220MOL0     H29646   0.222   1.648   7.600  0.8346  0.1392 -0.0778
  220MOL0     H29647   0.049   1.710   7.794 -0.5035  0.6545  2.1833
  220MOL0     H29648   0.190   1.722   7.895 -2.7043  1.0910  0.8155
  220MOL0     H29649   0.177   1.861   7.628 -1.1311 -0.2514  0.1603
  220MOL0     H29650   0.298   1.888   7.755 -0.4642  2.2429 -2.0234
  220MOL0     H29651   0.254   2.150   7.732 -0.3404  1.6741 -0.0561
  220MOL0     H29652   0.139   2.387   7.762  0.8481  0.3951  0.6225
  220MOL0     H29653  -0.021   2.387   7.774  1.6557  0.3649  0.3434
  220MOL0     H29654   0.111   2.492   7.974  2.0927  0.8922 -0.0947
  220MOL0     H29655   0.109   2.314   8.040 -1.9899 -2.1288 -1.7797
  220MOL0     H29656  -0.070   2.460   8.127  0.8940 -2.8821  0.7934
  220MOL0     H29657  -0.112   2.302   8.053 -4.0063  0.2212 -1.4389
  220MOL0     H29658  -0.284   2.431   7.997 -0.2940 -0.7539  0.6357
  220MOL0     H29659  -0.185   2.451   7.849  3.2525  1.5815 -0.4796
  220MOL0     H29660  -0.369   2.529   7.766  3.1243 -1.8429  3.8400
  220MOL0     H29661  -0.667   2.632   7.734  0.5714  1.1447  0.4549
  220MOL0     H29662  -0.623   2.688   7.574 -1.0845 -1.1863 -0.1630
  220MOL0     H29663  -0.562   2.539   7.637 -0.6506 -0.8244  0.6859
  220MOL0     H29664  -0.882   2.894   7.754 -0.8810  0.6898 -0.4356
  220MOL0     H29665  -1.093   3.017   7.717  1.1419 -0.8338 -2.0399
  220MOL0     H29666  -1.145   3.423   7.957  0.0513 -0.5361  0.2572
  220MOL0     H29667  -1.081   3.467   7.806 -1.8273  0.8630 -2.7185
  220MOL0     H29668  -1.366   3.376   7.845  0.3249  0.2156 -0.0934
  220MOL0     H29669  -1.326   3.546   7.858 -1.4211  1.5423 -1.7773
  220MOL0     H29670  -1.283   3.386   7.601  1.2733  2.1380 -2.4842
  220MOL0     H29671  -1.227   3.542   7.635 -1.2591  1.5374 -0.0975
  220MOL0     H29672  -1.509   3.451   7.636  2.3523 -2.3306  1.5576
  220MOL0     H29673  -1.469   3.617   7.669 -0.6493 -0.3124 -0.9855
  220MOL0     H29674  -1.383   3.492   7.409  1.9449  1.2627  1.3511
  220MOL0     H29675  -1.363   3.659   7.472  0.8720 -0.0597  0.8314
  220MOL0     H29676  -1.641   3.528   7.401  1.3970 -0.7514 -0.3050
  220MOL0     H29677  -1.622   3.686   7.461  0.4730 -0.2322  1.0781
  220MOL0     H29678  -1.671   3.651   7.212  0.9962  2.3189 -0.7832
  220MOL0     H29679  -1.499   3.590   7.201  0.8960  1.2292 -1.3370
  220MOL0     H29680  -1.424   3.821   7.259 -0.7374  1.7068 -0.2929
  220MOL0     H29681  -1.584   3.868   7.293  0.2635 -0.2013  0.0828
  220MOL0     H29682  -0.918   3.369   7.908  2.9225  0.2225  0.1702
  220MOL0     H29683  -0.700   3.216   7.945 -0.5125 -0.5042  1.3853
  220MOL0     H29684  -0.391   2.990   7.939 -1.5936 -0.2927  1.9545
  220MOL0     H29685  -0.214   2.856   8.011  0.0587  2.0516 -1.8291
  220MOL0     H29686   0.562   0.998   7.326  2.7423 -1.0136 -1.9581
  220MOL0     H29687   0.521   0.762   7.233 -2.1282 -1.2967  1.3610
  220MOL0     H29688   0.107   0.498   6.821 -0.0156  0.2411  1.0945
  220MOL0     H29689   0.107   0.242   6.794 -0.2340  0.6393 -0.4939
  220MOL0     H29690   0.467   0.027   6.963  0.8698  0.1002  1.9008
  220MOL0     H29691   0.337  -0.010   7.070 -1.1061  1.4270 -0.4556
  220MOL0     H29692   0.250  -0.178   6.891 -0.0577  0.0042 -0.5636
  220MOL0     H29693   0.387  -0.219   6.985  0.0968  0.3518  0.8756
  220MOL0     H29694   0.547  -0.200   6.828 -1.0722  0.6086  3.3208
  220MOL0     H29695   0.448  -0.090   6.720 -2.6555 -1.7918 -2.1907
  220MOL0     H29696   0.301  -0.264   6.664 -3.1883 -2.1360  3.3943
  220MOL0     H29697   0.365  -0.370   6.779  0.5130 -1.1585 -2.8357
  220MOL0     H29698   0.670  -0.395   6.486  0.8982  3.9146 -0.2752
  220MOL0     H29699   0.473   0.220   7.015 -0.6701 -0.1176 -0.6503
  220MOL0     H29700   0.464   0.466   7.054  0.9544 -4.6117  1.0313
  221MOL0     O29701   3.317   2.997   4.859 -0.2542  0.0680 -1.0240
  221MOL0     C29702   3.229   2.957   4.781 -0.1472 -0.2093 -0.2585
  221MOL0     O29703   3.159   3.033   4.689  0.6331 -0.7814 -0.7761
  221MOL0     C29704   3.146   3.173   4.695  0.2126 -0.4336  0.7979
  221MOL0     C29705   3.164   3.250   4.810  0.2102 -0.7107 -0.0727
  221MOL0     C29706   3.141   3.388   4.816  0.5078 -0.0930  0.5513
  221MOL0     C29707   3.086   3.457   4.707 -0.6077 -0.9013  0.0260
  221MOL0     O29708   3.067   3.588   4.720 -0.2336  0.3503 -0.3593
  221MOL0     C29709   2.993   3.655   4.614  0.3413 -0.3954  0.4152
  221MOL0     C29710   3.028   3.806   4.634 -0.5386 -0.0269  0.1357
  221MOL0     C29711   2.922   3.898   4.570 -1.2586  0.0743  0.2558
  221MOL0     C29712   2.970   4.039   4.588  0.5605 -0.0474  0.0623
  221MOL0     C29713   2.866   4.135   4.515  0.7466  0.0110  0.2644
  221MOL0     C29714   2.818   4.113   4.370 -0.2182  0.1444  0.0800
  221MOL0     C29715   2.701   4.203   4.317  0.0238 -0.1581  0.0502
  221MOL0     C29716   2.562   4.144   4.321  0.8744  0.0420  0.0995
  221MOL0     N29717   2.541   4.088   4.465 -0.8350  0.5283  0.2951
  221MOL0     C29718   2.504   4.155   4.576 -0.1264 -0.6872  0.1798
  221MOL0     C29719   2.466   4.059   4.665 -0.2028  0.2315 -0.0067
  221MOL0     C29720   2.395   4.089   4.792  0.8737 -0.5057 -0.4354
  221MOL0     C29721   2.497   4.067   4.915  0.4317 -0.5566 -0.0062
  221MOL0     C29722   2.585   4.205   4.957 -0.4692  0.3228  0.0304
  221MOL0     C29723   2.699   4.242   4.858  0.3509 -0.0150 -0.2043
  221MOL0     O29724   2.769   4.363   4.898  0.0065  0.6343 -0.1170
  221MOL0     C29725   2.896   4.354   4.949 -0.0450 -0.1601 -0.5544
  221MOL0     C29726   2.927   4.256   5.042 -1.1036  0.5978  0.6023
  221MOL0     C29727   3.059   4.247   5.099  0.8788  0.6649 -0.4121
  221MOL0     C29728   3.071   4.132   5.199  0.2485 -0.8777  0.1783
  221MOL0     C29729   3.157   4.344   5.065 -0.5985 -0.0116 -0.2385
  221MOL0     C29730   3.296   4.353   5.119 -0.3325 -0.5380  0.6052
  221MOL0     O29731   3.343   4.258   5.202 -0.3015  0.2366 -0.0485
  221MOL0     C29732   3.458   4.260   5.277  0.9308 -0.1772  0.9189
  221MOL0     C29733   3.453   4.196   5.394 -0.3013  0.3214  0.6176
  221MOL0     C29734   3.561   4.199   5.483 -0.1473  1.2580  1.0037
  221MOL0     C29735   3.671   4.287   5.461 -0.4733 -0.1480  0.2670
  221MOL0     O29736   3.767   4.302   5.554 -0.2600  0.0589  0.3642
  221MOL0     C29737   3.747   4.419   5.631 -0.1543 -0.2398 -0.1440
  221MOL0     C29738   3.879   4.466   5.682  0.4860 -0.0869 -0.5901
  221MOL0     C29739   3.883   4.590   5.762 -0.5977 -0.3587 -0.7363
  221MOL0     C29740   3.835   4.706   5.672  1.0197  0.6792  0.2040
  221MOL0     C29741   3.859   4.836   5.743 -1.1388  0.1758  0.2776
  221MOL0     C29742   3.767   4.862   5.863 -0.5071 -0.5679 -0.2314
  221MOL0     C29743   3.813   5.002   5.915 -0.6310  0.8051 -0.3512
  221MOL0     C29744   3.715   5.070   6.009 -0.5872  0.2778 -0.2038
  221MOL0    Cl29745   3.558   5.092   5.912 -0.4274 -0.1608 -0.1663
  221MOL0     C29746   3.682   4.355   5.335  1.1527 -0.0659 -0.5990
  221MOL0     C29747   3.576   4.330   5.246  0.1882  0.6160 -0.5356
  221MOL0     O29748   3.353   4.453   5.096 -0.2001 -0.0260 -0.0359
  221MOL0     C29749   3.120   4.451   4.974 -0.3159  0.4003  0.6687
  221MOL0     C29750   2.989   4.458   4.931  0.5876 -0.4846  1.0472
  221MOL0     N29751   2.502   3.934   4.611  0.2055  0.1016  0.1343
  221MOL0     N29752   2.540   3.952   4.494 -0.1019  0.3842  0.0828
  221MOL0     C29753   3.055   3.377   4.596 -0.8327 -0.5293  1.3978
  221MOL0     C29754   3.093   3.245   4.583 -0.5355  0.8573 -0.4442
  221MOL0     C29755   3.193   2.806   4.785  0.0379 -0.4493  1.3894
  221MOL0     C29756   3.087   2.753   4.710 -0.6913  0.2464  1.6733
  221MOL0     C29757   3.069   2.618   4.705  0.2455  0.2891  0.5246
  221MOL0     C29758   3.145   2.533   4.787  0.1506 -0.0286  0.4352
  221MOL0     O29759   3.112   2.402   4.778 -0.6215  1.0624  0.3585
  221MOL0     C29760   3.126   2.314   4.889 -0.0834 -0.3374  0.7414
  221MOL0     C29761   3.058   2.189   4.843 -0.4978 -0.6316 -0.3405
  221MOL0     C29762   3.053   2.073   4.940  1.5362 -0.7302  0.9937
  221MOL0     C29763   2.967   2.123   5.065 -0.1357 -0.5750  0.5553
  221MOL0     C29764   2.932   2.011   5.149 -0.7639 -0.1862 -0.1130
  221MOL0     C29765   2.909   1.911   5.215 -0.3840  0.6499 -0.5432
  221MOL0     C29766   3.251   2.584   4.859  0.2107  0.2288 -0.2178
  221MOL0     C29767   3.278   2.715   4.854  0.4862  0.3627  0.3336
  221MOL0     H29768   3.211   3.197   4.892  1.0897  0.2364  0.0492
  221MOL0     H29769   3.153   3.437   4.912 -2.5221  1.3092  0.3228
  221MOL0     H29770   3.025   3.641   4.510 -0.8575  3.0536 -0.5830
  221MOL0     H29771   2.885   3.637   4.610  0.1217  0.9771 -1.0245
  221MOL0     H29772   3.033   3.832   4.740 -4.5488 -1.3576  0.8234
  221MOL0     H29773   3.123   3.822   4.583  0.7812  1.3821  2.8246
  221MOL0     H29774   2.921   3.873   4.463  0.1693 -0.7066  0.4069
  221MOL0     H29775   2.824   3.861   4.601 -0.9236 -2.2673 -1.2282
  221MOL0     H29776   2.957   4.058   4.695  0.4333 -1.4613  0.3205
  221MOL0     H29777   3.072   4.048   4.550  1.2843 -0.1856  1.8645
  221MOL0     H29778   2.772   4.127   4.571  1.2241 -1.9971  0.8685
  221MOL0     H29779   2.906   4.236   4.517  1.8090 -0.3761 -0.5594
  221MOL0     H29780   2.911   4.125   4.313  2.7772 -2.9066  3.7066
  221MOL0     H29781   2.794   4.009   4.351 -1.1594  0.7547 -2.5429
  221MOL0     H29782   2.702   4.298   4.371 -0.6216  0.5658 -1.1769
  221MOL0     H29783   2.727   4.235   4.215 -1.2009  1.9991  0.3441
  221MOL0     H29784   2.558   4.061   4.250  0.1228 -0.8748  1.1906
  221MOL0     H29785   2.482   4.216   4.301  0.8681  0.1714  0.5631
  221MOL0     H29786   2.499   4.262   4.594 -2.7064 -1.0425  2.2260
  221MOL0     H29787   2.355   4.190   4.805  0.8327 -0.7501  1.6870
  221MOL0     H29788   2.312   4.018   4.790  0.9138 -0.5670 -2.5820
  221MOL0     H29789   2.568   3.987   4.895  1.1879  0.0052  0.3676
  221MOL0     H29790   2.425   4.042   4.994 -1.7091 -2.8821 -2.4934
  221MOL0     H29791   2.640   4.184   5.049  1.0291 -1.1256 -1.1457
  221MOL0     H29792   2.522   4.294   4.968 -0.7741  0.0575  0.4917
  221MOL0     H29793   2.663   4.263   4.757 -0.2877 -1.4261 -0.2983
  221MOL0     H29794   2.766   4.157   4.841  4.0214  2.5950 -0.0631
  221MOL0     H29795   2.848   4.190   5.076 -2.7232  2.6894  1.1061
  221MOL0     H29796   3.172   4.092   5.187  1.2491  1.5863 -0.2263
  221MOL0     H29797   3.066   4.162   5.304 -2.8038 -1.1489  0.1913
  221MOL0     H29798   3.001   4.054   5.169 -2.5540  0.2875  3.2027
  221MOL0     H29799   3.356   4.148   5.405 -1.8119  2.7363 -1.0931
  221MOL0     H29800   3.566   4.124   5.562  0.7122 -2.9347 -2.6357
  221MOL0     H29801   3.688   4.497   5.582  0.2295  1.0994  1.4349
  221MOL0     H29802   3.693   4.384   5.720  2.9562 -0.9496  1.6250
  221MOL0     H29803   3.909   4.380   5.742  0.7716  0.5759  0.2382
  221MOL0     H29804   3.954   4.482   5.604  2.8387  0.2762  1.6055
  221MOL0     H29805   3.983   4.610   5.802 -1.1668  0.4902  0.3219
  221MOL0     H29806   3.825   4.581   5.854 -1.0273 -2.2489 -1.1640
  221MOL0     H29807   3.896   4.708   5.581 -0.7851 -2.0864 -1.2007
  221MOL0     H29808   3.730   4.697   5.641  0.9673  0.8580  0.3243
  221MOL0     H29809   3.859   4.912   5.664  0.2193 -0.4848 -0.3883
  221MOL0     H29810   3.963   4.828   5.776 -1.2628 -2.1074  0.3408
  221MOL0     H29811   3.662   4.859   5.833 -0.3789  0.6641 -0.8846
  221MOL0     H29812   3.799   4.789   5.939  1.2228  1.0430  0.6910
  221MOL0     H29813   3.858   5.067   5.840  2.2067  0.6941  1.1035
  221MOL0     H29814   3.905   4.975   5.967 -0.5708  1.8098  0.0835
  221MOL0     H29815   3.759   5.162   6.048  0.6175  0.5269 -2.0560
  221MOL0     H29816   3.696   5.009   6.098  3.0677 -0.5129  0.1761
  221MOL0     H29817   3.765   4.414   5.296  0.0949  1.4961 -0.5627
  221MOL0     H29818   3.592   4.389   5.157  1.8685  2.4778  0.9154
  221MOL0     H29819   3.198   4.516   4.938  1.3066 -2.1324 -0.7057
  221MOL0     H29820   2.968   4.533   4.855 -0.7520 -0.9555  0.9185
  221MOL0     H29821   3.015   3.420   4.506  0.5361 -2.5757 -0.2848
  221MOL0     H29822   3.082   3.195   4.487 -2.8351  2.3848 -1.0551
  221MOL0     H29823   3.014   2.824   4.671  2.7323  1.0221 -4.6844
  221MOL0     H29824   2.981   2.580   4.653 -1.4479  1.5014  2.3382
  221MOL0     H29825   3.230   2.306   4.922 -0.7776  1.0246  3.5784
  221MOL0     H29826   3.068   2.346   4.976  4.0627  2.8421  2.6887
  221MOL0     H29827   3.115   2.164   4.754  0.0471  2.2489 -0.9207
  221MOL0     H29828   2.954   2.216   4.822 -0.2983 -1.3529 -2.3989
  221MOL0     H29829   3.154   2.048   4.973  1.6585  0.3580  1.5048
  221MOL0     H29830   3.000   1.989   4.895  0.6528 -1.0754  2.6006
  221MOL0     H29831   2.871   2.156   5.026  0.8918  0.4779 -1.2613
  221MOL0     H29832   3.017   2.193   5.133 -1.2090 -2.8667  3.9704
  221MOL0     H29833   2.900   1.825   5.278 -0.7904  0.5932 -0.6730
  221MOL0     H29834   3.305   2.510   4.916 -0.2069 -0.8173 -1.1362
  221MOL0     H29835   3.353   2.749   4.925  0.7534 -1.7163  1.1194
  222MOL0     O29836  11.261   3.794   4.883  0.5908  0.3342 -0.0950
  222MOL0     C29837  11.350   3.851   4.952  0.6430 -0.6733 -0.0191
  222MOL0     O29838  11.444   3.787   5.029  0.1503  0.1573 -0.1102
  222MOL0     C29839  11.428   3.653   5.057 -0.1571  0.3797 -0.1046
  222MOL0     C29840  11.396   3.608   5.187  0.7059 -0.1084  0.0625
  222MOL0     C29841  11.384   3.471   5.203  0.2649  0.3249 -0.6223
  222MOL0     C29842  11.397   3.384   5.094  0.5026  0.2306  1.2867
  222MOL0     O29843  11.380   3.258   5.108 -0.0152  0.5983 -0.0273
  222MOL0     C29844  11.434   3.185   5.213  0.0684 -0.4154 -0.5465
  222MOL0     C29845  11.350   3.059   5.233  0.3571  1.2259 -0.0881
  222MOL0     C29846  11.354   2.974   5.108  0.1942 -0.0806  0.5633
  222MOL0     C29847  11.269   2.841   5.119 -0.1022 -0.0485 -0.4406
  222MOL0     C29848  11.267   2.752   4.998 -0.9529  0.5652  0.2073
  222MOL0     C29849  11.241   2.820   4.867  0.0481  0.6883 -0.3043
  222MOL0     C29850  11.251   2.726   4.746 -0.1399 -0.8083 -0.3828
  222MOL0     C29851  11.192   2.794   4.629 -0.5352 -0.3667 -0.2909
  222MOL0     N29852  11.197   2.715   4.508 -0.5878 -0.0024 -0.0122
  222MOL0     C29853  11.168   2.577   4.502  0.5054 -0.2678 -0.2761
  222MOL0     C29854  11.177   2.544   4.368 -0.0677  0.2153  0.9578
  222MOL0     C29855  11.158   2.405   4.310 -1.0149  0.4737 -0.2965
  222MOL0     C29856  11.250   2.310   4.386  0.5341  0.2158  0.6106
  222MOL0     C29857  11.170   2.243   4.497 -0.4032 -0.2292 -0.5842
  222MOL0     C29858  11.260   2.133   4.566  0.5170 -0.4516 -0.3249
  222MOL0     O29859  11.226   2.118   4.711 -0.6706 -0.7131  0.3831
  222MOL0     C29860  11.317   2.161   4.806  0.1600  0.4211 -0.6295
  222MOL0     C29861  11.303   2.110   4.938  0.6440  0.4047 -0.6674
  222MOL0     C29862  11.387   2.140   5.053 -0.2245  0.0620  0.5877
  222MOL0     C29863  11.347   2.096   5.189 -0.7034  0.9590 -0.6779
  222MOL0     C29864  11.497   2.232   5.023 -0.1666 -0.4107 -0.1153
  222MOL0     C29865  11.592   2.267   5.127 -0.5514 -0.0049  0.0188
  222MOL0     O29866  11.631   2.397   5.148  0.2090  0.5035  0.0890
  222MOL0     C29867  11.746   2.431   5.227  0.1200 -0.8602 -0.1440
  222MOL0     C29868  11.743   2.559   5.285  0.6823 -0.4621  0.4246
  222MOL0     C29869  11.853   2.603   5.354 -0.1144 -0.0742 -0.8957
  222MOL0     C29870  11.968   2.525   5.360 -0.4310  0.1918 -0.5489
  222MOL0     O29871  12.067   2.563   5.452  0.5123  0.2155  0.7074
  222MOL0     C29872  12.167   2.474   5.510 -0.0969  0.4075  0.8558
  222MOL0     C29873  12.258   2.549   5.602  0.1559  0.1852  0.0406
  222MOL0     C29874  12.329   2.663   5.527  0.5142  0.1176 -0.1071
  222MOL0     C29875  12.447   2.608   5.445 -0.7545 -0.1729  0.5918
  222MOL0     C29876  12.543   2.716   5.384 -0.5813 -1.5468  0.3636
  222MOL0     C29877  12.470   2.803   5.279 -0.0313  0.4244 -0.7250
  222MOL0     C29878  12.540   2.938   5.248 -0.0741  0.7101 -0.2982
  222MOL0     C29879  12.459   3.021   5.150  0.0899  0.3742 -0.0427
  222MOL0    Cl29880  12.546   3.177   5.121 -0.0297  0.1007 -0.2085
  222MOL0     C29881  11.979   2.409   5.283  0.6603 -0.3341 -0.1400
  222MOL0     C29882  11.867   2.358   5.209  0.3107  0.6116  0.0798
  222MOL0     O29883  11.643   2.169   5.182 -0.2169 -0.5234 -0.6288
  222MOL0     C29884  11.509   2.292   4.894 -0.0925 -0.0725 -0.4370
  222MOL0     C29885  11.416   2.260   4.786 -0.5267 -0.1903 -1.1406
  222MOL0     N29886  11.198   2.670   4.303 -0.6435  0.7403  0.3455
  222MOL0     N29887  11.219   2.763   4.382  0.3492 -0.4926  0.4305
  222MOL0     C29888  11.426   3.434   4.961  0.3124  0.7592 -0.2659
  222MOL0     C29889  11.441   3.566   4.945 -0.5567 -0.6125 -0.5474
  222MOL0     C29890  11.350   4.002   4.958 -0.6808 -0.5819  0.3605
  222MOL0     C29891  11.435   4.076   5.039 -0.1967  1.0286 -0.3051
  222MOL0     C29892  11.434   4.215   5.048 -0.9248  0.1193 -0.6246
  222MOL0     C29893  11.341   4.284   4.979  1.1482 -0.3963  0.2471
  222MOL0     O29894  11.333   4.425   4.977  0.0306  0.4863 -0.7918
  222MOL0     C29895  11.462   4.488   4.975  0.1794 -0.0704  0.8130
  222MOL0     C29896  11.511   4.544   5.104 -0.3864 -1.1228  0.1600
  222MOL0     C29897  11.427   4.670   5.154 -0.2709  1.2767  0.2986
  222MOL0     C29898  11.413   4.794   5.063  0.7808 -0.0713  0.3310
  222MOL0     C29899  11.297   4.870   5.123 -0.3982 -0.3558 -0.3258
  222MOL0     C29900  11.218   4.932   5.196  0.9081  0.7971 -0.3663
  222MOL0     C29901  11.249   4.221   4.889  0.3738 -0.5811  0.0072
  222MOL0     C29902  11.257   4.077   4.884  0.3805  0.7041  0.3134
  222MOL0     H29903  11.384   3.677   5.271  4.0819 -0.0503  0.6484
  222MOL0     H29904  11.365   3.433   5.302  0.5429 -2.4150 -1.5447
  222MOL0     H29905  11.536   3.169   5.175  0.0725  2.4149 -1.9847
  222MOL0     H29906  11.424   3.239   5.307  0.0452 -0.2519 -0.6438
  222MOL0     H29907  11.390   3.002   5.318 -0.1011 -0.5099 -0.9792
  222MOL0     H29908  11.246   3.086   5.254  0.4168  1.7229 -0.4329
  222MOL0     H29909  11.321   3.038   5.026  2.6865  1.0448  0.3541
  222MOL0     H29910  11.458   2.953   5.081 -0.6309 -0.1837 -3.0828
  222MOL0     H29911  11.327   2.778   5.187 -1.2367 -0.0521  0.5823
  222MOL0     H29912  11.165   2.863   5.148 -0.5958  0.6688 -2.5654
  222MOL0     H29913  11.362   2.699   4.997 -1.6708 -0.8108  1.3478
  222MOL0     H29914  11.180   2.687   5.013 -0.9613 -0.0322 -2.1558
  222MOL0     H29915  11.141   2.862   4.881  1.0960  2.7360  1.8176
  222MOL0     H29916  11.311   2.901   4.846  1.5037 -0.0954  1.2642
  222MOL0     H29917  11.358   2.710   4.733  0.6326  1.7074  1.9919
  222MOL0     H29918  11.213   2.627   4.774 -3.4050  1.0053  2.4608
  222MOL0     H29919  11.250   2.884   4.605 -0.7752 -0.3267 -0.7367
  222MOL0     H29920  11.085   2.811   4.643 -0.3494  0.3167  0.3796
  222MOL0     H29921  11.123   2.517   4.581 -2.2739  3.5026  1.2901
  222MOL0     H29922  11.056   2.366   4.306  0.1017 -2.5844 -2.5225
  222MOL0     H29923  11.190   2.405   4.206  3.9260  0.4366  0.9691
  222MOL0     H29924  11.334   2.369   4.425 -1.1202  2.1105  1.5108
  222MOL0     H29925  11.282   2.229   4.321  0.5106  0.7620 -0.0994
  222MOL0     H29926  11.081   2.192   4.458 -0.0014  0.0569 -1.8948
  222MOL0     H29927  11.132   2.315   4.570  0.3906  0.7295 -1.1011
  222MOL0     H29928  11.360   2.173   4.551  1.1455 -2.2578 -1.2888
  222MOL0     H29929  11.252   2.043   4.504 -0.2273  0.9148 -2.3462
  222MOL0     H29930  11.227   2.035   4.958  1.9151 -0.4899  1.0778
  222MOL0     H29931  11.383   2.157   5.272  2.0082 -2.4786  0.9326
  222MOL0     H29932  11.240   2.086   5.206 -0.3423 -1.6875  0.4712
  222MOL0     H29933  11.389   1.996   5.204  0.3498  1.7608  2.6330
  222MOL0     H29934  11.657   2.624   5.284  2.1217  1.7001  3.1724
  222MOL0     H29935  11.846   2.692   5.416  2.1949 -0.8221  0.5747
  222MOL0     H29936  12.136   2.383   5.562  1.0086  0.1096  1.0296
  222MOL0     H29937  12.233   2.441   5.429 -3.4330 -1.2825 -1.3693
  222MOL0     H29938  12.206   2.597   5.685 -1.0239  1.8723 -1.5815
  222MOL0     H29939  12.333   2.478   5.640  1.8622  1.9316  0.0874
  222MOL0     H29940  12.359   2.743   5.596  0.6351  2.2335 -2.4641
  222MOL0     H29941  12.267   2.711   5.451  0.8317 -1.5958 -1.5139
  222MOL0     H29942  12.504   2.531   5.498  1.6536  0.4154 -0.9426
  222MOL0     H29943  12.403   2.565   5.355  0.3348  0.7421 -0.4255
  222MOL0     H29944  12.631   2.675   5.334 -0.5560 -1.5054  0.3738
  222MOL0     H29945  12.575   2.778   5.468 -1.3911 -1.6546  0.7590
  222MOL0     H29946  12.473   2.734   5.194  0.3853 -0.6720  0.1606
  222MOL0     H29947  12.364   2.815   5.306 -1.2519 -4.8412 -1.9934
  222MOL0     H29948  12.641   2.920   5.209  0.1138 -2.6430  1.3539
  222MOL0     H29949  12.561   2.987   5.343 -1.2223 -3.7188  2.5281
  222MOL0     H29950  12.358   3.037   5.188  1.1060  2.6166  1.9656
  222MOL0     H29951  12.461   2.974   5.051  0.7541  1.7744 -0.7260
  222MOL0     H29952  12.066   2.344   5.277  1.5737  0.7675  0.6915
  222MOL0     H29953  11.861   2.266   5.151  0.2536  0.3959  0.4302
  222MOL0     H29954  11.590   2.364   4.881  2.0780 -2.5131 -1.0989
  222MOL0     H29955  11.431   2.321   4.698  2.5201  2.0086  0.6931
  222MOL0     H29956  11.445   3.357   4.887 -0.1707  1.9485 -1.6812
  222MOL0     H29957  11.447   3.611   4.846 -1.7693 -0.0264 -0.3707
  222MOL0     H29958  11.497   4.016   5.104  0.1456 -0.0573 -1.6011
  222MOL0     H29959  11.512   4.260   5.110 -1.5063 -1.6398  1.5370
  222MOL0     H29960  11.532   4.413   4.938 -0.8539  0.9520 -3.8379
  222MOL0     H29961  11.465   4.560   4.893  0.3661  0.7215  1.4972
  222MOL0     H29962  11.615   4.579   5.093 -0.4145 -0.6617  1.2371
  222MOL0     H29963  11.512   4.471   5.185 -0.1960  0.9739  2.1620
  222MOL0     H29964  11.460   4.714   5.249 -2.9399  1.0144  1.4219
  222MOL0     H29965  11.329   4.628   5.177 -0.7027  1.7950 -0.5720
  222MOL0     H29966  11.392   4.763   4.960 -1.3860 -0.5049  0.8524
  222MOL0     H29967  11.510   4.845   5.065  1.3362 -1.0177 -0.9166
  222MOL0     H29968  11.148   4.988   5.255 -0.8313 -1.0774 -0.5272
  222MOL0     H29969  11.175   4.285   4.843  0.4260  0.3455  1.1782
  222MOL0     H29970  11.177   4.025   4.832 -0.9290 -0.0923  2.9383
  223MOL0     O29971   7.293   6.033   0.126  0.5669  0.1844 -0.1694
  223MOL0     C29972   7.213   5.970   0.055 -0.1006 -0.6709  0.4482
  223MOL0     O29973   7.245   5.864  -0.026 -0.0067 -0.1890 -0.8326
  223MOL0     C29974   7.333   5.767   0.022 -0.2198  0.0222  0.2489
  223MOL0     C29975   7.341   5.728   0.154 -0.0960  0.5425  0.1629
  223MOL0     C29976   7.407   5.611   0.196 -0.6997 -0.1231  0.2554
  223MOL0     C29977   7.452   5.519   0.098 -0.8097 -0.5896 -0.3254
  223MOL0     O29978   7.510   5.397   0.131 -0.5822 -0.4357 -0.5979
  223MOL0     C29979   7.524   5.351   0.266 -1.4910  0.9155  1.1836
  223MOL0     C29980   7.582   5.211   0.257 -0.1564 -0.4271  0.2344
  223MOL0     C29981   7.704   5.191   0.158  0.7497 -0.9732  0.1602
  223MOL0     C29982   7.789   5.071   0.202 -0.3063  0.9158  0.3952
  223MOL0     C29983   7.845   4.979   0.086 -0.4046  0.2846  0.2325
  223MOL0     C29984   7.922   5.054  -0.009  0.7576  0.0453  0.2026
  223MOL0     C29985   7.950   4.983  -0.140  0.5965  0.7138  1.0267
  223MOL0     C29986   7.824   5.004  -0.232  0.7519 -0.6047  0.3475
  223MOL0     N29987   7.832   5.130  -0.298 -0.0983 -0.9244  0.4650
  223MOL0     C29988   7.751   5.243  -0.283 -0.6872  0.1464 -0.0010
  223MOL0     C29989   7.814   5.336  -0.366  0.7349  0.7273  0.1418
  223MOL0     C29990   7.778   5.481  -0.358 -0.1723 -0.0623  0.0843
  223MOL0     C29991   7.881   5.576  -0.302  0.5879 -0.1353  0.9573
  223MOL0     C29992   7.916   5.574  -0.152 -0.5863 -0.1267 -0.1802
  223MOL0     C29993   7.795   5.542  -0.060  0.3113 -0.5829  0.0136
  223MOL0     O29994   7.825   5.535   0.078 -0.4965 -0.7734  0.1787
  223MOL0     C29995   7.782   5.633   0.165 -1.0769  0.0085  0.0362
  223MOL0     C29996   7.784   5.603   0.294 -0.1192 -0.1528  0.7244
  223MOL0     C29997   7.745   5.694   0.398 -0.3269  0.7607 -0.2920
  223MOL0     C29998   7.760   5.638   0.541 -0.4539  0.0975 -0.8008
  223MOL0     C29999   7.729   5.830   0.362 -0.9831 -0.3500 -0.8726
  223MOL0     C30000   7.704   5.945   0.457  0.1006  0.4022  1.5624
  223MOL0     O30001   7.735   6.067   0.398 -0.3806  0.4601 -0.6390
  223MOL0     C30002   7.727   6.182   0.475 -0.8483 -0.5405  1.0139
  223MOL0     C30003   7.644   6.289   0.436  0.7483  0.1805  0.0660
  223MOL0     C30004   7.641   6.401   0.521 -0.0138 -0.7568 -0.2314
  223MOL0     C30005   7.709   6.409   0.641  0.0848  0.4468 -0.8539
  223MOL0     O30006   7.711   6.522   0.718 -0.6734  0.7369  1.4077
  223MOL0     C30007   7.779   6.638   0.666  0.1643 -0.3543 -0.5449
  223MOL0     C30008   7.842   6.710   0.784 -0.4201  0.2807  0.3273
  223MOL0     C30009   7.950   6.623   0.865 -0.2122  0.0034  0.0543
  223MOL0     C30010   8.009   6.688   0.991 -0.9899  0.4296 -0.9443
  223MOL0     C30011   8.145   6.618   1.037  0.3168 -0.9105 -0.3201
  223MOL0     C30012   8.188   6.669   1.175 -0.8791  1.1706  0.2086
  223MOL0     C30013   8.310   6.583   1.225 -0.3216 -0.8406  0.1536
  223MOL0     C30014   8.439   6.663   1.195 -0.6874 -0.3062 -0.1995
  223MOL0    Cl30015   8.458   6.803   1.299  0.0524 -0.0779  0.2686
  223MOL0     C30016   7.800   6.308   0.678  0.1464 -0.5643 -0.0835
  223MOL0     C30017   7.804   6.192   0.603 -0.1379  0.0674 -0.5725
  223MOL0     O30018   7.680   5.934   0.576  0.5470 -0.5238 -0.4288
  223MOL0     C30019   7.721   5.853   0.222  0.0664 -0.1343 -0.6691
  223MOL0     C30020   7.747   5.756   0.126  0.3837  0.2648 -0.6353
  223MOL0     N30021   7.924   5.284  -0.427 -0.7368  0.5798 -0.2175
  223MOL0     N30022   7.928   5.165  -0.391 -0.7099 -0.2006 -0.3246
  223MOL0     C30023   7.444   5.566  -0.034  0.1749 -0.0852 -0.3962
  223MOL0     C30024   7.396   5.694  -0.074 -0.0794  0.1712 -0.8674
  223MOL0     C30025   7.077   6.020   0.027  0.3330 -0.5038 -0.9448
  223MOL0     C30026   7.019   6.119   0.115 -0.8899 -0.2194  0.3139
  223MOL0     C30027   6.894   6.165   0.089 -0.0130  0.3249  0.5995
  223MOL0     C30028   6.825   6.120  -0.020  0.7433  0.4727 -0.0616
  223MOL0     O30029   6.699   6.171  -0.029 -0.4758 -0.8059  0.3134
  223MOL0     C30030   6.618   6.155  -0.151 -0.2580  1.7457 -0.2440
  223MOL0     C30031   6.483   6.202  -0.100 -0.3342  0.7105  0.3394
  223MOL0     C30032   6.386   6.195  -0.219 -0.0822 -0.2432  0.9623
  223MOL0     C30033   6.247   6.239  -0.185  0.0250 -0.1760 -0.5048
  223MOL0     C30034   6.214   6.382  -0.207 -0.3165  1.1122 -0.1818
  223MOL0     C30035   6.180   6.489  -0.225  0.0864  0.4540  0.4536
  223MOL0     C30036   6.873   6.026  -0.103  0.5184 -0.2810 -0.4491
  223MOL0     C30037   7.002   5.978  -0.084 -0.0183  0.8665  0.7319
  223MOL0     H30038   7.289   5.790   0.226 -1.6175 -1.6097  1.0036
  223MOL0     H30039   7.410   5.590   0.302  1.1697 -1.4951  0.0018
  223MOL0     H30040   7.593   5.407   0.330  2.3057 -2.0010  0.0106
  223MOL0     H30041   7.423   5.356   0.308 -2.6440 -0.3362 -1.2213
  223MOL0     H30042   7.593   5.176   0.360 -2.9468  0.6984  1.0078
  223MOL0     H30043   7.499   5.149   0.222 -0.4494  0.3272 -0.4542
  223MOL0     H30044   7.671   5.182   0.054  0.4186  0.2679  0.1393
  223MOL0     H30045   7.769   5.279   0.166  0.8265 -0.6833 -2.6902
  223MOL0     H30046   7.872   5.105   0.265 -0.5120 -1.0697  1.8393
  223MOL0     H30047   7.733   5.004   0.269  0.4907 -1.0497 -0.8131
  223MOL0     H30048   7.907   4.896   0.121  1.9373  1.7983 -0.1159
  223MOL0     H30049   7.754   4.931   0.048  2.1576 -1.7578 -4.0270
  223MOL0     H30050   7.898   5.158  -0.033  1.8474 -0.5848 -4.6157
  223MOL0     H30051   8.022   5.078   0.028  0.7680 -1.6317  1.3489
  223MOL0     H30052   8.041   5.005  -0.195  0.1671 -0.2288 -0.1149
  223MOL0     H30053   7.958   4.874  -0.131  1.4004  0.8761  2.6134
  223MOL0     H30054   7.728   4.992  -0.182 -0.0127 -1.4606 -1.2515
  223MOL0     H30055   7.834   4.922  -0.304 -2.2341 -1.8047  1.1423
  223MOL0     H30056   7.668   5.256  -0.213  2.2284  0.0755  3.8315
  223MOL0     H30057   7.753   5.518  -0.458 -1.0257 -2.3527 -0.6175
  223MOL0     H30058   7.682   5.487  -0.306 -0.6372  2.0411 -0.8799
  223MOL0     H30059   7.829   5.672  -0.313 -2.8834 -1.7542  1.8362
  223MOL0     H30060   7.972   5.574  -0.363  1.7654 -0.5283  2.6454
  223MOL0     H30061   7.946   5.677  -0.130 -0.0176  0.2455 -2.4212
  223MOL0     H30062   7.998   5.507  -0.125 -0.9135  0.8252  3.6301
  223MOL0     H30063   7.752   5.446  -0.090 -0.1694 -0.4251  0.1875
  223MOL0     H30064   7.712   5.609  -0.087  1.8711  1.4318 -0.0399
  223MOL0     H30065   7.807   5.498   0.310  1.4603 -0.0769 -0.7722
  223MOL0     H30066   7.829   5.689   0.609 -1.4007 -2.8706  2.6944
  223MOL0     H30067   7.666   5.639   0.596  0.5655  0.1172  1.0406
  223MOL0     H30068   7.781   5.531   0.529  0.7583  0.2291 -0.0451
  223MOL0     H30069   7.592   6.306   0.342  0.2739  4.4001  0.8716
  223MOL0     H30070   7.586   6.488   0.488  0.4836 -1.2349 -2.4862
  223MOL0     H30071   7.851   6.622   0.586 -0.6962  1.2179 -1.7085
  223MOL0     H30072   7.707   6.709   0.622  1.5123  0.2426 -1.8814
  223MOL0     H30073   7.877   6.805   0.743 -0.7828  1.3763  2.4368
  223MOL0     H30074   7.757   6.727   0.851  0.1555 -1.0578  1.4547
  223MOL0     H30075   8.031   6.596   0.796  1.0454  0.5666  1.2508
  223MOL0     H30076   7.902   6.532   0.903  0.3854 -1.1651 -1.8567
  223MOL0     H30077   8.022   6.796   0.983 -0.3987  0.4889  0.4723
  223MOL0     H30078   7.945   6.685   1.080 -0.1282 -1.3460 -0.3346
  223MOL0     H30079   8.226   6.634   0.965  0.1015 -0.5161 -0.4795
  223MOL0     H30080   8.116   6.513   1.029  0.5542 -0.9606 -0.5271
  223MOL0     H30081   8.212   6.775   1.178 -0.6638  1.1618 -0.7926
  223MOL0     H30082   8.102   6.638   1.235 -0.5123 -1.8047 -0.6025
  223MOL0     H30083   8.313   6.484   1.178  1.0454 -0.6462 -0.2044
  223MOL0     H30084   8.308   6.571   1.334 -0.9603 -0.4036  0.1908
  223MOL0     H30085   8.440   6.690   1.089  3.8028 -1.1528 -0.5665
  223MOL0     H30086   8.518   6.590   1.216 -3.7058 -3.2232  2.3239
  223MOL0     H30087   7.861   6.335   0.764 -0.2462  0.8416 -0.2310
  223MOL0     H30088   7.873   6.117   0.641  1.0145  2.0526  1.4754
  223MOL0     H30089   7.687   5.950   0.186 -0.7167 -0.1235  0.0577
  223MOL0     H30090   7.741   5.786   0.022  2.4993 -1.7919 -1.4427
  223MOL0     H30091   7.460   5.483  -0.102  2.1792 -0.3274  0.2938
  223MOL0     H30092   7.377   5.733  -0.174 -0.1757  1.9618 -0.1800
  223MOL0     H30093   7.073   6.154   0.202  1.8161 -3.7198  0.2690
  223MOL0     H30094   6.849   6.238   0.156 -0.7859  0.3726  0.0413
  223MOL0     H30095   6.657   6.211  -0.237 -3.4497  2.1915 -1.5382
  223MOL0     H30096   6.609   6.052  -0.186 -0.1872  0.9351  1.9585
  223MOL0     H30097   6.482   6.303  -0.058 -0.9692  0.0103  2.1189
  223MOL0     H30098   6.447   6.134  -0.022  1.3996 -2.1641 -1.1920
  223MOL0     H30099   6.384   6.087  -0.237  3.4832 -0.3033  0.1662
  223MOL0     H30100   6.413   6.253  -0.308  0.9048 -0.2838  1.2219
  223MOL0     H30101   6.219   6.219  -0.081 -2.4394  2.1879 -0.5800
  223MOL0     H30102   6.182   6.181  -0.252 -0.5989  2.7453 -2.6588
  223MOL0     H30103   6.144   6.590  -0.234 -0.5695  0.1556 -0.3996
  223MOL0     H30104   6.815   6.015  -0.194 -2.0085 -0.2220  1.0460
  223MOL0     H30105   7.036   5.903  -0.154 -0.3412  1.5866 -0.2269
  224MOL0     O30106   8.968   1.675   5.021 -0.5762  0.5511  0.5436
  224MOL0     C30107   9.044   1.650   5.112 -0.6732  0.0566 -1.0709
  224MOL0     O30108   9.163   1.579   5.113 -0.2743  0.5238 -0.3335
  224MOL0     C30109   9.188   1.516   4.991 -0.1694  0.6839  0.9183
  224MOL0     C30110   9.202   1.585   4.873  1.3555  0.6193 -0.3422
  224MOL0     C30111   9.218   1.516   4.750  0.1839 -0.7688  0.1665
  224MOL0     C30112   9.220   1.374   4.748 -0.0405  0.1551 -0.5119
  224MOL0     O30113   9.228   1.315   4.624 -0.3171 -0.3424 -0.7409
  224MOL0     C30114   9.133   1.210   4.599  0.1335 -0.5214 -0.0109
  224MOL0     C30115   9.002   1.270   4.563 -0.4764 -0.4035  0.2106
  224MOL0     C30116   8.985   1.344   4.429 -0.5172  0.3194 -0.1690
  224MOL0     C30117   8.865   1.443   4.429 -0.2689  0.0276  0.6087
  224MOL0     C30118   8.867   1.542   4.312  0.0783  0.2391  0.7495
  224MOL0     C30119   8.854   1.477   4.170 -0.5219 -0.2878 -0.1542
  224MOL0     C30120   8.918   1.565   4.069  0.4117 -0.3830  0.5087
  224MOL0     C30121   8.910   1.507   3.922  0.3960 -0.4558  0.3988
  224MOL0     N30122   8.994   1.394   3.910 -0.7291 -0.9013  0.5132
  224MOL0     C30123   8.977   1.268   3.965  0.1108 -0.2429  1.5917
  224MOL0     C30124   9.079   1.188   3.924  0.3367 -0.9828 -0.5576
  224MOL0     C30125   9.085   1.040   3.939 -0.1740  0.3299 -0.4779
  224MOL0     C30126   8.956   0.963   3.893  0.5855  0.5614 -0.7730
  224MOL0     C30127   8.915   0.975   3.746 -0.8331  0.0055 -0.0087
  224MOL0     C30128   8.836   1.095   3.704 -0.0602 -0.3666 -0.2487
  224MOL0     O30129   8.700   1.101   3.760 -0.4219 -0.2988  0.3441
  224MOL0     C30130   8.607   1.024   3.689 -0.0031 -0.7140 -0.2949
  224MOL0     C30131   8.468   1.053   3.711 -0.1836 -0.0411 -0.7975
  224MOL0     C30132   8.361   0.986   3.651 -0.6661  1.0196 -0.6803
  224MOL0     C30133   8.217   1.010   3.702  0.1603 -0.5911  0.4118
  224MOL0     C30134   8.389   0.892   3.546 -0.0817  0.4800  0.4578
  224MOL0     C30135   8.283   0.815   3.479  0.3050 -0.7351 -0.9075
  224MOL0     O30136   8.324   0.709   3.415  0.2231 -0.3894 -0.3080
  224MOL0     C30137   8.235   0.626   3.350  0.3080 -0.2992  0.3876
  224MOL0     C30138   8.306   0.542   3.260 -0.3538  0.8392  0.1301
  224MOL0     C30139   8.236   0.450   3.173 -1.0052  0.2267  0.8776
  224MOL0     C30140   8.102   0.436   3.188  0.5225  1.0167  0.0888
  224MOL0     O30141   8.018   0.355   3.116  0.0315 -0.7840 -0.0263
  224MOL0     C30142   8.069   0.303   2.995  0.0170  0.6556  0.9048
  224MOL0     C30143   7.978   0.196   2.929  0.1133  0.1390 -0.4385
  224MOL0     C30144   8.025   0.158   2.784  0.6769  0.0640 -0.4846
  224MOL0     C30145   7.931   0.044   2.731  0.1911 -0.4700 -0.7905
  224MOL0     C30146   7.782   0.096   2.682 -0.1364 -0.1715 -0.5490
  224MOL0     C30147   7.700  -0.026   2.637  0.0954  0.1634 -0.6495
  224MOL0     C30148   7.560   0.033   2.604  0.4066 -0.3925 -0.5653
  224MOL0     C30149   7.509  -0.017   2.467 -0.0187  0.0454 -0.0375
  224MOL0    Cl30150   7.607   0.065   2.339  0.4057 -0.0847 -0.1527
  224MOL0     C30151   8.032   0.507   3.289 -0.8086 -0.2039 -0.9987
  224MOL0     C30152   8.092   0.605   3.368  0.0698 -0.2940 -0.6505
  224MOL0     O30153   8.171   0.873   3.463 -0.4872 -0.0268 -0.1580
  224MOL0     C30154   8.524   0.867   3.516 -0.0909 -0.2885  0.1347
  224MOL0     C30155   8.629   0.925   3.587 -0.0284  0.0334 -0.2808
  224MOL0     N30156   9.173   1.268   3.870  0.4101 -0.1597  0.2422
  224MOL0     N30157   9.129   1.387   3.863  0.0074 -0.7074 -0.0859
  224MOL0     C30158   9.208   1.307   4.871 -0.5151  0.3415  0.0162
  224MOL0     C30159   9.191   1.375   4.991 -0.1659  0.9968  0.7544
  224MOL0     C30160   9.010   1.720   5.239  0.5238  0.9124  0.0388
  224MOL0     C30161   9.072   1.682   5.353 -0.7362 -0.0678 -0.3536
  224MOL0     C30162   9.063   1.748   5.479  0.7312 -0.0585 -0.2459
  224MOL0     C30163   8.968   1.858   5.481 -0.5542  0.2127 -0.2167
  224MOL0     O30164   8.958   1.941   5.590  0.7333  0.9900  0.6125
  224MOL0     C30165   9.083   1.951   5.672 -0.2936 -0.6366  1.2604
  224MOL0     C30166   9.052   2.039   5.795 -0.1600 -0.3451 -0.4669
  224MOL0     C30167   9.175   2.096   5.864  0.6536  0.0492  0.5192
  224MOL0     C30168   9.117   2.171   5.988  0.7096  0.1064 -0.6832
  224MOL0     C30169   9.201   2.183   6.107 -0.4904 -0.0870  0.5588
  224MOL0     C30170   9.272   2.171   6.206  0.2775  0.9410 -0.4249
  224MOL0     C30171   8.889   1.890   5.363 -0.5185 -0.0631  0.5697
  224MOL0     C30172   8.914   1.824   5.245  0.5866  0.8514  0.7535
  224MOL0     H30173   9.184   1.691   4.864 -3.0778  0.0855 -0.2557
  224MOL0     H30174   9.222   1.562   4.652  2.2940 -0.6659  0.2408
  224MOL0     H30175   9.180   1.146   4.523  1.9211 -0.9286  1.3673
  224MOL0     H30176   9.110   1.150   4.688 -0.7903  0.3159  0.3342
  224MOL0     H30177   8.933   1.184   4.559  0.8661 -1.5497  0.8873
  224MOL0     H30178   8.972   1.331   4.648  0.3230 -2.2677  1.8918
  224MOL0     H30179   9.078   1.390   4.394 -0.1122 -2.8725 -4.1339
  224MOL0     H30180   8.974   1.263   4.355 -0.6215  0.5905 -0.4515
  224MOL0     H30181   8.770   1.391   4.426  1.3567 -3.3453 -4.2248
  224MOL0     H30182   8.879   1.508   4.516  1.6051 -0.8379  1.0047
  224MOL0     H30183   8.786   1.615   4.316 -1.6208 -1.5275  0.1697
  224MOL0     H30184   8.960   1.600   4.315  0.8637 -1.0256  1.5341
  224MOL0     H30185   8.890   1.374   4.161 -0.8974 -0.3414 -1.1540
  224MOL0     H30186   8.744   1.479   4.162 -0.5860  0.7489  0.6856
  224MOL0     H30187   8.863   1.659   4.066 -0.4641 -0.9164 -2.0001
  224MOL0     H30188   9.021   1.586   4.099 -0.4545  1.2755  2.6419
  224MOL0     H30189   8.955   1.577   3.851  2.1309 -0.3465  1.5494
  224MOL0     H30190   8.807   1.479   3.899  0.8253 -1.0744 -0.8913
  224MOL0     H30191   8.884   1.238   4.013 -2.9145  2.4998 -1.9511
  224MOL0     H30192   9.176   1.000   3.892  1.4542 -0.3228  2.9482
  224MOL0     H30193   9.094   1.000   4.040  1.1438 -2.7064 -1.6446
  224MOL0     H30194   8.883   1.003   3.963  2.1948  2.5303 -0.1186
  224MOL0     H30195   8.976   0.858   3.917  1.9308  1.3645  1.9382
  224MOL0     H30196   8.860   0.885   3.715 -4.4234  1.3942  1.7723
  224MOL0     H30197   9.005   0.988   3.685 -1.7449 -0.2834 -1.4747
  224MOL0     H30198   8.833   1.099   3.594 -1.4472  1.3701 -0.1861
  224MOL0     H30199   8.907   1.175   3.727  3.2834 -2.8056 -1.1171
  224MOL0     H30200   8.452   1.129   3.787 -1.7307 -2.8590  1.9737
  224MOL0     H30201   8.161   1.086   3.648 -2.3384 -2.4147  0.2574
  224MOL0     H30202   8.157   0.918   3.701 -0.3526 -0.2481 -0.0088
  224MOL0     H30203   8.229   1.056   3.801  1.9996  1.2394 -0.5941
  224MOL0     H30204   8.411   0.569   3.256 -0.3080  0.6856  0.3224
  224MOL0     H30205   8.295   0.391   3.104  0.1292  1.1358  1.0343
  224MOL0     H30206   8.093   0.382   2.923  0.1298 -2.0237 -2.2875
  224MOL0     H30207   8.161   0.245   3.011  0.7379  0.7559 -2.1595
  224MOL0     H30208   7.972   0.104   2.988  2.4473 -0.5869 -1.2208
  224MOL0     H30209   7.880   0.244   2.925  1.0709  2.4550  1.3682
  224MOL0     H30210   8.129   0.125   2.775  1.1955  1.6786 -0.7160
  224MOL0     H30211   8.004   0.240   2.715 -0.8404 -0.4065 -0.6197
  224MOL0     H30212   7.988   0.003   2.648  2.0528  2.5497 -1.1841
  224MOL0     H30213   7.915  -0.032   2.807 -0.6357  1.0198  0.5960
  224MOL0     H30214   7.789   0.161   2.595  0.1901 -1.2770 -1.3627
  224MOL0     H30215   7.732   0.153   2.761  0.4572  1.9208 -1.6232
  224MOL0     H30216   7.735  -0.091   2.555 -2.9118 -5.2594  1.8434
  224MOL0     H30217   7.697  -0.106   2.711  0.3178 -2.7184 -3.5154
  224MOL0     H30218   7.555   0.142   2.609 -1.3907  0.0151 -5.4266
  224MOL0     H30219   7.496  -0.004   2.684  0.9722  0.9210  0.5276
  224MOL0     H30220   7.407   0.005   2.437  0.2416  0.3818 -0.6959
  224MOL0     H30221   7.535  -0.123   2.465 -1.4275 -0.3613  1.4289
  224MOL0     H30222   7.927   0.481   3.300 -0.8722  0.9021  1.4891
  224MOL0     H30223   8.037   0.660   3.444 -2.1753  0.7105 -2.8486
  224MOL0     H30224   8.553   0.795   3.440  0.6017 -0.8316  0.8954
  224MOL0     H30225   8.724   0.883   3.554 -0.5530 -2.2012  0.8300
  224MOL0     H30226   9.213   1.198   4.871  0.4444  0.3193 -2.8885
  224MOL0     H30227   9.172   1.314   5.079 -3.6367  0.9851  0.1370
  224MOL0     H30228   9.133   1.593   5.351 -4.5025 -2.9255 -0.0311
  224MOL0     H30229   9.117   1.699   5.560 -0.7342 -0.1402  0.7343
  224MOL0     H30230   9.123   1.855   5.704  0.6130 -0.2237  1.3922
  224MOL0     H30231   9.161   1.999   5.611 -1.0769 -1.6134 -0.5802
  224MOL0     H30232   8.999   1.977   5.868 -1.7278  0.5231 -0.8188
  224MOL0     H30233   9.002   2.127   5.754  0.3383 -1.2154 -3.1630
  224MOL0     H30234   9.236   2.164   5.805 -1.5472  2.9963  1.4158
  224MOL0     H30235   9.239   2.010   5.885 -0.1177 -1.5916 -3.0707
  224MOL0     H30236   9.026   2.122   6.027 -0.0317  0.2735 -2.1351
  224MOL0     H30237   9.079   2.267   5.954  0.4458 -0.1390 -1.0975
  224MOL0     H30238   9.326   2.153   6.297 -0.7029  0.3003  0.0440
  224MOL0     H30239   8.823   1.974   5.383 -0.9078  0.0429 -1.0467
  224MOL0     H30240   8.857   1.863   5.162  1.3263 -1.5268 -1.0134
  225MOL0     O30241  10.208   8.401  11.447 -0.1257 -0.4851 -0.3124
  225MOL0     C30242  10.300   8.441  11.514 -0.1891  0.4552 -0.3190
  225MOL0     O30243  10.293   8.522  11.623  0.0145 -0.0710 -1.5020
  225MOL0     C30244  10.186   8.554  11.704  0.5691 -0.1687  0.2374
  225MOL0     C30245  10.075   8.457  11.709  0.3847 -0.0125 -0.0227
  225MOL0     C30246   9.956   8.484  11.768 -0.0552 -0.4391  0.6317
  225MOL0     C30247   9.939   8.606  11.841  0.2992 -0.0509 -0.2481
  225MOL0     O30248   9.819   8.642  11.903 -0.4469  0.1085  0.0484
  225MOL0     C30249   9.694   8.586  11.864 -0.6753  0.3612 -0.2121
  225MOL0     C30250   9.599   8.691  11.834 -0.0572  0.4463  0.7241
  225MOL0     C30251   9.579   8.790  11.943 -0.5041 -0.5485 -1.1470
  225MOL0     C30252   9.509   8.927  11.909  0.1366  0.6767  0.2691
  225MOL0     C30253   9.574   9.053  11.973  0.2445  0.0189 -0.3152
  225MOL0     C30254   9.702   9.096  11.900 -1.6596  0.0231 -0.5903
  225MOL0     C30255   9.715   9.247  11.946  0.1264 -0.4741  0.3080
  225MOL0     C30256   9.849   9.311  11.905 -1.0023  1.0398 -0.9390
  225MOL0     N30257   9.836   9.453  11.915  0.4304 -0.6664 -0.2479
  225MOL0     C30258   9.953   9.534  11.920 -0.4071 -0.4282  1.8268
  225MOL0     C30259   9.930   9.647  11.861 -0.3665  0.2985 -0.7568
  225MOL0     C30260  10.026   9.758  11.851 -1.0612 -0.4148  0.2329
  225MOL0     C30261  10.152   9.736  11.761  0.5495 -1.0027 -0.1246
  225MOL0     C30262  10.218   9.871  11.758 -0.7722 -0.1032  0.6585
  225MOL0     C30263  10.277   9.901  11.616 -0.7910  0.1912 -0.8013
  225MOL0     O30264  10.174   9.894  11.515  1.2704  0.1377 -0.2046
  225MOL0     C30265  10.103  10.007  11.486  0.3145 -0.0632 -0.8710
  225MOL0     C30266   9.971  10.027  11.522  0.8798  0.1814 -0.0223
  225MOL0     C30267   9.912  10.156  11.491  0.1967  0.6306  0.0817
  225MOL0     C30268   9.772  10.168  11.540 -0.2271 -0.0496 -0.0170
  225MOL0     C30269   9.981  10.258  11.414  0.3213 -0.0728  0.7736
  225MOL0     C30270   9.926  10.385  11.364  0.6402 -0.4455 -0.9838
  225MOL0     O30271  10.009  10.474  11.300 -0.1293  0.0314  0.4946
  225MOL0     C30272   9.953  10.591  11.242 -0.1819  0.2201 -0.5676
  225MOL0     C30273   9.960  10.711  11.320 -0.4502  0.8479  0.5309
  225MOL0     C30274   9.954  10.836  11.253 -0.5810  0.2257 -0.4230
  225MOL0     C30275   9.922  10.850  11.119  0.1553 -0.9731 -0.6155
  225MOL0     O30276   9.902  10.977  11.084 -0.4935 -0.0550 -0.3032
  225MOL0     C30277   9.897  11.020  10.949 -0.5219 -0.1015  0.5338
  225MOL0     C30278   9.981  11.139  10.917 -0.3071 -0.1809  0.0641
  225MOL0     C30279   9.916  11.272  10.974 -0.0187  1.1354 -0.5392
  225MOL0     C30280  10.005  11.387  10.944 -0.2346  0.7840 -0.3304
  225MOL0     C30281   9.944  11.512  11.016 -1.0332  0.4144  0.0297
  225MOL0     C30282   9.998  11.639  10.956  0.0742 -0.5802 -0.3727
  225MOL0     C30283  10.146  11.660  10.935  0.1438  0.6178 -0.3151
  225MOL0     C30284  10.173  11.806  10.907  0.1492  0.7352 -0.1571
  225MOL0    Cl30285  10.088  11.868  10.761 -0.4264 -0.3791 -0.1510
  225MOL0     C30286   9.906  10.729  11.046  0.1032  0.0670  0.4392
  225MOL0     C30287   9.923  10.605  11.105  0.1525 -0.1411 -0.3562
  225MOL0     O30288   9.805  10.414  11.387  1.1376  0.1634  0.5105
  225MOL0     C30289  10.111  10.222  11.373  0.7292  0.3456 -0.5084
  225MOL0     C30290  10.168  10.100  11.410 -0.5681  0.7305 -0.3543
  225MOL0     N30291   9.801   9.648  11.828  0.3564  0.1754  0.1213
  225MOL0     N30292   9.742   9.536  11.861  0.4131  0.6604 -0.6891
  225MOL0     C30293  10.054   8.695  11.851  0.7346  0.2078 -0.6148
  225MOL0     C30294  10.182   8.669  11.788 -0.3502  0.2232 -0.1704
  225MOL0     C30295  10.430   8.430  11.437  0.0410  0.2953  0.0284
  225MOL0     C30296  10.438   8.380  11.307 -0.1081 -0.0444  0.5814
  225MOL0     C30297  10.554   8.380  11.238 -0.7135  0.1730 -0.5223
  225MOL0     C30298  10.671   8.414  11.305  0.5397 -0.6141  0.2142
  225MOL0     O30299  10.789   8.419  11.237  0.3794 -0.2476  1.0754
  225MOL0     C30300  10.812   8.330  11.121 -0.3229 -0.2532  0.9958
  225MOL0     C30301  10.959   8.331  11.086 -0.3045 -0.5440  0.1623
  225MOL0     C30302  11.044   8.282  11.212 -1.1090  0.1443 -0.0909
  225MOL0     C30303  11.170   8.211  11.152  0.3517  0.2072  0.4830
  225MOL0     C30304  11.279   8.215  11.250 -0.0791  0.6698  0.9608
  225MOL0     C30305  11.377   8.216  11.313 -1.1709 -0.3072  0.0712
  225MOL0     C30306  10.669   8.469  11.436  0.0775  0.3663  0.5650
  225MOL0     C30307  10.548   8.482  11.497  0.2949  0.1521  0.1592
  225MOL0     H30308  10.079   8.364  11.655 -0.8914 -0.3321  0.3970
  225MOL0     H30309   9.871   8.416  11.765  0.4063 -0.9824 -0.5973
  225MOL0     H30310   9.695   8.525  11.773  3.3013 -0.5214  0.2313
  225MOL0     H30311   9.665   8.530  11.954  0.8796  1.3709  0.9682
  225MOL0     H30312   9.630   8.739  11.741  2.1686  0.1864  1.2669
  225MOL0     H30313   9.501   8.649  11.811 -0.9015  2.6456  0.0705
  225MOL0     H30314   9.526   8.737  12.023  4.2730 -1.2397  1.9079
  225MOL0     H30315   9.673   8.816  11.991 -1.3349  0.5310 -0.0383
  225MOL0     H30316   9.503   8.944  11.802 -0.7222  2.5411  0.5852
  225MOL0     H30317   9.405   8.934  11.942  0.1412  4.8397 -0.1466
  225MOL0     H30318   9.503   9.136  11.974 -0.8118 -0.8637  0.5009
  225MOL0     H30319   9.599   9.016  12.072 -0.9607  0.0234  0.0128
  225MOL0     H30320   9.793   9.051  11.941 -0.2853  1.6609 -1.6887
  225MOL0     H30321   9.703   9.082  11.791 -0.7998 -0.4995 -0.5249
  225MOL0     H30322   9.635   9.302  11.896  1.0539  1.6001  0.9708
  225MOL0     H30323   9.704   9.268  12.053  2.0300  3.5983 -0.0796
  225MOL0     H30324   9.883   9.277  11.806  0.2306 -0.7459  0.0299
  225MOL0     H30325   9.922   9.275  11.977  0.2971  0.0544 -2.6544
  225MOL0     H30326  10.057   9.519  11.948  0.0287 -1.2135 -0.0523
  225MOL0     H30327   9.965   9.841  11.814  1.1383  0.5894 -1.3999
  225MOL0     H30328  10.062   9.787  11.950  1.1973  1.1525 -0.9479
  225MOL0     H30329  10.115   9.704  11.663 -2.7588  0.0815  0.6393
  225MOL0     H30330  10.222   9.662  11.800  2.5855 -0.2037 -2.0581
  225MOL0     H30331  10.303   9.867  11.826 -0.3866 -1.7376  0.1139
  225MOL0     H30332  10.150   9.948  11.795 -1.8802 -0.0991 -1.2727
  225MOL0     H30333  10.360   9.834  11.591 -0.6633  0.8788 -2.3487
  225MOL0     H30334  10.321  10.001  11.610 -3.3192  1.3639 -0.8929
  225MOL0     H30335   9.922   9.959  11.591  0.5752  1.3901  0.9915
  225MOL0     H30336   9.752  10.095  11.619  0.1906  1.8275  1.9071
  225MOL0     H30337   9.742  10.258  11.594  0.0295  0.0062  0.0339
  225MOL0     H30338   9.708  10.137  11.457 -0.6189 -0.9636  0.6133
  225MOL0     H30339  10.003  10.691  11.417 -0.4861 -2.2719  0.0167
  225MOL0     H30340   9.963  10.922  11.318 -1.6646  1.0722 -1.3596
  225MOL0     H30341   9.929  10.937  10.885  0.4440  2.2502 -2.2924
  225MOL0     H30342   9.792  11.040  10.929 -0.6554 -2.1650 -1.2430
  225MOL0     H30343  10.083  11.131  10.956 -0.0923 -1.6009 -0.6973
  225MOL0     H30344   9.992  11.149  10.809 -0.8259 -2.8031 -0.3092
  225MOL0     H30345   9.901  11.261  11.081 -0.3086  0.3644 -0.6575
  225MOL0     H30346   9.813  11.293  10.942 -0.8701  0.3364  1.4919
  225MOL0     H30347  10.112  11.373  10.961 -0.6237 -0.8780  1.0261
  225MOL0     H30348   9.997  11.415  10.839  3.3042  1.5569 -0.5019
  225MOL0     H30349   9.980  11.512  11.119  0.1792 -1.9791 -0.3254
  225MOL0     H30350   9.835  11.500  11.018 -0.7814 -2.7249 -0.7850
  225MOL0     H30351   9.963  11.653  10.853  4.0438  0.2716 -1.7773
  225MOL0     H30352   9.962  11.721  11.018  3.2560  0.7405 -0.0635
  225MOL0     H30353  10.191  11.603  10.853 -1.5362 -0.1492 -0.7610
  225MOL0     H30354  10.187  11.645  11.035 -2.0223  3.4848  1.1461
  225MOL0     H30355  10.280  11.813  10.885 -0.2444  0.6337 -2.3454
  225MOL0     H30356  10.154  11.860  11.000  0.5999 -2.6499  2.0975
  225MOL0     H30357   9.876  10.736  10.942 -1.7793 -1.8317  0.7906
  225MOL0     H30358   9.914  10.520  11.039  0.5690 -2.1311  2.0209
  225MOL0     H30359  10.180  10.287  11.319 -1.8355  0.9292 -3.4132
  225MOL0     H30360  10.269  10.084  11.375 -0.3734 -0.7853  0.8226
  225MOL0     H30361  10.037   8.784  11.910  1.3844 -1.3252  2.0312
  225MOL0     H30362  10.264   8.737  11.809  1.6223 -2.6697  2.3212
  225MOL0     H30363  10.348   8.343  11.258  0.1683  0.7922 -0.5975
  225MOL0     H30364  10.547   8.343  11.136 -1.7144 -1.1425 -0.0179
  225MOL0     H30365  10.770   8.229  11.126 -1.0147 -0.0711 -0.3579
  225MOL0     H30366  10.748   8.373  11.043 -1.6588 -3.3345  0.2318
  225MOL0     H30367  10.972   8.437  11.059 -2.5306 -0.2097  0.1786
  225MOL0     H30368  10.973   8.280  10.991  0.7219 -0.2859  0.1616
  225MOL0     H30369  10.979   8.217  11.271  0.2370 -3.2350 -2.0400
  225MOL0     H30370  11.068   8.376  11.262  0.1120  0.6766 -1.5821
  225MOL0     H30371  11.203   8.264  11.062  1.1441  3.4697  2.5233
  225MOL0     H30372  11.155   8.108  11.118  4.0094 -0.4157  0.3370
  225MOL0     H30373  11.468   8.216  11.370  0.3269 -3.3483 -2.0166
  225MOL0     H30374  10.759   8.518  11.470  1.3313  0.1743 -2.2403
  225MOL0     H30375  10.549   8.524  11.597 -0.2914  1.2240 -0.2574
  226MOL0     O30376   6.939   0.666   7.839  0.1702 -0.4113  0.4700
  226MOL0     C30377   7.046   0.616   7.807 -1.2641  0.3091 -0.2855
  226MOL0     O30378   7.074   0.485   7.825 -0.2506  0.0378 -1.4216
  226MOL0     C30379   7.003   0.418   7.922 -0.6653  0.7357 -0.3535
  226MOL0     C30380   7.069   0.407   8.047 -0.7317  0.4557  1.2504
  226MOL0     C30381   7.008   0.344   8.153  0.3711 -0.5317  0.8309
  226MOL0     C30382   6.876   0.283   8.136  0.3622 -0.3195 -0.7567
  226MOL0     O30383   6.823   0.199   8.237 -0.5875 -0.0880 -0.5297
  226MOL0     C30384   6.806   0.242   8.371 -0.1433 -0.2463 -0.3733
  226MOL0     C30385   6.657   0.205   8.405  0.3995 -0.2673 -0.1678
  226MOL0     C30386   6.642   0.057   8.436  0.0021  0.9069  0.6985
  226MOL0     C30387   6.493   0.024   8.467  0.7668 -0.2663  0.8634
  226MOL0     C30388   6.463  -0.115   8.526  0.0477  0.4958  0.0899
  226MOL0     C30389   6.316  -0.144   8.547  0.1877  0.1604 -0.1425
  226MOL0     C30390   6.293  -0.259   8.649  0.8923 -0.7875  1.5014
  226MOL0     C30391   6.154  -0.259   8.704 -0.1334 -0.7928 -0.3418
  226MOL0     N30392   6.133  -0.375   8.797  0.6792  0.1524  0.0968
  226MOL0     C30393   6.160  -0.365   8.932  0.3517 -1.2753  1.0150
  226MOL0     C30394   6.125  -0.484   8.987 -0.0796  0.0346  0.2021
  226MOL0     C30395   6.169  -0.524   9.115 -0.3530 -0.4156  0.2668
  226MOL0     C30396   6.318  -0.527   9.112 -0.3820  0.3476  0.2949
  226MOL0     C30397   6.374  -0.591   9.246 -0.2990  0.3223 -0.4489
  226MOL0     C30398   6.309  -0.570   9.375 -0.6201 -0.1625 -0.2422
  226MOL0     O30399   6.392  -0.593   9.485  0.1269  0.6705 -0.7075
  226MOL0     C30400   6.317  -0.605   9.595  0.7007  0.6366 -0.5487
  226MOL0     C30401   6.286  -0.729   9.634  1.8944 -0.7018 -0.3028
  226MOL0     C30402   6.204  -0.750   9.750  0.5629  0.1050  0.1950
  226MOL0     C30403   6.182  -0.898   9.783 -0.2560  0.1455  0.3593
  226MOL0     C30404   6.159  -0.638   9.825 -0.4583 -0.1486 -0.6408
  226MOL0     C30405   6.082  -0.642   9.950 -0.7241  0.1016 -0.3921
  226MOL0     O30406   6.029  -0.525   9.991  0.6913  0.1647 -0.1141
  226MOL0     C30407   5.944  -0.498  10.098  1.4292  1.3115 -0.2530
  226MOL0     C30408   5.938  -0.563  10.222 -0.3299 -0.5520  0.2426
  226MOL0     C30409   5.868  -0.513  10.328  0.6788 -0.1363 -0.1473
  226MOL0     C30410   5.776  -0.405  10.309 -0.5195 -0.1588  0.6165
  226MOL0     O30411   5.684  -0.345  10.394 -0.4125  0.6728 -0.3451
  226MOL0     C30412   5.723  -0.334  10.525 -0.3268  0.5481  0.4504
  226MOL0     C30413   5.679  -0.195  10.580  0.7905  0.1989 -0.1200
  226MOL0     C30414   5.530  -0.180  10.592  0.0945 -0.2210 -0.2235
  226MOL0     C30415   5.498  -0.074  10.694  0.2458  1.4809  0.3906
  226MOL0     C30416   5.540  -0.107  10.839 -0.0599 -0.1072  0.4219
  226MOL0     C30417   5.448  -0.022  10.929 -0.7847 -0.0520 -0.8051
  226MOL0     C30418   5.308  -0.088  10.936  0.2288  0.2754  1.0988
  226MOL0     C30419   5.227  -0.025  11.046  0.3350 -0.3693 -0.2875
  226MOL0    Cl30420   5.049  -0.082  11.045 -0.1415 -0.2585  0.1123
  226MOL0     C30421   5.774  -0.348  10.176 -0.2151  0.7972 -0.2590
  226MOL0     C30422   5.855  -0.391  10.079 -0.0619  0.7096  0.0355
  226MOL0     O30423   6.083  -0.744  10.024 -0.1541 -0.5612  0.4877
  226MOL0     C30424   6.206  -0.514   9.787  0.8056 -0.9364 -0.2319
  226MOL0     C30425   6.280  -0.495   9.673 -0.1072  0.3116  0.7446
  226MOL0     N30426   6.064  -0.557   8.885 -0.2125  0.7526  0.1167
  226MOL0     N30427   6.071  -0.497   8.768 -0.7072  0.4541 -0.3886
  226MOL0     C30428   6.812   0.294   8.013  0.1588 -0.8022 -0.0563
  226MOL0     C30429   6.872   0.372   7.909  0.8758  0.5644 -0.5024
  226MOL0     C30430   7.142   0.702   7.748 -0.4152  0.4527  0.8367
  226MOL0     C30431   7.123   0.845   7.745 -0.8569 -1.0511  0.5837
  226MOL0     C30432   7.226   0.926   7.698 -0.0055  0.5697  0.3196
  226MOL0     C30433   7.336   0.861   7.642  0.7660  0.5747 -0.4080
  226MOL0     O30434   7.415   0.951   7.582  0.7817  0.2618 -0.3119
  226MOL0     C30435   7.513   0.901   7.488 -1.0392 -0.0838 -0.4460
  226MOL0     C30436   7.605   1.014   7.430 -1.2854 -0.2548 -0.1175
  226MOL0     C30437   7.514   1.102   7.343 -0.0862 -0.1965 -0.1339
  226MOL0     C30438   7.610   1.210   7.279 -0.2459  0.2761 -0.3734
  226MOL0     C30439   7.545   1.305   7.193 -0.5142 -0.3605  1.2462
  226MOL0     C30440   7.485   1.385   7.111 -0.1063 -0.1107  0.1131
  226MOL0     C30441   7.352   0.718   7.631  0.1811  0.1696  1.1431
  226MOL0     C30442   7.253   0.648   7.692 -0.2183 -0.3074  0.7756
  226MOL0     H30443   7.173   0.436   8.051 -0.3590 -0.7339  0.6153
  226MOL0     H30444   7.059   0.340   8.249 -0.2759  0.7125  1.2383
  226MOL0     H30445   6.873   0.182   8.433 -1.4173 -1.3857 -0.0448
  226MOL0     H30446   6.833   0.347   8.386  3.0564 -1.1235  0.7383
  226MOL0     H30447   6.620   0.252   8.497 -2.8661 -2.8708  0.0309
  226MOL0     H30448   6.590   0.233   8.323 -0.4930  0.1830  0.6871
  226MOL0     H30449   6.674  -0.000   8.348 -2.7996 -1.7157  1.2142
  226MOL0     H30450   6.706   0.033   8.522 -0.2771 -0.1434  0.6354
  226MOL0     H30451   6.462   0.091   8.548  1.3981 -0.7327  1.5011
  226MOL0     H30452   6.431   0.045   8.379  0.9062 -0.2012  0.7813
  226MOL0     H30453   6.506  -0.179   8.449 -1.9428  1.0478 -1.5747
  226MOL0     H30454   6.506  -0.130   8.626 -2.3419 -3.4867  0.7312
  226MOL0     H30455   6.267  -0.056   8.590  2.1227  0.2496  2.1032
  226MOL0     H30456   6.268  -0.154   8.450 -0.1217  0.7339 -0.0515
  226MOL0     H30457   6.312  -0.362   8.620 -1.5973 -1.0611  0.6545
  226MOL0     H30458   6.375  -0.240   8.719  2.1734 -4.1861  1.1043
  226MOL0     H30459   6.083  -0.260   8.620  0.1539 -1.0366 -0.5832
  226MOL0     H30460   6.135  -0.162   8.750  0.7594 -1.1966  0.9447
  226MOL0     H30461   6.201  -0.275   8.976  1.4407 -0.7031 -1.0176
  226MOL0     H30462   6.123  -0.456   9.188 -0.7639 -1.6156  1.1708
  226MOL0     H30463   6.128  -0.623   9.137 -2.5983  0.5078  0.5544
  226MOL0     H30464   6.358  -0.427   9.096  0.5235 -0.1347 -0.5711
  226MOL0     H30465   6.360  -0.588   9.032 -0.9568 -2.8347  2.2271
  226MOL0     H30466   6.476  -0.556   9.260  0.0212 -0.7153 -0.0878
  226MOL0     H30467   6.381  -0.697   9.221 -4.3084 -0.6062  1.5161
  226MOL0     H30468   6.230  -0.647   9.376  0.6547 -1.5953  2.3597
  226MOL0     H30469   6.271  -0.468   9.386  0.6961  0.2454  0.9080
  226MOL0     H30470   6.324  -0.811   9.575 -0.6779 -2.7157  0.6363
  226MOL0     H30471   6.204  -0.961   9.696 -4.1136 -0.9599 -0.0082
  226MOL0     H30472   6.253  -0.926   9.860  1.6142  3.6909  0.1415
  226MOL0     H30473   6.079  -0.924   9.809 -1.4353 -1.0494 -4.4718
  226MOL0     H30474   5.998  -0.651  10.244 -0.1196 -0.0263  1.9064
  226MOL0     H30475   5.869  -0.576  10.417  0.9497 -2.9788 -2.0571
  226MOL0     H30476   5.676  -0.408  10.590 -1.1550  1.4269  0.8756
  226MOL0     H30477   5.831  -0.343  10.544 -0.5662 -1.3637  1.0592
  226MOL0     H30478   5.727  -0.172  10.676  0.2664  1.5559 -0.1504
  226MOL0     H30479   5.695  -0.111  10.511  2.2459 -0.6941 -0.9078
  226MOL0     H30480   5.480  -0.275  10.613 -1.0216  0.4377  0.1878
  226MOL0     H30481   5.491  -0.143  10.496  1.2897  0.1409 -0.5909
  226MOL0     H30482   5.551   0.017  10.665  3.5294  0.0636  1.5065
  226MOL0     H30483   5.390  -0.057  10.692 -0.9082 -4.0249  0.4291
  226MOL0     H30484   5.644  -0.090  10.867 -0.4580  1.3162  1.1172
  226MOL0     H30485   5.527  -0.212  10.866 -1.4244 -0.8444 -2.6056
  226MOL0     H30486   5.481  -0.027  11.034  0.1087 -4.5564 -1.0943
  226MOL0     H30487   5.433   0.077  10.886 -2.7497  0.6378  1.2570
  226MOL0     H30488   5.326  -0.194  10.955 -3.1080 -0.7196 -0.4825
  226MOL0     H30489   5.262  -0.084  10.837 -2.0794 -0.1759  2.0841
  226MOL0     H30490   5.220   0.084  11.039 -2.2853 -0.1624  2.9770
  226MOL0     H30491   5.274  -0.052  11.141 -1.7226  0.2877  0.9862
  226MOL0     H30492   5.706  -0.264  10.164 -4.8855 -2.4515  0.3810
  226MOL0     H30493   5.863  -0.330   9.989  2.2320 -1.2527 -1.2134
  226MOL0     H30494   6.186  -0.429   9.852  2.4375 -1.9478  1.6786
  226MOL0     H30495   6.323  -0.396   9.659 -0.1114  0.2565  0.3435
  226MOL0     H30496   6.709   0.265   7.994  1.1903 -4.4841 -0.7261
  226MOL0     H30497   6.812   0.386   7.820 -0.7068 -0.3108  0.3941
  226MOL0     H30498   7.050   0.877   7.818  2.9492 -0.4290  4.5231
  226MOL0     H30499   7.224   1.034   7.703  3.8044  1.1964 -4.2609
  226MOL0     H30500   7.575   0.829   7.543 -2.0257 -0.6171 -0.0032
  226MOL0     H30501   7.465   0.857   7.401  0.5747  0.5579 -1.7044
  226MOL0     H30502   7.685   0.972   7.369 -0.0058  1.1087  0.5535
  226MOL0     H30503   7.652   1.077   7.506  1.9902 -0.5931 -1.7009
  226MOL0     H30504   7.440   1.151   7.406  1.1138  1.9092 -0.2600
  226MOL0     H30505   7.464   1.038   7.270 -3.4065 -1.4573  2.9685
  226MOL0     H30506   7.693   1.165   7.224  0.5157  0.2783  0.7364
  226MOL0     H30507   7.655   1.268   7.360 -1.5405  2.1208 -0.8928
  226MOL0     H30508   7.427   1.464   7.070  0.9130  0.9950  0.7404
  226MOL0     H30509   7.436   0.665   7.587 -0.5901 -0.3982  0.3034
  226MOL0     H30510   7.255   0.539   7.686 -0.4588 -0.6268  4.4140
  227MOL0     O30511   9.028   0.755   5.209  0.3014 -0.0247 -0.1907
  227MOL0     C30512   8.925   0.818   5.204 -0.0293 -0.5400 -0.2891
  227MOL0     O30513   8.910   0.957   5.227 -0.1007  0.0917 -0.3805
  227MOL0     C30514   9.001   1.045   5.269 -0.0050 -0.6708  0.8846
  227MOL0     C30515   9.140   1.014   5.293 -0.8580 -0.5853  0.3056
  227MOL0     C30516   9.233   1.102   5.347 -0.5531 -0.6097  0.0997
  227MOL0     C30517   9.199   1.241   5.366  0.1554  0.1048  1.0728
  227MOL0     O30518   9.283   1.335   5.421  0.7176  0.4925 -0.2083
  227MOL0     C30519   9.423   1.305   5.420  1.9655 -0.2811  0.2076
  227MOL0     C30520   9.486   1.421   5.501  0.3052  0.0605 -0.4790
  227MOL0     C30521   9.432   1.439   5.646  0.0021 -0.2921  0.2217
  227MOL0     C30522   9.528   1.396   5.761  0.4139  0.6384 -0.9369
  227MOL0     C30523   9.490   1.462   5.900  0.3187  0.1544  0.4993
  227MOL0     C30524   9.594   1.429   6.007 -0.3676 -0.0539 -0.5548
  227MOL0     C30525   9.542   1.495   6.147  0.2593  0.3160  0.5880
  227MOL0     C30526   9.608   1.441   6.277 -1.0321 -0.4426 -0.2389
  227MOL0     N30527   9.576   1.302   6.308  0.5630  0.2492 -0.0516
  227MOL0     C30528   9.476   1.243   6.383 -0.0275 -0.2226  0.9807
  227MOL0     C30529   9.504   1.111   6.382  0.2411  0.8704 -0.0279
  227MOL0     C30530   9.432   1.009   6.459  1.2769 -0.3308 -1.0539
  227MOL0     C30531   9.483   0.989   6.600 -0.6036  0.5557  0.0791
  227MOL0     C30532   9.458   1.105   6.695  0.0455  0.6250 -0.6171
  227MOL0     C30533   9.305   1.151   6.712 -0.4111 -0.4871 -0.5588
  227MOL0     O30534   9.295   1.273   6.798 -0.2448  0.7406  0.3834
  227MOL0     C30535   9.292   1.279   6.938  1.0451 -0.6590 -0.0641
  227MOL0     C30536   9.311   1.393   7.003  0.0889 -0.2422  0.0239
  227MOL0     C30537   9.307   1.411   7.140 -0.7516  0.3184 -0.1594
  227MOL0     C30538   9.327   1.551   7.196 -0.3898  0.2954 -0.0938
  227MOL0     C30539   9.288   1.292   7.225 -0.3047 -1.0053  0.9987
  227MOL0     C30540   9.311   1.292   7.373 -0.4452 -0.1109 -1.0584
  227MOL0     O30541   9.339   1.408   7.441  0.2101  0.4816 -0.6825
  227MOL0     C30542   9.394   1.416   7.579  0.3275  0.3039  0.2069
  227MOL0     C30543   9.469   1.306   7.638 -0.6665 -0.1641  0.6564
  227MOL0     C30544   9.508   1.306   7.776  0.5914 -0.0225 -0.7002
  227MOL0     C30545   9.472   1.413   7.854  0.0693 -1.0495 -0.3290
  227MOL0     O30546   9.505   1.426   7.987  0.1002  0.1937 -0.1295
  227MOL0     C30547   9.647   1.445   8.007  0.5325  0.2700  1.0334
  227MOL0     C30548   9.679   1.455   8.153 -0.2405 -1.4147  0.1175
  227MOL0     C30549   9.647   1.595   8.207 -0.5298 -0.2375  0.2026
  227MOL0     C30550   9.627   1.591   8.358  0.0199 -0.3918 -1.1289
  227MOL0     C30551   9.618   1.731   8.429  1.0682 -0.0638 -0.1059
  227MOL0     C30552   9.718   1.836   8.387  1.8205 -0.3757 -0.1698
  227MOL0     C30553   9.699   1.961   8.469  0.5622 -0.3759 -0.4426
  227MOL0     C30554   9.567   2.027   8.432 -0.1444  0.3084  0.0565
  227MOL0    Cl30555   9.600   2.188   8.499  0.2549 -0.1388 -0.4236
  227MOL0     C30556   9.413   1.527   7.790  0.5612 -0.0507  0.2522
  227MOL0     C30557   9.367   1.524   7.657 -0.5038  0.0857 -0.3854
  227MOL0     O30558   9.307   1.184   7.425  0.9103 -0.0466 -0.4148
  227MOL0     C30559   9.261   1.172   7.158 -0.7063  0.1236  0.4848
  227MOL0     C30560   9.265   1.167   7.013 -0.2228  0.8404 -0.0379
  227MOL0     N30561   9.627   1.090   6.319  0.0908  0.4324  0.1361
  227MOL0     N30562   9.670   1.199   6.273  0.6353 -0.1078 -1.2144
  227MOL0     C30563   9.071   1.280   5.327  0.3366 -0.0808  0.5718
  227MOL0     C30564   8.974   1.181   5.283 -0.2622 -0.4368 -0.0367
  227MOL0     C30565   8.808   0.743   5.156 -0.1095 -0.0387  0.2597
  227MOL0     C30566   8.717   0.809   5.070  0.8853  0.1212 -1.0073
  227MOL0     C30567   8.629   0.732   4.996  0.2749  0.3665  0.0096
  227MOL0     C30568   8.606   0.595   5.018  0.3435  0.5497 -0.8470
  227MOL0     O30569   8.490   0.535   4.963 -0.2198  0.6830  0.1149
  227MOL0     C30570   8.393   0.512   5.059  0.0919  0.3694  0.0955
  227MOL0     C30571   8.256   0.481   4.993  0.2282 -0.1105  0.4425
  227MOL0     C30572   8.152   0.448   5.096  0.2305  0.2161  0.2776
  227MOL0     C30573   8.185   0.319   5.150 -0.7622  0.8330 -0.0142
  227MOL0     C30574   8.076   0.277   5.241 -0.1568 -0.8908  0.0975
  227MOL0     C30575   7.983   0.258   5.321 -0.0525 -0.5710 -0.3061
  227MOL0     C30576   8.691   0.525   5.108 -0.0459 -0.3426  0.8173
  227MOL0     C30577   8.792   0.597   5.170  0.2734 -0.3949 -0.0823
  227MOL0     H30578   9.167   0.909   5.299 -2.0543 -0.9622 -0.3354
  227MOL0     H30579   9.333   1.070   5.373  0.0714  0.7078 -0.5436
  227MOL0     H30580   9.426   1.216   5.482 -0.1666  1.6923  3.4207
  227MOL0     H30581   9.460   1.297   5.317 -2.5407  1.9740 -1.9057
  227MOL0     H30582   9.591   1.392   5.499  0.7161  1.5106 -0.8713
  227MOL0     H30583   9.480   1.515   5.445  0.1595  0.4054  0.1007
  227MOL0     H30584   9.422   1.548   5.657  2.4381 -0.2129  2.8562
  227MOL0     H30585   9.339   1.384   5.661 -0.4969  0.9073  1.9280
  227MOL0     H30586   9.539   1.288   5.771  0.2829  0.7875  1.4038
  227MOL0     H30587   9.633   1.417   5.739  0.4263  1.0451 -0.5188
  227MOL0     H30588   9.495   1.570   5.887  5.4202  0.0397 -0.5497
  227MOL0     H30589   9.392   1.438   5.943  0.4955  0.8348  1.2978
  227MOL0     H30590   9.598   1.322   6.031 -3.7763  0.3174  2.6546
  227MOL0     H30591   9.692   1.474   5.990  0.6690 -0.6567  2.9346
  227MOL0     H30592   9.556   1.603   6.148 -0.0824  0.4269 -1.5068
  227MOL0     H30593   9.435   1.475   6.148 -0.0652  1.7478 -0.9707
  227MOL0     H30594   9.587   1.496   6.369  0.4423  1.2636 -0.8598
  227MOL0     H30595   9.716   1.456   6.272 -1.3331  2.2492 -0.2661
  227MOL0     H30596   9.405   1.312   6.428  1.7734  4.9249 -3.0573
  227MOL0     H30597   9.327   1.035   6.447  1.0209 -1.4275 -1.3537
  227MOL0     H30598   9.440   0.913   6.406 -3.2878 -0.2683 -2.2611
  227MOL0     H30599   9.589   0.964   6.588 -1.1295 -2.6856  1.1947
  227MOL0     H30600   9.433   0.900   6.638 -0.4753 -0.0116 -1.0481
  227MOL0     H30601   9.524   1.187   6.667  2.8334 -1.3004 -0.0395
  227MOL0     H30602   9.486   1.066   6.794  0.1732  0.6865 -0.6289
  227MOL0     H30603   9.236   1.072   6.743 -0.5768 -0.3303 -0.5233
  227MOL0     H30604   9.267   1.174   6.612 -1.4117  0.8622  0.0950
  227MOL0     H30605   9.329   1.476   6.936  1.4069  1.7765  2.7008
  227MOL0     H30606   9.245   1.571   7.266  0.1121  0.4220  0.4656
  227MOL0     H30607   9.424   1.552   7.246  0.3605  0.5515 -1.5260
  227MOL0     H30608   9.340   1.635   7.126  2.4775 -0.2125 -0.2934
  227MOL0     H30609   9.489   1.224   7.569 -0.8889  2.5830 -2.9224
  227MOL0     H30610   9.563   1.223   7.818  0.1400 -0.5923 -1.2082
  227MOL0     H30611   9.711   1.368   7.964  2.9986  2.2403  0.9604
  227MOL0     H30612   9.672   1.543   7.965  0.1311 -0.5405 -1.2546
  227MOL0     H30613   9.627   1.377   8.209  2.5683 -0.5597  4.4172
  227MOL0     H30614   9.785   1.439   8.174 -0.2159 -2.3691 -0.7163
  227MOL0     H30615   9.550   1.628   8.166 -0.7968  1.1590  1.8234
  227MOL0     H30616   9.731   1.662   8.187 -0.6615  0.6291  2.3355
  227MOL0     H30617   9.533   1.540   8.382  1.2394 -2.5228 -0.6785
  227MOL0     H30618   9.711   1.540   8.406 -1.3581 -1.4548  0.2576
  227MOL0     H30619   9.623   1.720   8.537  0.8370  0.7984 -0.0061
  227MOL0     H30620   9.525   1.777   8.393  2.2616  1.8671 -0.8798
  227MOL0     H30621   9.820   1.798   8.400  1.8636 -2.2370 -4.3262
  227MOL0     H30622   9.712   1.852   8.279 -0.0125 -0.3194 -0.0927
  227MOL0     H30623   9.788   2.021   8.445 -1.8465  2.3658 -3.4139
  227MOL0     H30624   9.712   1.939   8.575  4.7712  0.2651 -0.6721
  227MOL0     H30625   9.484   1.969   8.472 -1.3029  0.3339 -2.1221
  227MOL0     H30626   9.552   2.032   8.323  3.6254  0.1540 -0.6299
  227MOL0     H30627   9.393   1.618   7.846  2.4022  0.8390 -0.4588
  227MOL0     H30628   9.313   1.606   7.611  1.7483  2.1818  0.4682
  227MOL0     H30629   9.255   1.077   7.209 -1.2007  0.8661  1.8723
  227MOL0     H30630   9.255   1.071   6.964  0.9749 -0.1537  1.5454
  227MOL0     H30631   9.039   1.379   5.360  0.6977 -0.3319  1.7120
  227MOL0     H30632   8.873   1.213   5.261  0.2776 -0.5490 -3.1101
  227MOL0     H30633   8.724   0.915   5.049  1.3522  0.4429  0.6106
  227MOL0     H30634   8.565   0.777   4.920 -1.4695 -1.9903 -0.0057
  227MOL0     H30635   8.422   0.428   5.123 -2.5552 -1.1262 -0.5132
  227MOL0     H30636   8.377   0.600   5.122 -4.1428  0.2712 -0.5698
  227MOL0     H30637   8.276   0.399   4.924  0.5116  1.7526 -1.8015
  227MOL0     H30638   8.224   0.561   4.927 -1.4753 -1.5944 -0.5999
  227MOL0     H30639   8.051   0.449   5.053 -1.1016  5.0020  2.8774
  227MOL0     H30640   8.143   0.524   5.173  0.5569 -0.1283  0.6609
  227MOL0     H30641   8.269   0.329   5.218  0.9648  1.8272 -2.1905
  227MOL0     H30642   8.206   0.246   5.071  2.0723  0.9319  0.5505
  227MOL0     H30643   7.914   0.246   5.402  2.3562 -0.1989  1.9415
  227MOL0     H30644   8.686   0.417   5.119 -4.6786 -0.2822  1.3509
  227MOL0     H30645   8.863   0.548   5.237 -0.5324 -2.3914 -0.6044
  228MOL0     O30646   8.370   0.436  10.488  0.3350 -0.0128  0.3246
  228MOL0     C30647   8.260   0.464  10.438 -0.1080  0.4271 -0.0348
  228MOL0     O30648   8.140   0.399  10.459  0.1136 -0.3473  0.6255
  228MOL0     C30649   8.132   0.280  10.524  0.6805 -0.0773  0.0302
  228MOL0     C30650   8.230   0.183  10.522 -1.0739  0.6571  0.4902
  228MOL0     C30651   8.227   0.067  10.610  0.7253  0.5577  0.4548
  228MOL0     C30652   8.106   0.048  10.690  0.1828 -0.6200 -0.2385
  228MOL0     O30653   8.081  -0.063  10.774  0.4425 -0.9509  0.1508
  228MOL0     C30654   8.188  -0.153  10.798  0.4312 -0.2422  0.1522
  228MOL0     C30655   8.137  -0.274  10.881  0.3946 -0.2714  0.6527
  228MOL0     C30656   8.120  -0.410  10.803 -0.1609 -0.4019  0.8450
  228MOL0     C30657   8.125  -0.538  10.901 -0.4359  0.8772 -0.8372
  228MOL0     C30658   8.073  -0.519  11.048 -0.3290  0.1192 -0.2661
  228MOL0     C30659   8.088  -0.652  11.127  0.3308 -0.6277 -0.0555
  228MOL0     C30660   8.115  -0.616  11.273  0.2647 -0.4247  0.2080
  228MOL0     C30661   8.126  -0.742  11.354  0.4583  0.4213  0.2901
  228MOL0     N30662   8.252  -0.815  11.328  0.0147  0.0676 -0.2257
  228MOL0     C30663   8.372  -0.763  11.348 -0.5036  0.4172  0.3860
  228MOL0     C30664   8.461  -0.857  11.309 -0.6789 -0.1229  0.1693
  228MOL0     C30665   8.613  -0.842  11.306 -0.5529 -0.3451 -0.1403
  228MOL0     C30666   8.683  -0.910  11.424 -0.0285 -0.1188 -0.2535
  228MOL0     C30667   8.677  -1.066  11.418 -0.5466  0.4197 -0.2421
  228MOL0     C30668   8.722  -1.120  11.282 -0.9727  0.4576  0.0715
  228MOL0     O30669   8.863  -1.100  11.271  0.0205  0.0938 -0.4845
  228MOL0     C30670   8.931  -1.106  11.151 -0.6569 -0.0022  0.0613
  228MOL0     C30671   8.888  -1.172  11.037  0.3019 -0.9549 -0.0072
  228MOL0     C30672   8.958  -1.157  10.917 -1.0511 -0.1457  0.2808
  228MOL0     C30673   8.887  -1.213  10.795  0.7114  0.0050 -0.0539
  228MOL0     C30674   9.085  -1.098  10.903  0.0999  0.9478 -0.3493
  228MOL0     C30675   9.171  -1.093  10.781 -0.1607  0.3470 -0.2265
  228MOL0     O30676   9.114  -1.136  10.659 -0.0663 -1.1212  0.2027
  228MOL0     C30677   9.181  -1.111  10.537 -0.1317  0.1432  0.7523
  228MOL0     C30678   9.155  -0.997  10.468 -0.3519 -0.1802  0.2710
  228MOL0     C30679   9.211  -0.974  10.343 -0.1255  0.3956  0.4235
  228MOL0     C30680   9.302  -1.064  10.278  0.6796  1.4465 -0.7499
  228MOL0     O30681   9.331  -1.046  10.146  0.4137  0.0065  1.0303
  228MOL0     C30682   9.352  -1.159  10.068  0.2320  0.5697 -0.0879
  228MOL0     C30683   9.231  -1.251  10.037  0.0228  0.8682  0.4140
  228MOL0     C30684   9.242  -1.345   9.918  0.4287  0.0382 -0.5324
  228MOL0     C30685   9.112  -1.418   9.895 -0.6298  0.8395 -0.8867
  228MOL0     C30686   9.099  -1.493   9.758  0.9328  0.8358  0.3337
  228MOL0     C30687   8.953  -1.541   9.739 -1.0454  1.1270 -0.1559
  228MOL0     C30688   8.930  -1.570   9.593 -0.6857  0.8480 -0.1790
  228MOL0     C30689   8.794  -1.626   9.553 -0.3429 -0.0137 -0.1669
  228MOL0    Cl30690   8.816  -1.652   9.378  0.1576  0.3042 -0.2039
  228MOL0     C30691   9.337  -1.174  10.365 -0.5015  0.0335 -0.0925
  228MOL0     C30692   9.280  -1.198  10.488  0.8960  0.1238 -0.0689
  228MOL0     O30693   9.283  -1.036  10.789 -0.1621  1.1331 -0.7000
  228MOL0     C30694   9.124  -1.038  11.020 -0.6775 -0.6230  0.4225
  228MOL0     C30695   9.045  -1.028  11.135  0.4359 -0.8785 -0.9761
  228MOL0     N30696   8.387  -0.973  11.272 -0.3772  0.3712 -0.5823
  228MOL0     N30697   8.263  -0.943  11.287  0.4309  0.1569 -0.3839
  228MOL0     C30698   8.005   0.146  10.681 -0.0278 -0.4761 -0.0687
  228MOL0     C30699   8.018   0.263  10.602 -0.6247  1.1149 -0.1918
  228MOL0     C30700   8.256   0.593  10.362 -0.6621 -0.2933 -0.3412
  228MOL0     C30701   8.371   0.671  10.378 -0.7271 -0.1473  0.0900
  228MOL0     C30702   8.388   0.776  10.291 -0.0609 -0.6829  0.8958
  228MOL0     C30703   8.303   0.806  10.176  0.7403  0.0034 -0.8132
  228MOL0     O30704   8.351   0.894  10.082 -0.5905 -0.2460  0.2496
  228MOL0     C30705   8.291   0.901   9.950  0.2926  0.0535  0.7091
  228MOL0     C30706   8.195   1.014   9.946  1.0557  0.8178 -0.0164
  228MOL0     C30707   8.250   1.153   9.893 -0.6350 -0.3929  0.1484
  228MOL0     C30708   8.276   1.246  10.004  0.3055 -0.5891 -0.2991
  228MOL0     C30709   8.328   1.376   9.947  0.4373 -0.0425 -0.1903
  228MOL0     C30710   8.395   1.464   9.893  0.2983 -1.0192 -0.6101
  228MOL0     C30711   8.181   0.740  10.182  0.0213  0.8168 -0.9945
  228MOL0     C30712   8.159   0.633  10.262 -0.0236 -0.4921  0.4065
  228MOL0     H30713   8.321   0.188  10.463 -0.3043  4.8095  1.7344
  228MOL0     H30714   8.311  -0.002  10.615  1.2079  1.2027  2.7884
  228MOL0     H30715   8.242  -0.180  10.707  5.2006  4.3423  1.1249
  228MOL0     H30716   8.267  -0.115  10.864 -0.1257 -1.0716  1.3425
  228MOL0     H30717   8.209  -0.285  10.962  0.3912 -0.3123  0.6513
  228MOL0     H30718   8.040  -0.246  10.921  0.1368  0.0495 -0.1840
  228MOL0     H30719   8.025  -0.409  10.748  0.1047  2.5024  0.2871
  228MOL0     H30720   8.205  -0.423  10.737 -0.0243  0.0806  0.9222
  228MOL0     H30721   8.057  -0.606  10.848  0.0124 -0.7643  0.5925
  228MOL0     H30722   8.219  -0.593  10.901 -0.0595  1.5017  0.0216
  228MOL0     H30723   8.142  -0.446  11.090  0.2465 -0.6524  0.1500
  228MOL0     H30724   7.972  -0.477  11.041 -0.9381 -1.4468 -1.7287
  228MOL0     H30725   7.991  -0.701  11.129  0.9784 -2.0532  3.0415
  228MOL0     H30726   8.167  -0.717  11.087  0.1055 -1.0068  0.1164
  228MOL0     H30727   8.193  -0.540  11.288 -1.7736  1.7301  0.4552
  228MOL0     H30728   8.021  -0.570  11.304 -1.2107 -2.5939 -0.8136
  228MOL0     H30729   8.048  -0.817  11.337  1.7351 -1.1061  0.8627
  228MOL0     H30730   8.107  -0.715  11.459  1.4778  1.0267  0.3291
  228MOL0     H30731   8.401  -0.664  11.382  1.6735  0.0516 -0.2597
  228MOL0     H30732   8.656  -0.868  11.208  0.1496 -0.2037  0.1203
  228MOL0     H30733   8.645  -0.737  11.311  1.7074 -1.0391  1.3938
  228MOL0     H30734   8.641  -0.891  11.523  0.2727  0.6746 -0.2731
  228MOL0     H30735   8.789  -0.884  11.430 -0.2437  0.4271  2.3012
  228MOL0     H30736   8.571  -1.090  11.422 -0.1241 -1.7484 -0.7407
  228MOL0     H30737   8.724  -1.111  11.506 -1.3844 -0.4000 -0.2053
  228MOL0     H30738   8.663  -1.073  11.203  0.8396 -0.5376 -1.9890
  228MOL0     H30739   8.696  -1.226  11.273  1.8412 -0.2571 -0.5441
  228MOL0     H30740   8.794  -1.225  11.032  1.4644 -3.0731 -1.2433
  228MOL0     H30741   8.791  -1.258  10.826  0.4996 -0.6183 -1.5212
  228MOL0     H30742   8.868  -1.137  10.719 -2.5731 -0.0415  0.5470
  228MOL0     H30743   8.947  -1.292  10.749 -0.3397 -0.9927  0.2235
  228MOL0     H30744   9.082  -0.928  10.508  0.2017  0.6466 -0.1339
  228MOL0     H30745   9.174  -0.883  10.295  1.6632  2.7970  3.2442
  228MOL0     H30746   9.393  -1.129   9.972 -1.2963  0.0937 -0.9347
  228MOL0     H30747   9.427  -1.222  10.116  0.9366  0.1706 -1.6529
  228MOL0     H30748   9.221  -1.295  10.136  0.7204  0.1503  0.1759
  228MOL0     H30749   9.132  -1.206  10.024 -1.3110 -2.1107 -0.3907
  228MOL0     H30750   9.309  -1.431   9.929 -0.8190 -1.1900 -1.9800
  228MOL0     H30751   9.272  -1.283   9.833  0.3698 -0.4457 -0.9156
  228MOL0     H30752   9.091  -1.495   9.970  0.6359 -0.5213 -1.8596
  228MOL0     H30753   9.031  -1.345   9.894 -0.2632  1.2972 -3.3431
  228MOL0     H30754   9.169  -1.576   9.774 -0.0464 -0.0858 -0.0246
  228MOL0     H30755   9.118  -1.423   9.676  0.7314  1.6171  0.9415
  228MOL0     H30756   8.951  -1.629   9.803  2.1946 -0.4947 -2.0274
  228MOL0     H30757   8.878  -1.472   9.778 -0.7881  1.9117 -1.0217
  228MOL0     H30758   9.010  -1.631   9.550 -2.8519 -2.6241  0.3413
  228MOL0     H30759   8.934  -1.468   9.552 -0.2526  0.0822 -2.1961
  228MOL0     H30760   8.719  -1.552   9.581  2.6265  2.9698  0.4057
  228MOL0     H30761   8.765  -1.715   9.611 -2.6123  0.3690 -0.5899
  228MOL0     H30762   9.413  -1.237  10.320  0.9226 -1.9741  4.4742
  228MOL0     H30763   9.304  -1.289  10.543  1.4805 -1.8932 -3.3322
  228MOL0     H30764   9.228  -1.009  11.033 -0.8390  0.0445  0.2785
  228MOL0     H30765   9.071  -0.988  11.232 -3.1098 -0.7958  0.0919
  228MOL0     H30766   7.910   0.135  10.732 -1.1127  0.3447 -1.8409
  228MOL0     H30767   7.938   0.336  10.609 -4.4138 -2.5617 -0.5678
  228MOL0     H30768   8.444   0.663  10.457 -2.1338  1.8368  1.6826
  228MOL0     H30769   8.479   0.833  10.308  0.6764 -1.5715  0.0455
  228MOL0     H30770   8.371   0.937   9.885 -1.5175  2.0355 -0.5320
  228MOL0     H30771   8.260   0.803   9.912 -1.7774  0.6375  0.8068
  228MOL0     H30772   8.155   1.019  10.048 -2.8852  0.3952 -1.3917
  228MOL0     H30773   8.112   0.987   9.881  0.3274 -0.2107  1.2951
  228MOL0     H30774   8.170   1.195   9.831 -0.2769 -2.3897 -1.7997
  228MOL0     H30775   8.339   1.146   9.830  0.2417  3.6753  0.6416
  228MOL0     H30776   8.344   1.203  10.078  0.3282  1.3169  0.8801
  228MOL0     H30777   8.177   1.270  10.046  0.3553  0.3680 -0.6966
  228MOL0     H30778   8.458   1.544   9.860 -5.8884  4.4453 -1.4952
  228MOL0     H30779   8.109   0.762  10.104  0.4699 -1.6528 -2.1908
  228MOL0     H30780   8.079   0.561  10.248 -0.2955 -0.0614 -0.3362
  229MOL0     O30781   1.124   5.197   5.681 -0.4358 -0.0906  1.1944
  229MOL0     C30782   1.070   5.246   5.780  0.8203 -0.1346 -0.7360
  229MOL0     O30783   1.127   5.318   5.884  0.5351 -0.5836  0.0043
  229MOL0     C30784   1.264   5.337   5.878  0.5222 -0.1473  0.1720
  229MOL0     C30785   1.322   5.423   5.788  0.3328 -0.3859  0.8066
  229MOL0     C30786   1.464   5.419   5.770 -0.1872 -0.3355 -0.6823
  229MOL0     C30787   1.545   5.343   5.848  0.1130  0.1537 -0.5036
  229MOL0     O30788   1.676   5.331   5.814  0.0512 -0.8092 -0.3304
  229MOL0     C30789   1.776   5.336   5.913 -0.5613  0.4143 -0.4960
  229MOL0     C30790   1.911   5.375   5.845 -0.8537 -0.0300 -0.3860
  229MOL0     C30791   2.035   5.365   5.946  0.6249 -0.2263  0.2022
  229MOL0     C30792   2.131   5.476   5.917 -0.0817 -0.0419  0.2092
  229MOL0     C30793   2.267   5.466   5.977 -0.4966 -0.9334  0.7109
  229MOL0     C30794   2.287   5.506   6.118  0.3964 -0.1301 -0.3013
  229MOL0     C30795   2.318   5.655   6.137 -0.4125  0.2279 -0.4162
  229MOL0     C30796   2.336   5.683   6.284 -0.4446 -0.0849 -0.0266
  229MOL0     N30797   2.360   5.827   6.299 -0.2325 -0.0179  0.0320
  229MOL0     C30798   2.476   5.894   6.303  0.1245  0.1728 -0.2280
  229MOL0     C30799   2.448   6.023   6.325  0.9891 -0.2486 -0.2601
  229MOL0     C30800   2.550   6.134   6.335  0.3214  0.0281 -0.1285
  229MOL0     C30801   2.525   6.246   6.235 -0.0783  0.6520 -0.4170
  229MOL0     C30802   2.650   6.349   6.237 -0.0166 -0.1295  0.5024
  229MOL0     C30803   2.769   6.298   6.160 -0.1844  0.3158 -0.5489
  229MOL0     O30804   2.868   6.399   6.160  0.2952  0.1665 -0.7085
  229MOL0     C30805   2.988   6.378   6.090 -0.6104  0.6357  0.0816
  229MOL0     C30806   3.011   6.267   6.014 -0.2970 -1.0166  0.0819
  229MOL0     C30807   3.142   6.247   5.956 -0.6741 -0.3587  0.4850
  229MOL0     C30808   3.176   6.113   5.894 -0.1670 -0.3699 -0.5676
  229MOL0     C30809   3.246   6.342   5.966 -0.5728  0.6592  0.6758
  229MOL0     C30810   3.386   6.329   5.924 -0.2997 -0.7149  1.2935
  229MOL0     O30811   3.472   6.418   5.990 -0.1931  0.4921  0.1090
  229MOL0     C30812   3.604   6.408   5.959  0.6302 -0.0073 -0.1095
  229MOL0     C30813   3.694   6.399   6.061  0.2668  0.4344  0.4180
  229MOL0     C30814   3.830   6.423   6.043 -0.0390 -0.0484  0.1044
  229MOL0     C30815   3.868   6.466   5.916 -0.6832  0.0130 -0.0946
  229MOL0     O30816   4.002   6.496   5.900  0.4560 -0.1733 -0.8001
  229MOL0     C30817   4.037   6.620   5.959 -0.2100  0.6025 -0.1622
  229MOL0     C30818   4.190   6.608   5.997  0.2634  0.1999  0.5074
  229MOL0     C30819   4.243   6.719   6.091 -0.4395 -0.2828  0.5034
  229MOL0     C30820   4.212   6.684   6.233  0.1452  0.2167  0.0223
  229MOL0     C30821   4.250   6.795   6.323 -0.0694 -0.7621  0.6499
  229MOL0     C30822   4.205   6.754   6.461 -0.4029  1.0601  0.3587
  229MOL0     C30823   4.240   6.875   6.557  0.2518  0.0077 -0.3733
  229MOL0     C30824   4.181   6.855   6.698 -0.5033 -0.5806 -0.3453
  229MOL0    Cl30825   4.266   6.721   6.789  0.2825 -0.2686 -0.5468
  229MOL0     C30826   3.781   6.475   5.809  0.3127 -0.3790 -0.4529
  229MOL0     C30827   3.647   6.448   5.835  0.1119  0.1206 -0.5878
  229MOL0     O30828   3.421   6.256   5.830  0.8622 -0.9117 -0.4680
  229MOL0     C30829   3.214   6.452   6.052  0.1268 -0.8412  0.3324
  229MOL0     C30830   3.090   6.469   6.102  0.1594 -0.3674 -0.4283
  229MOL0     N30831   2.314   6.033   6.332 -0.0169 -0.0045 -0.0480
  229MOL0     N30832   2.257   5.914   6.324  0.5165 -0.5093  0.2292
  229MOL0     C30833   1.492   5.266   5.947  0.1011 -0.1595 -0.2273
  229MOL0     C30834   1.352   5.262   5.960  0.0631  0.4303 -0.4246
  229MOL0     C30835   0.929   5.196   5.800  0.4469 -0.4220  0.0682
  229MOL0     C30836   0.873   5.176   5.930 -0.1302 -0.0676  0.1083
  229MOL0     C30837   0.744   5.136   5.949  1.0282  0.2350 -1.2415
  229MOL0     C30838   0.652   5.114   5.840  0.7446  0.2393  0.0911
  229MOL0     O30839   0.521   5.091   5.840  0.3968 -0.2336 -0.1498
  229MOL0     C30840   0.456   5.099   5.973 -0.0877  0.1530  0.5420
  229MOL0     C30841   0.308   5.042   5.976 -0.0932 -1.1228 -0.1368
  229MOL0     C30842   0.307   4.905   5.893  0.4473 -1.0106 -0.0079
  229MOL0     C30843   0.179   4.831   5.904 -0.5926 -0.0218  0.0153
  229MOL0     C30844   0.171   4.775   6.038  0.4939 -0.8790 -0.0508
  229MOL0     C30845   0.157   4.722   6.143 -0.5819 -0.4241  0.5169
  229MOL0     C30846   0.715   5.118   5.717  0.4431  0.4423 -0.7041
  229MOL0     C30847   0.846   5.155   5.699 -0.3090 -0.5495 -0.3447
  229MOL0     H30848   1.250   5.476   5.726  2.1239  0.4107 -0.7319
  229MOL0     H30849   1.504   5.478   5.687 -2.3422  1.0792 -0.8107
  229MOL0     H30850   1.747   5.397   5.999  2.0784  0.4705  0.4289
  229MOL0     H30851   1.794   5.235   5.951  1.0859  1.0035  0.3573
  229MOL0     H30852   1.941   5.323   5.754  3.2748 -0.0548  0.7843
  229MOL0     H30853   1.888   5.481   5.834 -0.0366  0.3833  1.4190
  229MOL0     H30854   2.007   5.367   6.052  1.3358  1.1068  0.3874
  229MOL0     H30855   2.086   5.271   5.925  0.0639 -1.1816  2.7121
  229MOL0     H30856   2.143   5.477   5.808 -1.1863 -0.7307  0.0738
  229MOL0     H30857   2.085   5.568   5.955  3.4166  1.1351  2.1214
  229MOL0     H30858   2.313   5.370   5.950 -0.9459 -0.8973 -0.2097
  229MOL0     H30859   2.329   5.534   5.917  1.2824 -0.4758  2.9196
  229MOL0     H30860   2.196   5.485   6.174  0.9202  1.7828  1.4218
  229MOL0     H30861   2.372   5.453   6.163 -0.8097 -1.6607  0.2168
  229MOL0     H30862   2.406   5.689   6.082  0.2209  2.3954  1.7494
  229MOL0     H30863   2.240   5.713   6.087 -0.6420 -3.1521 -4.5755
  229MOL0     H30864   2.419   5.620   6.317 -0.4150  0.9435  2.0644
  229MOL0     H30865   2.248   5.638   6.331 -0.8895  0.1609 -0.6185
  229MOL0     H30866   2.571   5.843   6.299 -0.5705 -1.1947  0.1047
  229MOL0     H30867   2.571   6.175   6.434 -0.1287 -1.3650  0.5727
  229MOL0     H30868   2.645   6.085   6.314  1.5869  1.7479  1.3641
  229MOL0     H30869   2.435   6.307   6.252  0.8466  2.1271 -0.6677
  229MOL0     H30870   2.525   6.216   6.130  0.1682  3.0693 -1.1783
  229MOL0     H30871   2.686   6.374   6.338 -1.3392 -3.0836  1.8298
  229MOL0     H30872   2.610   6.441   6.193 -0.4609 -0.1722  0.8101
  229MOL0     H30873   2.750   6.282   6.054  2.4441  0.9958 -1.1962
  229MOL0     H30874   2.806   6.202   6.199 -1.5800  0.6303  1.7482
  229MOL0     H30875   2.934   6.193   5.996 -1.0878 -0.1520 -0.1383
  229MOL0     H30876   3.101   6.037   5.916  1.1951 -2.0146 -1.3931
  229MOL0     H30877   3.190   6.122   5.785  2.7405 -2.9804 -0.5290
  229MOL0     H30878   3.263   6.076   5.947 -1.6605 -2.8312  0.3428
  229MOL0     H30879   3.648   6.357   6.150  1.8275  0.0124  1.0493
  229MOL0     H30880   3.910   6.403   6.114  0.1025 -1.1125 -0.3295
  229MOL0     H30881   4.017   6.701   5.888  1.5601  0.0480 -1.3585
  229MOL0     H30882   3.986   6.646   6.052 -0.0631 -0.2580  0.1632
  229MOL0     H30883   4.210   6.511   6.044  0.9137 -0.8270 -1.7687
  229MOL0     H30884   4.243   6.614   5.901 -2.3415  3.6887 -0.9376
  229MOL0     H30885   4.189   6.811   6.064  2.7175  1.6185  0.1973
  229MOL0     H30886   4.348   6.735   6.065 -0.1878 -1.0863  1.0171
  229MOL0     H30887   4.105   6.670   6.246 -0.2215 -0.1036 -2.7929
  229MOL0     H30888   4.275   6.600   6.264  0.2884  0.7715  1.3263
  229MOL0     H30889   4.209   6.892   6.295  3.7379  0.6456 -0.7430
  229MOL0     H30890   4.359   6.807   6.324  0.1772 -2.7021  0.8005
  229MOL0     H30891   4.098   6.734   6.475 -0.3635  0.2141 -0.4159
  229MOL0     H30892   4.259   6.664   6.491  2.6308  2.8058  0.5074
  229MOL0     H30893   4.192   6.958   6.505 -2.0797  0.4391  2.2227
  229MOL0     H30894   4.347   6.893   6.564  0.0389  1.1919 -0.0243
  229MOL0     H30895   4.076   6.828   6.682 -0.2243 -2.9486  1.2525
  229MOL0     H30896   4.200   6.945   6.756  0.2817 -2.2265  2.0881
  229MOL0     H30897   3.803   6.518   5.712 -1.7297 -1.1226 -1.2892
  229MOL0     H30898   3.573   6.446   5.756  0.1943 -1.2212 -0.6530
  229MOL0     H30899   3.293   6.525   6.066 -0.5040 -0.0039 -0.3545
  229MOL0     H30900   3.078   6.551   6.172  3.1432  1.2283 -1.5932
  229MOL0     H30901   1.559   5.215   6.015  1.7071  1.0461 -0.8377
  229MOL0     H30902   1.320   5.182   6.026 -0.2426 -1.6417 -2.9245
  229MOL0     H30903   0.936   5.196   6.016 -0.7498 -3.4473  1.5138
  229MOL0     H30904   0.700   5.153   6.047  1.3502 -0.0725 -1.0405
  229MOL0     H30905   0.518   5.037   6.039  0.8991 -1.0497 -1.4396
  229MOL0     H30906   0.448   5.201   6.012  0.3533 -0.6411  2.8719
  229MOL0     H30907   0.245   5.116   5.926 -0.0858 -1.8662 -1.2827
  229MOL0     H30908   0.286   5.037   6.083  1.2991  5.0687  0.8128
  229MOL0     H30909   0.382   4.832   5.924 -1.6772 -3.1745  0.3685
  229MOL0     H30910   0.321   4.935   5.789 -3.6543  0.5077 -0.2998
  229MOL0     H30911   0.179   4.750   5.831  0.5271 -0.3646  0.3690
  229MOL0     H30912   0.091   4.891   5.881 -0.2038  0.3860 -0.4520
  229MOL0     H30913   0.159   4.672   6.238 -1.9040  0.4596  1.0292
  229MOL0     H30914   0.660   5.089   5.628 -1.1690 -1.1672  0.7455
  229MOL0     H30915   0.881   5.143   5.597  1.0213 -0.6313  0.1045
  230MOL0     O30916   9.572   8.302   6.830  0.3146  0.2862 -0.6622
  230MOL0     C30917   9.531   8.220   6.745  0.1091  0.6325  1.1300
  230MOL0     O30918   9.608   8.166   6.636  0.3642  0.9567  0.3605
  230MOL0     C30919   9.741   8.170   6.651 -0.1611  0.4884  0.2390
  230MOL0     C30920   9.802   8.122   6.766  0.3132  0.1274 -0.4051
  230MOL0     C30921   9.939   8.133   6.785  0.0269 -0.0529  0.1994
  230MOL0     C30922  10.025   8.171   6.680 -0.8869  0.1778  0.7583
  230MOL0     O30923  10.165   8.159   6.689  0.0854  0.2755  0.6668
  230MOL0     C30924  10.223   8.051   6.766  0.2091  0.1634  0.3685
  230MOL0     C30925  10.366   8.042   6.750  0.1300 -0.1157  0.3838
  230MOL0     C30926  10.403   8.021   6.596  0.2972 -0.9408 -0.2927
  230MOL0     C30927  10.548   7.982   6.607 -0.6986 -0.2326  0.2559
  230MOL0     C30928  10.614   7.988   6.462  0.0384  0.7473 -0.7413
  230MOL0     C30929  10.567   7.879   6.366  0.3042 -0.2912  1.3330
  230MOL0     C30930  10.579   7.739   6.416 -0.5367 -0.0503  0.2935
  230MOL0     C30931  10.548   7.629   6.305  0.2551 -0.4244  0.6146
  230MOL0     N30932  10.397   7.619   6.270  0.0132  0.6259  0.6208
  230MOL0     C30933  10.325   7.624   6.153 -0.0295 -0.7495 -0.0028
  230MOL0     C30934  10.201   7.588   6.186 -0.6984  0.5984  0.1125
  230MOL0     C30935  10.085   7.547   6.091  0.1164  1.0182  0.1096
  230MOL0     C30936  10.118   7.433   5.992 -0.3338  0.4829  0.9793
  230MOL0     C30937  10.228   7.324   6.023 -0.2028  0.1141  1.5616
  230MOL0     C30938  10.222   7.212   5.916 -0.3081  0.8118 -0.1815
  230MOL0     O30939  10.106   7.134   5.945  0.2193 -0.1221  0.2672
  230MOL0     C30940  10.088   7.021   5.875  0.0059  0.1100 -0.2853
  230MOL0     C30941  10.167   6.974   5.768 -0.1190  0.3365  0.2347
  230MOL0     C30942  10.141   6.856   5.696  0.3388  0.5558  0.5994
  230MOL0     C30943  10.219   6.840   5.570  0.3317  0.2662  0.2582
  230MOL0     C30944  10.033   6.766   5.739  0.1413 -0.6693 -0.1398
  230MOL0     C30945  10.001   6.638   5.667 -0.2830 -0.4016 -0.1777
  230MOL0     O30946   9.881   6.572   5.696 -0.2260 -0.5241  0.4370
  230MOL0     C30947   9.829   6.480   5.605  0.2898 -0.0655  0.9394
  230MOL0     C30948   9.737   6.393   5.663 -0.4559  0.6898  0.7308
  230MOL0     C30949   9.666   6.299   5.581  0.4095  0.3969 -0.6651
  230MOL0     C30950   9.687   6.281   5.442 -0.5381  0.3943 -0.2175
  230MOL0     O30951   9.626   6.186   5.358  0.1270  0.0519  0.3802
  230MOL0     C30952   9.658   6.199   5.218  0.0505 -0.4142 -0.1741
  230MOL0     C30953   9.593   6.078   5.149 -0.2769  0.2438  0.1511
  230MOL0     C30954   9.600   6.101   4.991 -0.1341  0.3449 -1.5129
  230MOL0     C30955   9.585   5.968   4.921 -0.1232  0.2042 -0.9556
  230MOL0     C30956   9.712   5.877   4.931  0.2702  0.5515  0.7152
  230MOL0     C30957   9.706   5.779   4.813  0.8896 -1.0147 -0.3807
  230MOL0     C30958   9.825   5.688   4.834 -0.1107 -0.0183 -0.2771
  230MOL0     C30959   9.829   5.582   4.726  0.3470  0.4989  0.1078
  230MOL0    Cl30960   9.926   5.439   4.790  0.3757 -0.1861 -0.4242
  230MOL0     C30961   9.786   6.371   5.393 -0.7448  0.6656  0.7951
  230MOL0     C30962   9.854   6.466   5.468  0.7365  0.3088 -0.4471
  230MOL0     O30963  10.095   6.582   5.607  0.1090 -0.2892  0.2342
  230MOL0     C30964   9.968   6.808   5.855  0.0283  0.9943 -0.0165
  230MOL0     C30965  10.001   6.928   5.926  0.0872  0.1075  0.4096
  230MOL0     N30966  10.193   7.554   6.323  0.5070  0.2519 -1.0539
  230MOL0     N30967  10.309   7.575   6.377 -0.4521 -0.3220 -1.1263
  230MOL0     C30968   9.961   8.214   6.568 -0.1519 -0.1498  0.5666
  230MOL0     C30969   9.824   8.212   6.547 -0.1458  0.5838 -0.8635
  230MOL0     C30970   9.382   8.205   6.734 -1.0695 -0.2563  0.9595
  230MOL0     C30971   9.301   8.283   6.812 -0.2366  0.0196  0.4897
  230MOL0     C30972   9.160   8.272   6.795 -1.2162 -0.2985 -0.4919
  230MOL0     C30973   9.102   8.197   6.692  1.3358 -0.4710  0.5049
  230MOL0     O30974   8.966   8.196   6.662  0.2863 -0.6599 -0.3750
  230MOL0     C30975   8.885   8.306   6.716  0.9034 -0.5090  0.0345
  230MOL0     C30976   8.734   8.303   6.680 -1.1484 -0.5691  0.3911
  230MOL0     C30977   8.719   8.331   6.525  0.0753 -0.0678 -0.5735
  230MOL0     C30978   8.570   8.323   6.484 -0.5828 -0.0573 -0.1467
  230MOL0     C30979   8.481   8.421   6.554  0.9626  0.2825 -1.6542
  230MOL0     C30980   8.408   8.517   6.586 -0.1411 -0.3909 -0.2152
  230MOL0     C30981   9.188   8.128   6.610 -0.3078 -0.7875  0.3410
  230MOL0     C30982   9.325   8.122   6.640  0.5793  0.7763 -0.7108
  230MOL0     H30983   9.744   8.095   6.855 -0.2668 -2.5918 -1.5044
  230MOL0     H30984   9.976   8.098   6.881 -0.1611 -0.4354  0.1342
  230MOL0     H30985  10.204   8.058   6.874  0.3651  1.3771  0.3367
  230MOL0     H30986  10.186   7.955   6.729 -0.9922  0.3859  0.9523
  230MOL0     H30987  10.406   8.138   6.782 -0.9301  0.5900 -0.3531
  230MOL0     H30988  10.408   7.967   6.818  1.2165 -1.0644 -1.2907
  230MOL0     H30989  10.343   7.941   6.552 -0.3197 -0.4854 -0.2839
  230MOL0     H30990  10.404   8.117   6.543  0.9452 -1.3120 -0.9617
  230MOL0     H30991  10.603   8.051   6.672 -2.6735  0.4326  1.3028
  230MOL0     H30992  10.556   7.881   6.648 -2.9451 -1.3245 -1.7329
  230MOL0     H30993  10.610   8.087   6.416  0.3486  1.1653  0.1192
  230MOL0     H30994  10.720   7.980   6.488 -0.4253  2.6766  2.1207
  230MOL0     H30995  10.462   7.889   6.337  1.2545 -2.3418 -4.0318
  230MOL0     H30996  10.615   7.897   6.270 -1.0866  0.0241  0.6780
  230MOL0     H30997  10.675   7.712   6.459  0.3837 -0.0699 -1.6945
  230MOL0     H30998  10.503   7.738   6.495 -0.5065  1.5552  0.3752
  230MOL0     H30999  10.585   7.531   6.335  1.3675 -0.0850  0.3900
  230MOL0     H31000  10.601   7.659   6.215  0.6139  2.4146  1.6708
  230MOL0     H31001  10.356   7.665   6.057 -1.1992  1.8014  0.6233
  230MOL0     H31002  10.003   7.514   6.154  1.2949  0.4461  1.3740
  230MOL0     H31003  10.066   7.640   6.036  2.1260  0.6963 -1.2903
  230MOL0     H31004  10.157   7.488   5.906 -0.9372  2.1630  1.7497
  230MOL0     H31005  10.023   7.389   5.958  0.2111 -0.5592  0.7337
  230MOL0     H31006  10.225   7.281   6.124 -1.3731 -1.3707  0.9382
  230MOL0     H31007  10.323   7.377   6.012 -1.2924  1.5991 -3.7754
  230MOL0     H31008  10.307   7.144   5.925 -0.3932  0.8722  1.1963
  230MOL0     H31009  10.217   7.250   5.813 -2.7504 -1.4787 -1.0133
  230MOL0     H31010  10.247   7.040   5.735 -0.1109  1.6060  2.5941
  230MOL0     H31011  10.313   6.788   5.593 -1.5163 -2.1792  2.8768
  230MOL0     H31012  10.160   6.789   5.493 -0.9555  0.4333  1.1178
  230MOL0     H31013  10.244   6.937   5.524 -0.3020 -0.0147 -0.7198
  230MOL0     H31014   9.736   6.409   5.770  1.6769  2.1980  0.5839
  230MOL0     H31015   9.586   6.251   5.637 -0.0929  2.4410  0.4486
  230MOL0     H31016   9.635   6.294   5.170  2.2921 -0.6534 -1.8642
  230MOL0     H31017   9.762   6.182   5.188 -0.0086 -0.9838 -0.0783
  230MOL0     H31018   9.633   5.983   5.185 -2.0954 -0.1542  1.2301
  230MOL0     H31019   9.491   6.062   5.186 -1.5414  2.5266 -2.0673
  230MOL0     H31020   9.693   6.155   4.968  0.4840 -0.9473 -2.1850
  230MOL0     H31021   9.520   6.169   4.961 -0.0607  2.2618  2.0857
  230MOL0     H31022   9.491   5.921   4.952 -0.3175  0.3634 -1.2972
  230MOL0     H31023   9.559   5.995   4.818 -1.8336 -0.9672 -0.8739
  230MOL0     H31024   9.689   5.821   5.023 -2.0985  1.3652  0.6710
  230MOL0     H31025   9.808   5.929   4.934  0.6663 -0.1200  0.0897
  230MOL0     H31026   9.611   5.726   4.805 -0.2940  1.2101 -2.3242
  230MOL0     H31027   9.702   5.835   4.719  0.7197  1.3227  0.9635
  230MOL0     H31028   9.814   5.646   4.934  3.1771 -0.3943  0.0370
  230MOL0     H31029   9.922   5.738   4.841  1.4423 -2.9876  1.7617
  230MOL0     H31030   9.881   5.618   4.636  0.8426 -5.2303 -2.3039
  230MOL0     H31031   9.723   5.563   4.705 -0.0767  1.3623  1.3650
  230MOL0     H31032   9.821   6.370   5.290 -1.8469  0.9916  0.4077
  230MOL0     H31033   9.908   6.547   5.420 -0.3958  1.7731  0.6719
  230MOL0     H31034   9.881   6.752   5.885  0.3571 -0.2968 -1.3999
  230MOL0     H31035   9.937   6.969   6.004 -0.7740  1.4983 -0.9517
  230MOL0     H31036  10.024   8.253   6.488 -0.7649 -0.0945  0.1028
  230MOL0     H31037   9.753   8.254   6.477 -0.7698  1.5763  0.3349
  230MOL0     H31038   9.341   8.352   6.885  2.3252 -2.5051  1.6587
  230MOL0     H31039   9.096   8.335   6.855 -2.2784 -0.7620 -1.1202
  230MOL0     H31040   8.894   8.299   6.824 -2.0171 -3.2947  0.2418
  230MOL0     H31041   8.925   8.401   6.679  0.6697 -0.6525 -0.6111
  230MOL0     H31042   8.689   8.386   6.735 -0.6965  0.6023 -0.9477
  230MOL0     H31043   8.693   8.207   6.713  0.1906 -0.9659  0.9590
  230MOL0     H31044   8.793   8.286   6.459  2.3884  3.9297 -1.0618
  230MOL0     H31045   8.750   8.436   6.515  2.8285 -0.5219  1.6914
  230MOL0     H31046   8.543   8.220   6.506  1.1847 -0.3175  1.0735
  230MOL0     H31047   8.564   8.335   6.376  0.6182  3.4397  0.0330
  230MOL0     H31048   8.356   8.608   6.605  1.7685  0.7462 -0.1066
  230MOL0     H31049   9.156   8.062   6.530 -0.2286  0.0036 -0.3566
  230MOL0     H31050   9.381   8.051   6.580  1.5196 -0.1917  1.2288
  231MOL0     O31051  10.278   9.289  10.060 -0.2320  0.1174  0.6890
  231MOL0     C31052  10.212   9.360  10.136  0.8587  1.3151  0.2616
  231MOL0     O31053  10.263   9.430  10.248 -0.1884 -0.4705  0.7008
  231MOL0     C31054  10.399   9.426  10.282  0.3401  1.4602 -0.2424
  231MOL0     C31055  10.431   9.339  10.387  0.5855  0.2005 -0.3400
  231MOL0     C31056  10.569   9.316  10.413  0.0230 -0.1696  0.4356
  231MOL0     C31057  10.667   9.387  10.355 -0.9651  0.1470 -0.2525
  231MOL0     O31058  10.795   9.374  10.391 -0.3503  0.5597 -0.0414
  231MOL0     C31059  10.824   9.411  10.526 -0.2057  0.2880 -0.1329
  231MOL0     C31060  10.944   9.514  10.525 -0.5905 -0.6692 -0.5116
  231MOL0     C31061  11.043   9.493  10.634  0.1943 -0.4970 -0.4279
  231MOL0     C31062  11.162   9.588  10.629  0.3732 -0.0561 -0.4168
  231MOL0     C31063  11.233   9.592  10.772  0.1689  0.0894 -0.7190
  231MOL0     C31064  11.352   9.498  10.784 -0.3643 -0.0644 -0.4061
  231MOL0     C31065  11.443   9.502  10.910 -0.3684 -0.9731  0.2226
  231MOL0     C31066  11.367   9.475  11.038  0.0049  1.0136  0.0467
  231MOL0     N31067  11.315   9.334  11.025  0.2590  0.1255  1.1928
  231MOL0     C31068  11.183   9.294  11.036 -0.3959  0.2941  0.6622
  231MOL0     C31069  11.170   9.168  10.987 -0.2643  0.4687  0.1130
  231MOL0     C31070  11.059   9.071  10.980 -0.3915  1.0123  0.4766
  231MOL0     C31071  10.968   9.118  10.862  0.0909  0.8258  0.1410
  231MOL0     C31072  10.834   9.042  10.870  0.6473 -0.6214  0.1663
  231MOL0     C31073  10.849   8.891  10.818 -0.7512  0.0678 -1.0191
  231MOL0     O31074  10.910   8.821  10.924  0.5000  0.0924 -0.0315
  231MOL0     C31075  11.020   8.745  10.894 -0.7468 -0.5305  0.2319
  231MOL0     C31076  11.086   8.692  11.011  0.7863  0.3628 -0.2812
  231MOL0     C31077  11.200   8.619  10.993 -0.0804 -0.0133 -0.6409
  231MOL0     C31078  11.266   8.579  11.121  0.5212  0.5545  0.2083
  231MOL0     C31079  11.260   8.589  10.867 -0.0443 -0.5686  0.8663
  231MOL0     C31080  11.366   8.480  10.853  0.1322 -0.3548 -0.3278
  231MOL0     O31081  11.420   8.421  10.956  0.0542  0.0902  0.0542
  231MOL0     C31082  11.523   8.338  10.930  0.0099  0.0716 -0.0987
  231MOL0     C31083  11.505   8.210  10.978  0.4525 -0.1643  0.3534
  231MOL0     C31084  11.607   8.118  10.965 -0.1888 -0.1073 -0.2373
  231MOL0     C31085  11.733   8.157  10.917  0.4578  0.3274  0.4949
  231MOL0     O31086  11.840   8.062  10.915 -0.1355  0.1529  0.4874
  231MOL0     C31087  11.957   8.072  10.841  0.4986  0.2812 -0.4783
  231MOL0     C31088  12.000   7.929  10.795  0.0962  0.0425 -0.0608
  231MOL0     C31089  12.133   7.928  10.719 -0.6061 -0.1378  0.9889
  231MOL0     C31090  12.161   7.792  10.653  0.6185  0.9954  0.4689
  231MOL0     C31091  12.300   7.804  10.600 -0.9526  0.0743  0.1165
  231MOL0     C31092  12.306   7.884  10.465  0.3428 -0.2204 -0.0146
  231MOL0     C31093  12.227   7.838  10.344 -0.7646  0.0003  0.3834
  231MOL0     C31094  12.249   7.689  10.327  0.8068  0.1346  0.0057
  231MOL0    Cl31095  12.430   7.646  10.301  0.3317 -0.1554  0.0677
  231MOL0     C31096  11.747   8.290  10.861  0.6200  0.3364 -0.4366
  231MOL0     C31097  11.636   8.377  10.872 -0.1736 -0.0388 -0.1327
  231MOL0     O31098  11.385   8.444  10.738 -0.5670 -0.4639 -0.4432
  231MOL0     C31099  11.192   8.643  10.755 -0.0890  0.0567 -0.6987
  231MOL0     C31100  11.076   8.722  10.766 -0.5463 -0.8578  0.5226
  231MOL0     N31101  11.301   9.124  10.970  0.0729  0.0807 -0.4785
  231MOL0     N31102  11.388   9.227  10.987  0.0936 -0.2263 -0.0576
  231MOL0     C31103  10.629   9.486  10.252 -0.8816  0.1053  0.7236
  231MOL0     C31104  10.494   9.497  10.215  0.1741  0.1748  0.0926
  231MOL0     C31105  10.072   9.366  10.105  0.6555 -0.0274 -0.7035
  231MOL0     C31106   9.978   9.398  10.213 -0.0977 -0.6123  0.7121
  231MOL0     C31107   9.842   9.406  10.190 -0.4172  1.0714 -0.1845
  231MOL0     C31108   9.799   9.402  10.056 -0.0332  0.5063  1.2687
  231MOL0     O31109   9.669   9.394  10.007  1.2254  0.6379 -0.5607
  231MOL0     C31110   9.552   9.363  10.090 -1.0465 -0.8951  0.4633
  231MOL0     C31111   9.581   9.228  10.157  0.6112 -0.8373 -0.5223
  231MOL0     C31112   9.459   9.169  10.232 -1.0215  0.0307  0.7405
  231MOL0     C31113   9.380   9.267  10.319  1.6636  0.2788 -0.2129
  231MOL0     C31114   9.463   9.338  10.416 -0.5526 -0.1192  0.6584
  231MOL0     C31115   9.528   9.403  10.495  0.1153  0.1050  0.3001
  231MOL0     C31116   9.899   9.384   9.953  0.5075  0.2372 -0.2096
  231MOL0     C31117  10.028   9.359   9.978  0.0651  0.0653 -0.1966
  231MOL0     H31118  10.360   9.265  10.424  1.9844 -1.7580 -1.3693
  231MOL0     H31119  10.598   9.237  10.481 -1.5551  0.2660  1.6944
  231MOL0     H31120  10.737   9.458  10.573 -1.2539  1.2002 -2.7515
  231MOL0     H31121  10.851   9.322  10.583 -1.4032  1.2012  1.9602
  231MOL0     H31122  10.998   9.503  10.430 -1.1070  0.0443 -0.8914
  231MOL0     H31123  10.892   9.610  10.527 -1.4661 -1.1053 -1.5037
  231MOL0     H31124  10.997   9.507  10.733 -1.9785  0.6963 -1.5320
  231MOL0     H31125  11.085   9.392  10.624 -3.2474 -1.9644 -1.7899
  231MOL0     H31126  11.223   9.556  10.543 -0.1450  0.3150 -0.9317
  231MOL0     H31127  11.123   9.687  10.602  0.0904  0.0259  0.2825
  231MOL0     H31128  11.280   9.691  10.776  2.2785 -0.8111  4.1526
  231MOL0     H31129  11.158   9.596  10.851 -0.0712  1.8887 -0.9806
  231MOL0     H31130  11.308   9.398  10.775  1.7819 -1.7596  4.3020
  231MOL0     H31131  11.430   9.508  10.709  2.1214 -3.8957  1.3034
  231MOL0     H31132  11.528   9.435  10.899  1.3503  1.4858 -2.8588
  231MOL0     H31133  11.481   9.603  10.926 -3.9651  0.3041  1.9108
  231MOL0     H31134  11.276   9.531  11.063 -1.9095 -2.6655  2.3045
  231MOL0     H31135  11.430   9.498  11.124  1.0270  2.3105 -0.9986
  231MOL0     H31136  11.097   9.339  11.085 -1.2953 -1.3959  0.6919
  231MOL0     H31137  11.103   8.974  10.953  3.1483  1.8095  2.7179
  231MOL0     H31138  11.009   9.058  11.076 -1.5000  0.1898 -0.1889
  231MOL0     H31139  11.011   9.098  10.763 -3.1047  1.8766 -1.6135
  231MOL0     H31140  10.961   9.227  10.868  0.8659  0.8899 -0.0391
  231MOL0     H31141  10.758   9.098  10.815  2.2956  1.6880  0.1057
  231MOL0     H31142  10.783   9.046  10.967 -5.4924 -1.7753 -2.5327
  231MOL0     H31143  10.893   8.881  10.718  1.7643 -1.3119  0.1351
  231MOL0     H31144  10.743   8.869  10.808 -1.4715  2.5863  0.2015
  231MOL0     H31145  11.039   8.714  11.107  1.6762  1.0588  0.0050
  231MOL0     H31146  11.242   8.473  11.134 -1.0810  1.0160  1.3729
  231MOL0     H31147  11.375   8.593  11.120  0.7140 -0.1533  2.6822
  231MOL0     H31148  11.242   8.636  11.212 -0.0012  1.5087 -0.5047
  231MOL0     H31149  11.408   8.189  11.022 -1.2195 -0.0475 -2.9581
  231MOL0     H31150  11.603   8.015  10.999 -0.6846  0.0476  0.1838
  231MOL0     H31151  11.948   8.145  10.761  3.5717  1.5092  0.1280
  231MOL0     H31152  12.035   8.108  10.910 -1.0859 -0.5581  1.8827
  231MOL0     H31153  12.010   7.871  10.886  0.4798  2.0574  1.2419
  231MOL0     H31154  11.916   7.886  10.738 -2.3885 -0.0054  3.3624
  231MOL0     H31155  12.214   7.935  10.793 -1.6064  1.7747  1.9929
  231MOL0     H31156  12.135   8.002  10.639  0.6379 -2.1958 -1.0117
  231MOL0     H31157  12.159   7.714  10.730 -1.5309 -0.6063 -1.0710
  231MOL0     H31158  12.088   7.764  10.576 -0.3821 -2.7287  2.5070
  231MOL0     H31159  12.334   7.700  10.604  0.0232  0.4245  1.8759
  231MOL0     H31160  12.364   7.860  10.669  0.8506 -1.2173 -0.4362
  231MOL0     H31161  12.265   7.983  10.487  1.8103 -0.1270  2.7652
  231MOL0     H31162  12.413   7.889  10.439  0.1172 -1.4405 -1.3281
  231MOL0     H31163  12.255   7.891  10.252  1.0050  2.7052  2.3557
  231MOL0     H31164  12.125   7.856  10.379 -0.4076 -1.7013  2.5267
  231MOL0     H31165  12.205   7.670  10.228  0.2569  1.1495  0.0410
  231MOL0     H31166  12.196   7.624  10.397 -1.6403  2.2996  0.3250
  231MOL0     H31167  11.839   8.334  10.823  1.1482 -1.7264 -1.7167
  231MOL0     H31168  11.647   8.481  10.840 -1.7421  0.0034 -0.6157
  231MOL0     H31169  11.231   8.623  10.656  2.8720 -2.8979  0.8390
  231MOL0     H31170  11.026   8.763  10.678 -1.4026  0.7547  1.7156
  231MOL0     H31171  10.712   9.534  10.201 -2.1053 -0.2345 -1.7574
  231MOL0     H31172  10.464   9.580  10.152 -1.1889 -0.6122 -0.3409
  231MOL0     H31173  10.021   9.390  10.312  2.6897 -2.1556 -0.4834
  231MOL0     H31174   9.774   9.429  10.271 -0.2578  1.4420 -0.1568
  231MOL0     H31175   9.544   9.440  10.167 -0.8396  0.1635 -0.5453
  231MOL0     H31176   9.459   9.359  10.032 -2.3068 -0.7972  2.3968
  231MOL0     H31177   9.652   9.244  10.238 -0.8173 -3.1728  1.2922
  231MOL0     H31178   9.623   9.150  10.093  1.3570  0.6075 -1.8685
  231MOL0     H31179   9.492   9.093  10.303 -1.4197  0.5833  1.5325
  231MOL0     H31180   9.388   9.121  10.164 -1.4646 -0.6124  1.6347
  231MOL0     H31181   9.292   9.220  10.362  2.9753  0.6392  3.2227
  231MOL0     H31182   9.338   9.345  10.255 -3.2334 -2.8432 -1.3881
  231MOL0     H31183   9.609   9.452  10.547  0.8620  0.6281 -1.2864
  231MOL0     H31184   9.862   9.371   9.851  2.8896  3.3191 -1.6646
  231MOL0     H31185  10.090   9.325   9.895  0.7079 -1.0274  0.7073
  232MOL0     O31186   8.221   2.728   0.206 -0.1371  0.7684 -0.2406
  232MOL0     C31187   8.171   2.699   0.098 -0.0835 -1.0357 -0.0571
  232MOL0     O31188   8.191   2.591   0.033  0.7373 -0.4005  0.6505
  232MOL0     C31189   8.249   2.477   0.080 -0.0981  0.0073  0.0162
  232MOL0     C31190   8.236   2.414   0.204 -0.8465 -0.6915 -0.3968
  232MOL0     C31191   8.293   2.291   0.230 -0.4088 -0.4077  0.4092
  232MOL0     C31192   8.378   2.227   0.140  0.6447  1.3373  1.1945
  232MOL0     O31193   8.431   2.101   0.174  0.3818 -0.4384  0.6280
  232MOL0     C31194   8.514   2.041   0.070  0.2630  0.3290 -0.2335
  232MOL0     C31195   8.659   2.090   0.066  1.0487  0.0244 -0.0338
  232MOL0     C31196   8.737   2.040   0.187 -0.0906 -0.1170  0.3752
  232MOL0     C31197   8.876   1.975   0.148  0.7694 -0.2593  0.2989
  232MOL0     C31198   8.969   1.950   0.262 -0.0743 -1.4611  0.3601
  232MOL0     C31199   9.109   1.996   0.228 -0.2954 -0.1914 -0.2343
  232MOL0     C31200   9.206   1.967   0.344  0.0380 -0.0025 -0.3187
  232MOL0     C31201   9.341   2.016   0.300  0.0395  0.2519 -0.3246
  232MOL0     N31202   9.452   1.991   0.394 -0.2857 -0.1526  0.7088
  232MOL0     C31203   9.458   2.061   0.515 -0.3737 -0.1002 -0.1442
  232MOL0     C31204   9.554   2.002   0.580 -0.2782 -0.6714 -0.1807
  232MOL0     C31205   9.597   2.032   0.726  0.1351  0.5322 -0.0550
  232MOL0     C31206   9.612   2.176   0.780  0.9397 -0.6155  0.1650
  232MOL0     C31207   9.725   2.267   0.737 -0.2571  1.1070  0.2378
  232MOL0     C31208   9.864   2.199   0.734 -0.2390  0.6662  0.3493
  232MOL0     O31209   9.884   2.153   0.871 -0.0743 -0.3169  0.8712
  232MOL0     C31210   9.991   2.088   0.915 -0.7949  0.7052 -0.1724
  232MOL0     C31211  10.110   2.051   0.842  0.0243 -0.3801 -0.3505
  232MOL0     C31212  10.219   1.994   0.903 -0.3607 -0.5137 -1.3644
  232MOL0     C31213  10.336   1.954   0.803 -0.2321 -0.4004 -0.4910
  232MOL0     C31214  10.217   1.980   1.050 -0.5005 -0.4744  0.2024
  232MOL0     C31215  10.310   1.898   1.131 -0.0845  0.2512 -0.1261
  232MOL0     O31216  10.257   1.800   1.212  0.4030 -0.0471  0.3918
  232MOL0     C31217  10.343   1.732   1.296  0.2946 -0.2933  0.0969
  232MOL0     C31218  10.351   1.769   1.426  0.4186 -0.7310 -0.3853
  232MOL0     C31219  10.443   1.722   1.513 -0.2404 -0.8942 -0.2400
  232MOL0     C31220  10.514   1.602   1.484  0.5131 -0.4623 -0.2956
  232MOL0     O31221  10.596   1.533   1.575  0.2420  0.2661  0.5192
  232MOL0     C31222  10.711   1.478   1.531 -0.8834 -0.2876  0.5906
  232MOL0     C31223  10.772   1.409   1.647 -0.2104 -0.4384 -0.4215
  232MOL0     C31224  10.909   1.334   1.607  0.6251 -0.2751 -0.1629
  232MOL0     C31225  10.968   1.249   1.718  0.3259 -0.0042  0.1691
  232MOL0     C31226  10.883   1.133   1.781  0.1571  0.2408  0.9154
  232MOL0     C31227  10.850   1.023   1.676 -0.2347 -0.8722 -0.0815
  232MOL0     C31228  10.777   0.907   1.743  0.5870 -0.4034 -0.0550
  232MOL0     C31229  10.703   0.813   1.643 -0.0487 -0.4941  0.2128
  232MOL0    Cl31230  10.813   0.748   1.524  0.2091 -0.7472  0.0710
  232MOL0     C31231  10.503   1.556   1.345  0.8897 -0.7343 -0.5537
  232MOL0     C31232  10.417   1.621   1.246 -0.7477 -0.4148  0.5946
  232MOL0     O31233  10.426   1.926   1.129  0.7191 -0.0856  0.4354
  232MOL0     C31234  10.095   2.018   1.114  1.0495 -0.5506 -1.0080
  232MOL0     C31235   9.989   2.078   1.052  0.4105  0.2777 -0.0495
  232MOL0     N31236   9.607   1.900   0.499 -0.2153 -0.4345 -0.2155
  232MOL0     N31237   9.537   1.892   0.392 -0.3439 -0.3135 -0.3374
  232MOL0     C31238   8.383   2.292   0.018  0.0598  0.3954  0.0611
  232MOL0     C31239   8.328   2.415  -0.015  0.0583  0.2209 -0.0121
  232MOL0     C31240   8.081   2.802   0.036  0.2580 -0.6826  0.2253
  232MOL0     C31241   8.056   2.931   0.083  0.1794 -0.5773  0.1962
  232MOL0     C31242   7.986   3.022   0.003  0.4460 -0.4189  0.6083
  232MOL0     C31243   7.954   2.996  -0.124  0.7962  0.7218  0.2013
  232MOL0     O31244   7.893   3.092  -0.191  0.2759 -0.4781  0.1630
  232MOL0     C31245   7.884   3.092  -0.335  0.0953 -0.1147  0.1456
  232MOL0     C31246   7.823   3.217  -0.382 -0.7023 -0.2301 -0.3905
  232MOL0     C31247   7.862   3.246  -0.530  0.1172  0.0358  0.4035
  232MOL0     C31248   7.848   3.390  -0.572 -0.8514 -0.5249  0.8811
  232MOL0     C31249   7.715   3.453  -0.586  0.1285 -0.1781  0.0987
  232MOL0     C31250   7.602   3.491  -0.577  0.5837  0.0102  0.2871
  232MOL0     C31251   7.970   2.868  -0.164  0.9433 -0.4209  0.2382
  232MOL0     C31252   8.039   2.771  -0.098  0.5608  0.8560 -0.6965
  232MOL0     H31253   8.172   2.454   0.282 -0.1880 -1.6856  0.6778
  232MOL0     H31254   8.283   2.240   0.325  3.4913  1.9207  2.3260
  232MOL0     H31255   8.514   1.932   0.083 -0.3551  0.4825  1.3586
  232MOL0     H31256   8.469   2.043  -0.029 -0.4662  1.1651  0.0973
  232MOL0     H31257   8.700   2.047  -0.026  2.3615  1.0257  0.0507
  232MOL0     H31258   8.652   2.198   0.080  0.2880  0.1725 -1.4565
  232MOL0     H31259   8.744   2.126   0.255  0.8872 -1.6360  2.2809
  232MOL0     H31260   8.682   1.954   0.227 -0.4539 -0.8583 -1.6379
  232MOL0     H31261   8.859   1.884   0.090 -0.3651  0.0191  0.1648
  232MOL0     H31262   8.915   2.046   0.074 -1.1655 -0.7875 -1.3087
  232MOL0     H31263   8.951   2.025   0.340  2.5599  0.5882 -0.8331
  232MOL0     H31264   8.973   1.853   0.313  1.6401 -1.8016 -0.3347
  232MOL0     H31265   9.136   1.938   0.140  0.3590  0.5181 -0.5154
  232MOL0     H31266   9.110   2.103   0.206  1.6641  0.5388  2.8138
  232MOL0     H31267   9.175   2.018   0.436  1.2894 -2.4076  1.5660
  232MOL0     H31268   9.217   1.860   0.362 -0.7984  0.2190  1.7235
  232MOL0     H31269   9.345   2.121   0.269  1.9218  0.1712 -0.5080
  232MOL0     H31270   9.373   1.943   0.225 -0.4461 -2.9227  2.2897
  232MOL0     H31271   9.386   2.140   0.535  0.7164  0.4131  2.1299
  232MOL0     H31272   9.520   1.983   0.787  0.5323  0.7825  0.6576
  232MOL0     H31273   9.691   1.979   0.743 -0.2439 -1.2909 -2.9930
  232MOL0     H31274   9.646   2.163   0.883  3.3694 -3.4701 -0.8610
  232MOL0     H31275   9.522   2.237   0.768  0.1122 -2.3091 -3.9385
  232MOL0     H31276   9.732   2.355   0.802 -0.7257  2.2404 -1.1970
  232MOL0     H31277   9.695   2.311   0.642  0.2025  2.0103  0.5012
  232MOL0     H31278   9.951   2.258   0.704  1.3244 -0.3605  2.5927
  232MOL0     H31279   9.849   2.107   0.676 -2.6156  2.0357 -1.4067
  232MOL0     H31280  10.107   2.068   0.735 -3.7977 -0.5810 -0.3818
  232MOL0     H31281  10.409   1.890   0.854  0.5596  1.4114  0.7674
  232MOL0     H31282  10.300   1.912   0.709  0.7293  0.1751 -1.1344
  232MOL0     H31283  10.392   2.047   0.787  0.9288 -0.8300  0.8858
  232MOL0     H31284  10.292   1.848   1.471 -0.8754  0.1755 -3.4752
  232MOL0     H31285  10.456   1.751   1.617  2.0195 -4.5967  0.7178
  232MOL0     H31286  10.694   1.414   1.444  0.5210 -1.2898  1.0172
  232MOL0     H31287  10.785   1.553   1.502 -2.6413 -0.1566 -4.3559
  232MOL0     H31288  10.794   1.486   1.722  1.4331 -1.5742  0.3310
  232MOL0     H31289  10.699   1.338   1.687  0.0491  0.0751  1.0291
  232MOL0     H31290  10.979   1.413   1.578  0.7527 -0.2854  0.1205
  232MOL0     H31291  10.881   1.267   1.525  0.7131  0.0688 -0.4717
  232MOL0     H31292  11.070   1.215   1.696  0.3107  1.3957 -2.3799
  232MOL0     H31293  10.977   1.322   1.799 -1.0074 -0.1724  0.4915
  232MOL0     H31294  10.792   1.179   1.820  1.5406  5.2860 -1.1151
  232MOL0     H31295  10.935   1.092   1.868  2.0034  0.1788 -0.1642
  232MOL0     H31296  10.774   1.066   1.611  2.1004  2.9636 -0.5443
  232MOL0     H31297  10.937   0.990   1.619  2.3343  0.8966  2.5367
  232MOL0     H31298  10.700   0.945   1.810  1.7779 -0.2008  1.2624
  232MOL0     H31299  10.851   0.855   1.805  2.5292  0.6674 -1.3512
  232MOL0     H31300  10.622   0.867   1.593  1.0678  1.7360  0.6896
  232MOL0     H31301  10.671   0.733   1.710 -2.9838 -0.9735 -1.5766
  232MOL0     H31302  10.553   1.463   1.320  0.7670 -0.9609  0.0112
  232MOL0     H31303  10.420   1.587   1.143  1.6472 -0.1198  0.5140
  232MOL0     H31304  10.079   1.986   1.216  0.3849 -1.3134 -1.3454
  232MOL0     H31305   9.899   2.107   1.106  1.4776  3.5225  0.2006
  232MOL0     H31306   8.437   2.242  -0.062  3.3620 -0.2297  2.4791
  232MOL0     H31307   8.350   2.446  -0.117  0.2097 -1.0160 -0.3667
  232MOL0     H31308   8.094   2.968   0.178  0.9906 -1.9624  0.4412
  232MOL0     H31309   7.954   3.118   0.043 -2.4134 -0.4202 -1.4162
  232MOL0     H31310   7.986   3.073  -0.370  0.6871 -0.5192  1.9919
  232MOL0     H31311   7.821   3.009  -0.369 -0.0504  0.2596 -0.5034
  232MOL0     H31312   7.851   3.296  -0.311 -2.3407 -0.9561  1.1261
  232MOL0     H31313   7.714   3.224  -0.375 -0.8348  0.8052 -2.8143
  232MOL0     H31314   7.797   3.194  -0.601  1.1868  0.3743 -0.8609
  232MOL0     H31315   7.965   3.221  -0.557 -0.7214  0.6111 -4.0905
  232MOL0     H31316   7.904   3.411  -0.664 -0.7907  1.0590  1.2466
  232MOL0     H31317   7.894   3.439  -0.485 -2.2048  1.3946  0.5980
  232MOL0     H31318   7.502   3.526  -0.558  0.1082 -2.2081  2.2366
  232MOL0     H31319   7.958   2.835  -0.267  0.3060 -0.6994  0.3952
  232MOL0     H31320   8.055   2.673  -0.141 -2.7536 -1.5232  2.7563
  233MOL0     O31321   1.023  10.489   1.752  1.1368 -1.1747  0.3021
  233MOL0     C31322   0.915  10.506   1.814 -0.2917 -0.2802  0.0465
  233MOL0     O31323   0.898  10.568   1.934  0.9966 -0.2053  0.5304
  233MOL0     C31324   0.999  10.644   1.976 -0.5376  0.0821  0.1060
  233MOL0     C31325   0.994  10.646   2.112 -0.0928  0.4736 -1.1066
  233MOL0     C31326   1.085  10.722   2.184 -0.0157 -1.0712 -0.8952
  233MOL0     C31327   1.182  10.798   2.111 -0.0134 -0.1641 -1.4396
  233MOL0     O31328   1.273  10.861   2.197 -0.0458 -0.3626  0.7561
  233MOL0     C31329   1.370  10.940   2.122 -0.6318  0.0151 -0.5707
  233MOL0     C31330   1.317  11.080   2.094 -0.1597 -0.2175 -0.3327
  233MOL0     C31331   1.431  11.183   2.072 -0.2444 -0.1033  0.1172
  233MOL0     C31332   1.381  11.305   1.985 -0.6751 -0.6913  0.0319
  233MOL0     C31333   1.483  11.417   1.996  0.3957 -0.4393 -0.7769
  233MOL0     C31334   1.451  11.547   1.918  1.0441  0.6086 -0.6294
  233MOL0     C31335   1.569  11.640   1.896 -0.9951  0.1842 -0.4639
  233MOL0     C31336   1.552  11.785   1.940 -0.7487  0.6777 -0.2871
  233MOL0     N31337   1.670  11.857   1.878 -0.1551 -0.3709  0.3420
  233MOL0     C31338   1.684  11.965   1.787  1.1322  0.1508 -0.3949
  233MOL0     C31339   1.801  12.025   1.808 -0.4252 -0.6525 -0.1953
  233MOL0     C31340   1.857  12.150   1.739 -0.0920  0.4676 -0.2449
  233MOL0     C31341   1.892  12.099   1.591 -0.5198 -2.1341 -0.3467
  233MOL0     C31342   2.006  11.993   1.591  0.0564 -0.6234 -0.2572
  233MOL0     C31343   2.096  11.987   1.469  0.2030 -0.4468  0.0155
  233MOL0     O31344   2.013  11.962   1.357  0.1492 -0.1368  0.7635
  233MOL0     C31345   2.063  11.901   1.247  0.8463  0.2249 -0.0887
  233MOL0     C31346   1.973  11.864   1.149  1.1909 -0.2494 -0.6090
  233MOL0     C31347   2.014  11.799   1.030 -0.0415 -0.3276 -0.3612
  233MOL0     C31348   1.905  11.778   0.935 -0.0453  0.1098  0.4866
  233MOL0     C31349   2.158  11.775   1.013 -0.6039 -0.9850 -0.0703
  233MOL0     C31350   2.220  11.699   0.909  0.1139  0.7660  0.4513
  233MOL0     O31351   2.327  11.747   0.853 -0.6879 -0.4567  0.8524
  233MOL0     C31352   2.401  11.678   0.752  0.0602 -0.0892 -0.1974
  233MOL0     C31353   2.534  11.701   0.732 -0.8556 -0.3782 -0.9647
  233MOL0     C31354   2.604  11.654   0.629 -0.4246 -0.2888 -0.8075
  233MOL0     C31355   2.537  11.576   0.526 -0.0373 -0.8421 -0.5620
  233MOL0     O31356   2.609  11.544   0.418  0.0293 -0.0603 -0.1648
  233MOL0     C31357   2.540  11.463   0.319  0.0705 -0.0690  1.0457
  233MOL0     C31358   2.626  11.408   0.215  0.7531  0.0076  0.3096
  233MOL0     C31359   2.548  11.336   0.105  0.7200  1.0070  0.2731
  233MOL0     C31360   2.651  11.293  -0.003  0.4177  0.8895  0.7163
  233MOL0     C31361   2.554  11.228  -0.106 -0.6181  0.5811  0.5008
  233MOL0     C31362   2.617  11.149  -0.209 -0.8370 -0.6388  0.5087
  233MOL0     C31363   2.677  11.015  -0.157  0.7231 -0.3506  0.9384
  233MOL0     C31364   2.717  10.915  -0.269  0.3195 -0.3563  0.1438
  233MOL0    Cl31365   2.782  10.769  -0.190  0.6209  0.2932  0.4677
  233MOL0     C31366   2.404  11.550   0.543  0.7556 -0.8323 -0.3493
  233MOL0     C31367   2.335  11.600   0.657  0.5452 -0.1388 -0.2963
  233MOL0     O31368   2.160  11.594   0.877 -0.1692 -0.1108  0.3398
  233MOL0     C31369   2.250  11.826   1.113 -0.5247 -1.4096  0.5002
  233MOL0     C31370   2.202  11.894   1.223  0.0553 -0.1934  0.8720
  233MOL0     N31371   1.868  11.954   1.906 -1.0753  0.8152  0.4481
  233MOL0     N31372   1.788  11.857   1.946  0.3255  0.0242 -0.2110
  233MOL0     C31373   1.174  10.809   1.967 -0.2424 -0.4768  0.0326
  233MOL0     C31374   1.085  10.726   1.902 -0.4909  0.3720  1.7177
  233MOL0     C31375   0.792  10.456   1.749  0.2837 -0.4788 -0.2235
  233MOL0     C31376   0.671  10.446   1.813  0.6812  0.3131 -0.1291
  233MOL0     C31377   0.560  10.396   1.737 -0.6047  0.1401 -0.0467
  233MOL0     C31378   0.564  10.376   1.600 -0.2153  0.2823 -0.0178
  233MOL0     O31379   0.450  10.349   1.523  0.1245  0.2036  0.7172
  233MOL0     C31380   0.381  10.225   1.556 -0.1751  0.6876  0.8583
  233MOL0     C31381   0.267  10.191   1.451 -0.7941 -0.7724  0.5749
  233MOL0     C31382   0.180  10.309   1.406  0.4895  0.6856  0.0843
  233MOL0     C31383   0.082  10.352   1.517  0.3633 -0.1465 -0.4022
  233MOL0     C31384  -0.027  10.414   1.446  0.5340  0.2380  0.5048
  233MOL0     C31385  -0.125  10.453   1.377 -0.3524  0.4891 -0.3134
  233MOL0     C31386   0.681  10.400   1.541 -0.6200  0.1427 -0.5166
  233MOL0     C31387   0.795  10.440   1.602 -0.6739  0.9710 -0.8721
  233MOL0     H31388   0.929  10.584   2.172  0.2822 -0.1742 -1.3687
  233MOL0     H31389   1.086  10.727   2.292 -0.7304  1.5670 -0.9278
  233MOL0     H31390   1.453  10.952   2.192  0.5097 -0.5131 -1.7876
  233MOL0     H31391   1.418  10.878   2.045  3.1671 -0.7004  2.1039
  233MOL0     H31392   1.270  11.056   1.999  3.1166  1.4476 -2.5712
  233MOL0     H31393   1.256  11.121   2.175  1.3190  0.2577  0.5981
  233MOL0     H31394   1.459  11.210   2.175  0.5291 -2.7566  0.6921
  233MOL0     H31395   1.513  11.134   2.020 -0.7697 -0.0297 -0.7850
  233MOL0     H31396   1.366  11.283   1.879 -2.6364 -2.0217  0.5353
  233MOL0     H31397   1.291  11.358   2.018 -1.1633 -0.4322 -1.6048
  233MOL0     H31398   1.491  11.447   2.101 -1.7482 -1.4308 -0.2645
  233MOL0     H31399   1.573  11.370   1.956  1.7848  1.0722  0.4088
  233MOL0     H31400   1.426  11.506   1.819  2.0030  3.1075 -1.9850
  233MOL0     H31401   1.362  11.588   1.967  1.4410  1.2054 -0.4095
  233MOL0     H31402   1.655  11.599   1.949 -1.7283 -0.5938  0.1695
  233MOL0     H31403   1.605  11.637   1.793  0.6176 -0.3620  0.0918
  233MOL0     H31404   1.557  11.799   2.049  0.8835  1.7452 -0.4485
  233MOL0     H31405   1.458  11.821   1.899 -0.7992 -0.0825 -0.8575
  233MOL0     H31406   1.611  11.990   1.711 -3.0738 -0.6260  2.9867
  233MOL0     H31407   1.767  12.212   1.734 -1.2549 -1.1028  0.3849
  233MOL0     H31408   1.939  12.190   1.799  0.1002 -0.5862  0.2154
  233MOL0     H31409   1.928  12.189   1.539  3.4942 -1.5953  2.8221
  233MOL0     H31410   1.804  12.065   1.537  0.1112  0.1864 -3.1458
  233MOL0     H31411   1.959  11.895   1.607 -1.1436 -0.4256 -2.2610
  233MOL0     H31412   2.067  12.012   1.679 -1.7349 -2.1369  1.4105
  233MOL0     H31413   2.169  11.911   1.499 -1.9585 -1.3883  3.3963
  233MOL0     H31414   2.135  12.088   1.452  0.5600 -0.2184  2.0275
  233MOL0     H31415   1.867  11.879   1.167  0.4029 -2.2393 -3.1057
  233MOL0     H31416   1.812  11.833   0.951 -1.4148 -1.4696 -1.4617
  233MOL0     H31417   1.930  11.801   0.831  1.5165 -0.3159  0.7439
  233MOL0     H31418   1.875  11.673   0.935  2.7473 -0.8415 -2.0882
  233MOL0     H31419   2.583  11.764   0.806 -0.5251 -3.4809  1.6576
  233MOL0     H31420   2.703  11.695   0.612 -2.1469  3.9259 -1.9963
  233MOL0     H31421   2.493  11.381   0.375  1.4473 -1.3709  0.3621
  233MOL0     H31422   2.465  11.526   0.270 -0.9438 -2.8950 -1.3957
  233MOL0     H31423   2.678  11.490   0.165  4.6517 -1.5951  1.3545
  233MOL0     H31424   2.692  11.333   0.260 -0.4648 -1.1508  0.2156
  233MOL0     H31425   2.472  11.395   0.054  1.2035 -0.2577 -2.0452
  233MOL0     H31426   2.505  11.250   0.158  2.7727 -1.0894 -1.2418
  233MOL0     H31427   2.713  11.376  -0.038  1.3730  0.2018  0.7717
  233MOL0     H31428   2.708  11.216   0.049 -1.2520 -1.9999 -1.4332
  233MOL0     H31429   2.505  11.296  -0.176 -0.4854 -0.8946 -1.0922
  233MOL0     H31430   2.482  11.168  -0.050  0.8784 -0.7950  1.0154
  233MOL0     H31431   2.540  11.132  -0.285 -1.4592  2.4328  0.3294
  233MOL0     H31432   2.700  11.203  -0.257  1.1538 -2.8651  1.2318
  233MOL0     H31433   2.593  10.977  -0.098  0.8700  0.8513  1.9525
  233MOL0     H31434   2.760  11.032  -0.089  2.1657  0.8000 -1.0169
  233MOL0     H31435   2.793  10.963  -0.331  3.0746  0.0770  3.5825
  233MOL0     H31436   2.628  10.885  -0.325 -0.6230  3.8510 -0.9864
  233MOL0     H31437   2.343  11.491   0.475  0.9608 -2.1012  0.5227
  233MOL0     H31438   2.228  11.585   0.656  0.3348  1.2664 -1.0620
  233MOL0     H31439   2.358  11.822   1.101 -0.5811 -2.9630  0.3025
  233MOL0     H31440   2.265  11.940   1.299 -2.1820  0.7234  2.2588
  233MOL0     H31441   1.255  10.855   1.912  1.2876 -1.8609  1.0264
  233MOL0     H31442   1.089  10.717   1.794 -3.8287 -0.2828  1.5455
  233MOL0     H31443   0.654  10.473   1.917  1.5796 -2.1675  0.7265
  233MOL0     H31444   0.469  10.370   1.790  1.0969 -0.6982  2.7126
  233MOL0     H31445   0.449  10.141   1.565 -2.0793 -1.2992 -1.7809
  233MOL0     H31446   0.339  10.240   1.656 -2.5841  0.8232 -0.1153
  233MOL0     H31447   0.214  10.100   1.480 -0.3164 -1.1291  0.3428
  233MOL0     H31448   0.324  10.164   1.361 -2.5857 -0.9876 -0.5535
  233MOL0     H31449   0.118  10.286   1.319  0.7584  4.5013 -1.2822
  233MOL0     H31450   0.239  10.397   1.377 -1.4278  2.0179  0.0791
  233MOL0     H31451   0.132  10.432   1.574  0.9546 -1.4215  0.9363
  233MOL0     H31452   0.054  10.271   1.585  2.0609  0.7476  1.4764
  233MOL0     H31453  -0.214  10.495   1.333 -0.5487  1.2969  0.7900
  233MOL0     H31454   0.682  10.382   1.434 -1.5618 -3.7342 -0.0180
  233MOL0     H31455   0.884  10.471   1.548  0.9499  0.6164  1.4220
  234MOL0     O31456   3.249  10.631   8.528 -0.0843  0.2018 -0.9298
  234MOL0     C31457   3.217  10.743   8.492 -0.2969  0.4456  1.2092
  234MOL0     O31458   3.112  10.815   8.519 -0.0230 -0.1643 -0.1998
  234MOL0     C31459   2.995  10.758   8.544  0.9570  0.2485 -0.0067
  234MOL0     C31460   2.953  10.622   8.518  0.1648  0.7491  0.0746
  234MOL0     C31461   2.818  10.593   8.499 -0.0720  1.0367 -0.2400
  234MOL0     C31462   2.724  10.692   8.528 -0.2131  0.3910  0.1450
  234MOL0     O31463   2.594  10.675   8.492 -0.4052 -0.0561 -1.1609
  234MOL0     C31464   2.539  10.537   8.488 -0.9971 -0.2807  0.5523
  234MOL0     C31465   2.405  10.539   8.552 -0.4063  0.1313 -0.5761
  234MOL0     C31466   2.411  10.558   8.710 -0.2945  0.1939 -0.5319
  234MOL0     C31467   2.277  10.612   8.770 -0.4061  0.1235 -0.1825
  234MOL0     C31468   2.257  10.757   8.735  0.5353 -0.4286 -0.1000
  234MOL0     C31469   2.136  10.809   8.800  0.1115  0.3019  0.1875
  234MOL0     C31470   2.157  10.957   8.832  0.1818 -0.3632 -0.6597
  234MOL0     C31471   2.043  11.041   8.899  0.0009  0.0578 -0.4723
  234MOL0     N31472   1.908  10.988   8.854  0.0223 -0.1271 -0.5421
  234MOL0     C31473   1.843  10.885   8.923 -0.2801  0.0118  0.4318
  234MOL0     C31474   1.720  10.873   8.864  0.0676 -0.4408  0.7343
  234MOL0     C31475   1.598  10.788   8.899 -0.1782  0.8743  0.1364
  234MOL0     C31476   1.552  10.798   9.047  0.3671 -1.3838  0.0511
  234MOL0     C31477   1.634  10.723   9.142 -0.0389  0.2048 -0.2419
  234MOL0     C31478   1.562  10.611   9.228  0.3332  0.1665  1.6016
  234MOL0     O31479   1.525  10.525   9.127  0.1344  0.0615 -0.0492
  234MOL0     C31480   1.480  10.400   9.159  0.6153 -0.9704  0.7769
  234MOL0     C31481   1.420  10.336   9.047  0.0008  0.5065 -0.0645
  234MOL0     C31482   1.343  10.218   9.058 -0.6215 -0.5365 -0.2673
  234MOL0     C31483   1.282  10.173   8.930 -0.1911 -1.0392 -0.3263
  234MOL0     C31484   1.334  10.148   9.179 -0.2990 -0.2316  0.5173
  234MOL0     C31485   1.244  10.033   9.200  0.2197 -0.0064 -0.0843
  234MOL0     O31486   1.113  10.057   9.189 -0.1346  1.1116  0.5397
  234MOL0     C31487   1.019   9.972   9.243 -0.2190 -0.1620 -0.2538
  234MOL0     C31488   1.034   9.911   9.365 -0.5785 -0.5054 -0.3837
  234MOL0     C31489   0.957   9.814   9.421  0.5498 -0.5967 -1.0327
  234MOL0     C31490   0.839   9.776   9.348 -0.2493  0.3250 -0.2141
  234MOL0     O31491   0.746   9.685   9.401 -0.4796  0.7460  0.3240
  234MOL0     C31492   0.717   9.573   9.313  0.0586  0.0618 -0.6020
  234MOL0     C31493   0.705   9.438   9.377  0.0937 -0.6176 -0.7519
  234MOL0     C31494   0.835   9.385   9.430  0.0440  0.0146  0.5788
  234MOL0     C31495   0.935   9.343   9.319  0.2808  0.1668  0.2661
  234MOL0     C31496   1.035   9.236   9.368  0.3026 -0.7700  0.0994
  234MOL0     C31497   0.990   9.099   9.313 -1.0116 -0.2095 -0.5759
  234MOL0     C31498   1.099   8.995   9.344  0.8066  0.4052  0.4781
  234MOL0     C31499   1.056   8.845   9.329  0.4953 -0.9851 -0.5137
  234MOL0    Cl31500   1.164   8.733   9.413  0.0795 -0.0349  0.5102
  234MOL0     C31501   0.822   9.840   9.222  0.2024 -0.1958  0.6791
  234MOL0     C31502   0.918   9.935   9.164  0.2353 -0.1197  0.0700
  234MOL0     O31503   1.296   9.925   9.215 -0.0110  0.4520 -0.6549
  234MOL0     C31504   1.390  10.205   9.294 -1.1949 -1.1641  0.1165
  234MOL0     C31505   1.473  10.329   9.277 -0.3125  1.0764 -0.9194
  234MOL0     N31506   1.713  10.966   8.760 -1.6217 -0.1165 -0.5360
  234MOL0     N31507   1.828  11.037   8.758  0.6743 -0.7407 -0.1076
  234MOL0     C31508   2.763  10.817   8.571 -0.1430 -0.3252 -0.0088
  234MOL0     C31509   2.895  10.847   8.579  0.7166 -0.3509  0.6529
  234MOL0     C31510   3.324  10.814   8.404  0.7443  0.2320 -0.1446
  234MOL0     C31511   3.428  10.746   8.337  0.2915 -0.1796 -0.2286
  234MOL0     C31512   3.513  10.802   8.238  0.2044 -0.7061 -0.5131
  234MOL0     C31513   3.494  10.941   8.207  0.5890  0.0261  0.7341
  234MOL0     O31514   3.578  11.014   8.127  0.1497  0.1334 -0.2988
  234MOL0     C31515   3.666  10.952   8.041 -0.0617 -0.3808 -0.2816
  234MOL0     C31516   3.800  10.926   8.105 -0.5165 -0.3369 -0.2862
  234MOL0     C31517   3.866  10.815   8.033  0.8298 -0.5821 -1.0225
  234MOL0     C31518   4.019  10.811   8.046  0.0963 -0.2895 -0.0075
  234MOL0     C31519   4.071  10.934   7.981  0.1460  0.9817 -0.4321
  234MOL0     C31520   4.123  11.033   7.927 -0.1198  0.2927  0.1171
  234MOL0     C31521   3.399  11.012   8.280  0.2518  0.6145  0.9473
  234MOL0     C31522   3.316  10.948   8.370  0.1997  0.3299 -0.0329
  234MOL0     H31523   3.029  10.553   8.483 -0.4844  0.2505 -0.3745
  234MOL0     H31524   2.798  10.491   8.466  1.6745  1.2474 -2.1753
  234MOL0     H31525   2.535  10.502   8.385 -0.8517 -1.7726  1.0373
  234MOL0     H31526   2.597  10.468   8.550 -1.1873  0.1181  1.1923
  234MOL0     H31527   2.362  10.635   8.522  1.7362  1.5982  0.8102
  234MOL0     H31528   2.352  10.453   8.510  1.7418 -0.5291 -2.1418
  234MOL0     H31529   2.431  10.463   8.761 -3.1503 -1.9021 -2.9996
  234MOL0     H31530   2.489  10.628   8.743 -1.9670  1.0506  1.8802
  234MOL0     H31531   2.188  10.554   8.743 -1.1605  1.2115 -0.1028
  234MOL0     H31532   2.293  10.624   8.877 -2.4189  1.8307 -0.0014
  234MOL0     H31533   2.347  10.805   8.775  2.2078 -1.6840 -2.1153
  234MOL0     H31534   2.261  10.776   8.628 -1.6731  3.2326  0.3229
  234MOL0     H31535   2.047  10.798   8.738  0.0277 -0.0164  0.3688
  234MOL0     H31536   2.123  10.757   8.895 -2.8733  0.1401 -0.2336
  234MOL0     H31537   2.236  10.976   8.905 -0.1120  0.8419 -0.6390
  234MOL0     H31538   2.164  11.015   8.739 -1.0903  3.8213  1.5963
  234MOL0     H31539   2.058  11.144   8.866  0.0403  1.6713  3.9500
  234MOL0     H31540   2.054  11.035   9.008 -0.3816  4.1418 -0.0563
  234MOL0     H31541   1.891  10.830   9.003  3.2022  1.3968 -0.5021
  234MOL0     H31542   1.521  10.812   8.825  0.4033 -1.8010 -1.5026
  234MOL0     H31543   1.619  10.681   8.890 -5.6211 -0.6491  1.9382
  234MOL0     H31544   1.450  10.759   9.045 -0.3902  0.4659 -1.9110
  234MOL0     H31545   1.540  10.903   9.077  2.5636 -1.4201  1.2635
  234MOL0     H31546   1.661  10.787   9.226  3.2154 -0.6885 -0.4526
  234MOL0     H31547   1.724  10.678   9.098 -0.5679 -3.1280  1.7717
  234MOL0     H31548   1.466  10.645   9.269 -1.9069 -0.5129 -2.5521
  234MOL0     H31549   1.623  10.566   9.307  0.3757 -1.8240  0.5017
  234MOL0     H31550   1.432  10.387   8.952  0.1347  0.0998 -0.2711
  234MOL0     H31551   1.339  10.095   8.879 -0.1201 -1.2884  0.1249
  234MOL0     H31552   1.178  10.144   8.949 -0.4183  1.2793  2.9692
  234MOL0     H31553   1.278  10.253   8.856  0.6885  0.5311  1.2457
  234MOL0     H31554   1.120   9.946   9.421 -1.8162 -0.4766  1.6058
  234MOL0     H31555   0.973   9.791   9.526 -3.9462  2.5928  0.6844
  234MOL0     H31556   0.623   9.592   9.260 -2.3375 -3.0707  2.0952
  234MOL0     H31557   0.791   9.559   9.234 -1.0229 -2.6621 -1.2597
  234MOL0     H31558   0.629   9.433   9.455 -1.0460 -0.9291 -1.8385
  234MOL0     H31559   0.671   9.373   9.295 -1.9480 -1.6340  0.8066
  234MOL0     H31560   0.816   9.311   9.508 -0.7130 -1.0661 -0.5974
  234MOL0     H31561   0.896   9.465   9.474 -0.3200  1.0759 -0.7839
  234MOL0     H31562   0.865   9.298   9.248  1.0740 -1.6481  0.5701
  234MOL0     H31563   0.990   9.421   9.266 -1.8146 -0.4436 -3.1198
  234MOL0     H31564   1.046   9.251   9.475  0.7980  0.5216 -0.1151
  234MOL0     H31565   1.123   9.263   9.308 -1.6459 -0.4000 -2.8130
  234MOL0     H31566   0.903   9.081   9.377 -0.2622  1.7866  1.1205
  234MOL0     H31567   0.963   9.099   9.207  0.3500  0.0066 -0.9442
  234MOL0     H31568   1.122   9.016   9.449 -1.2558 -4.8636  2.3131
  234MOL0     H31569   1.190   9.011   9.285  0.9927 -1.0630  0.3237
  234MOL0     H31570   1.053   8.819   9.222  1.1703 -2.8192 -0.1352
  234MOL0     H31571   0.956   8.833   9.372 -0.2500  0.8993 -1.6016
  234MOL0     H31572   0.740   9.812   9.158 -2.0541  3.2280  1.7729
  234MOL0     H31573   0.907   9.975   9.064 -0.8115  3.6643  1.5252
  234MOL0     H31574   1.380  10.151   9.388 -0.3043  0.2071  1.0445
  234MOL0     H31575   1.508  10.375   9.368  3.1196 -2.5467 -0.1637
  234MOL0     H31576   2.688  10.891   8.597  0.9364 -0.5531  4.9011
  234MOL0     H31577   2.935  10.947   8.596  1.2335 -0.8609  2.7375
  234MOL0     H31578   3.434  10.638   8.346 -0.7014 -0.4274 -2.1343
  234MOL0     H31579   3.590  10.742   8.189  0.7312 -0.2550 -0.2418
  234MOL0     H31580   3.621  10.858   8.007 -1.4288 -0.5388  1.7218
  234MOL0     H31581   3.676  11.025   7.961  2.4076  0.0845  0.3751
  234MOL0     H31582   3.798  10.899   8.211 -1.0871 -5.0378 -1.2651
  234MOL0     H31583   3.860  11.018   8.100 -2.7841  1.1614 -1.3657
  234MOL0     H31584   3.845  10.830   7.927  1.9882 -0.6522 -1.2704
  234MOL0     H31585   3.825  10.722   8.075 -1.3237  0.4505 -0.6620
  234MOL0     H31586   4.058  10.721   7.998 -0.2501 -3.6202  5.1197
  234MOL0     H31587   4.056  10.793   8.147  1.7421  0.1881 -0.5004
  234MOL0     H31588   4.178  11.112   7.879  0.0740  0.0497 -0.0657
  234MOL0     H31589   3.390  11.120   8.268  1.9091  0.7195  0.4499
  234MOL0     H31590   3.236  11.012   8.407 -0.9524 -0.3503 -1.2573
  235MOL0     O31591   7.046   2.141   9.442 -0.4246 -0.0008  0.4145
  235MOL0     C31592   6.945   2.075   9.472 -0.0089  0.4675 -0.1003
  235MOL0     O31593   6.822   2.131   9.510 -0.3132  0.7586  0.4276
  235MOL0     C31594   6.784   2.254   9.471  1.0569 -0.6068 -0.2933
  235MOL0     C31595   6.694   2.322   9.546 -0.0665 -0.1245 -0.6731
  235MOL0     C31596   6.646   2.448   9.515  0.5815 -0.6230  1.2119
  235MOL0     C31597   6.692   2.523   9.411  0.4304 -0.3634  0.0792
  235MOL0     O31598   6.650   2.655   9.396  0.1531 -0.5726 -0.6858
  235MOL0     C31599   6.765   2.744   9.389 -0.3835  0.2706 -0.1895
  235MOL0     C31600   6.734   2.887   9.426  0.5380  0.1681  0.7283
  235MOL0     C31601   6.738   2.912   9.572  0.0794 -0.1074  0.6969
  235MOL0     C31602   6.745   3.061   9.596  0.2675 -0.0027  0.1207
  235MOL0     C31603   6.793   3.103   9.736  0.5133 -0.1312 -0.2739
  235MOL0     C31604   6.712   3.056   9.860  0.6675  0.2884  0.3233
  235MOL0     C31605   6.758   3.129   9.984  0.6675 -0.1739  0.3840
  235MOL0     C31606   6.674   3.076  10.103 -0.2235 -0.0336  1.7306
  235MOL0     N31607   6.727   3.130  10.227  0.3007  0.6024 -0.8554
  235MOL0     C31608   6.672   3.101  10.346  0.3519 -0.4151  0.0908
  235MOL0     C31609   6.743   3.169  10.443  0.1056  0.1547  0.8847
  235MOL0     C31610   6.730   3.173  10.588  0.1563 -0.8373  0.6239
  235MOL0     C31611   6.729   3.031  10.648 -0.8423 -0.9877 -0.2149
  235MOL0     C31612   6.840   2.944  10.618 -0.2662  0.8560 -0.2754
  235MOL0     C31613   6.802   2.838  10.512  0.1186 -0.1692 -0.4332
  235MOL0     O31614   6.710   2.745  10.563 -0.2064  0.3481  0.0981
  235MOL0     C31615   6.668   2.649  10.468  0.2033  0.0643  0.5030
  235MOL0     C31616   6.700   2.667  10.337  0.0252 -0.4488 -0.0866
  235MOL0     C31617   6.656   2.580  10.238 -0.6680 -0.3270  1.2836
  235MOL0     C31618   6.696   2.599  10.105  0.9794  0.2395  0.3210
  235MOL0     C31619   6.573   2.474  10.278  0.3520 -0.2398  0.6965
  235MOL0     C31620   6.506   2.383  10.180  0.3592  0.8462  0.8113
  235MOL0     O31621   6.474   2.256  10.224  0.4906 -0.2915  0.4291
  235MOL0     C31622   6.433   2.161  10.137  0.0512 -0.2433 -0.0846
  235MOL0     C31623   6.506   2.139  10.017  0.3824 -0.1594 -0.7104
  235MOL0     C31624   6.476   2.049   9.918  0.4062 -0.3187  0.3341
  235MOL0     C31625   6.384   1.956   9.945  0.5115  0.3179  0.4209
  235MOL0     O31626   6.371   1.851   9.854  0.6542 -0.2265  0.1755
  235MOL0     C31627   6.349   1.883   9.719  0.7030  0.0142  0.0054
  235MOL0     C31628   6.219   1.949   9.692 -0.0520 -0.8246  0.8195
  235MOL0     C31629   6.202   1.964   9.536 -0.0851  0.4452 -0.3163
  235MOL0     C31630   6.057   2.000   9.526 -0.3350 -0.8674  0.2732
  235MOL0     C31631   6.015   2.040   9.389 -0.0366 -0.7721 -0.0563
  235MOL0     C31632   5.867   2.085   9.403 -0.5395 -0.9327  0.7766
  235MOL0     C31633   5.778   2.114   9.275  0.3553  0.0674 -0.1552
  235MOL0     C31634   5.792   2.010   9.174  0.2389  0.4073 -0.1212
  235MOL0    Cl31635   5.697   2.058   9.033  0.4575 -0.7482  0.2290
  235MOL0     C31636   6.302   1.950  10.062 -0.2478 -0.3356 -0.1616
  235MOL0     C31637   6.329   2.064  10.159 -0.5398 -0.0949  0.5819
  235MOL0     O31638   6.491   2.423  10.061  0.8834  0.5256 -0.7260
  235MOL0     C31639   6.534   2.464  10.410  0.1780 -0.1821 -0.6733
  235MOL0     C31640   6.593   2.546  10.503  0.0107 -0.5580 -0.4488
  235MOL0     N31641   6.842   3.240  10.381  0.5029 -0.5050 -0.2811
  235MOL0     N31642   6.832   3.213  10.250  0.5229 -0.0228 -0.1397
  235MOL0     C31643   6.788   2.451   9.330  0.1027 -0.5241  0.0152
  235MOL0     C31644   6.832   2.329   9.358  0.5690  0.6525  0.1799
  235MOL0     C31645   6.957   1.926   9.492  0.2642  1.1259 -0.0462
  235MOL0     C31646   7.078   1.849   9.487 -0.2316 -0.1250 -0.2605
  235MOL0     C31647   7.082   1.713   9.493 -0.2023 -0.0197  0.1045
  235MOL0     C31648   6.956   1.644   9.488  0.0274  0.0154  0.5981
  235MOL0     O31649   6.942   1.507   9.478  0.1119  0.2017 -0.0467
  235MOL0     C31650   7.032   1.441   9.379 -0.5153  0.3720 -0.1522
  235MOL0     C31651   7.001   1.292   9.361  0.7402  0.0346  0.2878
  235MOL0     C31652   7.057   1.207   9.466  0.2835  0.4162 -0.4201
  235MOL0     C31653   7.202   1.207   9.468  0.4355  0.1539 -0.3243
  235MOL0     C31654   7.252   1.114   9.369 -0.1389  0.5149 -0.2191
  235MOL0     C31655   7.314   1.043   9.295  0.2148  0.6261 -0.1602
  235MOL0     C31656   6.838   1.715   9.507  0.0133  0.2279 -0.1079
  235MOL0     C31657   6.835   1.857   9.511 -0.4721  0.2580  1.6262
  235MOL0     H31658   6.650   2.285   9.638  0.0923 -0.1082 -0.5907
  235MOL0     H31659   6.568   2.489   9.578 -0.0995 -2.0362  1.3183
  235MOL0     H31660   6.843   2.705   9.456 -0.1944 -0.7073 -0.9653
  235MOL0     H31661   6.818   2.731   9.295  2.1850 -1.4052  1.3736
  235MOL0     H31662   6.798   2.951   9.365  2.2927 -2.1101  0.0205
  235MOL0     H31663   6.630   2.904   9.397  1.0121  0.1788 -1.0541
  235MOL0     H31664   6.648   2.870   9.617  0.9462 -0.7575  1.9217
  235MOL0     H31665   6.830   2.869   9.613  2.2632  2.7349 -0.8370
  235MOL0     H31666   6.805   3.117   9.523 -0.7816 -3.4007 -3.7061
  235MOL0     H31667   6.649   3.106   9.568  0.1583 -1.2972 -1.7952
  235MOL0     H31668   6.895   3.066   9.744  0.3090 -0.4212  1.2430
  235MOL0     H31669   6.788   3.213   9.733  0.6360 -0.1327 -0.5734
  235MOL0     H31670   6.607   3.084   9.845  1.8397  5.0843 -0.5134
  235MOL0     H31671   6.715   2.947   9.869 -0.4822  0.4002  4.2588
  235MOL0     H31672   6.866   3.124   9.998  0.9574  2.8740 -0.1418
  235MOL0     H31673   6.741   3.235   9.968  1.8435 -0.4431 -3.4775
  235MOL0     H31674   6.681   2.968  10.091 -2.3319  0.1216 -3.0573
  235MOL0     H31675   6.568   3.099  10.094 -0.4232 -1.8631 -2.3928
  235MOL0     H31676   6.586   3.037  10.365 -0.3057  0.7065  1.0575
  235MOL0     H31677   6.803   3.249  10.616 -1.1579  0.0189  1.7864
  235MOL0     H31678   6.639   3.228  10.612 -0.5359 -1.4101 -0.5747
  235MOL0     H31679   6.631   2.984  10.640 -0.1172 -2.7506  0.7217
  235MOL0     H31680   6.747   3.055  10.754 -3.3029 -1.2439  0.3065
  235MOL0     H31681   6.865   2.889  10.709 -0.6954 -1.5046 -1.5042
  235MOL0     H31682   6.930   3.005  10.601 -1.3292  2.4827 -0.2786
  235MOL0     H31683   6.887   2.774  10.487 -0.2619 -1.3614  1.1696
  235MOL0     H31684   6.764   2.889  10.423  3.2344  0.1315 -1.7113
  235MOL0     H31685   6.759   2.747  10.291  2.6765 -1.0618  2.0219
  235MOL0     H31686   6.792   2.650  10.099  0.6034  0.8041 -1.6263
  235MOL0     H31687   6.714   2.506  10.049 -0.0957  0.1888  0.0425
  235MOL0     H31688   6.622   2.663  10.057  0.2058  1.0150  2.4669
  235MOL0     H31689   6.582   2.212   9.992  0.1554 -0.4488 -2.3100
  235MOL0     H31690   6.523   2.062   9.821 -1.0235 -1.1017 -0.5082
  235MOL0     H31691   6.433   1.940   9.678 -0.6447  1.7444 -0.4509
  235MOL0     H31692   6.339   1.782   9.678  1.6541  0.0538 -0.3471
  235MOL0     H31693   6.137   1.911   9.753  1.4631 -0.1186  3.4363
  235MOL0     H31694   6.217   2.053   9.727  1.4463  0.6166 -2.8086
  235MOL0     H31695   6.226   1.877   9.475 -2.0761 -0.7736  0.5263
  235MOL0     H31696   6.264   2.049   9.506  0.9047 -0.2688 -0.3041
  235MOL0     H31697   6.002   1.909   9.553  2.0533 -3.0418 -1.6729
  235MOL0     H31698   6.037   2.092   9.581 -0.1560 -0.3688 -0.4905
  235MOL0     H31699   6.030   1.952   9.325  1.3891  0.5961 -1.6827
  235MOL0     H31700   6.084   2.117   9.353 -0.5737  1.0034  2.4673
  235MOL0     H31701   5.809   2.007   9.452 -0.3685 -1.7744 -0.3200
  235MOL0     H31702   5.876   2.171   9.470  3.6105 -0.4319 -0.1610
  235MOL0     H31703   5.804   2.211   9.230  0.4305  1.6094  2.9478
  235MOL0     H31704   5.675   2.129   9.307  0.0391 -0.0823 -1.0773
  235MOL0     H31705   5.747   1.918   9.211  0.7444 -1.8341 -4.4806
  235MOL0     H31706   5.897   1.992   9.149  0.6253  3.2182 -0.9222
  235MOL0     H31707   6.227   1.875  10.086 -0.4553 -0.3576 -0.8716
  235MOL0     H31708   6.262   2.075  10.244 -1.4036 -1.7457  0.1682
  235MOL0     H31709   6.457   2.394  10.442  0.9866  1.3003  6.1911
  235MOL0     H31710   6.579   2.542  10.611 -0.9336  0.0735 -0.5371
  235MOL0     H31711   6.833   2.499   9.243  0.4734 -0.0351  0.4743
  235MOL0     H31712   6.904   2.294   9.284  4.1674  3.9917  1.7123
  235MOL0     H31713   7.177   1.887   9.464  0.3021 -2.2288 -1.6701
  235MOL0     H31714   7.173   1.654   9.502 -0.0770  0.1629  0.0452
  235MOL0     H31715   7.020   1.488   9.281  1.6056 -0.8490 -1.0815
  235MOL0     H31716   7.137   1.471   9.388 -0.8688  2.7811 -2.6503
  235MOL0     H31717   7.043   1.248   9.270 -0.5010 -2.5500  0.8566
  235MOL0     H31718   6.892   1.280   9.357  0.4348  2.3486  0.6286
  235MOL0     H31719   7.031   1.101   9.456  0.6561  0.0441  1.8760
  235MOL0     H31720   7.016   1.254   9.556  3.4156  2.0672  0.2972
  235MOL0     H31721   7.235   1.174   9.567 -0.3874  2.3171  0.7245
  235MOL0     H31722   7.252   1.303   9.455 -1.2653  1.4905  2.1535
  235MOL0     H31723   7.369   0.984   9.223 -0.9812  1.2754 -1.6691
  235MOL0     H31724   6.743   1.664   9.512 -0.4510  1.1474  0.9095
  235MOL0     H31725   6.737   1.901   9.498 -1.3467 -1.7335  1.1905
  236MOL0     O31726   7.543   3.322  10.144 -0.0043  0.6127  0.6402
  236MOL0     C31727   7.433   3.301  10.110  0.2392  0.7699  0.5352
  236MOL0     O31728   7.356   3.377  10.024 -0.4111  0.7648  0.0690
  236MOL0     C31729   7.396   3.486   9.961  0.1363  0.6935 -1.2408
  236MOL0     C31730   7.535   3.501   9.925  0.4338  0.2841  0.5787
  236MOL0     C31731   7.581   3.625   9.881  0.3298 -0.3331  0.0345
  236MOL0     C31732   7.490   3.739   9.873  0.8177  0.8002  0.4180
  236MOL0     O31733   7.535   3.859   9.847 -0.8026 -0.4535  0.0572
  236MOL0     C31734   7.662   3.904   9.892  0.2069 -0.1103  0.0526
  236MOL0     C31735   7.675   4.051   9.911  0.5613 -0.6383  0.1381
  236MOL0     C31736   7.824   4.098   9.926 -0.0527  0.1206  0.7594
  236MOL0     C31737   7.839   4.246   9.966  0.6630  0.4153 -0.5165
  236MOL0     C31738   7.979   4.296   9.992  0.0966  0.2126  0.8430
  236MOL0     C31739   7.986   4.434  10.037 -0.7123  0.0328  0.0955
  236MOL0     C31740   8.122   4.498  10.006 -0.2337 -0.7851 -0.4212
  236MOL0     C31741   8.138   4.629  10.087 -0.8196  0.1197 -0.3455
  236MOL0     N31742   8.265   4.701  10.066  0.5777  0.6717  0.2680
  236MOL0     C31743   8.318   4.802  10.141 -0.1704 -0.7282  0.6271
  236MOL0     C31744   8.441   4.833  10.083  0.5344 -0.2172 -1.0887
  236MOL0     C31745   8.532   4.942  10.132  0.4804  0.7217 -0.2921
  236MOL0     C31746   8.669   4.956  10.047  0.4101  1.1008  0.1257
  236MOL0     C31747   8.792   4.874  10.091 -0.3320  0.6831 -0.8732
  236MOL0     C31748   8.752   4.732  10.127 -0.4460 -0.0940  0.7833
  236MOL0     O31749   8.856   4.660  10.195 -1.1707  0.3256 -0.7865
  236MOL0     C31750   8.860   4.520  10.191  1.1627  0.7963 -0.6566
  236MOL0     C31751   8.750   4.428  10.184 -0.4213 -0.3300 -0.0146
  236MOL0     C31752   8.768   4.283  10.186 -0.3627  1.0030  0.7404
  236MOL0     C31753   8.639   4.198  10.165 -0.4811  0.9940 -0.3995
  236MOL0     C31754   8.898   4.233  10.195 -0.9529  0.0358  0.5513
  236MOL0     C31755   8.954   4.093  10.195 -1.3464  0.2534 -0.6195
  236MOL0     O31756   9.089   4.066  10.197  0.4421  0.2062  0.4154
  236MOL0     C31757   9.130   3.941  10.210  0.5448  0.0447 -0.5203
  236MOL0     C31758   9.224   3.919  10.313 -0.2461 -0.0692  0.5978
  236MOL0     C31759   9.293   3.799  10.321 -0.2545 -0.3710  0.4863
  236MOL0     C31760   9.266   3.687  10.241 -0.2211 -1.8126  0.3122
  236MOL0     O31761   9.351   3.583  10.252  0.0567  0.3372 -1.0108
  236MOL0     C31762   9.311   3.454  10.201 -0.1271  0.1134  0.7855
  236MOL0     C31763   9.427   3.347  10.210  1.4997 -0.5547  0.5274
  236MOL0     C31764   9.360   3.216  10.163 -0.9587  0.5429  0.0560
  236MOL0     C31765   9.470   3.111  10.167 -1.3588 -0.0258 -0.8311
  236MOL0     C31766   9.414   2.968  10.133 -0.1637  1.0947  0.1388
  236MOL0     C31767   9.515   2.849  10.115 -0.9457 -1.0837 -0.3503
  236MOL0     C31768   9.441   2.719  10.092  0.0117 -0.1752  0.4104
  236MOL0     C31769   9.537   2.600  10.109 -0.0144  0.5434 -0.2794
  236MOL0    Cl31770   9.477   2.437  10.137 -0.0445  0.4156 -0.3433
  236MOL0     C31771   9.161   3.711  10.141  0.2852 -0.0586 -0.4950
  236MOL0     C31772   9.095   3.835  10.127 -0.0410  0.7935 -0.1713
  236MOL0     O31773   8.869   4.009  10.183  1.1834 -0.2248 -0.5691
  236MOL0     C31774   9.004   4.324  10.197 -0.1885  0.2488 -0.1429
  236MOL0     C31775   8.982   4.463  10.209  0.1324  0.4043 -0.5039
  236MOL0     N31776   8.459   4.742   9.974  0.3854 -0.2654 -0.6268
  236MOL0     N31777   8.359   4.666   9.973 -0.6001 -0.3622 -0.4724
  236MOL0     C31778   7.356   3.713   9.907 -0.5904  0.7432  0.3921
  236MOL0     C31779   7.310   3.587   9.948 -0.2628 -1.0182 -0.0979
  236MOL0     C31780   7.374   3.176  10.167  0.1036 -0.4974 -0.2534
  236MOL0     C31781   7.443   3.070  10.233 -0.0927  0.5406  0.0842
  236MOL0     C31782   7.373   2.967  10.288 -0.1643  0.0642  0.2909
  236MOL0     C31783   7.230   2.954  10.284 -0.5534 -0.8245 -1.0926
  236MOL0     O31784   7.152   2.844  10.315  0.1922  0.6195  0.1988
  236MOL0     C31785   7.217   2.717  10.307 -0.8861  0.1100 -0.1539
  236MOL0     C31786   7.136   2.617  10.230 -0.7501  0.1230 -0.2594
  236MOL0     C31787   7.192   2.478  10.264 -0.3480 -0.2569  0.9106
  236MOL0     C31788   7.152   2.415  10.405  0.1090  0.0162  1.0842
  236MOL0     C31789   7.002   2.384  10.413 -0.8428  0.2325 -0.1945
  236MOL0     C31790   6.887   2.346  10.395 -0.1007 -0.1259 -0.3236
  236MOL0     C31791   7.169   3.067  10.223  0.4475  0.7800 -0.1802
  236MOL0     C31792   7.237   3.168  10.162 -0.0131  0.4752 -0.5637
  236MOL0     H31793   7.608   3.421   9.917 -0.0571  0.0132 -3.6344
  236MOL0     H31794   7.688   3.636   9.864 -0.0725  0.6009 -2.4042
  236MOL0     H31795   7.677   3.856   9.989  0.3718  1.3721  0.8007
  236MOL0     H31796   7.739   3.878   9.820 -1.9167 -1.6069 -1.8299
  236MOL0     H31797   7.629   4.098   9.823  0.0027  0.0019  0.7540
  236MOL0     H31798   7.628   4.082  10.005  2.9673  3.5584  0.2097
  236MOL0     H31799   7.862   4.040  10.011  1.1252  1.8151  1.4301
  236MOL0     H31800   7.872   4.076   9.830  0.5682  0.1924  1.0491
  236MOL0     H31801   7.799   4.306   9.883  1.1761  0.0276 -1.0499
  236MOL0     H31802   7.785   4.276  10.057 -2.0177 -0.3866 -1.7482
  236MOL0     H31803   8.021   4.237  10.075 -1.2622 -1.5989  0.3091
  236MOL0     H31804   8.041   4.286   9.903  1.7506  1.5607  1.7827
  236MOL0     H31805   7.912   4.495   9.984 -0.5463  0.3901  0.2781
  236MOL0     H31806   7.973   4.443  10.145 -1.0241  0.1462  0.0488
  236MOL0     H31807   8.201   4.428  10.036  1.4019  0.6893 -1.1072
  236MOL0     H31808   8.131   4.530   9.902 -1.6162  1.3077  0.0381
  236MOL0     H31809   8.146   4.601  10.193  0.7749  1.4880 -0.0708
  236MOL0     H31810   8.059   4.703  10.067  2.4098  3.5222 -1.8598
  236MOL0     H31811   8.259   4.858  10.213  1.8551  3.0204 -0.3650
  236MOL0     H31812   8.485   5.039  10.119  0.5990  0.8815  0.4417
  236MOL0     H31813   8.566   4.922  10.234 -0.9780 -3.1236 -0.3741
  236MOL0     H31814   8.701   5.060  10.037 -0.3656  1.2404 -1.1959
  236MOL0     H31815   8.646   4.926   9.944 -0.3136 -0.1019  0.6147
  236MOL0     H31816   8.835   4.919  10.181 -0.1838  3.7167 -2.3293
  236MOL0     H31817   8.871   4.878  10.014 -1.0763 -1.3752 -1.8244
  236MOL0     H31818   8.734   4.690  10.028  1.3603  4.6026 -1.8571
  236MOL0     H31819   8.673   4.738  10.201 -0.0815 -4.2706  1.7658
  236MOL0     H31820   8.643   4.449  10.183 -0.4239 -0.3273 -1.2477
  236MOL0     H31821   8.608   4.153  10.260 -1.0308 -5.3546 -3.0804
  236MOL0     H31822   8.555   4.259  10.131 -0.8560  2.0761  2.2438
  236MOL0     H31823   8.644   4.109  10.102 -3.0838 -0.2234  0.9750
  236MOL0     H31824   9.233   4.000  10.385 -0.1982  1.9845 -1.6125
  236MOL0     H31825   9.378   3.787  10.388 -0.3341 -1.1587  0.4601
  236MOL0     H31826   9.218   3.412  10.241 -0.7550 -0.5834 -1.2609
  236MOL0     H31827   9.299   3.472  10.093  2.5052  0.9039  0.5589
  236MOL0     H31828   9.510   3.374  10.145  0.8477  1.4885  0.4769
  236MOL0     H31829   9.453   3.329  10.315 -4.3277 -1.3227  2.2231
  236MOL0     H31830   9.321   3.225  10.061 -0.5068 -0.0422 -0.1743
  236MOL0     H31831   9.272   3.191  10.224 -0.9653  3.6200  1.4914
  236MOL0     H31832   9.562   3.137  10.113 -0.1047  0.1414  1.2845
  236MOL0     H31833   9.507   3.115  10.270 -4.7401  1.1706  0.4551
  236MOL0     H31834   9.340   2.987  10.055  0.6901  1.8463 -0.5099
  236MOL0     H31835   9.349   2.931  10.213 -1.1056 -2.0199 -1.8990
  236MOL0     H31836   9.581   2.863  10.029  1.6854  0.3587  1.7446
  236MOL0     H31837   9.577   2.845  10.205 -1.9956  4.1832  0.9190
  236MOL0     H31838   9.406   2.713   9.988 -0.0430 -1.5061  0.4911
  236MOL0     H31839   9.358   2.698  10.160 -0.3748 -0.7203 -0.2142
  236MOL0     H31840   9.605   2.632  10.188  1.0379  2.4029 -1.8549
  236MOL0     H31841   9.594   2.605  10.016  1.3680 -0.0904  0.5110
  236MOL0     H31842   9.157   3.635  10.063  2.1344  0.3810 -1.0504
  236MOL0     H31843   9.017   3.846  10.052 -0.0218 -0.4694 -0.4018
  236MOL0     H31844   9.105   4.286  10.210 -1.7595 -4.0212  1.0330
  236MOL0     H31845   9.075   4.518  10.223  0.6875 -1.1733  3.4547
  236MOL0     H31846   7.279   3.788   9.894  0.7541  1.9975 -0.5060
  236MOL0     H31847   7.206   3.572   9.977  0.2273 -0.7495  1.9959
  236MOL0     H31848   7.549   3.083  10.253 -0.5002  0.0439  2.8343
  236MOL0     H31849   7.438   2.899  10.343  1.7377  2.3926  1.0777
  236MOL0     H31850   7.320   2.718  10.268 -0.4382 -2.6677  0.7680
  236MOL0     H31851   7.247   2.688  10.408 -2.7063 -1.9181 -0.1259
  236MOL0     H31852   7.147   2.644  10.125 -5.1236 -1.4929 -1.3341
  236MOL0     H31853   7.031   2.633  10.254 -0.5185  2.5469 -0.5879
  236MOL0     H31854   7.301   2.486  10.260 -0.2951 -0.0953 -4.3264
  236MOL0     H31855   7.182   2.405  10.183 -1.3381 -1.7792  2.3657
  236MOL0     H31856   7.163   2.484  10.489 -2.5275  2.9745 -0.7767
  236MOL0     H31857   7.210   2.325  10.425  0.2577 -0.1895 -0.1888
  236MOL0     H31858   6.793   2.305  10.364  0.5425 -2.9977  1.1244
  236MOL0     H31859   7.061   3.073  10.223  0.5202  5.2662 -0.7754
  236MOL0     H31860   7.176   3.247  10.121  1.0031  1.5899 -0.0033
  237MOL0     O31861   9.651  10.332   9.980 -0.4369 -0.6145 -0.0173
  237MOL0     C31862   9.765  10.320   9.937  0.4555  0.1842  0.9100
  237MOL0     O31863   9.799  10.289   9.811 -0.1938  0.4362  0.2861
  237MOL0     C31864   9.689  10.262   9.734  0.4795  0.5442  0.0378
  237MOL0     C31865   9.634  10.347   9.641  0.4332 -0.1066  0.1962
  237MOL0     C31866   9.520  10.311   9.567  0.6087  0.1381  0.6615
  237MOL0     C31867   9.457  10.184   9.585  0.0957 -0.1881  0.4231
  237MOL0     O31868   9.345  10.134   9.515 -0.0558  0.0569  0.0720
  237MOL0     C31869   9.296  10.198   9.397 -0.0032  0.0133  0.4856
  237MOL0     C31870   9.205  10.099   9.329 -0.6864 -0.0477 -0.0625
  237MOL0     C31871   9.095  10.169   9.235  0.9568 -0.4826  0.4264
  237MOL0     C31872   8.983  10.239   9.310 -0.6743 -0.8070 -0.2329
  237MOL0     C31873   8.913  10.346   9.226  0.1141 -0.0431  0.0312
  237MOL0     C31874   8.772  10.371   9.278 -0.1128 -0.4515 -0.2667
  237MOL0     C31875   8.681  10.471   9.195  0.2135  0.1820 -0.9282
  237MOL0     C31876   8.732  10.619   9.203 -0.6533 -0.6703 -0.6786
  237MOL0     N31877   8.685  10.682   9.327  0.0725 -0.1877 -0.1018
  237MOL0     C31878   8.563  10.674   9.386  0.4661  0.9605 -0.1663
  237MOL0     C31879   8.543  10.783   9.457 -0.3474 -0.2836  0.7078
  237MOL0     C31880   8.409  10.809   9.535 -0.6026  1.0454 -0.0437
  237MOL0     C31881   8.413  10.775   9.681 -0.9360 -0.2746  0.0236
  237MOL0     C31882   8.285  10.725   9.744  0.6441 -0.2909  1.0305
  237MOL0     C31883   8.297  10.711   9.902 -0.1262 -0.4708  0.6312
  237MOL0     O31884   8.385  10.603   9.942  0.2415  0.2310 -0.4947
  237MOL0     C31885   8.328  10.474   9.967  0.1704 -0.4291  0.3896
  237MOL0     C31886   8.426  10.379  10.014  0.1450 -0.3704 -0.4664
  237MOL0     C31887   8.389  10.244  10.038 -0.3375 -0.4125  0.3555
  237MOL0     C31888   8.504  10.154  10.091  0.2678  0.7373  0.4400
  237MOL0     C31889   8.258  10.202  10.009 -0.2287  0.2466 -0.2158
  237MOL0     C31890   8.213  10.056  10.013  0.1342  0.1740  0.6720
  237MOL0     O31891   8.094  10.032   9.952 -0.4101 -0.2460 -0.4865
  237MOL0     C31892   8.050   9.904   9.961  0.1758  0.0794 -0.1440
  237MOL0     C31893   7.998   9.854  10.080  0.1548 -0.0823 -0.1723
  237MOL0     C31894   7.966   9.717  10.084 -1.3456 -0.1470 -0.1955
  237MOL0     C31895   7.968   9.634   9.966 -0.4573 -0.7875 -1.0593
  237MOL0     O31896   7.941   9.506   9.973  0.6690  0.6665  0.2225
  237MOL0     C31897   7.852   9.434  10.054 -0.8935  0.3263  0.7837
  237MOL0     C31898   7.825   9.300   9.982 -0.7816  0.3291 -0.4491
  237MOL0     C31899   7.954   9.215   9.968  0.5910  0.2237 -0.5156
  237MOL0     C31900   8.003   9.151  10.094  0.8326 -0.6369  0.3507
  237MOL0     C31901   8.077   9.026  10.054  0.1005  0.0849  0.4947
  237MOL0     C31902   8.086   8.928  10.169  0.7069 -0.5429  0.6341
  237MOL0     C31903   8.168   8.975  10.281 -0.3532 -0.7395 -0.6155
  237MOL0     C31904   8.175   8.864  10.385 -0.3000 -0.1229 -0.6487
  237MOL0    Cl31905   8.277   8.726  10.322 -0.0424 -0.1527  0.6522
  237MOL0     C31906   8.025   9.683   9.856  0.0102 -0.3228  0.1166
  237MOL0     C31907   8.060   9.820   9.846  0.6186  0.4179 -0.2488
  237MOL0     O31908   8.285   9.972  10.067 -0.0562 -0.4713 -0.1107
  237MOL0     C31909   8.166  10.298   9.967  0.3949 -0.5386 -0.3411
  237MOL0     C31910   8.201  10.434   9.951 -0.1982 -0.1153  0.1758
  237MOL0     N31911   8.656  10.859   9.454 -0.3591  0.1105 -0.0756
  237MOL0     N31912   8.737  10.797   9.379 -0.7322 -0.3227 -0.1634
  237MOL0     C31913   9.510  10.093   9.669 -0.1672 -1.3623  1.0281
  237MOL0     C31914   9.626  10.131   9.745  0.7246  0.4768  0.8870
  237MOL0     C31915   9.875  10.344  10.030 -0.6476  0.7122  0.1143
  237MOL0     C31916  10.007  10.327   9.990  0.6568  0.3393  0.9481
  237MOL0     C31917  10.115  10.336  10.078 -0.0410 -0.1225  0.5179
  237MOL0     C31918  10.085  10.371  10.209 -0.3984  0.0861  0.2673
  237MOL0     O31919  10.182  10.384  10.303 -0.1082  0.8015  0.0711
  237MOL0     C31920  10.155  10.356  10.440  0.2936  0.3613 -0.3441
  237MOL0     C31921  10.282  10.353  10.525 -0.5650 -0.6243  0.1564
  237MOL0     C31922  10.356  10.484  10.529 -0.8607  0.4899 -0.4304
  237MOL0     C31923  10.468  10.497  10.641 -0.1421 -0.5271  0.8348
  237MOL0     C31924  10.587  10.403  10.625  0.7365  0.9400 -0.1609
  237MOL0     C31925  10.694  10.347  10.614  0.5454  0.7242 -0.8217
  237MOL0     C31926   9.954  10.380  10.253  0.8235 -0.3981  0.3865
  237MOL0     C31927   9.852  10.368  10.162 -0.6794  0.1768 -0.5119
  237MOL0     H31928   9.664  10.451   9.644 -0.9654  0.3072  2.4789
  237MOL0     H31929   9.483  10.389   9.501  0.1678 -1.2357 -0.7699
  237MOL0     H31930   9.234  10.283   9.428 -1.0913 -0.3546 -0.5638
  237MOL0     H31931   9.371  10.242   9.331 -0.7704  0.3271 -0.1984
  237MOL0     H31932   9.272  10.030   9.278 -1.0408 -1.1933  0.9544
  237MOL0     H31933   9.152  10.035   9.401 -2.3819  0.0070 -1.1927
  237MOL0     H31934   9.145  10.239   9.167  1.7607 -2.3450 -0.9835
  237MOL0     H31935   9.043  10.095   9.173 -0.3340  0.4075  0.4067
  237MOL0     H31936   8.908  10.163   9.332 -1.7329  0.4756  0.7452
  237MOL0     H31937   9.015  10.282   9.405 -3.5177 -0.6340  0.7413
  237MOL0     H31938   8.966  10.440   9.205  2.1960 -1.0650  0.4899
  237MOL0     H31939   8.902  10.301   9.127 -0.4452  0.7453 -0.2715
  237MOL0     H31940   8.708  10.283   9.269 -3.3132  1.3788  2.4601
  237MOL0     H31941   8.782  10.401   9.382 -0.2271 -1.1798 -0.0420
  237MOL0     H31942   8.687  10.437   9.092 -0.8256  0.2332 -1.0153
  237MOL0     H31943   8.576  10.453   9.220  0.0634  1.2302 -0.7661
  237MOL0     H31944   8.683  10.662   9.115 -0.0226 -1.4200 -1.4119
  237MOL0     H31945   8.841  10.629   9.201 -0.8776  4.0663 -1.2663
  237MOL0     H31946   8.500  10.589   9.363 -2.3603  2.3737  1.7828
  237MOL0     H31947   8.377  10.914   9.526 -0.1051  1.2414  0.4564
  237MOL0     H31948   8.340  10.740   9.485 -1.6918  1.4593  0.8450
  237MOL0     H31949   8.463  10.860   9.729  0.0461 -0.7287 -0.1588
  237MOL0     H31950   8.493  10.701   9.693  0.6462  1.4025  0.4246
  237MOL0     H31951   8.251  10.629   9.705  1.2116  0.1569 -0.6690
  237MOL0     H31952   8.205  10.797   9.725  0.9102 -0.3810 -0.6190
  237MOL0     H31953   8.194  10.677   9.918  0.2460 -2.9563 -1.6900
  237MOL0     H31954   8.324  10.808   9.946  1.6899  0.6919 -2.6809
  237MOL0     H31955   8.526  10.418  10.033 -0.5067  1.8138 -1.2577
  237MOL0     H31956   8.466  10.114  10.186  0.7140  0.1837  0.3864
  237MOL0     H31957   8.525  10.071  10.023  1.1863  1.6572 -0.4333
  237MOL0     H31958   8.591  10.217  10.109  1.2740  0.5178 -2.9922
  237MOL0     H31959   7.993   9.918  10.167  0.4160  0.4357 -0.5325
  237MOL0     H31960   7.939   9.686  10.185 -1.2526  0.2858 -0.0340
  237MOL0     H31961   7.902   9.404  10.147  0.0659 -4.4597 -0.9655
  237MOL0     H31962   7.760   9.490  10.073 -0.8575  0.3405  0.9220
  237MOL0     H31963   7.752   9.244  10.041  0.7550 -0.9111  0.3501
  237MOL0     H31964   7.790   9.318   9.880 -0.5826  0.4048 -0.5041
  237MOL0     H31965   8.029   9.286   9.932  1.8366 -1.0780 -0.6190
  237MOL0     H31966   7.946   9.141   9.888 -4.7876 -1.8008  1.4114
  237MOL0     H31967   8.074   9.220  10.140 -1.3052  0.7990  1.6702
  237MOL0     H31968   7.914   9.131  10.154 -1.4794  0.0193 -2.5961
  237MOL0     H31969   8.176   9.049  10.013 -0.0816  1.0006  0.5601
  237MOL0     H31970   8.020   8.982   9.972  0.3334  0.1775  0.2797
  237MOL0     H31971   7.988   8.908  10.213 -1.0378  1.0532 -2.2629
  237MOL0     H31972   8.132   8.838  10.126 -1.3748 -2.5626  2.3314
  237MOL0     H31973   8.127   9.066  10.326 -1.1417 -1.0709 -0.6526
  237MOL0     H31974   8.264   9.007  10.239  1.0777 -2.2924  1.2816
  237MOL0     H31975   8.072   8.830  10.400 -0.4444  0.1245 -1.0573
  237MOL0     H31976   8.223   8.888  10.481 -0.3649  2.3806 -1.1720
  237MOL0     H31977   8.038   9.612   9.775  1.5188  1.5818 -1.4183
  237MOL0     H31978   8.092   9.859   9.750 -2.0606 -4.1007 -3.3899
  237MOL0     H31979   8.063  10.275   9.941  0.1682 -0.4554  0.4609
  237MOL0     H31980   8.125  10.496   9.904  0.3166 -1.0350 -1.9684
  237MOL0     H31981   9.461   9.996   9.676 -4.2279  0.3600 -0.4648
  237MOL0     H31982   9.654  10.062   9.824 -3.7586 -2.8765 -0.0667
  237MOL0     H31983  10.036  10.314   9.886 -0.0673 -0.6144  0.8472
  237MOL0     H31984  10.217  10.325  10.045 -0.7775  0.5229 -2.2214
  237MOL0     H31985  10.089  10.429  10.487 -0.4181 -1.1107  1.0231
  237MOL0     H31986  10.118  10.253  10.434 -0.4665  0.6850 -3.8281
  237MOL0     H31987  10.350  10.272  10.497  0.9818  0.3408  0.9757
  237MOL0     H31988  10.254  10.344  10.631 -0.2923  2.8912  0.6437
  237MOL0     H31989  10.286  10.569  10.532 -0.5470  0.7144  2.1810
  237MOL0     H31990  10.403  10.490  10.430  1.5122  0.3077  0.6204
  237MOL0     H31991  10.421  10.481  10.738 -2.4682  0.2403 -0.0850
  237MOL0     H31992  10.498  10.602  10.645 -1.2707 -0.1539  0.1008
  237MOL0     H31993  10.786  10.294  10.618 -0.9902 -2.0931  0.1401
  237MOL0     H31994   9.930  10.415  10.354 -2.2150  2.8005 -1.2007
  237MOL0     H31995   9.751  10.381  10.198 -0.7293 -0.8496 -0.2582
  238MOL0     O31996   8.107   4.004   9.726 -0.2950 -0.0488  0.0897
  238MOL0     C31997   8.074   3.914   9.642  1.1272  0.5829  0.0160
  238MOL0     O31998   8.097   3.914   9.504  0.0018  0.2304 -0.0040
  238MOL0     C31999   8.174   4.004   9.442  0.0930 -1.0689  0.2413
  238MOL0     C32000   8.141   4.140   9.441  0.1043 -0.4299 -0.3365
  238MOL0     C32001   8.214   4.230   9.358 -0.2908  1.4726 -0.1670
  238MOL0     C32002   8.313   4.176   9.274  0.3731  0.2202 -0.5423
  238MOL0     O32003   8.388   4.238   9.173 -0.2099 -0.6871  0.2356
  238MOL0     C32004   8.342   4.363   9.120  0.2065 -0.6871  0.2073
  238MOL0     C32005   8.374   4.397   8.973  0.0630 -0.9201 -0.4789
  238MOL0     C32006   8.327   4.537   8.925  0.1656 -0.2554 -0.6066
  238MOL0     C32007   8.414   4.642   8.986 -0.3775  0.3816 -0.1029
  238MOL0     C32008   8.358   4.784   8.987  0.3858  0.3832 -0.1663
  238MOL0     C32009   8.472   4.883   9.017  0.2140 -0.0587  0.2104
  238MOL0     C32010   8.399   5.012   9.035  0.5673 -0.6206  0.5049
  238MOL0     C32011   8.488   5.137   9.055 -0.9559  0.0721  0.1896
  238MOL0     N32012   8.409   5.255   9.025 -0.2429  0.8475  0.5937
  238MOL0     C32013   8.377   5.302   8.897  0.3424 -0.3588  0.2989
  238MOL0     C32014   8.298   5.406   8.920  0.1772 -0.5464  0.5042
  238MOL0     C32015   8.258   5.503   8.810 -0.0767 -0.4665  0.1238
  238MOL0     C32016   8.150   5.442   8.730  0.2787 -0.8001 -0.7161
  238MOL0     C32017   8.091   5.551   8.642  0.0076 -0.4291 -0.3567
  238MOL0     C32018   8.010   5.661   8.711  0.0986 -0.1129 -0.0647
  238MOL0     O32019   7.921   5.714   8.610 -0.4542  0.4339 -1.3419
  238MOL0     C32020   7.828   5.801   8.655  0.9292 -0.3771  0.5250
  238MOL0     C32021   7.722   5.768   8.742 -0.8098  0.5222  0.3242
  238MOL0     C32022   7.605   5.855   8.759 -0.4863  0.3851  0.0442
  238MOL0     C32023   7.498   5.807   8.852 -0.1000  0.2372 -0.3767
  238MOL0     C32024   7.606   5.979   8.687  0.6615  0.3443  0.2032
  238MOL0     C32025   7.501   6.080   8.689  0.5148 -0.9771  0.0948
  238MOL0     O32026   7.501   6.181   8.592  0.3164 -0.5589  0.0936
  238MOL0     C32027   7.394   6.267   8.580  0.0651 -0.2855 -0.4739
  238MOL0     C32028   7.417   6.402   8.605 -0.2536  0.0706  0.2816
  238MOL0     C32029   7.312   6.497   8.569  0.5886 -0.7097 -0.6463
  238MOL0     C32030   7.187   6.453   8.523  0.6582  0.1043 -0.4483
  238MOL0     O32031   7.084   6.543   8.504 -0.7615  0.2852 -0.9314
  238MOL0     C32032   7.100   6.625   8.389  0.3608  0.5913 -0.5485
  238MOL0     C32033   7.208   6.737   8.382 -0.5842 -0.0725 -0.2354
  238MOL0     C32034   7.164   6.854   8.299  0.4421  0.3910  0.6147
  238MOL0     C32035   7.282   6.960   8.278 -0.5001  0.4320 -0.0420
  238MOL0     C32036   7.257   7.055   8.164  0.1831  0.4729  0.5679
  238MOL0     C32037   7.380   7.119   8.091 -0.2732 -0.1001  1.2275
  238MOL0     C32038   7.483   7.016   8.028 -0.1273  0.0918 -0.1693
  238MOL0     C32039   7.585   7.081   7.927 -0.4486 -0.3259  0.8089
  238MOL0    Cl32040   7.730   6.982   7.889 -0.3389  0.1556  0.0669
  238MOL0     C32041   7.173   6.316   8.508  0.2745 -0.1633 -0.0760
  238MOL0     C32042   7.269   6.224   8.529  0.3111 -0.1627  0.1142
  238MOL0     O32043   7.413   6.070   8.777 -0.0590 -0.5049  0.7539
  238MOL0     C32044   7.712   6.011   8.603 -0.4513  0.4450 -0.9796
  238MOL0     C32045   7.822   5.928   8.589  0.5043  0.2862  0.3899
  238MOL0     N32046   8.265   5.413   9.053  0.3911  0.7693  0.3986
  238MOL0     N32047   8.340   5.324   9.115 -0.4936  0.2170  0.0022
  238MOL0     C32048   8.335   4.041   9.268 -0.3342  0.6064 -0.3652
  238MOL0     C32049   8.274   3.951   9.359 -0.6784 -0.1759  1.3019
  238MOL0     C32050   8.028   3.790   9.707  0.5059  0.7699 -0.4608
  238MOL0     C32051   8.058   3.763   9.840 -0.7289  0.2810 -0.5133
  238MOL0     C32052   8.021   3.639   9.901 -0.1063  0.6637 -0.0994
  238MOL0     C32053   7.939   3.549   9.827  0.2006  0.2066  0.2707
  238MOL0     O32054   7.874   3.440   9.888  0.6400 -0.3914 -0.2330
  238MOL0     C32055   7.943   3.333   9.947  0.3882 -0.2938 -0.3352
  238MOL0     C32056   8.063   3.283   9.859 -2.0449  0.7811  0.9534
  238MOL0     C32057   8.115   3.154   9.924  0.2303  0.0169 -0.4449
  238MOL0     C32058   8.195   3.192  10.052 -0.2940  0.1962 -1.1346
  238MOL0     C32059   8.246   3.068  10.105 -0.4656  0.2037  1.0034
  238MOL0     C32060   8.289   2.961  10.138 -0.6621 -0.1250  0.0359
  238MOL0     C32061   7.901   3.582   9.690 -0.5166 -0.4985  0.0070
  238MOL0     C32062   7.962   3.697   9.629  0.5811  0.1401  0.5047
  238MOL0     H32063   8.056   4.174   9.499  0.0801 -0.8416 -0.1272
  238MOL0     H32064   8.206   4.337   9.372 -0.9716  1.2560  1.3793
  238MOL0     H32065   8.234   4.376   9.135  0.2815  1.4369 -0.7664
  238MOL0     H32066   8.399   4.432   9.183 -0.1665 -0.0302 -0.1595
  238MOL0     H32067   8.481   4.389   8.951  0.6952  3.2578  0.1703
  238MOL0     H32068   8.312   4.336   8.907 -1.1441 -0.2355  0.0005
  238MOL0     H32069   8.334   4.528   8.817 -0.9237  0.8713 -0.7944
  238MOL0     H32070   8.220   4.548   8.946  0.3681  1.4537 -0.2699
  238MOL0     H32071   8.440   4.616   9.089  1.3169 -1.5776 -0.9665
  238MOL0     H32072   8.511   4.637   8.936 -1.1153 -1.2754 -1.4741
  238MOL0     H32073   8.326   4.800   8.884 -0.8374 -1.9014 -0.2036
  238MOL0     H32074   8.274   4.792   9.056  1.9866 -2.2205  2.3297
  238MOL0     H32075   8.519   4.851   9.111 -0.7372 -0.9282  0.4064
  238MOL0     H32076   8.545   4.900   8.937 -1.3658  0.7341 -1.1194
  238MOL0     H32077   8.328   5.033   8.955 -1.2053 -1.1475  1.8547
  238MOL0     H32078   8.335   5.010   9.124 -0.3646  0.6947 -0.1011
  238MOL0     H32079   8.565   5.152   8.979 -0.4123  4.4563  1.3389
  238MOL0     H32080   8.546   5.134   9.147  2.7102 -4.0269 -1.8791
  238MOL0     H32081   8.439   5.279   8.811  0.4447 -2.4503  0.8806
  238MOL0     H32082   8.204   5.586   8.855  0.7567  0.7069 -0.9580
  238MOL0     H32083   8.340   5.529   8.743 -1.7865  0.2802 -1.7827
  238MOL0     H32084   8.072   5.397   8.791 -0.5540 -0.8514 -1.7832
  238MOL0     H32085   8.197   5.360   8.674  1.7740 -2.2326  2.4197
  238MOL0     H32086   8.033   5.512   8.558  0.0694  1.4880 -1.3484
  238MOL0     H32087   8.173   5.608   8.598 -1.1847  0.7740 -1.0955
  238MOL0     H32088   8.074   5.739   8.752 -0.2652  0.8943 -1.3350
  238MOL0     H32089   7.943   5.614   8.784 -2.4995 -0.5926 -2.5786
  238MOL0     H32090   7.721   5.681   8.807  0.2198  0.2830  0.0357
  238MOL0     H32091   7.402   5.824   8.802  0.4594 -0.7853 -1.8584
  238MOL0     H32092   7.504   5.703   8.885 -1.9586  0.1577 -0.1789
  238MOL0     H32093   7.502   5.869   8.942 -1.0415  0.7461 -0.6717
  238MOL0     H32094   7.514   6.440   8.637  0.2432 -2.1561  1.6586
  238MOL0     H32095   7.335   6.602   8.587 -1.2745 -0.3199 -0.3329
  238MOL0     H32096   7.109   6.559   8.303  0.9597  0.9628 -0.7721
  238MOL0     H32097   7.005   6.680   8.394  0.5824  0.9362  0.1071
  238MOL0     H32098   7.241   6.779   8.477 -0.2893 -2.7659  0.9365
  238MOL0     H32099   7.295   6.693   8.331 -1.5343 -2.9304  0.4354
  238MOL0     H32100   7.086   6.914   8.346  1.1725  2.8029 -1.0644
  238MOL0     H32101   7.146   6.819   8.197  1.7572  1.0766  0.1145
  238MOL0     H32102   7.294   7.017   8.371 -0.4998  0.5760 -0.1286
  238MOL0     H32103   7.374   6.914   8.242  0.2332  3.0965 -1.8302
  238MOL0     H32104   7.191   7.129   8.211 -0.0601  0.9935 -0.5803
  238MOL0     H32105   7.194   7.002   8.092 -1.7354  1.3718  1.5073
  238MOL0     H32106   7.359   7.198   8.018  2.0165  0.1294  0.7662
  238MOL0     H32107   7.430   7.174   8.171  1.4240 -0.8044  0.6970
  238MOL0     H32108   7.434   6.934   7.975  1.1650 -0.5914 -0.3437
  238MOL0     H32109   7.541   6.976   8.111  2.4949  3.3694 -0.2088
  238MOL0     H32110   7.617   7.179   7.962 -0.4559  1.4420 -3.5008
  238MOL0     H32111   7.525   7.093   7.835  1.9014 -2.3725 -1.1361
  238MOL0     H32112   7.075   6.279   8.479  0.4698 -0.6655 -0.0896
  238MOL0     H32113   7.239   6.120   8.537 -1.2706  0.4059  2.6735
  238MOL0     H32114   7.713   6.102   8.544 -1.5207 -0.5994 -2.6683
  238MOL0     H32115   7.901   5.948   8.518  2.3122  1.7711  2.6602
  238MOL0     H32116   8.395   4.004   9.186  0.6530  1.6903 -0.1560
  238MOL0     H32117   8.293   3.845   9.343  0.9933  0.4713 -1.7024
  238MOL0     H32118   8.114   3.839   9.893 -2.2077  0.2102  1.2885
  238MOL0     H32119   8.053   3.616  10.002  3.4674 -2.3157 -1.6491
  238MOL0     H32120   7.972   3.369  10.047 -4.0446  0.0040  1.0461
  238MOL0     H32121   7.872   3.249   9.941  1.9936 -1.8958  1.4265
  238MOL0     H32122   8.144   3.357   9.852 -1.6419  0.2735  0.0408
  238MOL0     H32123   8.037   3.258   9.756  0.0337 -1.8051  0.9177
  238MOL0     H32124   8.174   3.109   9.844 -0.7889 -2.8890  0.3022
  238MOL0     H32125   8.034   3.081   9.938  1.8790 -2.2636 -2.0785
  238MOL0     H32126   8.127   3.229  10.130  0.3373 -2.2457  0.6954
  238MOL0     H32127   8.282   3.248  10.016  1.8266 -2.2982 -0.1809
  238MOL0     H32128   8.325   2.865  10.171 -2.7276 -1.9174 -2.4898
  238MOL0     H32129   7.846   3.512   9.628  1.7217 -1.7555 -0.6706
  238MOL0     H32130   7.941   3.722   9.525 -4.8784  0.6796  1.4478
  239MOL0     O32131   7.832   2.300   3.189 -0.2493 -0.0750 -0.1348
  239MOL0     C32132   7.746   2.323   3.275 -0.4637  0.1310 -0.3635
  239MOL0     O32133   7.627   2.370   3.251 -0.0515 -0.9114 -0.6355
  239MOL0     C32134   7.587   2.407   3.121 -0.3361 -0.5133  0.1725
  239MOL0     C32135   7.671   2.458   3.019 -0.5968  0.6041  0.4642
  239MOL0     C32136   7.624   2.475   2.886  0.0171  0.2627 -0.4514
  239MOL0     C32137   7.494   2.453   2.853  1.0207 -0.4394 -1.2060
  239MOL0     O32138   7.443   2.466   2.726 -0.6877  0.3461 -0.3241
  239MOL0     C32139   7.527   2.472   2.613 -0.0160 -0.5262 -0.9495
  239MOL0     C32140   7.432   2.490   2.492  0.2048 -0.5393  0.2659
  239MOL0     C32141   7.349   2.361   2.464  0.2421  0.7667 -0.2404
  239MOL0     C32142   7.238   2.397   2.365 -0.7215 -0.3694 -0.0785
  239MOL0     C32143   7.135   2.279   2.361  0.1067  0.0763 -0.1775
  239MOL0     C32144   7.040   2.310   2.245  0.1971  0.3675 -0.1476
  239MOL0     C32145   6.955   2.186   2.212 -0.0879  0.6281  0.6105
  239MOL0     C32146   6.880   2.120   2.336 -0.8703  0.6011 -0.3293
  239MOL0     N32147   6.800   2.215   2.404  0.6804  0.3501  0.7163
  239MOL0     C32148   6.723   2.311   2.342 -0.0552  0.9187 -0.3132
  239MOL0     C32149   6.663   2.368   2.441 -0.7431  0.6091  0.6798
  239MOL0     C32150   6.589   2.499   2.433 -0.0074  0.3689 -0.0456
  239MOL0     C32151   6.452   2.493   2.370 -0.2940  0.0490 -0.5359
  239MOL0     C32152   6.353   2.411   2.459 -0.0746 -0.1334  0.1843
  239MOL0     C32153   6.289   2.478   2.578  0.2519 -0.7200 -0.5310
  239MOL0     O32154   6.194   2.574   2.529  0.5566  0.1300  0.5307
  239MOL0     C32155   6.133   2.662   2.616  0.4298  0.7713  0.0380
  239MOL0     C32156   6.129   2.639   2.750  0.3039  0.2634  0.3497
  239MOL0     C32157   6.069   2.737   2.841  0.3968  0.8315 -0.0856
  239MOL0     C32158   6.065   2.699   2.981  1.1646  0.0584  0.8742
  239MOL0     C32159   6.007   2.854   2.788 -0.3182 -0.0662  0.5856
  239MOL0     C32160   5.972   2.966   2.877  0.2780  0.2309  0.8720
  239MOL0     O32161   5.874   3.051   2.823 -1.2276 -0.1170 -0.0616
  239MOL0     C32162   5.851   3.165   2.886  0.6391 -0.1276  0.4761
  239MOL0     C32163   5.811   3.176   3.018  0.1896  0.3744 -0.4426
  239MOL0     C32164   5.791   3.302   3.081 -0.4174  0.8742  0.3606
  239MOL0     C32165   5.806   3.415   3.002 -0.8639  0.1723 -0.0727
  239MOL0     O32166   5.779   3.544   3.050 -0.2317  0.4636 -0.4683
  239MOL0     C32167   5.837   3.572   3.179  0.7750 -0.8598 -0.7124
  239MOL0     C32168   5.813   3.714   3.232  1.0590  1.0802  0.1405
  239MOL0     C32169   5.884   3.811   3.140  0.6738  0.3243 -0.1775
  239MOL0     C32170   5.835   3.953   3.158 -0.1024  0.3778  0.3017
  239MOL0     C32171   5.830   4.030   3.027  0.2721  0.0258 -0.1285
  239MOL0     C32172   5.973   4.057   2.971  0.8312  0.1920  0.3380
  239MOL0     C32173   5.972   4.148   2.846  0.1108  0.0964 -0.2874
  239MOL0     C32174   6.112   4.173   2.807 -0.5154  0.8560 -0.8180
  239MOL0    Cl32175   6.100   4.287   2.667  0.4590 -0.4208 -0.7943
  239MOL0     C32176   5.831   3.407   2.861 -0.3278 -0.7129  0.5971
  239MOL0     C32177   5.856   3.278   2.802 -0.1579  0.1191 -0.2712
  239MOL0     O32178   6.036   2.990   2.985 -0.1545 -0.9850 -0.0118
  239MOL0     C32179   6.013   2.871   2.644 -0.3797  0.1445  1.3053
  239MOL0     C32180   6.073   2.772   2.570 -0.3631  0.2306  1.1955
  239MOL0     N32181   6.679   2.288   2.555  0.5373  0.0047 -0.0919
  239MOL0     N32182   6.755   2.190   2.531 -0.2736  0.0168 -0.6521
  239MOL0     C32183   7.396   2.416   2.951 -0.7465  0.2118 -1.3161
  239MOL0     C32184   7.451   2.394   3.087 -0.9372  0.4770 -0.3561
  239MOL0     C32185   7.783   2.294   3.419  0.1712 -0.7515 -0.6874
  239MOL0     C32186   7.903   2.231   3.453  0.5429 -0.1729 -1.1661
  239MOL0     C32187   7.931   2.195   3.586 -1.3234 -0.3426 -0.7145
  239MOL0     C32188   7.835   2.209   3.685 -1.2753 -0.8811 -0.4656
  239MOL0     O32189   7.868   2.173   3.809  0.2874 -0.4528  0.0536
  239MOL0     C32190   7.833   2.036   3.840  0.7136 -0.1419 -0.9284
  239MOL0     C32191   7.926   1.924   3.788  0.5877 -0.1234  0.6841
  239MOL0     C32192   8.073   1.947   3.830 -0.3470 -0.3190  0.2755
  239MOL0     C32193   8.142   1.819   3.805  0.3746  0.4221  0.0281
  239MOL0     C32194   8.279   1.826   3.805 -0.5236 -0.0110 -0.6807
  239MOL0     C32195   8.400   1.845   3.814  0.4690  0.2234 -0.1865
  239MOL0     C32196   7.718   2.270   3.652  0.7602  0.1440  0.9864
  239MOL0     C32197   7.679   2.307   3.517  0.0494  0.4640 -0.4611
  239MOL0     H32198   7.777   2.481   3.030 -0.4562  0.2885 -0.1780
  239MOL0     H32199   7.695   2.508   2.810 -0.0762 -1.0275 -1.1342
  239MOL0     H32200   7.591   2.561   2.614  0.4470 -0.8333 -1.9240
  239MOL0     H32201   7.592   2.384   2.609  1.3341  0.3822 -0.0371
  239MOL0     H32202   7.366   2.575   2.511  3.3708  2.2877 -0.5930
  239MOL0     H32203   7.496   2.517   2.409 -0.8027  1.6093  0.1174
  239MOL0     H32204   7.409   2.285   2.414 -0.9437  0.3372 -1.0598
  239MOL0     H32205   7.301   2.311   2.548 -1.4103  1.4512 -0.7396
  239MOL0     H32206   7.194   2.493   2.395 -1.7195 -0.5690 -0.8407
  239MOL0     H32207   7.273   2.413   2.262  1.0702  2.4197  0.8479
  239MOL0     H32208   7.190   2.185   2.355  0.9145  0.3740  1.6988
  239MOL0     H32209   7.076   2.274   2.454 -0.6938 -0.9897 -0.7192
  239MOL0     H32210   6.970   2.392   2.264  1.2360  1.3381 -0.4183
  239MOL0     H32211   7.092   2.334   2.152 -2.6752  0.9839 -1.7269
  239MOL0     H32212   6.888   2.210   2.128  0.4986 -2.0775 -0.7636
  239MOL0     H32213   7.024   2.110   2.175 -0.4596  0.7037 -0.2735
  239MOL0     H32214   6.946   2.066   2.406  0.5476  1.8071 -0.6753
  239MOL0     H32215   6.811   2.042   2.305 -2.8174  1.4888  1.5511
  239MOL0     H32216   6.736   2.345   2.239  3.3461 -1.9323 -1.0246
  239MOL0     H32217   6.574   2.521   2.539 -3.8772 -2.0501  0.1174
  239MOL0     H32218   6.647   2.572   2.376  2.1933 -2.0838 -1.1722
  239MOL0     H32219   6.462   2.450   2.269  0.1141  0.0837 -0.5102
  239MOL0     H32220   6.418   2.596   2.362  2.9164  1.1858 -1.0619
  239MOL0     H32221   6.397   2.317   2.493 -2.1969 -0.7121  1.4781
  239MOL0     H32222   6.268   2.367   2.406 -1.6649 -1.6248  3.6359
  239MOL0     H32223   6.367   2.534   2.630 -0.9808  1.8230 -1.2635
  239MOL0     H32224   6.229   2.411   2.641 -2.2566 -0.7039 -2.6986
  239MOL0     H32225   6.182   2.556   2.795  2.6965  1.1562 -0.6967
  239MOL0     H32226   6.158   2.748   3.010  0.4098  2.0004  0.1223
  239MOL0     H32227   5.980   2.742   3.034 -0.7273 -0.5961 -1.4293
  239MOL0     H32228   6.057   2.589   2.982 -2.2194  0.0975 -1.8660
  239MOL0     H32229   5.797   3.089   3.081  1.4000 -0.7468 -1.6477
  239MOL0     H32230   5.768   3.307   3.187 -1.7243  1.1675  0.0789
  239MOL0     H32231   5.804   3.505   3.259  0.6197  2.7842  2.5611
  239MOL0     H32232   5.946   3.565   3.178  0.9816 -3.0855  4.7484
  239MOL0     H32233   5.704   3.715   3.224  0.7800 -3.0348  1.2905
  239MOL0     H32234   5.837   3.725   3.339  0.6956 -3.1018  0.8384
  239MOL0     H32235   5.849   3.787   3.039  0.8512  3.4147 -1.1054
  239MOL0     H32236   5.993   3.813   3.137  0.7412 -1.9987 -0.7932
  239MOL0     H32237   5.737   3.948   3.205 -1.3438 -4.0548 -2.1662
  239MOL0     H32238   5.902   3.989   3.236 -1.1717  0.2635  1.2980
  239MOL0     H32239   5.774   4.122   3.045 -2.4774 -1.1760 -1.9583
  239MOL0     H32240   5.776   3.968   2.955  1.4926 -1.2873  0.0489
  239MOL0     H32241   6.033   4.103   3.049  0.1003  3.2458 -0.7799
  239MOL0     H32242   6.014   3.957   2.952 -0.6296 -0.2296 -0.8811
  239MOL0     H32243   5.934   4.244   2.882  1.1942 -0.2645  1.9438
  239MOL0     H32244   5.908   4.106   2.767 -0.9601 -0.5818  0.9114
  239MOL0     H32245   6.163   4.079   2.783 -1.7802  0.3661 -1.6536
  239MOL0     H32246   6.177   4.219   2.882 -1.6212 -0.7040  1.1975
  239MOL0     H32247   5.812   3.498   2.806 -1.0985 -1.0966  0.2018
  239MOL0     H32248   5.877   3.271   2.696 -3.0443  3.6780 -1.3016
  239MOL0     H32249   5.984   2.960   2.588  1.2800  0.4478  0.8879
  239MOL0     H32250   6.090   2.773   2.462  0.7219 -2.7610  1.2521
  239MOL0     H32251   7.299   2.385   2.914 -0.5733 -1.0739 -0.7704
  239MOL0     H32252   7.386   2.357   3.166  1.0900  0.1529  1.2479
  239MOL0     H32253   7.976   2.198   3.379  3.2002 -3.1463  2.4044
  239MOL0     H32254   8.022   2.143   3.614 -0.5021  1.0964 -0.5786
  239MOL0     H32255   7.825   2.021   3.948 -1.2236 -2.9148 -1.3366
  239MOL0     H32256   7.736   2.023   3.792  2.0167  3.5276 -5.2144
  239MOL0     H32257   7.913   1.915   3.680 -2.8110 -2.6689  1.1304
  239MOL0     H32258   7.884   1.829   3.824  1.3617  0.3109  2.8849
  239MOL0     H32259   8.081   1.974   3.936  2.0975 -0.3718  0.1525
  239MOL0     H32260   8.127   2.029   3.783  3.9116  1.1842  6.5522
  239MOL0     H32261   8.113   1.786   3.705  3.9190 -0.5277 -0.8537
  239MOL0     H32262   8.099   1.739   3.866  2.8305  0.5203  2.0515
  239MOL0     H32263   8.506   1.858   3.823  0.7445 -1.6010 -0.3789
  239MOL0     H32264   7.643   2.301   3.725 -0.8553 -0.9026 -0.1514
  239MOL0     H32265   7.581   2.349   3.497  0.4886  2.8480  1.9058
  240MOL0     O32266   5.157   5.372   8.701  0.4337 -0.2082 -0.3525
  240MOL0     C32267   5.172   5.255   8.741 -0.2759 -1.1770 -0.0005
  240MOL0     O32268   5.084   5.189   8.822  0.1136  0.1830  0.2044
  240MOL0     C32269   5.056   5.263   8.939  1.0065 -0.4756 -0.4900
  240MOL0     C32270   5.105   5.391   8.972 -0.0663  0.9701  0.0721
  240MOL0     C32271   5.053   5.455   9.080 -0.0254  0.0464 -0.2189
  240MOL0     C32272   4.950   5.394   9.157 -0.0287  0.2326 -0.2035
  240MOL0     O32273   4.906   5.445   9.271  0.7204  0.0530  0.2057
  240MOL0     C32274   4.894   5.587   9.292 -0.1438  0.7556 -0.5003
  240MOL0     C32275   5.006   5.637   9.380  0.4249  0.0278  0.3558
  240MOL0     C32276   4.993   5.566   9.513 -0.6857  0.6212 -0.7432
  240MOL0     C32277   5.113   5.597   9.593 -0.3787 -0.6896 -0.4865
  240MOL0     C32278   5.135   5.741   9.639 -0.3149 -0.5612 -0.1151
  240MOL0     C32279   5.052   5.806   9.751 -0.4293 -0.9459  0.4512
  240MOL0     C32280   4.920   5.861   9.707  0.6680  0.5076 -0.3323
  240MOL0     C32281   4.821   5.883   9.827  0.1658 -0.0905  0.6304
  240MOL0     N32282   4.877   5.952   9.942 -0.0009  0.3501 -0.2505
  240MOL0     C32283   4.918   6.084   9.948  0.4437 -0.7938  0.1845
  240MOL0     C32284   4.965   6.097  10.072  0.1201 -0.0433 -0.5297
  240MOL0     C32285   5.021   6.213  10.149 -0.2961  0.0692 -0.7411
  240MOL0     C32286   5.042   6.337  10.070 -0.9931  0.5464 -0.6380
  240MOL0     C32287   5.074   6.454  10.163  0.9845  0.3283  0.7393
  240MOL0     C32288   5.216   6.488  10.186 -0.2929 -0.1554 -0.3556
  240MOL0     O32289   5.289   6.525  10.066 -0.0286 -0.2682 -0.1042
  240MOL0     C32290   5.269   6.653  10.012  0.1232  0.5460 -0.4426
  240MOL0     C32291   5.265   6.653   9.875  1.1762  1.0432  0.1922
  240MOL0     C32292   5.219   6.769   9.802  0.1773 -0.8845  0.0743
  240MOL0     C32293   5.213   6.762   9.652 -0.2439  0.4003  1.0994
  240MOL0     C32294   5.177   6.883   9.880  0.0491  0.1047  0.6374
  240MOL0     C32295   5.131   7.004   9.810 -0.0311  1.2016  0.4192
  240MOL0     O32296   5.063   6.992   9.694  0.8683  0.3046  1.0629
  240MOL0     C32297   4.980   7.089   9.644 -0.2241 -0.7297  0.7316
  240MOL0     C32298   4.851   7.045   9.607 -0.2500 -0.1075  0.0906
  240MOL0     C32299   4.765   7.130   9.544  1.7699  0.3897  0.6711
  240MOL0     C32300   4.799   7.267   9.524 -0.4358  0.4653 -0.3160
  240MOL0     O32301   4.708   7.348   9.463 -0.3710 -0.2622 -0.7573
  240MOL0     C32302   4.756   7.478   9.425  0.1038  0.6108 -0.1267
  240MOL0     C32303   4.641   7.566   9.372  0.0554  0.3651 -0.8364
  240MOL0     C32304   4.525   7.576   9.468  0.2638  0.4636  0.5640
  240MOL0     C32305   4.416   7.463   9.449  0.1980 -0.5797 -0.4604
  240MOL0     C32306   4.307   7.474   9.559 -0.4800  0.1102 -0.0738
  240MOL0     C32307   4.273   7.330   9.604 -0.1608 -0.3364  0.1630
  240MOL0     C32308   4.371   7.234   9.670  0.2929 -0.0452 -0.8303
  240MOL0     C32309   4.301   7.109   9.716 -0.6038 -0.0235  0.2359
  240MOL0    Cl32310   4.169   7.132   9.840 -0.2761 -0.0392 -0.1459
  240MOL0     C32311   4.934   7.310   9.570  0.4415 -0.1545  0.0461
  240MOL0     C32312   5.015   7.219   9.640  0.6767  0.0838  1.1251
  240MOL0     O32313   5.144   7.108   9.871 -0.7344  0.2068 -0.7378
  240MOL0     C32314   5.195   6.880  10.022  1.0152 -0.5593  0.5244
  240MOL0     C32315   5.239   6.764  10.088 -0.3007 -0.0493 -0.3172
  240MOL0     N32316   4.937   5.980  10.141  0.3293 -0.0484  0.0535
  240MOL0     N32317   4.897   5.894  10.064 -0.1166 -0.6801 -0.2967
  240MOL0     C32318   4.895   5.271   9.115 -0.9060 -0.0381 -0.7239
  240MOL0     C32319   4.945   5.204   9.011  0.0898 -0.9101  0.5359
  240MOL0     C32320   5.282   5.183   8.690 -0.9379  0.5055  0.6103
  240MOL0     C32321   5.327   5.062   8.745  0.4034  0.6081  0.8311
  240MOL0     C32322   5.451   5.003   8.708  0.2086 -0.1060  1.9558
  240MOL0     C32323   5.522   5.061   8.603  0.7665 -0.5814  1.4433
  240MOL0     O32324   5.650   5.024   8.560 -0.1125 -0.7607 -0.4458
  240MOL0     C32325   5.699   4.902   8.632 -0.1773  0.0423  0.3886
  240MOL0     C32326   5.842   4.854   8.594  1.2204 -0.9487 -0.3047
  240MOL0     C32327   5.868   4.835   8.449  0.0397  0.1931 -0.7853
  240MOL0     C32328   5.804   4.708   8.397  0.0916 -0.2719 -0.2047
  240MOL0     C32329   5.786   4.687   8.262 -0.3478  0.5658  0.4728
  240MOL0     C32330   5.762   4.667   8.149  0.3546  0.5346 -0.1164
  240MOL0     C32331   5.467   5.157   8.523  0.9829  0.6214 -0.0357
  240MOL0     C32332   5.352   5.221   8.571 -0.2106 -0.4024  0.0799
  240MOL0     H32333   5.184   5.438   8.914 -1.6006 -0.7924 -3.7839
  240MOL0     H32334   5.088   5.551   9.115 -0.4961 -0.1867  0.9256
  240MOL0     H32335   4.877   5.627   9.192 -0.8005 -0.6069 -0.9515
  240MOL0     H32336   4.797   5.585   9.344  0.5603 -0.9036  0.8504
  240MOL0     H32337   5.105   5.621   9.338  0.8926  0.0832  1.3917
  240MOL0     H32338   4.987   5.744   9.392 -2.1059 -0.2684 -0.5135
  240MOL0     H32339   4.894   5.571   9.560  0.4330 -4.0677  2.9066
  240MOL0     H32340   5.000   5.458   9.500 -0.4168  0.5407  0.0223
  240MOL0     H32341   5.131   5.531   9.678  0.9279  0.1946 -0.0395
  240MOL0     H32342   5.199   5.576   9.529  0.7096 -0.9195  0.9909
  240MOL0     H32343   5.240   5.747   9.668 -0.2342 -0.9556 -0.3178
  240MOL0     H32344   5.141   5.802   9.548  4.1917 -0.4068  0.0997
  240MOL0     H32345   5.036   5.734   9.831 -1.8163  1.1931  2.2137
  240MOL0     H32346   5.112   5.887   9.795 -0.0196 -0.7389 -0.4526
  240MOL0     H32347   4.923   5.959   9.658  0.7693  0.7922  0.2396
  240MOL0     H32348   4.873   5.790   9.638  2.8516  0.2245 -1.6491
  240MOL0     H32349   4.790   5.784   9.862  2.4046 -0.5028  1.6076
  240MOL0     H32350   4.728   5.931   9.797  0.5163  1.7877  2.3536
  240MOL0     H32351   4.910   6.155   9.867  1.0593  1.4782  2.0058
  240MOL0     H32352   4.956   6.230  10.235  2.5343 -0.6411  1.7306
  240MOL0     H32353   5.104   6.183  10.214 -0.2154  1.2387 -0.2647
  240MOL0     H32354   4.959   6.355  10.002 -0.2941 -1.2911 -2.0748
  240MOL0     H32355   5.131   6.327  10.008 -0.7548 -2.0124  0.0023
  240MOL0     H32356   5.026   6.443  10.261 -0.1759 -2.3123 -0.0355
  240MOL0     H32357   5.021   6.531  10.106 -3.4500 -3.6547 -1.1711
  240MOL0     H32358   5.270   6.412  10.244  0.5876  0.7753  0.0876
  240MOL0     H32359   5.229   6.571  10.256  1.3725 -0.9277  0.3119
  240MOL0     H32360   5.294   6.566   9.816  4.8782  4.0897 -2.9688
  240MOL0     H32361   5.278   6.841   9.614  2.1616 -0.1354  3.7606
  240MOL0     H32362   5.246   6.668   9.606 -1.0188  0.1283  1.0704
  240MOL0     H32363   5.113   6.785   9.616  1.1664  1.6932 -2.3522
  240MOL0     H32364   4.822   6.941   9.619  0.7845 -0.6060 -1.5572
  240MOL0     H32365   4.671   7.100   9.499  3.8196 -0.2101 -3.8010
  240MOL0     H32366   4.800   7.525   9.513 -1.3617 -0.4853  1.2442
  240MOL0     H32367   4.834   7.466   9.349 -0.2760  1.5308 -0.6829
  240MOL0     H32368   4.684   7.666   9.364 -1.4519  1.0623 -0.5443
  240MOL0     H32369   4.601   7.541   9.274 -0.8214  0.8594 -0.6130
  240MOL0     H32370   4.475   7.673   9.473  2.4841  1.6159  1.3995
  240MOL0     H32371   4.560   7.556   9.569  0.4447 -0.0318  0.4111
  240MOL0     H32372   4.369   7.468   9.350  0.0951 -0.9710 -0.4322
  240MOL0     H32373   4.468   7.367   9.452 -0.1257 -0.7606 -0.6593
  240MOL0     H32374   4.206   7.515   9.544 -0.6789 -0.2563  0.2217
  240MOL0     H32375   4.357   7.535   9.634 -1.4255 -0.8953  1.4420
  240MOL0     H32376   4.188   7.340   9.672 -0.8870 -3.9937 -0.0303
  240MOL0     H32377   4.229   7.292   9.511 -0.7327  3.6337 -1.3966
  240MOL0     H32378   4.409   7.278   9.762 -0.0567  0.9385 -1.1444
  240MOL0     H32379   4.446   7.214   9.592 -0.2479 -0.4481 -1.2508
  240MOL0     H32380   4.380   7.040   9.747 -0.5208 -0.3604 -0.6809
  240MOL0     H32381   4.265   7.062   9.624 -0.6261  2.1123 -0.9270
  240MOL0     H32382   4.970   7.412   9.567  2.8199 -0.6292  4.4064
  240MOL0     H32383   5.115   7.254   9.663  1.2159 -0.5683 -0.1082
  240MOL0     H32384   5.171   6.969  10.079  1.1473  0.6839 -1.2695
  240MOL0     H32385   5.259   6.767  10.195  3.7175 -1.0791 -0.8585
  240MOL0     H32386   4.820   5.239   9.187  1.6331  3.6130  4.1997
  240MOL0     H32387   4.911   5.101   9.005  0.5179 -0.9890 -1.1553
  240MOL0     H32388   5.277   5.016   8.830  0.7480 -0.3776  0.5157
  240MOL0     H32389   5.474   4.914   8.766 -3.1940 -2.2340  0.3816
  240MOL0     H32390   5.685   4.920   8.739  0.1401 -0.4923  0.5229
  240MOL0     H32391   5.636   4.816   8.604  1.0878 -1.3227  1.5670
  240MOL0     H32392   5.854   4.755   8.640  2.1665 -0.4302  0.6036
  240MOL0     H32393   5.916   4.924   8.633 -0.1281 -1.3751  3.3174
  240MOL0     H32394   5.975   4.812   8.447  0.5379  1.6443  2.4307
  240MOL0     H32395   5.844   4.920   8.385  1.2065  1.1291 -0.0295
  240MOL0     H32396   5.698   4.716   8.422  0.2706  3.1080 -0.1630
  240MOL0     H32397   5.846   4.621   8.450  1.0508  0.3637  0.0955
  240MOL0     H32398   5.746   4.659   8.043  0.4942 -1.3332 -0.0332
  240MOL0     H32399   5.520   5.188   8.433  0.6319  1.1794 -0.0555
  240MOL0     H32400   5.307   5.300   8.511 -2.0536 -3.8405 -3.4785
  241MOL0     O32401  11.351  10.365   4.771  0.0734  0.5611  0.4023
  241MOL0     C32402  11.268  10.278   4.770 -0.3934  0.1699 -0.2340
  241MOL0     O32403  11.211  10.232   4.657 -0.3942  0.6662 -0.2648
  241MOL0     C32404  11.251  10.287   4.533 -0.9425  0.4181 -0.3981
  241MOL0     C32405  11.341  10.215   4.460  0.5769  1.2483  0.0629
  241MOL0     C32406  11.373  10.255   4.332  0.6125  0.5347 -0.3913
  241MOL0     C32407  11.325  10.379   4.275 -0.8717  0.0597  0.0817
  241MOL0     O32408  11.373  10.435   4.165  0.4256  0.3626  0.3110
  241MOL0     C32409  11.520  10.433   4.160 -0.6734 -0.7576  0.7563
  241MOL0     C32410  11.573  10.515   4.032  0.2294 -0.5318 -0.2474
  241MOL0     C32411  11.532  10.667   4.042  0.6676 -0.1471 -1.5014
  241MOL0     C32412  11.462  10.727   3.922 -0.6768 -1.3516 -0.0706
  241MOL0     C32413  11.557  10.727   3.802 -0.3056 -0.0070  0.7705
  241MOL0     C32414  11.531  10.846   3.701 -0.0836 -0.0149 -0.5431
  241MOL0     C32415  11.657  10.859   3.605  0.4874  0.6642  0.1390
  241MOL0     C32416  11.683  10.992   3.535 -0.5280  0.2900  0.9755
  241MOL0     N32417  11.727  11.089   3.627 -0.5381 -1.0008 -0.7994
  241MOL0     C32418  11.852  11.106   3.680  1.2277  0.0447 -1.1489
  241MOL0     C32419  11.859  11.229   3.732 -0.5392 -0.2637  0.1495
  241MOL0     C32420  11.972  11.308   3.796 -0.3415  0.2616  0.2207
  241MOL0     C32421  11.924  11.381   3.919  0.2094  0.2780  0.1233
  241MOL0     C32422  12.060  11.423   3.990 -0.3312  0.4967 -0.1853
  241MOL0     C32423  12.050  11.484   4.131  0.9275  0.5985  0.4417
  241MOL0     O32424  11.957  11.405   4.223 -0.1273 -0.0053  0.4572
  241MOL0     C32425  11.992  11.291   4.296 -0.6917  0.6344 -0.6373
  241MOL0     C32426  11.891  11.242   4.377 -0.4896  0.7323 -0.9728
  241MOL0     C32427  11.911  11.124   4.458 -0.6364  0.5194  0.2152
  241MOL0     C32428  11.787  11.078   4.538 -0.7460 -0.4645 -0.2196
  241MOL0     C32429  12.033  11.052   4.455 -0.2770 -1.2540 -0.4849
  241MOL0     C32430  12.064  10.934   4.539 -0.6789 -0.4505  0.2365
  241MOL0     O32431  12.195  10.917   4.571  0.4601  0.7689  0.0344
  241MOL0     C32432  12.229  10.798   4.635 -1.3040  0.1250 -0.4252
  241MOL0     C32433  12.192  10.780   4.773 -0.5753  0.5122  0.5120
  241MOL0     C32434  12.232  10.668   4.845  0.0224  0.9198  0.7960
  241MOL0     C32435  12.296  10.564   4.766  0.7606 -0.3552  0.3863
  241MOL0     O32436  12.332  10.445   4.822  0.2099 -0.4957 -0.6204
  241MOL0     C32437  12.279  10.326   4.765 -0.3955  0.6984  1.3255
  241MOL0     C32438  12.400  10.241   4.721 -0.6459  0.2750  0.6959
  241MOL0     C32439  12.482  10.187   4.836  0.3984 -0.3631 -0.7674
  241MOL0     C32440  12.411  10.065   4.903 -0.4005  0.2696 -0.6462
  241MOL0     C32441  12.490  10.039   5.043  0.1208 -0.1667  0.3463
  241MOL0     C32442  12.417   9.942   5.135  0.1297 -0.1971 -0.4014
  241MOL0     C32443  12.512   9.917   5.259  0.0636 -0.4555 -0.8505
  241MOL0     C32444  12.434   9.917   5.393  0.3374  0.4231  0.8854
  241MOL0    Cl32445  12.518   9.805   5.498 -0.3415 -0.2200  0.6833
  241MOL0     C32446  12.333  10.587   4.634  0.2315  0.3837  0.1650
  241MOL0     C32447  12.294  10.697   4.565 -0.3524  0.7060 -0.8634
  241MOL0     O32448  11.975  10.853   4.567 -0.4315 -0.3277  0.0599
  241MOL0     C32449  12.144  11.109   4.380  0.4011  0.4584 -0.2175
  241MOL0     C32450  12.119  11.220   4.301 -0.5651 -0.9591 -0.9973
  241MOL0     N32451  11.736  11.287   3.708  0.8383  0.1747 -0.0394
  241MOL0     N32452  11.654  11.203   3.654  0.9176 -0.9387  0.1091
  241MOL0     C32453  11.231  10.450   4.349 -0.8754  0.9306  0.4109
  241MOL0     C32454  11.188  10.402   4.473 -0.7251  0.2297 -0.4075
  241MOL0     C32455  11.228  10.223   4.905  0.1670 -0.3782 -0.3398
  241MOL0     C32456  11.121  10.134   4.911  0.6531  0.6686 -0.9240
  241MOL0     C32457  11.099  10.064   5.026 -0.1751  0.6225  0.3553
  241MOL0     C32458  11.156  10.108   5.145 -0.2955 -0.0440 -0.2975
  241MOL0     O32459  11.129  10.065   5.277  0.1740 -0.4034  0.4664
  241MOL0     C32460  11.012   9.978   5.298 -1.2351  0.2063  0.0315
  241MOL0     C32461  11.045   9.833   5.260 -1.1515 -0.5168  0.7187
  241MOL0     C32462  11.123   9.768   5.370  0.0268 -0.1743  0.5518
  241MOL0     C32463  11.174   9.637   5.319 -0.6407 -0.5790 -0.4489
  241MOL0     C32464  11.246   9.570   5.441  1.4243 -0.1011 -0.0144
  241MOL0     C32465  11.301   9.511   5.534 -0.1423  0.3648 -0.0677
  241MOL0     C32466  11.261  10.197   5.146 -0.2069  0.4015  0.1803
  241MOL0     C32467  11.302  10.257   5.027  1.3249  0.2445  0.5978
  241MOL0     H32468  11.394  10.130   4.502 -2.9588 -1.3313 -0.2161
  241MOL0     H32469  11.445  10.206   4.267 -1.0379 -0.5651 -1.4652
  241MOL0     H32470  11.567  10.460   4.255 -0.9310 -3.0588  1.5966
  241MOL0     H32471  11.564  10.333   4.157 -0.6374 -0.7314 -1.2004
  241MOL0     H32472  11.681  10.500   4.026  0.6416  2.0023  0.1013
  241MOL0     H32473  11.524  10.470   3.945  1.2039 -0.4481 -0.8476
  241MOL0     H32474  11.458  10.678   4.122 -2.4504 -3.8142 -3.4971
  241MOL0     H32475  11.622  10.716   4.080  0.4606  0.3336 -1.6124
  241MOL0     H32476  11.370  10.672   3.901 -1.2970 -0.5001  0.3861
  241MOL0     H32477  11.433  10.830   3.943  2.0311 -0.0735 -1.9318
  241MOL0     H32478  11.658  10.732   3.842 -1.5262  0.0695  4.1201
  241MOL0     H32479  11.551  10.630   3.752  1.8425 -0.9769  2.2745
  241MOL0     H32480  11.439  10.834   3.644 -0.1190  2.3681 -1.0782
  241MOL0     H32481  11.526  10.941   3.756  0.9702  1.0759 -2.2274
  241MOL0     H32482  11.750  10.853   3.662  0.8195 -0.5628 -0.4999
  241MOL0     H32483  11.647  10.773   3.538  0.8995 -0.5394  1.5410
  241MOL0     H32484  11.592  11.016   3.477 -0.5270  0.9882  1.2585
  241MOL0     H32485  11.756  10.983   3.454 -0.5639  0.7682  0.8848
  241MOL0     H32486  11.935  11.037   3.679  2.0231  0.9750 -2.8386
  241MOL0     H32487  12.054  11.242   3.826  0.6467  1.0680 -0.6230
  241MOL0     H32488  12.023  11.370   3.722  1.9164 -3.1041 -1.3328
  241MOL0     H32489  11.858  11.319   3.981 -0.2630  0.1993 -0.4541
  241MOL0     H32490  11.866  11.467   3.886  0.3613 -0.3184 -1.7950
  241MOL0     H32491  12.101  11.498   3.922  1.3487 -2.1626 -2.3102
  241MOL0     H32492  12.126  11.336   3.995 -0.4325  0.2591 -2.4358
  241MOL0     H32493  12.010  11.586   4.128 -0.0316  0.2196 -0.0298
  241MOL0     H32494  12.144  11.485   4.188  0.0718 -3.0922  2.2118
  241MOL0     H32495  11.797  11.298   4.380  0.8873  3.1838  0.4347
  241MOL0     H32496  11.763  10.973   4.518 -0.5653 -0.0317 -3.2845
  241MOL0     H32497  11.789  11.102   4.644 -0.8961 -1.5638  0.0497
  241MOL0     H32498  11.694  11.129   4.512 -0.9385  1.3977  3.4907
  241MOL0     H32499  12.137  10.863   4.817 -2.2990  0.3884 -1.2572
  241MOL0     H32500  12.205  10.667   4.950  1.3305  1.6685  1.1661
  241MOL0     H32501  12.213  10.269   4.831 -0.6651 -3.7660 -2.3190
  241MOL0     H32502  12.214  10.346   4.679  2.4024 -0.6609 -1.2961
  241MOL0     H32503  12.367  10.148   4.673 -1.6157  0.5180  0.8816
  241MOL0     H32504  12.457  10.312   4.660  0.2590  0.9590  2.2771
  241MOL0     H32505  12.491  10.267   4.910  4.2294 -3.5107  2.6587
  241MOL0     H32506  12.581  10.154   4.805  0.4168  0.9036 -2.1343
  241MOL0     H32507  12.306  10.096   4.909 -0.6990 -0.3583 -2.1681
  241MOL0     H32508  12.415   9.976   4.840  1.7477  1.1884 -1.9162
  241MOL0     H32509  12.500  10.137   5.090 -2.4829  1.9342 -3.0013
  241MOL0     H32510  12.589   9.996   5.028  0.3179 -0.6704  2.6983
  241MOL0     H32511  12.324   9.984   5.176  0.3698 -1.4099  1.5190
  241MOL0     H32512  12.390   9.850   5.082 -0.2737  0.1955 -0.8980
  241MOL0     H32513  12.585   9.996   5.280  0.1440 -1.0600  1.4351
  241MOL0     H32514  12.567   9.824   5.243 -0.3870 -0.2567 -4.3271
  241MOL0     H32515  12.330   9.883   5.385  0.4238 -1.1200  4.4613
  241MOL0     H32516  12.429  10.014   5.444 -0.8888  1.2572 -0.7197
  241MOL0     H32517  12.382  10.504   4.584 -1.1176 -1.4658  1.7614
  241MOL0     H32518  12.318  10.690   4.459  0.6560 -1.4639 -0.5338
  241MOL0     H32519  12.242  11.069   4.403 -0.0654  0.3246  1.7376
  241MOL0     H32520  12.201  11.278   4.259  0.7202 -1.3792  0.8175
  241MOL0     H32521  11.189  10.541   4.306 -2.5545 -0.6168 -1.3718
  241MOL0     H32522  11.103  10.446   4.525 -2.3513 -0.3838 -2.3720
  241MOL0     H32523  11.073  10.110   4.817  0.4894 -2.2967 -0.1957
  241MOL0     H32524  11.017   9.993   5.030 -1.8091  2.3912 -0.3372
  241MOL0     H32525  10.974   9.983   5.401  0.7276  1.2585  0.7659
  241MOL0     H32526  10.930  10.014   5.235 -1.0561 -2.4552 -1.8633
  241MOL0     H32527  11.109   9.825   5.171  1.4819  1.6714  2.2724
  241MOL0     H32528  10.952   9.786   5.226 -0.8447 -0.4854 -0.1881
  241MOL0     H32529  11.053   9.751   5.453  0.5490 -2.3802  0.5984
  241MOL0     H32530  11.206   9.830   5.405  0.8482 -2.3146  2.7650
  241MOL0     H32531  11.249   9.654   5.241 -0.8997 -1.3846 -0.8881
  241MOL0     H32532  11.092   9.575   5.281 -0.9339  0.1170 -0.9826
  241MOL0     H32533  11.349   9.473   5.622 -0.8246 -0.8272 -0.1930
  241MOL0     H32534  11.330  10.212   5.227  0.9072  0.6677 -0.7952
  241MOL0     H32535  11.386  10.323   5.009  1.4430  0.0408  0.3940
  242MOL0     O32536   6.063   4.779   5.918 -0.2704  0.3517 -0.4095
  242MOL0     C32537   6.165   4.822   5.859 -0.1125  0.0899  0.6226
  242MOL0     O32538   6.209   4.774   5.736  0.3174  0.4894 -0.4320
  242MOL0     C32539   6.113   4.692   5.678 -0.0199  0.8382  0.0971
  242MOL0     C32540   6.084   4.560   5.711  1.0738 -0.3255  0.6326
  242MOL0     C32541   5.977   4.493   5.657  0.1639 -0.4278 -0.1220
  242MOL0     C32542   5.901   4.541   5.557 -0.4172 -0.9127 -1.2710
  242MOL0     O32543   5.792   4.494   5.487 -0.4013 -1.0054 -0.0023
  242MOL0     C32544   5.734   4.373   5.530 -0.0243  0.2805 -0.0629
  242MOL0     C32545   5.603   4.341   5.467  0.0383  0.1299 -0.8857
  242MOL0     C32546   5.629   4.297   5.321 -0.7125 -0.0309 -0.1851
  242MOL0     C32547   5.510   4.204   5.282  0.7066  0.2355  0.3809
  242MOL0     C32548   5.491   4.195   5.124  1.3193  0.9522  0.5307
  242MOL0     C32549   5.389   4.103   5.065 -0.8358  0.8784 -0.3480
  242MOL0     C32550   5.247   4.132   5.097  0.2072  0.4528 -0.2452
  242MOL0     C32551   5.143   4.029   5.046  0.1279 -1.1222 -0.7741
  242MOL0     N32552   5.166   3.994   4.898  0.9508  0.5074 -0.3957
  242MOL0     C32553   5.223   3.874   4.856 -0.8121  0.6440  0.5971
  242MOL0     C32554   5.236   3.888   4.722 -1.4358  0.7797  0.3204
  242MOL0     C32555   5.314   3.788   4.643  0.1021 -0.4746 -0.2842
  242MOL0     C32556   5.467   3.805   4.640 -0.8356 -0.3228 -0.3688
  242MOL0     C32557   5.528   3.863   4.766 -0.5778  0.4113  0.4150
  242MOL0     C32558   5.679   3.864   4.747 -0.4230 -0.8451 -0.1942
  242MOL0     O32559   5.734   3.731   4.769 -0.6416 -0.2124  0.0248
  242MOL0     C32560   5.862   3.706   4.738  0.0271  0.0437  0.6359
  242MOL0     C32561   5.957   3.807   4.689 -0.0512  0.4775  0.0478
  242MOL0     C32562   6.083   3.771   4.631 -0.2460  0.8577 -0.3883
  242MOL0     C32563   6.169   3.889   4.596 -0.4700 -0.3548  0.2201
  242MOL0     C32564   6.114   3.633   4.630 -0.1930 -0.3695  0.7535
  242MOL0     C32565   6.244   3.583   4.578  0.0937  0.1388 -1.2254
  242MOL0     O32566   6.283   3.449   4.609  0.0571 -1.0566 -0.2456
  242MOL0     C32567   6.397   3.437   4.684 -0.0814 -0.1550 -0.7330
  242MOL0     C32568   6.457   3.311   4.681  0.2233  0.1442 -0.3207
  242MOL0     C32569   6.566   3.274   4.754 -1.1697  0.0627 -0.2653
  242MOL0     C32570   6.627   3.375   4.837  0.9550 -0.3775 -0.1317
  242MOL0     O32571   6.734   3.334   4.915 -0.4055 -0.0316  0.1400
  242MOL0     C32572   6.835   3.427   4.954 -0.1361  0.9644  0.4634
  242MOL0     C32573   6.965   3.359   4.947 -0.0755  0.3815  0.6664
  242MOL0     C32574   7.067   3.461   5.002  0.2637 -0.4167  1.0245
  242MOL0     C32575   7.205   3.401   5.012  0.1982  0.2005  0.4754
  242MOL0     C32576   7.315   3.487   5.070  0.6291 -0.7552  0.3660
  242MOL0     C32577   7.447   3.416   5.097 -0.0615  0.2752  0.2319
  242MOL0     C32578   7.570   3.487   5.162 -0.0296  0.2708 -0.6444
  242MOL0     C32579   7.630   3.593   5.071  0.4047 -0.4486 -0.9116
  242MOL0    Cl32580   7.771   3.654   5.155 -0.3458 -0.3612  0.0101
  242MOL0     C32581   6.582   3.508   4.825 -0.2378  0.5827 -0.9353
  242MOL0     C32582   6.464   3.533   4.762  0.9996 -0.2868 -0.3651
  242MOL0     O32583   6.313   3.659   4.511 -0.2179  0.3834  0.0501
  242MOL0     C32584   6.029   3.544   4.687  0.4193  0.6272  0.2958
  242MOL0     C32585   5.903   3.567   4.736 -0.0759 -0.7005 -0.6090
  242MOL0     N32586   5.211   4.018   4.690  0.7308 -1.0376  0.3495
  242MOL0     N32587   5.169   4.076   4.795  0.5725 -0.9523  0.0160
  242MOL0     C32588   5.930   4.675   5.521 -0.2406  0.5658  0.1412
  242MOL0     C32589   6.024   4.751   5.594  0.3271 -0.2725 -0.2224
  242MOL0     C32590   6.248   4.926   5.924  0.2398  0.1014 -0.0023
  242MOL0     C32591   6.228   4.965   6.057 -0.0700 -0.1281 -0.1872
  242MOL0     C32592   6.317   5.058   6.114 -0.0042 -0.6376 -0.6623
  242MOL0     C32593   6.415   5.121   6.047  0.6038  0.6880  0.5080
  242MOL0     O32594   6.490   5.205   6.120 -0.5075  0.2620 -0.0227
  242MOL0     C32595   6.511   5.333   6.056  0.1393  0.1109  0.9267
  242MOL0     C32596   6.612   5.419   6.141 -0.6263  0.0657  0.8039
  242MOL0     C32597   6.653   5.549   6.070  0.5726  0.5079  0.5229
  242MOL0     C32598   6.699   5.538   5.922 -0.3071  0.4050  1.1069
  242MOL0     C32599   6.585   5.548   5.834  0.6984  0.4107  0.5664
  242MOL0     C32600   6.489   5.557   5.761 -0.9507  0.5283  0.1172
  242MOL0     C32601   6.437   5.083   5.914  0.5391 -0.6731  1.0476
  242MOL0     C32602   6.350   4.989   5.850 -0.3907 -0.4053  0.8016
  242MOL0     H32603   6.144   4.513   5.788  2.4442 -1.4370 -1.0214
  242MOL0     H32604   5.970   4.390   5.691 -1.6130 -0.6089 -0.9317
  242MOL0     H32605   5.798   4.291   5.494 -0.6293 -0.5876  0.7773
  242MOL0     H32606   5.733   4.352   5.637  0.6291 -0.7610 -0.2430
  242MOL0     H32607   5.546   4.272   5.530  1.2979  1.3701  1.8139
  242MOL0     H32608   5.545   4.433   5.452  2.3433  1.7576 -0.4165
  242MOL0     H32609   5.643   4.381   5.253  1.7394 -2.3571 -2.8560
  242MOL0     H32610   5.713   4.226   5.320  0.1170  0.7361  3.1673
  242MOL0     H32611   5.542   4.106   5.319  4.0350  0.6409 -1.0402
  242MOL0     H32612   5.417   4.231   5.335 -1.4210  0.1538 -3.0092
  242MOL0     H32613   5.485   4.297   5.085 -1.8135  2.1469  3.6327
  242MOL0     H32614   5.584   4.156   5.081  1.5707  0.9728  1.0484
  242MOL0     H32615   5.403   4.111   4.957  1.4825 -1.2787 -0.3077
  242MOL0     H32616   5.430   4.011   5.108 -2.8046 -0.1867 -0.6581
  242MOL0     H32617   5.233   4.152   5.203 -0.7243  0.5198 -0.3661
  242MOL0     H32618   5.205   4.221   5.049 -3.5719 -1.2100 -0.3734
  242MOL0     H32619   5.047   4.082   5.059  1.0570  0.4558  0.0102
  242MOL0     H32620   5.149   3.950   5.121  0.3770 -0.4081 -0.0280
  242MOL0     H32621   5.249   3.786   4.914  1.0068 -0.8950 -2.3339
  242MOL0     H32622   5.291   3.686   4.675 -0.2261 -1.1951 -2.5779
  242MOL0     H32623   5.286   3.790   4.537 -1.0602  1.4897  0.0201
  242MOL0     H32624   5.495   3.870   4.557  1.7098 -0.9486 -0.1058
  242MOL0     H32625   5.508   3.706   4.618 -1.2877 -1.7194  4.0453
  242MOL0     H32626   5.496   3.805   4.853 -3.3932 -0.0884 -0.8435
  242MOL0     H32627   5.499   3.967   4.786 -3.2857 -0.2387  0.2166
  242MOL0     H32628   5.718   3.938   4.818  1.1376 -2.0439  0.2536
  242MOL0     H32629   5.694   3.901   4.646 -1.3427  2.2095  0.6965
  242MOL0     H32630   5.919   3.905   4.664 -1.3035 -0.5254 -2.2897
  242MOL0     H32631   6.160   3.915   4.491 -1.2436  0.4247  0.4658
  242MOL0     H32632   6.123   3.980   4.636 -1.7156  0.8164 -3.4768
  242MOL0     H32633   6.273   3.883   4.630 -0.1856  0.6143 -0.4268
  242MOL0     H32634   6.407   3.233   4.625 -0.2455 -1.5701  2.3089
  242MOL0     H32635   6.614   3.177   4.746 -2.1733 -0.6016  1.3627
  242MOL0     H32636   6.827   3.514   4.888  1.5469  0.1918 -0.8378
  242MOL0     H32637   6.826   3.455   5.059 -2.2752 -0.8508  0.8389
  242MOL0     H32638   6.959   3.270   5.012  3.3401 -0.0595  0.6035
  242MOL0     H32639   6.985   3.334   4.843  0.4188 -0.4601  0.9492
  242MOL0     H32640   7.035   3.502   5.098  1.7149 -0.1131  1.4046
  242MOL0     H32641   7.054   3.545   4.932 -2.9742  0.5116  2.5253
  242MOL0     H32642   7.198   3.304   5.063 -1.3024 -0.2325 -0.4749
  242MOL0     H32643   7.241   3.383   4.910  0.6225  2.1626  0.2376
  242MOL0     H32644   7.281   3.536   5.162 -1.7918  0.0651 -0.8751
  242MOL0     H32645   7.336   3.571   5.003  0.7866 -2.1877 -1.4437
  242MOL0     H32646   7.415   3.328   5.155 -1.7027  1.7679  1.6908
  242MOL0     H32647   7.487   3.373   5.005 -1.6017 -2.7096  0.8223
  242MOL0     H32648   7.648   3.411   5.175  0.5900  0.5509 -2.4200
  242MOL0     H32649   7.547   3.535   5.258  0.4965  0.8583 -0.8071
  242MOL0     H32650   7.563   3.679   5.080  0.3929 -0.6081  1.0302
  242MOL0     H32651   7.662   3.572   4.968  1.5813  0.0992 -0.6756
  242MOL0     H32652   6.625   3.587   4.887 -1.2890  1.4749 -1.3027
  242MOL0     H32653   6.410   3.627   4.761 -0.8096 -1.2139  1.7576
  242MOL0     H32654   6.049   3.438   4.678  0.8190  0.8435 -1.9867
  242MOL0     H32655   5.831   3.494   4.771  0.1144 -0.8220 -0.4708
  242MOL0     H32656   5.872   4.731   5.449  0.2935  2.1476  0.8892
  242MOL0     H32657   6.049   4.852   5.563 -0.1834  0.4089  1.4299
  242MOL0     H32658   6.147   4.919   6.112 -0.0702  0.8029  0.6189
  242MOL0     H32659   6.298   5.083   6.218  0.0167 -2.9004 -0.0508
  242MOL0     H32660   6.554   5.315   5.958  2.7173  1.6317  1.6950
  242MOL0     H32661   6.414   5.384   6.053  1.0720  2.0879  2.2549
  242MOL0     H32662   6.700   5.360   6.167 -0.0852  1.0158  1.2016
  242MOL0     H32663   6.562   5.448   6.234  0.1950  0.0358  1.2717
  242MOL0     H32664   6.729   5.601   6.129 -0.3544 -2.7223  5.0842
  242MOL0     H32665   6.563   5.612   6.072 -0.5296 -1.0146  3.3872
  242MOL0     H32666   6.746   5.443   5.895 -4.7564 -1.0787 -2.8400
  242MOL0     H32667   6.768   5.621   5.908  0.8181 -0.3913  1.7287
  242MOL0     H32668   6.395   5.560   5.710  0.3840  1.1347 -2.4522
  242MOL0     H32669   6.525   5.117   5.859  0.3106  0.5881  1.4254
  242MOL0     H32670   6.357   4.965   5.744  0.5153  2.1946  0.1876
  243MOL0     O32671  11.460   3.530   0.125 -0.2175  0.7494 -0.1578
  243MOL0     C32672  11.488   3.463   0.224 -0.2983  0.2125 -0.1820
  243MOL0     O32673  11.556   3.516   0.341 -0.7128  0.3772  0.1292
  243MOL0     C32674  11.615   3.639   0.338 -0.3078 -0.4184  0.8244
  243MOL0     C32675  11.596   3.755   0.257 -0.4193 -0.2240 -0.1538
  243MOL0     C32676  11.669   3.876   0.287  0.0322 -0.9354  1.5321
  243MOL0     C32677  11.784   3.875   0.370 -0.2394  1.0485  0.6849
  243MOL0     O32678  11.857   3.991   0.385  0.5708  0.0818  0.4987
  243MOL0     C32679  11.998   3.976   0.350  0.7744 -0.3120  0.9925
  243MOL0     C32680  12.055   4.113   0.320 -0.5752 -0.4155 -0.4101
  243MOL0     C32681  11.953   4.231   0.313 -0.2147  0.0941 -0.2022
  243MOL0     C32682  12.026   4.360   0.337  0.0939  0.6630 -0.3140
  243MOL0     C32683  11.938   4.480   0.308 -0.1800 -0.0227  0.6812
  243MOL0     C32684  11.987   4.621   0.371  0.8140  0.4454  0.6868
  243MOL0     C32685  12.127   4.657   0.327  0.0855  0.6228 -0.5933
  243MOL0     C32686  12.155   4.803   0.372  0.0626 -0.1306  0.2770
  243MOL0     N32687  12.289   4.853   0.339  0.9877 -0.9150 -0.2441
  243MOL0     C32688  12.403   4.798   0.370  1.0723  0.9899 -0.4063
  243MOL0     C32689  12.502   4.866   0.308 -0.4190 -0.5067  0.3975
  243MOL0     C32690  12.651   4.845   0.311  0.4686  0.7673 -1.2509
  243MOL0     C32691  12.736   4.957   0.367  0.2584 -0.7018 -0.6973
  243MOL0     C32692  12.875   4.913   0.419  0.5213  0.1287 -0.3385
  243MOL0     C32693  12.970   4.866   0.316 -0.4278 -0.0658  0.6809
  243MOL0     O32694  13.035   4.975   0.248  0.6071 -0.2564  0.9174
  243MOL0     C32695  13.068   4.964   0.114 -0.5890  0.1074  0.3104
  243MOL0     C32696  13.123   5.073   0.050 -0.3284  0.3690 -0.0848
  243MOL0     C32697  13.146   5.082  -0.089 -0.5545 -0.0516  0.7830
  243MOL0     C32698  13.215   5.211  -0.139  0.0038  0.1679 -0.4839
  243MOL0     C32699  13.123   4.964  -0.169  0.7469 -0.3816 -0.3380
  243MOL0     C32700  13.154   4.952  -0.317 -0.4169 -0.5014 -0.0214
  243MOL0     O32701  13.218   5.052  -0.379  0.2708  0.0593 -0.1201
  243MOL0     C32702  13.274   5.038  -0.501  1.2244 -0.9522  0.3085
  243MOL0     C32703  13.407   5.059  -0.511 -0.1922  0.1898  0.5154
  243MOL0     C32704  13.471   5.034  -0.639  0.2384 -0.4530 -0.1655
  243MOL0     C32705  13.405   5.009  -0.752 -0.0165 -0.3708  0.2857
  243MOL0     O32706  13.461   5.016  -0.879  0.2677  0.5494 -0.9571
  243MOL0     C32707  13.599   4.995  -0.888  0.4932  0.9493  0.4246
  243MOL0     C32708  13.633   4.963  -1.036 -0.0491  0.3377 -0.2437
  243MOL0     C32709  13.688   4.810  -1.062  0.6327  0.1803  0.1360
  243MOL0     C32710  13.569   4.704  -1.034 -1.4918 -0.0463  0.4365
  243MOL0     C32711  13.637   4.567  -1.000  0.0704  0.4737 -0.1154
  243MOL0     C32712  13.736   4.521  -1.110 -0.8813  0.7180  0.4706
  243MOL0     C32713  13.803   4.382  -1.068 -0.5824 -0.5234  0.0657
  243MOL0     C32714  13.932   4.411  -0.989  0.5126  0.4124  1.3929
  243MOL0    Cl32715  14.062   4.466  -1.092 -0.1412  0.0310  0.4465
  243MOL0     C32716  13.271   4.999  -0.734  0.2098  0.8462 -0.2939
  243MOL0     C32717  13.199   5.002  -0.612 -0.3671 -0.1796 -0.4935
  243MOL0     O32718  13.123   4.849  -0.373 -0.0182  0.6570 -0.2701
  243MOL0     C32719  13.075   4.851  -0.105  0.0083  1.0392  0.5974
  243MOL0     C32720  13.046   4.844   0.037 -0.8167 -0.6148 -0.1498
  243MOL0     N32721  12.443   4.973   0.247 -0.3302 -0.1289 -0.6407
  243MOL0     N32722  12.313   4.966   0.263  0.1202  0.1206  1.0957
  243MOL0     C32723  11.806   3.753   0.436  0.1727 -0.3883 -0.2620
  243MOL0     C32724  11.713   3.648   0.437  0.0998 -0.3293  0.2108
  243MOL0     C32725  11.412   3.332   0.229  0.0725 -0.3406  0.9074
  243MOL0     C32726  11.326   3.302   0.122  0.0155  0.4902 -0.0589
  243MOL0     C32727  11.250   3.181   0.121 -0.4895  0.2182  0.2908
  243MOL0     C32728  11.264   3.091   0.222 -0.2282  1.0224 -0.5532
  243MOL0     O32729  11.173   2.983   0.209  0.3841 -0.0201  0.0058
  243MOL0     C32730  11.178   2.867   0.298  0.3793 -0.3376 -0.2058
  243MOL0     C32731  11.279   2.767   0.243 -0.0736 -0.5387 -0.2301
  243MOL0     C32732  11.263   2.627   0.308  1.0689 -0.6458 -0.2497
  243MOL0     C32733  11.247   2.620   0.460  0.4786  0.3815  0.3713
  243MOL0     C32734  11.351   2.693   0.536  0.6062 -0.2290  0.5543
  243MOL0     C32735  11.437   2.750   0.595 -0.9621 -0.6926 -0.3615
  243MOL0     C32736  11.346   3.121   0.331 -0.2209  0.2758 -0.7300
  243MOL0     C32737  11.425   3.231   0.331 -0.5631 -0.2859  0.3186
  243MOL0     H32738  11.516   3.761   0.183 -1.7494 -1.0488  1.1401
  243MOL0     H32739  11.647   3.963   0.227  0.8605 -1.0497  1.0383
  243MOL0     H32740  12.051   3.945   0.440 -0.1225 -1.8913  1.0089
  243MOL0     H32741  12.005   3.899   0.272 -5.5982  0.8672 -1.3808
  243MOL0     H32742  12.144   4.137   0.379  1.8197  1.5442 -4.3693
  243MOL0     H32743  12.107   4.113   0.224  2.1667  1.6176  0.9259
  243MOL0     H32744  11.914   4.226   0.211 -0.9883 -4.0673  0.1365
  243MOL0     H32745  11.866   4.228   0.380 -1.6949  2.0570 -1.9056
  243MOL0     H32746  12.056   4.358   0.443 -4.8735  0.0401  1.3584
  243MOL0     H32747  12.108   4.363   0.265 -1.6558 -1.4965 -2.5734
  243MOL0     H32748  11.921   4.481   0.200 -1.8883  3.0861  0.8747
  243MOL0     H32749  11.839   4.471   0.352 -0.1627  0.0380  0.7339
  243MOL0     H32750  11.921   4.702   0.336  2.0642  1.2817  0.1994
  243MOL0     H32751  11.986   4.622   0.480 -0.3692  2.2961  0.7019
  243MOL0     H32752  12.194   4.586   0.376 -2.3085 -0.4722  1.2779
  243MOL0     H32753  12.133   4.662   0.218 -2.1358  0.6027 -0.7546
  243MOL0     H32754  12.131   4.813   0.478  1.6794 -3.5898  1.1069
  243MOL0     H32755  12.087   4.865   0.312  0.8266  1.3329  0.8628
  243MOL0     H32756  12.420   4.701   0.416  2.1983  1.3161 -0.0923
  243MOL0     H32757  12.668   4.766   0.385  0.1729  0.3410 -1.6399
  243MOL0     H32758  12.686   4.836   0.208  3.5938  1.7478 -0.3920
  243MOL0     H32759  12.694   4.999   0.459 -2.1066 -1.0253 -1.5714
  243MOL0     H32760  12.758   5.027   0.286 -1.0491 -2.5539 -2.7275
  243MOL0     H32761  12.857   4.833   0.491  1.0192 -1.1894 -1.6244
  243MOL0     H32762  12.923   4.997   0.469  2.2625  1.4059 -3.8020
  243MOL0     H32763  12.918   4.805   0.242 -0.1093  0.5913 -0.1014
  243MOL0     H32764  13.048   4.805   0.364 -2.0519 -0.3372  3.1683
  243MOL0     H32765  13.137   5.160   0.114 -0.6161  1.4262 -1.4087
  243MOL0     H32766  13.309   5.190  -0.191 -0.3586  2.9846 -2.5221
  243MOL0     H32767  13.150   5.246  -0.220 -2.0765  0.6762  1.3108
  243MOL0     H32768  13.225   5.294  -0.069 -0.5135 -1.2970  1.4103
  243MOL0     H32769  13.457   5.079  -0.417 -2.5549 -1.0354  2.0948
  243MOL0     H32770  13.578   5.050  -0.635  0.1831 -0.2260  0.6148
  243MOL0     H32771  13.650   5.091  -0.871  1.6992  1.0078 -2.9372
  243MOL0     H32772  13.623   4.914  -0.819  0.6520  0.0937 -0.6112
  243MOL0     H32773  13.542   4.985  -1.092 -0.0407 -0.2589 -0.4993
  243MOL0     H32774  13.715   5.032  -1.059  0.6213  0.0468  1.1402
  243MOL0     H32775  13.762   4.786  -0.985  0.2739 -2.2706 -0.2049
  243MOL0     H32776  13.723   4.808  -1.165  0.6508 -2.3162  0.1244
  243MOL0     H32777  13.503   4.736  -0.952 -2.2534  0.8295 -0.4945
  243MOL0     H32778  13.509   4.686  -1.123  2.5387 -0.1789 -2.5431
  243MOL0     H32779  13.548   4.504  -0.990  0.3515  0.2032  0.7399
  243MOL0     H32780  13.692   4.567  -0.905  2.6648 -0.7976 -1.5053
  243MOL0     H32781  13.689   4.501  -1.207  0.4834 -2.3113  0.2937
  243MOL0     H32782  13.822   4.587  -1.125 -0.2278 -0.5596 -1.9841
  243MOL0     H32783  13.808   4.307  -1.148  1.5455 -1.1452  0.7154
  243MOL0     H32784  13.742   4.327  -0.996  0.7262  0.7496  2.2609
  243MOL0     H32785  13.944   4.318  -0.933 -3.5829  0.0044  1.8922
  243MOL0     H32786  13.922   4.484  -0.908  3.7085 -0.3527  2.6518
  243MOL0     H32787  13.208   4.988  -0.821 -0.7485  4.0519 -0.1032
  243MOL0     H32788  13.091   4.997  -0.610 -0.4710 -2.0555 -3.5696
  243MOL0     H32789  13.051   4.761  -0.161 -1.7095  1.7286  0.1464
  243MOL0     H32790  13.014   4.752   0.085 -2.1418  0.0963  0.3971
  243MOL0     H32791  11.880   3.752   0.515 -1.4774  1.3005  1.4090
  243MOL0     H32792  11.733   3.571   0.511 -1.6307 -0.0964  0.9632
  243MOL0     H32793  11.301   3.367   0.038 -3.0824  0.0708  0.4112
  243MOL0     H32794  11.178   3.165   0.041 -0.8625 -0.7871  0.8061
  243MOL0     H32795  11.208   2.879   0.402  1.6118  0.2150 -0.5947
  243MOL0     H32796  11.077   2.826   0.301  0.8982 -1.6292  2.5494
  243MOL0     H32797  11.378   2.808   0.267 -1.3163  1.9297  1.0865
  243MOL0     H32798  11.257   2.755   0.136 -0.1874  0.8313 -0.3766
  243MOL0     H32799  11.339   2.562   0.264  0.4737 -0.8880 -0.9352
  243MOL0     H32800  11.172   2.585   0.264  1.8663 -3.0046  0.2176
  243MOL0     H32801  11.230   2.515   0.489 -1.4567  0.3349 -0.7914
  243MOL0     H32802  11.147   2.657   0.486 -0.8044 -2.3956 -0.2052
  243MOL0     H32803  11.503   2.811   0.654 -1.8471  2.1557 -2.0686
  243MOL0     H32804  11.354   3.036   0.398 -2.3826  1.5972  1.3319
  243MOL0     H32805  11.481   3.246   0.423 -2.6216 -0.2921  1.6334
  244MOL0     O32806   3.841   3.300  10.887  0.2525  0.2261 -0.0119
  244MOL0     C32807   3.873   3.414  10.919 -0.5283 -0.1510 -0.1427
  244MOL0     O32808   3.941   3.448  11.033  0.4488 -0.2463  0.5174
  244MOL0     C32809   3.955   3.353  11.133 -0.8805 -0.9499  0.4405
  244MOL0     C32810   4.074   3.355  11.206 -0.3674 -0.2836  0.9918
  244MOL0     C32811   4.092   3.281  11.320 -0.1522  0.7178 -0.2151
  244MOL0     C32812   3.995   3.186  11.352  0.2030 -0.5687  0.0834
  244MOL0     O32813   4.035   3.096  11.443  0.2982  0.2328  0.4069
  244MOL0     C32814   3.963   3.083  11.558 -0.3627  0.2034 -0.3957
  244MOL0     C32815   4.040   3.151  11.674 -0.0555 -0.6557 -1.3364
  244MOL0     C32816   3.967   3.114  11.804  0.7348  0.7815  0.0863
  244MOL0     C32817   3.852   3.204  11.849 -0.2921  0.0662  0.1177
  244MOL0     C32818   3.812   3.151  11.985  0.7737 -0.6902 -0.8413
  244MOL0     C32819   3.680   3.231  12.012  0.0795  0.0695  0.3804
  244MOL0     C32820   3.645   3.228  12.155  0.0273  0.1126 -1.3206
  244MOL0     C32821   3.682   3.370  12.222 -0.1925  0.2823  1.0784
  244MOL0     N32822   3.817   3.357  12.280  1.0332 -0.4216  0.6126
  244MOL0     C32823   3.838   3.316  12.410 -0.0119  0.0283  0.0869
  244MOL0     C32824   3.969   3.345  12.419 -0.5938  0.4750 -0.1914
  244MOL0     C32825   4.047   3.305  12.541 -0.2362 -0.0479  0.8157
  244MOL0     C32826   4.188   3.267  12.525 -0.4920  0.5381  1.4422
  244MOL0     C32827   4.235   3.150  12.621 -0.4550 -0.2767  0.1818
  244MOL0     C32828   4.384   3.127  12.627  0.0594  0.9119  0.0226
  244MOL0     O32829   4.443   3.102  12.503  0.2286  0.4113 -0.2356
  244MOL0     C32830   4.536   3.000  12.485 -0.1378  0.7538 -0.1072
  244MOL0     C32831   4.591   2.908  12.584 -0.0615  0.7176 -0.5388
  244MOL0     C32832   4.656   2.799  12.534  0.8138  0.4835  0.0283
  244MOL0     C32833   4.691   2.706  12.647 -0.8520  0.3940 -0.0520
  244MOL0     C32834   4.692   2.778  12.400  1.0607 -1.2799  0.4769
  244MOL0     C32835   4.777   2.661  12.354 -0.4908  0.3568  0.0162
  244MOL0     O32836   4.773   2.623  12.225  0.1674 -0.8161  0.1911
  244MOL0     C32837   4.818   2.493  12.193 -0.4835 -0.3171 -0.5190
  244MOL0     C32838   4.903   2.479  12.083 -0.5192  0.8943 -0.1752
  244MOL0     C32839   4.948   2.354  12.040  0.1820  0.1221  0.5463
  244MOL0     C32840   4.936   2.239  12.125  0.2583 -0.3004  0.6335
  244MOL0     O32841   4.999   2.125  12.077 -0.0978  0.0605  0.4338
  244MOL0     C32842   4.908   2.012  12.064  0.0621 -0.8893 -0.6705
  244MOL0     C32843   4.998   1.897  12.037  0.6816 -0.9330  0.2752
  244MOL0     C32844   4.928   1.756  12.020  0.0459  0.7474  0.1062
  244MOL0     C32845   4.824   1.771  11.905  0.4087  0.1213  0.2969
  244MOL0     C32846   4.818   1.626  11.851  0.1315  0.0285 -0.3603
  244MOL0     C32847   4.710   1.600  11.743  0.0367  0.2023  0.3500
  244MOL0     C32848   4.722   1.468  11.669 -0.5502 -0.6786  0.2973
  244MOL0     C32849   4.843   1.452  11.587  0.1040 -0.0545 -0.7204
  244MOL0    Cl32850   4.848   1.578  11.464  0.5780 -0.2468 -0.2876
  244MOL0     C32851   4.858   2.248  12.241  1.0697  0.7093 -0.2029
  244MOL0     C32852   4.790   2.369  12.261  0.9591 -0.1983 -0.5350
  244MOL0     O32853   4.870   2.616  12.431  0.5823 -0.1685 -1.0790
  244MOL0     C32854   4.625   2.864  12.308 -0.8518 -0.0897  0.2842
  244MOL0     C32855   4.555   2.975  12.352  0.3337  0.8499  0.0228
  244MOL0     N32856   4.028   3.384  12.295 -0.1395 -0.4148 -0.1685
  244MOL0     N32857   3.928   3.392  12.218 -0.6415  0.2468  0.4219
  244MOL0     C32858   3.872   3.181  11.290 -0.0586  0.0206 -0.6424
  244MOL0     C32859   3.855   3.275  11.181  0.2777 -0.1332 -0.7639
  244MOL0     C32860   3.820   3.511  10.831  0.9486 -0.1105 -0.3806
  244MOL0     C32861   3.796   3.485  10.691  0.6164 -0.7146 -0.1524
  244MOL0     C32862   3.755   3.588  10.602  0.2639  0.4227 -0.1772
  244MOL0     C32863   3.712   3.713  10.653 -0.0896  0.4510  0.0401
  244MOL0     O32864   3.652   3.781  10.557 -0.5073 -0.2796 -0.0660
  244MOL0     C32865   3.563   3.891  10.593  0.5228 -0.1643  0.1303
  244MOL0     C32866   3.465   3.904  10.476  0.7453 -0.0020  0.4037
  244MOL0     C32867   3.380   3.778  10.466 -0.3039 -1.1679  0.6031
  244MOL0     C32868   3.251   3.816  10.400 -0.0673  0.3491 -0.0215
  244MOL0     C32869   3.168   3.693  10.406  0.9673  0.6668  0.2039
  244MOL0     C32870   3.100   3.592  10.399 -0.7749 -0.0711 -0.2150
  244MOL0     C32871   3.722   3.738  10.785  0.7018  0.0388 -0.2164
  244MOL0     C32872   3.782   3.638  10.872  0.2146  1.0342 -0.5375
  244MOL0     H32873   4.156   3.415  11.168 -0.8781  0.0724  0.4402
  244MOL0     H32874   4.184   3.272  11.377  1.8477 -0.0904 -3.3614
  244MOL0     H32875   3.864   3.127  11.540  0.1826  0.6222 -2.7931
  244MOL0     H32876   3.949   2.976  11.578  1.8828  0.0402  0.6207
  244MOL0     H32877   4.139   3.107  11.686 -0.0396 -2.0569 -5.2346
  244MOL0     H32878   4.063   3.257  11.660  1.4473 -0.0558  3.6340
  244MOL0     H32879   3.936   3.009  11.799  2.2047  0.2478  1.2612
  244MOL0     H32880   4.043   3.115  11.882  0.6740 -5.0233  0.6564
  244MOL0     H32881   3.898   3.302  11.860  1.2888 -0.8450  2.3656
  244MOL0     H32882   3.770   3.216  11.778 -0.3929  1.4950  0.4648
  244MOL0     H32883   3.800   3.042  11.978  1.4111 -0.8397  0.2153
  244MOL0     H32884   3.896   3.181  12.048 -0.4272  0.6413  0.1778
  244MOL0     H32885   3.690   3.333  11.974 -1.9527 -0.2344 -1.1339
  244MOL0     H32886   3.598   3.187  11.955  0.4163  0.0379 -0.0834
  244MOL0     H32887   3.536   3.217  12.161 -0.0814  0.5849 -2.3007
  244MOL0     H32888   3.700   3.149  12.207 -0.3737  2.8353  3.9575
  244MOL0     H32889   3.616   3.414  12.297 -2.0058 -1.7401  0.7712
  244MOL0     H32890   3.709   3.446  12.148 -2.2207 -0.5402 -0.5825
  244MOL0     H32891   3.763   3.278  12.479 -0.7710  2.3237  0.6236
  244MOL0     H32892   4.043   3.387  12.614 -2.0015  0.6113  0.0471
  244MOL0     H32893   4.006   3.217  12.593  1.6471 -0.4852  1.6364
  244MOL0     H32894   4.241   3.358  12.555 -1.6642  1.0882  1.9025
  244MOL0     H32895   4.209   3.231  12.424  0.2223  2.2522  0.9270
  244MOL0     H32896   4.183   3.057  12.599 -1.1135  0.6397 -2.5354
  244MOL0     H32897   4.211   3.173  12.725  0.8459 -0.5618  0.5727
  244MOL0     H32898   4.406   3.037  12.685  1.4484 -0.1750 -2.0771
  244MOL0     H32899   4.439   3.209  12.674  3.4453 -0.1636 -1.7607
  244MOL0     H32900   4.584   2.920  12.692  3.4108 -0.1597 -0.1057
  244MOL0     H32901   4.703   2.602  12.616  0.2612 -0.3866  2.6764
  244MOL0     H32902   4.789   2.733  12.689 -1.0313  1.2016 -0.1374
  244MOL0     H32903   4.610   2.713  12.720 -0.1314 -0.0506  0.8109
  244MOL0     H32904   4.931   2.569  12.029  1.3462  0.4559  0.0047
  244MOL0     H32905   5.006   2.356  11.948  1.0899  1.4228  1.1268
  244MOL0     H32906   4.853   1.998  12.157  0.3705  3.7956  0.4427
  244MOL0     H32907   4.847   2.023  11.974 -1.2242 -1.0455  0.1467
  244MOL0     H32908   5.053   1.903  11.943 -0.9495 -4.6527 -1.1379
  244MOL0     H32909   5.069   1.900  12.121 -0.8332  0.7730  1.5653
  244MOL0     H32910   4.887   1.724  12.117  1.7883 -0.5674  0.4631
  244MOL0     H32911   5.002   1.677  12.005 -2.1650 -1.3544 -0.3006
  244MOL0     H32912   4.730   1.819  11.935  1.6758  3.2991 -0.4438
  244MOL0     H32913   4.860   1.827  11.819 -2.0580 -0.5731 -1.3069
  244MOL0     H32914   4.798   1.549  11.926  1.2579 -0.7584 -0.8311
  244MOL0     H32915   4.915   1.599  11.808  0.4487 -1.3001  1.0892
  244MOL0     H32916   4.608   1.601  11.783  0.0880  0.9212  0.4763
  244MOL0     H32917   4.718   1.680  11.670  0.2569  0.8842  1.1105
  244MOL0     H32918   4.633   1.441  11.612 -1.6003 -4.7926  3.4150
  244MOL0     H32919   4.722   1.390  11.746  2.8814 -0.9734  0.1320
  244MOL0     H32920   4.842   1.361  11.525 -2.6020  1.7493 -3.6671
  244MOL0     H32921   4.933   1.458  11.649 -0.5576  3.4929  0.1128
  244MOL0     H32922   4.854   2.168  12.314 -1.8342  0.8596 -0.1158
  244MOL0     H32923   4.726   2.366  12.349  0.6268 -2.1247 -0.7885
  244MOL0     H32924   4.645   2.851  12.202  3.4822 -2.7281  1.1736
  244MOL0     H32925   4.507   3.038  12.278 -2.3528 -2.1515 -1.0216
  244MOL0     H32926   3.787   3.125  11.328 -0.1330  1.2124  1.1069
  244MOL0     H32927   3.755   3.276  11.139 -0.3373  0.2885  0.6549
  244MOL0     H32928   3.795   3.386  10.647 -2.5732 -0.3094 -1.2808
  244MOL0     H32929   3.734   3.574  10.497 -1.3244 -1.0801  0.3037
  244MOL0     H32930   3.514   3.868  10.687  0.0181 -1.6719 -0.4725
  244MOL0     H32931   3.620   3.985  10.594 -3.6159  2.5862  1.7190
  244MOL0     H32932   3.514   3.924  10.380 -1.8972  2.8967 -0.5201
  244MOL0     H32933   3.406   3.993  10.500  0.9671  0.1742  0.2875
  244MOL0     H32934   3.375   3.741  10.569  2.9471 -3.9037 -0.0342
  244MOL0     H32935   3.428   3.700  10.406 -0.5724 -1.4090  0.6978
  244MOL0     H32936   3.254   3.843  10.294 -2.4441 -1.6272 -0.6844
  244MOL0     H32937   3.200   3.895  10.455  2.2727  1.7780  0.2456
  244MOL0     H32938   3.049   3.498  10.395 -0.6098 -0.1442 -0.6333
  244MOL0     H32939   3.682   3.832  10.821  0.9672  0.7402 -1.6740
  244MOL0     H32940   3.796   3.662  10.977  2.4600 -3.8311  0.5933
  245MOL0     O32941   5.147   3.172   4.119  1.1930  0.1987 -0.5612
  245MOL0     C32942   5.049   3.101   4.127 -0.2420  0.4413 -0.3146
  245MOL0     O32943   5.046   2.967   4.122 -0.5277 -0.3718  0.7400
  245MOL0     C32944   5.154   2.899   4.150  0.6824 -0.1125  0.3261
  245MOL0     C32945   5.272   2.941   4.214  0.3247  0.9094 -0.0317
  245MOL0     C32946   5.378   2.851   4.226  0.1420 -0.6243 -0.1651
  245MOL0     C32947   5.367   2.718   4.179  0.7537 -0.5707  0.2037
  245MOL0     O32948   5.481   2.639   4.196  0.2898 -0.1839 -0.2967
  245MOL0     C32949   5.445   2.516   4.254 -0.0725  0.1229  0.0591
  245MOL0     C32950   5.575   2.447   4.310 -0.1665  0.4639  0.5838
  245MOL0     C32951   5.683   2.399   4.203 -0.4491 -0.5925 -0.3669
  245MOL0     C32952   5.793   2.328   4.279 -0.2907  0.0553 -0.2940
  245MOL0     C32953   5.901   2.276   4.188  0.2435  0.4138  0.4916
  245MOL0     C32954   5.990   2.181   4.270  0.5010  0.1852 -0.2328
  245MOL0     C32955   6.109   2.146   4.181 -0.7858 -0.2108  0.8117
  245MOL0     C32956   6.208   2.072   4.263 -0.5447 -0.1535  0.0741
  245MOL0     N32957   6.324   2.022   4.192 -0.0260  0.6811 -0.2918
  245MOL0     C32958   6.381   2.057   4.068 -0.0262  0.2954  0.2576
  245MOL0     C32959   6.466   1.953   4.047 -0.1976 -0.0444 -0.5710
  245MOL0     C32960   6.564   1.928   3.931  0.2521  0.2582 -0.3551
  245MOL0     C32961   6.710   1.926   3.978 -0.2518  0.2860 -0.5219
  245MOL0     C32962   6.805   1.916   3.866 -0.5255  0.0878 -0.4062
  245MOL0     C32963   6.935   1.983   3.902 -1.1166 -0.1386 -0.4387
  245MOL0     O32964   7.000   1.972   3.779 -0.0067 -0.2220  0.0874
  245MOL0     C32965   7.110   1.894   3.770 -0.2470 -0.1426  0.3981
  245MOL0     C32966   7.120   1.772   3.824  0.1221  0.1832  0.9054
  245MOL0     C32967   7.241   1.693   3.809 -0.1230  0.1869  0.2493
  245MOL0     C32968   7.252   1.571   3.888 -0.0023  0.0439  0.3126
  245MOL0     C32969   7.342   1.734   3.717  0.0116  0.4797  0.4525
  245MOL0     C32970   7.464   1.653   3.684 -0.5933  0.1415 -0.0917
  245MOL0     O32971   7.576   1.725   3.666 -0.8672 -0.1853  0.4089
  245MOL0     C32972   7.693   1.658   3.640  0.7648 -0.0886  0.2923
  245MOL0     C32973   7.742   1.689   3.510 -0.3126 -0.6828 -0.5290
  245MOL0     C32974   7.873   1.650   3.470  0.4668  0.2545 -1.2889
  245MOL0     C32975   7.947   1.570   3.562  0.3032 -0.7485 -0.0086
  245MOL0     O32976   8.072   1.544   3.507 -0.4336 -0.6947 -0.3173
  245MOL0     C32977   8.181   1.505   3.590  0.1685 -0.1915 -0.0671
  245MOL0     C32978   8.313   1.511   3.502  0.1966 -0.7664 -0.4273
  245MOL0     C32979   8.302   1.402   3.400 -0.2292 -0.0699  0.3427
  245MOL0     C32980   8.415   1.395   3.298 -0.0886  0.5598 -0.2135
  245MOL0     C32981   8.427   1.252   3.248  0.0296  1.1491  0.4833
  245MOL0     C32982   8.526   1.243   3.139  0.0775 -0.5828 -0.0125
  245MOL0     C32983   8.481   1.118   3.054 -0.0634 -0.4626  0.0214
  245MOL0     C32984   8.598   1.089   2.962 -0.0888 -0.1683 -0.3297
  245MOL0    Cl32985   8.591   1.220   2.844 -0.2039 -0.2869 -0.1779
  245MOL0     C32986   7.896   1.534   3.687 -0.3103 -0.7711  0.1484
  245MOL0     C32987   7.765   1.569   3.727  0.1742  0.4101  1.0267
  245MOL0     O32988   7.455   1.532   3.667  0.2420 -0.0614  0.4169
  245MOL0     C32989   7.327   1.860   3.661 -0.6102  0.3493 -0.3394
  245MOL0     C32990   7.216   1.934   3.695 -0.4912 -0.7115 -0.7146
  245MOL0     N32991   6.459   1.860   4.150  0.1076  0.0166  0.6360
  245MOL0     N32992   6.358   1.896   4.225  0.0270 -0.3236  0.0511
  245MOL0     C32993   5.252   2.676   4.110  0.0066  0.6537 -0.1425
  245MOL0     C32994   5.147   2.763   4.101  1.0426  0.1592 -0.6611
  245MOL0     C32995   4.917   3.158   4.113 -0.3530  0.2864 -0.3269
  245MOL0     C32996   4.804   3.098   4.182  1.5768  1.0704  0.6359
  245MOL0     C32997   4.683   3.164   4.184 -0.4080 -0.6681  0.6640
  245MOL0     C32998   4.666   3.279   4.114  0.1846 -0.3506 -0.7742
  245MOL0     O32999   4.554   3.357   4.111  0.6139 -0.4133  0.4027
  245MOL0     C33000   4.442   3.316   4.187 -0.1705  0.9895 -0.1175
  245MOL0     C33001   4.318   3.406   4.168  0.6503  0.6532 -0.5806
  245MOL0     C33002   4.241   3.406   4.035 -0.4890 -0.2422  0.0554
  245MOL0     C33003   4.085   3.396   4.059  0.9656  0.4735 -0.6894
  245MOL0     C33004   4.034   3.509   4.139  1.3243 -0.4859 -0.7277
  245MOL0     C33005   3.988   3.611   4.192  0.8939 -0.2167 -0.1718
  245MOL0     C33006   4.768   3.328   4.039  0.3931 -0.6028 -0.1670
  245MOL0     C33007   4.903   3.275   4.044  0.1035  0.2669 -0.3507
  245MOL0     H33008   5.279   3.043   4.251 -1.2321  1.2275 -0.5037
  245MOL0     H33009   5.460   2.876   4.293 -0.5574  1.0417  0.1210
  245MOL0     H33010   5.369   2.529   4.331 -1.4001  1.2665 -1.3910
  245MOL0     H33011   5.407   2.449   4.177  2.7206 -1.0974 -0.4072
  245MOL0     H33012   5.626   2.518   4.376 -0.9336 -1.4850  3.4727
  245MOL0     H33013   5.542   2.370   4.380 -1.2768  1.7406  1.5270
  245MOL0     H33014   5.629   2.328   4.140 -2.0459  0.0151  0.2446
  245MOL0     H33015   5.711   2.484   4.141  0.3854  0.2941  1.1522
  245MOL0     H33016   5.833   2.392   4.358 -1.6921  1.2515 -0.5045
  245MOL0     H33017   5.738   2.250   4.335  1.2026 -1.2761 -0.6070
  245MOL0     H33018   5.862   2.223   4.101  2.0033 -0.0372 -0.0719
  245MOL0     H33019   5.957   2.360   4.147  0.7342 -1.2109 -2.4018
  245MOL0     H33020   6.013   2.220   4.370  1.2707 -0.0464 -0.3129
  245MOL0     H33021   5.931   2.092   4.294  1.2377  0.6343  3.9682
  245MOL0     H33022   6.085   2.073   4.104  0.9599 -1.0548  1.0214
  245MOL0     H33023   6.157   2.228   4.127 -2.6310 -0.0009 -0.5741
  245MOL0     H33024   6.150   1.992   4.310 -2.3149  0.1637 -1.4423
  245MOL0     H33025   6.236   2.144   4.341 -1.4816  0.7525 -0.3931
  245MOL0     H33026   6.360   2.143   4.005 -1.0649  0.4468  0.7825
  245MOL0     H33027   6.541   1.832   3.884  2.5088 -1.1342  1.1694
  245MOL0     H33028   6.545   1.999   3.850 -2.5151 -0.1997 -0.1954
  245MOL0     H33029   6.723   1.848   4.053 -1.3096 -0.0298 -0.6532
  245MOL0     H33030   6.726   2.028   4.015 -3.6856  2.3367 -3.8816
  245MOL0     H33031   6.763   1.978   3.787 -0.2590 -0.2034 -0.7776
  245MOL0     H33032   6.822   1.810   3.845 -1.2945  0.0488 -0.8465
  245MOL0     H33033   6.977   1.934   3.991 -3.1203 -1.2355 -0.0326
  245MOL0     H33034   6.926   2.086   3.938 -1.9235 -0.7727  1.3012
  245MOL0     H33035   7.041   1.725   3.882  1.9198 -0.6972  2.7320
  245MOL0     H33036   7.177   1.560   3.967 -1.7996 -0.0676 -1.3208
  245MOL0     H33037   7.236   1.488   3.817  1.2547  0.6061 -0.6691
  245MOL0     H33038   7.351   1.537   3.922  0.7830  0.8134 -1.1327
  245MOL0     H33039   7.679   1.760   3.458  0.9098  1.9891  1.4011
  245MOL0     H33040   7.911   1.683   3.373  0.7821  1.2794 -0.8254
  245MOL0     H33041   8.206   1.570   3.675  2.1476 -4.0534  2.6541
  245MOL0     H33042   8.168   1.403   3.629 -1.4562 -0.3719 -0.9930
  245MOL0     H33043   8.329   1.608   3.454 -0.3672 -0.9609 -1.0275
  245MOL0     H33044   8.396   1.483   3.567 -0.5493 -1.8471  0.0845
  245MOL0     H33045   8.207   1.406   3.345 -0.0653  0.4660  0.0906
  245MOL0     H33046   8.300   1.317   3.468  2.1323  0.2166  0.8627
  245MOL0     H33047   8.400   1.469   3.219 -1.8335  1.7663  1.1449
  245MOL0     H33048   8.511   1.420   3.344 -0.9406  1.3864  1.2204
  245MOL0     H33049   8.326   1.226   3.215 -0.4710  1.9494  1.3136
  245MOL0     H33050   8.453   1.186   3.331  3.9365  0.4921 -1.0428
  245MOL0     H33051   8.501   1.336   3.086 -0.2686  1.4162  3.3341
  245MOL0     H33052   8.631   1.242   3.167  0.6146 -0.6446 -1.8712
  245MOL0     H33053   8.388   1.144   3.002  0.4280  2.0884  0.2515
  245MOL0     H33054   8.462   1.039   3.127  0.0468  2.4982  3.5995
  245MOL0     H33055   8.581   0.995   2.908 -0.6469 -0.7984  0.9014
  245MOL0     H33056   8.692   1.088   3.017 -0.0457 -1.4150 -0.3958
  245MOL0     H33057   7.963   1.475   3.749  0.3783  0.7266  0.8958
  245MOL0     H33058   7.716   1.518   3.809  0.0821 -2.4063 -0.6488
  245MOL0     H33059   7.415   1.889   3.605  2.8850 -0.7471  4.0411
  245MOL0     H33060   7.206   2.037   3.661 -2.0229  0.2475  2.3006
  245MOL0     H33061   5.259   2.576   4.068 -1.8479 -0.4430  1.9373
  245MOL0     H33062   5.062   2.727   4.045  0.7925 -1.7967  0.8746
  245MOL0     H33063   4.811   2.999   4.226 -0.1000 -0.0128 -1.3355
  245MOL0     H33064   4.592   3.120   4.225 -0.7292  0.1254  0.8065
  245MOL0     H33065   4.398   3.218   4.167 -4.8007  2.4619  1.3451
  245MOL0     H33066   4.482   3.320   4.289 -2.9967 -0.6877  1.1768
  245MOL0     H33067   4.344   3.508   4.198  2.3247 -0.7258  3.2136
  245MOL0     H33068   4.257   3.368   4.250 -0.3151  2.1861 -0.5484
  245MOL0     H33069   4.265   3.322   3.969 -1.2596  0.6115 -1.3566
  245MOL0     H33070   4.266   3.495   3.977  1.4534 -0.7668  0.0038
  245MOL0     H33071   4.069   3.306   4.118  3.6127  1.6453  2.1144
  245MOL0     H33072   4.039   3.399   3.960  0.4351  0.2151 -0.4557
  245MOL0     H33073   3.938   3.695   4.236 -0.5837 -1.4547  0.5871
  245MOL0     H33074   4.759   3.429   4.000  2.0106 -0.4748 -0.2785
  245MOL0     H33075   4.993   3.320   4.003  0.1924 -0.4814 -0.9994
  246MOL0     O33076   7.377   4.757   8.572  0.5052 -0.0398 -0.3207
  246MOL0     C33077   7.483   4.788   8.620 -0.9014 -0.3985  0.1137
  246MOL0     O33078   7.554   4.711   8.710  0.4777  0.2143  0.3933
  246MOL0     C33079   7.521   4.576   8.712 -0.0909 -1.0322 -0.5873
  246MOL0     C33080   7.550   4.488   8.604  0.0144  0.6837 -0.6451
  246MOL0     C33081   7.521   4.361   8.632  0.4554  0.1429 -0.2560
  246MOL0     C33082   7.474   4.313   8.756  0.2132 -0.2621  0.0699
  246MOL0     O33083   7.420   4.192   8.772  0.1914  0.0933 -0.6072
  246MOL0     C33084   7.316   4.169   8.676 -0.1611 -1.6445 -0.6790
  246MOL0     C33085   7.358   4.072   8.561 -0.6205 -0.9581  0.3936
  246MOL0     C33086   7.381   3.930   8.615 -0.3862  0.1111 -0.5687
  246MOL0     C33087   7.405   3.827   8.500 -0.2542 -0.1764 -0.1206
  246MOL0     C33088   7.430   3.686   8.554 -0.3108  0.4060 -0.1858
  246MOL0     C33089   7.310   3.624   8.642  0.5828  0.2784  0.4723
  246MOL0     C33090   7.317   3.468   8.625  0.3340 -0.5911 -0.1792
  246MOL0     C33091   7.421   3.407   8.718 -0.6500  0.6169 -0.4441
  246MOL0     N33092   7.375   3.426   8.854  0.9463  0.5718 -0.6744
  246MOL0     C33093   7.446   3.465   8.968 -0.3493  0.5168 -0.0487
  246MOL0     C33094   7.363   3.429   9.076 -0.1740 -0.4048  0.3171
  246MOL0     C33095   7.404   3.442   9.217 -0.2821 -0.2545  0.4035
  246MOL0     C33096   7.456   3.303   9.266  0.1227 -0.2886  0.4068
  246MOL0     C33097   7.462   3.302   9.419 -0.4205  1.2486  0.0534
  246MOL0     C33098   7.566   3.399   9.479 -0.7181  0.8078  0.1573
  246MOL0     O33099   7.711   3.361   9.436  0.4891 -0.1856  0.0820
  246MOL0     C33100   7.783   3.259   9.486  0.0226 -0.0752 -0.1794
  246MOL0     C33101   7.911   3.234   9.436  0.7227 -0.2919 -1.1863
  246MOL0     C33102   7.984   3.117   9.489  0.3826 -0.5502 -0.3263
  246MOL0     C33103   8.100   3.094   9.393  0.3236 -0.5105  0.1303
  246MOL0     C33104   7.933   3.025   9.587  0.6238 -0.4192 -0.4930
  246MOL0     C33105   8.010   2.909   9.663 -0.0978 -0.0718  1.0607
  246MOL0     O33106   7.965   2.874   9.786  0.6156  0.5948  0.5710
  246MOL0     C33107   8.020   2.768   9.855 -0.0687 -0.4232 -0.2877
  246MOL0     C33108   7.930   2.664   9.887  0.4478  0.3409  0.5349
  246MOL0     C33109   7.973   2.546   9.947 -0.6468 -0.1313 -0.3988
  246MOL0     C33110   8.112   2.518   9.968  0.3865  0.0338 -0.8477
  246MOL0     O33111   8.170   2.403  10.016  0.4899  0.4222 -0.1964
  246MOL0     C33112   8.086   2.300  10.066 -0.7360  0.3776  0.2800
  246MOL0     C33113   8.163   2.162  10.039  0.1252 -0.4452  0.9641
  246MOL0     C33114   8.276   2.137  10.134 -0.5685 -0.0903  0.2081
  246MOL0     C33115   8.247   2.084  10.277  0.1577  0.4626 -0.0465
  246MOL0     C33116   8.370   2.055  10.358  0.5044 -0.5464 -0.1731
  246MOL0     C33117   8.360   2.058  10.508  0.5280  0.5353 -0.1181
  246MOL0     C33118   8.464   2.155  10.565  0.3533 -0.1166  0.5259
  246MOL0     C33119   8.601   2.075  10.575  1.3812  0.1476 -0.2029
  246MOL0    Cl33120   8.591   1.934  10.691 -0.2010  0.3937 -0.0025
  246MOL0     C33121   8.204   2.619   9.936 -0.5725  0.4312 -0.4263
  246MOL0     C33122   8.154   2.744   9.883 -0.7974  0.3052  0.3866
  246MOL0     O33123   8.100   2.855   9.596 -0.4268 -0.7410  0.1918
  246MOL0     C33124   7.802   3.059   9.625  0.6670 -0.2172 -0.5650
  246MOL0     C33125   7.733   3.170   9.579 -0.8995 -0.0763 -0.2284
  246MOL0     N33126   7.254   3.369   9.016  0.1591 -0.3221 -0.2071
  246MOL0     N33127   7.259   3.372   8.892  0.1890 -0.2837 -0.3278
  246MOL0     C33128   7.466   4.399   8.869 -0.2500  0.1385 -0.0406
  246MOL0     C33129   7.493   4.533   8.846  0.0351 -0.9706 -0.6628
  246MOL0     C33130   7.535   4.928   8.577 -0.6056  0.7167  0.2055
  246MOL0     C33131   7.490   4.996   8.461 -0.0548  0.8791 -0.2516
  246MOL0     C33132   7.514   5.123   8.436  0.4524 -0.7857  0.5842
  246MOL0     C33133   7.615   5.190   8.512  0.0670  0.2267  0.5619
  246MOL0     O33134   7.654   5.321   8.494 -0.1530 -0.1559  0.0657
  246MOL0     C33135   7.558   5.423   8.454 -0.7146 -0.5070  1.0890
  246MOL0     C33136   7.592   5.567   8.512 -0.2234 -0.0165  0.3074
  246MOL0     C33137   7.516   5.680   8.451 -0.2781 -0.1979  0.0568
  246MOL0     C33138   7.561   5.696   8.296  0.2559 -0.4062  0.1053
  246MOL0     C33139   7.508   5.827   8.255 -0.0465  1.7332  1.0775
  246MOL0     C33140   7.480   5.941   8.236 -1.0035  0.1051  0.4934
  246MOL0     C33141   7.683   5.119   8.606 -0.7941  0.7341  0.4943
  246MOL0     C33142   7.637   4.993   8.644  0.0582 -0.4960 -0.4898
  246MOL0     H33143   7.587   4.505   8.503  1.7635  2.4465  0.2089
  246MOL0     H33144   7.522   4.292   8.548  2.0166 -1.1291  0.7422
  246MOL0     H33145   7.229   4.132   8.731 -0.3955  0.9594  0.8457
  246MOL0     H33146   7.279   4.265   8.640 -1.9148 -0.9171  2.6764
  246MOL0     H33147   7.283   4.082   8.482  2.0178  2.2319 -2.0096
  246MOL0     H33148   7.450   4.104   8.511  1.4356 -1.8707  3.3217
  246MOL0     H33149   7.467   3.924   8.682 -0.8361  2.6381  0.3490
  246MOL0     H33150   7.292   3.892   8.665 -0.9975 -1.7503 -2.9153
  246MOL0     H33151   7.317   3.829   8.435 -0.5143  2.0438  0.2034
  246MOL0     H33152   7.487   3.856   8.434  0.4324  1.4632  1.3620
  246MOL0     H33153   7.461   3.617   8.474  0.2964  1.1177 -0.5751
  246MOL0     H33154   7.524   3.685   8.611  1.2773 -1.3312 -2.6201
  246MOL0     H33155   7.331   3.661   8.743 -1.4741 -2.6684  2.1127
  246MOL0     H33156   7.212   3.670   8.625  1.0641  1.1660 -0.0356
  246MOL0     H33157   7.218   3.436   8.658 -1.3153  3.9334  0.0620
  246MOL0     H33158   7.336   3.436   8.523  3.5979  0.8426 -0.1315
  246MOL0     H33159   7.513   3.462   8.697 -1.3593  1.1625 -2.2978
  246MOL0     H33160   7.450   3.302   8.703  1.5113  0.8393  1.6388
  246MOL0     H33161   7.548   3.502   8.961 -0.5606  0.9734 -0.9454
  246MOL0     H33162   7.481   3.520   9.221 -0.6940  0.4021 -2.1788
  246MOL0     H33163   7.311   3.470   9.267 -2.2235 -1.2323 -2.3850
  246MOL0     H33164   7.553   3.284   9.219  0.5312 -3.5488  2.2623
  246MOL0     H33165   7.394   3.219   9.233  1.1920 -1.9712  2.4271
  246MOL0     H33166   7.463   3.197   9.450  0.3979  0.7093 -1.7153
  246MOL0     H33167   7.368   3.341   9.460 -1.9104 -0.8488 -1.1996
  246MOL0     H33168   7.548   3.395   9.587 -0.8735 -2.0416  0.1093
  246MOL0     H33169   7.536   3.502   9.460 -1.7975  1.0041  2.5601
  246MOL0     H33170   7.943   3.311   9.367  1.3266  1.6632  1.1361
  246MOL0     H33171   8.131   3.189   9.347 -2.1324 -0.7391 -2.2114
  246MOL0     H33172   8.178   3.035   9.442 -2.3939 -0.4900  5.0854
  246MOL0     H33173   8.083   3.032   9.304  1.9070 -0.3898 -0.2857
  246MOL0     H33174   7.826   2.683   9.866  1.0160  2.4503 -0.7039
  246MOL0     H33175   7.899   2.470   9.973 -2.5288  2.0596  1.1189
  246MOL0     H33176   8.076   2.293  10.174  2.6174 -3.2000  0.5723
  246MOL0     H33177   7.990   2.300  10.014  0.0620  1.4267 -1.2792
  246MOL0     H33178   8.088   2.084  10.049 -0.9382  0.3741 -0.3477
  246MOL0     H33179   8.190   2.152   9.934 -2.9813 -0.4938  0.1019
  246MOL0     H33180   8.333   2.230  10.144 -4.0670  2.0290  2.3860
  246MOL0     H33181   8.335   2.062  10.079 -4.9186  0.6445 -6.7315
  246MOL0     H33182   8.181   2.157  10.325 -1.8601 -1.8023  0.8896
  246MOL0     H33183   8.178   1.999  10.280 -0.1705  0.7236 -0.1098
  246MOL0     H33184   8.450   2.125  10.333  3.0117 -2.6745  1.3661
  246MOL0     H33185   8.424   1.972  10.312 -0.0923 -0.2023 -1.5485
  246MOL0     H33186   8.264   2.093  10.547 -1.5969 -4.4828 -0.0810
  246MOL0     H33187   8.381   1.954  10.536  0.1117  0.7950  1.2182
  246MOL0     H33188   8.438   2.183  10.667  2.6596 -0.8837  1.3910
  246MOL0     H33189   8.463   2.245  10.502  0.3370 -0.1256  0.5136
  246MOL0     H33190   8.674   2.148  10.612  2.0529  1.5104 -3.8408
  246MOL0     H33191   8.635   2.048  10.475 -0.2662 -0.0934 -0.7149
  246MOL0     H33192   8.310   2.596   9.947 -1.4205 -3.4379  1.3344
  246MOL0     H33193   8.217   2.832   9.868 -0.6555  0.7860  3.2692
  246MOL0     H33194   7.745   3.009   9.703 -1.0159  4.7143  1.8621
  246MOL0     H33195   7.635   3.184   9.622  0.5457  2.1057  2.7209
  246MOL0     H33196   7.432   4.371   8.968  0.2689  2.5448  0.8997
  246MOL0     H33197   7.484   4.601   8.930  2.0670  0.7843 -1.7739
  246MOL0     H33198   7.431   4.947   8.384 -0.2757  0.6054  0.0881
  246MOL0     H33199   7.464   5.182   8.360  0.4753  4.9102  4.2929
  246MOL0     H33200   7.558   5.409   8.346 -1.8344 -1.3078  1.1692
  246MOL0     H33201   7.456   5.394   8.481 -1.0088  0.5829  1.2038
  246MOL0     H33202   7.701   5.580   8.507 -0.3871  1.1330 -0.7417
  246MOL0     H33203   7.567   5.562   8.618 -1.3974  0.0795  0.0423
  246MOL0     H33204   7.541   5.766   8.514 -0.6232 -0.2211  0.2272
  246MOL0     H33205   7.410   5.664   8.471  0.0045 -0.7547  1.1933
  246MOL0     H33206   7.507   5.617   8.243  3.2703 -2.6563  0.1473
  246MOL0     H33207   7.668   5.694   8.272  0.4824  1.9537  0.6914
  246MOL0     H33208   7.453   6.043   8.218 -2.9409 -0.8930 -3.2824
  246MOL0     H33209   7.773   5.162   8.650 -1.2156  2.5522 -0.3359
  246MOL0     H33210   7.698   4.943   8.719 -2.9025 -1.1382  1.6828
  247MOL0     O33211   4.078   7.494   0.613 -0.6388  0.4582  0.1808
  247MOL0     C33212   4.074   7.610   0.568 -0.1890  0.0805 -1.0313
  247MOL0     O33213   4.175   7.671   0.504  0.3273 -0.3837  0.2510
  247MOL0     C33214   4.291   7.601   0.501 -1.2365 -0.6929  0.0260
  247MOL0     C33215   4.331   7.506   0.406 -0.5498  0.5839 -0.1484
  247MOL0     C33216   4.447   7.432   0.425 -1.0773  0.5897 -0.3313
  247MOL0     C33217   4.538   7.466   0.535 -0.2284 -1.0746 -0.3430
  247MOL0     O33218   4.659   7.400   0.570  0.0997 -0.3256  0.0215
  247MOL0     C33219   4.660   7.259   0.534 -0.5642 -0.5827  0.1781
  247MOL0     C33220   4.567   7.154   0.610  0.1755  0.0854  0.5702
  247MOL0     C33221   4.410   7.179   0.606  0.3238  0.5897 -0.1684
  247MOL0     C33222   4.357   7.048   0.662  0.4982 -0.3508  0.4280
  247MOL0     C33223   4.194   7.049   0.665  0.2776  0.3389 -0.0377
  247MOL0     C33224   4.153   7.035   0.517  0.2560  0.2816  0.6803
  247MOL0     C33225   4.019   6.962   0.496 -0.5047 -0.7567 -0.1428
  247MOL0     C33226   4.040   6.809   0.463  0.3121 -0.1081  0.0561
  247MOL0     N33227   3.915   6.739   0.496  0.2838  0.6759 -0.0407
  247MOL0     C33228   3.833   6.652   0.421 -0.4626  0.6064 -0.1528
  247MOL0     C33229   3.783   6.558   0.510 -0.2390 -0.2335  0.6231
  247MOL0     C33230   3.697   6.448   0.476  0.2170  0.6229 -0.5546
  247MOL0     C33231   3.755   6.354   0.363 -0.3864  0.0023  0.0276
  247MOL0     C33232   3.694   6.207   0.369  0.1950  0.1388  0.4373
  247MOL0     C33233   3.547   6.204   0.392 -0.1045  0.3375 -0.3266
  247MOL0     O33234   3.511   6.069   0.395 -0.3927  0.4455  0.1173
  247MOL0     C33235   3.426   6.050   0.298 -0.0813 -0.2323  0.7141
  247MOL0     C33236   3.313   5.982   0.326 -0.4078  0.9663 -0.5205
  247MOL0     C33237   3.214   5.943   0.237  0.4739 -0.0757 -0.5591
  247MOL0     C33238   3.101   5.873   0.305 -0.4060 -0.5991  0.1519
  247MOL0     C33239   3.229   5.969   0.099  0.4350 -0.0992  0.0052
  247MOL0     C33240   3.135   5.912  -0.002  0.4130 -0.0266  0.7098
  247MOL0     O33241   3.030   5.820   0.028 -0.1401 -0.2986 -0.0460
  247MOL0     C33242   2.980   5.757  -0.085  0.3453 -0.7159 -0.1147
  247MOL0     C33243   3.055   5.656  -0.150  0.3267  1.1294  0.7056
  247MOL0     C33244   2.992   5.604  -0.268 -0.3190 -0.3925 -0.5372
  247MOL0     C33245   2.867   5.632  -0.311  0.8263 -0.2310 -0.0559
  247MOL0     O33246   2.814   5.552  -0.414  1.0148 -1.2089  0.3826
  247MOL0     C33247   2.683   5.511  -0.381 -0.2610  0.3541  0.1334
  247MOL0     C33248   2.654   5.407  -0.490 -0.7814  0.7617  0.2642
  247MOL0     C33249   2.534   5.318  -0.450 -0.0110 -0.7219 -0.1859
  247MOL0     C33250   2.465   5.257  -0.567 -0.6188 -0.4345 -0.3097
  247MOL0     C33251   2.334   5.194  -0.528 -0.1312 -0.3774 -0.8172
  247MOL0     C33252   2.339   5.043  -0.480  0.0218  0.0970  0.9194
  247MOL0     C33253   2.338   4.951  -0.599 -0.4025 -0.8260 -0.7047
  247MOL0     C33254   2.320   4.810  -0.561 -0.0399  0.6246  0.5114
  247MOL0    Cl33255   2.249   4.734  -0.705 -0.0041  0.2591  0.0553
  247MOL0     C33256   2.803   5.739  -0.242  0.1518  1.6800 -0.9106
  247MOL0     C33257   2.857   5.800  -0.125 -0.7244  0.6868  0.1457
  247MOL0     O33258   3.159   5.952  -0.121 -0.0923 -0.0569 -0.6892
  247MOL0     C33259   3.351   6.025   0.060 -0.3675  0.5130 -0.0827
  247MOL0     C33260   3.443   6.063   0.157 -0.6695 -0.5106  0.0138
  247MOL0     N33261   3.834   6.584   0.627 -0.1232 -0.1668  0.2908
  247MOL0     N33262   3.903   6.697   0.623 -0.0768  0.4783 -0.3622
  247MOL0     C33263   4.504   7.571   0.621 -1.4292  0.8218 -0.5673
  247MOL0     C33264   4.383   7.640   0.603 -0.0302  0.2933  0.1094
  247MOL0     C33265   3.959   7.690   0.588 -0.2234 -0.1821  0.0308
  247MOL0     C33266   3.925   7.783   0.488  0.2443  0.1830 -0.5616
  247MOL0     C33267   3.802   7.850   0.511  0.0812  0.1158 -0.1956
  247MOL0     C33268   3.712   7.816   0.614  0.2323  0.0932  0.3653
  247MOL0     O33269   3.589   7.871   0.617 -0.1325  0.5439  0.0329
  247MOL0     C33270   3.588   7.994   0.690  1.0404  0.1752  0.7282
  247MOL0     C33271   3.507   7.985   0.828  0.3990 -0.7868  0.5651
  247MOL0     C33272   3.355   7.980   0.790 -0.3460  0.0327 -0.7172
  247MOL0     C33273   3.291   8.110   0.773 -0.3052 -0.5380 -0.3585
  247MOL0     C33274   3.310   8.165   0.635  0.2051 -0.5846 -0.0287
  247MOL0     C33275   3.308   8.210   0.524  0.2967 -0.3643  0.0115
  247MOL0     C33276   3.749   7.720   0.706  0.3186 -0.1924 -0.9606
  247MOL0     C33277   3.869   7.660   0.700 -1.0283 -0.1776  0.6147
  247MOL0     H33278   4.277   7.469   0.320 -1.3368  1.7224 -0.1635
  247MOL0     H33279   4.472   7.350   0.358  3.8448  2.0065 -0.6509
  247MOL0     H33280   4.662   7.247   0.426  2.8184  1.4843 -0.1232
  247MOL0     H33281   4.759   7.220   0.562 -1.5658 -2.7664  0.9430
  247MOL0     H33282   4.597   7.059   0.563  0.2163 -0.1334  1.0392
  247MOL0     H33283   4.600   7.159   0.714  1.6236 -1.0462  0.2079
  247MOL0     H33284   4.374   7.257   0.673  0.8533 -0.4792  1.4038
  247MOL0     H33285   4.366   7.196   0.507  0.4161  0.1681 -0.2832
  247MOL0     H33286   4.396   6.961   0.608 -2.9886  0.2229 -3.6109
  247MOL0     H33287   4.376   7.035   0.769 -1.8601  0.0794  0.9668
  247MOL0     H33288   4.150   6.966   0.721  1.6335 -0.7305 -0.4912
  247MOL0     H33289   4.162   7.141   0.715  3.1700  2.1479 -1.2358
  247MOL0     H33290   4.153   7.134   0.470 -1.6525 -0.0466 -0.1022
  247MOL0     H33291   4.226   6.977   0.460 -0.5373  1.5773 -1.8423
  247MOL0     H33292   3.951   6.975   0.580  0.5671 -1.4380  0.8611
  247MOL0     H33293   3.968   7.011   0.412  1.2091  0.4794 -0.5041
  247MOL0     H33294   4.121   6.769   0.524  0.2674  1.2841  1.0707
  247MOL0     H33295   4.070   6.796   0.359 -2.2675  0.9855 -0.9129
  247MOL0     H33296   3.834   6.633   0.314  0.8577 -2.1133  0.2468
  247MOL0     H33297   3.694   6.384   0.565  3.7004  0.4065 -0.4692
  247MOL0     H33298   3.598   6.476   0.439  0.7688 -0.6764 -3.3119
  247MOL0     H33299   3.863   6.347   0.381  0.0666  1.2705 -1.8591
  247MOL0     H33300   3.738   6.392   0.262 -2.5365 -1.2739 -0.1376
  247MOL0     H33301   3.746   6.168   0.457 -0.8478  1.3731  1.6582
  247MOL0     H33302   3.730   6.148   0.284 -0.9523  0.4632 -0.3021
  247MOL0     H33303   3.501   6.271   0.319  2.5166 -0.0135 -2.4445
  247MOL0     H33304   3.521   6.244   0.490 -0.3626 -2.5677  0.8958
  247MOL0     H33305   3.300   5.951   0.429  2.4760  1.7264  0.1764
  247MOL0     H33306   3.105   5.871   0.414  0.0711 -1.3134  0.1272
  247MOL0     H33307   3.009   5.925   0.277  0.3554  1.7957  1.8686
  247MOL0     H33308   3.095   5.771   0.265  3.2876 -0.0363 -2.4294
  247MOL0     H33309   3.153   5.636  -0.109  0.6435 -0.8866 -0.8771
  247MOL0     H33310   3.050   5.540  -0.332  0.1704  0.3853 -0.8823
  247MOL0     H33311   2.692   5.464  -0.283  1.6433 -1.4048 -0.8059
  247MOL0     H33312   2.606   5.589  -0.380  1.9367  2.6832  1.5432
  247MOL0     H33313   2.654   5.451  -0.590  0.6057  2.5299  0.9740
  247MOL0     H33314   2.745   5.347  -0.495 -1.2399  0.0642  0.1188
  247MOL0     H33315   2.460   5.375  -0.393 -0.8119 -0.6104 -1.3072
  247MOL0     H33316   2.565   5.234  -0.386  2.8858  0.7567  0.5227
  247MOL0     H33317   2.439   5.329  -0.645  0.6533  1.7915  1.1782
  247MOL0     H33318   2.537   5.190  -0.616 -0.6217  0.1994 -1.1966
  247MOL0     H33319   2.275   5.213  -0.618  1.2481  0.1810 -1.6312
  247MOL0     H33320   2.277   5.243  -0.449 -1.3387 -1.8226 -0.7498
  247MOL0     H33321   2.429   5.028  -0.420  1.3688  1.8636 -0.5396
  247MOL0     H33322   2.256   5.016  -0.415 -0.7786 -0.4475 -0.2804
  247MOL0     H33323   2.432   4.968  -0.654 -0.7834  0.1787 -1.0650
  247MOL0     H33324   2.257   4.976  -0.668  0.0150  0.4975 -0.7430
  247MOL0     H33325   2.254   4.810  -0.474  3.2494 -0.6059  3.2448
  247MOL0     H33326   2.424   4.779  -0.544  0.2608  0.5481 -1.2967
  247MOL0     H33327   2.701   5.755  -0.274  0.1853 -1.2592 -2.7748
  247MOL0     H33328   2.807   5.885  -0.079 -0.0085  0.1564  1.9913
  247MOL0     H33329   3.382   6.023  -0.044 -0.6598 -0.0357 -0.1642
  247MOL0     H33330   3.534   6.112   0.125  0.0003 -0.8708  1.3079
  247MOL0     H33331   4.572   7.601   0.700  1.6790 -3.6276 -1.1287
  247MOL0     H33332   4.360   7.718   0.676  0.2754 -1.2513  1.9493
  247MOL0     H33333   4.002   7.803   0.414  2.1548  1.4290  1.6511
  247MOL0     H33334   3.783   7.933   0.444  1.7919  1.0578  0.4001
  247MOL0     H33335   3.687   8.034   0.717  0.1986  2.3292  0.8177
  247MOL0     H33336   3.564   8.076   0.623  4.1310  1.3732  0.8899
  247MOL0     H33337   3.524   8.073   0.891  4.5856 -0.9235 -0.1558
  247MOL0     H33338   3.533   7.902   0.893  1.7554 -1.2091 -0.4954
  247MOL0     H33339   3.309   7.934   0.877  2.5682 -0.8619  0.4751
  247MOL0     H33340   3.335   7.915   0.704  0.7193 -1.5517  0.1748
  247MOL0     H33341   3.320   8.181   0.850 -0.0817 -1.1047  0.0847
  247MOL0     H33342   3.182   8.102   0.781 -0.8819  2.6067 -2.7307
  247MOL0     H33343   3.302   8.248   0.424 -2.0023  0.3149  0.3441
  247MOL0     H33344   3.680   7.697   0.787  0.0700  2.7719 -0.2309
  247MOL0     H33345   3.899   7.592   0.779 -1.0658 -1.4499 -0.4297
  248MOL0     O33346   3.904   1.286   9.218  0.2493  0.9269  0.3213
  248MOL0     C33347   3.947   1.398   9.193 -1.5417 -0.5524  0.0321
  248MOL0     O33348   3.895   1.517   9.247  0.9221 -0.0618 -0.4955
  248MOL0     C33349   3.773   1.510   9.316 -0.7170  0.3999 -0.3170
  248MOL0     C33350   3.656   1.480   9.248  0.2827 -0.6246 -0.1221
  248MOL0     C33351   3.536   1.450   9.314  0.0225 -0.0297  0.0648
  248MOL0     C33352   3.538   1.463   9.454  0.1758 -0.7233 -0.2371
  248MOL0     O33353   3.430   1.422   9.528 -0.3851 -0.1635  1.0625
  248MOL0     C33354   3.387   1.288   9.478 -0.8748  0.4339 -0.6186
  248MOL0     C33355   3.280   1.227   9.555 -0.3231 -0.4442  0.4482
  248MOL0     C33356   3.310   1.240   9.708 -0.5618  0.5459 -0.0619
  248MOL0     C33357   3.442   1.165   9.743 -0.2759 -1.3474 -0.5032
  248MOL0     C33358   3.438   1.121   9.890 -0.7351  0.1041 -1.1196
  248MOL0     C33359   3.574   1.105   9.950  0.5980  1.2394 -0.4505
  248MOL0     C33360   3.628   1.222  10.020  0.0601  0.1069 -0.3003
  248MOL0     C33361   3.767   1.202  10.086 -0.3239 -0.0594  0.6691
  248MOL0     N33362   3.870   1.218   9.986 -0.0393 -0.0366 -0.1060
  248MOL0     C33363   3.925   1.118   9.906  0.7777 -0.1276  0.0268
  248MOL0     C33364   4.015   1.182   9.831  0.2102  0.7876  0.2113
  248MOL0     C33365   4.109   1.122   9.735 -0.4924  0.4303 -0.3176
  248MOL0     C33366   4.056   1.066   9.602  0.7295  0.0913  0.3055
  248MOL0     C33367   4.159   0.998   9.505 -0.1149 -1.2612 -0.0864
  248MOL0     C33368   4.081   0.914   9.404 -0.9643  0.3510 -0.6866
  248MOL0     O33369   4.158   0.805   9.344  0.1583 -0.6338  0.0793
  248MOL0     C33370   4.258   0.832   9.253 -0.3987 -0.3474  0.2074
  248MOL0     C33371   4.324   0.727   9.208  0.0904  0.5572  0.0097
  248MOL0     C33372   4.435   0.734   9.124 -1.0899  0.1051  0.1033
  248MOL0     C33373   4.523   0.607   9.104 -0.9577  0.1664 -0.1013
  248MOL0     C33374   4.462   0.858   9.063 -0.4682  0.0067  0.1587
  248MOL0     C33375   4.566   0.880   8.959 -0.0220  0.0501 -0.3012
  248MOL0     O33376   4.579   1.010   8.910 -0.1180  0.1631  0.0454
  248MOL0     C33377   4.664   1.014   8.791 -0.9294  0.6803 -0.8859
  248MOL0     C33378   4.791   1.072   8.799 -0.0780  0.5780 -0.2568
  248MOL0     C33379   4.864   1.094   8.686  0.4723  0.4162  0.0656
  248MOL0     C33380   4.828   1.056   8.557  1.0075  0.1724 -0.3592
  248MOL0     O33381   4.910   1.081   8.447 -0.5417  0.0652  0.0731
  248MOL0     C33382   4.895   0.983   8.343  0.5375 -0.1609 -0.4446
  248MOL0     C33383   4.995   0.992   8.240 -0.1205  0.8880 -0.7473
  248MOL0     C33384   4.982   0.883   8.134 -0.0862  0.3043 -0.1752
  248MOL0     C33385   5.101   0.866   8.040 -0.5707  0.2382 -0.4048
  248MOL0     C33386   5.098   0.980   7.940  0.7701  0.6872  0.4782
  248MOL0     C33387   5.002   0.945   7.821 -0.0081 -0.8667  0.2000
  248MOL0     C33388   4.962   1.055   7.723  1.1122 -0.3139  0.4649
  248MOL0     C33389   4.832   1.023   7.635  0.2258  0.4733 -1.0359
  248MOL0    Cl33390   4.786   1.157   7.522  0.0611  0.7731 -0.2241
  248MOL0     C33391   4.695   1.004   8.551  0.4712 -0.4314 -0.6622
  248MOL0     C33392   4.621   0.977   8.666  0.4002  0.1408  0.8036
  248MOL0     O33393   4.620   0.785   8.909 -0.0891  0.5587 -0.4588
  248MOL0     C33394   4.395   0.976   9.107 -0.2284 -0.1163 -0.9747
  248MOL0     C33395   4.292   0.960   9.203 -0.9410  0.2850 -1.2264
  248MOL0     N33396   4.024   1.314   9.861 -0.6588  0.5324 -0.1253
  248MOL0     N33397   3.925   1.338   9.941 -0.0072  0.3907  0.0861
  248MOL0     C33398   3.657   1.477   9.526  0.3297 -0.3764 -0.2877
  248MOL0     C33399   3.768   1.513   9.456  0.0177 -0.6855 -0.4836
  248MOL0     C33400   4.079   1.412   9.123  0.0523  0.4237  0.2372
  248MOL0     C33401   4.146   1.532   9.127  0.6207  0.4943 -0.6293
  248MOL0     C33402   4.276   1.544   9.079 -0.4835 -0.0351  0.5917
  248MOL0     C33403   4.339   1.438   9.012  0.4288  0.6086  1.1288
  248MOL0     O33404   4.466   1.461   8.966  0.7244 -0.4367  0.7797
  248MOL0     C33405   4.538   1.346   8.910 -0.5309 -1.2875  0.2439
  248MOL0     C33406   4.670   1.401   8.855  0.1401 -0.6730  0.2425
  248MOL0     C33407   4.645   1.517   8.755 -1.1246 -0.9002  0.5504
  248MOL0     C33408   4.790   1.563   8.722 -0.6265 -0.2753  0.3864
  248MOL0     C33409   4.866   1.480   8.624 -0.6627 -0.2536 -0.0029
  248MOL0     C33410   4.953   1.405   8.574 -0.2473 -0.3377  0.2629
  248MOL0     C33411   4.273   1.315   9.010 -0.3472  0.6376 -0.6716
  248MOL0     C33412   4.141   1.299   9.061  0.3941  0.3395 -0.2212
  248MOL0     H33413   3.667   1.474   9.140  0.2211 -0.8129 -0.1186
  248MOL0     H33414   3.440   1.438   9.264  1.0369 -1.4668 -1.6250
  248MOL0     H33415   3.353   1.287   9.374 -0.0537  1.0860 -0.9077
  248MOL0     H33416   3.475   1.223   9.483 -1.2064  0.0818  1.2106
  248MOL0     H33417   3.185   1.281   9.542  1.1368  1.7059 -2.9926
  248MOL0     H33418   3.255   1.125   9.526 -1.0508 -0.3056  0.5588
  248MOL0     H33419   3.339   1.340   9.742  1.5249 -0.6482  1.9584
  248MOL0     H33420   3.227   1.202   9.768 -1.3969  2.6948  0.2425
  248MOL0     H33421   3.456   1.079   9.677  1.5610 -3.7538  2.7432
  248MOL0     H33422   3.529   1.230   9.726  0.2127 -0.6773  3.5254
  248MOL0     H33423   3.386   1.201   9.944 -1.3739  1.1204 -3.1344
  248MOL0     H33424   3.360   1.045   9.894 -1.7201  1.1097 -0.5076
  248MOL0     H33425   3.568   1.025  10.024  0.5411  0.4810 -1.2610
  248MOL0     H33426   3.639   1.093   9.863  0.3090 -0.0128 -0.5131
  248MOL0     H33427   3.630   1.312   9.958 -2.3366 -0.2695 -1.0008
  248MOL0     H33428   3.561   1.236  10.105 -0.4362 -5.8522  0.7355
  248MOL0     H33429   3.773   1.097  10.117  0.4760 -1.0221 -2.4226
  248MOL0     H33430   3.769   1.275  10.167 -0.5386 -0.3186  0.9151
  248MOL0     H33431   3.908   1.010   9.907 -0.2356  0.0200  0.2526
  248MOL0     H33432   4.183   1.197   9.707  0.8909 -0.0093  1.8796
  248MOL0     H33433   4.165   1.040   9.780  0.2482  1.1378  0.0649
  248MOL0     H33434   4.013   1.148   9.543  2.0799 -0.3625 -1.4010
  248MOL0     H33435   3.965   1.011   9.628 -0.5507  0.9603 -2.0353
  248MOL0     H33436   4.242   0.952   9.559  0.4454 -0.2577 -0.0669
  248MOL0     H33437   4.197   1.087   9.454 -2.7132 -0.1326 -0.2118
  248MOL0     H33438   4.032   0.980   9.332 -1.1973  1.7790  0.7311
  248MOL0     H33439   4.012   0.850   9.461 -1.1134  0.3364 -0.8815
  248MOL0     H33440   4.298   0.631   9.250  0.8092 -0.5335 -1.9359
  248MOL0     H33441   4.546   0.588   8.999 -1.9232  0.4210 -0.3712
  248MOL0     H33442   4.613   0.608   9.165  0.9853 -2.3358 -2.6669
  248MOL0     H33443   4.479   0.510   9.128 -0.3313 -0.1339 -0.1581
  248MOL0     H33444   4.829   1.113   8.893  1.6058 -1.5950  0.0870
  248MOL0     H33445   4.960   1.144   8.693  0.4285  0.6671 -0.9350
  248MOL0     H33446   4.910   0.890   8.398  0.9990  0.4079  0.4185
  248MOL0     H33447   4.797   0.983   8.294  1.1054 -3.3377 -1.8299
  248MOL0     H33448   4.964   1.076   8.177  1.8317  1.5768 -0.8724
  248MOL0     H33449   5.095   1.014   8.280 -0.6878  2.1190  0.0579
  248MOL0     H33450   4.890   0.894   8.076  0.5120 -0.2083 -1.2517
  248MOL0     H33451   4.966   0.782   8.173  0.1268  0.6698  0.9197
  248MOL0     H33452   5.198   0.856   8.089  1.4194  2.6968 -3.5139
  248MOL0     H33453   5.090   0.771   7.986 -0.9182  0.4282 -0.6734
  248MOL0     H33454   5.198   1.009   7.906  0.2222  3.0186  0.7425
  248MOL0     H33455   5.055   1.069   7.985  1.4275  1.7996 -0.9985
  248MOL0     H33456   5.043   0.864   7.760 -2.0959  0.5783 -3.3791
  248MOL0     H33457   4.910   0.903   7.861 -2.2617  2.2688 -1.2786
  248MOL0     H33458   5.039   1.067   7.646 -0.8287  2.8678 -1.1918
  248MOL0     H33459   4.941   1.150   7.772  5.2451  2.5729 -2.6587
  248MOL0     H33460   4.741   1.013   7.695  0.5282  0.5435 -0.5615
  248MOL0     H33461   4.834   0.921   7.595 -1.6375  0.3656 -0.9271
  248MOL0     H33462   4.654   0.984   8.453 -0.9628  0.7068 -0.3157
  248MOL0     H33463   4.520   0.946   8.640  0.0710  0.4539  1.6836
  248MOL0     H33464   4.425   1.075   9.076  2.3480  1.3186  4.9160
  248MOL0     H33465   4.257   1.056   9.240 -1.5281 -0.6060  0.6477
  248MOL0     H33466   3.652   1.475   9.635  0.0028 -2.1717 -0.3002
  248MOL0     H33467   3.866   1.534   9.499 -0.2604 -1.4127  0.5380
  248MOL0     H33468   4.095   1.622   9.160  0.9926  0.3821  0.2814
  248MOL0     H33469   4.326   1.640   9.087  0.6097 -0.7486  3.2172
  248MOL0     H33470   4.564   1.278   8.992 -0.1729 -1.1330  0.2558
  248MOL0     H33471   4.472   1.296   8.838  0.6704  0.2596 -2.0397
  248MOL0     H33472   4.725   1.315   8.815 -2.9802 -3.5275  1.6284
  248MOL0     H33473   4.719   1.439   8.945 -0.1300 -1.9328  0.9488
  248MOL0     H33474   4.581   1.594   8.797 -2.7477 -2.7367  1.6039
  248MOL0     H33475   4.590   1.475   8.670 -1.9833  3.0375 -1.0675
  248MOL0     H33476   4.848   1.572   8.815 -1.6423  1.8674  0.8675
  248MOL0     H33477   4.798   1.666   8.689 -1.0229  0.9366  3.6823
  248MOL0     H33478   5.031   1.344   8.533 -1.8887 -1.8174 -0.8435
  248MOL0     H33479   4.304   1.229   8.951 -1.1441 -1.7868  2.1553
  248MOL0     H33480   4.101   1.198   9.055  2.0161 -0.2387 -3.1009
  249MOL0     O33481   8.665   4.601   2.997  0.6165  0.0612  0.4781
  249MOL0     C33482   8.556   4.608   3.053  0.1124  0.3627  0.8833
  249MOL0     O33483   8.435   4.658   2.999  0.0092  0.2088  0.7585
  249MOL0     C33484   8.446   4.708   2.872 -1.0754 -0.1619  0.8474
  249MOL0     C33485   8.411   4.625   2.765 -0.4430  0.9778 -0.2482
  249MOL0     C33486   8.417   4.685   2.633 -0.1731  0.7608 -0.5140
  249MOL0     C33487   8.457   4.819   2.618 -0.5235 -0.4389  0.4875
  249MOL0     O33488   8.470   4.897   2.510 -0.2802 -0.7626 -0.1097
  249MOL0     C33489   8.462   4.821   2.385  0.2878  0.4291  0.1868
  249MOL0     C33490   8.478   4.929   2.269 -0.6520  0.7785 -0.4803
  249MOL0     C33491   8.455   4.861   2.134  0.6439  0.8911  0.7504
  249MOL0     C33492   8.579   4.797   2.078  0.4842  1.6540  0.5456
  249MOL0     C33493   8.553   4.705   1.946 -0.7443 -1.1478 -1.0367
  249MOL0     C33494   8.671   4.688   1.863  0.3441  0.1176  0.3519
  249MOL0     C33495   8.638   4.674   1.719  0.1341 -0.6410  0.1435
  249MOL0     C33496   8.762   4.627   1.642  0.3294 -0.0453  0.8282
  249MOL0     N33497   8.775   4.673   1.497 -0.0020 -0.1621 -0.1448
  249MOL0     C33498   8.709   4.617   1.385  0.4986 -0.1333  1.1017
  249MOL0     C33499   8.764   4.677   1.276  1.3856  0.0070  0.3583
  249MOL0     C33500   8.716   4.654   1.135 -0.1728  0.2504 -0.0204
  249MOL0     C33501   8.657   4.785   1.085  0.5203  0.5879  0.0683
  249MOL0     C33502   8.518   4.834   1.139  0.3512  0.2321  0.1340
  249MOL0     C33503   8.385   4.753   1.104 -0.5763 -0.0778  0.8371
  249MOL0     O33504   8.390   4.634   1.182 -0.5716  0.0699  0.3600
  249MOL0     C33505   8.331   4.629   1.306  0.1745 -0.1116 -0.3853
  249MOL0     C33506   8.325   4.506   1.372 -0.1370 -0.5427 -0.8401
  249MOL0     C33507   8.268   4.507   1.503 -1.2119  0.3879 -0.7046
  249MOL0     C33508   8.286   4.366   1.570 -0.2791  0.0917  0.0692
  249MOL0     C33509   8.219   4.620   1.568 -0.5599  0.8312  0.0452
  249MOL0     C33510   8.158   4.620   1.701  0.9394 -0.3942 -0.4181
  249MOL0     O33511   8.146   4.746   1.761  0.7574  0.7865  0.7309
  249MOL0     C33512   8.109   4.756   1.890 -0.0016 -1.2123  0.3331
  249MOL0     C33513   8.039   4.870   1.920  0.1785 -0.1403 -0.1519
  249MOL0     C33514   7.987   4.906   2.042 -0.0302 -0.3149  0.3169
  249MOL0     C33515   8.014   4.817   2.147  0.5576  0.8263  0.2248
  249MOL0     O33516   7.973   4.864   2.270  0.1584 -0.0261 -0.3304
  249MOL0     C33517   7.994   4.775   2.385 -0.2570 -0.0680 -0.4575
  249MOL0     C33518   7.924   4.828   2.506  0.0350 -0.0191 -0.2860
  249MOL0     C33519   7.859   4.713   2.588  0.0013 -0.0862  0.1662
  249MOL0     C33520   7.957   4.637   2.668  0.2856  0.1851  0.3915
  249MOL0     C33521   7.886   4.526   2.760 -1.2820  0.2233 -0.0740
  249MOL0     C33522   7.775   4.593   2.847  0.0068 -0.4302  0.5187
  249MOL0     C33523   7.733   4.534   2.988  0.6749  0.3421 -0.3876
  249MOL0     C33524   7.726   4.392   2.973 -0.1618  0.2120  0.0504
  249MOL0    Cl33525   7.698   4.336   3.141  0.4684 -0.0566  0.7068
  249MOL0     C33526   8.105   4.707   2.122  0.8832  0.1524 -0.3920
  249MOL0     C33527   8.145   4.674   1.995  0.2721 -0.4988  1.1780
  249MOL0     O33528   8.118   4.515   1.745 -0.3073 -0.3913  0.2798
  249MOL0     C33529   8.244   4.740   1.505  1.1743  0.2844 -0.1561
  249MOL0     C33530   8.292   4.743   1.369  0.3168 -0.2427 -0.4769
  249MOL0     N33531   8.874   4.755   1.320  0.8979  0.1566  0.5756
  249MOL0     N33532   8.886   4.748   1.449 -0.1893  0.2775  0.0598
  249MOL0     C33533   8.481   4.898   2.731 -0.5004  0.4410 -0.2377
  249MOL0     C33534   8.472   4.844   2.854  0.0269 -0.3572 -0.1442
  249MOL0     C33535   8.555   4.546   3.182 -0.2569  0.5074  0.4610
  249MOL0     C33536   8.672   4.484   3.231  0.3757  0.7218 -0.4257
  249MOL0     C33537   8.664   4.424   3.355 -0.1723 -0.2358 -1.2761
  249MOL0     C33538   8.549   4.436   3.442 -0.2135  0.1866 -0.6574
  249MOL0     O33539   8.544   4.374   3.565  0.2575  0.0177  0.6318
  249MOL0     C33540   8.656   4.305   3.610  0.3358  0.4482 -0.3934
  249MOL0     C33541   8.605   4.211   3.720  0.4195 -0.0197  0.1416
  249MOL0     C33542   8.524   4.272   3.839 -0.0932 -0.7190 -0.5342
  249MOL0     C33543   8.580   4.410   3.877  0.0436 -0.0292  0.0962
  249MOL0     C33544   8.514   4.449   3.995  0.2511 -0.5807 -0.2487
  249MOL0     C33545   8.463   4.486   4.097  0.3070 -0.4873  0.0963
  249MOL0     C33546   8.446   4.500   3.384  0.2972  0.3486 -0.5517
  249MOL0     C33547   8.439   4.542   3.254  0.5370  0.0098 -0.6546
  249MOL0     H33548   8.395   4.520   2.783  1.9840  0.6030  0.0989
  249MOL0     H33549   8.384   4.633   2.544 -1.7106 -2.1584  1.5828
  249MOL0     H33550   8.539   4.744   2.384 -1.4350 -1.3695 -0.1361
  249MOL0     H33551   8.363   4.778   2.369  1.2275 -0.7941 -3.4074
  249MOL0     H33552   8.393   4.997   2.277 -1.3521 -0.2591  2.0056
  249MOL0     H33553   8.577   4.975   2.280  0.9455 -2.0730 -1.8416
  249MOL0     H33554   8.381   4.781   2.134 -1.1861  2.4499  3.1836
  249MOL0     H33555   8.443   4.936   2.056 -0.1153  2.4189  2.2839
  249MOL0     H33556   8.649   4.874   2.044 -0.5031  2.7651  0.9509
  249MOL0     H33557   8.615   4.722   2.150  1.2943  0.3821 -1.1072
  249MOL0     H33558   8.526   4.600   1.961 -0.3670 -1.0826  0.2661
  249MOL0     H33559   8.470   4.741   1.886 -2.5573 -2.4290  0.5719
  249MOL0     H33560   8.736   4.772   1.891  1.2778 -0.7280  0.8112
  249MOL0     H33561   8.736   4.605   1.893  4.1854  2.9903  0.8358
  249MOL0     H33562   8.555   4.603   1.712  0.5863 -1.2753  1.1175
  249MOL0     H33563   8.603   4.768   1.675  1.3978  0.2122  0.9236
  249MOL0     H33564   8.774   4.518   1.641  0.3660 -0.0429  1.0557
  249MOL0     H33565   8.852   4.667   1.689  0.5451 -0.1523  0.5073
  249MOL0     H33566   8.611   4.571   1.380 -0.8730  2.5895  0.9945
  249MOL0     H33567   8.797   4.621   1.069 -1.5116 -3.4390 -0.0606
  249MOL0     H33568   8.647   4.569   1.135  1.4567 -1.2374 -3.0228
  249MOL0     H33569   8.646   4.765   0.978 -1.2910  1.3430  0.0781
  249MOL0     H33570   8.734   4.860   1.104  0.4237  2.0978 -4.4304
  249MOL0     H33571   8.504   4.939   1.112 -0.3629  0.1794  0.2667
  249MOL0     H33572   8.530   4.839   1.248  0.3534 -1.0844  0.2108
  249MOL0     H33573   8.392   4.738   0.996  1.1253  4.9506 -0.0129
  249MOL0     H33574   8.294   4.813   1.117 -0.4803 -0.3479  3.2447
  249MOL0     H33575   8.363   4.420   1.317  0.5288 -1.3339  0.7783
  249MOL0     H33576   8.334   4.366   1.668  0.3228 -1.7230 -0.1812
  249MOL0     H33577   8.192   4.311   1.564  0.4320 -1.3971  1.6204
  249MOL0     H33578   8.348   4.301   1.507 -4.3708 -1.1558 -3.1256
  249MOL0     H33579   8.018   4.941   1.840 -0.2773  1.7687  1.5943
  249MOL0     H33580   7.941   5.004   2.053 -0.2685 -0.3341 -0.4074
  249MOL0     H33581   7.967   4.670   2.375  0.8265 -0.4838  0.7850
  249MOL0     H33582   8.100   4.787   2.409 -0.0459 -2.0935 -0.2365
  249MOL0     H33583   7.992   4.887   2.568 -0.1386 -1.5988  1.4724
  249MOL0     H33584   7.839   4.892   2.483  0.5359  1.1272  0.9387
  249MOL0     H33585   7.802   4.644   2.525  2.0686 -0.6348 -1.2205
  249MOL0     H33586   7.779   4.764   2.642 -0.9840 -1.0281 -0.3450
  249MOL0     H33587   8.043   4.599   2.612  0.4678  1.2369 -0.0546
  249MOL0     H33588   8.004   4.715   2.729 -1.5219  2.1831 -0.6237
  249MOL0     H33589   7.953   4.488   2.837 -2.2762  2.4757  2.0301
  249MOL0     H33590   7.851   4.439   2.703 -0.9410  0.3247 -0.4455
  249MOL0     H33591   7.822   4.689   2.870  0.5781 -0.1665 -1.5509
  249MOL0     H33592   7.693   4.623   2.781  1.6546 -1.5899 -2.2232
  249MOL0     H33593   7.635   4.572   3.019  0.6271 -2.5301  3.8275
  249MOL0     H33594   7.798   4.559   3.073 -0.7404 -0.7995  1.1013
  249MOL0     H33595   7.814   4.341   2.933  0.5198 -0.0412  1.7949
  249MOL0     H33596   7.641   4.367   2.909 -1.2659  3.1184  0.2391
  249MOL0     H33597   8.138   4.641   2.202  4.3344  1.1819 -0.8439
  249MOL0     H33598   8.196   4.580   1.976 -2.4633 -1.8382 -0.1182
  249MOL0     H33599   8.213   4.834   1.548  1.5682  0.8795 -1.1486
  249MOL0     H33600   8.304   4.844   1.330 -1.0303 -0.1054 -0.5869
  249MOL0     H33601   8.490   5.006   2.731  2.2643  0.2854 -0.4365
  249MOL0     H33602   8.494   4.914   2.934 -0.8134  1.4211 -1.4027
  249MOL0     H33603   8.763   4.484   3.172  1.5086 -0.8962  1.2258
  249MOL0     H33604   8.753   4.369   3.384  0.5815  2.5194  2.3555
  249MOL0     H33605   8.705   4.247   3.531  0.0653  0.7512 -0.7880
  249MOL0     H33606   8.734   4.369   3.653  0.1575  1.8256 -2.0331
  249MOL0     H33607   8.689   4.153   3.760 -0.2801 -0.1004  1.5293
  249MOL0     H33608   8.550   4.136   3.663  3.6151 -1.3188 -1.5554
  249MOL0     H33609   8.539   4.202   3.922  0.6605  4.4797  4.3510
  249MOL0     H33610   8.420   4.298   3.821  0.1225  1.0887  0.5557
  249MOL0     H33611   8.567   4.482   3.796 -0.4704 -1.1129 -0.8205
  249MOL0     H33612   8.687   4.426   3.887 -0.1698  1.5757  0.1187
  249MOL0     H33613   8.424   4.505   4.195 -0.1719 -1.5633  0.1279
  249MOL0     H33614   8.362   4.514   3.453  1.3839 -3.3925  1.8069
  249MOL0     H33615   8.345   4.586   3.222 -1.7362 -1.0309  3.8025
  250MOL0     O33616   5.155  11.383   9.647 -0.2560  0.4741 -0.5767
  250MOL0     C33617   5.272  11.344   9.682  0.2162 -0.5874  0.0831
  250MOL0     O33618   5.314  11.304   9.809  0.3271 -0.0750  0.5664
  250MOL0     C33619   5.232  11.324   9.912  0.3904  0.1781 -0.5474
  250MOL0     C33620   5.134  11.228   9.931 -0.2027  0.4137  0.7174
  250MOL0     C33621   5.062  11.236  10.054 -0.4084  0.4719 -0.3064
  250MOL0     C33622   5.094  11.336  10.148  0.0631 -1.4755  0.6347
  250MOL0     O33623   5.030  11.341  10.268  0.2641 -0.1440 -0.3299
  250MOL0     C33624   5.112  11.310  10.391  0.2867  0.2024 -0.6083
  250MOL0     C33625   5.024  11.336  10.509  0.6985  0.3179  0.5535
  250MOL0     C33626   5.005  11.498  10.512  0.8980  0.0430 -0.0994
  250MOL0     C33627   4.952  11.531  10.660 -0.3342  0.6247 -0.0018
  250MOL0     C33628   4.817  11.467  10.695 -0.1625  0.4179  0.0551
  250MOL0     C33629   4.745  11.578  10.778 -0.7009 -0.5522  0.1788
  250MOL0     C33630   4.601  11.552  10.823 -1.1934 -0.4340  0.0421
  250MOL0     C33631   4.538  11.674  10.892 -0.8163 -0.5467  0.3797
  250MOL0     N33632   4.597  11.688  11.027  0.0650  0.1201 -0.1040
  250MOL0     C33633   4.618  11.588  11.123 -0.3699 -0.1860 -0.4188
  250MOL0     C33634   4.675  11.659  11.226 -0.0850  0.4173  0.3109
  250MOL0     C33635   4.715  11.598  11.361  0.9847 -0.2821 -1.1341
  250MOL0     C33636   4.849  11.636  11.415 -0.1312 -0.7493 -1.0939
  250MOL0     C33637   4.961  11.584  11.334  0.0323  0.3448  1.3769
  250MOL0     C33638   5.083  11.583  11.420  0.0753 -0.1964  0.3423
  250MOL0     O33639   5.119  11.718  11.474  0.2858 -0.1832  0.1871
  250MOL0     C33640   5.185  11.812  11.403 -0.9188 -0.1471 -0.3998
  250MOL0     C33641   5.210  11.927  11.479  0.3831  0.0953  1.5033
  250MOL0     C33642   5.292  12.028  11.430 -0.6833  0.2676  0.2565
  250MOL0     C33643   5.314  12.142  11.519 -0.0602 -1.0181 -0.0405
  250MOL0     C33644   5.334  12.036  11.290  0.4227  0.3836 -0.8777
  250MOL0     C33645   5.402  12.151  11.236 -0.3022 -1.1926 -0.3190
  250MOL0     O33646   5.353  12.275  11.257 -0.6525  0.3590  0.8469
  250MOL0     C33647   5.431  12.375  11.210  0.1540  0.3804 -0.4896
  250MOL0     C33648   5.469  12.463  11.302 -0.2147  0.3400  0.1437
  250MOL0     C33649   5.558  12.573  11.276  0.2381  0.7928 -0.0748
  250MOL0     C33650   5.583  12.610  11.140 -0.4019 -0.2006  0.2890
  250MOL0     O33651   5.680  12.702  11.114  1.5980 -0.5262 -0.2992
  250MOL0     C33652   5.698  12.742  10.976 -0.4039  1.0008 -1.0017
  250MOL0     C33653   5.801  12.860  10.979 -1.0516 -0.6935 -0.1670
  250MOL0     C33654   5.945  12.814  11.024 -0.7516  0.3071  0.2022
  250MOL0     C33655   6.054  12.897  10.966  0.3745  1.2831  0.0740
  250MOL0     C33656   6.195  12.854  11.000  1.1660 -0.9320  0.6737
  250MOL0     C33657   6.298  12.969  10.948  0.6177 -0.1449  0.1368
  250MOL0     C33658   6.289  12.995  10.792  0.8449 -0.7970 -0.0911
  250MOL0     C33659   6.350  13.121  10.736 -0.0506 -0.2355  0.4820
  250MOL0    Cl33660   6.251  13.259  10.774  0.1087  0.0469 -0.1175
  250MOL0     C33661   5.516  12.524  11.039 -0.9270 -1.0008  0.7979
  250MOL0     C33662   5.437  12.414  11.073 -1.1207  0.4255 -0.2804
  250MOL0     O33663   5.507  12.121  11.175  0.7111 -0.5685 -0.4504
  250MOL0     C33664   5.330  11.914  11.219  0.4550 -0.1036 -0.0896
  250MOL0     C33665   5.261  11.805  11.276  0.2729  0.7601  0.5246
  250MOL0     N33666   4.685  11.790  11.193 -0.0300  0.3880  0.4331
  250MOL0     N33667   4.637  11.808  11.074 -0.1146  0.3250 -0.0345
  250MOL0     C33668   5.191  11.443  10.122 -0.8140 -0.4127 -0.1590
  250MOL0     C33669   5.263  11.425  10.004 -0.2677  0.0818 -0.3878
  250MOL0     C33670   5.350  11.317   9.569  0.1389 -0.0618 -0.0695
  250MOL0     C33671   5.321  11.361   9.439  0.0296 -0.1048  0.7433
  250MOL0     C33672   5.400  11.332   9.329 -0.5417 -0.6347  0.1998
  250MOL0     C33673   5.523  11.255   9.344  0.3551  0.7027 -0.2272
  250MOL0     O33674   5.603  11.241   9.232 -0.6284  0.0869  0.6289
  250MOL0     C33675   5.727  11.159   9.255  0.0175 -0.7164  0.5294
  250MOL0     C33676   5.806  11.197   9.138 -0.1091 -0.7723 -0.3219
  250MOL0     C33677   5.726  11.192   8.999  0.1437 -0.2530  0.9501
  250MOL0     C33678   5.628  11.073   8.970  0.1858 -0.1227 -0.5225
  250MOL0     C33679   5.711  10.955   8.953 -0.5384 -0.2923 -0.4216
  250MOL0     C33680   5.782  10.858   8.932  0.3015  0.4667 -0.6691
  250MOL0     C33681   5.552  11.217   9.472 -0.6737  0.5452  0.1503
  250MOL0     C33682   5.476  11.250   9.578  0.4232 -0.4709 -0.3813
  250MOL0     H33683   5.123  11.153   9.853  1.5269  0.4009  0.4419
  250MOL0     H33684   4.995  11.154  10.077  1.4693 -1.1317 -0.3110
  250MOL0     H33685   5.141  11.205  10.396  0.7894  0.3584 -0.2314
  250MOL0     H33686   5.208  11.363  10.384  2.2205 -2.7756  1.3162
  250MOL0     H33687   4.929  11.281  10.501  1.2005 -0.4496 -0.2833
  250MOL0     H33688   5.074  11.293  10.596 -2.0468 -2.2448  1.0300
  250MOL0     H33689   5.094  11.561  10.509 -1.3612  3.5219 -2.3296
  250MOL0     H33690   4.939  11.525  10.429  1.2234 -1.9484 -1.0536
  250MOL0     H33691   5.041  11.508  10.719 -0.0623 -4.4933 -1.8871
  250MOL0     H33692   4.945  11.638  10.683 -1.8798  0.4239  0.5898
  250MOL0     H33693   4.758  11.442  10.606 -0.8978  2.4167 -0.0667
  250MOL0     H33694   4.823  11.379  10.760  0.4299 -2.3291 -3.3897
  250MOL0     H33695   4.809  11.604  10.863 -0.0838  2.9606 -1.1746
  250MOL0     H33696   4.749  11.671  10.720 -0.4824 -0.4963  0.2822
  250MOL0     H33697   4.544  11.523  10.735  1.6674 -5.5330 -0.5122
  250MOL0     H33698   4.598  11.463  10.887  2.8811  1.0565  2.7360
  250MOL0     H33699   4.430  11.665  10.904 -0.9111 -0.6148 -0.5160
  250MOL0     H33700   4.546  11.769  10.839 -2.7703 -0.9980 -0.8142
  250MOL0     H33701   4.579  11.487  11.122 -1.9033  0.3326  1.5058
  250MOL0     H33702   4.653  11.641  11.440  3.2259 -0.2469  0.6995
  250MOL0     H33703   4.700  11.491  11.347  0.7706 -0.1799 -1.7182
  250MOL0     H33704   4.853  11.587  11.512 -0.9873  0.4455 -0.4229
  250MOL0     H33705   4.849  11.743  11.438  1.2461 -0.7479 -1.0526
  250MOL0     H33706   4.977  11.649  11.247 -5.3688  2.2930  1.4464
  250MOL0     H33707   4.944  11.482  11.298 -1.0012  0.6548  0.9319
  250MOL0     H33708   5.170  11.538  11.371 -0.6806 -1.5529  0.1788
  250MOL0     H33709   5.075  11.504  11.495  1.6207 -2.3725 -1.6431
  250MOL0     H33710   5.167  11.941  11.578  1.5656  1.3793  1.8566
  250MOL0     H33711   5.418  12.175  11.521 -0.1293 -0.7319  2.9228
  250MOL0     H33712   5.251  12.221  11.477 -0.2358 -1.3654 -0.4424
  250MOL0     H33713   5.293  12.126  11.625 -3.0903 -0.1759 -0.4067
  250MOL0     H33714   5.451  12.442  11.407  1.3733  2.3885  0.8956
  250MOL0     H33715   5.608  12.623  11.359 -0.1238  0.5808  0.2755
  250MOL0     H33716   5.740  12.656  10.922  1.1636  0.0173  1.6303
  250MOL0     H33717   5.603  12.766  10.927 -0.3282  0.6443 -1.3313
  250MOL0     H33718   5.820  12.902  10.879  0.3771 -2.7421 -0.8407
  250MOL0     H33719   5.760  12.936  11.046  0.5729 -1.3927  1.6940
  250MOL0     H33720   5.962  12.716  10.979 -3.8348  0.9792 -2.7978
  250MOL0     H33721   5.953  12.809  11.133 -3.3157 -2.0757  0.3919
  250MOL0     H33722   6.034  12.903  10.859 -0.7162  0.0012  0.1865
  250MOL0     H33723   6.047  12.994  11.016  0.1096  1.1625  0.2690
  250MOL0     H33724   6.238  12.760  10.964  0.7442 -1.9810  2.8120
  250MOL0     H33725   6.188  12.851  11.109 -2.3008  4.1456  0.9784
  250MOL0     H33726   6.267  13.058  11.004  0.5735 -1.6925  2.7319
  250MOL0     H33727   6.398  12.945  10.984  1.2398  1.6023 -0.2941
  250MOL0     H33728   6.183  13.006  10.768  0.6052  0.2343  1.2967
  250MOL0     H33729   6.341  12.909  10.747  2.7235 -0.2588  0.9380
  250MOL0     H33730   6.351  13.128  10.627 -3.5436  2.4701  0.4458
  250MOL0     H33731   6.451  13.136  10.777 -0.2207  2.3220  0.1240
  250MOL0     H33732   5.534  12.553  10.936  3.1651 -0.8452  1.3953
  250MOL0     H33733   5.397  12.349  10.997 -1.0317 -1.6306  1.3490
  250MOL0     H33734   5.374  11.914  11.120 -0.2647  2.5661 -0.4920
  250MOL0     H33735   5.260  11.709  11.224  2.2554  1.5202 -1.0763
  250MOL0     H33736   5.209  11.528  10.187 -1.1138 -0.5487  0.1039
  250MOL0     H33737   5.345  11.493   9.985 -0.1693  0.3920  1.0166
  250MOL0     H33738   5.234  11.423   9.418  1.0116  2.2416  3.1110
  250MOL0     H33739   5.366  11.382   9.239  1.1505 -0.0133 -0.1288
  250MOL0     H33740   5.778  11.196   9.345 -1.7977 -0.8986  1.6740
  250MOL0     H33741   5.721  11.050   9.255  2.8907 -1.0660 -2.9424
  250MOL0     H33742   5.890  11.127   9.133  0.1923 -0.3965 -0.6025
  250MOL0     H33743   5.831  11.302   9.156  0.4536 -1.0883  0.9109
  250MOL0     H33744   5.810  11.191   8.929  0.5144 -2.2418  1.3683
  250MOL0     H33745   5.668  11.283   8.980 -0.1455 -0.8206 -1.2033
  250MOL0     H33746   5.567  11.083   8.880  0.8828 -0.7732 -1.0797
  250MOL0     H33747   5.558  11.061   9.053 -1.1421  2.4703 -1.1636
  250MOL0     H33748   5.847  10.777   8.907  0.5798  0.3352  0.4256
  250MOL0     H33749   5.631  11.143   9.475  0.3126  1.5879  3.1481
  250MOL0     H33750   5.503  11.233   9.682 -1.2964  0.1042  0.1974
  251MOL0     O33751   0.873   6.268   9.722  0.0224 -0.4112 -0.4365
  251MOL0     C33752   0.783   6.348   9.730  0.2395  0.4522  0.7770
  251MOL0     O33753   0.691   6.376   9.635  0.3148  0.1868  0.9952
  251MOL0     C33754   0.722   6.359   9.500  0.5512  0.8658 -0.4512
  251MOL0     C33755   0.701   6.243   9.441 -0.1771 -0.4397 -0.0428
  251MOL0     C33756   0.743   6.217   9.308 -0.1941 -0.0408 -0.3677
  251MOL0     C33757   0.796   6.326   9.230 -1.0887  0.6826 -0.2872
  251MOL0     O33758   0.851   6.304   9.108 -0.7432  0.0144  0.9714
  251MOL0     C33759   0.916   6.169   9.093  0.2057  0.7241 -0.7709
  251MOL0     C33760   1.012   6.167   8.970  0.7648  1.0269 -0.5929
  251MOL0     C33761   1.082   6.031   8.955  0.1182  0.5041 -0.2116
  251MOL0     C33762   1.093   5.989   8.809 -0.5648 -0.2903 -0.1887
  251MOL0     C33763   1.151   5.844   8.785  0.3623 -0.2728  0.6354
  251MOL0     C33764   1.294   5.813   8.841  0.2403 -0.0306 -0.2357
  251MOL0     C33765   1.322   5.668   8.860  0.4725  0.2064 -0.1299
  251MOL0     C33766   1.456   5.657   8.939 -0.1600 -0.1874  0.7077
  251MOL0     N33767   1.498   5.517   8.956 -0.2072  0.7975  0.1334
  251MOL0     C33768   1.440   5.421   9.035  0.6806 -0.1594 -0.2290
  251MOL0     C33769   1.512   5.314   9.010  0.1936  1.0712 -0.1218
  251MOL0     C33770   1.499   5.171   9.064 -0.0456 -0.6256 -0.1549
  251MOL0     C33771   1.352   5.139   9.101 -0.0457  0.3218 -0.2748
  251MOL0     C33772   1.334   5.000   9.141  1.0664  0.5443 -0.2341
  251MOL0     C33773   1.186   4.972   9.169  0.2908  0.3695 -0.8009
  251MOL0     O33774   1.112   4.947   9.046  0.8585 -0.3094 -0.2200
  251MOL0     C33775   1.118   4.829   8.979 -0.3409 -0.5579  0.8006
  251MOL0     C33776   1.061   4.825   8.847 -0.7058  0.9065 -0.0316
  251MOL0     C33777   1.056   4.697   8.778 -0.8906 -0.9522  0.7463
  251MOL0     C33778   0.999   4.699   8.641  0.0673 -0.1428  0.6947
  251MOL0     C33779   1.115   4.577   8.835 -0.1173  0.9906  0.7258
  251MOL0     C33780   1.096   4.442   8.779  0.1700 -0.8821 -0.3568
  251MOL0     O33781   1.094   4.433   8.641 -0.1294  0.7212 -0.9782
  251MOL0     C33782   1.106   4.307   8.587 -0.5453  0.1267  0.0797
  251MOL0     C33783   1.230   4.253   8.528  0.5730 -0.9977 -0.5514
  251MOL0     C33784   1.237   4.125   8.486  1.5993  0.8296 -0.4345
  251MOL0     C33785   1.125   4.041   8.468 -0.7973 -0.8201 -0.3250
  251MOL0     O33786   1.145   3.914   8.419  0.2059  0.5276 -0.6042
  251MOL0     C33787   1.036   3.861   8.351  0.0091 -0.6221  0.0999
  251MOL0     C33788   1.065   3.738   8.275  0.8513  1.3858 -0.3429
  251MOL0     C33789   1.128   3.633   8.369 -0.1689  0.1376 -0.3142
  251MOL0     C33790   1.146   3.501   8.300 -0.3713  0.1448  0.1034
  251MOL0     C33791   1.224   3.406   8.379 -0.8837 -0.2378 -0.2376
  251MOL0     C33792   1.241   3.267   8.316 -0.3593  0.4010  0.7966
  251MOL0     C33793   1.271   3.145   8.407 -0.1699 -1.1059 -0.2490
  251MOL0     C33794   1.311   3.023   8.321 -0.5640 -0.4266 -0.1580
  251MOL0    Cl33795   1.486   3.034   8.281 -0.2910 -0.2179 -0.2072
  251MOL0     C33796   1.006   4.094   8.525  0.4052 -0.1451  0.0119
  251MOL0     C33797   0.994   4.220   8.584 -0.0579 -0.4055  0.5582
  251MOL0     O33798   1.113   4.347   8.859  0.3534  0.6235  0.1815
  251MOL0     C33799   1.164   4.591   8.963 -0.5988 -1.2860  0.0249
  251MOL0     C33800   1.167   4.714   9.031 -0.8161 -1.1016  0.8393
  251MOL0     N33801   1.594   5.333   8.904  0.2964 -0.1408 -1.3674
  251MOL0     N33802   1.587   5.455   8.876 -1.1600 -0.0234 -0.4718
  251MOL0     C33803   0.818   6.452   9.295  0.1114 -0.1549  0.0656
  251MOL0     C33804   0.776   6.463   9.428 -1.9752 -0.7914 -0.2718
  251MOL0     C33805   0.773   6.427   9.860  0.7893  0.3332 -1.4547
  251MOL0     C33806   0.863   6.398   9.964  0.1948 -0.1427 -0.7915
  251MOL0     C33807   0.853   6.477  10.081  0.0316  0.4919 -0.1715
  251MOL0     C33808   0.737   6.562  10.104 -0.8234  0.1264  0.4237
  251MOL0     O33809   0.737   6.625  10.230 -0.0259 -0.0782  0.8006
  251MOL0     C33810   0.635   6.715  10.278 -0.3738  0.0249 -0.8496
  251MOL0     C33811   0.690   6.798  10.395  0.3005  0.9851 -0.3612
  251MOL0     C33812   0.804   6.886  10.375  0.5627 -0.0114  0.2996
  251MOL0     C33813   0.771   6.989  10.259 -0.4156 -0.0739  0.5709
  251MOL0     C33814   0.893   7.073  10.229  0.6760 -0.1502 -0.9220
  251MOL0     C33815   0.960   7.167  10.188 -1.0311  0.3418  0.2297
  251MOL0     C33816   0.637   6.558  10.010  0.5573 -0.6510  1.1032
  251MOL0     C33817   0.652   6.497   9.886  0.4601  0.0437  1.0789
  251MOL0     H33818   0.652   6.179   9.513  0.1853 -1.1735 -0.4286
  251MOL0     H33819   0.738   6.115   9.271  1.6431 -0.5170  0.6100
  251MOL0     H33820   0.957   6.121   9.183  1.6324  0.8164 -1.3422
  251MOL0     H33821   0.834   6.108   9.055 -1.5170  2.4858 -0.0353
  251MOL0     H33822   0.959   6.179   8.875  2.9165  1.7780 -1.7732
  251MOL0     H33823   1.063   6.264   8.973 -0.1541  1.6651 -2.9159
  251MOL0     H33824   1.175   6.029   9.013 -0.9252 -4.6587  1.8403
  251MOL0     H33825   1.029   5.946   9.000 -0.1743  0.8632  0.1350
  251MOL0     H33826   0.990   5.997   8.774 -0.6998  1.2843  0.5078
  251MOL0     H33827   1.160   6.049   8.747 -0.6668 -3.5083 -3.8723
  251MOL0     H33828   1.078   5.780   8.835 -2.9826  2.4622 -0.4363
  251MOL0     H33829   1.152   5.817   8.679  0.5410  1.8570  0.0427
  251MOL0     H33830   1.370   5.855   8.774  0.5614  0.6270  0.5180
  251MOL0     H33831   1.321   5.869   8.932  1.9804 -0.9566 -0.1333
  251MOL0     H33832   1.238   5.620   8.910  0.8483  0.7412  1.0743
  251MOL0     H33833   1.337   5.615   8.766 -0.0713 -3.0805  1.4976
  251MOL0     H33834   1.444   5.703   9.037  0.6821  1.1449  0.2260
  251MOL0     H33835   1.535   5.715   8.889 -0.8015 -1.0216 -1.4066
  251MOL0     H33836   1.354   5.430   9.101 -0.4584 -0.3453 -1.6204
  251MOL0     H33837   1.538   5.100   8.990  0.9166  0.3865 -0.6472
  251MOL0     H33838   1.544   5.147   9.161 -1.0091 -4.3797 -0.4833
  251MOL0     H33839   1.297   5.170   9.012  0.0332  1.9292  0.2095
  251MOL0     H33840   1.318   5.199   9.186 -0.0659 -0.6072  0.3920
  251MOL0     H33841   1.391   4.967   9.228  1.8599  0.0259 -0.9245
  251MOL0     H33842   1.369   4.935   9.060  0.1425  0.9853 -1.0000
  251MOL0     H33843   1.143   5.065   9.209 -1.9097  0.6650 -3.5437
  251MOL0     H33844   1.174   4.890   9.240  1.6288 -1.7037 -2.8499
  251MOL0     H33845   1.019   4.915   8.803 -1.7632 -0.4442 -1.9388
  251MOL0     H33846   0.906   4.646   8.662  0.0248 -0.5202 -0.4051
  251MOL0     H33847   0.974   4.796   8.597 -1.6276 -1.6529 -1.9556
  251MOL0     H33848   1.055   4.639   8.569 -0.3117 -0.6922  0.8566
  251MOL0     H33849   1.318   4.316   8.520 -0.2351  0.1675 -0.4023
  251MOL0     H33850   1.333   4.084   8.458  1.4295  1.2980 -1.7330
  251MOL0     H33851   0.957   3.835   8.422  1.2678 -1.5015  1.2449
  251MOL0     H33852   0.994   3.936   8.284  0.4934  1.3929  1.9323
  251MOL0     H33853   0.967   3.702   8.242  0.5339  0.2596  1.6506
  251MOL0     H33854   1.122   3.761   8.184 -0.4314  0.7204 -1.3527
  251MOL0     H33855   1.059   3.623   8.453 -0.0806 -3.0878 -0.4723
  251MOL0     H33856   1.223   3.674   8.405 -0.3285  0.4128 -0.2096
  251MOL0     H33857   1.050   3.457   8.272  0.3300  0.4115 -3.1142
  251MOL0     H33858   1.203   3.510   8.207  0.5562 -0.4392  0.6026
  251MOL0     H33859   1.161   3.401   8.469  1.0340  2.6053  1.4593
  251MOL0     H33860   1.325   3.439   8.407 -0.4266 -1.2146 -0.6871
  251MOL0     H33861   1.142   3.255   8.272 -0.7949  0.4395  1.7310
  251MOL0     H33862   1.314   3.273   8.235 -3.7479 -0.1095 -2.5499
  251MOL0     H33863   1.188   3.133   8.477 -0.5075  1.1856 -0.1672
  251MOL0     H33864   1.366   3.169   8.456  1.1326 -2.4445 -1.9711
  251MOL0     H33865   1.246   3.022   8.233 -1.5390 -2.4513  0.5023
  251MOL0     H33866   1.283   2.934   8.379 -2.3982  1.1654  1.5315
  251MOL0     H33867   0.921   4.026   8.525  1.2012 -1.1573  0.2484
  251MOL0     H33868   0.893   4.232   8.623 -0.1163  2.6535 -0.2184
  251MOL0     H33869   1.207   4.500   9.002  4.0660  0.7159  0.1262
  251MOL0     H33870   1.211   4.707   9.131 -0.5117 -1.6176  0.6720
  251MOL0     H33871   0.871   6.526   9.237  1.9633 -1.7508 -0.3737
  251MOL0     H33872   0.799   6.561   9.470  0.3763 -1.9988  1.5218
  251MOL0     H33873   0.939   6.320   9.961  0.8880  0.5363 -1.2887
  251MOL0     H33874   0.932   6.467  10.154 -0.4969 -0.8551  0.2388
  251MOL0     H33875   0.585   6.773  10.200 -1.0831  0.5226 -0.0453
  251MOL0     H33876   0.561   6.647  10.322  0.3538 -0.6513 -0.6513
  251MOL0     H33877   0.727   6.736  10.477  1.0693  2.9165  0.8152
  251MOL0     H33878   0.601   6.857  10.423 -0.6179  0.5228 -2.1539
  251MOL0     H33879   0.886   6.831  10.329  0.7132  1.2472 -1.0170
  251MOL0     H33880   0.842   6.929  10.468  0.6421 -1.9712  1.2069
  251MOL0     H33881   0.693   7.060  10.287  0.5385  0.6992  1.3253
  251MOL0     H33882   0.751   6.933  10.167 -1.2770  2.1302 -0.6702
  251MOL0     H33883   1.028   7.246  10.164  1.0485 -1.2354  0.6303
  251MOL0     H33884   0.548   6.619  10.023  1.5551  1.4141 -0.9790
  251MOL0     H33885   0.580   6.512   9.807  3.5532  2.0853 -1.6038
  252MOL0     O33886   7.016   1.617   5.581  0.0343 -0.7813 -0.1767
  252MOL0     C33887   6.944   1.609   5.478 -0.5189  0.5862 -0.4842
  252MOL0     O33888   6.877   1.495   5.435  1.0557 -0.3472 -0.6795
  252MOL0     C33889   6.865   1.396   5.527 -0.2487  0.2106  1.0618
  252MOL0     C33890   6.948   1.278   5.521 -0.2837 -0.0398 -0.3071
  252MOL0     C33891   6.937   1.178   5.624 -0.2811 -0.4195 -0.6427
  252MOL0     C33892   6.835   1.173   5.727  0.1501  0.3382  0.5330
  252MOL0     O33893   6.827   1.089   5.836 -0.3647  0.2359  0.4418
  252MOL0     C33894   6.918   1.125   5.940 -0.9358  0.4739 -0.2833
  252MOL0     C33895   6.877   1.253   6.017 -0.0600  0.4799 -0.3619
  252MOL0     C33896   6.958   1.372   5.972 -0.8794  0.0027 -0.0597
  252MOL0     C33897   6.887   1.504   5.976 -0.0137  0.4234 -0.2973
  252MOL0     C33898   6.974   1.610   5.905 -0.1187  1.0527 -0.9383
  252MOL0     C33899   6.877   1.727   5.875 -0.6934 -0.0908  1.1286
  252MOL0     C33900   6.963   1.848   5.829 -0.1067  0.1243 -0.2978
  252MOL0     C33901   6.878   1.966   5.787 -0.6829 -0.3695  0.1621
  252MOL0     N33902   6.953   2.088   5.768 -0.2846 -0.5739 -0.4371
  252MOL0     C33903   7.012   2.124   5.652  0.2872  0.0165 -0.6694
  252MOL0     C33904   7.063   2.245   5.671 -0.4235  0.3959 -0.0688
  252MOL0     C33905   7.140   2.335   5.577 -0.8182 -0.0046  0.3466
  252MOL0     C33906   7.263   2.272   5.508  0.2613  1.2088 -0.2349
  252MOL0     C33907   7.362   2.382   5.459  0.4370  0.2812 -0.2244
  252MOL0     C33908   7.306   2.470   5.349  0.6552 -0.4062 -0.4866
  252MOL0     O33909   7.247   2.390   5.249 -0.6078 -0.1861 -0.3599
  252MOL0     C33910   7.331   2.342   5.147  0.2804  0.1302 -0.8845
  252MOL0     C33911   7.270   2.267   5.056 -0.4422 -0.1731 -0.3381
  252MOL0     C33912   7.336   2.209   4.949  0.2798 -0.2117  0.1460
  252MOL0     C33913   7.250   2.113   4.874 -0.2970  0.2069  1.2697
  252MOL0     C33914   7.476   2.225   4.936 -0.1048 -0.2442 -0.3750
  252MOL0     C33915   7.571   2.186   4.833  0.6485 -0.5370 -0.0969
  252MOL0     O33916   7.702   2.201   4.866  0.0947 -0.1614  0.2104
  252MOL0     C33917   7.804   2.173   4.785 -0.3068 -0.1453 -0.5948
  252MOL0     C33918   7.927   2.152   4.842  0.2932 -0.0497  0.4790
  252MOL0     C33919   8.040   2.113   4.769  0.0653  0.2236  0.1886
  252MOL0     C33920   8.026   2.111   4.632 -0.3063  1.2394  0.5244
  252MOL0     O33921   8.129   2.077   4.548  0.7441  0.4027 -0.4863
  252MOL0     C33922   8.250   2.030   4.621  0.3834 -0.4459 -1.0037
  252MOL0     C33923   8.357   1.993   4.526 -1.2785  0.9769  0.9028
  252MOL0     C33924   8.334   1.844   4.469  0.0252 -0.3500 -0.3973
  252MOL0     C33925   8.411   1.794   4.341  0.6061 -0.2311 -0.2245
  252MOL0     C33926   8.346   1.666   4.285  0.9578 -0.8941  0.1388
  252MOL0     C33927   8.372   1.638   4.136  0.4382  0.8545  0.0470
  252MOL0     C33928   8.290   1.513   4.105  0.3506 -0.9962 -0.2020
  252MOL0     C33929   8.329   1.459   3.963  0.4287  0.7698 -0.6629
  252MOL0    Cl33930   8.502   1.469   3.931 -0.1405 -0.8597 -0.3412
  252MOL0     C33931   7.907   2.135   4.573  1.4242 -0.7359 -0.0514
  252MOL0     C33932   7.792   2.158   4.646 -1.4084 -0.9101 -0.2148
  252MOL0     O33933   7.527   2.123   4.740 -0.1777  0.2713 -0.4874
  252MOL0     C33934   7.541   2.312   5.037  0.1870  0.0742  0.8105
  252MOL0     C33935   7.466   2.372   5.138  0.0195 -0.0903 -0.0347
  252MOL0     N33936   7.034   2.277   5.797  0.9211 -0.7253 -0.6624
  252MOL0     N33937   6.966   2.188   5.861  0.7421  0.6359  0.5718
  252MOL0     C33938   6.743   1.282   5.711  0.3049  0.0862  0.6204
  252MOL0     C33939   6.762   1.386   5.619  0.4575 -0.2199  0.2836
  252MOL0     C33940   6.944   1.723   5.379  0.0031 -0.4380 -1.0573
  252MOL0     C33941   7.027   1.841   5.391 -0.4374 -0.1275  0.2403
  252MOL0     C33942   7.015   1.950   5.299  0.2659  0.7462  0.2269
  252MOL0     C33943   6.934   1.935   5.182  0.4505 -0.4721 -0.1088
  252MOL0     O33944   6.912   2.046   5.096 -0.2454  0.5724 -0.0254
  252MOL0     C33945   6.857   2.016   4.966 -0.3367 -0.4188 -0.4646
  252MOL0     C33946   6.828   2.133   4.870 -0.0064  0.1340 -0.4485
  252MOL0     C33947   6.756   2.249   4.928  0.2517 -0.7121  0.0988
  252MOL0     C33948   6.628   2.228   5.000 -0.6736 -0.3197 -0.0474
  252MOL0     C33949   6.561   2.358   5.034 -1.2792  0.1001 -1.4893
  252MOL0     C33950   6.520   2.465   5.073  0.0404  0.4405  0.0808
  252MOL0     C33951   6.873   1.819   5.161  0.6658  0.2722  0.7240
  252MOL0     C33952   6.868   1.719   5.261  0.3264 -0.3841 -0.5240
  252MOL0     H33953   7.026   1.265   5.447  0.5642  0.9295  0.3901
  252MOL0     H33954   6.993   1.088   5.602  0.7894 -0.4412  1.8583
  252MOL0     H33955   6.896   1.040   6.006 -2.2512  0.0361 -1.2565
  252MOL0     H33956   7.025   1.137   5.921 -0.7385  2.1290  1.5389
  252MOL0     H33957   6.768   1.254   6.010 -0.3908 -3.2273  1.7532
  252MOL0     H33958   6.888   1.234   6.125  0.8386  0.5138 -0.4414
  252MOL0     H33959   7.049   1.375   6.032  0.4622 -0.4751 -2.0217
  252MOL0     H33960   7.002   1.344   5.876  2.0146  1.8678  0.6115
  252MOL0     H33961   6.790   1.491   5.927 -0.9059  0.0105  1.4759
  252MOL0     H33962   6.861   1.523   6.080  3.0153 -2.5631  1.1877
  252MOL0     H33963   7.055   1.647   5.969 -0.7012  3.2658 -1.3975
  252MOL0     H33964   7.010   1.565   5.812  3.6933  0.2809  0.7185
  252MOL0     H33965   6.816   1.688   5.793  1.0386  0.3721 -0.4629
  252MOL0     H33966   6.813   1.759   5.957 -1.1586  0.2321  0.6443
  252MOL0     H33967   7.023   1.875   5.917 -0.8998  1.2966 -0.0916
  252MOL0     H33968   7.032   1.835   5.746 -0.5673  1.9932 -1.0225
  252MOL0     H33969   6.809   1.982   5.871  2.1324 -1.6101  2.9424
  252MOL0     H33970   6.817   1.951   5.698 -1.9820  1.3646  0.7074
  252MOL0     H33971   7.009   2.076   5.555 -0.2683 -2.8931  0.6868
  252MOL0     H33972   7.070   2.370   5.501 -1.0862  1.8812  1.4149
  252MOL0     H33973   7.162   2.426   5.633 -1.1069 -1.1154  2.3485
  252MOL0     H33974   7.233   2.211   5.422 -0.7692 -1.1160  1.6401
  252MOL0     H33975   7.308   2.202   5.579 -0.9041 -0.2849 -0.9054
  252MOL0     H33976   7.455   2.332   5.432  0.7268  0.3934  0.5611
  252MOL0     H33977   7.380   2.454   5.539  0.7665 -0.3056  0.2272
  252MOL0     H33978   7.385   2.536   5.313  0.7843  0.2832  0.9756
  252MOL0     H33979   7.225   2.533   5.387  1.6313  2.2762 -2.6010
  252MOL0     H33980   7.163   2.247   5.065 -0.4769 -0.0519 -0.4712
  252MOL0     H33981   7.152   2.106   4.921 -0.1233 -0.4123  1.5518
  252MOL0     H33982   7.230   2.176   4.786 -2.3859 -1.0497  0.7659
  252MOL0     H33983   7.292   2.016   4.846 -0.5874  0.5291 -0.3983
  252MOL0     H33984   7.929   2.159   4.951 -0.1422 -1.4238  0.5845
  252MOL0     H33985   8.126   2.092   4.832  2.1406  0.6216 -2.3627
  252MOL0     H33986   8.282   2.119   4.677  0.5850 -0.7768 -0.5906
  252MOL0     H33987   8.239   1.946   4.690  2.2557  1.3193  1.6771
  252MOL0     H33988   8.356   2.056   4.436 -1.3187  0.9735  0.9011
  252MOL0     H33989   8.452   2.010   4.576  0.6474  2.8287 -2.8991
  252MOL0     H33990   8.226   1.839   4.452 -0.2353  0.8342  0.7227
  252MOL0     H33991   8.350   1.772   4.550 -1.3972  2.3663  2.5337
  252MOL0     H33992   8.401   1.871   4.264 -0.5497 -0.3370 -0.1881
  252MOL0     H33993   8.516   1.785   4.371  0.1321  0.5745  1.8521
  252MOL0     H33994   8.237   1.675   4.291  1.1390  0.5844  2.2519
  252MOL0     H33995   8.367   1.583   4.353  2.0735 -0.0693  0.8330
  252MOL0     H33996   8.341   1.720   4.072 -0.3031 -0.1678 -0.9487
  252MOL0     H33997   8.477   1.612   4.118  0.2033  0.1079 -0.2981
  252MOL0     H33998   8.181   1.527   4.106  0.0030 -3.2093  1.6913
  252MOL0     H33999   8.318   1.446   4.187  1.4924  1.7718  1.8145
  252MOL0     H34000   8.285   1.531   3.894  3.4991  4.1430  0.5663
  252MOL0     H34001   8.287   1.360   3.941 -0.0154  0.9234 -0.5164
  252MOL0     H34002   7.897   2.139   4.465 -0.3864  2.1759  0.1074
  252MOL0     H34003   7.697   2.168   4.595 -1.3377  3.5342  0.2151
  252MOL0     H34004   7.642   2.351   5.030 -0.0556  0.5114 -0.6098
  252MOL0     H34005   7.515   2.436   5.211 -0.1809 -0.4834  0.4511
  252MOL0     H34006   6.658   1.296   5.778  1.9623  1.6634  2.5084
  252MOL0     H34007   6.695   1.472   5.615 -0.9668 -1.3189 -0.7619
  252MOL0     H34008   7.077   1.849   5.487  0.2993  0.4401 -0.1866
  252MOL0     H34009   7.084   2.034   5.312 -1.3296  1.7997  2.8427
  252MOL0     H34010   6.911   1.939   4.909 -2.4199 -1.8867 -0.5729
  252MOL0     H34011   6.757   1.973   4.977 -0.4935 -1.0480 -3.3287
  252MOL0     H34012   6.761   2.101   4.790 -1.9366 -1.6804  1.7528
  252MOL0     H34013   6.922   2.166   4.824  0.1624  2.2988  1.2745
  252MOL0     H34014   6.743   2.332   4.857  3.0040  2.2144  2.6898
  252MOL0     H34015   6.826   2.290   5.001  0.5855  4.5050 -2.6464
  252MOL0     H34016   6.653   2.181   5.095  0.9523  3.4957  1.6076
  252MOL0     H34017   6.559   2.168   4.939 -0.3880  0.6232 -1.3497
  252MOL0     H34018   6.476   2.549   5.122 -1.4426 -0.8882  1.1498
  252MOL0     H34019   6.823   1.780   5.073  0.9811 -1.4360  1.2628
  252MOL0     H34020   6.810   1.630   5.240 -0.0380 -0.2708 -0.0087
  253MOL0     O34021   5.521   0.848   6.430  0.3626 -0.2877 -1.0464
  253MOL0     C34022   5.417   0.838   6.499 -0.0839  0.0574  0.9172
  253MOL0     O34023   5.293   0.815   6.449  0.4015  0.2925  0.1157
  253MOL0     C34024   5.263   0.807   6.310 -1.2473  0.2505 -0.1831
  253MOL0     C34025   5.334   0.728   6.213  0.5326 -0.2480 -0.3729
  253MOL0     C34026   5.270   0.683   6.101 -0.0032 -0.4985  1.4086
  253MOL0     C34027   5.139   0.727   6.070 -0.4144  0.4195  0.6106
  253MOL0     O34028   5.080   0.671   5.958 -0.3978  0.0433 -0.3270
  253MOL0     C34029   4.957   0.718   5.905 -0.3826 -0.2719 -0.1948
  253MOL0     C34030   4.909   0.604   5.822 -0.4334  0.4208  0.4071
  253MOL0     C34031   4.853   0.477   5.919 -0.6554 -0.4485  1.7054
  253MOL0     C34032   4.949   0.422   6.026  0.2471 -0.1468 -0.0028
  253MOL0     C34033   4.887   0.299   6.095 -0.0660 -0.8199  0.1285
  253MOL0     C34034   4.902   0.190   5.990  1.0416 -0.2793 -0.5969
  253MOL0     C34035   4.810   0.077   6.036  0.2183  0.4145  0.1909
  253MOL0     C34036   4.861  -0.065   6.010 -0.7271  0.5053 -0.5532
  253MOL0     N34037   4.777  -0.168   6.082  0.1218  0.1780  0.4495
  253MOL0     C34038   4.661  -0.216   6.034 -0.2267 -0.1204 -0.2687
  253MOL0     C34039   4.618  -0.307   6.123 -1.1028 -0.1352 -0.3964
  253MOL0     C34040   4.499  -0.392   6.104  0.8154  0.4188  0.9678
  253MOL0     C34041   4.529  -0.538   6.067  0.3117 -0.5004 -0.6850
  253MOL0     C34042   4.636  -0.533   5.960 -0.3108 -0.2459 -0.6252
  253MOL0     C34043   4.672  -0.666   5.910  0.8044  0.0786  0.1675
  253MOL0     O34044   4.752  -0.663   5.788 -0.5271 -0.0074 -0.3978
  253MOL0     C34045   4.817  -0.779   5.751 -1.4592  1.0196 -0.6863
  253MOL0     C34046   4.803  -0.817   5.627  0.4032 -0.5063 -0.1183
  253MOL0     C34047   4.871  -0.925   5.572  0.0827  0.0685  0.2590
  253MOL0     C34048   4.851  -0.949   5.421  0.2030  0.0046  0.0109
  253MOL0     C34049   4.960  -1.003   5.659  1.1150 -0.4066 -0.1434
  253MOL0     C34050   5.024  -1.137   5.615  1.8994 -0.9311 -1.2973
  253MOL0     O34051   4.946  -1.219   5.543 -0.9196  0.4991 -0.2769
  253MOL0     C34052   4.996  -1.349   5.544  0.1841  0.7544 -1.0490
  253MOL0     C34053   4.940  -1.452   5.627 -0.5991 -0.6766  0.4698
  253MOL0     C34054   4.984  -1.583   5.636  0.6456  0.7403  0.4007
  253MOL0     C34055   5.085  -1.623   5.547  0.6373 -0.2835  0.2771
  253MOL0     O34056   5.142  -1.749   5.546 -0.0162  0.7762  0.4396
  253MOL0     C34057   5.098  -1.849   5.639  0.2306 -1.6830  0.1261
  253MOL0     C34058   5.171  -1.985   5.614 -0.4850  0.2631 -0.5126
  253MOL0     C34059   5.322  -1.971   5.635 -0.1319 -0.1005 -0.6958
  253MOL0     C34060   5.395  -2.098   5.585  0.5256 -1.1067 -0.2005
  253MOL0     C34061   5.547  -2.068   5.617 -0.0030  0.3658 -0.2951
  253MOL0     C34062   5.638  -2.184   5.578  0.4273 -0.2471  0.0870
  253MOL0     C34063   5.617  -2.224   5.436 -0.1592 -0.3824 -0.6696
  253MOL0     C34064   5.732  -2.313   5.382 -0.7225 -0.3094  0.4970
  253MOL0    Cl34065   5.733  -2.470   5.452 -0.3525  0.1788  0.1934
  253MOL0     C34066   5.129  -1.527   5.450  0.6267 -0.0173  0.8075
  253MOL0     C34067   5.089  -1.395   5.455 -0.1103  0.4006  0.1837
  253MOL0     O34068   5.118  -1.163   5.692  0.6711  0.8095  0.3081
  253MOL0     C34069   4.966  -0.962   5.792 -0.1515  0.2151 -0.3779
  253MOL0     C34070   4.901  -0.851   5.837  0.3974  0.4244 -1.1442
  253MOL0     N34071   4.711  -0.308   6.231  0.2352 -0.1987  1.1225
  253MOL0     N34072   4.810  -0.229   6.199  0.1087  0.5833 -0.0189
  253MOL0     C34073   5.070   0.812   6.161 -0.5861 -0.6442  0.2571
  253MOL0     C34074   5.138   0.840   6.277 -0.1609  0.4643  0.3304
  253MOL0     C34075   5.435   0.819   6.643  0.4440  0.1135  0.2464
  253MOL0     C34076   5.313   0.792   6.717 -1.1632  0.9471 -0.4561
  253MOL0     C34077   5.325   0.781   6.860  0.2501 -0.4154 -0.5988
  253MOL0     C34078   5.448   0.796   6.924  1.1981 -0.2131 -1.1852
  253MOL0     O34079   5.463   0.785   7.060  0.7170  0.2129 -0.5042
  253MOL0     C34080   5.407   0.674   7.127 -0.4465 -0.0722  0.0311
  253MOL0     C34081   5.494   0.550   7.115  0.8286 -1.0841  0.2963
  253MOL0     C34082   5.432   0.409   7.142 -0.1622  0.1352  0.0937
  253MOL0     C34083   5.367   0.375   7.277 -1.0821 -0.0638 -0.7523
  253MOL0     C34084   5.475   0.380   7.381  0.3606  0.0439  0.3106
  253MOL0     C34085   5.559   0.397   7.461 -0.1338  0.4307 -0.7253
  253MOL0     C34086   5.557   0.845   6.851 -0.0736 -0.2084 -0.0301
  253MOL0     C34087   5.554   0.844   6.711  0.0670 -0.2238  0.3694
  253MOL0     H34088   5.432   0.697   6.247 -0.7375  0.1648  4.2938
  253MOL0     H34089   5.322   0.612   6.037  1.5148 -0.6399  2.7442
  253MOL0     H34090   4.882   0.748   5.979 -0.3787 -2.3775  0.7500
  253MOL0     H34091   4.976   0.807   5.845  0.2295  2.1449  3.2496
  253MOL0     H34092   4.844   0.642   5.743 -0.1966  2.9740  1.3430
  253MOL0     H34093   4.994   0.558   5.770  0.2789 -2.3971  3.7113
  253MOL0     H34094   4.761   0.503   5.972 -1.6323  1.1463 -0.5967
  253MOL0     H34095   4.824   0.400   5.848 -0.6398 -1.9578  3.2801
  253MOL0     H34096   5.050   0.397   5.991 -0.7641 -1.8994 -1.9037
  253MOL0     H34097   4.968   0.492   6.108  0.9883 -2.0381  1.5470
  253MOL0     H34098   4.928   0.276   6.194  2.6681  2.8017  0.0264
  253MOL0     H34099   4.781   0.315   6.118 -0.0287  1.9317 -1.1507
  253MOL0     H34100   4.886   0.213   5.884  0.0374  5.5490  0.5229
  253MOL0     H34101   5.008   0.164   5.997  1.0220  0.0557  1.6679
  253MOL0     H34102   4.810   0.075   6.145  0.6514 -2.5712  0.2061
  253MOL0     H34103   4.704   0.091   6.010 -0.6775 -2.1089  2.0858
  253MOL0     H34104   4.965  -0.077   6.043 -0.7943  0.8185 -0.2105
  253MOL0     H34105   4.874  -0.095   5.906  1.2318 -1.1484  0.1031
  253MOL0     H34106   4.606  -0.180   5.948  1.1219 -1.2274 -1.6204
  253MOL0     H34107   4.454  -0.391   6.204 -2.6440 -0.4320 -0.4532
  253MOL0     H34108   4.429  -0.364   6.025  2.5968 -3.5753 -2.3987
  253MOL0     H34109   4.439  -0.591   6.035 -0.1647 -0.0366 -0.1305
  253MOL0     H34110   4.561  -0.603   6.149  1.1157 -0.6413 -1.0920
  253MOL0     H34111   4.729  -0.491   6.000 -1.6384  2.4647 -0.1784
  253MOL0     H34112   4.608  -0.459   5.885  2.4257  0.8252 -0.7236
  253MOL0     H34113   4.584  -0.724   5.882 -0.6911  2.7982 -1.2323
  253MOL0     H34114   4.729  -0.704   5.995  1.9711 -1.1689 -1.1205
  253MOL0     H34115   4.737  -0.758   5.565  1.3796 -0.3382 -1.0277
  253MOL0     H34116   4.793  -1.041   5.409 -1.7900  1.3614 -1.3585
  253MOL0     H34117   4.785  -0.872   5.380 -1.2226 -0.6374  0.9987
  253MOL0     H34118   4.939  -0.949   5.358 -0.0839 -0.5871 -0.3948
  253MOL0     H34119   4.857  -1.422   5.691  0.4194 -3.3268  3.2657
  253MOL0     H34120   4.940  -1.661   5.698  0.5442 -2.1097 -2.9581
  253MOL0     H34121   5.115  -1.809   5.739 -1.0740  2.5803 -1.1342
  253MOL0     H34122   4.993  -1.869   5.618  0.1653 -1.4783  0.2579
  253MOL0     H34123   5.139  -2.066   5.680 -1.2705 -0.1046 -1.3277
  253MOL0     H34124   5.148  -2.015   5.511  0.8644  0.5104 -0.9091
  253MOL0     H34125   5.344  -1.961   5.742  3.9009  1.0077 -1.4761
  253MOL0     H34126   5.352  -1.875   5.593 -1.3091  0.8006  0.4455
  253MOL0     H34127   5.360  -2.177   5.653  0.1464 -0.6211  0.1806
  253MOL0     H34128   5.360  -2.135   5.489  0.7039 -4.1447  0.8164
  253MOL0     H34129   5.555  -2.063   5.726 -1.8439 -3.6268  0.2240
  253MOL0     H34130   5.579  -1.976   5.568 -0.6748 -0.8349 -3.2174
  253MOL0     H34131   5.742  -2.158   5.598  0.6068  1.3948 -2.5671
  253MOL0     H34132   5.622  -2.268   5.647  2.7769 -0.0529  0.9754
  253MOL0     H34133   5.608  -2.140   5.367 -0.4435 -1.9905 -2.6845
  253MOL0     H34134   5.520  -2.273   5.428 -1.3984  2.0123 -1.1918
  253MOL0     H34135   5.821  -2.250   5.393 -3.5312  4.2035  0.0973
  253MOL0     H34136   5.706  -2.315   5.276 -0.6183  1.0072  0.4311
  253MOL0     H34137   5.203  -1.563   5.379  0.4764 -0.7026  0.9923
  253MOL0     H34138   5.122  -1.329   5.376 -3.3141  0.6262 -1.1236
  253MOL0     H34139   5.018  -1.025   5.864 -0.5498 -1.6834 -1.6718
  253MOL0     H34140   4.908  -0.830   5.943  2.6430  2.4385 -1.5866
  253MOL0     H34141   4.968   0.848   6.162 -1.1023 -2.0541  0.7486
  253MOL0     H34142   5.072   0.877   6.355 -1.4772 -1.5592  0.2417
  253MOL0     H34143   5.214   0.769   6.678 -1.1780 -0.7885  0.4798
  253MOL0     H34144   5.242   0.749   6.923  0.8295  0.9676  0.9617
  253MOL0     H34145   5.401   0.707   7.232 -3.1462  1.6790 -0.5651
  253MOL0     H34146   5.310   0.640   7.089 -0.2248 -1.2845  0.4992
  253MOL0     H34147   5.577   0.576   7.181 -0.4327 -0.8681  1.8573
  253MOL0     H34148   5.517   0.543   7.008 -2.5820  1.5979 -0.8467
  253MOL0     H34149   5.504   0.329   7.125 -2.6763 -1.8800 -1.7832
  253MOL0     H34150   5.349   0.389   7.075 -0.5151 -2.4733  1.1980
  253MOL0     H34151   5.340   0.269   7.286 -0.1114 -0.5086 -2.6697
  253MOL0     H34152   5.290   0.446   7.308 -0.8496  0.3300 -1.0772
  253MOL0     H34153   5.637   0.417   7.532 -1.8889  2.3899  0.7542
  253MOL0     H34154   5.653   0.880   6.886  0.4675 -3.0984  1.7547
  253MOL0     H34155   5.637   0.868   6.645 -1.8115  1.6198 -1.4488
  254MOL0     O34156   0.850   8.114   3.210  0.1730  0.5151  0.3090
  254MOL0     C34157   0.930   8.208   3.200  0.0328 -0.6621 -0.4953
  254MOL0     O34158   0.998   8.265   3.307 -0.0703 -0.3029 -0.1015
  254MOL0     C34159   0.961   8.242   3.433 -0.7622  0.5710 -0.0453
  254MOL0     C34160   1.073   8.262   3.516  0.4931 -0.1935  0.4907
  254MOL0     C34161   1.046   8.263   3.652  0.2585  0.3268 -0.2019
  254MOL0     C34162   0.931   8.220   3.709  1.1580  0.0680 -0.6711
  254MOL0     O34163   0.920   8.232   3.842 -0.7681  0.6093 -0.2965
  254MOL0     C34164   0.802   8.221   3.932  0.6438 -0.3108  0.3351
  254MOL0     C34165   0.771   8.082   3.962 -0.3415  0.4633 -0.0471
  254MOL0     C34166   0.900   8.013   4.023  0.1033  0.5087 -0.8532
  254MOL0     C34167   0.870   7.900   4.119 -0.0637  0.1287  0.0066
  254MOL0     C34168   0.978   7.800   4.153  0.3713 -0.2617  0.3101
  254MOL0     C34169   1.083   7.846   4.259 -0.7738 -0.5242 -0.1133
  254MOL0     C34170   1.141   7.722   4.314 -1.0777  0.2276 -0.5658
  254MOL0     C34171   1.266   7.755   4.399 -0.3501  0.2182 -1.2886
  254MOL0     N34172   1.304   7.640   4.483  0.2140 -0.5976 -0.0562
  254MOL0     C34173   1.370   7.533   4.451 -1.0583  1.0461 -0.7077
  254MOL0     C34174   1.381   7.463   4.570  0.6280 -0.1499  0.7115
  254MOL0     C34175   1.468   7.346   4.601  0.3378 -0.5659 -0.6622
  254MOL0     C34176   1.610   7.396   4.581 -0.4967 -1.2079  0.1186
  254MOL0     C34177   1.693   7.329   4.471  0.3580 -0.0682  0.0585
  254MOL0     C34178   1.839   7.381   4.467  0.1790 -0.1034  0.2901
  254MOL0     O34179   1.845   7.522   4.411  0.6985 -0.2309 -0.5072
  254MOL0     C34180   1.967   7.564   4.360  0.0115 -0.1421  0.2526
  254MOL0     C34181   2.019   7.491   4.253  0.0211 -0.7840  0.2801
  254MOL0     C34182   2.145   7.511   4.196 -0.1254  0.1279  0.1920
  254MOL0     C34183   2.183   7.411   4.085 -0.4127  0.4003 -0.1095
  254MOL0     C34184   2.221   7.616   4.255 -0.3997  0.5249  0.3445
  254MOL0     C34185   2.352   7.670   4.199  0.5247  0.0305 -0.1492
  254MOL0     O34186   2.412   7.770   4.266  0.3752  0.1054  0.2923
  254MOL0     C34187   2.513   7.837   4.206 -0.1698 -0.6127 -0.6317
  254MOL0     C34188   2.649   7.813   4.249 -0.0260  0.2708  0.3489
  254MOL0     C34189   2.753   7.874   4.195 -0.4256  0.5771  0.0399
  254MOL0     C34190   2.734   7.962   4.082 -1.4066 -0.7716  0.1546
  254MOL0     O34191   2.841   8.015   4.000  0.0741 -0.1403  0.0461
  254MOL0     C34192   2.972   7.953   3.996 -0.2229 -0.2678 -0.4324
  254MOL0     C34193   3.061   8.037   3.907 -0.2788 -0.3919 -0.1215
  254MOL0     C34194   3.200   7.959   3.904 -0.3388  0.0303 -0.6532
  254MOL0     C34195   3.292   8.034   3.806  0.3671  0.4970 -1.1704
  254MOL0     C34196   3.427   7.979   3.819 -0.0710  0.9748  0.3457
  254MOL0     C34197   3.507   8.026   3.941  0.5205 -0.0410 -1.0521
  254MOL0     C34198   3.623   7.948   3.979 -0.4635 -0.1283  0.4050
  254MOL0     C34199   3.585   7.831   4.065 -0.6922  1.0773 -0.6556
  254MOL0    Cl34200   3.735   7.745   4.126 -0.2053 -0.1719 -0.0087
  254MOL0     C34201   2.601   7.996   4.042 -0.2845 -0.1629 -0.8405
  254MOL0     C34202   2.495   7.931   4.106  0.3350  1.2691  1.0402
  254MOL0     O34203   2.383   7.622   4.090 -0.3482  1.0141 -0.0987
  254MOL0     C34204   2.173   7.684   4.365 -1.1078 -0.3871  0.4094
  254MOL0     C34205   2.045   7.663   4.416 -0.2263  0.2486 -0.0498
  254MOL0     N34206   1.311   7.529   4.673  0.8999  0.4217 -0.4618
  254MOL0     N34207   1.256   7.625   4.609  0.0584  0.1331  0.0576
  254MOL0     C34208   0.826   8.182   3.630  0.1669 -0.1340 -0.4848
  254MOL0     C34209   0.839   8.182   3.485 -0.6049 -0.7863  0.4303
  254MOL0     C34210   0.961   8.254   3.069  0.5938 -0.5303 -0.0099
  254MOL0     C34211   1.026   8.369   3.048  0.0287 -0.1250  0.0759
  254MOL0     C34212   1.056   8.409   2.915 -0.4212 -0.0029  0.5665
  254MOL0     C34213   1.020   8.337   2.799 -0.0028 -0.0885 -0.2278
  254MOL0     O34214   1.037   8.389   2.669  0.7968 -0.1975 -0.5646
  254MOL0     C34215   0.996   8.296   2.559  0.3150  0.0566  0.2108
  254MOL0     C34216   1.097   8.320   2.448  1.1217  0.1357  0.5121
  254MOL0     C34217   1.119   8.468   2.425 -0.0283 -0.3550 -0.8178
  254MOL0     C34218   0.994   8.559   2.412  0.4031  0.2417 -0.5829
  254MOL0     C34219   1.047   8.695   2.427 -0.0705 -0.0712 -0.0291
  254MOL0     C34220   1.079   8.806   2.430 -0.2693  0.6123 -0.5931
  254MOL0     C34221   0.942   8.219   2.822 -0.8974  0.2613 -0.3818
  254MOL0     C34222   0.917   8.179   2.957 -0.3108  0.0533  0.6519
  254MOL0     H34223   1.168   8.296   3.477 -0.6311  1.0797 -1.3260
  254MOL0     H34224   1.131   8.296   3.710  0.5076  0.9267 -0.8914
  254MOL0     H34225   0.816   8.272   4.028 -2.5972  1.1966  0.1304
  254MOL0     H34226   0.713   8.265   3.887  1.9326 -1.5376 -3.7666
  254MOL0     H34227   0.679   8.070   4.020 -0.3670 -0.9483 -0.3257
  254MOL0     H34228   0.761   8.028   3.867  1.7048 -1.1176  0.5679
  254MOL0     H34229   0.952   7.975   3.935 -0.7438  2.0620 -2.0929
  254MOL0     H34230   0.964   8.083   4.077  0.8323 -0.6746 -0.1418
  254MOL0     H34231   0.834   7.941   4.214 -2.2351 -3.9604  1.1662
  254MOL0     H34232   0.793   7.843   4.067 -0.1342  2.0886 -2.2068
  254MOL0     H34233   0.943   7.702   4.189  2.4060 -1.9670 -1.9612
  254MOL0     H34234   1.031   7.775   4.060 -0.1882  3.0524 -1.0254
  254MOL0     H34235   1.163   7.901   4.208 -1.3549  2.3877  1.8244
  254MOL0     H34236   1.047   7.912   4.339 -0.6753 -0.4523 -0.1277
  254MOL0     H34237   1.065   7.666   4.370 -0.8615 -2.2101 -2.5509
  254MOL0     H34238   1.186   7.659   4.237  0.1917 -0.0742  0.4043
  254MOL0     H34239   1.241   7.834   4.471  1.7516 -2.5414  2.8456
  254MOL0     H34240   1.352   7.783   4.338 -0.2415 -1.9272 -2.2125
  254MOL0     H34241   1.409   7.515   4.351 -0.4949  2.0320 -0.6762
  254MOL0     H34242   1.449   7.329   4.707  0.8170 -2.8586 -0.8751
  254MOL0     H34243   1.452   7.259   4.535  1.3202 -2.9514  2.0351
  254MOL0     H34244   1.667   7.386   4.673 -1.1824  0.1927  0.7362
  254MOL0     H34245   1.607   7.504   4.559 -3.3307 -0.8635  1.6960
  254MOL0     H34246   1.648   7.345   4.372  1.1171 -2.1185 -0.6715
  254MOL0     H34247   1.688   7.220   4.469  1.3567 -0.1304 -2.3451
  254MOL0     H34248   1.905   7.317   4.407  0.4963  1.5929 -1.2781
  254MOL0     H34249   1.869   7.388   4.571  1.0015  0.7426  0.0063
  254MOL0     H34250   1.961   7.411   4.209  0.9844 -0.7629 -1.0573
  254MOL0     H34251   2.286   7.374   4.074 -0.6600  0.3704 -3.1937
  254MOL0     H34252   2.123   7.322   4.101 -0.2905  0.3386  0.0053
  254MOL0     H34253   2.152   7.444   3.985  0.9511 -3.7549 -2.1609
  254MOL0     H34254   2.661   7.736   4.325  4.3807 -2.7412 -2.9066
  254MOL0     H34255   2.852   7.869   4.240  0.4568  1.9800 -1.6338
  254MOL0     H34256   3.009   7.934   4.098 -0.7504  3.9155  0.7303
  254MOL0     H34257   2.952   7.855   3.952 -0.8546 -0.3836  0.0940
  254MOL0     H34258   3.015   8.037   3.808  3.6854  0.4293 -2.1992
  254MOL0     H34259   3.075   8.140   3.942 -0.0894 -0.9089  1.4168
  254MOL0     H34260   3.174   7.860   3.865 -1.4856  0.4139 -0.8924
  254MOL0     H34261   3.237   7.959   4.007 -2.6136  0.5051  0.2108
  254MOL0     H34262   3.255   8.027   3.704  1.0200  1.4980 -1.4978
  254MOL0     H34263   3.284   8.139   3.835  1.7058  0.1607  0.6268
  254MOL0     H34264   3.486   7.996   3.728  2.8568 -2.1880  1.4393
  254MOL0     H34265   3.419   7.871   3.833  0.4733  0.7456 -1.0077
  254MOL0     H34266   3.524   8.133   3.926 -2.1518  0.8257  1.1800
  254MOL0     H34267   3.448   8.022   4.033  0.1384  1.4061 -1.1992
  254MOL0     H34268   3.681   8.020   4.037  0.4727  1.1358 -1.9647
  254MOL0     H34269   3.677   7.907   3.893 -2.2899  0.8226 -1.3039
  254MOL0     H34270   3.522   7.762   4.008  1.7342 -0.6791 -1.3484
  254MOL0     H34271   3.540   7.872   4.156  3.1379  3.6913  0.3287
  254MOL0     H34272   2.566   8.058   3.960  0.5121  0.5343 -0.6744
  254MOL0     H34273   2.392   7.957   4.081  0.4227 -0.8168 -1.8836
  254MOL0     H34274   2.231   7.763   4.412  0.4757 -1.6289  0.6065
  254MOL0     H34275   2.009   7.722   4.499  2.5491 -2.4908  3.4410
  254MOL0     H34276   0.730   8.158   3.675  1.5303 -2.2318  1.5287
  254MOL0     H34277   0.754   8.160   3.421 -2.4626  0.8774  2.1840
  254MOL0     H34278   1.062   8.422   3.135 -1.1346  1.1930 -0.2119
  254MOL0     H34279   1.099   8.507   2.900 -0.9361 -0.1056 -1.9662
  254MOL0     H34280   1.007   8.188   2.571  1.5426 -0.6055 -4.7196
  254MOL0     H34281   0.898   8.318   2.516  1.6341 -0.3963 -3.4057
  254MOL0     H34282   1.064   8.270   2.357  0.8638 -2.1731  1.7785
  254MOL0     H34283   1.192   8.275   2.478 -1.4750 -3.7950  4.0550
  254MOL0     H34284   1.182   8.472   2.335 -0.0285 -1.7802 -0.8972
  254MOL0     H34285   1.178   8.500   2.511 -0.9498  2.5439 -1.1494
  254MOL0     H34286   0.919   8.548   2.491  1.8119 -1.4770  0.5850
  254MOL0     H34287   0.949   8.561   2.312 -4.7486  0.3035  1.4154
  254MOL0     H34288   1.107   8.909   2.420  1.0903  0.5734  1.9701
  254MOL0     H34289   0.893   8.165   2.741  1.9641  0.5096 -2.4616
  254MOL0     H34290   0.860   8.086   2.961 -2.0846  0.5705 -4.4630
  255MOL0     O34291   9.338   7.063   4.918 -0.2992 -0.2215 -0.0586
  255MOL0     C34292   9.276   6.967   4.894 -0.3916  1.1202 -0.4961
  255MOL0     O34293   9.243   6.922   4.773 -0.2212 -0.1454  0.1621
  255MOL0     C34294   9.296   6.994   4.668 -0.0676 -0.2381 -1.0920
  255MOL0     C34295   9.244   7.116   4.619 -0.2176 -0.0305 -0.2707
  255MOL0     C34296   9.312   7.190   4.516  0.1313  0.1826 -0.5920
  255MOL0     C34297   9.421   7.133   4.457  0.2296  0.7231 -1.5622
  255MOL0     O34298   9.498   7.205   4.370 -0.7620 -0.0325 -0.0633
  255MOL0     C34299   9.444   7.308   4.296  0.1431 -0.0164 -1.2125
  255MOL0     C34300   9.519   7.327   4.160 -0.1225 -0.3640  0.0449
  255MOL0     C34301   9.470   7.451   4.082 -0.4625  0.3153 -0.3614
  255MOL0     C34302   9.559   7.561   4.137 -0.4604 -0.5546 -0.0429
  255MOL0     C34303   9.525   7.686   4.071  0.1985 -0.1106 -0.3511
  255MOL0     C34304   9.608   7.811   4.101 -0.3305 -0.2658  0.0597
  255MOL0     C34305   9.510   7.929   4.100 -1.2280 -0.2060 -0.8866
  255MOL0     C34306   9.478   7.996   3.957  0.8082  1.0887 -0.4189
  255MOL0     N34307   9.597   8.009   3.872 -0.3966  0.2737  0.3546
  255MOL0     C34308   9.705   8.100   3.883  0.3672  1.0187  0.6499
  255MOL0     C34309   9.774   8.060   3.773 -0.6885 -0.1700  0.7841
  255MOL0     C34310   9.896   8.135   3.717 -0.1518 -0.0178 -0.9683
  255MOL0     C34311   9.835   8.208   3.603 -0.3308 -1.0670  0.6911
  255MOL0     C34312   9.937   8.316   3.544 -0.1384 -0.9540 -0.3334
  255MOL0     C34313  10.056   8.260   3.470 -0.3096  1.4904 -0.7635
  255MOL0     O34314  10.095   8.331   3.353  0.1720  0.4974  0.0092
  255MOL0     C34315  10.171   8.444   3.367  0.2076 -0.9719 -0.3445
  255MOL0     C34316  10.189   8.515   3.486 -0.4728  0.0415 -1.0533
  255MOL0     C34317  10.250   8.636   3.496  0.0475  0.1160  0.0588
  255MOL0     C34318  10.252   8.695   3.636 -0.2749 -0.3345  0.0252
  255MOL0     C34319  10.288   8.700   3.374 -0.2542  0.3482 -0.2843
  255MOL0     C34320  10.374   8.825   3.364 -0.1177 -0.0306 -0.7048
  255MOL0     O34321  10.337   8.919   3.274  0.4961  0.8395  0.6551
  255MOL0     C34322  10.407   9.041   3.273 -1.1434  0.0649  0.0981
  255MOL0     C34323  10.540   9.072   3.318  0.2117 -0.2388 -0.0164
  255MOL0     C34324  10.597   9.198   3.312 -0.1621  0.6296 -0.0585
  255MOL0     C34325  10.527   9.296   3.246 -0.5831 -0.1975  0.1456
  255MOL0     O34326  10.586   9.417   3.240 -0.2001  0.1545  0.3194
  255MOL0     C34327  10.547   9.532   3.166  0.5768  0.1693  0.2794
  255MOL0     C34328  10.622   9.658   3.192  0.2960  0.5907 -0.5225
  255MOL0     C34329  10.617   9.685   3.344 -0.5575  0.7037  0.0848
  255MOL0     C34330  10.701   9.808   3.378  0.2523 -0.4202  0.2715
  255MOL0     C34331  10.678   9.848   3.526 -0.0742  0.2605 -0.0080
  255MOL0     C34332  10.729   9.992   3.563 -0.9567 -0.4083  0.1968
  255MOL0     C34333  10.879  10.008   3.544  0.3239 -0.2988  0.1856
  255MOL0     C34334  10.916  10.108   3.438  1.1295  0.2286 -0.7873
  255MOL0    Cl34335  10.887  10.267   3.505  0.3108  0.0115 -0.2914
  255MOL0     C34336  10.397   9.269   3.193  0.6911 -0.0692 -0.9288
  255MOL0     C34337  10.332   9.141   3.213 -0.3162 -0.9917  0.8891
  255MOL0     O34338  10.474   8.824   3.428 -0.2537  0.2608  0.4259
  255MOL0     C34339  10.276   8.625   3.248  0.1681 -0.1187 -0.4353
  255MOL0     C34340  10.216   8.504   3.250 -0.4349  0.9980  0.2244
  255MOL0     N34341   9.726   7.940   3.716 -0.5084 -0.8411 -0.1720
  255MOL0     N34342   9.620   7.915   3.780  0.5733  0.4819 -0.5077
  255MOL0     C34343   9.468   7.008   4.499  0.0252  0.5639 -0.0455
  255MOL0     C34344   9.409   6.942   4.608 -0.6494  0.3983  0.6013
  255MOL0     C34345   9.225   6.883   5.011 -1.3703  0.1072  0.2448
  255MOL0     C34346   9.271   6.912   5.147 -0.3717  0.7886  0.0715
  255MOL0     C34347   9.208   6.843   5.251 -0.3451 -0.0325 -0.2903
  255MOL0     C34348   9.101   6.751   5.226 -0.2980  0.4858 -0.7608
  255MOL0     O34349   9.035   6.690   5.330  0.2260  0.0456 -0.0952
  255MOL0     C34350   8.965   6.568   5.307  0.6043  0.1478  0.7858
  255MOL0     C34351   8.931   6.495   5.433  0.5050 -0.6616  0.4300
  255MOL0     C34352   8.890   6.588   5.544  0.1324  0.1244 -0.6378
  255MOL0     C34353   8.805   6.514   5.644  1.1201  0.0984  0.2372
  255MOL0     C34354   8.778   6.590   5.769 -0.9212  0.9580 -0.2431
  255MOL0     C34355   8.748   6.668   5.852 -0.4484 -0.1143 -0.3875
  255MOL0     C34356   9.067   6.722   5.096 -0.9584 -1.2687  0.6072
  255MOL0     C34357   9.135   6.777   4.989 -0.2951 -0.2395  0.3224
  255MOL0     H34358   9.157   7.175   4.644  0.3603  1.6048 -1.8775
  255MOL0     H34359   9.282   7.292   4.495 -2.2433  0.6411  3.8530
  255MOL0     H34360   9.339   7.285   4.274  0.4633 -2.1631 -0.6937
  255MOL0     H34361   9.446   7.398   4.359 -0.3473 -2.3722  2.4607
  255MOL0     H34362   9.627   7.322   4.179 -0.1016 -1.6432 -0.3420
  255MOL0     H34363   9.499   7.237   4.101 -1.4328  0.1883 -0.4054
  255MOL0     H34364   9.479   7.451   3.973 -0.4460 -2.7144 -0.4641
  255MOL0     H34365   9.365   7.467   4.106 -0.3604 -0.1070  0.4011
  255MOL0     H34366   9.555   7.563   4.247 -0.9085  1.9625 -0.0446
  255MOL0     H34367   9.664   7.549   4.108  0.4355  2.9681  1.2555
  255MOL0     H34368   9.523   7.679   3.962 -2.2767  1.6478 -0.5201
  255MOL0     H34369   9.417   7.689   4.091 -0.3672 -2.5389 -2.5339
  255MOL0     H34370   9.653   7.797   4.200  1.5166  0.5940 -0.6125
  255MOL0     H34371   9.692   7.818   4.031 -0.3237 -0.2591  0.0691
  255MOL0     H34372   9.417   7.894   4.146  0.5400 -1.4345  2.0691
  255MOL0     H34373   9.552   8.001   4.172 -2.3184  0.9832 -1.4094
  255MOL0     H34374   9.425   8.091   3.966  0.0634  0.8286 -1.7583
  255MOL0     H34375   9.408   7.930   3.904 -0.2617  2.2468 -0.4744
  255MOL0     H34376   9.725   8.183   3.950  1.6045  1.5022 -0.2808
  255MOL0     H34377   9.923   8.207   3.796 -0.4181  1.2924 -2.0371
  255MOL0     H34378   9.975   8.064   3.693 -3.0906 -2.6801 -3.6723
  255MOL0     H34379   9.751   8.265   3.642  0.6932 -1.4525  3.6665
  255MOL0     H34380   9.795   8.151   3.519 -2.5836  2.1265 -0.6093
  255MOL0     H34381   9.975   8.387   3.619 -1.6576  0.2360 -0.6365
  255MOL0     H34382   9.878   8.375   3.474 -0.3636 -1.3243 -0.4555
  255MOL0     H34383  10.026   8.157   3.449  0.1921  1.4408 -1.2667
  255MOL0     H34384  10.141   8.249   3.538 -2.4843  0.0089  1.9027
  255MOL0     H34385  10.156   8.474   3.581  1.2990  1.1009  0.0825
  255MOL0     H34386  10.357   8.725   3.644 -0.8184  2.0152 -0.9140
  255MOL0     H34387  10.192   8.786   3.636 -0.1121 -0.2033 -1.3315
  255MOL0     H34388  10.213   8.632   3.716 -0.5234  2.3617  2.1709
  255MOL0     H34389  10.609   8.999   3.360 -0.2393 -0.8768 -0.3680
  255MOL0     H34390  10.693   9.218   3.358  0.2110 -0.6711 -0.2313
  255MOL0     H34391  10.571   9.510   3.061  4.5476 -1.4766  1.3503
  255MOL0     H34392  10.440   9.542   3.190  1.0853  3.1993  1.6890
  255MOL0     H34393  10.723   9.657   3.149  0.0056 -1.1458 -1.2472
  255MOL0     H34394  10.568   9.736   3.139 -0.1613 -0.8291 -2.2346
  255MOL0     H34395  10.657   9.593   3.387 -0.7025 -1.0989 -3.3266
  255MOL0     H34396  10.510   9.690   3.365 -0.6205  1.5701 -0.4232
  255MOL0     H34397  10.806   9.776   3.379  1.1336  2.2379  0.1907
  255MOL0     H34398  10.689   9.891   3.308  1.1026 -0.9806 -0.5614
  255MOL0     H34399  10.716   9.779   3.603 -3.2377  1.4897  2.9072
  255MOL0     H34400  10.572   9.837   3.550 -0.0412 -2.2677 -0.7201
  255MOL0     H34401  10.674  10.049   3.488 -2.9666 -2.8415 -0.3231
  255MOL0     H34402  10.691  10.033   3.658 -2.6438  0.1702 -0.6790
  255MOL0     H34403  10.924   9.910   3.527  0.9008 -0.4054  2.0875
  255MOL0     H34404  10.923  10.049   3.636 -1.3792 -0.7496  1.2584
  255MOL0     H34405  10.870  10.094   3.340  0.8766 -1.6664 -0.4306
  255MOL0     H34406  11.022  10.097   3.418  0.7843 -1.9885 -1.6369
  255MOL0     H34407  10.334   9.351   3.160 -0.1600  0.0087  0.7985
  255MOL0     H34408  10.231   9.115   3.183  0.1139 -2.0164  0.2838
  255MOL0     H34409  10.329   8.649   3.156 -3.3355  2.0230 -2.1138
  255MOL0     H34410  10.214   8.440   3.163 -0.1359 -2.3255  2.4611
  255MOL0     H34411   9.553   6.966   4.446 -1.4986 -3.3025  0.2379
  255MOL0     H34412   9.446   6.844   4.637  0.7927  1.0488  1.0744
  255MOL0     H34413   9.347   6.984   5.176  2.1627 -0.3845 -3.1181
  255MOL0     H34414   9.223   6.851   5.358 -1.1313  2.3071 -0.2951
  255MOL0     H34415   8.871   6.582   5.254 -0.1586 -0.4689  1.9431
  255MOL0     H34416   9.026   6.498   5.250 -2.2137 -3.3173  1.6346
  255MOL0     H34417   9.013   6.433   5.469  0.6835 -0.2396  0.7446
  255MOL0     H34418   8.843   6.431   5.420 -0.5657  0.8135  0.1922
  255MOL0     H34419   8.854   6.688   5.518  0.7332  1.2876  2.4833
  255MOL0     H34420   8.986   6.624   5.585 -0.4517  1.3507 -0.2938
  255MOL0     H34421   8.840   6.418   5.681 -1.7053 -0.4050  1.9615
  255MOL0     H34422   8.702   6.500   5.608  0.7262 -1.3027  1.7807
  255MOL0     H34423   8.740   6.751   5.918  1.7010  0.4475 -0.7532
  255MOL0     H34424   8.998   6.642   5.074 -1.2877 -0.5919 -0.9673
  255MOL0     H34425   9.116   6.752   4.886  3.2929  2.8786 -1.3495
  256MOL0     O34426   7.209   1.475   3.228 -0.2965 -0.2433 -0.4336
  256MOL0     C34427   7.230   1.411   3.334 -0.7491 -0.3036  0.7560
  256MOL0     O34428   7.351   1.380   3.382 -0.0725  1.0629 -0.1671
  256MOL0     C34429   7.470   1.371   3.310 -0.8390 -0.2247 -0.1412
  256MOL0     C34430   7.599   1.391   3.368  0.5773  0.5236 -0.2034
  256MOL0     C34431   7.711   1.391   3.293 -0.5224 -0.2958 -0.7259
  256MOL0     C34432   7.703   1.374   3.153 -0.4053 -0.5395  0.1974
  256MOL0     O34433   7.817   1.376   3.072 -0.1208 -0.8088  0.1816
  256MOL0     C34434   7.949   1.371   3.141  0.6632  0.8201  0.4038
  256MOL0     C34435   8.049   1.409   3.035  0.0539 -0.3509 -0.2445
  256MOL0     C34436   8.094   1.288   2.958  0.1036  1.0976  1.1908
  256MOL0     C34437   8.169   1.344   2.837  0.1950 -0.2402  0.8587
  256MOL0     C34438   8.220   1.230   2.743  0.7633 -0.5258 -0.1294
  256MOL0     C34439   8.120   1.184   2.648  0.0217 -0.4770 -0.3219
  256MOL0     C34440   8.117   1.035   2.630  0.4968 -0.3918  0.2798
  256MOL0     C34441   7.976   0.979   2.596 -0.5487  0.5940 -1.1216
  256MOL0     N34442   7.957   0.833   2.606 -0.2118 -0.2888 -0.5098
  256MOL0     C34443   7.855   0.789   2.689 -0.7606 -0.7517  0.5037
  256MOL0     C34444   7.827   0.663   2.649  0.5145 -0.6105  0.3707
  256MOL0     C34445   7.704   0.591   2.706  0.1273 -0.5575 -0.7809
  256MOL0     C34446   7.610   0.554   2.592  0.2429 -0.2957 -0.3890
  256MOL0     C34447   7.651   0.441   2.493 -0.6308 -0.2194  0.7021
  256MOL0     C34448   7.584   0.439   2.349  2.4301 -0.1179 -0.2672
  256MOL0     O34449   7.441   0.404   2.375  0.2239  0.1138 -0.1884
  256MOL0     C34450   7.360   0.412   2.265 -1.0846  0.8990 -0.8196
  256MOL0     C34451   7.223   0.391   2.295 -0.1646 -0.0987 -1.2411
  256MOL0     C34452   7.126   0.379   2.192  0.8939  0.2592  0.5669
  256MOL0     C34453   6.991   0.329   2.235  0.0373 -0.3212  0.7486
  256MOL0     C34454   7.167   0.401   2.060 -0.3863  0.0826  0.2172
  256MOL0     C34455   7.074   0.428   1.945 -0.8750 -0.5891 -0.2914
  256MOL0     O34456   7.123   0.437   1.819  0.0398 -0.0545 -0.9597
  256MOL0     C34457   7.027   0.443   1.723 -0.5333 -0.6870  0.5261
  256MOL0     C34458   7.013   0.321   1.641 -0.3244  0.6219 -0.5406
  256MOL0     C34459   6.921   0.312   1.529 -1.0365 -0.9177 -0.7455
  256MOL0     C34460   6.838   0.428   1.509 -0.6426  0.1045  0.1039
  256MOL0     O34461   6.745   0.439   1.406 -0.0610  0.5391 -0.0555
  256MOL0     C34462   6.743   0.354   1.296 -0.6164 -0.2340  0.4236
  256MOL0     C34463   6.871   0.376   1.217  0.1372  0.0347 -0.8637
  256MOL0     C34464   6.855   0.344   1.065 -0.3785  0.2172 -0.1200
  256MOL0     C34465   6.824   0.196   1.047  0.4159  0.4051  0.4891
  256MOL0     C34466   6.826   0.141   0.903  0.6545 -0.0900  0.0639
  256MOL0     C34467   6.782  -0.004   0.892  0.3619 -0.8580  0.2754
  256MOL0     C34468   6.792  -0.050   0.748  0.2306 -1.4894 -0.7636
  256MOL0     C34469   6.708  -0.174   0.706  0.2929  0.0973 -0.0199
  256MOL0    Cl34470   6.703  -0.217   0.533 -0.1438  0.1220 -0.4608
  256MOL0     C34471   6.849   0.542   1.594  0.0219 -0.8425 -0.5846
  256MOL0     C34472   6.951   0.552   1.697 -0.1561 -0.1579  0.7572
  256MOL0     O34473   6.957   0.442   1.975 -0.6198  0.6879  0.2840
  256MOL0     C34474   7.309   0.427   2.034  1.1635  0.1095 -0.4461
  256MOL0     C34475   7.398   0.428   2.136 -0.2294 -0.4987 -0.5722
  256MOL0     N34476   7.924   0.622   2.555 -0.5700  0.0409  0.1080
  256MOL0     N34477   7.996   0.735   2.516  0.0430 -0.1905  0.1613
  256MOL0     C34478   7.578   1.355   3.103  0.2919  0.0728 -0.2596
  256MOL0     C34479   7.471   1.338   3.180  0.6902  0.1984  1.0037
  256MOL0     C34480   7.113   1.365   3.408 -0.1535 -0.9578  0.0854
  256MOL0     C34481   7.107   1.263   3.500 -0.4316 -1.2341  0.3151
  256MOL0     C34482   6.993   1.217   3.567  0.4058 -0.1196  0.5126
  256MOL0     C34483   6.872   1.279   3.545  0.8283  0.4960  0.0199
  256MOL0     O34484   6.759   1.233   3.621 -0.8135 -0.4316  0.5305
  256MOL0     C34485   6.670   1.337   3.676 -0.4866  0.0585 -0.5586
  256MOL0     C34486   6.740   1.461   3.742  0.8552  1.2340 -0.3417
  256MOL0     C34487   6.836   1.415   3.863  0.3009  0.4379  0.4916
  256MOL0     C34488   6.837   1.517   3.974  0.0023 -0.1959 -0.3410
  256MOL0     C34489   6.908   1.466   4.096 -0.7678 -0.8337  0.2252
  256MOL0     C34490   6.974   1.437   4.192 -0.4837  0.1860  0.7183
  256MOL0     C34491   6.866   1.373   3.443 -0.0089  0.5102 -0.2889
  256MOL0     C34492   6.983   1.408   3.377 -0.2186 -0.7971  0.5544
  256MOL0     H34493   7.603   1.420   3.472  1.1553 -1.4281  0.3700
  256MOL0     H34494   7.807   1.397   3.343 -0.4889  1.9268 -0.9204
  256MOL0     H34495   7.960   1.440   3.225  0.1653  1.0979  0.2455
  256MOL0     H34496   7.963   1.278   3.196 -0.2446  0.9880  0.9323
  256MOL0     H34497   8.006   1.493   2.979  0.8405  1.1200  1.2694
  256MOL0     H34498   8.142   1.437   3.085 -0.3134  1.1600 -0.3363
  256MOL0     H34499   8.148   1.212   3.016  0.0223 -1.6201 -1.9335
  256MOL0     H34500   8.000   1.240   2.929  1.4621 -2.5558  2.2741
  256MOL0     H34501   8.102   1.407   2.779 -0.0202  0.1095  1.4804
  256MOL0     H34502   8.248   1.411   2.871  1.5049 -1.8141  1.0493
  256MOL0     H34503   8.305   1.260   2.681 -1.4769  3.2278 -1.7275
  256MOL0     H34504   8.259   1.146   2.802  3.2473 -0.9441 -2.1833
  256MOL0     H34505   8.023   1.207   2.694  0.2019  0.7392 -0.5150
  256MOL0     H34506   8.126   1.236   2.552 -0.8337  0.8906  0.3341
  256MOL0     H34507   8.184   1.007   2.548  0.4051 -1.3957  0.5298
  256MOL0     H34508   8.151   0.979   2.717  1.2591  0.5960  0.6314
  256MOL0     H34509   7.952   1.010   2.493 -1.6549 -3.5083 -2.3022
  256MOL0     H34510   7.905   1.027   2.664  2.2173 -1.1834  3.3842
  256MOL0     H34511   7.796   0.848   2.758  0.4806  2.3864 -0.8976
  256MOL0     H34512   7.738   0.495   2.747 -1.4316 -1.1446 -0.7799
  256MOL0     H34513   7.664   0.655   2.786 -1.9617 -2.1391 -0.4619
  256MOL0     H34514   7.583   0.637   2.526 -1.5915  0.6241  1.3925
  256MOL0     H34515   7.517   0.520   2.638 -1.0337  2.0676 -1.0572
  256MOL0     H34516   7.634   0.347   2.545 -3.5577 -0.9536 -1.2967
  256MOL0     H34517   7.758   0.452   2.473 -1.1143  1.7711 -1.3023
  256MOL0     H34518   7.610   0.354   2.284  1.5524 -1.2131  0.7764
  256MOL0     H34519   7.601   0.538   2.306  2.5063  0.5313  1.1994
  256MOL0     H34520   7.193   0.377   2.398  1.4813 -1.2498 -0.8810
  256MOL0     H34521   6.967   0.255   2.158  0.8986 -0.7192  0.8466
  256MOL0     H34522   6.984   0.279   2.332  0.8055  1.4013  1.7336
  256MOL0     H34523   6.916   0.408   2.229 -0.7980 -1.2125 -1.7743
  256MOL0     H34524   7.076   0.236   1.663 -0.9809  0.5212  1.0852
  256MOL0     H34525   6.919   0.229   1.460  0.8703 -1.8074  0.1785
  256MOL0     H34526   6.724   0.250   1.326 -0.9703 -0.1080  0.6556
  256MOL0     H34527   6.660   0.394   1.237  1.6346 -0.5791 -3.2212
  256MOL0     H34528   6.904   0.480   1.225  0.3286 -0.1123  0.4619
  256MOL0     H34529   6.957   0.318   1.252 -0.1661  0.6337  0.9711
  256MOL0     H34530   6.953   0.361   1.020  0.0344  2.4723  1.4404
  256MOL0     H34531   6.782   0.406   1.013 -0.2828  1.1684  0.8492
  256MOL0     H34532   6.904   0.143   1.099  0.6071  2.4896  2.4814
  256MOL0     H34533   6.725   0.173   1.089  0.2757 -1.4226 -0.7403
  256MOL0     H34534   6.922   0.148   0.852  0.9309 -1.9332  0.2748
  256MOL0     H34535   6.762   0.217   0.856  1.0487  0.7824  0.8836
  256MOL0     H34536   6.838  -0.078   0.950  0.2280  0.0930  1.6796
  256MOL0     H34537   6.683  -0.014   0.936  0.8110 -0.2382  1.4977
  256MOL0     H34538   6.896  -0.064   0.718 -0.6833 -2.3071 -3.8688
  256MOL0     H34539   6.742   0.027   0.690  3.5276  1.5413  0.0871
  256MOL0     H34540   6.607  -0.157   0.743  0.7578 -0.9367  1.8502
  256MOL0     H34541   6.753  -0.261   0.755  2.5597  0.8970 -0.5348
  256MOL0     H34542   6.775   0.622   1.584  2.1606  1.5674  1.3473
  256MOL0     H34543   6.949   0.637   1.764  0.6853 -0.7891  1.6144
  256MOL0     H34544   7.351   0.456   1.938  0.2068 -0.2667 -0.9836
  256MOL0     H34545   7.504   0.450   2.124  0.2073 -1.5565  0.9649
  256MOL0     H34546   7.566   1.339   2.996  0.3530  0.7989 -0.3788
  256MOL0     H34547   7.383   1.313   3.122  0.5404 -1.0958  1.7499
  256MOL0     H34548   7.209   1.232   3.524 -0.2620  0.2584  1.6082
  256MOL0     H34549   7.010   1.138   3.640 -1.5722  0.8075  2.0812
  256MOL0     H34550   6.612   1.382   3.594 -0.8910  3.6583  1.4734
  256MOL0     H34551   6.600   1.299   3.751 -2.3022  1.4974 -1.4241
  256MOL0     H34552   6.662   1.532   3.771  1.4787  2.4013 -1.3630
  256MOL0     H34553   6.796   1.508   3.660 -1.3624  0.5902 -2.3439
  256MOL0     H34554   6.935   1.423   3.817  0.8641  0.6613  1.6977
  256MOL0     H34555   6.804   1.319   3.904  1.8836 -0.0416  0.6638
  256MOL0     H34556   6.736   1.542   4.007 -0.1758  1.1088 -1.8017
  256MOL0     H34557   6.886   1.608   3.940  0.4343 -0.3819 -0.2148
  256MOL0     H34558   7.033   1.418   4.279 -0.0573  1.2507  0.6749
  256MOL0     H34559   6.770   1.417   3.418 -1.4558 -0.7768  2.5983
  256MOL0     H34560   6.972   1.488   3.304  0.6932  1.2402  2.4971
  257MOL0     O34561   5.277   5.133  10.005 -0.1340 -0.1022 -0.1060
  257MOL0     C34562   5.214   5.231   9.954 -0.1983  0.8671 -0.0507
  257MOL0     O34563   5.159   5.236   9.832  0.2335  0.4929  0.0316
  257MOL0     C34564   5.091   5.128   9.783 -0.9843  0.1002 -0.7745
  257MOL0     C34565   5.087   4.995   9.831 -0.9694  1.1250  0.0901
  257MOL0     C34566   5.008   4.897   9.769 -0.8336  0.4515  0.5444
  257MOL0     C34567   4.938   4.934   9.646 -0.0798 -0.1938 -0.0536
  257MOL0     O34568   4.858   4.844   9.572 -0.2692  0.2200 -0.2217
  257MOL0     C34569   4.906   4.707   9.549  0.6807 -0.2439  0.3784
  257MOL0     C34570   4.855   4.654   9.417  0.8584  0.4733  0.2203
  257MOL0     C34571   4.933   4.531   9.366  0.2346 -0.2987 -0.5114
  257MOL0     C34572   4.856   4.407   9.412 -0.2808  0.4052 -0.6342
  257MOL0     C34573   4.918   4.277   9.356  1.0056  0.8901  0.1302
  257MOL0     C34574   4.823   4.154   9.365 -0.5755 -0.9005 -0.3481
  257MOL0     C34575   4.677   4.184   9.311 -0.9823 -0.3643 -1.0082
  257MOL0     C34576   4.584   4.064   9.335 -0.0448  0.5774 -0.0749
  257MOL0     N34577   4.466   4.060   9.248  0.7334 -0.0827  0.2081
  257MOL0     C34578   4.353   4.123   9.280 -0.3619 -0.4379 -0.4942
  257MOL0     C34579   4.255   4.062   9.208  0.2587 -0.4591  0.4763
  257MOL0     C34580   4.107   4.105   9.215  0.8567 -0.2021 -0.4226
  257MOL0     C34581   4.079   4.229   9.305 -0.1978  0.5452  0.7042
  257MOL0     C34582   4.030   4.206   9.447  0.0965 -0.4761 -1.0159
  257MOL0     C34583   3.912   4.107   9.458  0.1755  0.5922  0.6473
  257MOL0     O34584   3.846   4.105   9.589 -0.5467 -0.1077 -0.0557
  257MOL0     C34585   3.902   4.043   9.703  1.0991 -0.1682  0.0701
  257MOL0     C34586   4.016   3.974   9.707  0.0393 -0.7795  0.2510
  257MOL0     C34587   4.067   3.918   9.822 -0.0711 -0.7542 -0.2329
  257MOL0     C34588   4.213   3.848   9.804  0.2861 -0.4070 -1.0020
  257MOL0     C34589   3.997   3.936   9.939  0.2275 -0.2933 -0.0647
  257MOL0     C34590   4.040   3.890  10.075 -0.5138  0.2210  0.0749
  257MOL0     O34591   3.997   3.965  10.187 -0.0226 -0.1654 -0.0508
  257MOL0     C34592   4.030   3.928  10.312  0.2620  0.0886 -0.6454
  257MOL0     C34593   4.052   4.028  10.410 -0.0614  0.8586 -0.6813
  257MOL0     C34594   4.092   4.007  10.541  0.0646 -0.3935  0.7497
  257MOL0     C34595   4.122   3.872  10.573  0.0862  1.0873 -0.0988
  257MOL0     O34596   4.190   3.843  10.697  0.8922 -0.2133 -0.1358
  257MOL0     C34597   4.168   3.727  10.771 -0.6613  0.3283 -0.2914
  257MOL0     C34598   4.145   3.744  10.923  0.4156  0.5778 -0.4756
  257MOL0     C34599   4.259   3.796  11.017 -0.6302  0.6303  0.6717
  257MOL0     C34600   4.228   3.759  11.164  1.1101  0.5785  0.0588
  257MOL0     C34601   4.360   3.779  11.227 -0.2407 -0.3084 -0.3413
  257MOL0     C34602   4.344   3.739  11.377 -0.0086  0.1833 -0.7023
  257MOL0     C34603   4.482   3.765  11.451  0.0507  0.5580 -0.1673
  257MOL0     C34604   4.465   3.827  11.593 -0.0442  0.3749  0.2028
  257MOL0    Cl34605   4.610   3.840  11.699  0.1331  0.4006  0.0240
  257MOL0     C34606   4.087   3.768  10.480 -0.0521  1.0871  0.1181
  257MOL0     C34607   4.038   3.796  10.347 -0.4474  0.0945 -0.3816
  257MOL0     O34608   4.123   3.801  10.082  0.2991  0.6695  0.0718
  257MOL0     C34609   3.882   4.014   9.950  0.3614 -0.7490  0.8045
  257MOL0     C34610   3.835   4.064   9.825 -0.4299 -0.9054  0.4570
  257MOL0     N34611   4.311   3.962   9.130  0.3547 -0.2638 -0.1046
  257MOL0     N34612   4.434   3.970   9.146 -0.5196 -0.7185 -0.3096
  257MOL0     C34613   4.940   5.067   9.603  0.3231 -0.0698 -0.3255
  257MOL0     C34614   5.009   5.162   9.669  0.1558 -0.4907  0.2184
  257MOL0     C34615   5.209   5.359  10.027  0.3290 -0.0553 -0.5600
  257MOL0     C34616   5.301   5.396  10.124 -0.2096  0.5538  0.1254
  257MOL0     C34617   5.306   5.517  10.194 -0.2238  0.1800  0.1593
  257MOL0     C34618   5.206   5.615  10.178  0.5727 -0.4614 -0.1552
  257MOL0     O34619   5.209   5.739  10.234 -0.5637  0.1087 -0.0986
  257MOL0     C34620   5.328   5.771  10.300  0.1073  0.1421  0.3180
  257MOL0     C34621   5.317   5.930  10.322  0.1813  1.0157 -0.2087
  257MOL0     C34622   5.344   5.957  10.466 -0.3608 -0.3877  0.2413
  257MOL0     C34623   5.420   6.088  10.472  0.6780 -0.2851 -0.0057
  257MOL0     C34624   5.328   6.203  10.486 -0.7348 -0.0846  0.8002
  257MOL0     C34625   5.263   6.300  10.529 -0.0859  0.4328 -0.9085
  257MOL0     C34626   5.114   5.584  10.074  1.0828  0.5511 -0.0038
  257MOL0     C34627   5.108   5.461  10.005 -0.3097  0.8325 -0.0254
  257MOL0     H34628   5.130   4.960   9.924 -0.7669  0.5492 -0.2160
  257MOL0     H34629   5.005   4.798   9.813 -1.6594  0.8632  1.4497
  257MOL0     H34630   5.013   4.717   9.528  0.9009 -2.5485  0.1341
  257MOL0     H34631   4.890   4.648   9.640 -0.5530  0.8590  0.8953
  257MOL0     H34632   4.749   4.627   9.418  0.6179  1.3702  0.4263
  257MOL0     H34633   4.863   4.730   9.339  2.4469  0.4598  0.3425
  257MOL0     H34634   4.946   4.523   9.258 -5.0470  1.1734 -1.5445
  257MOL0     H34635   5.031   4.519   9.415 -0.9133 -1.4072  1.6919
  257MOL0     H34636   4.858   4.388   9.519  0.2962 -0.2197 -0.7509
  257MOL0     H34637   4.753   4.421   9.379 -0.6398  1.6439  0.8873
  257MOL0     H34638   4.939   4.286   9.249 -0.2830  0.9664 -0.1307
  257MOL0     H34639   5.008   4.248   9.410  0.2797  0.9609  1.4029
  257MOL0     H34640   4.863   4.066   9.313  2.5822 -1.0031  1.9067
  257MOL0     H34641   4.813   4.144   9.474 -1.6448  5.2905  0.4805
  257MOL0     H34642   4.631   4.262   9.373 -2.1253  1.0652 -3.4685
  257MOL0     H34643   4.695   4.229   9.213  0.9884  1.1175 -0.0349
  257MOL0     H34644   4.560   4.067   9.441  2.9230  0.3399  0.6816
  257MOL0     H34645   4.631   3.967   9.313 -3.0513 -0.0409 -5.8673
  257MOL0     H34646   4.330   4.200   9.353 -2.5058  2.0418 -3.5090
  257MOL0     H34647   4.087   4.138   9.113  0.1983  0.0409 -0.2231
  257MOL0     H34648   4.044   4.020   9.243  3.5098 -1.8038  1.1239
  257MOL0     H34649   3.993   4.275   9.254 -1.0463 -1.2780  0.4158
  257MOL0     H34650   4.163   4.299   9.299 -1.3936  1.9839 -0.1109
  257MOL0     H34651   4.006   4.307   9.483  2.8153  0.5166 -1.7046
  257MOL0     H34652   4.111   4.189   9.518 -1.1171  2.0689  1.1625
  257MOL0     H34653   3.938   4.006   9.426 -2.8452 -0.1438  0.2174
  257MOL0     H34654   3.836   4.132   9.384  0.6087  2.4093  0.7614
  257MOL0     H34655   4.076   3.975   9.617 -0.5492  4.3979 -0.4280
  257MOL0     H34656   4.270   3.896   9.724 -0.0418 -0.7528 -1.4554
  257MOL0     H34657   4.282   3.867   9.887  1.1244 -2.3430 -1.2150
  257MOL0     H34658   4.213   3.745   9.768 -1.0569 -0.2731 -1.4507
  257MOL0     H34659   4.054   4.132  10.379  2.4326  0.0774 -3.6181
  257MOL0     H34660   4.112   4.086  10.613 -0.3601  0.9884 -0.5863
  257MOL0     H34661   4.086   3.671  10.723 -2.7064  2.9604 -0.1069
  257MOL0     H34662   4.261   3.670  10.769 -1.2447 -0.6381 -0.6218
  257MOL0     H34663   4.044   3.777  10.950  0.1479 -1.4062  1.1573
  257MOL0     H34664   4.147   3.641  10.958 -0.2397  0.7742  0.1623
  257MOL0     H34665   4.299   3.897  11.009  1.7332 -0.4101 -2.9549
  257MOL0     H34666   4.342   3.735  10.981  1.2622  2.6727  1.4055
  257MOL0     H34667   4.148   3.815  11.213 -1.1323 -0.2764 -2.4110
  257MOL0     H34668   4.211   3.651  11.164 -0.3956  0.7873 -1.0482
  257MOL0     H34669   4.386   3.885  11.217  1.9292 -0.9412 -2.3348
  257MOL0     H34670   4.438   3.717  11.181 -1.3469 -2.1755  0.1900
  257MOL0     H34671   4.268   3.805  11.418 -1.5626 -2.1199  0.3405
  257MOL0     H34672   4.304   3.639  11.395 -0.4399 -0.5364 -4.6953
  257MOL0     H34673   4.551   3.826  11.393 -2.2087  3.3754 -0.0941
  257MOL0     H34674   4.516   3.661  11.458 -0.5760  0.2249 -1.6930
  257MOL0     H34675   4.391   3.775  11.655  0.2553 -0.7801 -0.3782
  257MOL0     H34676   4.446   3.931  11.567  1.4150  1.2205  2.2072
  257MOL0     H34677   4.093   3.663  10.507  2.4164  0.5034 -2.2280
  257MOL0     H34678   4.014   3.712  10.282  0.3989  0.0333 -0.6330
  257MOL0     H34679   3.826   4.037  10.040 -1.9621  1.3474 -1.0354
  257MOL0     H34680   3.739   4.114   9.833 -0.4730 -0.4979 -1.8852
  257MOL0     H34681   4.879   5.088   9.516  0.9265  3.5988 -0.0049
  257MOL0     H34682   5.007   5.268   9.645  2.3665  0.2078  2.5904
  257MOL0     H34683   5.385   5.335  10.153  1.0938  0.3889 -3.4595
  257MOL0     H34684   5.399   5.521  10.250 -0.1382  2.2006 -0.0831
  257MOL0     H34685   5.336   5.711  10.391  0.3503 -1.1197 -0.5268
  257MOL0     H34686   5.411   5.754  10.232  0.9130 -1.2716  1.6047
  257MOL0     H34687   5.211   5.950  10.303 -0.5171 -2.7734 -1.1078
  257MOL0     H34688   5.378   5.972  10.241 -0.8366  1.5043 -0.7432
  257MOL0     H34689   5.409   5.879  10.509  2.1996  0.0627 -2.4781
  257MOL0     H34690   5.248   5.955  10.517  0.1144  0.3866  1.2254
  257MOL0     H34691   5.481   6.114  10.384  0.0228 -0.9769 -0.6738
  257MOL0     H34692   5.483   6.080  10.561  3.6668 -1.0287 -2.0064
  257MOL0     H34693   5.211   6.385  10.570  0.0299  0.3783 -0.6474
  257MOL0     H34694   5.039   5.650  10.032  0.2153 -0.6959 -0.4676
  257MOL0     H34695   5.024   5.432   9.942  0.4646 -2.7540  0.3800
  258MOL0     O34696   5.757   5.906   8.285 -0.3418 -0.1308  0.4934
  258MOL0     C34697   5.835   6.002   8.288  0.0535 -0.1873 -0.1980
  258MOL0     O34698   5.835   6.108   8.213  0.0464 -0.2862  1.3475
  258MOL0     C34699   5.727   6.147   8.138  0.6573  0.0363  0.0685
  258MOL0     C34700   5.587   6.123   8.147  0.0565  0.4662 -0.6355
  258MOL0     C34701   5.489   6.199   8.076  0.3202 -0.4034  0.0288
  258MOL0     C34702   5.527   6.295   7.984 -0.3486 -0.7132 -0.5503
  258MOL0     O34703   5.418   6.354   7.918 -0.7074 -0.1366 -0.5234
  258MOL0     C34704   5.443   6.413   7.791 -0.4919  0.7114 -1.4075
  258MOL0     C34705   5.330   6.519   7.773 -0.2561  0.7239  0.6231
  258MOL0     C34706   5.196   6.439   7.736 -0.3032 -0.7002  0.1484
  258MOL0     C34707   5.079   6.542   7.729 -0.1348 -0.0792 -0.2450
  258MOL0     C34708   4.950   6.473   7.672 -0.1760  0.2029  0.3908
  258MOL0     C34709   4.843   6.570   7.648 -0.6224  0.3126  0.3582
  258MOL0     C34710   4.720   6.505   7.587 -0.0467  0.1671 -0.4909
  258MOL0     C34711   4.619   6.607   7.541  0.2998  0.4740 -0.0182
  258MOL0     N34712   4.525   6.639   7.646 -0.1163  0.0158 -0.4388
  258MOL0     C34713   4.395   6.688   7.626 -0.6444  0.3590 -0.6513
  258MOL0     C34714   4.356   6.735   7.750 -0.5013 -0.4072 -0.2606
  258MOL0     C34715   4.243   6.823   7.770  0.8930 -0.0449 -0.3052
  258MOL0     C34716   4.237   6.945   7.670 -0.4952 -0.1141  0.4859
  258MOL0     C34717   4.284   7.077   7.738 -0.6197 -0.4109 -0.3481
  258MOL0     C34718   4.214   7.191   7.683 -0.5534  0.0285 -0.1234
  258MOL0     O34719   4.199   7.178   7.539  0.6309  0.1244  0.1182
  258MOL0     C34720   4.176   7.290   7.468  0.6178 -0.7445  0.5958
  258MOL0     C34721   4.125   7.412   7.520  0.2171 -0.8330 -0.0409
  258MOL0     C34722   4.081   7.515   7.430 -0.3100 -0.5282 -0.1856
  258MOL0     C34723   4.046   7.650   7.494 -0.1951  0.2505  0.8049
  258MOL0     C34724   4.099   7.499   7.286 -0.0853  1.1506  0.0172
  258MOL0     C34725   4.076   7.606   7.183 -0.4737 -0.6797 -0.0576
  258MOL0     O34726   4.126   7.594   7.063  0.2327  0.0379 -0.8055
  258MOL0     C34727   4.089   7.684   6.967  0.1284  0.2581  0.6782
  258MOL0     C34728   4.166   7.803   6.935  0.2684  0.0746 -0.4826
  258MOL0     C34729   4.112   7.881   6.819  0.3360  0.5304 -0.7516
  258MOL0     C34730   3.996   7.839   6.749 -1.0379  0.0059  0.7010
  258MOL0     O34731   3.946   7.898   6.632 -0.2163  0.1289 -0.6021
  258MOL0     C34732   4.026   7.989   6.552 -0.2696 -0.3463  0.3172
  258MOL0     C34733   3.982   8.126   6.581  0.2659  0.1516  1.8655
  258MOL0     C34734   3.841   8.154   6.544 -0.8918  0.6501  0.3094
  258MOL0     C34735   3.803   8.297   6.564 -0.2318 -0.4129  0.3529
  258MOL0     C34736   3.650   8.326   6.562  0.3086 -0.2199 -0.0022
  258MOL0     C34737   3.569   8.280   6.688  0.3692 -0.6102 -0.5341
  258MOL0     C34738   3.608   8.357   6.815 -0.7373 -0.1293 -0.8647
  258MOL0     C34739   3.554   8.280   6.939 -0.8004  0.2816 -0.6361
  258MOL0    Cl34740   3.463   8.394   7.045  0.1854 -0.0677  0.6234
  258MOL0     C34741   3.943   7.711   6.773 -0.9707 -0.6293  0.3240
  258MOL0     C34742   3.976   7.638   6.885 -0.4744 -0.5743  0.3691
  258MOL0     O34743   4.023   7.713   7.214  0.1236  0.0747 -0.4104
  258MOL0     C34744   4.146   7.380   7.243 -0.1013  0.8418 -0.3979
  258MOL0     C34745   4.196   7.280   7.328 -0.4683 -0.3683 -0.8942
  258MOL0     N34746   4.461   6.716   7.842  0.1387  0.4635 -0.1039
  258MOL0     N34747   4.562   6.663   7.774 -0.7240 -0.0346 -1.2485
  258MOL0     C34748   5.664   6.317   7.963  0.0571  0.3169 -0.2701
  258MOL0     C34749   5.758   6.242   8.037 -0.0218  0.0669  0.4873
  258MOL0     C34750   5.951   5.979   8.383  0.9136 -1.0225  0.6865
  258MOL0     C34751   6.028   6.096   8.415 -0.4953 -1.1362 -0.5244
  258MOL0     C34752   6.140   6.080   8.498  0.1026 -0.1745  0.4212
  258MOL0     C34753   6.168   5.955   8.547  0.0349 -0.3256 -0.3901
  258MOL0     O34754   6.276   5.914   8.617 -0.2076 -0.3689 -0.4027
  258MOL0     C34755   6.385   6.003   8.637  0.9985  0.5205 -0.3590
  258MOL0     C34756   6.394   6.083   8.773 -0.0155  0.0066  0.2360
  258MOL0     C34757   6.424   5.989   8.902  0.5955 -0.6795 -0.0719
  258MOL0     C34758   6.403   6.090   9.022  0.0746  0.6310  0.4746
  258MOL0     C34759   6.446   6.021   9.141  0.2210  0.4578  0.1585
  258MOL0     C34760   6.503   5.971   9.241 -0.2669  0.0536 -0.0802
  258MOL0     C34761   6.097   5.846   8.523  0.3423  0.0921 -0.6230
  258MOL0     C34762   5.985   5.855   8.442  0.4480  0.4488  0.8638
  258MOL0     H34763   5.560   6.038   8.209  1.2754  0.1600 -0.4899
  258MOL0     H34764   5.384   6.180   8.095 -0.0816  0.5927 -1.0918
  258MOL0     H34765   5.542   6.458   7.798  0.2194 -1.0044  1.5692
  258MOL0     H34766   5.452   6.339   7.711 -1.7769 -2.4160  1.1060
  258MOL0     H34767   5.314   6.584   7.859 -1.2923  1.7702 -0.3298
  258MOL0     H34768   5.370   6.579   7.691  1.5789  0.6270  1.4016
  258MOL0     H34769   5.207   6.411   7.631  0.7676  0.2481 -0.0139
  258MOL0     H34770   5.169   6.356   7.802 -1.6147 -1.7120 -1.6054
  258MOL0     H34771   5.058   6.572   7.833  2.4314  0.2693  0.2363
  258MOL0     H34772   5.115   6.630   7.675 -0.1679  1.8470  2.6202
  258MOL0     H34773   4.983   6.429   7.577 -1.1208 -0.6690  0.4625
  258MOL0     H34774   4.920   6.391   7.737  0.5096  1.1080  1.9268
  258MOL0     H34775   4.800   6.617   7.737 -1.1380  2.2832 -0.8683
  258MOL0     H34776   4.883   6.652   7.588  3.0823 -1.1085  0.6525
  258MOL0     H34777   4.750   6.430   7.512  0.8136  0.4718 -0.4649
  258MOL0     H34778   4.670   6.445   7.663 -0.6910  0.2329 -0.8581
  258MOL0     H34779   4.554   6.564   7.464  0.4471  0.1623  0.0264
  258MOL0     H34780   4.668   6.700   7.510  1.1673 -0.4961 -1.7680
  258MOL0     H34781   4.329   6.711   7.543 -1.0764 -0.5157 -0.5604
  258MOL0     H34782   4.150   6.771   7.746  0.2397  1.0183 -0.1552
  258MOL0     H34783   4.235   6.854   7.874 -2.2268  0.6093 -0.6485
  258MOL0     H34784   4.132   6.961   7.641  0.0521 -1.9277 -3.0096
  258MOL0     H34785   4.285   6.917   7.576 -4.1572 -1.2795 -1.2551
  258MOL0     H34786   4.390   7.095   7.718 -0.8612  1.4907 -0.1026
  258MOL0     H34787   4.258   7.072   7.844  3.9558  1.6460  1.1398
  258MOL0     H34788   4.247   7.287   7.725  0.0954  0.3270 -1.2561
  258MOL0     H34789   4.108   7.187   7.713 -0.8617 -0.7997 -1.2479
  258MOL0     H34790   4.112   7.437   7.625  1.3162  1.6716 -0.4325
  258MOL0     H34791   4.066   7.650   7.601 -1.6082 -2.2880  1.1277
  258MOL0     H34792   4.112   7.723   7.445 -0.9313 -0.6666 -1.6906
  258MOL0     H34793   3.941   7.669   7.472 -0.1171 -1.7921 -1.7472
  258MOL0     H34794   4.255   7.824   6.994 -1.2062  1.3861  1.4019
  258MOL0     H34795   4.171   7.967   6.789  1.5164  1.2462  3.0740
  258MOL0     H34796   4.133   7.977   6.572 -0.3000  1.1296  1.6099
  258MOL0     H34797   4.000   7.959   6.450  0.1682 -0.4197  0.2262
  258MOL0     H34798   4.004   8.145   6.687 -0.0627 -0.0831  1.9797
  258MOL0     H34799   4.053   8.181   6.520  0.5929 -2.6052 -0.4622
  258MOL0     H34800   3.779   8.088   6.606 -0.4223  0.2296  0.3451
  258MOL0     H34801   3.830   8.141   6.436 -0.7931 -1.8814  0.5393
  258MOL0     H34802   3.846   8.329   6.659 -0.4420  0.8624  0.0323
  258MOL0     H34803   3.843   8.355   6.481  3.2285 -3.7500 -0.5738
  258MOL0     H34804   3.594   8.278   6.481  1.3269  0.1113 -0.9251
  258MOL0     H34805   3.632   8.433   6.554 -0.4426 -0.4318 -1.3775
  258MOL0     H34806   3.471   8.318   6.657  1.3787  2.4774 -0.2887
  258MOL0     H34807   3.581   8.174   6.710 -0.9557 -0.2042  2.8360
  258MOL0     H34808   3.554   8.452   6.801  1.3471  0.9145 -2.5135
  258MOL0     H34809   3.716   8.372   6.827 -0.8141  0.9503 -1.3407
  258MOL0     H34810   3.637   8.225   6.985 -0.4459  0.1996 -1.3582
  258MOL0     H34811   3.476   8.209   6.913 -1.8552  1.9179 -2.1802
  258MOL0     H34812   3.873   7.670   6.702  0.5109 -1.4709 -0.7075
  258MOL0     H34813   3.932   7.541   6.905  2.1650 -1.8186  0.5671
  258MOL0     H34814   4.138   7.366   7.135 -1.2266 -0.8962 -0.1219
  258MOL0     H34815   4.216   7.183   7.284 -1.9456 -0.3117 -1.7529
  258MOL0     H34816   5.708   6.385   7.891 -0.1777  0.7132 -0.0448
  258MOL0     H34817   5.865   6.258   8.025 -0.0007 -0.2864  0.2048
  258MOL0     H34818   6.008   6.199   8.388  0.1731  0.0318  2.9295
  258MOL0     H34819   6.207   6.163   8.516  0.5002 -0.0901 -1.2223
  258MOL0     H34820   6.473   5.937   8.630  0.2913 -0.4982  0.1352
  258MOL0     H34821   6.391   6.074   8.555 -3.5989  1.4168 -0.1358
  258MOL0     H34822   6.302   6.140   8.790 -0.4029 -0.7816  0.8695
  258MOL0     H34823   6.475   6.156   8.761  1.8148 -2.3079 -2.7162
  258MOL0     H34824   6.526   5.952   8.882 -0.9161 -3.1691 -4.4995
  258MOL0     H34825   6.363   5.898   8.899  0.5407 -0.6131 -1.7815
  258MOL0     H34826   6.298   6.113   9.039 -0.3288 -2.1663  2.4983
  258MOL0     H34827   6.459   6.183   9.007 -0.5406  1.0591  0.8264
  258MOL0     H34828   6.552   5.913   9.316 -1.4570 -1.3587 -0.3618
  258MOL0     H34829   6.119   5.755   8.577  1.7102  1.0814  0.5408
  258MOL0     H34830   5.926   5.765   8.426  0.6791  0.5758 -0.8879
  259MOL0     O34831   9.221   5.730   7.614 -0.5719 -0.6481 -0.0018
  259MOL0     C34832   9.285   5.742   7.515  0.4607  0.3913  0.0291
  259MOL0     O34833   9.240   5.793   7.398  0.0182  0.0299  0.4736
  259MOL0     C34834   9.106   5.836   7.379  0.5259 -0.2853  0.1557
  259MOL0     C34835   8.990   5.758   7.399  0.1859  0.0454  0.0960
  259MOL0     C34836   8.868   5.801   7.364 -0.0846 -0.5357  0.2248
  259MOL0     C34837   8.850   5.928   7.314  0.4174  0.5076  0.6650
  259MOL0     O34838   8.730   5.951   7.264 -0.3546 -0.1729 -0.0764
  259MOL0     C34839   8.645   6.029   7.356 -0.1648  0.5341 -0.4790
  259MOL0     C34840   8.510   6.043   7.288  0.2057 -0.8175  0.5687
  259MOL0     C34841   8.429   5.916   7.296 -0.8925 -0.1477 -0.5317
  259MOL0     C34842   8.312   5.923   7.194 -0.0827 -0.4096 -0.0746
  259MOL0     C34843   8.254   5.787   7.172 -0.1381 -0.0767 -0.2194
  259MOL0     C34844   8.340   5.711   7.059 -0.3514 -1.0167  0.0440
  259MOL0     C34845   8.270   5.575   7.021 -1.4655  0.5530  0.0660
  259MOL0     C34846   8.354   5.521   6.904  0.0394 -0.3688  0.2978
  259MOL0     N34847   8.345   5.374   6.890 -0.0044 -0.4411 -0.5640
  259MOL0     C34848   8.226   5.300   6.873  0.1410  0.2798 -0.3879
  259MOL0     C34849   8.259   5.198   6.789 -0.4026  0.4898 -0.9510
  259MOL0     C34850   8.185   5.076   6.728  0.4500  0.1781 -0.2899
  259MOL0     C34851   8.037   5.089   6.738  0.9266 -0.1351  0.4033
  259MOL0     C34852   7.984   5.047   6.876  0.0494  1.2054 -0.7734
  259MOL0     C34853   7.842   5.080   6.903 -0.0193  0.1733  0.3850
  259MOL0     O34854   7.761   5.009   6.809  0.3744 -0.6684  0.0944
  259MOL0     C34855   7.631   4.980   6.849  0.3757 -0.4805  0.6534
  259MOL0     C34856   7.562   5.022   6.968 -0.6077  0.7331 -0.8278
  259MOL0     C34857   7.432   4.993   6.999 -0.2916 -0.0699  0.8592
  259MOL0     C34858   7.369   5.079   7.122  0.1159  0.3087  0.8748
  259MOL0     C34859   7.366   4.902   6.908  1.0754 -0.2201 -0.2442
  259MOL0     C34860   7.217   4.865   6.940 -0.8885  0.6779  0.5765
  259MOL0     O34861   7.154   4.795   6.835 -0.6145  0.1485  0.1258
  259MOL0     C34862   7.022   4.744   6.857 -0.6774  0.2411 -0.5195
  259MOL0     C34863   6.945   4.735   6.980  0.1324 -0.9507  0.4770
  259MOL0     C34864   6.813   4.693   6.985 -0.5876  0.3848  0.1483
  259MOL0     C34865   6.754   4.640   6.867 -0.4135 -0.0615 -1.3091
  259MOL0     O34866   6.634   4.582   6.872 -0.0519 -0.9191 -0.3348
  259MOL0     C34867   6.606   4.464   6.946 -0.6039 -0.3827  0.0923
  259MOL0     C34868   6.476   4.396   6.887  0.1962 -0.7002 -1.0044
  259MOL0     C34869   6.355   4.430   6.976  0.7351  0.7082 -0.6892
  259MOL0     C34870   6.220   4.376   6.918 -0.0284 -0.9619  0.0656
  259MOL0     C34871   6.117   4.354   7.027  0.5140  0.1327  0.3154
  259MOL0     C34872   6.069   4.482   7.096 -0.5163  0.2236 -0.4833
  259MOL0     C34873   5.954   4.451   7.187 -0.2721 -0.1575  0.2294
  259MOL0     C34874   5.910   4.582   7.247 -0.2810  0.0153 -0.7561
  259MOL0    Cl34875   5.790   4.526   7.360 -0.7650 -0.7261 -0.3764
  259MOL0     C34876   6.834   4.627   6.753 -0.4186 -0.0389  0.4385
  259MOL0     C34877   6.964   4.677   6.748 -0.0188 -0.5875 -0.2721
  259MOL0     O34878   7.179   4.884   7.053 -0.3804 -0.2142  0.4253
  259MOL0     C34879   7.435   4.861   6.791  0.0679  0.0296  0.3575
  259MOL0     C34880   7.568   4.899   6.766 -0.5567 -0.3809 -0.6341
  259MOL0     N34881   8.397   5.203   6.768 -0.4390  0.0500  0.0879
  259MOL0     N34882   8.450   5.309   6.830  1.2889  0.1557 -0.0476
  259MOL0     C34883   8.961   6.008   7.298 -0.1944 -0.4125  0.3989
  259MOL0     C34884   9.086   5.967   7.333 -0.1442  0.7877  0.0353
  259MOL0     C34885   9.425   5.694   7.504 -0.0893  0.3078  0.4912
  259MOL0     C34886   9.509   5.681   7.619  1.0195 -0.3753 -0.1682
  259MOL0     C34887   9.653   5.651   7.616  0.4282  0.4081  0.8440
  259MOL0     C34888   9.704   5.626   7.483  1.0976 -0.9946  0.1857
  259MOL0     O34889   9.822   5.574   7.470 -0.7306  0.5676 -0.2569
  259MOL0     C34890   9.842   5.428   7.485  0.3696 -0.5629 -0.0321
  259MOL0     C34891   9.937   5.387   7.601  0.3441 -0.5776 -0.0103
  259MOL0     C34892   9.886   5.392   7.741 -1.0260 -0.8322 -0.6134
  259MOL0     C34893   9.982   5.305   7.833 -0.2253  0.0872 -0.0342
  259MOL0     C34894   9.927   5.296   7.971 -0.1326 -0.9709  0.0224
  259MOL0     C34895   9.874   5.293   8.080 -0.4285  0.3377  0.6272
  259MOL0     C34896   9.614   5.621   7.371 -0.8221  0.5791  0.7932
  259MOL0     C34897   9.476   5.647   7.380 -0.4590 -0.0576  0.9103
  259MOL0     H34898   9.004   5.655   7.430  1.7933  0.0922 -0.3539
  259MOL0     H34899   8.796   5.720   7.362 -0.8312 -0.0491  2.7748
  259MOL0     H34900   8.622   5.975   7.448 -0.9607  3.2294  1.0186
  259MOL0     H34901   8.686   6.126   7.388 -0.3419 -0.6280  3.8578
  259MOL0     H34902   8.455   6.127   7.332 -1.2530 -0.9991 -0.8338
  259MOL0     H34903   8.523   6.060   7.181 -2.2497  1.7385  0.5695
  259MOL0     H34904   8.486   5.837   7.247 -3.7123 -2.4706 -0.3343
  259MOL0     H34905   8.398   5.895   7.399 -0.4335  3.5220  0.4992
  259MOL0     H34906   8.244   5.994   7.242 -1.3943 -0.9492 -1.0766
  259MOL0     H34907   8.346   5.963   7.098  0.6355 -2.1677 -0.6093
  259MOL0     H34908   8.241   5.730   7.264 -0.1355  2.0177  1.1523
  259MOL0     H34909   8.160   5.804   7.118 -1.0517 -1.7975  0.7428
  259MOL0     H34910   8.365   5.773   6.972  2.7424 -0.0608  1.4896
  259MOL0     H34911   8.439   5.690   7.098  0.6298 -0.1806 -1.8443
  259MOL0     H34912   8.283   5.508   7.106 -0.2820  1.1650  0.3829
  259MOL0     H34913   8.164   5.602   7.011 -0.6645  4.9122  1.1479
  259MOL0     H34914   8.458   5.555   6.909 -1.3025  4.1692  2.8408
  259MOL0     H34915   8.310   5.564   6.814  0.7259  1.8455  0.9577
  259MOL0     H34916   8.130   5.335   6.909 -0.6598 -2.4298  0.3759
  259MOL0     H34917   8.215   5.067   6.624  2.1435 -3.9420  0.3458
  259MOL0     H34918   8.219   4.985   6.779 -0.1335  0.4731  0.6507
  259MOL0     H34919   7.986   5.038   6.656 -1.7240 -0.5120  2.1744
  259MOL0     H34920   7.991   5.186   6.717 -2.3862 -2.0030 -1.7355
  259MOL0     H34921   8.050   5.099   6.946 -0.9086  0.1355  1.0082
  259MOL0     H34922   7.994   4.940   6.896 -1.9941  0.7753 -1.7480
  259MOL0     H34923   7.830   5.189   6.903 -0.5121  0.1601  2.2786
  259MOL0     H34924   7.817   5.047   7.004  1.3297 -1.8264  0.1243
  259MOL0     H34925   7.610   5.094   7.034 -1.4765 -0.1575  0.8683
  259MOL0     H34926   7.436   5.153   7.167  1.7858 -0.0005 -0.9728
  259MOL0     H34927   7.274   5.116   7.082 -0.0775  1.1035  2.0395
  259MOL0     H34928   7.340   5.013   7.204  1.3321 -0.3643  0.7898
  259MOL0     H34929   6.981   4.774   7.074  0.0620  2.7592 -0.8650
  259MOL0     H34930   6.757   4.696   7.078 -1.7384 -2.4209 -0.3161
  259MOL0     H34931   6.683   4.386   6.948  1.4444  1.5539  0.6814
  259MOL0     H34932   6.593   4.495   7.050 -0.4393  2.1117 -0.5596
  259MOL0     H34933   6.465   4.431   6.783  0.7058 -0.4869 -0.9867
  259MOL0     H34934   6.491   4.288   6.885  0.3256 -0.9532  3.9004
  259MOL0     H34935   6.337   4.533   7.008 -2.2171 -0.2330  1.0702
  259MOL0     H34936   6.370   4.383   7.074  1.4203  2.3233  0.0217
  259MOL0     H34937   6.183   4.441   6.838  0.7770 -0.5409  0.0269
  259MOL0     H34938   6.240   4.281   6.867 -0.2708  0.1749 -2.2658
  259MOL0     H34939   6.174   4.287   7.093  1.9363 -0.2116 -1.2003
  259MOL0     H34940   6.028   4.301   6.992 -2.4853  3.9560  1.5014
  259MOL0     H34941   6.136   4.546   7.154 -1.6292 -1.4801  2.9312
  259MOL0     H34942   6.045   4.553   7.017  2.8894  2.6173  0.4219
  259MOL0     H34943   5.990   4.375   7.257 -3.2915 -0.6074  1.4303
  259MOL0     H34944   5.880   4.392   7.132 -0.9920 -0.1138  1.1399
  259MOL0     H34945   5.839   4.624   7.175 -0.4949  0.6249 -0.1933
  259MOL0     H34946   5.989   4.647   7.287  2.1884 -1.1699 -3.3248
  259MOL0     H34947   6.790   4.587   6.662 -0.1789 -0.1327  0.3622
  259MOL0     H34948   7.024   4.684   6.658 -0.0416  0.8169 -0.1974
  259MOL0     H34949   7.384   4.788   6.730 -0.4051  1.3055 -0.8272
  259MOL0     H34950   7.619   4.852   6.683 -1.7323 -4.2887  0.6658
  259MOL0     H34951   8.949   6.106   7.254  1.1158 -0.6889 -0.6025
  259MOL0     H34952   9.159   6.040   7.301  0.0691  0.7938  0.5317
  259MOL0     H34953   9.460   5.702   7.714  1.0426 -0.7875 -0.0624
  259MOL0     H34954   9.711   5.630   7.705  0.8888 -1.6607  0.0932
  259MOL0     H34955   9.744   5.383   7.505 -0.6567  2.0030  1.0251
  259MOL0     H34956   9.863   5.373   7.393 -2.4282  0.0138 -1.1216
  259MOL0     H34957  10.031   5.440   7.580 -0.5242  0.1283 -2.5842
  259MOL0     H34958   9.940   5.281   7.575 -0.9602 -1.2330  2.2823
  259MOL0     H34959   9.787   5.350   7.753 -1.0950 -0.0636  2.3137
  259MOL0     H34960   9.881   5.498   7.770 -1.4712 -0.3620 -2.3238
  259MOL0     H34961  10.082   5.349   7.824 -1.4138  3.3167  0.8981
  259MOL0     H34962   9.970   5.200   7.805 -0.1613  0.1469 -0.2859
  259MOL0     H34963   9.824   5.285   8.175  0.6330  2.0582  1.3839
  259MOL0     H34964   9.660   5.606   7.274 -2.7837 -1.7895  0.1157
  259MOL0     H34965   9.405   5.658   7.298  0.6557  5.0455  0.2465
  260MOL0     O34966   8.834   7.128  10.252 -0.0423  0.7606  0.5133
  260MOL0     C34967   8.776   7.015  10.243 -0.4670  0.0371  0.7527
  260MOL0     O34968   8.646   6.991  10.206 -0.2941 -0.3108 -0.8469
  260MOL0     C34969   8.555   7.095  10.225  0.3841  0.0996  0.0499
  260MOL0     C34970   8.428   7.064  10.170 -0.2888  0.1127  0.5795
  260MOL0     C34971   8.320   7.150  10.177  0.4727 -0.2959  0.5187
  260MOL0     C34972   8.335   7.275  10.236  0.2599  0.5096 -0.0706
  260MOL0     O34973   8.233   7.371  10.224  0.5394  0.7643  0.8907
  260MOL0     C34974   8.100   7.318  10.256  0.1319  0.2318  0.4101
  260MOL0     C34975   8.045   7.406  10.362  0.0114 -0.9810 -0.3299
  260MOL0     C34976   7.895   7.416  10.367  0.8015  0.4658 -0.6456
  260MOL0     C34977   7.852   7.510  10.495 -0.0617 -0.1800 -0.2445
  260MOL0     C34978   7.699   7.538  10.502  1.3594  0.4243  0.4767
  260MOL0     C34979   7.663   7.649  10.402  0.1966 -0.6932  0.8202
  260MOL0     C34980   7.516   7.637  10.352 -0.8844 -0.0068  1.1344
  260MOL0     C34981   7.510   7.556  10.214 -0.2716 -0.6493  0.6569
  260MOL0     N34982   7.380   7.536  10.156  0.1656  1.0479 -0.1305
  260MOL0     C34983   7.271   7.613  10.181 -0.6013  0.0796  0.7998
  260MOL0     C34984   7.159   7.547  10.126 -0.1332 -0.5167  0.1290
  260MOL0     C34985   7.020   7.604  10.134 -0.0688  0.9106  0.2831
  260MOL0     C34986   6.925   7.605  10.000 -0.2714  0.2216 -0.1473
  260MOL0     C34987   6.891   7.467   9.942  1.4252 -0.0647 -0.3342
  260MOL0     C34988   6.819   7.455   9.804  0.3935  0.8748  0.2362
  260MOL0     O34989   6.841   7.565   9.718  0.2910 -0.2146  0.3457
  260MOL0     C34990   6.759   7.580   9.606 -0.5044  0.0263 -1.1746
  260MOL0     C34991   6.775   7.698   9.530  0.5971 -0.2039  0.5131
  260MOL0     C34992   6.702   7.715   9.411 -1.5298  0.1076 -0.3298
  260MOL0     C34993   6.733   7.838   9.339 -0.1196  0.2411  0.4202
  260MOL0     C34994   6.608   7.622   9.363 -0.6550  0.0359  0.4800
  260MOL0     C34995   6.575   7.614   9.221  0.1743 -0.3490  0.5042
  260MOL0     O34996   6.454   7.561   9.185  0.3334  0.7428  0.1543
  260MOL0     C34997   6.347   7.642   9.146 -0.2201 -0.0126  0.9138
  260MOL0     C34998   6.238   7.577   9.097  0.1305 -0.8864  0.2087
  260MOL0     C34999   6.104   7.627   9.079 -0.2083  1.1358 -0.8966
  260MOL0     C35000   6.083   7.761   9.103  0.9788 -0.1062 -0.8954
  260MOL0     O35001   5.962   7.822   9.092  1.3004  0.0008  0.0138
  260MOL0     C35002   5.915   7.916   9.180  0.2207  0.1902 -0.2794
  260MOL0     C35003   5.777   7.956   9.138 -0.8888 -0.1757 -0.2877
  260MOL0     C35004   5.783   7.999   8.994  0.6068 -0.1721 -0.7121
  260MOL0     C35005   5.651   8.050   8.952 -0.3410 -0.7266 -0.2656
  260MOL0     C35006   5.663   8.111   8.812 -0.1316  0.7945  0.5712
  260MOL0     C35007   5.538   8.196   8.782 -0.8790  0.1702 -0.1652
  260MOL0     C35008   5.408   8.122   8.745 -1.0153  0.6913 -0.1556
  260MOL0     C35009   5.400   8.085   8.594 -0.0563  0.0134 -0.2800
  260MOL0    Cl35010   5.415   8.219   8.475  0.4171 -0.2455 -0.3989
  260MOL0     C35011   6.195   7.840   9.133  0.3941  0.1050 -0.8002
  260MOL0     C35012   6.326   7.779   9.154 -0.6858  0.2516 -0.1158
  260MOL0     O35013   6.664   7.639   9.139  0.4449  0.0390  0.2967
  260MOL0     C35014   6.581   7.511   9.445 -0.1729  1.0345 -0.5845
  260MOL0     C35015   6.657   7.490   9.565  0.4683 -1.0934  0.0955
  260MOL0     N35016   7.210   7.422  10.088 -0.6357 -1.1801  0.9527
  260MOL0     N35017   7.337   7.412  10.104  0.1805 -0.1109 -0.1151
  260MOL0     C35018   8.458   7.304  10.294  0.1338 -0.9269  0.0178
  260MOL0     C35019   8.569   7.217  10.294  0.0859  0.6427 -0.2203
  260MOL0     C35020   8.849   6.889  10.244 -0.3076  0.3378  0.4550
  260MOL0     C35021   8.831   6.787  10.142  0.2057 -0.4852  0.0570
  260MOL0     C35022   8.916   6.667  10.141  0.4949  0.4334  0.6665
  260MOL0     C35023   9.007   6.645  10.246  1.0254 -0.5561 -0.1468
  260MOL0     O35024   9.087   6.544  10.278  0.0760 -0.6280  0.5953
  260MOL0     C35025   9.108   6.422  10.204  0.1647 -0.3194  0.1775
  260MOL0     C35026   9.265   6.396  10.184  1.1373 -0.1068  0.4350
  260MOL0     C35027   9.295   6.257  10.123  0.7617 -0.0558 -1.1943
  260MOL0     C35028   9.290   6.144  10.232  0.4266  0.5069 -0.3581
  260MOL0     C35029   9.398   6.150  10.323 -0.1616  1.0799 -0.7950
  260MOL0     C35030   9.487   6.154  10.403 -0.3117  0.2943 -0.5362
  260MOL0     C35031   9.009   6.746  10.342  0.0327 -0.2605  0.0451
  260MOL0     C35032   8.945   6.868  10.343 -0.0184 -0.0383 -0.6414
  260MOL0     H35033   8.403   6.974  10.114 -0.8897  1.0400 -0.6822
  260MOL0     H35034   8.233   7.114  10.123  0.9392 -2.7807  1.2846
  260MOL0     H35035   8.039   7.323  10.165  0.9186  1.4255 -0.0713
  260MOL0     H35036   8.115   7.216  10.293  0.6936 -0.9519 -2.7449
  260MOL0     H35037   8.086   7.365  10.455 -0.8595 -1.4800 -0.1502
  260MOL0     H35038   8.096   7.502  10.359  1.9033 -1.9597 -1.6786
  260MOL0     H35039   7.858   7.466  10.277 -2.6048  1.0035  0.8902
  260MOL0     H35040   7.849   7.317  10.371  1.7131  0.0842  1.9608
  260MOL0     H35041   7.879   7.459  10.588 -2.4007 -3.8918 -1.3784
  260MOL0     H35042   7.906   7.606  10.491  0.2113 -0.3223  0.0040
  260MOL0     H35043   7.651   7.441  10.484 -0.0651  0.5699  2.9484
  260MOL0     H35044   7.663   7.565  10.602  1.2392 -1.3923  0.9593
  260MOL0     H35045   7.680   7.745  10.451  2.0133 -0.8060  0.4830
  260MOL0     H35046   7.729   7.646  10.315  1.3306 -1.6662  1.7002
  260MOL0     H35047   7.446   7.592  10.423 -2.5274  1.4702  0.5143
  260MOL0     H35048   7.472   7.736  10.336 -3.2739 -1.0238  1.0881
  260MOL0     H35049   7.572   7.466  10.214 -0.3019 -0.6912 -1.0399
  260MOL0     H35050   7.556   7.610  10.131 -0.9357 -3.0521 -1.3767
  260MOL0     H35051   7.267   7.704  10.240 -0.0701 -1.5262  3.4764
  260MOL0     H35052   6.958   7.548  10.205 -1.9840  3.8599  1.1111
  260MOL0     H35053   7.018   7.704  10.179  0.4442  0.3260  1.6862
  260MOL0     H35054   6.973   7.674   9.930  1.6586  2.4138  3.0650
  260MOL0     H35055   6.839   7.662  10.036  1.5612  1.9940  1.7259
  260MOL0     H35056   6.821   7.411  10.005  1.6693 -0.7689 -0.6871
  260MOL0     H35057   6.987   7.416   9.933  1.1560 -0.5027 -0.8160
  260MOL0     H35058   6.712   7.442   9.825  0.8325 -1.8718  1.0800
  260MOL0     H35059   6.852   7.363   9.756  0.0922  0.8685  0.0418
  260MOL0     H35060   6.860   7.754   9.568  0.7724 -1.4115  2.0273
  260MOL0     H35061   6.642   7.870   9.288  1.7066  0.3071 -3.0842
  260MOL0     H35062   6.762   7.916   9.411  2.4839  1.4681 -1.7680
  260MOL0     H35063   6.803   7.828   9.255 -1.6841 -1.1655 -0.7823
  260MOL0     H35064   6.250   7.472   9.072 -0.2661 -1.1165  0.9740
  260MOL0     H35065   6.017   7.567   9.054 -0.3630 -0.5548  3.0571
  260MOL0     H35066   5.914   7.885   9.285 -2.1071  2.4254  0.4650
  260MOL0     H35067   5.984   8.001   9.179  0.5249 -0.0083  1.3577
  260MOL0     H35068   5.704   7.878   9.160 -1.6993  0.8408  0.8074
  260MOL0     H35069   5.743   8.049   9.185 -0.1535  2.5589 -4.6028
  260MOL0     H35070   5.790   7.915   8.925  0.8655  1.2825 -2.5397
  260MOL0     H35071   5.857   8.068   8.953  0.6928 -0.7064 -1.4873
  260MOL0     H35072   5.565   7.984   8.965 -1.5492  0.2225 -2.6870
  260MOL0     H35073   5.634   8.135   9.019 -3.0926  2.7941 -4.8157
  260MOL0     H35074   5.682   8.031   8.740  0.5419  2.0322 -0.6749
  260MOL0     H35075   5.747   8.181   8.809  0.8577 -0.3747  0.0563
  260MOL0     H35076   5.519   8.267   8.864 -3.6184 -0.0820 -0.5075
  260MOL0     H35077   5.569   8.262   8.700  1.7928  0.7884  1.2194
  260MOL0     H35078   5.322   8.183   8.774 -0.2361  1.6550  0.2038
  260MOL0     H35079   5.405   8.026   8.798 -3.6409 -0.2412 -1.8198
  260MOL0     H35080   5.296   8.052   8.589  0.0472 -0.8664  2.0946
  260MOL0     H35081   5.469   8.008   8.560  1.6662  2.1036 -1.7932
  260MOL0     H35082   6.183   7.946   9.152  0.8096 -0.1670  1.2750
  260MOL0     H35083   6.409   7.848   9.162 -2.4236  2.4312  0.1541
  260MOL0     H35084   6.503   7.443   9.412  2.4540 -1.2170 -2.6061
  260MOL0     H35085   6.640   7.399   9.622 -0.4178 -0.7171  0.4510
  260MOL0     H35086   8.470   7.405  10.330  0.5506 -0.4482 -1.3775
  260MOL0     H35087   8.646   7.230  10.369 -0.1007  2.9836 -0.3725
  260MOL0     H35088   8.753   6.794  10.067  0.0123 -1.0654  0.1990
  260MOL0     H35089   8.901   6.600  10.056  2.6172  1.6988 -0.8048
  260MOL0     H35090   9.047   6.349  10.259 -0.7944  0.5027  0.2432
  260MOL0     H35091   9.066   6.435  10.104  0.8075  1.0959  0.0713
  260MOL0     H35092   9.303   6.391  10.286 -4.3877 -0.3687  2.8380
  260MOL0     H35093   9.323   6.468  10.125  3.1842 -2.1400 -0.2026
  260MOL0     H35094   9.394   6.249  10.077 -0.1450  0.2861 -3.3027
  260MOL0     H35095   9.221   6.237  10.044 -2.7824  0.7581  1.6552
  260MOL0     H35096   9.281   6.042  10.193 -4.3118 -0.2206  1.9490
  260MOL0     H35097   9.190   6.145  10.276  0.0516 -2.8464 -0.8739
  260MOL0     H35098   9.572   6.140  10.467  0.2978  2.0808 -0.9039
  260MOL0     H35099   9.089   6.742  10.415 -0.4471  2.7624  0.8737
  260MOL0     H35100   8.965   6.948  10.415  1.8625 -2.5660  1.8729
  261MOL0     O35101   5.679   4.823   7.605  0.3703 -0.1729 -0.8993
  261MOL0     C35102   5.587   4.897   7.589  0.9343 -0.1737  0.5173
  261MOL0     O35103   5.458   4.865   7.615 -0.2928 -0.7573  0.3442
  261MOL0     C35104   5.412   4.752   7.674 -0.6212 -0.0978 -1.0922
  261MOL0     C35105   5.284   4.763   7.734  0.4949  0.7498 -0.8945
  261MOL0     C35106   5.225   4.657   7.800  0.0346  1.3513  0.0695
  261MOL0     C35107   5.296   4.541   7.812 -0.2817  0.1115  0.4411
  261MOL0     O35108   5.252   4.432   7.879 -0.2245 -0.4182 -0.3309
  261MOL0     C35109   5.133   4.447   7.960 -0.7342  0.3260 -0.0975
  261MOL0     C35110   5.006   4.439   7.884 -0.8625  0.3132  0.5519
  261MOL0     C35111   4.975   4.302   7.834  0.8606 -0.2604  0.3373
  261MOL0     C35112   4.916   4.222   7.956  0.7539 -0.1982 -0.2318
  261MOL0     C35113   4.866   4.092   7.901  0.2376  0.0082  1.0269
  261MOL0     C35114   4.973   4.004   7.821 -0.9372  0.7389  0.0451
  261MOL0     C35115   4.917   3.870   7.778  0.6511  1.0805  0.4263
  261MOL0     C35116   4.773   3.863   7.723 -0.7372 -0.2857 -0.3562
  261MOL0     N35117   4.741   3.909   7.583 -1.0468  1.0342  0.1399
  261MOL0     C35118   4.771   4.033   7.520  0.4667  0.3276 -0.7473
  261MOL0     C35119   4.717   4.014   7.400  0.1933 -0.1518 -0.1075
  261MOL0     C35120   4.689   4.122   7.296 -0.2079 -0.3098 -0.6668
  261MOL0     C35121   4.537   4.170   7.305  0.0158  0.1068  0.9181
  261MOL0     C35122   4.479   4.266   7.201  0.0775  0.4208 -0.4539
  261MOL0     C35123   4.560   4.377   7.170 -1.6865 -0.4094  0.2597
  261MOL0     O35124   4.599   4.447   7.287 -0.2969 -0.5263 -0.5529
  261MOL0     C35125   4.577   4.578   7.272  0.1547  0.6255 -0.1563
  261MOL0     C35126   4.672   4.664   7.221  1.0321 -0.3123 -0.4362
  261MOL0     C35127   4.642   4.804   7.209 -0.3514  0.0898  0.3073
  261MOL0     C35128   4.766   4.889   7.181 -0.3755  0.3436  0.0900
  261MOL0     C35129   4.512   4.856   7.234 -0.2172  0.1161 -0.6066
  261MOL0     C35130   4.466   4.997   7.229 -0.4835 -0.3662  0.0318
  261MOL0     O35131   4.353   5.023   7.290 -0.1520  0.0014 -0.2644
  261MOL0     C35132   4.305   5.156   7.292  0.3065  0.0775  1.7252
  261MOL0     C35133   4.202   5.196   7.208 -0.2678  0.0380  0.6029
  261MOL0     C35134   4.140   5.325   7.228 -0.5740  0.3580  0.0718
  261MOL0     C35135   4.186   5.401   7.344 -0.7039 -0.2844 -0.4684
  261MOL0     O35136   4.118   5.519   7.360 -0.0427 -0.2304  0.7518
  261MOL0     C35137   4.085   5.571   7.491  0.2963  1.3220  1.2607
  261MOL0     C35138   3.976   5.677   7.475 -1.3408 -0.1135 -0.5042
  261MOL0     C35139   4.024   5.799   7.385 -0.2040  0.8687  0.4412
  261MOL0     C35140   3.924   5.913   7.388  0.4098  0.0444 -0.3190
  261MOL0     C35141   3.972   6.049   7.324  0.0727  0.0059 -0.2010
  261MOL0     C35142   3.849   6.118   7.269 -0.1009  0.0266  1.7266
  261MOL0     C35143   3.882   6.254   7.220 -0.8354 -0.2347 -0.0731
  261MOL0     C35144   3.758   6.329   7.181  0.3844 -0.2408 -0.3080
  261MOL0    Cl35145   3.796   6.494   7.128 -0.0563  0.0834  0.1355
  261MOL0     C35146   4.303   5.363   7.412  0.2572 -1.0385 -0.2273
  261MOL0     C35147   4.360   5.239   7.383 -0.6725 -1.2025 -1.2864
  261MOL0     O35148   4.521   5.073   7.146  0.6420 -0.6683  0.0502
  261MOL0     C35149   4.420   4.761   7.284  0.3823  0.4257  0.2779
  261MOL0     C35150   4.451   4.628   7.298  0.2559 -0.6597  0.6088
  261MOL0     N35151   4.669   3.890   7.380  0.1076 -0.2077 -0.3548
  261MOL0     N35152   4.674   3.825   7.493 -1.1536 -0.0449 -0.5838
  261MOL0     C35153   5.417   4.529   7.736 -0.6823 -0.2888 -0.5760
  261MOL0     C35154   5.482   4.638   7.678  0.1319 -0.3778 -0.9026
  261MOL0     C35155   5.620   5.032   7.545 -0.3688 -0.0314 -0.3287
  261MOL0     C35156   5.736   5.075   7.464 -0.1623 -0.1208  0.0782
  261MOL0     C35157   5.757   5.216   7.457  0.0149  0.3362 -0.7870
  261MOL0     C35158   5.664   5.313   7.506  0.8376  0.4238  0.6966
  261MOL0     O35159   5.680   5.442   7.468  0.6469 -0.5732  1.1671
  261MOL0     C35160   5.585   5.539   7.508  0.1751  0.2018 -1.5627
  261MOL0     C35161   5.586   5.658   7.418 -1.0522  0.7241 -0.2999
  261MOL0     C35162   5.730   5.694   7.365  0.5171  0.2827 -0.3704
  261MOL0     C35163   5.829   5.730   7.477  0.1515  0.1965 -1.3171
  261MOL0     C35164   5.951   5.796   7.422  0.2234  0.2740 -0.2802
  261MOL0     C35165   6.065   5.835   7.383 -0.0089  0.0707 -0.6559
  261MOL0     C35166   5.564   5.264   7.579  1.2428 -0.1432 -0.3384
  261MOL0     C35167   5.538   5.131   7.601  0.3408  0.7219 -0.7103
  261MOL0     H35168   5.229   4.852   7.706  0.7395  0.5847 -1.9773
  261MOL0     H35169   5.130   4.683   7.846 -1.2307 -0.4585 -1.3710
  261MOL0     H35170   5.138   4.363   8.030  1.7966  1.7877  1.6197
  261MOL0     H35171   5.132   4.543   8.014  1.9888  0.8152 -0.7517
  261MOL0     H35172   4.924   4.478   7.945 -1.3886 -0.2708  0.2321
  261MOL0     H35173   5.007   4.496   7.791 -0.3950  0.1467  0.4554
  261MOL0     H35174   4.895   4.312   7.761  2.0206 -1.7260 -1.2344
  261MOL0     H35175   5.061   4.255   7.785 -0.2715 -3.0947  0.8831
  261MOL0     H35176   4.998   4.214   8.028  0.5320  2.8833  0.5099
  261MOL0     H35177   4.842   4.273   8.019  2.4261  3.1291 -0.7499
  261MOL0     H35178   4.836   4.043   7.994 -2.8702  0.2773  0.2742
  261MOL0     H35179   4.786   4.123   7.833  0.2134 -2.4965 -0.1966
  261MOL0     H35180   5.011   4.046   7.727 -0.5659 -0.7030 -0.4751
  261MOL0     H35181   5.056   3.998   7.891 -1.8043  1.0499  1.1209
  261MOL0     H35182   4.984   3.832   7.700 -0.3601 -1.9473  0.9079
  261MOL0     H35183   4.931   3.794   7.856  0.3085 -0.4501 -0.9424
  261MOL0     H35184   4.711   3.923   7.790 -0.3885  0.0061 -0.2885
  261MOL0     H35185   4.743   3.759   7.735  1.4457 -1.1857 -1.8025
  261MOL0     H35186   4.825   4.118   7.558  1.0721 -0.1988 -0.4140
  261MOL0     H35187   4.755   4.208   7.311  1.5131 -1.7411  0.5069
  261MOL0     H35188   4.715   4.080   7.198  1.8405  0.3868 -0.4627
  261MOL0     H35189   4.517   4.206   7.407 -2.8394 -1.2067  0.9193
  261MOL0     H35190   4.477   4.079   7.307 -1.9894  1.3139  4.1126
  261MOL0     H35191   4.382   4.301   7.238 -1.1546 -2.6830 -0.4253
  261MOL0     H35192   4.467   4.216   7.105 -0.3469  1.0807 -0.7466
  261MOL0     H35193   4.518   4.438   7.090  0.7835 -2.1813 -2.5789
  261MOL0     H35194   4.658   4.344   7.135 -2.3409 -0.6185 -1.4849
  261MOL0     H35195   4.766   4.623   7.188  2.4844  3.8270 -2.0493
  261MOL0     H35196   4.805   4.946   7.265 -0.3496 -0.1567  0.4200
  261MOL0     H35197   4.845   4.819   7.153 -0.0770  0.2123  1.2292
  261MOL0     H35198   4.745   4.957   7.098 -1.0526 -0.2769 -0.2623
  261MOL0     H35199   4.169   5.130   7.128  0.6461  0.8258 -0.4689
  261MOL0     H35200   4.059   5.368   7.171 -0.2530 -0.8961 -1.3983
  261MOL0     H35201   4.044   5.491   7.553  2.2116 -0.4450  0.3746
  261MOL0     H35202   4.179   5.609   7.532  0.7845 -0.6332  2.0688
  261MOL0     H35203   3.882   5.630   7.444 -4.1549  2.9179  2.5833
  261MOL0     H35204   3.950   5.714   7.574  1.1597 -1.9271  0.9557
  261MOL0     H35205   4.040   5.765   7.282 -2.0366 -1.3117  0.7769
  261MOL0     H35206   4.124   5.832   7.415  0.6481 -2.4446  1.7378
  261MOL0     H35207   3.827   5.877   7.352 -0.9913  1.6338  1.5939
  261MOL0     H35208   3.894   5.923   7.493  0.2224  0.7086 -0.4253
  261MOL0     H35209   4.047   6.022   7.248 -1.9055  0.5316 -2.4574
  261MOL0     H35210   4.009   6.110   7.407 -3.3732  0.6958  0.9846
  261MOL0     H35211   3.805   6.063   7.185  1.9800 -0.7032  1.0380
  261MOL0     H35212   3.768   6.129   7.342 -1.0350 -0.4742  0.7883
  261MOL0     H35213   3.951   6.247   7.135  1.5488 -1.4401  1.8091
  261MOL0     H35214   3.950   6.303   7.290 -1.5296 -2.2226  2.1529
  261MOL0     H35215   3.688   6.339   7.265 -0.5742  0.5364 -1.1716
  261MOL0     H35216   3.713   6.267   7.103  1.1937  0.1323 -1.0919
  261MOL0     H35217   4.348   5.438   7.476 -2.8984  1.4667 -0.6963
  261MOL0     H35218   4.447   5.220   7.445 -2.8490  0.3188  2.5760
  261MOL0     H35219   4.319   4.785   7.316 -0.2736 -0.1720 -1.2374
  261MOL0     H35220   4.370   4.570   7.340  0.4944 -1.2858  0.2141
  261MOL0     H35221   5.458   4.429   7.746 -0.3855 -0.2855 -1.6057
  261MOL0     H35222   5.579   4.620   7.634  2.1537 -0.9649  3.3290
  261MOL0     H35223   5.799   4.998   7.420 -1.1516 -1.2535  0.5727
  261MOL0     H35224   5.844   5.251   7.402  1.7551 -2.7736 -0.3033
  261MOL0     H35225   5.482   5.503   7.516  1.0942 -2.4818 -0.8037
  261MOL0     H35226   5.618   5.577   7.605 -0.2970 -2.4974 -0.2569
  261MOL0     H35227   5.546   5.743   7.476 -2.7445 -0.6042  0.5731
  261MOL0     H35228   5.518   5.631   7.337  1.0885  0.1391 -2.0004
  261MOL0     H35229   5.722   5.776   7.293 -3.3401  1.3739  1.0640
  261MOL0     H35230   5.774   5.606   7.317 -1.4666 -1.3721  0.6786
  261MOL0     H35231   5.842   5.643   7.541 -0.9020 -1.7676 -3.6291
  261MOL0     H35232   5.789   5.812   7.538 -0.1594  0.6733 -2.1443
  261MOL0     H35233   6.164   5.861   7.349  1.1039 -2.4023  0.4109
  261MOL0     H35234   5.490   5.335   7.614 -1.3403 -2.4480 -0.7277
  261MOL0     H35235   5.448   5.101   7.653 -0.2246 -0.4727 -2.2612
  262MOL0     O35236   2.710   6.707   1.640 -0.8296  0.0776  0.8059
  262MOL0     C35237   2.709   6.684   1.765  0.0873  0.2258  0.6341
  262MOL0     O35238   2.706   6.554   1.822  0.5432 -0.5649 -0.4505
  262MOL0     C35239   2.732   6.452   1.746  0.3684  0.7667  0.2229
  262MOL0     C35240   2.650   6.336   1.775 -0.3089  0.2332  0.7323
  262MOL0     C35241   2.666   6.223   1.697 -1.1459 -0.5872  0.6729
  262MOL0     C35242   2.766   6.222   1.592 -0.1720  0.0143 -0.2170
  262MOL0     O35243   2.792   6.101   1.542  0.5907  0.3223 -0.5834
  262MOL0     C35244   2.778   6.090   1.397 -0.2024 -0.1348  0.1661
  262MOL0     C35245   2.718   5.962   1.357  0.1245  0.1926  0.1583
  262MOL0     C35246   2.682   5.948   1.207 -0.1555  0.0769  1.1713
  262MOL0     C35247   2.792   5.873   1.124  1.1340 -0.0350  0.0550
  262MOL0     C35248   2.732   5.822   0.988 -0.9176  0.3390  0.4096
  262MOL0     C35249   2.823   5.718   0.909 -0.2062 -0.5374  0.5640
  262MOL0     C35250   2.925   5.776   0.812  0.0611  0.2495  0.0573
  262MOL0     C35251   3.005   5.657   0.752  0.0541 -0.0838  0.6240
  262MOL0     N35252   2.925   5.595   0.650 -0.0326  0.3584  0.2446
  262MOL0     C35253   2.843   5.489   0.667 -0.5029  1.9148 -0.5007
  262MOL0     C35254   2.833   5.432   0.550  0.3498 -0.2940 -0.4615
  262MOL0     C35255   2.767   5.303   0.513  0.3241  1.6656 -0.8166
  262MOL0     C35256   2.867   5.187   0.526  1.1692 -0.2261  0.2884
  262MOL0     C35257   2.964   5.204   0.412 -0.7443  0.4022  1.1307
  262MOL0     C35258   3.031   5.069   0.394 -0.1902 -0.4794  0.2868
  262MOL0     O35259   3.143   5.098   0.313  0.9187 -0.4308  0.8460
  262MOL0     C35260   3.256   5.038   0.348  0.4501  0.0689  0.2703
  262MOL0     C35261   3.259   4.901   0.379 -0.3581 -0.2414  0.0323
  262MOL0     C35262   3.378   4.830   0.423 -0.1595  0.3709 -0.5723
  262MOL0     C35263   3.355   4.688   0.467  0.5383 -0.3563  0.2366
  262MOL0     C35264   3.497   4.897   0.429  0.0095 -0.4678 -0.4241
  262MOL0     C35265   3.622   4.828   0.465  0.8011 -0.1564 -0.0763
  262MOL0     O35266   3.637   4.771   0.587  0.5155 -0.6728 -0.6944
  262MOL0     C35267   3.755   4.700   0.624  0.7049 -0.7086  0.2783
  262MOL0     C35268   3.801   4.580   0.552 -0.0805  0.0841  0.0683
  262MOL0     C35269   3.927   4.527   0.563  0.6571 -0.6735  0.3142
  262MOL0     C35270   4.016   4.588   0.650  0.1932  0.4641  0.7763
  262MOL0     O35271   4.157   4.560   0.648  0.2134 -0.0004 -0.4732
  262MOL0     C35272   4.213   4.447   0.583 -0.1844  0.9235  1.1345
  262MOL0     C35273   4.352   4.434   0.629  0.2423 -0.3924 -0.3648
  262MOL0     C35274   4.362   4.368   0.774 -0.8348  0.4735  0.4986
  262MOL0     C35275   4.248   4.284   0.827 -0.4548  2.2510 -0.7183
  262MOL0     C35276   4.269   4.228   0.977 -0.2262 -0.1643  0.2607
  262MOL0     C35277   4.136   4.177   1.024 -0.0390 -0.1505  0.6078
  262MOL0     C35278   4.133   4.147   1.170 -0.8556  0.1311  0.0144
  262MOL0     C35279   4.274   4.136   1.245 -0.1213 -0.1650 -1.0993
  262MOL0    Cl35280   4.263   4.083   1.420  0.0804 -0.4330  0.1324
  262MOL0     C35281   3.973   4.695   0.735 -0.8720 -0.1146  0.3287
  262MOL0     C35282   3.841   4.739   0.720  1.5716 -0.3346 -0.3510
  262MOL0     O35283   3.709   4.827   0.382 -0.5814 -0.2734  0.2445
  262MOL0     C35284   3.493   5.033   0.396 -0.2706  0.0883 -0.4347
  262MOL0     C35285   3.377   5.110   0.360  0.5750  0.1917  0.1980
  262MOL0     N35286   2.898   5.503   0.452 -0.8076 -0.2119  0.4997
  262MOL0     N35287   2.958   5.597   0.520  0.7080 -0.6677 -0.1752
  262MOL0     C35288   2.852   6.326   1.586  0.3302 -0.0851  0.3637
  262MOL0     C35289   2.844   6.442   1.667  0.4852 -0.3107 -0.3071
  262MOL0     C35290   2.675   6.796   1.855  0.9287  1.1983  0.5816
  262MOL0     C35291   2.670   6.930   1.812  0.7549  0.8278  0.3025
  262MOL0     C35292   2.633   7.030   1.899 -0.9059 -0.2528  0.4135
  262MOL0     C35293   2.612   7.006   2.035 -0.0789  0.4858 -0.3154
  262MOL0     O35294   2.602   7.106   2.121 -0.5823  0.1525 -0.6888
  262MOL0     C35295   2.521   7.096   2.240  0.6210 -0.5182 -0.2491
  262MOL0     C35296   2.504   7.231   2.311 -0.1283 -1.0462  0.0034
  262MOL0     C35297   2.397   7.223   2.439 -0.5384 -0.6216  0.5742
  262MOL0     C35298   2.261   7.186   2.381  0.1585  0.7050  0.5548
  262MOL0     C35299   2.160   7.193   2.492  0.1939 -0.0983 -0.5187
  262MOL0     C35300   2.085   7.201   2.586  0.5007 -0.7692  0.5113
  262MOL0     C35301   2.607   6.868   2.079  0.7648 -0.3622  0.3730
  262MOL0     C35302   2.643   6.766   1.991  0.0472 -0.2619 -0.1506
  262MOL0     H35303   2.563   6.322   1.837 -0.3800 -3.0408  0.0847
  262MOL0     H35304   2.602   6.138   1.714 -0.0684 -1.1070  2.4443
  262MOL0     H35305   2.700   6.158   1.362  0.3798  0.1644 -0.5647
  262MOL0     H35306   2.869   6.102   1.338 -0.1356 -2.3880 -0.2842
  262MOL0     H35307   2.790   5.883   1.378 -1.0135 -0.2884  2.6496
  262MOL0     H35308   2.631   5.938   1.419 -1.5032 -1.4663 -2.5469
  262MOL0     H35309   2.594   5.884   1.198 -0.2453  0.2917  0.5169
  262MOL0     H35310   2.664   6.046   1.162  2.5967 -0.3751 -1.1958
  262MOL0     H35311   2.874   5.943   1.105 -0.8461  2.9006  1.6945
  262MOL0     H35312   2.834   5.783   1.171  0.0085 -0.5805  0.0603
  262MOL0     H35313   2.639   5.770   1.013 -0.2674 -0.1137  2.0198
  262MOL0     H35314   2.697   5.898   0.918  0.0613  0.8616  0.4743
  262MOL0     H35315   2.866   5.636   0.967  0.1782 -1.6201 -1.1697
  262MOL0     H35316   2.752   5.673   0.839  0.2612 -2.9850  1.5807
  262MOL0     H35317   2.876   5.837   0.736  1.2069  0.2354 -0.7196
  262MOL0     H35318   2.994   5.845   0.862 -1.0522  3.3039 -2.3456
  262MOL0     H35319   3.021   5.578   0.826 -3.0635  0.3507  1.9260
  262MOL0     H35320   3.102   5.697   0.722 -0.3031  1.3960  1.2992
  262MOL0     H35321   2.809   5.441   0.758  1.3009 -2.5741 -1.9097
  262MOL0     H35322   2.678   5.291   0.575 -0.4045  1.1061 -1.9506
  262MOL0     H35323   2.734   5.320   0.411  2.5638  5.5126 -1.1178
  262MOL0     H35324   2.816   5.090   0.524  1.8082 -0.5951  1.3145
  262MOL0     H35325   2.933   5.203   0.611  0.2754  2.7533  0.5415
  262MOL0     H35326   3.047   5.274   0.428  0.7221 -0.5627 -1.5459
  262MOL0     H35327   2.916   5.234   0.318  1.5871 -1.2260 -0.7255
  262MOL0     H35328   2.967   4.998   0.341  0.3259  0.1333 -1.2017
  262MOL0     H35329   3.046   5.027   0.494 -1.4227 -0.3661  0.5394
  262MOL0     H35330   3.172   4.836   0.382  2.3994 -4.2926 -0.2039
  262MOL0     H35331   3.270   4.645   0.413 -0.1437  1.9969 -0.6949
  262MOL0     H35332   3.434   4.624   0.427 -0.0111  0.6252 -2.6497
  262MOL0     H35333   3.336   4.685   0.575  0.1260  0.6388  0.2045
  262MOL0     H35334   3.735   4.536   0.477 -0.7120 -0.3417  0.8646
  262MOL0     H35335   3.944   4.447   0.492  0.4502  0.0154 -0.5244
  262MOL0     H35336   4.157   4.353   0.591  1.6159 -0.0773  2.8042
  262MOL0     H35337   4.230   4.460   0.476  0.4343 -1.1941  0.9389
  262MOL0     H35338   4.403   4.372   0.554 -1.7281 -1.8786 -0.5399
  262MOL0     H35339   4.406   4.529   0.629  0.3000 -0.4231  0.0217
  262MOL0     H35340   4.393   4.441   0.849  1.0036  1.2549 -0.9217
  262MOL0     H35341   4.452   4.306   0.766  0.4631  2.3197 -0.0070
  262MOL0     H35342   4.150   4.332   0.822 -1.0537  2.0379  3.9548
  262MOL0     H35343   4.236   4.200   0.759 -0.9339  3.6070 -2.3650
  262MOL0     H35344   4.303   4.310   1.040  0.1436 -0.0717 -0.0532
  262MOL0     H35345   4.347   4.153   0.968  2.6382  2.4562  1.3788
  262MOL0     H35346   4.053   4.242   0.994  0.9626 -0.5083 -3.6222
  262MOL0     H35347   4.112   4.086   0.967 -1.0818  1.5547 -1.8482
  262MOL0     H35348   4.070   4.057   1.179 -1.9065  0.9799  1.6276
  262MOL0     H35349   4.078   4.228   1.219  0.9587  1.0893  0.5384
  262MOL0     H35350   4.329   4.231   1.249  0.0151 -0.2848  1.6795
  262MOL0     H35351   4.326   4.061   1.185  0.9325 -1.6352  1.4868
  262MOL0     H35352   4.047   4.751   0.791 -0.7430 -0.1308  0.1764
  262MOL0     H35353   3.797   4.810   0.789  1.6929 -1.8184  1.3076
  262MOL0     H35354   3.593   5.074   0.400 -0.4962  0.6179 -0.1328
  262MOL0     H35355   3.391   5.212   0.326 -1.9349  0.2484 -0.8474
  262MOL0     H35356   2.919   6.320   1.501 -1.1113 -0.7416 -0.7775
  262MOL0     H35357   2.917   6.521   1.656  1.6820 -1.2781  0.4457
  262MOL0     H35358   2.709   6.940   1.711  2.2099 -2.3776  0.4291
  262MOL0     H35359   2.630   7.131   1.860  0.0754 -0.8992 -1.4264
  262MOL0     H35360   2.418   7.067   2.216 -0.1413 -2.7047  4.5808
  262MOL0     H35361   2.557   7.012   2.300 -0.1366  0.1894  1.2594
  262MOL0     H35362   2.480   7.315   2.246 -1.9254 -3.0480 -2.0595
  262MOL0     H35363   2.599   7.254   2.361 -1.8448  0.6100  2.7921
  262MOL0     H35364   2.385   7.314   2.498 -0.2614 -0.3760  0.2610
  262MOL0     H35365   2.430   7.147   2.511  0.2312 -0.7792  0.0707
  262MOL0     H35366   2.266   7.081   2.351 -1.0753  0.7717  0.0685
  262MOL0     H35367   2.223   7.237   2.293 -0.5058 -1.4427 -0.4750
  262MOL0     H35368   2.024   7.225   2.672  0.5737 -2.0844  0.9574
  262MOL0     H35369   2.599   6.846   2.185 -0.1266  5.0408  1.7052
  262MOL0     H35370   2.635   6.661   2.015  3.3161 -0.4933  0.3320
  263MOL0     O35371   9.455   9.609   7.720 -0.3094 -0.9881 -0.3948
  263MOL0     C35372   9.511   9.695   7.795  0.6796 -0.4595  1.3617
  263MOL0     O35373   9.485   9.822   7.778 -1.0849  0.5759 -0.5292
  263MOL0     C35374   9.376   9.871   7.718  0.2251 -0.0262 -0.5917
  263MOL0     C35375   9.394  10.004   7.672 -0.6503 -0.3556  0.8413
  263MOL0     C35376   9.290  10.071   7.607 -0.1512  0.1913 -1.2430
  263MOL0     C35377   9.158  10.014   7.602 -0.1539 -0.6433  0.1322
  263MOL0     O35378   9.069  10.097   7.539  0.6063 -0.8505 -1.0252
  263MOL0     C35379   8.947  10.045   7.493 -0.4942  0.0406  0.4092
  263MOL0     C35380   8.894  10.132   7.385 -0.0760 -0.4431  0.7918
  263MOL0     C35381   8.988  10.177   7.275 -0.5453  0.4952  0.3250
  263MOL0     C35382   9.103  10.266   7.316  0.1360 -0.2088  0.0891
  263MOL0     C35383   9.172  10.339   7.204  0.1409 -1.0372  0.2356
  263MOL0     C35384   9.082  10.454   7.144 -1.1945 -0.0569  0.3121
  263MOL0     C35385   9.165  10.583   7.108 -0.9109  0.6344 -0.6508
  263MOL0     C35386   9.093  10.696   7.045  1.1009 -0.0590 -0.4194
  263MOL0     N35387   9.137  10.834   7.081  0.3951 -0.6991  0.3810
  263MOL0     C35388   9.081  10.925   7.161  1.1792  0.2593 -0.3279
  263MOL0     C35389   9.158  11.037   7.170 -0.1848  0.7977  0.3716
  263MOL0     C35390   9.105  11.165   7.244  0.4086  1.0284  0.3537
  263MOL0     C35391   9.186  11.285   7.228  0.3056  0.6287  1.0186
  263MOL0     C35392   9.123  11.407   7.294 -0.6544 -0.4366 -0.2282
  263MOL0     C35393   9.088  11.387   7.439 -0.3599  0.3841 -0.1433
  263MOL0     O35394   9.081  11.515   7.513  0.1982 -0.4721  0.4056
  263MOL0     C35395   8.968  11.587   7.500  0.5555 -1.1308  0.1947
  263MOL0     C35396   8.848  11.577   7.426 -1.0392  0.5192 -0.4302
  263MOL0     C35397   8.747  11.676   7.421  0.5598 -0.3853  0.8801
  263MOL0     C35398   8.617  11.621   7.350 -0.2430 -0.6573 -0.1611
  263MOL0     C35399   8.759  11.799   7.483 -0.0574 -0.8946  0.7607
  263MOL0     C35400   8.651  11.904   7.500  0.4140  0.1618  0.9091
  263MOL0     O35401   8.537  11.882   7.431  0.2431  0.3991  0.1868
  263MOL0     C35402   8.464  11.987   7.377 -0.1404  0.2027  0.1914
  263MOL0     C35403   8.338  11.947   7.331 -0.7704  0.7075 -0.8840
  263MOL0     C35404   8.241  12.033   7.287  0.3696 -0.9968  0.6086
  263MOL0     C35405   8.282  12.166   7.266 -0.6182  0.2588 -0.5501
  263MOL0     O35406   8.186  12.252   7.218 -0.1586 -0.3052 -0.0034
  263MOL0     C35407   8.230  12.370   7.143  0.1273 -0.0732  0.0868
  263MOL0     C35408   8.240  12.495   7.219  1.5536  0.5469  0.3174
  263MOL0     C35409   8.117  12.516   7.307  1.1717  0.1665 -0.8997
  263MOL0     C35410   8.089  12.661   7.347 -1.1064  0.4919  0.4600
  263MOL0     C35411   7.981  12.685   7.460  0.0423 -0.4655 -0.0734
  263MOL0     C35412   7.959  12.835   7.469  0.8502  0.1468  0.3181
  263MOL0     C35413   7.872  12.869   7.594  0.0179 -0.6083 -0.6844
  263MOL0     C35414   7.840  13.031   7.621 -0.1869  0.0257  0.6570
  263MOL0    Cl35415   7.787  13.117   7.467  0.0121  0.5419  0.0951
  263MOL0     C35416   8.412  12.210   7.300 -0.2445  0.7636 -0.0133
  263MOL0     C35417   8.502  12.121   7.359 -0.2326 -0.1961 -0.0954
  263MOL0     O35418   8.671  12.002   7.580  1.8431  0.3988 -0.3050
  263MOL0     C35419   8.876  11.815   7.562 -0.5777 -0.6510  0.0766
  263MOL0     C35420   8.973  11.706   7.573  0.9920 -0.2993 -0.6414
  263MOL0     N35421   9.275  11.000   7.105  0.6015  1.0017 -0.1658
  263MOL0     N35422   9.261  10.881   7.052 -0.1347 -0.4518 -0.5004
  263MOL0     C35423   9.143   9.885   7.652  1.0453  0.4690 -0.1781
  263MOL0     C35424   9.246   9.814   7.722  0.1339  0.4442  0.5989
  263MOL0     C35425   9.598   9.648   7.902  0.4656 -0.1316  0.2440
  263MOL0     C35426   9.637   9.513   7.899 -0.2494 -0.7256 -0.8608
  263MOL0     C35427   9.720   9.458   8.002  0.1191  0.0061  0.0296
  263MOL0     C35428   9.753   9.532   8.109  1.3574  0.4285 -0.2059
  263MOL0     O35429   9.819   9.471   8.206  0.2720  0.9928 -0.4003
  263MOL0     C35430   9.823   9.539   8.339 -0.4549  0.1060  0.0444
  263MOL0     C35431   9.920   9.461   8.436 -0.4569 -0.8451  0.0219
  263MOL0     C35432   9.862   9.323   8.464 -0.3931  0.0507  0.3399
  263MOL0     C35433   9.947   9.228   8.548 -0.4313 -0.3865 -0.5531
  263MOL0     C35434   9.940   9.252   8.691 -0.3708  0.1817 -0.5393
  263MOL0     C35435   9.931   9.252   8.807  0.8013  0.4526 -0.0003
  263MOL0     C35436   9.701   9.663   8.120  0.2302 -0.7760  0.7478
  263MOL0     C35437   9.628   9.727   8.014 -0.0442  0.3980 -0.0968
  263MOL0     H35438   9.497  10.036   7.677  0.3680 -3.1410 -0.3286
  263MOL0     H35439   9.312  10.175   7.582  3.7154 -0.7392 -2.3556
  263MOL0     H35440   8.959   9.940   7.463 -0.2689  0.2014 -0.0844
  263MOL0     H35441   8.870  10.044   7.570 -2.5646  0.8582 -1.5226
  263MOL0     H35442   8.808  10.076   7.350  0.0844 -1.0682  1.3783
  263MOL0     H35443   8.854  10.226   7.424  0.8812  1.2692 -2.0842
  263MOL0     H35444   9.023  10.087   7.223 -1.4114 -0.1175  0.7875
  263MOL0     H35445   8.922  10.234   7.209 -0.5185 -1.2885 -1.3369
  263MOL0     H35446   9.086  10.335   7.399  3.4308 -1.1994  1.7411
  263MOL0     H35447   9.180  10.191   7.334 -1.2922 -2.0183 -1.0201
  263MOL0     H35448   9.266  10.385   7.237  0.8992 -0.0497 -2.9112
  263MOL0     H35449   9.192  10.264   7.127 -3.2638 -0.3724 -1.4793
  263MOL0     H35450   9.028  10.413   7.058 -1.2842 -3.8733  2.0004
  263MOL0     H35451   9.004  10.472   7.218  0.0443 -0.9347  1.8934
  263MOL0     H35452   9.189  10.629   7.204 -0.9666  2.4361 -1.4703
  263MOL0     H35453   9.263  10.570   7.061 -0.4564 -0.4280  0.5376
  263MOL0     H35454   8.991  10.680   7.082  0.8169  0.9194 -0.7782
  263MOL0     H35455   9.091  10.671   6.939 -3.1683 -2.5514 -0.0157
  263MOL0     H35456   8.980  10.930   7.202  0.0675  3.0598 -2.9870
  263MOL0     H35457   8.998  11.180   7.226  0.4275  1.2205  0.3916
  263MOL0     H35458   9.102  11.122   7.344  1.3220 -3.0520 -1.1875
  263MOL0     H35459   9.206  11.301   7.122  1.4728  0.5006  1.2084
  263MOL0     H35460   9.282  11.281   7.279  1.4140  0.5550 -0.9663
  263MOL0     H35461   9.043  11.449   7.232 -1.1094  0.3126  0.8480
  263MOL0     H35462   9.198  11.486   7.287 -1.3215  0.0652 -3.4468
  263MOL0     H35463   9.166  11.330   7.490 -0.9614  0.8610  1.3590
  263MOL0     H35464   8.994  11.331   7.449  0.2712 -0.5328  0.8997
  263MOL0     H35465   8.841  11.481   7.375 -0.9965  1.9005 -3.1969
  263MOL0     H35466   8.521  11.631   7.402  0.6667 -0.9746  1.6598
  263MOL0     H35467   8.610  11.677   7.257  0.7201  0.2917  0.3267
  263MOL0     H35468   8.636  11.513   7.341  1.9967 -0.1199 -3.8481
  263MOL0     H35469   8.301  11.845   7.332  3.2332 -0.9282 -1.5957
  263MOL0     H35470   8.142  12.011   7.248  0.3798 -0.4511  0.2629
  263MOL0     H35471   8.321  12.337   7.091 -0.8143 -1.3016 -0.8464
  263MOL0     H35472   8.154  12.387   7.066  1.8436 -1.2729 -1.9999
  263MOL0     H35473   8.333  12.511   7.275  2.4468 -1.4094 -0.5161
  263MOL0     H35474   8.221  12.573   7.144 -1.4207  0.2424  0.6654
  263MOL0     H35475   8.133  12.445   7.388 -1.4575 -2.2464 -2.3090
  263MOL0     H35476   8.030  12.482   7.250  0.3529  2.7375 -1.3451
  263MOL0     H35477   8.186  12.701   7.378 -0.8792  0.5895 -0.3541
  263MOL0     H35478   8.049  12.701   7.253  0.0267 -1.8432 -1.1144
  263MOL0     H35479   8.004  12.647   7.560  1.6410 -0.2279 -0.3200
  263MOL0     H35480   7.886  12.635   7.440  0.1009 -1.8738  2.6294
  263MOL0     H35481   8.050  12.896   7.476 -0.0500  2.0618 -2.7530
  263MOL0     H35482   7.915  12.882   7.381  1.2437  3.4445  1.7088
  263MOL0     H35483   7.922  12.838   7.687  0.0147  0.9467 -0.1323
  263MOL0     H35484   7.773  12.824   7.602 -1.1212  1.6861 -0.8867
  263MOL0     H35485   7.938  13.074   7.644 -0.1205  0.2810 -0.0872
  263MOL0     H35486   7.778  13.042   7.711  0.8855  1.1947  1.2733
  263MOL0     H35487   8.445  12.313   7.298  1.2577  0.3260  0.6979
  263MOL0     H35488   8.601  12.147   7.395  2.0112 -0.9066 -4.9354
  263MOL0     H35489   8.878  11.906   7.622  0.2009 -1.2719  1.0300
  263MOL0     H35490   9.046  11.727   7.651 -1.5215 -1.2592  2.1865
  263MOL0     H35491   9.051   9.831   7.632  2.1396 -2.0094  1.0085
  263MOL0     H35492   9.219   9.723   7.775 -3.5904 -0.1046 -1.8933
  263MOL0     H35493   9.608   9.457   7.810 -1.1964 -0.1669 -0.9161
  263MOL0     H35494   9.751   9.354   7.991 -0.6524 -0.0266 -2.5619
  263MOL0     H35495   9.868   9.639   8.327 -0.2770  0.0206 -0.0083
  263MOL0     H35496   9.727   9.563   8.384 -0.3554  2.2906 -0.7453
  263MOL0     H35497   9.914   9.516   8.530 -2.5165 -0.3982 -0.3275
  263MOL0     H35498  10.024   9.465   8.402 -0.3725 -0.3916  0.3316
  263MOL0     H35499   9.840   9.277   8.367 -1.6056 -2.7401  1.8264
  263MOL0     H35500   9.771   9.330   8.524 -0.7289 -1.6465  0.0709
  263MOL0     H35501  10.046   9.242   8.504 -1.3656  3.7582 -1.8013
  263MOL0     H35502   9.913   9.126   8.530 -0.0382 -0.9252  1.5583
  263MOL0     H35503   9.931   9.262   8.914 -3.0948 -1.3646  0.3211
  263MOL0     H35504   9.713   9.722   8.210 -1.4174  3.3004 -1.4499
  263MOL0     H35505   9.584   9.825   8.025 -1.4936 -0.3180  0.8356
  264MOL0     O35506   4.110   5.413   1.500  0.0576 -0.7218  0.7315
  264MOL0     C35507   4.181   5.384   1.591  0.9074 -0.2911  0.5888
  264MOL0     O35508   4.302   5.323   1.579  0.0093 -0.3614  0.0686
  264MOL0     C35509   4.343   5.274   1.458  0.0575 -0.3906  0.2460
  264MOL0     C35510   4.321   5.349   1.337 -0.6172  0.0925  0.9699
  264MOL0     C35511   4.387   5.301   1.226  0.0370  0.2165 -0.8667
  264MOL0     C35512   4.448   5.174   1.222 -0.2181  0.2863 -0.2432
  264MOL0     O35513   4.530   5.134   1.115  0.2238  0.1560 -0.2430
  264MOL0     C35514   4.461   5.072   1.007 -0.3608  0.4099  0.3821
  264MOL0     C35515   4.553   5.037   0.887  0.7688  0.0817 -0.3431
  264MOL0     C35516   4.476   4.972   0.767 -0.2625 -0.6537  0.3824
  264MOL0     C35517   4.554   4.944   0.638 -0.1076 -0.2089  0.5608
  264MOL0     C35518   4.479   4.858   0.534 -0.0243 -0.1654 -0.4362
  264MOL0     C35519   4.366   4.941   0.462 -0.7664 -0.2005 -0.8036
  264MOL0     C35520   4.293   4.878   0.346  0.0749  0.4834  0.1982
  264MOL0     C35521   4.176   4.785   0.401 -0.9827  0.5856 -0.3731
  264MOL0     N35522   4.107   4.737   0.282  0.4919 -0.1063  0.3848
  264MOL0     C35523   4.011   4.804   0.217 -0.1436 -0.5124 -0.3418
  264MOL0     C35524   3.974   4.719   0.115  0.3103 -1.0583  0.0691
  264MOL0     C35525   3.867   4.741   0.012  0.1948 -0.1796  0.3292
  264MOL0     C35526   3.753   4.654   0.008  0.7945  0.0442  0.4275
  264MOL0     C35527   3.652   4.680   0.114  0.4634 -0.3116 -0.7122
  264MOL0     C35528   3.531   4.589   0.103 -0.1079 -0.2235 -0.1246
  264MOL0     O35529   3.449   4.603  -0.012 -0.4259  0.6822 -0.0539
  264MOL0     C35530   3.326   4.643   0.021  0.1526 -1.1094  0.3862
  264MOL0     C35531   3.220   4.562  -0.017 -0.5073 -0.5621  0.9285
  264MOL0     C35532   3.079   4.577   0.010 -0.7207  1.6376  0.0617
  264MOL0     C35533   2.987   4.475  -0.046 -0.7926  0.6007 -0.4738
  264MOL0     C35534   3.048   4.690   0.087  0.4256 -0.6280  0.1746
  264MOL0     C35535   2.906   4.709   0.131 -0.3162 -0.3905  0.3032
  264MOL0     O35536   2.875   4.838   0.175 -0.5916  0.3116 -0.2664
  264MOL0     C35537   2.767   4.835   0.268 -0.0437 -0.9106  0.0136
  264MOL0     C35538   2.644   4.885   0.227  0.2017  0.2131  0.1159
  264MOL0     C35539   2.547   4.904   0.322  0.2446  0.5213 -0.0099
  264MOL0     C35540   2.562   4.854   0.449 -0.3657 -0.0875 -0.4091
  264MOL0     O35541   2.468   4.843   0.546 -0.4890 -0.1613 -0.0041
  264MOL0     C35542   2.329   4.855   0.511 -1.0688  0.1700  0.8117
  264MOL0     C35543   2.246   4.828   0.638  0.2714 -0.0965 -0.8063
  264MOL0     C35544   2.101   4.842   0.612  0.7188 -0.2701 -0.0517
  264MOL0     C35545   2.012   4.767   0.728  0.1513 -0.3906  0.7177
  264MOL0     C35546   1.862   4.748   0.708  0.8938 -0.5746  0.6742
  264MOL0     C35547   1.771   4.877   0.715  0.7518 -0.1353 -0.6731
  264MOL0     C35548   1.635   4.819   0.757  0.0135 -0.4075  1.0801
  264MOL0     C35549   1.549   4.917   0.834  0.7083 -0.4026  0.2011
  264MOL0    Cl35550   1.631   4.975   0.991  0.3598  0.3785 -0.0827
  264MOL0     C35551   2.684   4.795   0.485 -0.3999  0.1186 -0.6276
  264MOL0     C35552   2.789   4.784   0.398 -0.0405 -0.6891 -0.1791
  264MOL0     O35553   2.825   4.617   0.134 -0.3246  0.2241  0.9717
  264MOL0     C35554   3.152   4.785   0.109  0.3830  0.6196  0.3627
  264MOL0     C35555   3.282   4.761   0.081  0.1986 -0.7219 -0.3861
  264MOL0     N35556   4.064   4.616   0.113  0.4942  0.1119 -0.4453
  264MOL0     N35557   4.136   4.623   0.222 -0.4092  0.0820  1.3239
  264MOL0     C35558   4.431   5.091   1.336 -0.9088  0.0397  0.2199
  264MOL0     C35559   4.395   5.151   1.459 -0.2849 -0.1151 -1.2057
  264MOL0     C35560   4.130   5.382   1.733 -0.5752 -0.1706 -0.2749
  264MOL0     C35561   4.201   5.311   1.833  0.2297  0.1547  0.1597
  264MOL0     C35562   4.141   5.306   1.962  0.5737  0.2405 -0.1286
  264MOL0     C35563   4.025   5.366   1.996 -0.8270 -0.2909  0.0972
  264MOL0     O35564   3.984   5.347   2.129 -0.2410  0.1348 -0.1336
  264MOL0     C35565   3.888   5.446   2.169 -0.0741  0.5245  0.7637
  264MOL0     C35566   3.856   5.462   2.327 -0.6488 -0.0893  0.3467
  264MOL0     C35567   3.721   5.536   2.357 -1.0621 -0.7410  0.0428
  264MOL0     C35568   3.689   5.557   2.501  0.0790  0.6344 -0.3960
  264MOL0     C35569   3.781   5.657   2.559 -0.0288 -0.5048  0.0688
  264MOL0     C35570   3.854   5.745   2.606  0.4378  0.2189  0.8417
  264MOL0     C35571   3.960   5.444   1.894 -0.0730 -0.3953  1.1134
  264MOL0     C35572   4.013   5.446   1.765  0.4278  0.0933 -0.0339
  264MOL0     H35573   4.283   5.448   1.313  2.0327  0.1993 -4.3005
  264MOL0     H35574   4.386   5.365   1.138 -0.1154 -0.0199 -1.0388
  264MOL0     H35575   4.402   4.988   1.043  1.9569 -2.3846 -1.8876
  264MOL0     H35576   4.391   5.145   0.965  1.4366  0.7470 -2.3279
  264MOL0     H35577   4.605   5.125   0.847  0.6223 -0.1864 -1.1454
  264MOL0     H35578   4.625   4.968   0.934 -0.0396  0.8873  2.2597
  264MOL0     H35579   4.455   4.868   0.795  1.5679 -0.8776  1.0295
  264MOL0     H35580   4.384   5.023   0.737 -0.3783 -1.9455 -1.6331
  264MOL0     H35581   4.587   5.039   0.596 -0.4509 -0.1543  0.4088
  264MOL0     H35582   4.648   4.890   0.651  1.1642  2.1459  1.7605
  264MOL0     H35583   4.545   4.799   0.470  2.1429 -0.4747  1.9223
  264MOL0     H35584   4.434   4.776   0.591 -0.1245 -0.7745 -1.3642
  264MOL0     H35585   4.299   4.988   0.535 -1.7646 -3.6914  0.7881
  264MOL0     H35586   4.426   5.020   0.417  1.7610 -1.7267 -0.2850
  264MOL0     H35587   4.256   4.959   0.284  2.6812  1.1369 -0.6499
  264MOL0     H35588   4.358   4.813   0.286 -0.2948  0.0270  0.2787
  264MOL0     H35589   4.113   4.846   0.468  0.9063 -0.9864  3.1052
  264MOL0     H35590   4.214   4.703   0.462 -2.8893  0.6022  0.9451
  264MOL0     H35591   3.965   4.899   0.243 -1.4437 -0.8686 -1.2331
  264MOL0     H35592   3.828   4.844   0.013 -2.0612 -0.9780 -0.6603
  264MOL0     H35593   3.923   4.725  -0.080  0.0578 -0.6853  0.3331
  264MOL0     H35594   3.774   4.546   0.011  2.1311  0.2802  0.1773
  264MOL0     H35595   3.705   4.680  -0.086  1.2674 -0.4634  0.0366
  264MOL0     H35596   3.612   4.782   0.120  0.8377 -0.2349  2.6234
  264MOL0     H35597   3.697   4.652   0.210 -0.0559  2.8412  0.5891
  264MOL0     H35598   3.470   4.602   0.193 -1.9549  0.6344 -1.4392
  264MOL0     H35599   3.567   4.486   0.100 -3.2741 -1.4582 -0.2059
  264MOL0     H35600   3.249   4.469  -0.064 -0.1248 -0.0646  0.1619
  264MOL0     H35601   3.034   4.391  -0.098 -1.5889 -1.2587  1.6222
  264MOL0     H35602   2.930   4.427   0.034  2.2421 -1.5597  0.5897
  264MOL0     H35603   2.924   4.529  -0.117  0.1759  3.1500  0.4834
  264MOL0     H35604   2.633   4.929   0.128  0.2759  0.9340  0.4276
  264MOL0     H35605   2.451   4.942   0.288 -1.0769 -2.0129  0.6360
  264MOL0     H35606   2.302   4.953   0.471  1.8545  1.0605  0.7847
  264MOL0     H35607   2.300   4.784   0.433  0.0020  0.4699  0.1343
  264MOL0     H35608   2.278   4.733   0.682 -0.8388 -1.2221 -2.3551
  264MOL0     H35609   2.274   4.884   0.728  1.4262 -1.1624 -0.4793
  264MOL0     H35610   2.077   4.791   0.518 -0.4556  1.3340 -0.6830
  264MOL0     H35611   2.063   4.945   0.606  1.4388  0.0310  0.4493
  264MOL0     H35612   2.054   4.669   0.752  2.1268 -0.9525 -3.9250
  264MOL0     H35613   2.020   4.831   0.816  0.0072  0.9031 -0.1802
  264MOL0     H35614   1.835   4.682   0.791 -0.4528  1.7006  2.1479
  264MOL0     H35615   1.841   4.695   0.615 -1.6533 -1.3894  1.6451
  264MOL0     H35616   1.813   4.936   0.798 -1.0340 -6.8761  6.2168
  264MOL0     H35617   1.769   4.926   0.618 -0.5111  0.6653 -0.2634
  264MOL0     H35618   1.645   4.730   0.820  2.6754  0.9689  2.7647
  264MOL0     H35619   1.592   4.787   0.661  1.4615  1.4451 -0.2460
  264MOL0     H35620   1.450   4.877   0.856 -0.0210 -0.5719 -2.8912
  264MOL0     H35621   1.534   5.004   0.770  6.6614 -0.6056 -2.1539
  264MOL0     H35622   2.698   4.750   0.583 -1.0818  1.9749  0.3522
  264MOL0     H35623   2.882   4.744   0.435 -0.5161  0.1650  2.0683
  264MOL0     H35624   3.131   4.882   0.152 -0.7178  1.2653 -1.5292
  264MOL0     H35625   3.352   4.842   0.100 -0.5287  0.0511 -0.9034
  264MOL0     H35626   4.456   4.986   1.344 -2.2184 -0.1562  2.3054
  264MOL0     H35627   4.394   5.098   1.554 -0.4630 -2.5834 -2.4786
  264MOL0     H35628   4.291   5.252   1.821  0.1865  0.1209 -0.0061
  264MOL0     H35629   4.189   5.245   2.038 -1.8672 -3.3794 -1.2367
  264MOL0     H35630   3.906   5.549   2.137  1.1147 -0.4052 -1.8813
  264MOL0     H35631   3.795   5.414   2.122  0.9034 -1.5002  0.0917
  264MOL0     H35632   3.943   5.513   2.369  0.2617  1.1756 -2.7789
  264MOL0     H35633   3.848   5.360   2.368 -0.0819  0.6342  2.3942
  264MOL0     H35634   3.646   5.476   2.304  0.7781 -2.1018 -1.1461
  264MOL0     H35635   3.722   5.638   2.318 -1.7250 -0.2509  1.2337
  264MOL0     H35636   3.684   5.465   2.559  1.3021  1.6869  1.4678
  264MOL0     H35637   3.584   5.587   2.507 -0.7951 -2.2894  0.6204
  264MOL0     H35638   3.921   5.819   2.645 -0.8599  1.4663  0.7630
  264MOL0     H35639   3.866   5.496   1.911  1.5586  2.4324  2.3552
  264MOL0     H35640   3.953   5.501   1.693 -1.7922  0.0324  1.6430
  265MOL0     O35641   3.410   6.656   3.380  0.8518  0.3787 -0.1447
  265MOL0     C35642   3.360   6.669   3.491 -0.4139 -0.2309 -0.7030
  265MOL0     O35643   3.337   6.795   3.561  0.4259  0.4194  0.3332
  265MOL0     C35644   3.380   6.911   3.502 -0.7187  0.3629 -0.2613
  265MOL0     C35645   3.400   6.946   3.367 -0.0086 -0.0831  0.1937
  265MOL0     C35646   3.453   7.072   3.331  0.1140  0.3268  0.6749
  265MOL0     C35647   3.482   7.168   3.431 -0.2580 -0.0546  0.1106
  265MOL0     O35648   3.553   7.292   3.404  0.2158  0.4709 -0.3374
  265MOL0     C35649   3.536   7.348   3.275  0.0615 -0.7349  0.3183
  265MOL0     C35650   3.496   7.502   3.292  0.8820 -0.1901 -0.0463
  265MOL0     C35651   3.433   7.562   3.169  0.1713  0.1067  0.1519
  265MOL0     C35652   3.379   7.705   3.199 -0.1217  0.2451  0.2700
  265MOL0     C35653   3.325   7.771   3.066 -0.7474 -0.0016  0.9767
  265MOL0     C35654   3.278   7.909   3.084  0.7769 -0.1497  0.0155
  265MOL0     C35655   3.240   7.990   2.954  0.6835 -0.2179  0.1960
  265MOL0     C35656   3.233   8.130   2.978 -0.2660 -0.5203  0.3070
  265MOL0     N35657   3.191   8.199   2.860  0.7044 -0.6052 -0.4531
  265MOL0     C35658   3.067   8.213   2.813 -0.6439  0.7578  0.0521
  265MOL0     C35659   3.072   8.313   2.730  0.3354  0.0189  0.0295
  265MOL0     C35660   2.956   8.390   2.684  0.6104 -0.5959  0.2423
  265MOL0     C35661   2.957   8.410   2.532  0.0690  0.0312  0.0009
  265MOL0     C35662   2.828   8.479   2.502 -0.0652 -0.0061 -0.3706
  265MOL0     C35663   2.824   8.536   2.359  1.0108  0.0088 -0.2422
  265MOL0     O35664   2.857   8.439   2.255  0.5160  0.4984  0.5661
  265MOL0     C35665   2.768   8.336   2.228  1.1689 -0.4173  0.7218
  265MOL0     C35666   2.634   8.331   2.237  0.4121 -1.0557  0.6445
  265MOL0     C35667   2.554   8.220   2.223 -1.3857  0.5056 -0.3911
  265MOL0     C35668   2.399   8.236   2.220 -1.2330  0.4197  0.2014
  265MOL0     C35669   2.623   8.097   2.207 -1.0946 -0.3343  0.4733
  265MOL0     C35670   2.529   7.979   2.198 -0.7621  0.5472 -0.0386
  265MOL0     O35671   2.489   7.942   2.077  0.2322 -0.5655 -0.0826
  265MOL0     C35672   2.411   7.827   2.060  0.2951 -0.7455  0.4070
  265MOL0     C35673   2.458   7.709   2.100  0.3400  0.4590  0.1049
  265MOL0     C35674   2.382   7.589   2.091 -0.4023 -0.4484 -0.8027
  265MOL0     C35675   2.254   7.591   2.053 -0.8629  0.8501  0.7230
  265MOL0     O35676   2.188   7.466   2.073  0.6461 -0.8793  0.1526
  265MOL0     C35677   2.072   7.419   1.993 -0.1806  0.0690  0.1187
  265MOL0     C35678   1.970   7.352   2.086  0.4330 -0.4229  0.0237
  265MOL0     C35679   1.833   7.379   2.023  0.8133 -0.1223  0.0541
  265MOL0     C35680   1.725   7.286   2.070 -0.2841  0.2834 -0.2477
  265MOL0     C35681   1.706   7.298   2.225  1.3194  0.1455 -0.2054
  265MOL0     C35682   1.608   7.214   2.304  0.2205  1.3286  0.2489
  265MOL0     C35683   1.615   7.062   2.261 -0.0966 -1.1020 -0.2609
  265MOL0     C35684   1.508   6.973   2.330 -0.4317  0.2684  0.3721
  265MOL0    Cl35685   1.519   6.983   2.508  0.4155  0.0059 -0.1311
  265MOL0     C35686   2.208   7.712   1.998 -0.1204  0.7669 -0.8836
  265MOL0     C35687   2.291   7.828   2.002  0.7852 -0.8425  0.1824
  265MOL0     O35688   2.492   7.929   2.299 -0.3644  0.0593 -0.0198
  265MOL0     C35689   2.761   8.097   2.186 -0.1486  0.0346  0.6008
  265MOL0     C35690   2.829   8.218   2.197 -0.5616  0.2058 -0.0919
  265MOL0     N35691   3.196   8.366   2.736  0.0858  1.4498 -0.0124
  265MOL0     N35692   3.266   8.303   2.821  0.2898  0.3004 -0.1244
  265MOL0     C35693   3.452   7.138   3.563  0.5096  0.5438 -0.8385
  265MOL0     C35694   3.399   7.011   3.599  0.2156  0.8592 -0.1009
  265MOL0     C35695   3.314   6.536   3.550  0.2382 -0.3190  0.3195
  265MOL0     C35696   3.331   6.422   3.477  0.3679 -0.6392 -0.3339
  265MOL0     C35697   3.267   6.312   3.516 -0.2281  0.0754  0.1108
  265MOL0     C35698   3.187   6.315   3.631  0.2869  1.5848 -0.6814
  265MOL0     O35699   3.112   6.199   3.650  0.0029  0.1659  0.4028
  265MOL0     C35700   2.970   6.211   3.660  0.2007 -0.4634  0.2893
  265MOL0     C35701   2.898   6.076   3.694 -0.3504  0.3649 -0.1065
  265MOL0     C35702   2.919   6.045   3.842 -0.4836  0.9486  0.1913
  265MOL0     C35703   2.807   5.948   3.895 -0.2320  0.2390  0.2803
  265MOL0     C35704   2.868   5.885   4.013  0.8687 -0.8219 -0.2334
  265MOL0     C35705   2.908   5.856   4.124  0.8143  0.2503 -1.1677
  265MOL0     C35706   3.169   6.429   3.711  0.1638 -1.7130 -0.3975
  265MOL0     C35707   3.238   6.537   3.664 -0.3061 -0.5991 -0.1199
  265MOL0     H35708   3.377   6.871   3.292 -0.5158  0.5293 -0.2802
  265MOL0     H35709   3.485   7.088   3.228 -0.1588 -2.1011  0.1483
  265MOL0     H35710   3.621   7.347   3.206 -1.2169 -1.5491 -1.3233
  265MOL0     H35711   3.454   7.303   3.219 -0.4832 -2.1913  2.2131
  265MOL0     H35712   3.440   7.512   3.385 -0.7981 -2.1268 -0.7662
  265MOL0     H35713   3.581   7.562   3.324 -0.9555  2.0659  0.8369
  265MOL0     H35714   3.503   7.567   3.085  1.5408 -1.1340  1.1504
  265MOL0     H35715   3.344   7.509   3.136  1.2034  0.0918 -2.9233
  265MOL0     H35716   3.303   7.696   3.277  1.4735  0.3402  1.9078
  265MOL0     H35717   3.463   7.754   3.249 -0.4133  1.0229  0.0091
  265MOL0     H35718   3.410   7.773   2.996  0.2006 -1.3334  2.0369
  265MOL0     H35719   3.249   7.701   3.030  4.8314 -5.9354 -1.4338
  265MOL0     H35720   3.194   7.915   3.153  0.8034 -1.1561  0.1462
  265MOL0     H35721   3.365   7.962   3.125  2.8568  0.1846 -4.2100
  265MOL0     H35722   3.324   7.973   2.886  3.1101 -0.4823  3.0459
  265MOL0     H35723   3.144   7.954   2.917  1.1943 -2.4557  0.8753
  265MOL0     H35724   3.334   8.157   3.011 -1.7774  1.5479  3.8319
  265MOL0     H35725   3.162   8.151   3.058 -3.2880 -0.9186 -2.1032
  265MOL0     H35726   2.977   8.158   2.839  0.7588 -1.6902  0.0874
  265MOL0     H35727   2.865   8.340   2.720  0.6434 -0.2494  0.8268
  265MOL0     H35728   2.945   8.483   2.742 -2.4488  1.4707 -3.1852
  265MOL0     H35729   2.956   8.306   2.499  0.9844 -0.1818  0.6018
  265MOL0     H35730   3.047   8.461   2.498 -0.1714  0.6322  0.2472
  265MOL0     H35731   2.819   8.571   2.562  2.8459 -0.6976  1.3167
  265MOL0     H35732   2.747   8.407   2.516  1.2943 -1.5623 -0.2718
  265MOL0     H35733   2.899   8.615   2.349  0.7884  0.1320 -0.9335
  265MOL0     H35734   2.729   8.589   2.342  2.6756  2.6677 -2.1058
  265MOL0     H35735   2.605   8.434   2.257  3.9970 -0.0598  1.3092
  265MOL0     H35736   2.356   8.176   2.139 -0.6831 -1.5355  1.2751
  265MOL0     H35737   2.363   8.198   2.316 -2.0975  0.8850  0.0637
  265MOL0     H35738   2.368   8.340   2.209  2.2805  1.3903 -2.7064
  265MOL0     H35739   2.561   7.716   2.133  0.2391  1.0134  0.3248
  265MOL0     H35740   2.419   7.496   2.135 -1.2142  0.0781  1.1406
  265MOL0     H35741   2.022   7.503   1.945  1.0812 -0.6998 -2.8212
  265MOL0     H35742   2.099   7.351   1.911 -2.3764 -2.0945  1.0517
  265MOL0     H35743   1.985   7.247   2.113 -2.3962 -1.2817 -1.2763
  265MOL0     H35744   1.972   7.403   2.183 -0.0690 -3.1241  1.5657
  265MOL0     H35745   1.849   7.371   1.915  2.9943  0.7599  0.2711
  265MOL0     H35746   1.805   7.482   2.045 -3.7512 -0.2225 -3.6125
  265MOL0     H35747   1.623   7.309   2.037 -1.0349 -0.3736  1.4769
  265MOL0     H35748   1.754   7.187   2.033 -1.8256 -0.1670 -0.3164
  265MOL0     H35749   1.678   7.402   2.241  2.5870  0.3687  0.7707
  265MOL0     H35750   1.801   7.289   2.279  0.5261  1.9100  1.5853
  265MOL0     H35751   1.621   7.220   2.413  0.0673  1.5109  0.2589
  265MOL0     H35752   1.514   7.258   2.268  0.1489  0.0988 -1.1244
  265MOL0     H35753   1.716   7.021   2.274  1.0337  0.9895 -1.8011
  265MOL0     H35754   1.601   7.058   2.152 -6.1302 -2.0737  0.2142
  265MOL0     H35755   1.539   6.869   2.311  0.0780 -0.0917  2.7515
  265MOL0     H35756   1.408   6.993   2.292  0.2071  1.8266 -0.5841
  265MOL0     H35757   2.106   7.717   1.961 -0.0058  2.5704 -1.0174
  265MOL0     H35758   2.264   7.928   1.971 -0.9301 -0.6983  1.9318
  265MOL0     H35759   2.811   8.001   2.173 -1.8571 -0.8166 -0.0299
  265MOL0     H35760   2.937   8.227   2.198 -0.3902 -1.4045 -0.4973
  265MOL0     H35761   3.455   7.215   3.640  2.0386 -0.5108  0.1994
  265MOL0     H35762   3.379   6.984   3.702  3.3873 -5.5203 -0.5876
  265MOL0     H35763   3.389   6.407   3.386  1.0324  0.5603 -0.1235
  265MOL0     H35764   3.277   6.223   3.454 -0.7656  0.0714  0.0206
  265MOL0     H35765   2.933   6.280   3.737  1.6801 -0.2332  0.8184
  265MOL0     H35766   2.939   6.254   3.564  0.8966 -0.6660 -0.0288
  265MOL0     H35767   2.936   5.999   3.625 -2.3650  2.4565 -3.8726
  265MOL0     H35768   2.793   6.078   3.664  0.2251  0.6771 -2.2871
  265MOL0     H35769   2.914   6.136   3.902  3.2319 -0.8101  3.6037
  265MOL0     H35770   3.022   6.013   3.858  0.3871  2.5122 -1.8364
  265MOL0     H35771   2.804   5.865   3.823  0.8867 -2.9027  3.5388
  265MOL0     H35772   2.708   5.994   3.898  0.0087  0.7854 -0.0196
  265MOL0     H35773   2.938   5.823   4.221 -1.8425  0.1195 -0.3024
  265MOL0     H35774   3.114   6.422   3.803  1.2338 -0.6423  0.3550
  265MOL0     H35775   3.220   6.632   3.713  0.5329 -0.4800 -0.0238
  266MOL0     O35776   7.380  10.799   9.991  0.6452 -0.0211  0.2228
  266MOL0     C35777   7.267  10.769  10.023 -0.1274  0.3649 -0.3131
  266MOL0     O35778   7.180  10.677   9.968  0.0710 -0.3706 -0.7968
  266MOL0     C35779   7.235  10.604   9.869  0.9313 -1.1528 -0.8400
  266MOL0     C35780   7.285  10.476   9.900  0.9921  0.2514  0.3458
  266MOL0     C35781   7.348  10.398   9.800 -0.4590  0.6074 -0.7510
  266MOL0     C35782   7.372  10.448   9.675  0.7808  0.5792 -0.0890
  266MOL0     O35783   7.430  10.379   9.575  0.0676 -0.3966 -0.5729
  266MOL0     C35784   7.566  10.357   9.585  0.0093 -0.5556  0.5463
  266MOL0     C35785   7.619  10.264   9.482 -0.3551 -0.3026  0.0438
  266MOL0     C35786   7.584  10.309   9.350 -0.0204 -0.2547  0.2374
  266MOL0     C35787   7.626  10.447   9.311 -0.0534 -0.2882  0.6529
  266MOL0     C35788   7.595  10.461   9.160  0.4134  0.6466 -0.7657
  266MOL0     C35789   7.651  10.593   9.102  0.8119  0.6789 -0.1119
  266MOL0     C35790   7.648  10.586   8.946  0.1167  0.3733  0.0310
  266MOL0     C35791   7.669  10.721   8.871 -0.0914 -0.2322  0.0369
  266MOL0     N35792   7.799  10.776   8.904 -0.3818 -0.7558  0.1898
  266MOL0     C35793   7.898  10.764   8.813 -0.0704  0.8039 -0.4966
  266MOL0     C35794   7.998  10.843   8.860 -0.9162  0.8654 -0.6834
  266MOL0     C35795   8.139  10.848   8.794 -0.6331  0.6232  0.2838
  266MOL0     C35796   8.126  10.957   8.688  0.5282  0.3615  0.6283
  266MOL0     C35797   8.164  11.092   8.747  0.5311  0.1205 -0.7836
  266MOL0     C35798   8.187  11.208   8.643  0.6749 -0.5576 -0.6241
  266MOL0     O35799   8.081  11.292   8.650  0.2559  0.3986  0.2057
  266MOL0     C35800   8.096  11.427   8.611 -0.9712  0.4627 -0.2337
  266MOL0     C35801   8.177  11.474   8.508 -0.5023 -0.3881  0.4728
  266MOL0     C35802   8.187  11.617   8.491 -0.3675  0.1980 -0.0642
  266MOL0     C35803   8.296  11.662   8.388 -0.6992 -0.1368  0.2394
  266MOL0     C35804   8.110  11.711   8.563 -0.1499 -0.2379 -0.0042
  266MOL0     C35805   8.109  11.859   8.542  0.3696 -0.8573  0.3253
  266MOL0     O35806   8.054  11.926   8.648  0.2981  0.3435  0.1422
  266MOL0     C35807   8.062  12.062   8.671  0.2268  0.2139 -0.1010
  266MOL0     C35808   7.968  12.102   8.774 -0.9330  0.2007  1.1886
  266MOL0     C35809   7.980  12.237   8.825  0.3834 -0.2816 -0.6081
  266MOL0     C35810   8.069  12.330   8.771  0.2563  0.2836  0.2831
  266MOL0     O35811   8.092  12.465   8.808 -0.0491  0.3381 -0.0403
  266MOL0     C35812   8.023  12.509   8.919  0.0892  1.1259  0.3497
  266MOL0     C35813   8.000  12.655   8.891  0.6750 -0.0267 -0.8940
  266MOL0     C35814   7.891  12.673   8.779 -0.4299  0.9008  0.6069
  266MOL0     C35815   7.867  12.815   8.746 -0.5907 -0.8507  0.2409
  266MOL0     C35816   7.747  12.831   8.650 -0.2245 -0.4282  0.4375
  266MOL0     C35817   7.786  12.949   8.552  1.3392 -1.0484  0.6200
  266MOL0     C35818   7.693  12.990   8.428 -0.1119 -0.6426 -0.8884
  266MOL0     C35819   7.548  12.984   8.467  0.3050  0.5283 -0.1253
  266MOL0    Cl35820   7.498  13.078   8.610  0.6887  0.0004  0.0252
  266MOL0     C35821   8.152  12.288   8.658 -0.1582 -0.2270  0.2433
  266MOL0     C35822   8.148  12.154   8.609  0.7306 -0.0707 -0.2589
  266MOL0     O35823   8.145  11.914   8.433  0.1056 -0.2700 -0.8470
  266MOL0     C35824   8.020  11.658   8.650  0.1132  0.4830  0.6018
  266MOL0     C35825   8.015  11.521   8.675  0.5415 -0.4778 -0.6808
  266MOL0     N35826   7.957  10.899   8.975  0.0811 -0.2989 -0.3759
  266MOL0     N35827   7.833  10.868   8.995 -0.2665  0.0757  0.2009
  266MOL0     C35828   7.330  10.575   9.645 -0.3692  0.2495 -0.0467
  266MOL0     C35829   7.256  10.651   9.734  0.9399 -0.0577 -0.0691
  266MOL0     C35830   7.223  10.817  10.158  0.1503  0.3091 -0.6339
  266MOL0     C35831   7.101  10.765  10.219 -1.2276 -0.3384  1.4323
  266MOL0     C35832   7.051  10.816  10.337 -0.2594 -0.5311 -0.1378
  266MOL0     C35833   7.124  10.912  10.402  0.2335  0.0693 -0.1436
  266MOL0     O35834   7.074  10.976  10.513 -0.2635 -0.0619  0.8563
  266MOL0     C35835   7.088  11.122  10.523 -1.1929  0.3044  1.0069
  266MOL0     C35836   6.978  11.187  10.608  0.0629 -0.5051  0.1335
  266MOL0     C35837   6.958  11.108  10.744 -0.5185  0.1565 -0.4560
  266MOL0     C35838   7.041  11.164  10.858  0.3436  0.0646 -1.1402
  266MOL0     C35839   7.039  11.060  10.963  0.0134  0.5509  0.1458
  266MOL0     C35840   7.050  10.978  11.052  0.4584  0.3477 -0.1208
  266MOL0     C35841   7.240  10.963  10.349  0.2028  0.3934 -0.1127
  266MOL0     C35842   7.289  10.917  10.224  0.3608 -0.5141 -0.4714
  266MOL0     H35843   7.277  10.429   9.997  0.9867 -0.4844 -0.0058
  266MOL0     H35844   7.373  10.296   9.828 -0.8796  1.3587  2.8887
  266MOL0     H35845   7.611  10.456   9.573 -0.2924 -0.0155  3.2271
  266MOL0     H35846   7.585  10.323   9.687 -3.3062  0.5625  1.6693
  266MOL0     H35847   7.728  10.265   9.497 -0.4599  2.3443  1.1462
  266MOL0     H35848   7.582  10.162   9.492  0.9951 -0.8761 -0.5534
  266MOL0     H35849   7.623  10.230   9.286 -1.7760 -1.1175  0.1695
  266MOL0     H35850   7.476  10.301   9.334  0.1288  0.2741 -1.1270
  266MOL0     H35851   7.579  10.529   9.366 -0.0848 -0.4400  0.8526
  266MOL0     H35852   7.732  10.470   9.325 -0.2124  0.3400  0.8758
  266MOL0     H35853   7.638  10.372   9.111  1.4073  1.5781 -1.6455
  266MOL0     H35854   7.488  10.462   9.136  0.4325 -4.0137 -2.1407
  266MOL0     H35855   7.598  10.679   9.144 -1.4351 -1.0190  0.7271
  266MOL0     H35856   7.757  10.610   9.123  1.0023 -0.9565  0.3897
  266MOL0     H35857   7.720  10.511   8.912  1.4419  0.6507  2.0735
  266MOL0     H35858   7.549  10.546   8.922 -0.2811  1.1802  0.3071
  266MOL0     H35859   7.591  10.790   8.903  1.2252  1.6003 -0.5409
  266MOL0     H35860   7.653  10.705   8.764 -1.8493 -0.2693  0.2786
  266MOL0     H35861   7.899  10.705   8.722 -2.6099  1.1091 -0.7997
  266MOL0     H35862   8.212  10.868   8.873 -1.0624 -1.8381  1.4227
  266MOL0     H35863   8.174  10.753   8.751  3.6842  1.2951  1.8471
  266MOL0     H35864   8.034  10.965   8.630  0.4240 -1.4697  0.4940
  266MOL0     H35865   8.212  10.943   8.622  1.9940  5.3890  1.0138
  266MOL0     H35866   8.257  11.064   8.798 -0.6296 -3.4589 -0.3953
  266MOL0     H35867   8.094  11.134   8.819  0.6913 -1.1519  0.1514
  266MOL0     H35868   8.194  11.186   8.536 -1.7267 -1.9928 -0.5575
  266MOL0     H35869   8.281  11.250   8.679  0.5982 -1.1224  0.2544
  266MOL0     H35870   8.245  11.429   8.436 -0.2340  0.2531  0.3171
  266MOL0     H35871   8.256  11.733   8.316  2.7119  2.0141  0.2433
  266MOL0     H35872   8.377  11.713   8.441  2.1620 -2.3697 -1.6607
  266MOL0     H35873   8.345  11.584   8.329  2.4006 -0.4720  2.9734
  266MOL0     H35874   7.909  12.027   8.826 -3.8649  0.8744 -0.9222
  266MOL0     H35875   7.921  12.268   8.910 -0.8336 -1.0384 -1.1536
  266MOL0     H35876   7.925  12.460   8.922 -0.1806  1.5627 -0.8434
  266MOL0     H35877   8.068  12.470   9.011 -1.8138 -0.2453  0.7627
  266MOL0     H35878   7.959  12.712   8.976 -1.9967  0.6877 -2.5597
  266MOL0     H35879   8.094  12.705   8.867  1.1187  0.0398  0.7901
  266MOL0     H35880   7.802  12.612   8.801 -0.6920  1.0552  0.0039
  266MOL0     H35881   7.928  12.622   8.689 -1.0352  0.7816  0.4196
  266MOL0     H35882   7.838  12.879   8.830  0.2047 -1.8266  1.2901
  266MOL0     H35883   7.964  12.859   8.720 -2.5866  2.8573 -1.5531
  266MOL0     H35884   7.661  12.867   8.707  0.3549  1.2454  0.3312
  266MOL0     H35885   7.724  12.740   8.595 -1.4767  0.1325 -0.0180
  266MOL0     H35886   7.790  13.043   8.607 -1.1797  0.4182 -1.4443
  266MOL0     H35887   7.883  12.923   8.509  0.2755 -0.9823 -2.0773
  266MOL0     H35888   7.717  12.926   8.342 -1.1343 -0.8161 -1.0580
  266MOL0     H35889   7.720  13.094   8.408  0.2848 -0.4998  0.2947
  266MOL0     H35890   7.511  12.881   8.467  0.8864  0.3096 -1.1830
  266MOL0     H35891   7.502  13.033   8.381  0.2662 -3.4510 -2.6482
  266MOL0     H35892   8.217  12.361   8.611  0.2472 -0.5406  0.3133
  266MOL0     H35893   8.213  12.117   8.531 -2.8308  1.0475 -4.0936
  266MOL0     H35894   7.942  11.722   8.691 -1.0808 -0.5318 -0.0088
  266MOL0     H35895   7.930  11.493   8.737  0.4199 -0.1337 -0.6907
  266MOL0     H35896   7.358  10.610   9.547 -1.0145 -1.0189 -0.7172
  266MOL0     H35897   7.232  10.755   9.715 -1.0547 -0.5305 -0.3949
  266MOL0     H35898   7.049  10.691  10.160  1.3882  1.2490 -3.4561
  266MOL0     H35899   6.958  10.777  10.379 -0.0287 -0.0711  0.8318
  266MOL0     H35900   7.185  11.155  10.562 -0.8435  3.8351 -2.2716
  266MOL0     H35901   7.072  11.164  10.424  0.3974  0.1659  0.6652
  266MOL0     H35902   6.885  11.187  10.552 -1.5976 -0.8361  2.7031
  266MOL0     H35903   7.006  11.290  10.634  0.7230 -0.4219 -0.8319
  266MOL0     H35904   6.982  11.003  10.721  1.1716  0.3925  0.0756
  266MOL0     H35905   6.853  11.111  10.773  0.5720  0.9364  4.0708
  266MOL0     H35906   6.998  11.260  10.888  1.4514  1.7645 -4.4260
  266MOL0     H35907   7.138  11.195  10.818  0.6106  0.3172 -0.3021
  266MOL0     H35908   7.063  10.915  11.138  0.5019  0.8495  0.2452
  266MOL0     H35909   7.292  11.046  10.397  0.1205  0.8834 -0.8566
  266MOL0     H35910   7.372  10.971  10.179  1.4501  0.2424  2.2346
  267MOL0     O35911   9.819   6.393   9.453 -0.1408  0.7619 -0.0825
  267MOL0     C35912   9.908   6.307   9.484 -0.1210 -0.0911 -0.4091
  267MOL0     O35913   9.890   6.184   9.519 -0.2224  0.4925 -1.0393
  267MOL0     C35914   9.768   6.126   9.500  0.0841 -0.6249  0.1858
  267MOL0     C35915   9.714   6.116   9.366  0.6653  0.4954 -0.2227
  267MOL0     C35916   9.578   6.074   9.365 -0.5249  0.9156 -0.2512
  267MOL0     C35917   9.510   6.043   9.482  0.5255  0.2470 -0.8576
  267MOL0     O35918   9.376   6.009   9.485 -0.1089  0.5384  0.0998
  267MOL0     C35919   9.332   5.882   9.422  0.0153 -0.0083 -0.5524
  267MOL0     C35920   9.293   5.780   9.536  0.4810  0.6080 -0.7465
  267MOL0     C35921   9.400   5.765   9.658  0.4341 -0.2310  0.3941
  267MOL0     C35922   9.330   5.817   9.784  0.3404 -0.5992  0.7221
  267MOL0     C35923   9.407   5.793   9.912  0.4545 -0.4324  0.6724
  267MOL0     C35924   9.528   5.886   9.934 -0.7061 -0.6623 -0.6051
  267MOL0     C35925   9.613   5.819  10.055  0.0915  0.0815 -0.2150
  267MOL0     C35926   9.662   5.940  10.145  0.2415 -1.1271  0.0058
  267MOL0     N35927   9.731   5.895  10.263  0.1793 -1.2221 -0.3472
  267MOL0     C35928   9.686   5.869  10.381  1.0694 -0.5087 -0.7950
  267MOL0     C35929   9.790   5.831  10.464 -0.2728  0.3835 -0.8506
  267MOL0     C35930   9.783   5.779  10.604  0.3975 -0.6739  0.6661
  267MOL0     C35931   9.700   5.869  10.700 -0.4340 -0.9627  0.5258
  267MOL0     C35932   9.743   6.026  10.689  0.1487  0.0837  0.6172
  267MOL0     C35933   9.669   6.126  10.775  0.4928  0.0273 -0.6598
  267MOL0     O35934   9.550   6.176  10.710  1.2323  0.2036 -0.3151
  267MOL0     C35935   9.481   6.277  10.767  0.8784 -0.7222 -0.2434
  267MOL0     C35936   9.466   6.290  10.904  0.4114 -0.0394  0.4005
  267MOL0     C35937   9.418   6.405  10.970  0.3611 -0.5433 -0.6166
  267MOL0     C35938   9.400   6.402  11.116 -0.6782 -0.2615 -0.2589
  267MOL0     C35939   9.376   6.515  10.887  0.2785 -0.6562  0.1143
  267MOL0     C35940   9.313   6.644  10.934  0.4455 -1.3933  0.3934
  267MOL0     O35941   9.220   6.640  11.029  0.1582  0.2171 -0.4112
  267MOL0     C35942   9.147   6.753  11.044  0.5598 -0.3873 -0.0527
  267MOL0     C35943   9.190   6.852  11.135 -0.1621 -0.0241 -0.4162
  267MOL0     C35944   9.101   6.961  11.172 -0.0318 -0.1649 -0.3210
  267MOL0     C35945   8.975   6.964  11.107  0.2251 -0.5694  0.5931
  267MOL0     O35946   8.874   7.056  11.136 -0.4398  0.9222  0.2305
  267MOL0     C35947   8.902   7.156  11.241 -0.0278 -0.0337  0.3138
  267MOL0     C35948   8.766   7.203  11.288 -0.3839  0.1563 -0.2808
  267MOL0     C35949   8.693   7.266  11.173 -0.6087  0.8087 -0.4226
  267MOL0     C35950   8.560   7.327  11.226  0.0968 -0.1616  0.0288
  267MOL0     C35951   8.486   7.403  11.111 -0.2103  0.1546  0.6742
  267MOL0     C35952   8.356   7.462  11.154 -0.1380  0.7634 -0.8115
  267MOL0     C35953   8.281   7.549  11.049 -0.0512 -0.3837 -0.1746
  267MOL0     C35954   8.192   7.653  11.122 -0.5602 -0.1258  0.3174
  267MOL0    Cl35955   8.155   7.799  11.033  0.4672 -0.1491 -0.0142
  267MOL0     C35956   8.947   6.874  11.002 -1.0172 -0.1431  0.6129
  267MOL0     C35957   9.025   6.765  10.982 -0.6211 -0.1612 -0.3433
  267MOL0     O35958   9.349   6.750  10.874  0.1773 -0.0925 -0.3491
  267MOL0     C35959   9.383   6.502  10.748 -0.1514 -0.4940 -0.5356
  267MOL0     C35960   9.442   6.391  10.689 -0.6388 -0.7110 -0.1645
  267MOL0     N35961   9.896   5.840  10.377 -0.1244  0.3102 -0.6043
  267MOL0     N35962   9.866   5.880  10.263 -0.6538  0.6698  0.0620
  267MOL0     C35963   9.573   6.053   9.608  0.6703  0.0308  0.7785
  267MOL0     C35964   9.702   6.095   9.613  0.3018  0.0768  0.0063
  267MOL0     C35965  10.052   6.343   9.479 -0.1606  0.2804 -0.0412
  267MOL0     C35966  10.090   6.478   9.501  0.0282 -0.9571 -0.4217
  267MOL0     C35967  10.223   6.514   9.523 -1.0690 -0.0565  0.4531
  267MOL0     C35968  10.322   6.427   9.497  0.8137  0.6200 -0.0669
  267MOL0     O35969  10.454   6.456   9.534  0.5791  0.0221 -0.7563
  267MOL0     C35970  10.479   6.448   9.674 -0.3256  0.6776  0.0937
  267MOL0     C35971  10.574   6.565   9.711  0.5076 -0.2723 -0.7110
  267MOL0     C35972  10.620   6.563   9.855 -0.3820 -0.0426 -0.1674
  267MOL0     C35973  10.696   6.695   9.865  0.6110 -0.0485  0.8821
  267MOL0     C35974  10.797   6.687   9.969  0.1599 -0.9173  0.4216
  267MOL0     C35975  10.888   6.686  10.048 -0.9238 -0.0196 -0.5582
  267MOL0     C35976  10.284   6.296   9.450  0.0408 -0.5345 -1.0621
  267MOL0     C35977  10.150   6.255   9.442 -0.0284  0.0846 -0.0025
  267MOL0     H35978   9.761   6.156   9.277 -1.8474  0.6569 -1.5746
  267MOL0     H35979   9.536   6.075   9.265  0.0388  0.2930 -0.4980
  267MOL0     H35980   9.238   5.894   9.367  0.1362 -2.0166 -1.2849
  267MOL0     H35981   9.408   5.833   9.361  1.7556  0.2017  1.3554
  267MOL0     H35982   9.195   5.803   9.577 -0.2445 -2.1062 -0.7669
  267MOL0     H35983   9.262   5.683   9.495 -5.5799  1.7132  0.3753
  267MOL0     H35984   9.425   5.659   9.667  4.3535  0.3671 -1.2070
  267MOL0     H35985   9.496   5.817   9.653 -0.3767  1.4344  1.2904
  267MOL0     H35986   9.312   5.924   9.775  0.1220 -0.4426  2.5136
  267MOL0     H35987   9.236   5.766   9.807  2.1288 -2.9582  3.7241
  267MOL0     H35988   9.332   5.817   9.988 -0.0350 -2.0949  0.7592
  267MOL0     H35989   9.444   5.690   9.910  1.9918  0.1006 -1.1087
  267MOL0     H35990   9.590   5.882   9.844  2.7641 -1.3464  1.6577
  267MOL0     H35991   9.504   5.989   9.961  1.2211 -0.5032  0.6413
  267MOL0     H35992   9.538   5.761  10.109 -1.7411 -0.4741 -3.1477
  267MOL0     H35993   9.693   5.749  10.029 -1.1441 -1.3680 -0.2830
  267MOL0     H35994   9.571   5.985  10.186 -1.0405 -3.4921 -0.0559
  267MOL0     H35995   9.714   6.013  10.082 -0.8590 -0.0114  0.3573
  267MOL0     H35996   9.583   5.879  10.413  0.6728  0.2308 -2.2328
  267MOL0     H35997   9.729   5.684  10.602 -1.1377  0.1590 -0.6098
  267MOL0     H35998   9.883   5.767  10.645  0.8051  0.3638  0.0125
  267MOL0     H35999   9.721   5.840  10.803 -0.0185  3.3245  1.8422
  267MOL0     H36000   9.591   5.866  10.694 -0.4652  1.3610 -1.8257
  267MOL0     H36001   9.744   6.055  10.584  1.7942  5.4182  1.8303
  267MOL0     H36002   9.848   6.034  10.721  0.8577  0.8893 -1.6866
  267MOL0     H36003   9.739   6.209  10.792 -0.2514  1.2186 -3.0581
  267MOL0     H36004   9.651   6.092  10.878  0.8923  1.8267  0.0360
  267MOL0     H36005   9.496   6.206  10.966 -1.9736  0.3826  2.2644
  267MOL0     H36006   9.294   6.399  11.145 -1.4960 -0.0378 -2.9483
  267MOL0     H36007   9.449   6.319  11.167 -1.0103  0.6228  1.5952
  267MOL0     H36008   9.439   6.496  11.157  0.1727  0.2055 -2.0561
  267MOL0     H36009   9.288   6.849  11.181  0.0063  0.4103 -0.7358
  267MOL0     H36010   9.123   7.022  11.259  1.1781 -1.6951  0.5082
  267MOL0     H36011   8.960   7.129  11.330  3.5744 -1.8691 -2.3222
  267MOL0     H36012   8.957   7.234  11.187 -1.9169 -2.3422 -5.7527
  267MOL0     H36013   8.697   7.123  11.317  0.4812  0.3070  2.4306
  267MOL0     H36014   8.776   7.287  11.358 -1.6883  2.1358 -2.3358
  267MOL0     H36015   8.672   7.187  11.101  1.2697  0.8604 -1.0913
  267MOL0     H36016   8.757   7.340  11.124  0.9355  0.0974  0.4286
  267MOL0     H36017   8.501   7.246  11.272 -0.3184  1.3957  2.4102
  267MOL0     H36018   8.576   7.401  11.305  0.6617 -0.5497  0.2810
  267MOL0     H36019   8.465   7.328  11.034  0.4686 -1.5684  2.0995
  267MOL0     H36020   8.543   7.489  11.075 -0.3063 -0.0701 -0.0348
  267MOL0     H36021   8.286   7.385  11.187 -0.3255  0.8076 -1.0906
  267MOL0     H36022   8.379   7.518  11.244 -0.8427 -0.1070 -0.0698
  267MOL0     H36023   8.219   7.484  10.987  0.4565 -1.1193  0.0825
  267MOL0     H36024   8.362   7.598  10.994 -0.5183  2.3297  1.3819
  267MOL0     H36025   8.237   7.684  11.217  2.7840  0.4838 -1.3194
  267MOL0     H36026   8.100   7.603  11.152 -0.4854  0.9141  2.5290
  267MOL0     H36027   8.848   6.886  10.959 -2.7641  0.8914  4.5221
  267MOL0     H36028   9.004   6.696  10.901 -2.3552  0.5376 -0.5348
  267MOL0     H36029   9.333   6.579  10.690 -1.8800 -1.5158 -0.4893
  267MOL0     H36030   9.472   6.382  10.585  2.3202 -0.5497  0.5650
  267MOL0     H36031   9.520   6.039   9.702  1.9376 -0.1585  1.4816
  267MOL0     H36032   9.751   6.124   9.706 -0.9055  0.7396  0.4540
  267MOL0     H36033  10.015   6.557   9.502  1.1236  0.1083 -0.3312
  267MOL0     H36034  10.243   6.613   9.563  0.5302  1.1302 -2.8674
  267MOL0     H36035  10.389   6.447   9.737  0.3514  3.0992  1.2583
  267MOL0     H36036  10.522   6.351   9.698 -0.6147  0.4505 -0.2889
  267MOL0     H36037  10.518   6.658   9.695  1.2926  0.4126  0.4024
  267MOL0     H36038  10.656   6.550   9.639  0.4861 -0.0087 -0.7925
  267MOL0     H36039  10.686   6.477   9.873 -3.5377 -3.3387 -2.7481
  267MOL0     H36040  10.538   6.550   9.927 -1.2268  0.5746 -1.0018
  267MOL0     H36041  10.618   6.767   9.890 -1.0883 -1.6867  0.5509
  267MOL0     H36042  10.747   6.720   9.772  0.8361  0.4178  1.1287
  267MOL0     H36043  10.970   6.700  10.115 -0.3986  1.4088 -1.4597
  267MOL0     H36044  10.364   6.223   9.443  0.8934  0.2775 -0.0181
  267MOL0     H36045  10.126   6.152   9.419 -1.2177  0.2714  0.3157
  268MOL0     O36046   6.647   0.575   7.066  0.1406  0.4658  1.0254
  268MOL0     C36047   6.524   0.557   7.065  0.5209  0.7508  0.5282
  268MOL0     O36048   6.433   0.639   7.006 -0.3354 -0.1190  0.0880
  268MOL0     C36049   6.436   0.716   6.894 -0.2460  0.3712  0.3090
  268MOL0     C36050   6.332   0.795   6.859  0.7014 -0.1565  0.2368
  268MOL0     C36051   6.321   0.845   6.732  0.1068 -0.4658 -0.0052
  268MOL0     C36052   6.429   0.836   6.637 -0.0030 -0.3112 -0.4246
  268MOL0     O36053   6.422   0.900   6.515 -0.3513  0.6743  0.6951
  268MOL0     C36054   6.298   0.894   6.443  0.2838  0.1067 -0.1184
  268MOL0     C36055   6.304   0.930   6.291 -0.6214  1.0829  0.2337
  268MOL0     C36056   6.342   1.081   6.274 -0.0806 -1.6698 -0.6802
  268MOL0     C36057   6.353   1.122   6.131  0.0106 -0.5667 -0.7403
  268MOL0     C36058   6.309   1.269   6.093 -0.1076  0.0739  0.7509
  268MOL0     C36059   6.424   1.357   6.096 -0.4108 -0.6565  0.2946
  268MOL0     C36060   6.463   1.420   6.232  0.6016 -1.5696 -0.8759
  268MOL0     C36061   6.345   1.518   6.272  0.1131  0.4869  0.5879
  268MOL0     N36062   6.375   1.580   6.408  0.4694  0.0333 -0.2175
  268MOL0     C36063   6.391   1.712   6.427 -0.3344  0.3128  0.1008
  268MOL0     C36064   6.350   1.729   6.558  0.2512 -0.3485 -0.3996
  268MOL0     C36065   6.331   1.863   6.623 -0.0069  0.1810 -1.0818
  268MOL0     C36066   6.465   1.942   6.629  0.5362 -1.7560 -0.2491
  268MOL0     C36067   6.586   1.852   6.669 -0.3792 -0.3240 -0.2299
  268MOL0     C36068   6.723   1.919   6.645  0.4039 -0.8214  0.8690
  268MOL0     O36069   6.761   2.033   6.733  0.0523 -0.4249  0.7944
  268MOL0     C36070   6.751   2.001   6.862 -0.4137  1.0015 -0.0765
  268MOL0     C36071   6.695   2.094   6.946  0.5872  0.1175  0.4803
  268MOL0     C36072   6.660   2.082   7.077  0.3674  0.6491  0.6739
  268MOL0     C36073   6.597   2.190   7.156  0.2380 -0.1155 -0.3603
  268MOL0     C36074   6.708   1.964   7.137  0.5709  0.3436 -0.3589
  268MOL0     C36075   6.681   1.929   7.283 -0.4451 -0.2983 -0.0389
  268MOL0     O36076   6.722   1.798   7.319 -0.9622  0.3082  0.1420
  268MOL0     C36077   6.714   1.747   7.442 -1.3968 -0.4627  0.1660
  268MOL0     C36078   6.717   1.815   7.556 -0.2405 -0.6000 -0.0691
  268MOL0     C36079   6.701   1.758   7.682  0.6126  0.9073  0.6887
  268MOL0     C36080   6.689   1.621   7.700 -0.6543 -1.0608 -0.1335
  268MOL0     O36081   6.685   1.574   7.829 -0.2900  0.5114  0.2246
  268MOL0     C36082   6.646   1.435   7.855  0.5770  0.7533 -0.1916
  268MOL0     C36083   6.712   1.409   7.993 -0.0351  0.1785  0.0338
  268MOL0     C36084   6.684   1.263   8.050 -0.2514  0.5739  0.9120
  268MOL0     C36085   6.721   1.244   8.193  0.1608 -0.3366 -0.5459
  268MOL0     C36086   6.677   1.116   8.264  0.3445  0.0160 -0.0451
  268MOL0     C36087   6.743   0.998   8.198 -0.1391  0.1910 -0.2720
  268MOL0     C36088   6.734   0.885   8.307  0.4052 -0.0961 -0.1421
  268MOL0     C36089   6.832   0.772   8.260  1.1218 -0.3285 -0.4623
  268MOL0    Cl36090   6.998   0.828   8.303 -0.0725 -0.2140 -0.3086
  268MOL0     C36091   6.701   1.542   7.578 -1.0859 -0.2875 -0.4587
  268MOL0     C36092   6.707   1.605   7.450  0.7080 -1.0184  0.5063
  268MOL0     O36093   6.629   2.009   7.359 -0.2997 -0.8900 -0.3498
  268MOL0     C36094   6.773   1.861   7.060  0.3527  0.2988 -0.1690
  268MOL0     C36095   6.798   1.881   6.923 -0.2406  0.1785 -0.0090
  268MOL0     N36096   6.333   1.608   6.620  0.4970 -0.0283  0.3040
  268MOL0     N36097   6.354   1.523   6.528  0.2795 -0.6843 -0.1627
  268MOL0     C36098   6.547   0.769   6.679 -0.0028 -0.8833 -0.4568
  268MOL0     C36099   6.542   0.700   6.801 -0.6754  1.1768  0.5790
  268MOL0     C36100   6.465   0.439   7.131 -0.8020 -0.6833  0.0657
  268MOL0     C36101   6.327   0.431   7.142 -0.2373  0.1351 -0.2940
  268MOL0     C36102   6.269   0.328   7.218  0.6404  0.5507  0.2211
  268MOL0     C36103   6.347   0.230   7.280 -0.3555  0.9760  0.1025
  268MOL0     O36104   6.308   0.117   7.341  0.5545  0.0605  0.2420
  268MOL0     C36105   6.167   0.112   7.379  0.1091  0.2476  0.0384
  268MOL0     C36106   6.089   0.042   7.261  0.4945  0.0993 -0.4767
  268MOL0     C36107   6.138  -0.103   7.248  0.7110  0.3293  0.2780
  268MOL0     C36108   6.123  -0.151   7.100  0.6320 -0.3441 -0.2583
  268MOL0     C36109   5.990  -0.149   7.051  0.8924  0.0626 -0.8809
  268MOL0     C36110   5.874  -0.142   7.004 -0.0682  0.1848  0.8805
  268MOL0     C36111   6.485   0.248   7.273 -0.3029 -0.4919  0.5008
  268MOL0     C36112   6.546   0.349   7.194  0.3376 -0.1537  0.1978
  268MOL0     H36113   6.257   0.809   6.936  1.8322 -0.3650  1.4231
  268MOL0     H36114   6.232   0.894   6.692 -0.5974 -2.1168 -0.5464
  268MOL0     H36115   6.248   0.798   6.459  1.7385 -0.6624  0.0149
  268MOL0     H36116   6.233   0.967   6.493  1.7396  3.6336 -2.9390
  268MOL0     H36117   6.364   0.864   6.227 -0.1992  1.1513  0.5519
  268MOL0     H36118   6.201   0.930   6.254 -0.6703  3.1477  0.2726
  268MOL0     H36119   6.270   1.151   6.317  2.6969  2.1737 -1.7796
  268MOL0     H36120   6.441   1.103   6.316 -0.8520  1.1059 -0.0932
  268MOL0     H36121   6.453   1.097   6.094  0.5550 -0.6851  0.7676
  268MOL0     H36122   6.279   1.057   6.084 -1.5590 -0.2716  1.1854
  268MOL0     H36123   6.285   1.262   5.987 -1.7510  1.0047  1.0274
  268MOL0     H36124   6.211   1.304   6.127 -0.8468 -0.0600 -1.1510
  268MOL0     H36125   6.509   1.304   6.052 -1.3500 -1.0420 -1.1253
  268MOL0     H36126   6.396   1.440   6.031  4.5266  1.6626  0.6453
  268MOL0     H36127   6.469   1.348   6.314 -2.9961 -2.5777 -1.3526
  268MOL0     H36128   6.560   1.466   6.211  0.9925 -2.1395 -0.3777
  268MOL0     H36129   6.246   1.472   6.278 -0.2962  1.2012 -0.4261
  268MOL0     H36130   6.346   1.598   6.197 -1.1575  1.6918  1.7810
  268MOL0     H36131   6.403   1.773   6.338  1.0555  0.4309  0.3464
  268MOL0     H36132   6.248   1.925   6.587 -0.0105  1.5871  1.1480
  268MOL0     H36133   6.293   1.842   6.724  0.0185  2.3474 -0.5709
  268MOL0     H36134   6.456   2.032   6.691  1.7105 -0.3451 -2.0110
  268MOL0     H36135   6.483   1.974   6.526  1.8660  0.0329  0.4695
  268MOL0     H36136   6.593   1.770   6.597 -1.8039 -1.9669  1.3833
  268MOL0     H36137   6.573   1.814   6.771  4.2406 -0.7783  0.4218
  268MOL0     H36138   6.719   1.958   6.543  1.1458 -1.4657  0.5840
  268MOL0     H36139   6.796   1.838   6.654 -0.6466 -1.6193  2.7898
  268MOL0     H36140   6.678   2.196   6.913  0.7008  0.2080  0.7000
  268MOL0     H36141   6.591   2.287   7.107 -0.1388  0.6604  1.1390
  268MOL0     H36142   6.496   2.165   7.191  1.4580 -3.6142  1.1167
  268MOL0     H36143   6.666   2.220   7.236 -1.5728  1.3031  0.7410
  268MOL0     H36144   6.727   1.922   7.570  1.8377 -1.1343  4.1428
  268MOL0     H36145   6.706   1.810   7.778  1.1971  1.3086  0.4478
  268MOL0     H36146   6.537   1.426   7.862  0.4954  0.8213 -1.2463
  268MOL0     H36147   6.684   1.354   7.793 -1.1040 -1.6675  1.7089
  268MOL0     H36148   6.817   1.411   7.962 -0.2051 -1.8315 -0.8513
  268MOL0     H36149   6.683   1.485   8.065 -0.3056  1.3134 -1.2259
  268MOL0     H36150   6.742   1.190   7.991 -0.8341 -0.7391  1.8997
  268MOL0     H36151   6.582   1.234   8.023  0.7658 -1.3891 -1.1731
  268MOL0     H36152   6.831   1.246   8.198  0.2174 -1.7635 -0.8588
  268MOL0     H36153   6.687   1.333   8.247 -2.1135 -1.0028 -0.7961
  268MOL0     H36154   6.569   1.102   8.274  0.6764 -2.5401  0.8039
  268MOL0     H36155   6.720   1.124   8.365 -0.2167  0.0160  0.2006
  268MOL0     H36156   6.694   0.969   8.105 -1.1384  0.7002  0.0860
  268MOL0     H36157   6.846   1.023   8.170 -0.9780  2.0064 -2.0080
  268MOL0     H36158   6.629   0.853   8.312  0.2491  0.5642  1.2262
  268MOL0     H36159   6.771   0.916   8.405  0.3111  0.6159 -0.3292
  268MOL0     H36160   6.814   0.755   8.154 -2.5315  0.9801 -0.1791
  268MOL0     H36161   6.793   0.682   8.310  0.1158 -0.3841 -1.3200
  268MOL0     H36162   6.703   1.434   7.587  0.6130 -0.4413 -2.0539
  268MOL0     H36163   6.706   1.544   7.360 -0.3817 -1.9705  1.1209
  268MOL0     H36164   6.793   1.762   7.099 -3.6195 -1.2606 -1.5321
  268MOL0     H36165   6.848   1.806   6.863  0.0055  2.7827 -3.3534
  268MOL0     H36166   6.637   0.773   6.618  0.2217  2.1012 -0.0964
  268MOL0     H36167   6.635   0.651   6.829 -0.5270  0.4471 -1.1205
  268MOL0     H36168   6.260   0.508   7.104 -0.2352  0.7936  1.0031
  268MOL0     H36169   6.163   0.314   7.197  0.8652 -3.0158  0.8457
  268MOL0     H36170   6.161   0.042   7.463 -2.8215 -0.2517 -0.4705
  268MOL0     H36171   6.137   0.214   7.404 -1.7067  0.5127 -2.7406
  268MOL0     H36172   6.089   0.099   7.168 -1.6389  0.6690 -0.1848
  268MOL0     H36173   5.984   0.038   7.289  0.1490  1.3868 -1.4939
  268MOL0     H36174   6.083  -0.168   7.316 -0.2941  2.1067  1.2419
  268MOL0     H36175   6.242  -0.110   7.280  0.9574 -0.3266 -0.6255
  268MOL0     H36176   6.152  -0.255   7.089  0.6014 -0.5525  1.3821
  268MOL0     H36177   6.186  -0.090   7.034 -0.4977  1.9896  0.6847
  268MOL0     H36178   5.777  -0.156   6.962 -1.3564  3.5268  2.4590
  268MOL0     H36179   6.545   0.168   7.315 -0.2138  0.1224  1.5824
  268MOL0     H36180   6.652   0.348   7.171  0.1358  0.5523 -0.8296
  269MOL0     O36181   1.700   8.638   3.686 -0.2781 -0.1799  0.0926
  269MOL0     C36182   1.755   8.667   3.795  0.6185  0.9322 -0.6474
  269MOL0     O36183   1.776   8.575   3.901 -0.4892  0.3359  0.1581
  269MOL0     C36184   1.741   8.439   3.875 -0.6960 -1.4022  0.0888
  269MOL0     C36185   1.840   8.357   3.817 -0.3621  1.7253  0.1258
  269MOL0     C36186   1.802   8.220   3.793 -0.4831  0.0659 -0.1282
  269MOL0     C36187   1.668   8.174   3.805  0.2186 -0.3234  0.5154
  269MOL0     O36188   1.642   8.039   3.773 -0.5014 -0.5646  0.2126
  269MOL0     C36189   1.523   8.006   3.710  0.0596 -0.3676 -0.5083
  269MOL0     C36190   1.555   7.907   3.606  0.4624 -0.6725  0.0786
  269MOL0     C36191   1.638   7.960   3.493 -1.1417 -0.1854  0.1988
  269MOL0     C36192   1.679   7.847   3.401  0.0045 -0.1100 -0.2567
  269MOL0     C36193   1.784   7.890   3.305 -0.1763  0.0077  1.1489
  269MOL0     C36194   1.732   7.917   3.161 -0.0477  0.4152 -0.2491
  269MOL0     C36195   1.844   7.974   3.076 -0.8840  0.5200 -0.2055
  269MOL0     C36196   1.789   8.011   2.944  0.0887 -0.3924 -0.8827
  269MOL0     N36197   1.900   8.027   2.849 -0.5766  0.8034 -0.9543
  269MOL0     C36198   1.987   7.927   2.827  0.9348  0.5862  0.1878
  269MOL0     C36199   2.096   7.988   2.780 -0.0546  0.1756 -0.0423
  269MOL0     C36200   2.231   7.927   2.780 -0.3035  0.2878  0.4028
  269MOL0     C36201   2.278   7.901   2.924  0.6188  0.4852  0.3882
  269MOL0     C36202   2.308   8.038   2.994 -0.0613  0.4285  0.2912
  269MOL0     C36203   2.350   8.010   3.129 -0.0709  0.1267 -0.2357
  269MOL0     O36204   2.420   8.127   3.170 -1.0000 -0.2632  0.5798
  269MOL0     C36205   2.396   8.175   3.291 -0.3963 -0.0905 -0.0777
  269MOL0     C36206   2.387   8.317   3.291 -0.2397 -0.0313 -0.2307
  269MOL0     C36207   2.361   8.389   3.404  0.4310  0.1350  0.0096
  269MOL0     C36208   2.353   8.539   3.390  0.0516  0.8206  0.1645
  269MOL0     C36209   2.348   8.320   3.532  0.7324  1.0072  0.6890
  269MOL0     C36210   2.330   8.397   3.647  0.9825 -1.7697 -0.2790
  269MOL0     O36211   2.394   8.517   3.672 -0.3326  0.8373  0.5458
  269MOL0     C36212   2.342   8.597   3.768  0.6016  0.5737 -0.8413
  269MOL0     C36213   2.228   8.683   3.747 -0.5313 -0.0278  0.1240
  269MOL0     C36214   2.183   8.761   3.841 -0.8318 -0.3049  0.3459
  269MOL0     C36215   2.250   8.769   3.968  0.0521  0.0890 -0.7259
  269MOL0     O36216   2.186   8.839   4.064  0.4908 -0.7388  0.3929
  269MOL0     C36217   2.256   8.914   4.164 -0.1707  0.7121  0.2983
  269MOL0     C36218   2.165   9.008   4.241  0.7613 -0.6423 -0.1174
  269MOL0     C36219   2.232   9.065   4.368  0.2923 -0.2123  0.6066
  269MOL0     C36220   2.132   9.156   4.440  0.9301 -0.8362  0.5991
  269MOL0     C36221   2.192   9.215   4.569 -0.0977  1.1739 -0.3676
  269MOL0     C36222   2.088   9.301   4.640  0.1960  1.1062 -0.2530
  269MOL0     C36223   2.066   9.442   4.578  0.1303  0.6676 -0.2263
  269MOL0     C36224   2.197   9.525   4.596  0.5745 -0.0285 -0.1837
  269MOL0    Cl36225   2.151   9.673   4.522 -0.1162  0.3973  0.1053
  269MOL0     C36226   2.371   8.698   3.989 -0.0150 -0.2210 -0.6118
  269MOL0     C36227   2.413   8.616   3.893  0.1789  0.4797  1.3337
  269MOL0     O36228   2.233   8.354   3.721 -0.3372 -0.3307 -0.3668
  269MOL0     C36229   2.366   8.175   3.530 -0.1376  0.7154 -0.1708
  269MOL0     C36230   2.381   8.110   3.413 -0.2801  0.2002  0.5822
  269MOL0     N36231   2.073   8.122   2.766  0.5819 -0.1544  1.1469
  269MOL0     N36232   1.960   8.152   2.820 -0.7159 -0.1293 -0.7841
  269MOL0     C36233   1.574   8.273   3.835  0.8532  0.7478  0.5182
  269MOL0     C36234   1.608   8.403   3.868  0.2903  0.3435  0.5980
  269MOL0     C36235   1.781   8.813   3.834  0.4593  0.5807  0.3918
  269MOL0     C36236   1.746   8.912   3.744  0.5762 -0.0395  0.0100
  269MOL0     C36237   1.767   9.048   3.767 -0.0065 -0.3064  0.3535
  269MOL0     C36238   1.809   9.092   3.900 -0.1321 -0.0211  0.1499
  269MOL0     O36239   1.840   9.215   3.940  0.4362 -0.5719  0.4235
  269MOL0     C36240   1.792   9.336   3.872 -2.0597  1.1391  0.9406
  269MOL0     C36241   1.766   9.466   3.956  0.4387  0.1306 -0.1564
  269MOL0     C36242   1.898   9.544   3.989  0.4179 -0.5371 -0.4120
  269MOL0     C36243   1.988   9.467   4.081  0.1189 -0.4495 -0.1748
  269MOL0     C36244   2.111   9.530   4.112  0.5400 -0.3485 -1.2049
  269MOL0     C36245   2.211   9.595   4.133  0.2372  0.4154 -0.2686
  269MOL0     C36246   1.824   8.988   3.994  0.1417  0.0884  0.2639
  269MOL0     C36247   1.814   8.853   3.961  0.1302  0.6232 -1.2573
  269MOL0     H36248   1.943   8.383   3.797  0.4725 -2.4121 -2.1946
  269MOL0     H36249   1.879   8.153   3.758 -1.6266 -1.4179  0.1070
  269MOL0     H36250   1.470   7.936   3.775  2.4441 -1.7656  0.0647
  269MOL0     H36251   1.464   8.090   3.671  1.2906  0.5096 -0.5544
  269MOL0     H36252   1.593   7.816   3.653 -1.8032 -0.8714  1.6657
  269MOL0     H36253   1.456   7.881   3.566 -0.8296  1.4081  1.7071
  269MOL0     H36254   1.585   8.036   3.436  0.2060  0.4713 -0.2232
  269MOL0     H36255   1.733   7.999   3.530 -1.0607 -0.7711  0.6274
  269MOL0     H36256   1.730   7.769   3.458  0.9131 -1.7857 -3.1572
  269MOL0     H36257   1.591   7.806   3.350  0.6582  0.2191 -1.6929
  269MOL0     H36258   1.840   7.979   3.334 -1.8353  1.4583  0.0786
  269MOL0     H36259   1.843   7.800   3.287 -0.7514  0.1481 -1.8389
  269MOL0     H36260   1.706   7.816   3.131 -1.1407  0.1558  1.4373
  269MOL0     H36261   1.651   7.990   3.161 -0.1004  0.3657  0.5664
  269MOL0     H36262   1.880   8.067   3.120 -2.4769 -0.1530  2.8076
  269MOL0     H36263   1.923   7.899   3.076 -0.0269  1.0036  5.5257
  269MOL0     H36264   1.735   8.105   2.957  0.9581 -0.2009  2.0557
  269MOL0     H36265   1.719   7.936   2.908 -1.2036 -0.5384  1.7372
  269MOL0     H36266   1.978   7.823   2.854  0.5898  1.2104  2.7677
  269MOL0     H36267   2.231   7.834   2.723  2.0305  0.7895 -0.5330
  269MOL0     H36268   2.305   7.989   2.728  3.2302 -2.9448  1.0994
  269MOL0     H36269   2.371   7.843   2.921 -0.4563 -1.3178  0.6428
  269MOL0     H36270   2.199   7.846   2.976 -0.1112  0.6735 -0.4914
  269MOL0     H36271   2.228   8.113   2.992 -2.2874 -1.8064 -0.1454
  269MOL0     H36272   2.395   8.073   2.938 -0.0080  1.1370  0.7932
  269MOL0     H36273   2.407   7.916   3.125  0.8108  0.6045 -4.5716
  269MOL0     H36274   2.268   7.998   3.200  1.2896  1.6974  1.7029
  269MOL0     H36275   2.396   8.370   3.197  0.7311 -1.7716 -1.1893
  269MOL0     H36276   2.443   8.580   3.437 -1.5636  1.9294  2.4777
  269MOL0     H36277   2.360   8.572   3.286  0.8003  0.1924  0.0089
  269MOL0     H36278   2.262   8.577   3.437  1.0077  3.2068  0.2036
  269MOL0     H36279   2.189   8.686   3.645 -3.0644  1.7577  1.0366
  269MOL0     H36280   2.097   8.826   3.828 -1.3532 -0.2141  3.4872
  269MOL0     H36281   2.304   8.840   4.229  0.1193  0.4674 -0.1948
  269MOL0     H36282   2.335   8.975   4.120  0.6847 -0.5730 -0.0092
  269MOL0     H36283   2.127   9.089   4.178 -1.6903  0.2467  2.3049
  269MOL0     H36284   2.084   8.947   4.281 -0.7096  0.8875 -0.6840
  269MOL0     H36285   2.316   9.118   4.323  2.9242 -2.9288  1.9500
  269MOL0     H36286   2.266   8.987   4.437  2.9393 -1.3421 -1.7715
  269MOL0     H36287   2.085   9.226   4.371 -0.9323 -0.9736  1.6860
  269MOL0     H36288   2.067   9.075   4.476  2.8598 -2.0024  1.6659
  269MOL0     H36289   2.284   9.270   4.547 -0.8346  1.8180 -1.9647
  269MOL0     H36290   2.224   9.128   4.629  0.3779  1.0139 -0.8403
  269MOL0     H36291   1.995   9.243   4.642  1.1138 -0.5329 -1.8608
  269MOL0     H36292   2.121   9.317   4.743 -1.7636 -0.1144  0.6278
  269MOL0     H36293   1.980   9.498   4.618 -0.4700 -1.0118  0.9471
  269MOL0     H36294   2.052   9.437   4.470  0.6628 -1.9627 -0.2188
  269MOL0     H36295   2.286   9.478   4.552  2.9338  1.3462  2.7506
  269MOL0     H36296   2.210   9.546   4.703  0.8854  1.6281 -0.5228
  269MOL0     H36297   2.428   8.698   4.082  1.8546 -2.5395 -1.6478
  269MOL0     H36298   2.494   8.545   3.904 -0.8338 -1.0593 -0.5074
  269MOL0     H36299   2.364   8.114   3.620  2.1222  0.6754 -0.0818
  269MOL0     H36300   2.394   8.002   3.406 -0.1418  0.2024  0.8160
  269MOL0     H36301   1.470   8.250   3.857  1.1280  0.2440  1.3055
  269MOL0     H36302   1.529   8.465   3.910 -0.5285  0.4864 -1.0641
  269MOL0     H36303   1.724   8.884   3.641  1.6120 -0.2794 -0.1605
  269MOL0     H36304   1.756   9.118   3.685  0.5173 -1.6716 -0.9335
  269MOL0     H36305   1.868   9.360   3.798 -1.1577 -2.3780  0.5619
  269MOL0     H36306   1.698   9.304   3.826 -1.8823  2.6251 -0.5334
  269MOL0     H36307   1.708   9.445   4.046 -0.6223 -1.0280 -1.0742
  269MOL0     H36308   1.694   9.524   3.898 -4.1925 -1.2717  3.6221
  269MOL0     H36309   1.860   9.631   4.044 -3.2997 -1.9151 -0.4962
  269MOL0     H36310   1.944   9.575   3.895  0.5795 -0.2839 -0.2493
  269MOL0     H36311   1.991   9.362   4.051 -4.4009 -1.1149  0.9937
  269MOL0     H36312   1.925   9.465   4.171 -2.0759  0.8725 -1.5671
  269MOL0     H36313   2.297   9.653   4.160  0.5864 -0.7306  1.2291
  269MOL0     H36314   1.854   8.993   4.098 -0.0674 -2.1664  0.4855
  269MOL0     H36315   1.803   8.781   4.042 -2.5823  2.2638 -0.0518
  270MOL0     O36316   7.407   4.015   3.566  0.1575 -0.4799  0.3796
  270MOL0     C36317   7.320   4.053   3.648 -0.5752 -0.5457  0.6762
  270MOL0     O36318   7.182   4.048   3.629  0.1007 -0.5394  0.2957
  270MOL0     C36319   7.146   4.017   3.499 -0.4234 -0.4370 -0.1274
  270MOL0     C36320   7.172   4.104   3.394 -0.2483 -0.5095  0.3340
  270MOL0     C36321   7.121   4.083   3.273  0.4764  0.5470  0.5281
  270MOL0     C36322   7.045   3.959   3.240 -0.0363 -0.4597 -1.3398
  270MOL0     O36323   7.013   3.940   3.110 -0.3953  0.4966 -1.0578
  270MOL0     C36324   6.925   3.832   3.069  0.8719  0.8301 -0.3705
  270MOL0     C36325   6.897   3.838   2.924  0.0430 -0.5314  0.5034
  270MOL0     C36326   7.013   3.820   2.827  0.0917  0.9414 -0.4455
  270MOL0     C36327   6.974   3.805   2.678  0.8424  0.2417  0.1248
  270MOL0     C36328   7.095   3.768   2.589 -0.2940  1.0522 -1.0770
  270MOL0     C36329   7.070   3.743   2.445  0.0347 -0.6786 -0.3602
  270MOL0     C36330   7.002   3.608   2.417 -1.2420  0.0966 -0.9333
  270MOL0     C36331   7.024   3.573   2.269 -0.3928  0.1195  0.5352
  270MOL0     N36332   6.936   3.660   2.187 -0.6529  0.5563  0.6604
  270MOL0     C36333   6.803   3.643   2.157  0.2028 -0.1502 -0.3297
  270MOL0     C36334   6.770   3.750   2.086  1.2653  0.0547 -0.3927
  270MOL0     C36335   6.634   3.789   2.053 -1.0487  0.2333  0.0003
  270MOL0     C36336   6.555   3.852   2.167  0.4844  0.1269  0.2569
  270MOL0     C36337   6.533   3.758   2.293  0.3096  0.1063  0.0071
  270MOL0     C36338   6.451   3.636   2.248 -0.2900  0.9551  0.7810
  270MOL0     O36339   6.415   3.555   2.368 -0.5741 -0.4848  0.1808
  270MOL0     C36340   6.355   3.438   2.344  0.0954  0.6724 -0.5047
  270MOL0     C36341   6.241   3.413   2.419  0.6758 -0.0110  0.0477
  270MOL0     C36342   6.168   3.296   2.410  0.3630 -1.8391  0.5773
  270MOL0     C36343   6.041   3.281   2.488 -0.2105  0.0242 -0.7818
  270MOL0     C36344   6.214   3.199   2.317 -0.3162 -0.6418  0.0721
  270MOL0     C36345   6.144   3.076   2.286  0.6200  0.1780  0.2936
  270MOL0     O36346   6.161   3.022   2.165  0.7101 -0.3440  0.7675
  270MOL0     C36347   6.098   2.903   2.142  0.3526 -0.2784 -0.1716
  270MOL0     C36348   5.979   2.897   2.065 -0.4934 -0.1566  0.1034
  270MOL0     C36349   5.887   2.789   2.074 -0.0628 -0.3112 -0.0163
  270MOL0     C36350   5.935   2.674   2.141 -0.7121  0.4562 -0.1683
  270MOL0     O36351   5.856   2.565   2.153  0.4905 -0.4463  0.6294
  270MOL0     C36352   5.876   2.486   2.274  0.3766 -0.6939 -0.1089
  270MOL0     C36353   5.744   2.415   2.301  0.2406 -0.9926  0.1007
  270MOL0     C36354   5.628   2.510   2.322 -0.0150  0.0923  0.3737
  270MOL0     C36355   5.489   2.454   2.282  0.2828  0.4937 -0.5495
  270MOL0     C36356   5.381   2.558   2.292 -0.7799  0.4633 -0.0390
  270MOL0     C36357   5.269   2.503   2.199 -0.7348 -0.3840  0.3028
  270MOL0     C36358   5.150   2.602   2.183 -0.1847  0.0535 -0.4575
  270MOL0     C36359   5.164   2.719   2.095 -0.5302 -0.7744  0.4520
  270MOL0    Cl36360   5.022   2.821   2.081 -0.3454 -0.0860 -0.5439
  270MOL0     C36361   6.066   2.677   2.193  0.3949 -0.0487  0.3104
  270MOL0     C36362   6.140   2.787   2.203  0.5212 -0.1652 -0.6786
  270MOL0     O36363   6.096   3.021   2.388 -0.1008  1.0389  0.3094
  270MOL0     C36364   6.326   3.226   2.232 -0.4674 -0.0064  1.2444
  270MOL0     C36365   6.396   3.344   2.252  0.0734 -0.1972  0.5456
  270MOL0     N36366   6.888   3.838   2.073  0.9288 -0.4572 -0.2385
  270MOL0     N36367   6.980   3.779   2.137 -0.7160 -0.4503 -0.7211
  270MOL0     C36368   7.010   3.874   3.345  0.5760 -0.8627  0.0936
  270MOL0     C36369   7.065   3.913   3.472 -0.0272 -0.6552 -0.4795
  270MOL0     C36370   7.370   4.065   3.787 -0.5896 -0.2274 -1.4178
  270MOL0     C36371   7.285   4.096   3.895 -0.4408  0.5234  0.3665
  270MOL0     C36372   7.333   4.125   4.024  0.3794 -0.0430 -0.5927
  270MOL0     C36373   7.473   4.119   4.056 -0.0797 -1.0800  0.8020
  270MOL0     O36374   7.516   4.141   4.187  0.4679 -0.4628 -0.6595
  270MOL0     C36375   7.640   4.187   4.212 -0.8130 -1.1509  0.4590
  270MOL0     C36376   7.714   4.100   4.320 -0.2163  0.1483  0.1629
  270MOL0     C36377   7.635   4.067   4.437 -0.1531  0.4162 -0.4675
  270MOL0     C36378   7.712   3.980   4.538  0.4435  0.4065  0.7061
  270MOL0     C36379   7.619   3.925   4.637  0.1288  0.0365 -0.5700
  270MOL0     C36380   7.544   3.904   4.727  1.8784 -0.2205  0.6327
  270MOL0     C36381   7.556   4.095   3.946  0.3835 -0.8949  0.1390
  270MOL0     C36382   7.510   4.067   3.813  0.5587  0.3828  0.5837
  270MOL0     H36383   7.229   4.195   3.412 -1.0574  0.2464 -0.7863
  270MOL0     H36384   7.137   4.147   3.186  3.3970 -0.8938 -0.1470
  270MOL0     H36385   6.975   3.737   3.090 -1.0577 -0.7330 -2.3346
  270MOL0     H36386   6.842   3.819   3.139  1.7653 -2.7879  0.2120
  270MOL0     H36387   6.812   3.778   2.889 -0.9385  1.9424 -1.7243
  270MOL0     H36388   6.856   3.939   2.912 -1.5352 -0.9052  2.1714
  270MOL0     H36389   7.085   3.902   2.838  1.6558 -0.5013  0.7146
  270MOL0     H36390   7.072   3.735   2.865  1.1620  3.2210  3.6874
  270MOL0     H36391   6.901   3.723   2.679 -1.0342  1.7072  4.0234
  270MOL0     H36392   6.920   3.893   2.642 -3.1918 -1.2719  1.8791
  270MOL0     H36393   7.176   3.841   2.599 -2.3881  3.3354  0.4588
  270MOL0     H36394   7.131   3.675   2.634 -3.5132 -0.2511 -0.8894
  270MOL0     H36395   7.014   3.832   2.415  3.5747  2.5685  1.7165
  270MOL0     H36396   7.169   3.749   2.399  0.3798  0.7869  0.4958
  270MOL0     H36397   7.038   3.533   2.488 -1.4347  1.3741  0.5586
  270MOL0     H36398   6.900   3.611   2.455 -1.3041 -2.6720 -0.6719
  270MOL0     H36399   7.005   3.471   2.237  2.0344 -0.8280  1.8210
  270MOL0     H36400   7.130   3.584   2.243 -0.7626 -0.5712 -1.4151
  270MOL0     H36401   6.736   3.573   2.205  1.9766 -2.5857 -1.1849
  270MOL0     H36402   6.645   3.866   1.976 -2.0398 -1.4095 -1.8878
  270MOL0     H36403   6.579   3.710   2.000 -0.6200  0.5559 -0.9556
  270MOL0     H36404   6.454   3.881   2.134  0.6249  1.8055  1.1685
  270MOL0     H36405   6.597   3.949   2.193  0.3032  1.3123 -3.2989
  270MOL0     H36406   6.476   3.812   2.369  0.4262 -1.2001  1.0599
  270MOL0     H36407   6.624   3.727   2.345  0.7351  3.6429  1.6761
  270MOL0     H36408   6.516   3.574   2.185 -2.1036 -0.1247 -0.1162
  270MOL0     H36409   6.365   3.666   2.188 -1.1542 -1.9123  0.4119
  270MOL0     H36410   6.207   3.492   2.485 -1.2562 -0.9570  0.2581
  270MOL0     H36411   5.986   3.375   2.491  1.7790  1.2429 -0.7234
  270MOL0     H36412   5.971   3.213   2.439  0.8993  0.6015 -3.2906
  270MOL0     H36413   6.068   3.241   2.587  2.0524 -1.8495 -2.0564
  270MOL0     H36414   5.946   2.980   2.003 -1.0252 -0.7236 -0.3912
  270MOL0     H36415   5.793   2.783   2.021 -0.5254 -0.3602  0.7810
  270MOL0     H36416   5.960   2.416   2.274 -0.1404 -1.4591  2.9529
  270MOL0     H36417   5.895   2.550   2.361 -3.3037 -1.5508  1.5068
  270MOL0     H36418   5.711   2.346   2.224 -0.3402  0.1057 -0.6672
  270MOL0     H36419   5.757   2.354   2.391  1.6428  0.1369  0.7085
  270MOL0     H36420   5.640   2.607   2.272  2.5142 -0.1005  0.4584
  270MOL0     H36421   5.611   2.526   2.429 -4.3003  0.7928 -0.2163
  270MOL0     H36422   5.483   2.419   2.178 -2.7038  0.7354 -0.5295
  270MOL0     H36423   5.462   2.371   2.348  2.2115  0.7997  0.7050
  270MOL0     H36424   5.422   2.656   2.270 -1.7535  0.8851 -0.0201
  270MOL0     H36425   5.357   2.558   2.398  0.8470  1.5045  0.3572
  270MOL0     H36426   5.311   2.470   2.103  0.5558  2.4020 -0.1797
  270MOL0     H36427   5.231   2.412   2.248 -2.3876  0.3073  0.3470
  270MOL0     H36428   5.122   2.623   2.287 -0.1449 -0.6741 -0.2933
  270MOL0     H36429   5.068   2.553   2.131  0.8498 -2.1429 -0.1414
  270MOL0     H36430   5.254   2.772   2.130  0.4781 -1.4715 -0.9956
  270MOL0     H36431   5.187   2.686   1.994 -0.3304  1.1420 -0.1661
  270MOL0     H36432   6.118   2.594   2.241 -1.2309 -0.7725  0.8653
  270MOL0     H36433   6.233   2.791   2.259  0.2099 -1.8145  0.0066
  270MOL0     H36434   6.374   3.152   2.169  1.0508  2.1510 -0.3082
  270MOL0     H36435   6.482   3.367   2.190 -0.9904  1.6606 -0.3523
  270MOL0     H36436   6.955   3.782   3.326  1.8148 -1.8398  1.0695
  270MOL0     H36437   7.057   3.846   3.556  3.4159 -0.0095  0.5421
  270MOL0     H36438   7.179   4.097   3.870 -0.5785 -2.6874  0.3122
  270MOL0     H36439   7.253   4.167   4.084 -1.9099 -0.7006 -2.9783
  270MOL0     H36440   7.693   4.216   4.122 -1.9036 -1.2778 -0.2409
  270MOL0     H36441   7.613   4.283   4.256 -1.7947 -1.5858  0.8490
  270MOL0     H36442   7.812   4.144   4.344  2.7855 -4.9817 -1.1055
  270MOL0     H36443   7.744   4.005   4.274  0.4211  0.9640 -1.1632
  270MOL0     H36444   7.544   4.017   4.402 -0.1404 -0.2072  0.3705
  270MOL0     H36445   7.606   4.160   4.486  2.5092  1.6370 -1.0456
  270MOL0     H36446   7.795   4.036   4.581  0.2083  0.7907  0.6656
  270MOL0     H36447   7.764   3.901   4.482  2.9546  1.7116  1.0361
  270MOL0     H36448   7.478   3.907   4.811  0.4389 -2.5723 -0.2900
  270MOL0     H36449   7.664   4.096   3.952  0.5940  0.3157 -2.5141
  270MOL0     H36450   7.578   4.061   3.728 -0.9075 -0.7570 -0.5804
  271MOL0     O36451   6.368   4.990   3.529  0.1559 -0.5457 -0.7553
  271MOL0     C36452   6.385   4.882   3.478 -0.1873 -0.0883 -0.0552
  271MOL0     O36453   6.296   4.777   3.485 -0.3068  0.2700 -0.2844
  271MOL0     C36454   6.190   4.799   3.563 -0.2108  0.6313  0.0485
  271MOL0     C36455   6.220   4.809   3.699  0.4849 -0.1735  0.4286
  271MOL0     C36456   6.112   4.846   3.785 -0.5004 -0.2558  0.1811
  271MOL0     C36457   5.985   4.871   3.727  0.9767 -0.6694 -0.2510
  271MOL0     O36458   5.877   4.920   3.794  0.1643 -0.3539 -0.1431
  271MOL0     C36459   5.884   4.906   3.938 -0.6602 -0.5702 -0.0677
  271MOL0     C36460   5.768   4.973   4.012  0.2322  0.0059  2.1810
  271MOL0     C36461   5.794   5.116   3.990 -0.5873 -1.0487  0.5198
  271MOL0     C36462   5.692   5.205   4.066  0.6976 -0.4391  0.9231
  271MOL0     C36463   5.741   5.350   4.046 -0.4320  0.2879  1.0724
  271MOL0     C36464   5.644   5.456   4.102  0.6552 -0.2873  0.8767
  271MOL0     C36465   5.513   5.480   4.020  0.1174 -0.1235 -0.4568
  271MOL0     C36466   5.436   5.606   4.068 -0.4320  0.1925 -0.2405
  271MOL0     N36467   5.400   5.586   4.206 -0.7361  0.1008 -1.1392
  271MOL0     C36468   5.328   5.482   4.265  0.2365 -0.2063 -0.3878
  271MOL0     C36469   5.301   5.536   4.387 -0.4412  0.6196  0.3182
  271MOL0     C36470   5.227   5.468   4.504  0.5443 -0.6857 -1.2497
  271MOL0     C36471   5.302   5.462   4.640  0.2928  0.5899  0.1481
  271MOL0     C36472   5.417   5.356   4.644  0.0314 -0.1385  0.4789
  271MOL0     C36473   5.558   5.400   4.600  0.3610  0.3980 -0.2529
  271MOL0     O36474   5.642   5.286   4.608 -0.0288 -0.4397 -0.6419
  271MOL0     C36475   5.745   5.278   4.529 -0.9513  0.1121  0.9302
  271MOL0     C36476   5.806   5.156   4.519  0.2891 -0.4319  0.5881
  271MOL0     C36477   5.930   5.144   4.458 -0.0652  0.6166  0.3122
  271MOL0     C36478   5.977   5.003   4.436 -0.0035 -0.2305 -0.2002
  271MOL0     C36479   5.991   5.249   4.389  0.2115 -0.6021 -0.0835
  271MOL0     C36480   6.090   5.232   4.286 -1.5155 -1.2024  0.3519
  271MOL0     O36481   6.099   5.343   4.197  0.6508  0.2846  0.0325
  271MOL0     C36482   6.187   5.341   4.094  0.6812  0.0057  0.2207
  271MOL0     C36483   6.190   5.250   3.992  0.3451 -0.2984  0.2542
  271MOL0     C36484   6.287   5.257   3.893  0.7137  0.2435 -1.2123
  271MOL0     C36485   6.398   5.350   3.896 -0.4666 -0.3768 -0.5067
  271MOL0     O36486   6.496   5.334   3.803  0.2394  1.0553 -0.4278
  271MOL0     C36487   6.621   5.396   3.839  0.6768 -0.6088 -0.5820
  271MOL0     C36488   6.698   5.330   3.951 -0.4469  0.7635  0.1563
  271MOL0     C36489   6.838   5.373   3.971 -0.0374 -0.1257  0.3600
  271MOL0     C36490   6.938   5.346   3.856  0.4874 -0.8047 -0.0643
  271MOL0     C36491   7.078   5.400   3.883 -1.5723  0.6136 -0.0612
  271MOL0     C36492   7.197   5.363   3.779  0.9933 -0.8489 -0.4749
  271MOL0     C36493   7.244   5.218   3.780  0.5038  0.2880 -0.1402
  271MOL0     C36494   7.392   5.211   3.774 -0.7835  0.2168  0.0486
  271MOL0    Cl36495   7.457   5.267   3.605 -0.0879  0.0694  0.1054
  271MOL0     C36496   6.397   5.443   4.001  0.6622 -0.2927  0.4281
  271MOL0     C36497   6.284   5.445   4.094  0.6356  0.2872  0.1532
  271MOL0     O36498   6.158   5.129   4.277 -0.1543 -0.4595 -0.1718
  271MOL0     C36499   5.924   5.369   4.387 -0.2546 -0.4949 -0.3905
  271MOL0     C36500   5.810   5.386   4.461  0.8237 -0.2036  0.0594
  271MOL0     N36501   5.348   5.666   4.403  0.3026  0.0295  0.3281
  271MOL0     N36502   5.402   5.695   4.290  0.4952  0.6112 -1.1473
  271MOL0     C36503   5.956   4.848   3.592 -0.0815 -1.0890  0.1267
  271MOL0     C36504   6.068   4.824   3.504  0.2257  0.4947 -1.1833
  271MOL0     C36505   6.505   4.845   3.384  0.7069  0.4157 -0.7647
  271MOL0     C36506   6.538   4.717   3.344  0.2051 -0.3105 -0.3818
  271MOL0     C36507   6.637   4.684   3.252  0.4848  0.8477 -0.6166
  271MOL0     C36508   6.696   4.785   3.181  0.0915  1.5282  0.2114
  271MOL0     O36509   6.789   4.761   3.084 -0.7638  0.2365 -0.8356
  271MOL0     C36510   6.736   4.740   2.958  0.8823 -0.2584  0.1799
  271MOL0     C36511   6.835   4.672   2.862 -0.0768 -0.3760 -0.9951
  271MOL0     C36512   6.959   4.766   2.834  0.1068  0.8916  0.1198
  271MOL0     C36513   7.053   4.719   2.724  0.1856 -0.3435  0.1949
  271MOL0     C36514   6.986   4.680   2.600 -0.4038 -1.7803  0.2393
  271MOL0     C36515   6.924   4.631   2.507  0.4643  0.9567 -0.2228
  271MOL0     C36516   6.665   4.920   3.221 -0.7278 -0.0937  0.8019
  271MOL0     C36517   6.571   4.950   3.322 -0.4277 -0.5894 -0.3776
  271MOL0     H36518   6.319   4.789   3.739 -0.1470 -1.8740  1.2356
  271MOL0     H36519   6.148   4.851   3.888  4.8799 -1.8625 -1.3184
  271MOL0     H36520   5.880   4.798   3.952 -0.6233 -0.6606 -0.6944
  271MOL0     H36521   5.985   4.940   3.966 -0.6237  1.5643 -2.3664
  271MOL0     H36522   5.671   4.929   3.989  0.4211 -0.4134  2.1815
  271MOL0     H36523   5.789   4.954   4.118  0.4836 -2.5796  1.7304
  271MOL0     H36524   5.886   5.154   4.035 -0.1148 -1.5491 -0.0182
  271MOL0     H36525   5.805   5.138   3.884  0.4277 -4.3562 -0.1512
  271MOL0     H36526   5.588   5.196   4.035  0.6543  2.3534  0.0295
  271MOL0     H36527   5.684   5.182   4.173 -2.4942  0.3370  0.9481
  271MOL0     H36528   5.829   5.361   4.111 -0.4948  0.6985  1.0881
  271MOL0     H36529   5.770   5.372   3.943  0.8721 -0.9082  1.1532
  271MOL0     H36530   5.627   5.444   4.210  0.7998 -2.0988  0.7355
  271MOL0     H36531   5.689   5.555   4.090 -2.0740  1.5010  3.7541
  271MOL0     H36532   5.551   5.479   3.917  5.1178 -0.6404  1.0983
  271MOL0     H36533   5.457   5.387   4.033 -1.3197  0.9312  1.2207
  271MOL0     H36534   5.355   5.636   4.001 -1.5176 -0.4051  0.7748
  271MOL0     H36535   5.503   5.693   4.061  0.5827 -0.5768 -0.4268
  271MOL0     H36536   5.310   5.389   4.212 -2.1514  0.4625 -0.8634
  271MOL0     H36537   5.128   5.513   4.514  1.1613  0.3657  0.5947
  271MOL0     H36538   5.207   5.367   4.466  1.6628 -1.6089  0.4838
  271MOL0     H36539   5.231   5.443   4.721 -0.3297  0.1965 -0.4882
  271MOL0     H36540   5.350   5.558   4.665  0.6529  0.7272 -1.0103
  271MOL0     H36541   5.378   5.280   4.576 -0.9889  3.4571 -3.4415
  271MOL0     H36542   5.423   5.313   4.744  1.0982 -1.7615 -0.2475
  271MOL0     H36543   5.594   5.484   4.660 -1.0085  2.7913 -2.5889
  271MOL0     H36544   5.542   5.428   4.496  1.5688 -0.5336 -0.7182
  271MOL0     H36545   5.775   5.063   4.565 -0.3423 -1.5939 -2.0100
  271MOL0     H36546   6.083   4.984   4.457  0.0465 -1.9863 -1.7765
  271MOL0     H36547   5.931   4.935   4.508  0.0846 -0.5849 -0.4772
  271MOL0     H36548   5.941   4.968   4.338 -0.8916  0.9481 -0.3228
  271MOL0     H36549   6.113   5.175   3.977 -0.9368  0.6482  1.7488
  271MOL0     H36550   6.300   5.206   3.798  0.1998  1.3056 -1.8745
  271MOL0     H36551   6.688   5.392   3.753  3.4219  0.8859  1.3487
  271MOL0     H36552   6.615   5.503   3.863 -0.7670 -1.3427  2.9346
  271MOL0     H36553   6.642   5.343   4.044 -1.2429  0.7031 -0.3079
  271MOL0     H36554   6.710   5.222   3.939 -0.0517  0.6437  1.4251
  271MOL0     H36555   6.875   5.314   4.055  0.8826 -0.6600 -0.4008
  271MOL0     H36556   6.840   5.477   4.004  1.4252 -0.9963  3.3947
  271MOL0     H36557   6.947   5.237   3.847 -3.0594 -1.2857  0.5412
  271MOL0     H36558   6.908   5.397   3.764  3.0785  1.1662  0.0646
  271MOL0     H36559   7.116   5.380   3.984 -1.0770  2.9621  0.2637
  271MOL0     H36560   7.080   5.509   3.888 -0.0559  0.5813  0.7349
  271MOL0     H36561   7.169   5.398   3.679 -0.2938 -0.9198 -0.1576
  271MOL0     H36562   7.278   5.433   3.801 -0.2861  1.3220 -2.2929
  271MOL0     H36563   7.200   5.155   3.702  0.6290 -1.3204  1.0326
  271MOL0     H36564   7.218   5.178   3.878  2.2743 -0.4619  0.0714
  271MOL0     H36565   7.407   5.103   3.788 -2.1483  0.0772  0.5696
  271MOL0     H36566   7.441   5.281   3.843 -2.2868  0.1799  1.2047
  271MOL0     H36567   6.462   5.526   4.025  0.0201 -0.0317  1.3445
  271MOL0     H36568   6.280   5.532   4.159  1.0575  0.9902 -0.7481
  271MOL0     H36569   5.946   5.453   4.322  0.9420  0.8403  1.6361
  271MOL0     H36570   5.766   5.485   4.461 -0.9867 -0.9603 -0.3355
  271MOL0     H36571   5.861   4.868   3.545  0.0825  0.6026  0.4545
  271MOL0     H36572   6.059   4.833   3.396  1.4763  3.2314 -1.1494
  271MOL0     H36573   6.490   4.641   3.404 -2.0668  0.7784 -0.7132
  271MOL0     H36574   6.675   4.584   3.232 -1.9534 -0.2786  0.0074
  271MOL0     H36575   6.641   4.686   2.964  0.5717 -0.0107 -1.9401
  271MOL0     H36576   6.718   4.840   2.919  2.4633 -1.3173 -3.7937
  271MOL0     H36577   6.783   4.634   2.774 -2.5269 -0.3110  0.3503
  271MOL0     H36578   6.874   4.586   2.917  0.7904  2.0364  2.5894
  271MOL0     H36579   6.999   4.793   2.931 -0.2648 -0.1102  0.5678
  271MOL0     H36580   6.916   4.862   2.802 -0.4464  2.2313  4.2360
  271MOL0     H36581   7.094   4.622   2.753 -0.2199 -0.4971  0.2613
  271MOL0     H36582   7.121   4.798   2.692  0.3693 -0.1161  1.1132
  271MOL0     H36583   6.850   4.596   2.438 -1.7280  2.7053  1.0747
  271MOL0     H36584   6.724   4.998   3.174 -1.7664  0.1963 -0.0575
  271MOL0     H36585   6.559   5.056   3.345  0.9670 -0.5081  0.0617
  272MOL0     O36586   1.679  10.237   6.957  0.2115 -0.0833  0.9640
  272MOL0     C36587   1.717  10.231   6.840  0.2560 -0.8608 -0.1371
  272MOL0     O36588   1.692  10.133   6.741 -0.3592 -0.3180  0.0935
  272MOL0     C36589   1.642  10.012   6.783 -0.0933 -0.7481 -1.2765
  272MOL0     C36590   1.691   9.896   6.730 -0.1323 -0.0926 -0.0061
  272MOL0     C36591   1.641   9.766   6.776  0.1305 -0.6517 -0.2940
  272MOL0     C36592   1.544   9.760   6.881 -0.3955  0.3973  0.7150
  272MOL0     O36593   1.483   9.650   6.938 -0.6406 -0.0948  0.2833
  272MOL0     C36594   1.516   9.516   6.909 -0.2139 -0.1627  1.1664
  272MOL0     C36595   1.411   9.416   6.932 -0.0209  0.1244 -0.4652
  272MOL0     C36596   1.412   9.374   7.078  0.8063  0.5260  0.2915
  272MOL0     C36597   1.483   9.243   7.094  0.7990 -0.4862  1.2567
  272MOL0     C36598   1.409   9.114   7.064  0.5706  0.0311 -0.1421
  272MOL0     C36599   1.335   9.046   7.184 -0.4831 -0.3880  0.0567
  272MOL0     C36600   1.327   8.895   7.169  0.5251  0.1525 -0.4162
  272MOL0     C36601   1.230   8.827   7.263 -0.4985 -0.2302  0.6709
  272MOL0     N36602   1.088   8.857   7.233  0.4254 -1.2320 -0.2141
  272MOL0     C36603   1.038   8.770   7.141  0.0253 -0.3828 -0.3926
  272MOL0     C36604   0.902   8.775   7.162 -0.8059 -0.9640  0.7264
  272MOL0     C36605   0.818   8.689   7.082  0.5985  0.2723  0.0999
  272MOL0     C36606   0.760   8.767   6.964 -0.4898 -0.0247 -0.7455
  272MOL0     C36607   0.707   8.910   7.009  0.3500 -0.2990  0.1133
  272MOL0     C36608   0.654   8.986   6.889 -0.3574  0.3206 -0.2017
  272MOL0     O36609   0.768   9.049   6.826 -0.3877 -0.9188 -0.1297
  272MOL0     C36610   0.811   9.171   6.867  0.0714 -0.1395 -0.6377
  272MOL0     C36611   0.900   9.185   6.969  0.4738  0.0257  0.7539
  272MOL0     C36612   0.941   9.309   7.025 -0.4890 -0.8285 -0.2430
  272MOL0     C36613   1.035   9.316   7.144 -0.1352 -0.0815 -0.5312
  272MOL0     C36614   0.874   9.419   6.967 -0.0448 -0.5049 -0.7421
  272MOL0     C36615   0.893   9.557   7.025 -0.1602  0.1752  0.1609
  272MOL0     O36616   0.781   9.639   7.029  0.3924  0.1090  0.4046
  272MOL0     C36617   0.803   9.769   7.049  0.4132 -0.4793 -0.0011
  272MOL0     C36618   0.788   9.838   7.173 -0.0396 -0.1130 -0.1321
  272MOL0     C36619   0.777   9.983   7.165  0.2267 -0.7144 -0.5766
  272MOL0     C36620   0.791  10.057   7.057  0.0196 -0.8562  0.2709
  272MOL0     O36621   0.780  10.197   7.067 -0.7712  0.1321  0.0381
  272MOL0     C36622   0.768  10.270   6.943  0.6513 -0.1165 -0.0937
  272MOL0     C36623   0.729  10.410   6.982  0.2074 -0.6753 -0.6496
  272MOL0     C36624   0.829  10.487   7.071  0.8586  1.2674  0.5948
  272MOL0     C36625   0.817  10.636   7.054 -0.5757  0.4268  0.2743
  272MOL0     C36626   0.905  10.711   7.152 -1.0833 -0.4056 -0.1264
  272MOL0     C36627   0.995  10.811   7.075  0.1641  0.0139  0.5439
  272MOL0     C36628   1.099  10.730   6.993  0.2530  0.9028 -0.3104
  272MOL0     C36629   1.197  10.837   6.941 -0.2809 -0.6408 -0.1660
  272MOL0    Cl36630   1.305  10.916   7.054  0.1170 -0.2578 -0.3454
  272MOL0     C36631   0.826   9.992   6.940 -0.2741 -0.5058 -0.0377
  272MOL0     C36632   0.822   9.852   6.937 -0.3827 -0.1778 -0.3634
  272MOL0     O36633   1.010   9.592   7.044  0.3134  0.3313  0.0371
  272MOL0     C36634   0.776   9.407   6.866  0.4097  0.8909  0.3928
  272MOL0     C36635   0.740   9.283   6.819  0.7512  0.4496  0.7065
  272MOL0     N36636   0.881   8.863   7.269 -0.1173  0.7185 -0.5672
  272MOL0     N36637   0.991   8.919   7.305 -0.4310  1.2635  0.8487
  272MOL0     C36638   1.484   9.882   6.913 -0.3229  0.7534  0.1426
  272MOL0     C36639   1.534  10.008   6.872  0.5718  0.5918  0.7560
  272MOL0     C36640   1.821  10.328   6.812 -1.0534  0.2470 -0.6603
  272MOL0     C36641   1.910  10.307   6.705 -0.8991  1.2795  0.2435
  272MOL0     C36642   2.018  10.396   6.677 -0.1239 -0.1092 -0.3351
  272MOL0     C36643   2.024  10.514   6.746  0.0052  0.5635  0.3193
  272MOL0     O36644   2.120  10.610   6.711 -0.4195 -0.4236  0.2352
  272MOL0     C36645   2.256  10.565   6.737  0.4379  0.0174 -0.2332
  272MOL0     C36646   2.288  10.548   6.878  0.0263  0.1783  0.3330
  272MOL0     C36647   2.332  10.687   6.932 -0.5042  0.7755 -0.5332
  272MOL0     C36648   2.314  10.687   7.088 -0.8323 -1.7628 -0.7013
  272MOL0     C36649   2.389  10.785   7.157 -0.4471 -0.9375  0.0673
  272MOL0     C36650   2.457  10.877   7.205 -0.6306 -0.2114  0.7247
  272MOL0     C36651   1.937  10.537   6.843  0.4158 -0.1153  0.5180
  272MOL0     C36652   1.837  10.449   6.882  0.3648  0.1026  1.3631
  272MOL0     H36653   1.766   9.914   6.653  0.9495  1.0437  1.2507
  272MOL0     H36654   1.692   9.678   6.739  3.0989  0.0175  1.7991
  272MOL0     H36655   1.538   9.510   6.802  0.7137  0.9688  1.2750
  272MOL0     H36656   1.601   9.495   6.975  0.4996  2.0547  1.0418
  272MOL0     H36657   1.313   9.464   6.920 -1.0372 -1.2956  1.5040
  272MOL0     H36658   1.431   9.335   6.862  0.4380 -0.5856  0.4625
  272MOL0     H36659   1.461   9.452   7.137 -0.7169  0.9178  1.1233
  272MOL0     H36660   1.316   9.362   7.130  1.0428 -0.9724  0.4309
  272MOL0     H36661   1.562   9.257   7.020 -1.8767 -0.1061 -1.7790
  272MOL0     H36662   1.525   9.240   7.195 -1.9600 -1.8632  2.4877
  272MOL0     H36663   1.349   9.126   6.973  2.2656  0.4287 -1.2552
  272MOL0     H36664   1.490   9.045   7.038  1.2890  0.4841  0.8285
  272MOL0     H36665   1.397   9.058   7.273 -0.3922 -1.9177  0.2340
  272MOL0     H36666   1.240   9.099   7.194  0.2859  1.1962 -0.7681
  272MOL0     H36667   1.313   8.864   7.065 -0.0044 -2.7986  0.4324
  272MOL0     H36668   1.431   8.873   7.193  0.8392  2.3068  0.4577
  272MOL0     H36669   1.254   8.868   7.362  0.2992  1.0005 -0.0105
  272MOL0     H36670   1.251   8.720   7.265  0.3060 -0.0700  0.8252
  272MOL0     H36671   1.090   8.701   7.076  1.7095 -0.1921  0.6797
  272MOL0     H36672   0.868   8.594   7.060 -0.4333 -0.9029  2.4660
  272MOL0     H36673   0.730   8.661   7.141  1.7289 -0.2604  1.5757
  272MOL0     H36674   0.692   8.697   6.915  0.2355 -0.2827 -1.3973
  272MOL0     H36675   0.838   8.782   6.890  1.2891 -0.2647  1.0069
  272MOL0     H36676   0.798   8.962   7.040  2.7975 -1.9647 -3.4928
  272MOL0     H36677   0.637   8.905   7.093  1.3647 -0.5629  0.9583
  272MOL0     H36678   0.589   9.070   6.916 -2.4694 -1.2172 -0.1844
  272MOL0     H36679   0.610   8.918   6.815 -1.9307 -0.9020  1.7265
  272MOL0     H36680   0.942   9.092   7.007  0.8565  0.0323  0.3561
  272MOL0     H36681   0.986   9.357   7.233  3.3952  1.6700  0.7898
  272MOL0     H36682   1.083   9.221   7.168 -0.0506  0.2183  0.5141
  272MOL0     H36683   1.123   9.380   7.139 -0.1365  0.1068  1.2009
  272MOL0     H36684   0.761   9.791   7.267 -1.0682 -2.0900 -1.3483
  272MOL0     H36685   0.753  10.043   7.252 -1.1749  0.9450 -2.0251
  272MOL0     H36686   0.859  10.273   6.881 -0.2962 -3.2242 -1.7935
  272MOL0     H36687   0.681  10.227   6.893  1.5364  0.7606 -2.5433
  272MOL0     H36688   0.703  10.466   6.892 -0.1471  2.2980  1.1718
  272MOL0     H36689   0.645  10.400   7.050  0.4457 -1.5901 -0.4719
  272MOL0     H36690   0.934  10.457   7.062  0.1963 -1.2227  0.5463
  272MOL0     H36691   0.797  10.458   7.171 -0.5214 -1.2612 -0.4996
  272MOL0     H36692   0.835  10.659   6.948 -3.4297  2.5134  0.1425
  272MOL0     H36693   0.712  10.666   7.063 -0.3314  1.5922 -0.4927
  272MOL0     H36694   0.976  10.657   7.215  0.4405  0.6281 -0.8955
  272MOL0     H36695   0.837  10.763   7.220 -1.0949  0.6928 -0.9511
  272MOL0     H36696   0.943  10.876   7.005  1.1391  0.1553 -0.0807
  272MOL0     H36697   1.039  10.873   7.154 -0.6434 -0.1737  1.1534
  272MOL0     H36698   1.047  10.683   6.908 -0.9779  0.7515  0.5005
  272MOL0     H36699   1.147  10.647   7.045  1.0381  1.1601 -0.6128
  272MOL0     H36700   1.131  10.913   6.900  1.7608  2.3514  1.6910
  272MOL0     H36701   1.260  10.787   6.866 -0.0611 -4.9294  2.4907
  272MOL0     H36702   0.847  10.050   6.851  5.0416  2.2224  2.5531
  272MOL0     H36703   0.828   9.809   6.837 -4.0884  1.3729 -1.4501
  272MOL0     H36704   0.709   9.486   6.832 -0.7394 -0.5294 -0.7741
  272MOL0     H36705   0.667   9.276   6.739  1.9668  0.3028 -0.4264
  272MOL0     H36706   1.403   9.882   6.986 -1.0681  1.3550 -0.6629
  272MOL0     H36707   1.481  10.097   6.904 -0.4688  1.0111 -1.9026
  272MOL0     H36708   1.899  10.218   6.644  0.4603  1.0016  0.3809
  272MOL0     H36709   2.088  10.361   6.602  0.8262 -1.1096  0.9767
  272MOL0     H36710   2.264  10.470   6.684  0.0750 -1.0915  1.5919
  272MOL0     H36711   2.316  10.638   6.683  2.6238 -0.1696  1.8133
  272MOL0     H36712   2.351  10.465   6.910  0.4627  0.6962  0.8424
  272MOL0     H36713   2.197  10.530   6.937  0.2274 -0.5728  0.4194
  272MOL0     H36714   2.275  10.773   6.896 -3.6113 -0.2814  1.4789
  272MOL0     H36715   2.438  10.707   6.909 -0.3786  2.7719  1.3975
  272MOL0     H36716   2.352  10.593   7.128  1.2475 -0.9090 -0.5315
  272MOL0     H36717   2.207  10.701   7.104 -0.8670 -1.0963 -1.4549
  272MOL0     H36718   2.519  10.957   7.241 -1.2530  0.6896 -0.1695
  272MOL0     H36719   1.957  10.634   6.887  0.9962 -1.7965  4.4835
  272MOL0     H36720   1.757  10.472   6.952 -2.6809  1.7310 -2.2869
  273MOL0     O36721   8.333   2.175   2.931  0.1281  0.7997 -0.3767
  273MOL0     C36722   8.262   2.256   2.859 -0.1858  0.0359  0.1008
  273MOL0     O36723   8.210   2.375   2.912 -0.2757 -0.2719 -0.5369
  273MOL0     C36724   8.275   2.425   3.023  0.1711  0.0074  0.0949
  273MOL0     C36725   8.248   2.367   3.150  0.0905 -0.4186  0.3780
  273MOL0     C36726   8.283   2.434   3.266 -0.0852  0.2443  0.6117
  273MOL0     C36727   8.352   2.559   3.257 -0.1002 -0.2480 -0.1628
  273MOL0     O36728   8.355   2.625   3.371 -0.6469  1.7367 -0.6906
  273MOL0     C36729   8.285   2.740   3.379 -0.7627  0.1393 -0.4111
  273MOL0     C36730   8.347   2.805   3.506  0.1277  0.2042  0.1387
  273MOL0     C36731   8.297   2.735   3.630  0.3965  0.5748  0.4410
  273MOL0     C36732   8.179   2.806   3.699 -0.1316 -1.0029  0.4578
  273MOL0     C36733   8.117   2.706   3.807  0.2513 -0.6164 -0.1430
  273MOL0     C36734   7.967   2.722   3.843 -0.1104  1.2252 -0.2486
  273MOL0     C36735   7.879   2.743   3.714 -0.4304  1.1901  0.0694
  273MOL0     C36736   7.876   2.622   3.622  0.2351  0.1282  0.0838
  273MOL0     N36737   7.774   2.653   3.518  0.1186  0.5671 -0.1757
  273MOL0     C36738   7.640   2.674   3.529  0.3447  1.0961 -0.1206
  273MOL0     C36739   7.603   2.712   3.410  0.2821  0.1165 -0.2168
  273MOL0     C36740   7.473   2.778   3.383 -0.1068 -0.0030  0.2251
  273MOL0     C36741   7.371   2.670   3.354 -0.4017 -0.2580 -1.1729
  273MOL0     C36742   7.313   2.617   3.501  0.2631  0.6383  0.6746
  273MOL0     C36743   7.190   2.533   3.492 -1.2926  0.7780 -0.1254
  273MOL0     O36744   7.072   2.604   3.466 -0.1424 -0.3939 -0.3521
  273MOL0     C36745   6.963   2.526   3.433  0.5719 -0.1661 -0.3998
  273MOL0     C36746   6.942   2.392   3.481  0.3532 -0.1763  0.6402
  273MOL0     C36747   6.828   2.319   3.455  0.3093  0.2555 -0.2505
  273MOL0     C36748   6.826   2.177   3.504 -1.0219  0.8586  0.4944
  273MOL0     C36749   6.716   2.386   3.405 -0.6368  0.6505 -0.6721
  273MOL0     C36750   6.581   2.327   3.410  0.5621  0.2466 -0.7815
  273MOL0     O36751   6.531   2.293   3.542  1.0309  0.5375 -0.0947
  273MOL0     C36752   6.409   2.227   3.544  0.6520  1.2863 -0.0719
  273MOL0     C36753   6.401   2.092   3.570  0.6303  0.3546 -0.3491
  273MOL0     C36754   6.281   2.032   3.596  0.4541  0.7377 -0.0355
  273MOL0     C36755   6.156   2.091   3.604  0.0528  0.8644  0.3132
  273MOL0     O36756   6.039   2.021   3.618 -0.6308 -0.7095  0.6968
  273MOL0     C36757   5.960   2.077   3.725 -0.8948  0.0019 -0.7253
  273MOL0     C36758   5.895   1.971   3.817 -0.6479  0.4146  0.9684
  273MOL0     C36759   5.770   2.029   3.879 -0.3347 -0.2662 -0.2096
  273MOL0     C36760   5.700   1.951   3.994  0.3173  0.3469 -0.2646
  273MOL0     C36761   5.575   2.025   4.063 -0.5014  0.0147 -1.0493
  273MOL0     C36762   5.540   1.987   4.210  0.4628 -0.6649  0.0870
  273MOL0     C36763   5.430   2.073   4.268  0.3537  0.2089 -0.5917
  273MOL0     C36764   5.286   2.071   4.200  0.0453 -0.7539  0.3178
  273MOL0    Cl36765   5.292   2.170   4.052 -0.4459  0.3356  0.4170
  273MOL0     C36766   6.162   2.230   3.567  0.3378  0.1006  0.1177
  273MOL0     C36767   6.286   2.295   3.544 -0.3805  0.7824  0.1664
  273MOL0     O36768   6.518   2.318   3.309 -0.3156 -0.0103 -0.1294
  273MOL0     C36769   6.736   2.519   3.359 -0.3643  0.2619 -0.7622
  273MOL0     C36770   6.862   2.585   3.365  0.5908 -0.5203 -0.0766
  273MOL0     N36771   7.710   2.703   3.323 -0.8435  0.0044  0.1035
  273MOL0     N36772   7.813   2.668   3.392 -0.7577  0.4634  0.0509
  273MOL0     C36773   8.400   2.603   3.130 -0.6349  0.0399 -0.4986
  273MOL0     C36774   8.359   2.537   3.011 -0.0681  0.4663 -0.0105
  273MOL0     C36775   8.231   2.208   2.718 -0.1238  0.6534 -0.1831
  273MOL0     C36776   8.108   2.241   2.651 -0.8640 -0.8704  0.1685
  273MOL0     C36777   8.090   2.230   2.508 -0.4000  0.4448  0.5625
  273MOL0     C36778   8.191   2.183   2.439 -0.8816 -0.0523  0.5869
  273MOL0     O36779   8.192   2.185   2.299 -0.4242 -0.0352  0.1612
  273MOL0     C36780   8.066   2.184   2.230 -0.1209 -0.2764 -1.3820
  273MOL0     C36781   7.996   2.053   2.248  0.9180 -0.0933  0.2595
  273MOL0     C36782   8.087   1.935   2.204  0.1895 -0.7737 -0.6288
  273MOL0     C36783   8.116   1.952   2.059 -1.4728 -0.2653 -0.2643
  273MOL0     C36784   8.007   1.913   1.965  0.6393 -0.1061 -0.8469
  273MOL0     C36785   7.905   1.887   1.900  0.1502  0.5027  0.8145
  273MOL0     C36786   8.307   2.140   2.504 -0.2259  0.4965  1.0024
  273MOL0     C36787   8.330   2.145   2.643 -0.1224  0.0712  1.1022
  273MOL0     H36788   8.188   2.277   3.152 -1.0929  0.1290 -2.9245
  273MOL0     H36789   8.241   2.400   3.360  0.3934 -2.4560 -0.0770
  273MOL0     H36790   8.314   2.802   3.293  5.4188 -0.2223  0.8945
  273MOL0     H36791   8.180   2.726   3.404 -0.7059 -1.1059 -0.7731
  273MOL0     H36792   8.457   2.804   3.509  0.1154 -0.0569  2.0505
  273MOL0     H36793   8.304   2.905   3.509 -3.5685 -1.2468  1.0260
  273MOL0     H36794   8.278   2.628   3.615 -1.4561  0.6996  1.5813
  273MOL0     H36795   8.379   2.723   3.702  1.2921 -6.6661 -0.9784
  273MOL0     H36796   8.214   2.897   3.748 -2.5409 -0.3284  1.0825
  273MOL0     H36797   8.098   2.819   3.626 -0.6975 -1.8073  0.9203
  273MOL0     H36798   8.133   2.601   3.783 -1.8521 -1.3866  1.4830
  273MOL0     H36799   8.161   2.737   3.902 -4.8457  0.1204  2.3097
  273MOL0     H36800   7.942   2.630   3.898 -2.5135  1.2549 -1.1349
  273MOL0     H36801   7.963   2.806   3.913  0.9355  1.2998 -0.2724
  273MOL0     H36802   7.778   2.760   3.752 -1.3379  1.5041 -2.3001
  273MOL0     H36803   7.894   2.831   3.651 -0.2678  2.9758  2.4654
  273MOL0     H36804   7.852   2.530   3.676 -0.2019 -1.2685 -2.3412
  273MOL0     H36805   7.977   2.607   3.582  1.1597  1.8816  1.6282
  273MOL0     H36806   7.571   2.673   3.613  0.8763  1.1679  0.3232
  273MOL0     H36807   7.443   2.842   3.467 -2.4842  2.0950 -2.0273
  273MOL0     H36808   7.473   2.850   3.300 -1.0351  4.0116  3.3870
  273MOL0     H36809   7.410   2.588   3.294 -1.6424 -0.3412 -1.8860
  273MOL0     H36810   7.286   2.714   3.301 -1.1376  0.4526  0.5271
  273MOL0     H36811   7.298   2.704   3.566  1.1132  0.7359  0.7497
  273MOL0     H36812   7.385   2.557   3.558 -3.7574 -3.0977  2.3705
  273MOL0     H36813   7.160   2.506   3.594 -0.4593 -2.0159 -0.5365
  273MOL0     H36814   7.196   2.436   3.441  2.0471  2.0754 -2.5258
  273MOL0     H36815   7.012   2.337   3.543  0.4075 -3.6825 -2.2025
  273MOL0     H36816   6.921   2.146   3.547 -1.1419  4.1438  3.5878
  273MOL0     H36817   6.755   2.166   3.587 -1.0040 -0.7877  0.3204
  273MOL0     H36818   6.794   2.104   3.429 -2.3011  0.7499  1.1165
  273MOL0     H36819   6.494   2.037   3.557 -0.4174 -0.9924 -2.7174
  273MOL0     H36820   6.286   1.924   3.605 -3.8057  0.3065 -0.7121
  273MOL0     H36821   6.029   2.139   3.783  3.0030 -1.1468 -3.6970
  273MOL0     H36822   5.885   2.151   3.694  1.8932  2.8353 -1.2047
  273MOL0     H36823   5.854   1.886   3.762 -0.1202  0.6867  0.1399
  273MOL0     H36824   5.969   1.929   3.886  0.2399 -0.6507 -0.5803
  273MOL0     H36825   5.695   2.031   3.799 -1.3251  0.3346  0.7004
  273MOL0     H36826   5.796   2.130   3.911 -0.7499 -0.0286 -0.6025
  273MOL0     H36827   5.658   1.854   3.966 -0.3097  1.1187 -2.0991
  273MOL0     H36828   5.771   1.920   4.071  2.8178  0.1394 -2.4979
  273MOL0     H36829   5.485   1.991   4.011 -0.3339 -1.9046 -0.1660
  273MOL0     H36830   5.592   2.133   4.062  0.8777 -0.1700 -0.1689
  273MOL0     H36831   5.515   1.881   4.202  0.7375 -0.9317  2.1772
  273MOL0     H36832   5.624   2.001   4.279 -1.2070  1.3242  1.8363
  273MOL0     H36833   5.464   2.176   4.284 -3.8806  1.9240 -1.3805
  273MOL0     H36834   5.408   2.033   4.367 -2.3998  0.4338 -1.0453
  273MOL0     H36835   5.209   2.109   4.268 -1.2775  2.0895 -2.5179
  273MOL0     H36836   5.251   1.968   4.185  0.1427 -0.7743  0.2236
  273MOL0     H36837   6.070   2.283   3.584 -0.5359 -1.3477  0.0854
  273MOL0     H36838   6.294   2.403   3.538 -2.7838  0.9899 -0.3627
  273MOL0     H36839   6.655   2.578   3.316  0.3697  3.0249  1.3268
  273MOL0     H36840   6.865   2.683   3.319  2.1506 -1.3084 -1.7685
  273MOL0     H36841   8.463   2.690   3.118 -0.0136 -0.4717 -1.0113
  273MOL0     H36842   8.385   2.585   2.918 -1.3955  0.6101 -0.3257
  273MOL0     H36843   8.019   2.284   2.696 -0.7594  1.3492 -1.5428
  273MOL0     H36844   7.998   2.266   2.462 -0.0149  1.4124  0.5182
  273MOL0     H36845   8.000   2.264   2.263  0.0750 -0.1691 -1.2487
  273MOL0     H36846   8.075   2.214   2.125 -2.6797  1.9060 -1.0635
  273MOL0     H36847   7.898   2.042   2.202  1.3628  0.7890 -0.9263
  273MOL0     H36848   7.975   2.045   2.355  1.6003 -0.0825  0.3996
  273MOL0     H36849   8.030   1.843   2.219  3.9793 -3.1980  0.6271
  273MOL0     H36850   8.185   1.930   2.253 -0.8518 -0.7986  1.5358
  273MOL0     H36851   8.204   1.890   2.042  0.0685  2.1069 -1.5299
  273MOL0     H36852   8.150   2.053   2.034  1.0188 -1.0490 -0.2558
  273MOL0     H36853   7.815   1.855   1.852  2.1729 -1.7539 -1.8382
  273MOL0     H36854   8.394   2.094   2.458  0.2153  3.5222 -1.5286
  273MOL0     H36855   8.422   2.110   2.690 -1.1768 -2.1826  1.6401
  274MOL0     O36856   9.625   8.035  10.204 -0.7358  1.3023  0.2718
  274MOL0     C36857   9.682   8.137  10.242 -1.2213  0.2552 -0.3957
  274MOL0     O36858   9.783   8.204  10.174 -0.0362 -0.4282 -0.9952
  274MOL0     C36859   9.817   8.151  10.056  0.4115 -0.3371 -0.6887
  274MOL0     C36860   9.739   8.158   9.942  0.3627  0.4694  0.0206
  274MOL0     C36861   9.786   8.094   9.824  0.7464 -0.0788  0.0267
  274MOL0     C36862   9.916   8.041   9.811  0.4428  0.0290 -0.0450
  274MOL0     O36863   9.963   7.987   9.700 -0.0730 -0.1203 -0.2210
  274MOL0     C36864   9.933   8.063   9.577  0.6451  0.4641  0.4336
  274MOL0     C36865   9.964   7.979   9.446 -0.7929  0.1688  0.3629
  274MOL0     C36866   9.876   7.849   9.443  0.7819 -0.1575 -0.1767
  274MOL0     C36867   9.882   7.777   9.306 -0.1501 -0.0270  0.1846
  274MOL0     C36868   9.780   7.661   9.327  0.9524 -0.3229  0.2706
  274MOL0     C36869   9.803   7.559   9.212 -0.3358  0.0294  0.5021
  274MOL0     C36870   9.710   7.448   9.218 -0.1187 -0.3160  0.1780
  274MOL0     C36871   9.718   7.341   9.105 -0.8374 -0.2085 -0.5106
  274MOL0     N36872   9.850   7.286   9.077 -0.0568 -0.1555 -0.1552
  274MOL0     C36873   9.901   7.180   9.140 -0.9442 -0.1117 -0.0964
  274MOL0     C36874   9.984   7.126   9.053  0.5856 -0.0501  0.3070
  274MOL0     C36875  10.080   7.019   9.093  0.3829  0.1493 -0.4468
  274MOL0     C36876  10.039   6.894   9.016  0.4017 -0.5748 -0.2903
  274MOL0     C36877  10.053   6.902   8.859 -0.4445  0.6049 -0.0267
  274MOL0     C36878  10.125   6.769   8.819  0.0937 -0.2588  0.1566
  274MOL0     O36879  10.268   6.787   8.844 -0.2484  0.1793  0.4983
  274MOL0     C36880  10.334   6.677   8.895  0.2565  0.3549  0.2713
  274MOL0     C36881  10.374   6.670   9.028  0.5826 -0.1130  0.0683
  274MOL0     C36882  10.448   6.558   9.073  0.1316  0.8262 -0.7709
  274MOL0     C36883  10.514   6.583   9.213 -0.2681 -0.4885 -0.7176
  274MOL0     C36884  10.477   6.444   8.992  1.0510 -0.0551  0.0069
  274MOL0     C36885  10.559   6.331   9.039 -0.4044  0.1706  0.3630
  274MOL0     O36886  10.542   6.213   8.967 -0.8546  0.2732  0.0377
  274MOL0     C36887  10.622   6.107   9.004 -0.7115 -0.2198  0.1721
  274MOL0     C36888  10.682   6.034   8.901 -0.1681 -0.8534 -0.9563
  274MOL0     C36889  10.763   5.921   8.939  1.0546  0.1912 -1.0379
  274MOL0     C36890  10.775   5.875   9.073 -0.1832 -0.8504  0.0680
  274MOL0     O36891  10.844   5.755   9.091 -0.1079  0.5096 -0.5619
  274MOL0     C36892  10.836   5.717   9.229  0.3939  0.7202 -0.4477
  274MOL0     C36893  10.882   5.567   9.217  0.0857  0.5467 -0.1343
  274MOL0     C36894  11.015   5.526   9.145  1.3571  0.8974 -0.2745
  274MOL0     C36895  11.136   5.591   9.214  0.2303 -0.0255 -0.1536
  274MOL0     C36896  11.280   5.555   9.168  0.1108  0.4643  0.7083
  274MOL0     C36897  11.297   5.568   9.011  0.5925  1.0191 -0.6651
  274MOL0     C36898  11.252   5.709   8.956  0.6838  0.4210 -0.2919
  274MOL0     C36899  11.338   5.817   9.020  0.0077  0.2384  0.5670
  274MOL0    Cl36900  11.512   5.798   8.986 -0.0088  0.8491  0.3000
  274MOL0     C36901  10.700   5.935   9.165  0.0460  0.2983  0.4871
  274MOL0     C36902  10.635   6.061   9.136  0.5497 -0.0346 -0.1084
  274MOL0     O36903  10.630   6.338   9.139 -0.2393  0.7221  0.0598
  274MOL0     C36904  10.435   6.451   8.858  0.3132 -0.4561 -0.1695
  274MOL0     C36905  10.363   6.561   8.816 -0.3009 -0.6996  0.1299
  274MOL0     N36906   9.977   7.197   8.929 -0.5575  0.2827  0.2653
  274MOL0     N36907   9.892   7.290   8.947  0.1037 -0.6096 -0.1384
  274MOL0     C36908   9.995   8.029   9.930  0.2962  0.6566  0.2566
  274MOL0     C36909   9.942   8.084  10.047  0.5431 -0.3565  0.1683
  274MOL0     C36910   9.658   8.195  10.373  0.2153  0.9465  0.0420
  274MOL0     C36911   9.759   8.281  10.437  0.1475  0.1939  0.5511
  274MOL0     C36912   9.722   8.351  10.556 -0.6773  0.0009 -0.4903
  274MOL0     C36913   9.598   8.326  10.617 -0.2172 -0.1898  0.4232
  274MOL0     O36914   9.585   8.382  10.741 -0.0784  0.4194 -0.4639
  274MOL0     C36915   9.456   8.389  10.808  0.1993  0.2965 -0.2976
  274MOL0     C36916   9.440   8.510  10.902 -0.1196  0.9408  0.1106
  274MOL0     C36917   9.303   8.492  10.988 -0.7870 -0.1833 -0.2013
  274MOL0     C36918   9.280   8.601  11.088  0.6164 -0.6108  0.3805
  274MOL0     C36919   9.205   8.702  11.020  1.2548 -1.4963  0.2830
  274MOL0     C36920   9.132   8.778  10.956  0.6725 -0.2542  0.8453
  274MOL0     C36921   9.506   8.239  10.564 -0.1313 -0.5556  0.4731
  274MOL0     C36922   9.523   8.179  10.441  0.4256 -0.3053 -0.2476
  274MOL0     H36923   9.645   8.211   9.952 -0.1210 -0.2538 -0.5531
  274MOL0     H36924   9.719   8.087   9.739 -2.1423  1.4343  2.0290
  274MOL0     H36925   9.827   8.084   9.568  0.4203 -0.1991  1.4377
  274MOL0     H36926   9.993   8.154   9.568 -0.1779  1.1578  1.6776
  274MOL0     H36927   9.944   8.040   9.358 -0.7006 -0.9623 -0.4700
  274MOL0     H36928  10.072   7.961   9.440 -0.6286  1.3556 -0.6789
  274MOL0     H36929   9.903   7.786   9.528  0.6209  2.5892  2.0623
  274MOL0     H36930   9.774   7.882   9.464  0.7202  0.7153 -1.7423
  274MOL0     H36931   9.858   7.838   9.218  0.9914 -1.2703 -1.0220
  274MOL0     H36932   9.985   7.744   9.293  0.1216 -0.7252  3.2501
  274MOL0     H36933   9.781   7.620   9.428 -1.4065 -3.0738 -0.6876
  274MOL0     H36934   9.676   7.691   9.312  0.4276 -1.6842  0.9788
  274MOL0     H36935   9.771   7.614   9.123 -2.5383  2.5577  2.6708
  274MOL0     H36936   9.903   7.515   9.212  0.6170  2.1113  0.2718
  274MOL0     H36937   9.741   7.403   9.313 -3.8431  1.7831  2.6909
  274MOL0     H36938   9.608   7.480   9.245  0.1193 -0.7244  1.6567
  274MOL0     H36939   9.702   7.399   9.013 -1.0911  0.6666  0.0702
  274MOL0     H36940   9.633   7.274   9.115 -0.4680 -0.3366  2.8017
  274MOL0     H36941   9.878   7.153   9.243 -0.5090  1.8264  0.5557
  274MOL0     H36942  10.179   7.061   9.074  0.1634  1.8535  1.7615
  274MOL0     H36943  10.065   6.991   9.198  0.6562 -1.0395 -0.7194
  274MOL0     H36944   9.932   6.877   9.029  0.1337  1.3302  0.2821
  274MOL0     H36945  10.092   6.810   9.062  2.5965  0.9670  0.1573
  274MOL0     H36946  10.126   6.979   8.834 -0.0839  0.7039  1.2554
  274MOL0     H36947   9.954   6.913   8.812 -1.4380 -0.2462  1.7486
  274MOL0     H36948  10.113   6.752   8.712  0.2149  2.9237 -0.4424
  274MOL0     H36949  10.082   6.680   8.868 -1.5884 -0.0232 -0.8053
  274MOL0     H36950  10.366   6.747   9.104 -0.5486 -0.9543  0.8397
  274MOL0     H36951  10.485   6.675   9.264  0.7953 -0.3436 -0.3527
  274MOL0     H36952  10.496   6.504   9.286  1.0592 -0.2899 -0.1489
  274MOL0     H36953  10.623   6.597   9.219 -0.6825  3.4106  0.0921
  274MOL0     H36954  10.684   6.067   8.797  1.0908 -1.8012 -1.2485
  274MOL0     H36955  10.835   5.872   8.874  2.0705  0.3131 -0.0424
  274MOL0     H36956  10.897   5.779   9.296  0.0090 -0.3544  0.9439
  274MOL0     H36957  10.739   5.704   9.278  0.5227  3.3082  0.6353
  274MOL0     H36958  10.894   5.524   9.317 -0.9781 -2.6423 -1.2782
  274MOL0     H36959  10.806   5.510   9.163  0.4082  0.7986 -0.8622
  274MOL0     H36960  11.008   5.549   9.038  1.6563 -0.5468 -0.6379
  274MOL0     H36961  11.036   5.419   9.153  3.1207  1.2956  0.9630
  274MOL0     H36962  11.126   5.700   9.204 -2.2559  0.3698  4.1170
  274MOL0     H36963  11.132   5.585   9.323 -0.7776  0.1917 -0.1624
  274MOL0     H36964  11.300   5.450   9.193 -3.0330 -0.1593  0.9186
  274MOL0     H36965  11.357   5.617   9.216 -1.3967  2.9311  0.0913
  274MOL0     H36966  11.405   5.565   8.998  0.7941 -0.5541  1.0719
  274MOL0     H36967  11.233   5.499   8.955 -0.7231  0.1299  1.7884
  274MOL0     H36968  11.147   5.730   8.976 -0.0537 -2.2254 -0.8991
  274MOL0     H36969  11.258   5.714   8.846 -1.4981  2.5782 -0.4001
  274MOL0     H36970  11.315   5.807   9.126 -2.8789 -5.6165 -0.1930
  274MOL0     H36971  11.306   5.915   8.986 -1.3684 -0.8252 -1.4094
  274MOL0     H36972  10.705   5.913   9.271 -1.5886 -2.3226  0.0973
  274MOL0     H36973  10.579   6.103   9.220 -0.2666 -0.3782 -0.4695
  274MOL0     H36974  10.465   6.376   8.786 -0.6806 -1.4840  0.4533
  274MOL0     H36975  10.339   6.568   8.710  2.4602  0.7320 -0.5004
  274MOL0     H36976  10.093   7.983   9.925 -0.5399 -1.0481 -1.9022
  274MOL0     H36977   9.992   8.070  10.142 -2.4471 -0.8095  1.8130
  274MOL0     H36978   9.861   8.281  10.398 -0.4613 -0.8081 -1.1219
  274MOL0     H36979   9.796   8.414  10.604  0.3588 -2.9289  2.0760
  274MOL0     H36980   9.371   8.401  10.740  1.7329  1.0910 -2.1637
  274MOL0     H36981   9.436   8.297  10.863 -2.5610  0.0991 -1.4919
  274MOL0     H36982   9.447   8.608  10.854  1.3049  2.1325  2.5486
  274MOL0     H36983   9.528   8.501  10.966 -2.4292 -1.8811  3.2604
  274MOL0     H36984   9.317   8.401  11.047 -1.4190 -0.1139  0.0622
  274MOL0     H36985   9.214   8.479  10.926  1.9453 -1.0386 -4.3949
  274MOL0     H36986   9.371   8.638  11.135  1.0545  0.1585 -1.0380
  274MOL0     H36987   9.226   8.554  11.171  0.8563 -1.5472  0.0212
  274MOL0     H36988   9.082   8.857  10.904  0.6397 -0.8633 -0.0730
  274MOL0     H36989   9.416   8.212  10.618  1.0870 -1.2514  2.2674
  274MOL0     H36990   9.459   8.115  10.382  0.7691  0.1836 -1.1801
  275MOL0     O36991   7.415   5.504   2.482  0.1269  0.0827 -0.6204
  275MOL0     C36992   7.337   5.410   2.468  0.0804  0.4177 -0.1758
  275MOL0     O36993   7.266   5.372   2.358 -0.6628  0.0600  0.0115
  275MOL0     C36994   7.284   5.452   2.249  0.7539  0.4643 -0.4370
  275MOL0     C36995   7.359   5.419   2.137 -0.6061 -0.6550 -0.2434
  275MOL0     C36996   7.367   5.495   2.018  0.5695 -0.2411  0.1489
  275MOL0     C36997   7.288   5.613   2.009  0.4596  0.4017 -0.1736
  275MOL0     O36998   7.306   5.705   1.913  0.4111 -0.4137  0.6308
  275MOL0     C36999   7.360   5.668   1.786  0.2300 -0.9807 -0.3671
  275MOL0     C37000   7.507   5.699   1.796 -0.1491 -0.0121  0.1612
  275MOL0     C37001   7.572   5.699   1.655 -0.4305  0.3434  0.9015
  275MOL0     C37002   7.719   5.709   1.650 -0.0455 -0.3819 -0.3189
  275MOL0     C37003   7.793   5.578   1.658  0.3269  1.1828 -0.4216
  275MOL0     C37004   7.774   5.474   1.545 -0.1736 -0.2634  0.1278
  275MOL0     C37005   7.844   5.339   1.558  0.9799 -0.5341  0.5779
  275MOL0     C37006   7.750   5.226   1.622  0.7052  0.0844  0.1067
  275MOL0     N37007   7.815   5.096   1.592 -0.4198  0.4644 -0.1452
  275MOL0     C37008   7.744   4.976   1.580 -0.0472  0.5632  0.6681
  275MOL0     C37009   7.835   4.880   1.588  0.0766  0.2959 -0.4694
  275MOL0     C37010   7.804   4.741   1.607  0.9126 -0.3965 -0.5014
  275MOL0     C37011   7.814   4.668   1.482  0.1267  0.1387 -0.1359
  275MOL0     C37012   7.811   4.513   1.505  0.4361 -1.2402 -0.8044
  275MOL0     C37013   7.850   4.433   1.377  0.5270 -0.0324  0.1340
  275MOL0     O37014   7.746   4.436   1.282  0.3055  0.7634  1.2892
  275MOL0     C37015   7.741   4.361   1.168 -0.6730 -0.5034 -0.1249
  275MOL0     C37016   7.613   4.341   1.123 -0.0881  0.1281  0.2851
  275MOL0     C37017   7.591   4.253   1.023 -0.5957 -0.7015  0.0784
  275MOL0     C37018   7.464   4.267   0.947 -0.9165 -0.1304  0.3038
  275MOL0     C37019   7.700   4.182   0.962 -0.8518 -0.8733 -0.0418
  275MOL0     C37020   7.678   4.082   0.859  0.8271 -0.2256 -1.0172
  275MOL0     O37021   7.777   4.061   0.763 -0.1877 -0.4705  0.1928
  275MOL0     C37022   7.784   3.945   0.691 -0.7310 -0.8237  0.5591
  275MOL0     C37023   7.696   3.839   0.696  0.5599  0.3205  0.0386
  275MOL0     C37024   7.717   3.728   0.614  0.6266  0.7509 -0.4272
  275MOL0     C37025   7.815   3.730   0.510  0.9899  0.0012 -1.1960
  275MOL0     O37026   7.820   3.613   0.437  0.1811 -0.2815 -0.0252
  275MOL0     C37027   7.905   3.615   0.327 -0.5217 -0.6721 -0.3621
  275MOL0     C37028   7.918   3.479   0.250 -0.1952 -0.2742 -0.5141
  275MOL0     C37029   8.036   3.490   0.150  0.2503  0.8803 -1.1475
  275MOL0     C37030   8.041   3.615   0.057 -0.1304  0.5614 -1.1566
  275MOL0     C37031   7.973   3.595  -0.075 -0.4030 -0.1994 -0.6098
  275MOL0     C37032   7.820   3.596  -0.075 -0.2568 -1.2583 -0.0724
  275MOL0     C37033   7.764   3.542  -0.217 -0.1001  0.2725 -0.2391
  275MOL0     C37034   7.620   3.594  -0.238 -0.4071 -0.2131  0.3017
  275MOL0    Cl37035   7.511   3.486  -0.150  0.3113  0.0825  0.3028
  275MOL0     C37036   7.902   3.845   0.512  0.4666 -0.3862  0.6517
  275MOL0     C37037   7.885   3.946   0.603 -1.3529  0.9143  0.6170
  275MOL0     O37038   7.574   4.020   0.859 -0.4113  0.5492 -0.7150
  275MOL0     C37039   7.831   4.199   1.008  0.2611 -1.5811  0.2108
  275MOL0     C37040   7.850   4.296   1.111 -0.2889  0.3270  0.2778
  275MOL0     N37041   7.965   4.937   1.582  0.1840 -0.3142 -0.7642
  275MOL0     N37042   7.954   5.066   1.585 -0.7104  0.1065  0.3951
  275MOL0     C37043   7.209   5.646   2.112 -1.3284  0.7201 -0.4186
  275MOL0     C37044   7.202   5.569   2.233 -0.3296  0.3420 -0.0727
  275MOL0     C37045   7.308   5.318   2.575 -0.7074 -0.6061  0.4088
  275MOL0     C37046   7.400   5.309   2.683  0.5674  0.6031  0.1724
  275MOL0     C37047   7.376   5.228   2.791 -0.4452  1.1050  0.0508
  275MOL0     C37048   7.250   5.157   2.796 -0.5153 -0.5212 -0.7881
  275MOL0     O37049   7.223   5.080   2.905 -0.0179 -0.1727  0.3493
  275MOL0     C37050   7.124   5.135   2.987 -0.3532  0.1056  0.9845
  275MOL0     C37051   7.158   5.103   3.129  1.2892 -0.7400 -0.1388
  275MOL0     C37052   7.294   5.145   3.159 -0.2686  0.1170  0.2710
  275MOL0     C37053   7.327   5.298   3.135 -0.7434  1.0391  0.5992
  275MOL0     C37054   7.463   5.339   3.172 -0.7768 -0.0138  0.9484
  275MOL0     C37055   7.581   5.375   3.205  1.3517 -1.1471  0.1365
  275MOL0     C37056   7.160   5.161   2.691  0.0890 -0.2010 -0.3095
  275MOL0     C37057   7.192   5.235   2.579 -0.1118 -0.1583  0.1166
  275MOL0     H37058   7.431   5.337   2.137  0.8739  0.5795  0.5001
  275MOL0     H37059   7.434   5.451   1.945  1.3141  3.5802 -1.6974
  275MOL0     H37060   7.351   5.562   1.761 -0.1485 -0.5611 -2.1206
  275MOL0     H37061   7.306   5.724   1.709  0.9592  0.1312 -0.0921
  275MOL0     H37062   7.512   5.799   1.841  0.9916 -0.5365  1.2393
  275MOL0     H37063   7.556   5.624   1.858 -1.5332 -2.2228 -1.2597
  275MOL0     H37064   7.536   5.604   1.614  1.1281  0.7340 -1.6482
  275MOL0     H37065   7.543   5.775   1.581 -1.3056  0.1993  1.0854
  275MOL0     H37066   7.754   5.777   1.571  2.0664  5.6300  4.8474
  275MOL0     H37067   7.738   5.771   1.738 -2.8584  0.9409 -0.5511
  275MOL0     H37068   7.898   5.606   1.663  0.5142  0.4196  0.1542
  275MOL0     H37069   7.766   5.535   1.755 -1.0573  1.7671 -0.5246
  275MOL0     H37070   7.668   5.453   1.529 -0.0801 -2.6017  1.9680
  275MOL0     H37071   7.820   5.520   1.457  2.1939 -3.0124 -0.2243
  275MOL0     H37072   7.875   5.299   1.461 -1.5339 -1.1891 -0.0298
  275MOL0     H37073   7.928   5.350   1.627 -0.0626  0.7290  1.6986
  275MOL0     H37074   7.643   5.229   1.600  0.5982 -0.4988  0.5254
  275MOL0     H37075   7.734   5.245   1.729  2.0494  2.0101  0.0129
  275MOL0     H37076   7.636   4.960   1.574  0.0388  0.4362 -1.1199
  275MOL0     H37077   7.861   4.697   1.689  1.0874  1.6357  0.5172
  275MOL0     H37078   7.706   4.729   1.654  1.8963  0.0336  1.7927
  275MOL0     H37079   7.910   4.689   1.435  0.5817 -2.7912 -0.6953
  275MOL0     H37080   7.729   4.697   1.419 -0.5831 -1.3986  0.0874
  275MOL0     H37081   7.718   4.478   1.551  1.7379  0.5025  3.7522
  275MOL0     H37082   7.889   4.492   1.578  1.2417  2.1184 -0.5449
  275MOL0     H37083   7.878   4.330   1.402 -1.4888 -0.3839  1.1160
  275MOL0     H37084   7.940   4.480   1.337 -0.4564  1.6551 -0.1852
  275MOL0     H37085   7.537   4.407   1.163 -0.0834  0.9831 -1.0451
  275MOL0     H37086   7.400   4.339   0.999  1.1937  1.1260  1.3314
  275MOL0     H37087   7.478   4.301   0.844 -3.3120  0.7480  0.2012
  275MOL0     H37088   7.414   4.170   0.940  0.9098 -1.4405  3.3147
  275MOL0     H37089   7.611   3.825   0.761  1.0190 -1.1645  0.3446
  275MOL0     H37090   7.658   3.638   0.618  1.5407  0.1620  0.1135
  275MOL0     H37091   7.855   3.693   0.268 -5.0661 -1.5089  1.9577
  275MOL0     H37092   8.009   3.632   0.356 -0.1817 -1.7364 -0.8986
  275MOL0     H37093   7.939   3.405   0.328 -1.3444  0.3869  0.4484
  275MOL0     H37094   7.821   3.464   0.203 -0.8769  0.2380  0.7091
  275MOL0     H37095   8.044   3.394   0.098  2.8489 -0.4717  1.4546
  275MOL0     H37096   8.122   3.483   0.217  0.5871 -1.5891 -1.7252
  275MOL0     H37097   8.005   3.706   0.105  1.3139  1.0606 -0.9721
  275MOL0     H37098   8.149   3.612   0.037  0.4510  1.5400  1.4670
  275MOL0     H37099   8.004   3.498  -0.115  1.4268 -1.1828  2.8116
  275MOL0     H37100   8.008   3.672  -0.144  2.7421  1.5159  2.5951
  275MOL0     H37101   7.795   3.529   0.008  1.3135  0.8403  2.2444
  275MOL0     H37102   7.770   3.692  -0.057  2.2911  0.0924  0.3267
  275MOL0     H37103   7.770   3.433  -0.216  0.5253  0.2995  0.3679
  275MOL0     H37104   7.829   3.570  -0.300  1.2362 -1.9834 -0.0322
  275MOL0     H37105   7.596   3.601  -0.345  2.3928 -0.7668 -0.4466
  275MOL0     H37106   7.613   3.700  -0.209 -1.1844 -0.1090 -0.2300
  275MOL0     H37107   7.977   3.857   0.434 -1.6727 -1.1283 -1.6700
  275MOL0     H37108   7.957   4.026   0.593  1.6190 -1.9013 -3.4107
  275MOL0     H37109   7.909   4.128   0.982 -2.1297 -4.4828  0.4869
  275MOL0     H37110   7.944   4.311   1.162 -1.9886 -1.0126  4.1676
  275MOL0     H37111   7.131   5.720   2.095 -1.4920  1.1158  1.6704
  275MOL0     H37112   7.131   5.594   2.310 -0.3493  0.5168 -0.1478
  275MOL0     H37113   7.485   5.375   2.686  1.1204 -0.1145  0.7368
  275MOL0     H37114   7.450   5.208   2.868 -2.3447 -0.2318  1.6530
  275MOL0     H37115   7.118   5.243   2.977  1.9277  0.1664 -0.4016
  275MOL0     H37116   7.028   5.091   2.959  0.2850  0.0740 -1.3251
  275MOL0     H37117   7.141   4.997   3.149  2.0967 -0.4903  2.2181
  275MOL0     H37118   7.087   5.155   3.194  1.1279  1.4073 -1.9158
  275MOL0     H37119   7.350   5.073   3.099  0.6334  0.6249  0.4898
  275MOL0     H37120   7.305   5.109   3.261 -0.6311  0.4859  0.4433
  275MOL0     H37121   7.264   5.347   3.211 -0.9748 -0.6580  1.5626
  275MOL0     H37122   7.292   5.335   3.038 -2.2891 -1.6043  0.0448
  275MOL0     H37123   7.677   5.376   3.252  0.9707  1.8493  1.0755
  275MOL0     H37124   7.068   5.104   2.692  0.8275 -1.6641 -3.6101
  275MOL0     H37125   7.135   5.228   2.487  0.9380 -0.6586 -0.5065
  276MOL0     O37126   8.684   8.856   2.108 -0.2213 -0.1659  0.5428
  276MOL0     C37127   8.685   8.956   2.179 -0.3199 -0.2756  0.2847
  276MOL0     O37128   8.582   9.007   2.241  0.4513  0.7278 -0.7214
  276MOL0     C37129   8.466   8.936   2.249 -0.3968  0.2355 -0.3934
  276MOL0     C37130   8.465   8.825   2.330  1.0733  0.0999 -0.2585
  276MOL0     C37131   8.353   8.741   2.320  0.9492  0.0135 -0.0886
  276MOL0     C37132   8.241   8.769   2.234  0.5009 -0.0747  0.0511
  276MOL0     O37133   8.124   8.695   2.234 -0.0222 -0.0887  0.1639
  276MOL0     C37134   8.085   8.630   2.348  0.0790  0.2060 -0.0130
  276MOL0     C37135   7.951   8.569   2.334 -0.4500  0.2267  0.1551
  276MOL0     C37136   7.953   8.454   2.228 -0.2063 -0.2328  0.0908
  276MOL0     C37137   7.825   8.364   2.258 -0.2188 -0.6145 -1.2172
  276MOL0     C37138   7.802   8.283   2.134  0.1548  0.4854 -0.2619
  276MOL0     C37139   7.677   8.195   2.139 -0.3101  0.1629  0.9976
  276MOL0     C37140   7.637   8.154   2.000  0.1418 -0.2760  0.4143
  276MOL0     C37141   7.537   8.036   1.996 -0.2927  0.2693  0.2695
  276MOL0     N37142   7.616   7.907   2.020 -0.2098 -0.0942  0.0162
  276MOL0     C37143   7.734   7.856   1.966  0.2303 -0.5927 -0.2106
  276MOL0     C37144   7.781   7.767   2.055  0.2264 -0.6849  0.1220
  276MOL0     C37145   7.922   7.706   2.032  0.6413 -0.7908  0.4363
  276MOL0     C37146   8.037   7.816   2.019  0.6844  0.6515  0.2184
  276MOL0     C37147   8.027   7.933   2.118  0.1253  0.5838  0.1817
  276MOL0     C37148   8.050   7.874   2.264  0.5985 -0.4186  0.4615
  276MOL0     O37149   8.123   7.951   2.348 -0.8026  0.4183 -0.1357
  276MOL0     C37150   8.082   8.049   2.441  0.0546 -0.1730  0.1119
  276MOL0     C37151   7.948   8.061   2.487  0.4617  0.9621 -0.9543
  276MOL0     C37152   7.918   8.167   2.573  0.1068  0.6539 -0.5875
  276MOL0     C37153   7.788   8.167   2.647  0.7877  0.4496  0.2573
  276MOL0     C37154   8.011   8.266   2.598  0.5771  0.5275  0.2351
  276MOL0     C37155   7.974   8.366   2.698 -0.0154 -0.6527 -0.0430
  276MOL0     O37156   7.967   8.499   2.666 -0.2243  0.4753 -0.7417
  276MOL0     C37157   7.874   8.563   2.739 -0.1759  0.0131 -0.3209
  276MOL0     C37158   7.739   8.548   2.710  0.1818  0.3898  0.3952
  276MOL0     C37159   7.640   8.605   2.804 -0.1365  0.4093  0.4096
  276MOL0     C37160   7.690   8.677   2.916  0.0805 -0.5958 -0.0060
  276MOL0     O37161   7.611   8.741   3.006  0.5138  0.6792  0.3629
  276MOL0     C37162   7.484   8.677   3.038 -0.1317  0.3437  1.0686
  276MOL0     C37163   7.369   8.732   2.967 -1.3104 -0.3092  0.6952
  276MOL0     C37164   7.241   8.664   3.009 -0.2992 -0.6426  0.6435
  276MOL0     C37165   7.124   8.696   2.913 -0.6149  0.2833  0.1834
  276MOL0     C37166   6.992   8.663   2.968  0.6876 -0.8697  0.1989
  276MOL0     C37167   6.957   8.511   2.941  0.0995  0.7200  0.0728
  276MOL0     C37168   6.865   8.445   3.049 -0.8039  0.0110 -0.3607
  276MOL0     C37169   6.861   8.295   3.026 -0.1491 -0.2524 -0.4073
  276MOL0    Cl37170   6.886   8.218   3.193 -0.3259 -0.4384 -0.2994
  276MOL0     C37171   7.826   8.689   2.939  1.4446  0.7386 -0.6613
  276MOL0     C37172   7.913   8.623   2.856  0.3541 -0.0227 -0.0292
  276MOL0     O37173   7.957   8.321   2.811 -0.2241 -0.0313  0.1200
  276MOL0     C37174   8.151   8.237   2.574 -0.3191 -0.2828 -0.0690
  276MOL0     C37175   8.177   8.131   2.492  0.1388 -0.6260  0.5002
  276MOL0     N37176   7.700   7.756   2.160 -0.1004  0.7131  0.5005
  276MOL0     N37177   7.597   7.831   2.131  0.2224 -0.5737 -0.3710
  276MOL0     C37178   8.239   8.894   2.171 -0.1823  0.2256 -1.4920
  276MOL0     C37179   8.357   8.971   2.174 -0.1579 -0.6263  0.1768
  276MOL0     C37180   8.816   9.034   2.182  0.9540 -0.1857 -0.5142
  276MOL0     C37181   8.929   8.992   2.124  0.1639  0.5457 -0.2980
  276MOL0     C37182   9.052   9.058   2.132  0.5143  0.1268  0.0574
  276MOL0     C37183   9.057   9.180   2.216 -0.9240  0.0110  0.5104
  276MOL0     O37184   9.165   9.267   2.242  0.2877  0.4867  0.7991
  276MOL0     C37185   9.290   9.235   2.170  0.1339  1.0408  0.4241
  276MOL0     C37186   9.393   9.342   2.207 -0.1622 -0.4375 -0.4695
  276MOL0     C37187   9.501   9.352   2.099 -0.8259  0.0411  0.3799
  276MOL0     C37188   9.581   9.483   2.114 -0.1292  0.9915 -0.5149
  276MOL0     C37189   9.663   9.500   2.230 -0.1262 -0.2633 -0.5312
  276MOL0     C37190   9.720   9.503   2.339  0.4146 -0.5486 -0.3026
  276MOL0     C37191   8.937   9.234   2.272 -0.3620  1.0237  0.1605
  276MOL0     C37192   8.823   9.160   2.253  0.0788  0.8831  0.2499
  276MOL0     H37193   8.555   8.808   2.389  1.5232 -0.7519 -1.1741
  276MOL0     H37194   8.342   8.652   2.380 -2.6648  1.4785  1.7656
  276MOL0     H37195   8.168   8.564   2.375  2.5022  2.2979 -1.7903
  276MOL0     H37196   8.068   8.699   2.431  1.2356 -0.0090  0.4185
  276MOL0     H37197   7.916   8.535   2.432  0.2032 -1.5522 -0.1820
  276MOL0     H37198   7.871   8.639   2.309  0.3472  1.1773  0.1830
  276MOL0     H37199   7.937   8.480   2.123  3.9715 -2.6324 -1.3837
  276MOL0     H37200   8.049   8.403   2.237  1.5404  2.9860  0.9227
  276MOL0     H37201   7.844   8.290   2.337 -1.6796 -0.7314 -0.9520
  276MOL0     H37202   7.742   8.427   2.290  2.1742  1.3651  1.7118
  276MOL0     H37203   7.801   8.348   2.046  0.2414  0.0511 -0.5873
  276MOL0     H37204   7.891   8.220   2.140  0.6252  1.1451 -0.1947
  276MOL0     H37205   7.682   8.098   2.190 -1.5979  0.1112  1.0690
  276MOL0     H37206   7.591   8.256   2.170 -0.9376 -1.7534  3.3980
  276MOL0     H37207   7.582   8.239   1.960 -0.5959 -0.0209  1.9080
  276MOL0     H37208   7.725   8.142   1.936  0.6277  2.3549  0.4769
  276MOL0     H37209   7.500   8.031   1.893  0.6075 -0.0591 -0.0509
  276MOL0     H37210   7.449   8.062   2.055 -0.2945 -2.3986  1.5712
  276MOL0     H37211   7.781   7.882   1.871 -2.9049 -0.8809 -1.9600
  276MOL0     H37212   7.930   7.645   2.123 -5.1952 -2.4214  0.2570
  276MOL0     H37213   7.924   7.636   1.948  1.4169 -0.4255  0.1412
  276MOL0     H37214   8.032   7.855   1.916  3.3115  1.7224  0.4061
  276MOL0     H37215   8.137   7.778   2.041 -0.4055 -1.2747  2.2285
  276MOL0     H37216   7.935   7.991   2.109  1.6527  3.7625  2.8359
  276MOL0     H37217   8.104   8.010   2.102 -1.1723  1.8272 -0.3286
  276MOL0     H37218   8.098   7.776   2.266 -2.4711 -2.1193  4.3573
  276MOL0     H37219   7.951   7.852   2.305  1.2844 -3.3101  0.7110
  276MOL0     H37220   7.873   7.989   2.456 -1.4211  1.7599  1.4815
  276MOL0     H37221   7.796   8.112   2.741  0.7386 -0.0882 -0.0493
  276MOL0     H37222   7.746   8.260   2.686  0.8888  1.0330 -1.0012
  276MOL0     H37223   7.710   8.124   2.584 -0.8339  4.0675 -0.4409
  276MOL0     H37224   7.708   8.490   2.623 -2.0476 -1.9217  2.5673
  276MOL0     H37225   7.535   8.623   2.782 -0.2484 -0.3254  0.3267
  276MOL0     H37226   7.490   8.572   3.007 -0.9659  0.2636  1.1638
  276MOL0     H37227   7.479   8.685   3.147 -0.0509  1.4499  1.0017
  276MOL0     H37228   7.359   8.840   2.980  2.8170  0.0819  2.2258
  276MOL0     H37229   7.374   8.710   2.860 -0.0801 -3.6531  1.3209
  276MOL0     H37230   7.212   8.694   3.111 -1.8479 -2.2468  0.7335
  276MOL0     H37231   7.256   8.556   3.017  3.1027 -0.6090 -2.7778
  276MOL0     H37232   7.130   8.803   2.892 -2.3560  0.4055  0.1526
  276MOL0     H37233   7.136   8.628   2.828 -1.1718 -2.4332  2.1580
  276MOL0     H37234   6.919   8.726   2.917  0.6266 -0.4578  0.7861
  276MOL0     H37235   6.987   8.688   3.074 -0.4922  0.1403 -0.0698
  276MOL0     H37236   6.899   8.509   2.849 -2.3695 -0.0225  1.5433
  276MOL0     H37237   7.052   8.459   2.927  0.7342  1.9330 -0.2580
  276MOL0     H37238   6.761   8.479   3.046 -0.9924 -0.3336  1.3503
  276MOL0     H37239   6.905   8.477   3.146  2.4461  3.5862 -2.5825
  276MOL0     H37240   6.937   8.255   2.958 -2.4660 -1.8817 -2.2190
  276MOL0     H37241   6.762   8.271   2.986  0.3095 -0.2345 -1.5795
  276MOL0     H37242   7.861   8.742   3.027 -0.1207  2.0503 -0.7784
  276MOL0     H37243   8.021   8.634   2.865  0.2343  0.9194  0.3861
  276MOL0     H37244   8.230   8.302   2.611 -0.5883 -0.5449  1.0125
  276MOL0     H37245   8.277   8.106   2.457  0.2613 -1.9038  1.6884
  276MOL0     H37246   8.157   8.927   2.107 -2.6729 -0.6730  1.0098
  276MOL0     H37247   8.362   9.066   2.122 -3.5091  1.5620  3.3478
  276MOL0     H37248   8.927   8.896   2.075 -0.7587 -0.5121  1.6690
  276MOL0     H37249   9.143   9.009   2.100  0.8414  0.8158 -0.0943
  276MOL0     H37250   9.323   9.136   2.204  2.8601  1.6432 -0.1687
  276MOL0     H37251   9.271   9.229   2.062  1.9512 -3.9165  0.0836
  276MOL0     H37252   9.440   9.318   2.303 -1.9226 -3.6332 -0.2655
  276MOL0     H37253   9.351   9.443   2.208  0.9269  0.1551 -3.7456
  276MOL0     H37254   9.456   9.355   2.000  1.4275  0.9492 -0.6980
  276MOL0     H37255   9.565   9.264   2.092 -0.2674  0.5973 -4.0228
  276MOL0     H37256   9.515   9.571   2.112 -0.3048  0.8664 -0.1570
  276MOL0     H37257   9.649   9.499   2.029  0.8833  2.4547  0.5239
  276MOL0     H37258   9.752   9.517   2.441 -0.5787  0.0921 -0.0641
  276MOL0     H37259   8.923   9.321   2.335 -4.3390 -0.9165  2.3639
  276MOL0     H37260   8.732   9.194   2.302 -1.9507 -2.0304 -1.2444
  277MOL0     O37261   8.946   7.015   0.080  0.0117 -0.2408 -0.1155
  277MOL0     C37262   8.959   6.892   0.065 -0.1397  0.2074 -0.2781
  277MOL0     O37263   8.860   6.799   0.074 -0.3915 -0.1118  0.5835
  277MOL0     C37264   8.730   6.833   0.091  0.3334 -0.1399 -0.6775
  277MOL0     C37265   8.651   6.840  -0.022 -0.0026 -0.6398  0.7089
  277MOL0     C37266   8.506   6.851  -0.008 -1.1252  0.4594  0.2044
  277MOL0     C37267   8.464   6.881   0.120  0.2712  0.7567  0.0332
  277MOL0     O37268   8.337   6.883   0.147 -0.0003  0.1629  0.3497
  277MOL0     C37269   8.269   7.006   0.104 -0.3595 -1.4134 -0.0642
  277MOL0     C37270   8.305   7.123   0.203 -0.0071  0.5674  0.3724
  277MOL0     C37271   8.424   7.213   0.162 -0.6167  0.3030 -0.3132
  277MOL0     C37272   8.510   7.271   0.284 -0.3971  0.3585  0.4516
  277MOL0     C37273   8.626   7.363   0.225 -0.3087  0.1590  0.3199
  277MOL0     C37274   8.725   7.417   0.329  0.1752 -0.1488 -0.6960
  277MOL0     C37275   8.798   7.302   0.407  0.3983 -0.3460  0.0603
  277MOL0     C37276   8.908   7.256   0.306 -0.5398 -0.3121 -0.1519
  277MOL0     N37277   9.001   7.182   0.396 -0.4157 -0.6137  0.2829
  277MOL0     C37278   9.118   7.222   0.446  0.5191  0.6917  0.2812
  277MOL0     C37279   9.175   7.110   0.494  0.2903 -0.5239 -0.2744
  277MOL0     C37280   9.311   7.117   0.556 -0.5084 -0.2801  0.4287
  277MOL0     C37281   9.431   7.081   0.473  0.5159 -0.5175  0.1401
  277MOL0     C37282   9.436   6.950   0.401 -0.2237  0.1710 -0.5082
  277MOL0     C37283   9.575   6.902   0.359  0.3131  0.2337  0.3805
  277MOL0     O37284   9.618   6.988   0.265  0.0300  0.9948 -0.8375
  277MOL0     C37285   9.739   6.965   0.202 -0.8875  0.2054 -0.4716
  277MOL0     C37286   9.798   7.083   0.148  0.5695 -0.3702 -0.4705
  277MOL0     C37287   9.912   7.086   0.076  0.5357 -0.7192  0.0268
  277MOL0     C37288   9.947   7.205  -0.010  0.7248 -1.5352 -1.0999
  277MOL0     C37289   9.987   6.971   0.073 -0.1960 -0.5106 -0.2797
  277MOL0     C37290  10.101   6.971  -0.012 -0.5735  0.0555  0.2371
  277MOL0     O37291  10.211   7.038   0.021 -0.8007 -0.2157 -0.5575
  277MOL0     C37292  10.307   7.056  -0.073 -0.6255  0.0751 -0.4732
  277MOL0     C37293  10.289   7.069  -0.212 -0.8071  0.1240 -0.4871
  277MOL0     C37294  10.400   7.073  -0.296  1.3916  0.0129  0.0823
  277MOL0     C37295  10.528   7.086  -0.247 -0.1869  1.0029  0.1747
  277MOL0     O37296  10.639   7.095  -0.334  0.1743  0.2562  0.9002
  277MOL0     C37297  10.636   7.065  -0.477 -0.2493 -0.4084 -1.1946
  277MOL0     C37298  10.786   7.049  -0.510 -0.2335  0.0830 -0.4245
  277MOL0     C37299  10.817   7.014  -0.658 -0.2704 -0.7767  0.1471
  277MOL0     C37300  10.975   6.983  -0.671  0.6484 -1.2280  0.0759
  277MOL0     C37301  11.003   6.943  -0.811  1.1218  0.3349 -0.4148
  277MOL0     C37302  10.997   7.076  -0.896  0.0537 -0.9909  0.5178
  277MOL0     C37303  11.028   7.037  -1.039  0.5661  0.4013  0.6941
  277MOL0     C37304  10.937   6.936  -1.107 -0.6584  1.0815 -0.9307
  277MOL0    Cl37305  10.771   6.987  -1.084  0.3140  0.5058 -0.1758
  277MOL0     C37306  10.543   7.078  -0.111 -0.2754 -0.3557  0.7118
  277MOL0     C37307  10.434   7.076  -0.024  0.0989  0.4102 -0.3869
  277MOL0     O37308  10.095   6.906  -0.114  0.0718  0.4195  0.1739
  277MOL0     C37309   9.938   6.846   0.132 -0.4030 -0.0669 -0.3650
  277MOL0     C37310   9.816   6.845   0.196 -0.1793  0.0981  0.4911
  277MOL0     N37311   9.102   6.999   0.477  0.4244  0.0011 -0.4658
  277MOL0     N37312   8.998   7.048   0.416  0.5061 -0.3628 -0.6320
  277MOL0     C37313   8.551   6.893   0.226  0.3761 -0.0084 -0.3023
  277MOL0     C37314   8.685   6.869   0.215 -0.2236 -0.6342 -0.6376
  277MOL0     C37315   9.098   6.855   0.026 -0.5451  0.4750  0.4480
  277MOL0     C37316   9.122   6.735  -0.035 -0.9574  1.6565  0.8912
  277MOL0     C37317   9.247   6.685  -0.070  0.7273 -1.1443 -0.2685
  277MOL0     C37318   9.358   6.759  -0.030 -1.0915 -0.0304 -0.0459
  277MOL0     O37319   9.473   6.690  -0.068 -0.2172  0.0173 -0.3647
  277MOL0     C37320   9.605   6.723  -0.027  1.0427  0.5966 -0.8581
  277MOL0     C37321   9.711   6.654  -0.105 -0.7998  0.4707  0.9501
  277MOL0     C37322   9.697   6.700  -0.248 -0.6451  0.1069  0.1847
  277MOL0     C37323   9.772   6.625  -0.353  0.0533 -0.5931 -0.1650
  277MOL0     C37324   9.746   6.486  -0.364  0.2619  0.4875 -0.6172
  277MOL0     C37325   9.732   6.366  -0.362 -0.0719  0.0183 -0.8382
  277MOL0     C37326   9.344   6.877   0.044 -0.0878  0.3673  1.1311
  277MOL0     C37327   9.217   6.929   0.064  0.3240  0.4135  0.4490
  277MOL0     H37328   8.698   6.821  -0.118 -1.5972  2.3390 -0.8027
  277MOL0     H37329   8.439   6.836  -0.093 -0.4723  0.0092 -0.2412
  277MOL0     H37330   8.312   7.034   0.007 -0.2605 -0.5695  0.2198
  277MOL0     H37331   8.161   6.994   0.110 -0.6173  1.2431  3.8971
  277MOL0     H37332   8.221   7.194   0.206 -0.5111  0.0037 -0.0507
  277MOL0     H37333   8.304   7.088   0.306 -1.5331 -1.0292 -0.1151
  277MOL0     H37334   8.498   7.154   0.107  2.1929  1.5642  1.8657
  277MOL0     H37335   8.397   7.295   0.094  0.2056  0.5246 -0.3833
  277MOL0     H37336   8.436   7.332   0.336 -0.5966 -0.8802  1.6905
  277MOL0     H37337   8.548   7.188   0.344 -0.1493 -1.0824 -1.6018
  277MOL0     H37338   8.671   7.308   0.143  0.2886 -1.2712  1.5548
  277MOL0     H37339   8.569   7.451   0.193  1.8449  2.5214  2.4949
  277MOL0     H37340   8.787   7.487   0.272 -1.4742  3.4686  1.5757
  277MOL0     H37341   8.680   7.482   0.405  1.3710 -2.3388  2.0966
  277MOL0     H37342   8.839   7.351   0.496  1.0987 -1.8714  0.6020
  277MOL0     H37343   8.727   7.223   0.432 -0.8733  0.1477 -1.7728
  277MOL0     H37344   8.958   7.343   0.264 -0.4659  0.4898  1.5072
  277MOL0     H37345   8.885   7.180   0.231 -1.0966  0.0113 -0.3179
  277MOL0     H37346   9.163   7.320   0.452  3.4870 -0.4500 -1.2585
  277MOL0     H37347   9.326   7.218   0.596 -1.3197 -0.2627  0.7019
  277MOL0     H37348   9.303   7.057   0.647  0.3034  0.5728  1.0819
  277MOL0     H37349   9.519   7.106   0.532  0.1795  1.3403 -0.0737
  277MOL0     H37350   9.417   7.156   0.394 -0.9158 -1.5922 -0.6894
  277MOL0     H37351   9.391   6.964   0.302  3.1305 -1.2126 -2.3723
  277MOL0     H37352   9.387   6.872   0.460 -2.7601  0.2537 -2.3306
  277MOL0     H37353   9.580   6.802   0.316  0.7988  0.7217 -0.7455
  277MOL0     H37354   9.635   6.905   0.450  0.5120 -1.6965  0.3581
  277MOL0     H37355   9.737   7.173   0.153 -3.5015 -2.9043  2.8877
  277MOL0     H37356  10.056   7.219  -0.007  0.4465  0.8249  1.6748
  277MOL0     H37357   9.915   7.187  -0.113 -0.8272  1.4655 -1.2656
  277MOL0     H37358   9.897   7.291   0.036 -2.3296 -3.3404 -0.8514
  277MOL0     H37359  10.196   7.082  -0.267  0.5540 -1.4327 -3.3637
  277MOL0     H37360  10.369   7.070  -0.400  0.2952 -2.1114  0.4134
  277MOL0     H37361  10.575   6.977  -0.502 -1.1713  0.1225 -0.8647
  277MOL0     H37362  10.595   7.153  -0.527  3.6261  1.1271 -1.9678
  277MOL0     H37363  10.838   7.141  -0.479 -1.3412  0.9445 -1.0457
  277MOL0     H37364  10.818   6.972  -0.439  1.6229  0.4593 -0.8164
  277MOL0     H37365  10.781   7.091  -0.726  2.0229 -2.8594 -3.7640
  277MOL0     H37366  10.766   6.921  -0.681 -0.2830 -1.0623  1.2377
  277MOL0     H37367  11.037   7.068  -0.640 -0.3261 -0.7630  0.7983
  277MOL0     H37368  11.004   6.907  -0.597 -0.9187 -0.5599  1.4421
  277MOL0     H37369  10.932   6.867  -0.844 -1.6345  1.5426  2.2401
  277MOL0     H37370  11.097   6.887  -0.816  0.5961 -0.5118 -1.2518
  277MOL0     H37371  10.896   7.118  -0.890  0.7339  1.1307 -1.3437
  277MOL0     H37372  11.066   7.154  -0.863  0.6320 -0.9586 -0.7239
  277MOL0     H37373  11.131   7.002  -1.052  0.1081 -0.5173 -0.7710
  277MOL0     H37374  11.021   7.136  -1.085  0.3341  1.2197  2.4248
  277MOL0     H37375  10.944   6.834  -1.067 -2.0215  2.0243  2.0300
  277MOL0     H37376  10.965   6.925  -1.212  4.3567 -3.8433  0.4067
  277MOL0     H37377  10.643   7.069  -0.069 -1.4248 -2.9672  3.3008
  277MOL0     H37378  10.453   7.071   0.083 -1.8828 -0.5075 -0.0430
  277MOL0     H37379  10.000   6.760   0.109  1.1988  1.3138 -1.4748
  277MOL0     H37380   9.781   6.751   0.237  0.1896 -0.6897 -0.9350
  277MOL0     H37381   8.515   6.902   0.328 -1.9659  0.3879 -1.1027
  277MOL0     H37382   8.749   6.852   0.301 -1.0912  1.2144  0.4272
  277MOL0     H37383   9.040   6.672  -0.068  0.7652  0.0566 -0.5430
  277MOL0     H37384   9.255   6.595  -0.130 -2.0895 -1.3367 -0.4821
  277MOL0     H37385   9.622   6.830  -0.042  1.6512  0.6784  0.2795
  277MOL0     H37386   9.615   6.700   0.080  3.5545 -1.9471 -1.5339
  277MOL0     H37387   9.718   6.545  -0.110 -1.9727  0.4209 -0.0611
  277MOL0     H37388   9.813   6.673  -0.070 -0.7326 -1.8822  2.2375
  277MOL0     H37389   9.742   6.800  -0.251  0.5435 -0.1459 -6.4608
  277MOL0     H37390   9.592   6.689  -0.275 -0.4242  3.0147 -2.4590
  277MOL0     H37391   9.878   6.638  -0.329 -0.2322  2.2317 -0.1109
  277MOL0     H37392   9.765   6.675  -0.450 -0.2334  0.0753  0.1978
  277MOL0     H37393   9.743   6.260  -0.366  0.1656  0.0510 -1.1154
  277MOL0     H37394   9.439   6.925   0.064  0.6678 -1.5334  2.4190
  277MOL0     H37395   9.200   7.019   0.123  1.0787  0.6367  0.3411
  278MOL0     O37396   2.522   5.126   4.436  0.2317 -0.0867 -0.0080
  278MOL0     C37397   2.468   5.108   4.544  0.2923  1.4745  0.1071
  278MOL0     O37398   2.497   5.167   4.660 -0.4707  0.4995 -0.0537
  278MOL0     C37399   2.592   5.268   4.675  0.2591 -0.5610  0.6620
  278MOL0     C37400   2.600   5.312   4.809 -0.4309 -0.3241  0.2016
  278MOL0     C37401   2.701   5.399   4.845  0.6732 -0.2471 -0.2118
  278MOL0     C37402   2.791   5.442   4.756  0.7947 -0.3411 -0.8644
  278MOL0     O37403   2.888   5.522   4.815 -0.0120 -0.3100 -0.1469
  278MOL0     C37404   3.019   5.509   4.758 -0.8797 -0.6092 -0.2197
  278MOL0     C37405   3.127   5.519   4.860 -0.0458  0.3669  0.0268
  278MOL0     C37406   3.264   5.510   4.792  0.3202 -0.2202 -0.5784
  278MOL0     C37407   3.374   5.517   4.892  0.4745 -0.7433 -0.3740
  278MOL0     C37408   3.512   5.549   4.819  1.1067 -1.0421 -0.3869
  278MOL0     C37409   3.639   5.575   4.898 -0.5719 -0.4681  1.3961
  278MOL0     C37410   3.687   5.473   4.998 -0.4947 -0.2554  0.5927
  278MOL0     C37411   3.692   5.328   4.946 -0.0202 -0.1169 -0.0316
  278MOL0     N37412   3.796   5.323   4.836 -0.2605 -0.5198  0.3994
  278MOL0     C37413   3.923   5.374   4.868 -0.1449  1.0272 -0.1210
  278MOL0     C37414   3.979   5.381   4.747 -0.5659 -0.3805  0.2842
  278MOL0     C37415   4.106   5.432   4.699  0.5811  0.2854  0.1843
  278MOL0     C37416   4.136   5.574   4.762 -0.3344  0.0132  0.4277
  278MOL0     C37417   4.277   5.621   4.713  1.0768 -0.6685  0.3939
  278MOL0     C37418   4.381   5.621   4.828 -0.9240 -0.1269  0.7040
  278MOL0     O37419   4.341   5.698   4.945 -0.0023 -0.9107 -0.2672
  278MOL0     C37420   4.348   5.837   4.930 -0.3336 -0.9358  0.5967
  278MOL0     C37421   4.294   5.908   5.040  0.2359 -0.4607  0.4387
  278MOL0     C37422   4.289   6.048   5.031  0.5909  0.4056 -0.2028
  278MOL0     C37423   4.218   6.107   5.153 -0.5814 -0.3530 -1.4370
  278MOL0     C37424   4.344   6.113   4.919  0.2222 -0.9346  0.7045
  278MOL0     C37425   4.337   6.263   4.910  0.1994  0.6284  0.3232
  278MOL0     O37426   4.327   6.312   4.792  0.3576 -0.5550 -0.4007
  278MOL0     C37427   4.300   6.446   4.785  0.2034  0.5506 -0.0291
  278MOL0     C37428   4.168   6.499   4.808  0.4225  0.2005 -1.0002
  278MOL0     C37429   4.157   6.639   4.810  0.2951  1.1456  0.0673
  278MOL0     C37430   4.260   6.726   4.775  0.4391 -0.7193  0.3978
  278MOL0     O37431   4.216   6.849   4.754 -0.2680  0.7930  0.2152
  278MOL0     C37432   4.317   6.949   4.751  0.4902  0.1466  0.2093
  278MOL0     C37433   4.268   7.091   4.785 -0.1884 -0.0872  0.4301
  278MOL0     C37434   4.139   7.134   4.702  0.5402  0.3116 -0.0109
  278MOL0     C37435   4.151   7.142   4.549 -0.6077  0.9617 -0.4037
  278MOL0     C37436   4.015   7.200   4.489  0.2065 -0.4957 -0.1360
  278MOL0     C37437   3.892   7.112   4.515 -0.2914 -0.3817 -0.2699
  278MOL0     C37438   3.882   6.991   4.426 -0.1816  0.6752 -0.2513
  278MOL0     C37439   3.746   6.916   4.449 -1.1732 -0.3135  1.1181
  278MOL0    Cl37440   3.732   6.825   4.285  0.5146 -0.1867 -0.2600
  278MOL0     C37441   4.385   6.675   4.752 -0.2401 -0.2030  0.1846
  278MOL0     C37442   4.409   6.530   4.752 -0.3312 -0.2433  0.5519
  278MOL0     O37443   4.350   6.326   5.010  0.5992  0.1491 -0.6454
  278MOL0     C37444   4.398   6.035   4.809  0.6295  0.1784  0.2048
  278MOL0     C37445   4.408   5.898   4.813  0.7856  0.8518 -0.1064
  278MOL0     N37446   3.889   5.342   4.647 -0.3533 -0.7539 -0.2546
  278MOL0     N37447   3.781   5.318   4.702 -0.0910  0.1895  0.4859
  278MOL0     C37448   2.783   5.407   4.619  0.2651 -0.1305 -0.0489
  278MOL0     C37449   2.679   5.320   4.577  0.5554 -0.1815 -0.1201
  278MOL0     C37450   2.351   5.012   4.539 -0.7319 -0.4053 -0.2360
  278MOL0     C37451   2.237   5.034   4.617  0.3822  0.2081 -0.0017
  278MOL0     C37452   2.127   4.945   4.616 -0.1079 -0.1018  0.8092
  278MOL0     C37453   2.125   4.836   4.527 -0.0144 -0.1773 -0.6269
  278MOL0     O37454   2.036   4.740   4.505  0.6310 -0.4222  0.6842
  278MOL0     C37455   1.908   4.744   4.568 -0.0372  0.0628 -0.3610
  278MOL0     C37456   1.905   4.657   4.691 -0.4237 -0.6689 -0.2376
  278MOL0     C37457   1.938   4.511   4.665 -0.1672  0.6485 -0.1837
  278MOL0     C37458   1.833   4.426   4.598 -0.7996 -0.4236  0.1469
  278MOL0     C37459   1.713   4.420   4.676  0.1913 -0.0256  0.3423
  278MOL0     C37460   1.610   4.404   4.737 -0.5060  0.9021  0.3948
  278MOL0     C37461   2.243   4.808   4.460 -0.0859  0.4695  0.0634
  278MOL0     C37462   2.356   4.899   4.457 -0.0679  0.2529  0.1565
  278MOL0     H37463   2.522   5.268   4.870  1.2075 -2.6677  0.7643
  278MOL0     H37464   2.736   5.418   4.946 -3.6651 -4.4402  2.5247
  278MOL0     H37465   3.035   5.409   4.718 -0.3633 -1.3116  1.6548
  278MOL0     H37466   3.048   5.578   4.678  0.9325 -3.3738 -2.1290
  278MOL0     H37467   3.119   5.614   4.913  1.4378 -0.9998  2.9154
  278MOL0     H37468   3.114   5.433   4.926  1.9648 -0.0859 -0.1074
  278MOL0     H37469   3.280   5.423   4.727  0.8555  1.1324 -2.3530
  278MOL0     H37470   3.272   5.602   4.733  0.4522 -0.0086 -0.2299
  278MOL0     H37471   3.358   5.612   4.944  2.9046 -0.3402 -0.2062
  278MOL0     H37472   3.381   5.438   4.968  1.7430  1.1097  1.5642
  278MOL0     H37473   3.534   5.470   4.748  0.4475 -0.8746 -0.7856
  278MOL0     H37474   3.495   5.649   4.777 -1.2415 -0.8277  0.8605
  278MOL0     H37475   3.721   5.594   4.828  0.4979 -2.6854  1.9600
  278MOL0     H37476   3.625   5.671   4.950  1.1311  0.5218  0.1222
  278MOL0     H37477   3.785   5.502   5.038 -0.3868  4.3339 -2.2828
  278MOL0     H37478   3.621   5.464   5.084 -0.4618 -0.1766  0.6262
  278MOL0     H37479   3.594   5.314   4.900 -0.1811  2.0614 -0.4821
  278MOL0     H37480   3.721   5.261   5.028  2.9113  1.0253 -0.0111
  278MOL0     H37481   3.966   5.386   4.967 -0.6708 -0.7578  0.3634
  278MOL0     H37482   4.193   5.367   4.716 -0.2115 -0.0850  3.5795
  278MOL0     H37483   4.105   5.437   4.590  0.6807 -0.5322  0.1374
  278MOL0     H37484   4.134   5.549   4.869  0.2985 -0.4161  0.3445
  278MOL0     H37485   4.060   5.649   4.738  0.3981  0.6737  0.1599
  278MOL0     H37486   4.256   5.716   4.663  2.5483 -0.0448  0.9136
  278MOL0     H37487   4.322   5.553   4.639  2.9550  2.0556 -1.1360
  278MOL0     H37488   4.474   5.649   4.778 -1.0815 -0.2929  0.3168
  278MOL0     H37489   4.404   5.518   4.857  0.1063 -0.0656  0.1379
  278MOL0     H37490   4.258   5.860   5.130 -0.8663  1.3201  0.9905
  278MOL0     H37491   4.295   6.114   5.230 -0.5681 -1.0655 -1.3755
  278MOL0     H37492   4.171   6.201   5.122  1.3324  0.9751 -0.5154
  278MOL0     H37493   4.139   6.043   5.192 -2.6497  1.4061 -2.5282
  278MOL0     H37494   4.095   6.426   4.841  0.2904  1.1137  0.8522
  278MOL0     H37495   4.064   6.675   4.853 -0.4337 -0.6244  0.0361
  278MOL0     H37496   4.392   6.930   4.828  3.4154  2.7676 -1.7609
  278MOL0     H37497   4.357   6.940   4.649  4.0130  1.7630  1.3048
  278MOL0     H37498   4.241   7.085   4.891 -2.3937 -2.4489 -0.1620
  278MOL0     H37499   4.336   7.176   4.781 -0.8832  0.4933 -3.6260
  278MOL0     H37500   4.121   7.239   4.729  0.4007 -0.5243  3.7355
  278MOL0     H37501   4.057   7.069   4.733  0.9783  0.9198  2.7818
  278MOL0     H37502   4.242   7.193   4.515  0.0293 -0.0922 -0.3118
  278MOL0     H37503   4.163   7.045   4.501 -0.6771  2.0411 -2.7756
  278MOL0     H37504   4.028   7.206   4.380  3.5511 -2.4666  0.0178
  278MOL0     H37505   3.992   7.302   4.524  0.7475  0.9653 -3.6136
  278MOL0     H37506   3.887   7.093   4.622  0.2191 -0.9223 -0.3373
  278MOL0     H37507   3.796   7.159   4.493 -1.5268 -3.1653 -1.2574
  278MOL0     H37508   3.970   6.926   4.436 -0.5593  0.3621  1.3000
  278MOL0     H37509   3.880   7.018   4.320 -1.2977 -1.5833 -0.8534
  278MOL0     H37510   3.661   6.984   4.463 -1.9767 -0.7274 -1.1928
  278MOL0     H37511   3.754   6.847   4.533 -0.4994 -1.4087  0.1883
  278MOL0     H37512   4.468   6.733   4.714 -1.2448 -0.0659 -1.9950
  278MOL0     H37513   4.509   6.496   4.728 -0.3998  0.3561 -0.6945
  278MOL0     H37514   4.434   6.098   4.729 -2.1336  1.2760 -0.3100
  278MOL0     H37515   4.427   5.842   4.722  1.0651  1.7452 -0.6102
  278MOL0     H37516   2.853   5.449   4.547  2.8316 -0.7584  1.9430
  278MOL0     H37517   2.678   5.296   4.471  3.2032 -0.2254 -0.1901
  278MOL0     H37518   2.236   5.127   4.672 -3.1374  1.0469 -1.2094
  278MOL0     H37519   2.042   4.964   4.682  1.3578  4.0187  1.8309
  278MOL0     H37520   1.867   4.843   4.590 -3.0507 -0.0889 -4.2489
  278MOL0     H37521   1.844   4.696   4.494  1.9578 -1.4330 -1.2307
  278MOL0     H37522   1.804   4.664   4.731 -0.4982  0.1789 -0.5527
  278MOL0     H37523   1.968   4.695   4.773  1.5939 -5.6696  0.9018
  278MOL0     H37524   1.963   4.457   4.757  3.6162  0.8688 -0.8916
  278MOL0     H37525   2.028   4.498   4.604  0.6666  1.1383  0.9077
  278MOL0     H37526   1.875   4.326   4.582  2.2835  0.3257  2.7351
  278MOL0     H37527   1.802   4.477   4.506 -0.5593  1.4334  1.0520
  278MOL0     H37528   1.510   4.391   4.773 -1.9844 -1.0753 -3.8069
  278MOL0     H37529   2.258   4.723   4.395 -3.8290 -1.0265  0.9103
  278MOL0     H37530   2.432   4.868   4.386 -2.2627 -3.3724 -0.9070
  279MOL0     O37531   8.030   4.938   7.204 -0.8024  0.1780  0.1764
  279MOL0     C37532   8.086   4.845   7.266  0.2085 -0.9384  0.0387
  279MOL0     O37533   8.211   4.851   7.318  0.2929  0.7624  0.0274
  279MOL0     C37534   8.296   4.965   7.326  0.0216 -0.1064  0.1191
  279MOL0     C37535   8.374   4.984   7.439  1.2091  0.5865  0.6292
  279MOL0     C37536   8.441   5.109   7.447 -0.0652  0.4265 -0.4895
  279MOL0     C37537   8.433   5.220   7.366 -0.1129  0.8365  0.3097
  279MOL0     O37538   8.510   5.333   7.383 -0.0112 -0.0705 -0.2237
  279MOL0     C37539   8.485   5.418   7.493  1.5960 -0.5104  0.6229
  279MOL0     C37540   8.568   5.538   7.466 -0.6813  1.1624  0.4327
  279MOL0     C37541   8.548   5.650   7.560 -0.1075 -0.1610 -0.2661
  279MOL0     C37542   8.622   5.633   7.688 -0.1245  0.2329  0.4623
  279MOL0     C37543   8.596   5.751   7.779 -0.5081 -0.4940  0.1588
  279MOL0     C37544   8.653   5.744   7.912  0.2797 -0.6978  0.0735
  279MOL0     C37545   8.653   5.878   7.996  0.8614 -0.1694  0.2414
  279MOL0     C37546   8.683   5.841   8.144 -0.3166 -0.2476  1.3605
  279MOL0     N37547   8.725   5.957   8.220  0.3288 -0.2324  0.5675
  279MOL0     C37548   8.852   6.004   8.239  1.1446 -0.1039  0.9279
  279MOL0     C37549   8.835   6.117   8.309  0.3840 -0.3518 -0.0962
  279MOL0     C37550   8.950   6.201   8.365  0.3469  0.6204 -0.1124
  279MOL0     C37551   8.999   6.293   8.257  0.5023  0.2705 -0.1146
  279MOL0     C37552   8.882   6.386   8.212 -0.5919  0.4044 -0.2805
  279MOL0     C37553   8.956   6.510   8.144 -0.7019  0.4452  0.0475
  279MOL0     O37554   8.858   6.591   8.094  0.0730 -0.3238 -0.1800
  279MOL0     C37555   8.883   6.655   7.975  0.5461 -0.2474  0.3111
  279MOL0     C37556   9.008   6.716   7.957  0.3151 -0.4423  0.2989
  279MOL0     C37557   9.031   6.796   7.842  0.1818 -0.5861 -0.4059
  279MOL0     C37558   9.174   6.844   7.822 -0.6665  0.3019  0.4111
  279MOL0     C37559   8.932   6.809   7.742  0.1611 -0.0536 -0.7605
  279MOL0     C37560   8.943   6.882   7.605 -0.6909 -0.2314  0.7215
  279MOL0     O37561   9.065   6.949   7.567  0.7235  0.1787 -0.3777
  279MOL0     C37562   9.118   6.957   7.442  0.4840 -0.6026 -0.2667
  279MOL0     C37563   9.252   6.968   7.441  0.1914 -0.9693 -0.3084
  279MOL0     C37564   9.323   6.990   7.327 -0.1821 -0.6448  0.0422
  279MOL0     C37565   9.260   6.976   7.196 -1.0940 -0.7766 -0.2016
  279MOL0     O37566   9.331   7.007   7.081  0.3675 -0.4428  0.5174
  279MOL0     C37567   9.251   7.057   6.967 -0.7875  0.0145 -0.3897
  279MOL0     C37568   9.322   7.163   6.884 -0.7652  0.1776  0.8618
  279MOL0     C37569   9.281   7.163   6.730  0.1461 -1.0907 -1.2150
  279MOL0     C37570   9.229   7.298   6.685  0.6452  1.1410  0.4602
  279MOL0     C37571   9.169   7.292   6.548 -0.1610  0.1750  0.0849
  279MOL0     C37572   9.113   7.427   6.496  1.2807  0.4526  0.0747
  279MOL0     C37573   9.134   7.453   6.341 -0.7686  0.3795 -0.2756
  279MOL0     C37574   9.285   7.473   6.316 -0.5727 -0.6118  0.7854
  279MOL0    Cl37575   9.316   7.474   6.126 -0.0379 -0.6236 -0.0354
  279MOL0     C37576   9.126   6.931   7.195 -0.8776 -0.5997  0.7341
  279MOL0     C37577   9.057   6.941   7.316  0.0942  0.4839  0.3645
  279MOL0     O37578   8.847   6.884   7.533 -0.6313  1.4884  0.3347
  279MOL0     C37579   8.805   6.746   7.768  0.2146  0.3476  0.2317
  279MOL0     C37580   8.773   6.678   7.885 -0.0034  0.8996  0.1594
  279MOL0     N37581   8.704   6.144   8.331  0.5940 -0.5093 -0.4825
  279MOL0     N37582   8.635   6.045   8.280  0.7388 -0.2072  0.1229
  279MOL0     C37583   8.359   5.193   7.250 -0.1323 -0.3669 -0.1069
  279MOL0     C37584   8.288   5.068   7.230 -0.7213  0.6815  0.0362
  279MOL0     C37585   8.006   4.720   7.274  0.5756 -0.0194 -0.1552
  279MOL0     C37586   7.875   4.721   7.210  0.1532  0.4080 -0.6301
  279MOL0     C37587   7.812   4.600   7.204 -0.1149  0.7634  0.2224
  279MOL0     C37588   7.867   4.478   7.250 -0.5883  0.0300 -0.3325
  279MOL0     O37589   7.801   4.362   7.239  0.2861  0.4406  0.1419
  279MOL0     C37590   7.860   4.234   7.246  0.0845  0.4687  0.5049
  279MOL0     C37591   7.759   4.149   7.159 -0.6964  0.4230 -0.1307
  279MOL0     C37592   7.634   4.105   7.250 -0.0037 -0.5796  0.4159
  279MOL0     C37593   7.534   4.007   7.182  0.3531  0.6609  0.0407
  279MOL0     C37594   7.587   3.878   7.154  0.8264 -0.2249  0.1891
  279MOL0     C37595   7.632   3.767   7.154 -0.4040  0.4298  1.6845
  279MOL0     C37596   7.992   4.484   7.311 -0.1396  0.3160  0.4445
  279MOL0     C37597   8.065   4.607   7.319 -0.4261  0.8013  0.2226
  279MOL0     H37598   8.394   4.904   7.510 -0.0763 -0.3187 -0.0057
  279MOL0     H37599   8.500   5.127   7.537 -0.0291 -0.3867 -0.3395
  279MOL0     H37600   8.380   5.445   7.489  0.8058 -3.3734 -0.7377
  279MOL0     H37601   8.511   5.370   7.588  1.2159  1.0799  1.5562
  279MOL0     H37602   8.673   5.511   7.455 -0.9520  1.2376 -4.0350
  279MOL0     H37603   8.541   5.577   7.367  0.6056 -1.1427 -0.9044
  279MOL0     H37604   8.579   5.747   7.522  1.4890 -0.6238 -0.1928
  279MOL0     H37605   8.443   5.664   7.589  1.1486  4.7909  3.1267
  279MOL0     H37606   8.587   5.537   7.728 -2.7375  2.3900  3.9271
  279MOL0     H37607   8.730   5.636   7.668 -0.6390  2.7195 -2.5247
  279MOL0     H37608   8.634   5.848   7.745 -2.8726  0.4499  0.0672
  279MOL0     H37609   8.487   5.760   7.780 -0.5788 -1.3185  0.7709
  279MOL0     H37610   8.595   5.675   7.973  0.7279 -2.7586 -1.7101
  279MOL0     H37611   8.752   5.697   7.916  0.6073  0.0352  3.8079
  279MOL0     H37612   8.743   5.927   7.958  0.8624  0.2932  0.8389
  279MOL0     H37613   8.573   5.952   7.991  0.3354 -0.3848  3.5412
  279MOL0     H37614   8.760   5.764   8.157 -0.0798 -0.4998 -1.0485
  279MOL0     H37615   8.586   5.801   8.175 -0.0778 -4.3454 -2.1766
  279MOL0     H37616   8.952   5.965   8.219  1.5359  1.1417  0.3719
  279MOL0     H37617   8.923   6.256   8.456  1.3639  0.1891  0.4713
  279MOL0     H37618   9.025   6.128   8.397 -0.0379 -1.3224 -3.2679
  279MOL0     H37619   9.039   6.238   8.171  0.6754  0.5494 -0.2100
  279MOL0     H37620   9.080   6.347   8.305  1.8086  0.0299 -1.9496
  279MOL0     H37621   8.833   6.431   8.299 -0.2520  3.2870 -1.4726
  279MOL0     H37622   8.815   6.356   8.131 -0.3890  0.8294 -0.6085
  279MOL0     H37623   9.018   6.475   8.061 -0.2778  0.2618  0.4379
  279MOL0     H37624   9.014   6.559   8.224  1.2050  4.0551 -3.1849
  279MOL0     H37625   9.093   6.709   8.025  0.6570  2.5221  0.3373
  279MOL0     H37626   9.180   6.952   7.811  0.1596  0.3763  1.4241
  279MOL0     H37627   9.241   6.825   7.906 -0.1006 -0.9252 -0.2842
  279MOL0     H37628   9.225   6.792   7.740 -1.8045 -0.1541 -0.0283
  279MOL0     H37629   9.305   6.974   7.536 -4.1917  1.0602  2.3046
  279MOL0     H37630   9.430   7.008   7.334  0.0656 -2.2350  0.7366
  279MOL0     H37631   9.250   6.965   6.908  3.7326  0.5868 -1.6962
  279MOL0     H37632   9.149   7.084   6.997  0.1431 -0.2280  3.5935
  279MOL0     H37633   9.321   7.260   6.934 -1.9505 -1.3991  4.1851
  279MOL0     H37634   9.425   7.126   6.883 -1.7228 -3.5754 -4.4337
  279MOL0     H37635   9.213   7.079   6.713  0.0506 -1.1043 -0.7654
  279MOL0     H37636   9.359   7.154   6.654  0.8669  0.2549 -0.6710
  279MOL0     H37637   9.154   7.334   6.757 -2.3838 -1.1714 -1.3044
  279MOL0     H37638   9.312   7.369   6.678  0.6037  1.0767 -0.9532
  279MOL0     H37639   9.087   7.219   6.537 -0.4595  0.5021  0.1163
  279MOL0     H37640   9.247   7.254   6.481  1.5368  2.9152  0.3716
  279MOL0     H37641   9.005   7.441   6.508  0.9720  1.3828 -2.9908
  279MOL0     H37642   9.161   7.507   6.553  1.1403  0.7952 -0.2784
  279MOL0     H37643   9.080   7.543   6.312  0.2449  1.2095  0.3295
  279MOL0     H37644   9.092   7.367   6.287  0.8684 -1.4015  1.1386
  279MOL0     H37645   9.353   7.405   6.366 -0.5083 -1.0573  0.1120
  279MOL0     H37646   9.307   7.574   6.353 -2.3774 -0.6549  2.1320
  279MOL0     H37647   9.076   6.913   7.100 -2.5014 -1.5748  1.7363
  279MOL0     H37648   8.950   6.922   7.311  0.0320 -0.4398  3.5362
  279MOL0     H37649   8.725   6.770   7.699 -1.1201 -0.2845  1.5037
  279MOL0     H37650   8.671   6.643   7.896 -0.2293  1.4800 -0.0592
  279MOL0     H37651   8.347   5.260   7.166 -2.2869 -1.3889 -0.6919
  279MOL0     H37652   8.241   5.057   7.133 -1.9057  2.6486  0.3280
  279MOL0     H37653   7.815   4.800   7.165 -2.8776 -0.8787  0.8541
  279MOL0     H37654   7.724   4.599   7.142 -0.1468 -3.2820  0.0768
  279MOL0     H37655   7.960   4.234   7.202 -1.9238 -0.6318 -4.7274
  279MOL0     H37656   7.880   4.200   7.348  1.3611 -4.5642 -1.1507
  279MOL0     H37657   7.809   4.060   7.120 -1.1501 -0.5629  1.4386
  279MOL0     H37658   7.723   4.192   7.065 -1.6856  1.3575  0.6585
  279MOL0     H37659   7.582   4.193   7.291  1.0179 -0.9231  2.5730
  279MOL0     H37660   7.664   4.057   7.343 -4.6069 -1.3302  1.7988
  279MOL0     H37661   7.503   4.055   7.089 -0.1975 -3.8694 -2.3424
  279MOL0     H37662   7.453   3.984   7.252  2.3466  0.9849  2.6119
  279MOL0     H37663   7.668   3.666   7.156 -0.1034  0.2288 -2.9339
  279MOL0     H37664   8.039   4.393   7.345 -0.0508 -1.3061 -3.5257
  279MOL0     H37665   8.169   4.603   7.350 -1.0057 -2.4300  2.2073
  280MOL0     O37666   7.462   0.560   6.791  0.3500 -0.3044 -0.7242
  280MOL0     C37667   7.466   0.527   6.671  0.3903  0.1567  0.4768
  280MOL0     O37668   7.422   0.603   6.574  0.4773  0.5391  0.1621
  280MOL0     C37669   7.409   0.741   6.582 -0.2163  0.3295 -0.1691
  280MOL0     C37670   7.504   0.831   6.642  0.4397 -0.3096  0.2621
  280MOL0     C37671   7.478   0.964   6.640 -0.0902  0.7710 -0.4890
  280MOL0     C37672   7.369   1.022   6.586 -0.9797 -0.3572  0.8324
  280MOL0     O37673   7.344   1.154   6.591  1.1807 -0.1819  0.0583
  280MOL0     C37674   7.426   1.244   6.657 -0.8265  0.2216 -0.2433
  280MOL0     C37675   7.394   1.383   6.606 -0.3696  0.1571  0.9752
  280MOL0     C37676   7.426   1.503   6.702  0.1069 -0.1454 -0.9144
  280MOL0     C37677   7.573   1.554   6.700 -0.1431  0.3241 -0.5226
  280MOL0     C37678   7.610   1.672   6.801  0.4700  0.6042  0.5176
  280MOL0     C37679   7.761   1.722   6.816 -0.0496 -0.4350  0.0758
  280MOL0     C37680   7.800   1.770   6.956 -0.7669 -0.2060 -0.2573
  280MOL0     C37681   7.731   1.889   7.033  0.5301  0.3138 -0.7686
  280MOL0     N37682   7.629   1.829   7.108  0.4380  0.2330 -0.9736
  280MOL0     C37683   7.638   1.778   7.242  0.6847 -0.3022  0.3778
  280MOL0     C37684   7.504   1.766   7.271  0.2643 -0.8058 -0.5429
  280MOL0     C37685   7.463   1.710   7.409  0.5656  0.8043  0.1939
  280MOL0     C37686   7.494   1.805   7.521  0.0279  0.4444  1.2020
  280MOL0     C37687   7.398   1.924   7.510 -0.2237 -0.5028 -0.4190
  280MOL0     C37688   7.452   2.042   7.434  0.5878 -0.0149 -1.0485
  280MOL0     O37689   7.381   2.164   7.462  0.8480 -0.4186  0.0427
  280MOL0     C37690   7.416   2.280   7.401  0.4554  0.4513  0.0778
  280MOL0     C37691   7.341   2.388   7.434 -0.5784 -0.3029 -0.3451
  280MOL0     C37692   7.374   2.511   7.392 -0.7487 -0.6011  0.0662
  280MOL0     C37693   7.278   2.625   7.425 -0.3311 -0.2491  0.0608
  280MOL0     C37694   7.493   2.533   7.324  0.2935 -0.5647  0.4946
  280MOL0     C37695   7.534   2.664   7.263 -0.7654 -0.3428 -0.4538
  280MOL0     O37696   7.505   2.670   7.128  0.0779  0.2845 -0.5025
  280MOL0     C37697   7.494   2.784   7.064  0.1135 -0.6757 -0.7633
  280MOL0     C37698   7.590   2.820   6.974  0.1553 -0.2983 -1.3702
  280MOL0     C37699   7.575   2.933   6.906 -0.4840  0.2471  0.0506
  280MOL0     C37700   7.469   3.022   6.923 -0.2550  0.2958  0.6308
  280MOL0     O37701   7.458   3.141   6.846 -0.0617 -0.3542  1.1493
  280MOL0     C37702   7.468   3.127   6.698  0.4758  0.0494 -0.1882
  280MOL0     C37703   7.447   3.259   6.632  0.4561  0.3304  0.4352
  280MOL0     C37704   7.372   3.247   6.499  0.9667 -0.3739 -0.7204
  280MOL0     C37705   7.310   3.373   6.461  0.8650  1.5313 -0.2464
  280MOL0     C37706   7.402   3.483   6.426 -0.1947 -0.8715  0.5819
  280MOL0     C37707   7.328   3.608   6.379 -0.2590  0.6990 -0.6217
  280MOL0     C37708   7.426   3.699   6.304  1.3566 -0.0942  0.4145
  280MOL0     C37709   7.370   3.833   6.290  1.3136 -0.3034 -0.3419
  280MOL0    Cl37710   7.200   3.820   6.218  0.2707 -0.2197  0.0904
  280MOL0     C37711   7.385   2.997   7.027  0.4961  0.4486 -0.3275
  280MOL0     C37712   7.387   2.872   7.094  0.2928  0.5826 -0.2894
  280MOL0     O37713   7.579   2.755   7.337 -0.2039  0.1412 -0.1992
  280MOL0     C37714   7.559   2.423   7.284  0.0349 -0.5522 -0.2571
  280MOL0     C37715   7.534   2.293   7.326  1.3405 -0.2432 -0.2575
  280MOL0     N37716   7.425   1.801   7.171  0.8743  0.2285  0.5306
  280MOL0     N37717   7.498   1.832   7.072 -0.5623  0.1228 -0.3810
  280MOL0     C37718   7.284   0.937   6.519  1.0454  0.5661  0.1657
  280MOL0     C37719   7.301   0.798   6.516  0.0127  0.6432 -0.4400
  280MOL0     C37720   7.528   0.400   6.641 -0.2004 -0.6555  0.2421
  280MOL0     C37721   7.511   0.338   6.519  0.0147 -0.3140 -0.1339
  280MOL0     C37722   7.562   0.212   6.499 -0.2195  0.3922  0.3552
  280MOL0     C37723   7.631   0.148   6.607 -0.7329  0.2107  0.6374
  280MOL0     O37724   7.665   0.018   6.578 -0.5836 -0.2285  0.2288
  280MOL0     C37725   7.731  -0.056   6.682  0.0070 -0.4937 -0.5530
  280MOL0     C37726   7.729  -0.205   6.657  0.0144  0.0542  0.1108
  280MOL0     C37727   7.848  -0.252   6.576  0.2974  0.3185 -0.6120
  280MOL0     C37728   7.867  -0.404   6.553 -0.4206  0.9438 -0.0090
  280MOL0     C37729   7.765  -0.485   6.490 -0.8700  0.9856  0.9101
  280MOL0     C37730   7.689  -0.566   6.447  0.0440  0.4284 -0.1143
  280MOL0     C37731   7.645   0.211   6.728 -0.5899 -0.3907 -0.4534
  280MOL0     C37732   7.596   0.340   6.747  0.1266 -0.6940  1.5074
  280MOL0     H37733   7.593   0.793   6.692  2.4950  1.0923 -2.1247
  280MOL0     H37734   7.566   1.012   6.682  1.2916 -1.6511 -0.4474
  280MOL0     H37735   7.414   1.232   6.765  2.3943 -0.9914  0.0725
  280MOL0     H37736   7.533   1.231   6.638 -0.6955  1.8175 -0.8381
  280MOL0     H37737   7.450   1.394   6.512 -1.0889 -3.6798 -0.0729
  280MOL0     H37738   7.288   1.385   6.579  0.1264 -3.2450 -2.0343
  280MOL0     H37739   7.365   1.593   6.690  4.1017  3.0738  0.7272
  280MOL0     H37740   7.397   1.470   6.802  2.7450  0.8355  0.2516
  280MOL0     H37741   7.638   1.467   6.716 -1.8965 -1.5736 -2.9603
  280MOL0     H37742   7.587   1.588   6.597 -0.6523  0.8919 -0.4041
  280MOL0     H37743   7.541   1.752   6.772 -1.1094 -0.7847  0.2953
  280MOL0     H37744   7.560   1.625   6.886  0.4011  1.5736  1.0264
  280MOL0     H37745   7.819   1.634   6.787 -0.4929 -0.9542  0.7390
  280MOL0     H37746   7.780   1.797   6.739  1.2113  0.4941  1.2584
  280MOL0     H37747   7.815   1.688   7.027  0.3815  1.1401  1.1411
  280MOL0     H37748   7.898   1.816   6.936 -0.0629 -1.7924 -0.6335
  280MOL0     H37749   7.693   1.974   6.976 -0.5749  1.1787  1.1607
  280MOL0     H37750   7.801   1.936   7.103 -0.9617 -0.1990  1.1614
  280MOL0     H37751   7.730   1.759   7.296  0.9066 -1.6795 -0.4454
  280MOL0     H37752   7.357   1.682   7.407  0.2827  1.8737 -1.6335
  280MOL0     H37753   7.515   1.620   7.443 -2.4250 -1.5874 -1.0815
  280MOL0     H37754   7.595   1.846   7.514  0.4503 -0.1783  3.0218
  280MOL0     H37755   7.488   1.746   7.613 -0.9636 -2.9893 -0.8679
  280MOL0     H37756   7.372   1.972   7.604 -0.2305 -2.1800  0.4844
  280MOL0     H37757   7.303   1.898   7.463 -0.8276  2.7565 -1.2539
  280MOL0     H37758   7.435   2.026   7.328 -0.6587 -0.4937 -0.7890
  280MOL0     H37759   7.558   2.052   7.460 -0.0474  3.5788  0.9026
  280MOL0     H37760   7.246   2.382   7.487 -1.3369 -0.4265 -1.6936
  280MOL0     H37761   7.176   2.587   7.439  0.3362 -1.1627  3.3016
  280MOL0     H37762   7.305   2.675   7.518 -3.0070  3.1611 -0.8050
  280MOL0     H37763   7.276   2.701   7.347  3.3369 -1.0541 -1.0037
  280MOL0     H37764   7.664   2.741   6.968 -0.3934 -1.0217  0.5239
  280MOL0     H37765   7.657   2.955   6.839  0.7650 -1.5394  0.9129
  280MOL0     H37766   7.568   3.087   6.679 -0.7861 -2.7184 -1.4462
  280MOL0     H37767   7.408   3.056   6.641 -2.1920  1.1237  1.1224
  280MOL0     H37768   7.389   3.317   6.704 -0.9281 -0.1094 -0.2933
  280MOL0     H37769   7.546   3.297   6.604  2.4579 -2.6622  2.8007
  280MOL0     H37770   7.294   3.171   6.505  0.5144  0.1422  0.1712
  280MOL0     H37771   7.439   3.206   6.422  1.8449 -0.5855  0.1365
  280MOL0     H37772   7.248   3.346   6.374  0.5678 -0.1352  0.4477
  280MOL0     H37773   7.241   3.413   6.536 -1.3704  3.3382 -3.0002
  280MOL0     H37774   7.482   3.448   6.361  1.0878 -1.3451  2.3243
  280MOL0     H37775   7.455   3.515   6.517  0.5701 -0.7534  0.1004
  280MOL0     H37776   7.246   3.571   6.316 -0.7267 -2.0212  1.3575
  280MOL0     H37777   7.276   3.659   6.460 -3.9797 -0.1786 -2.2429
  280MOL0     H37778   7.443   3.660   6.203 -0.1258 -0.6832  0.3654
  280MOL0     H37779   7.524   3.706   6.352  0.8998  0.2383  1.3156
  280MOL0     H37780   7.431   3.895   6.223  4.1315 -2.0491  0.4110
  280MOL0     H37781   7.390   3.891   6.381  0.3504  1.6577 -1.3073
  280MOL0     H37782   7.297   3.059   7.041 -0.9586 -1.0881 -2.1039
  280MOL0     H37783   7.311   2.849   7.168  0.6311  3.6339  1.1454
  280MOL0     H37784   7.646   2.433   7.220  2.8870 -2.7186  2.9494
  280MOL0     H37785   7.601   2.211   7.303  1.4690 -0.3543  0.5150
  280MOL0     H37786   7.191   0.971   6.475  0.6751 -0.7929 -0.1629
  280MOL0     H37787   7.232   0.739   6.456 -0.8787 -0.6254  1.7249
  280MOL0     H37788   7.452   0.381   6.439 -0.4931  0.3892  0.5963
  280MOL0     H37789   7.549   0.164   6.403  0.6294 -0.6566  0.7420
  280MOL0     H37790   7.834  -0.019   6.692 -0.3371 -0.0864  2.1393
  280MOL0     H37791   7.696  -0.029   6.782 -0.9314 -0.5540 -0.8631
  280MOL0     H37792   7.638  -0.246   6.614  0.0704 -0.0341  0.0764
  280MOL0     H37793   7.743  -0.261   6.750  1.9739 -0.8616 -0.6700
  280MOL0     H37794   7.933  -0.214   6.634 -0.5191  1.4705 -0.1512
  280MOL0     H37795   7.846  -0.204   6.478 -0.5127  0.1552 -0.6793
  280MOL0     H37796   7.892  -0.454   6.646 -0.9773  1.9810  0.7184
  280MOL0     H37797   7.957  -0.406   6.491  0.3486  1.0549  1.0785
  280MOL0     H37798   7.618  -0.630   6.399  0.2767 -0.4520  0.6687
  280MOL0     H37799   7.704   0.171   6.810 -0.6380  1.9698  0.8263
  280MOL0     H37800   7.592   0.389   6.844 -2.6374  1.1651  0.5695
  281MOL0     O37801   1.891  11.472   9.564 -0.1365 -0.0032  0.1249
  281MOL0     C37802   1.944  11.570   9.501  1.0186  1.1524  0.2557
  281MOL0     O37803   2.073  11.579   9.472  0.0148 -0.3359  0.2214
  281MOL0     C37804   2.156  11.497   9.554 -0.2937  0.5016 -0.4306
  281MOL0     C37805   2.165  11.512   9.692 -0.0412  0.5937 -0.8504
  281MOL0     C37806   2.245  11.426   9.770 -0.9842 -0.0524  0.6701
  281MOL0     C37807   2.316  11.319   9.715 -0.0073 -0.2713 -0.7168
  281MOL0     O37808   2.404  11.252   9.797  0.4603 -0.0727 -0.2713
  281MOL0     C37809   2.497  11.152   9.742  0.2287  0.5456  0.1613
  281MOL0     C37810   2.532  11.055   9.844 -0.5510 -0.0646 -0.0179
  281MOL0     C37811   2.643  10.960   9.787 -0.9373 -0.3207  0.4836
  281MOL0     C37812   2.584  10.857   9.693  1.1029  0.3312 -0.1042
  281MOL0     C37813   2.682  10.752   9.636  0.2209 -0.3022  0.0857
  281MOL0     C37814   2.794  10.801   9.554  0.3164 -0.8886  0.4950
  281MOL0     C37815   2.752  10.897   9.437  0.3664 -0.0471 -0.3132
  281MOL0     C37816   2.638  10.829   9.353 -0.0973  0.4958 -0.7470
  281MOL0     N37817   2.611  10.915   9.236  0.3163  0.7854 -0.4119
  281MOL0     C37818   2.639  10.889   9.106  0.7350  1.2596  1.0255
  281MOL0     C37819   2.581  10.982   9.039  0.5668  0.0315  0.1108
  281MOL0     C37820   2.563  11.002   8.892 -0.4575 -0.2777  0.8047
  281MOL0     C37821   2.684  11.053   8.817 -0.5386 -0.1499 -0.3933
  281MOL0     C37822   2.732  11.197   8.857 -0.5078  0.4106  0.8024
  281MOL0     C37823   2.832  11.264   8.765 -0.1787 -0.5091 -0.6675
  281MOL0     O37824   2.942  11.168   8.750 -0.3906  0.2563  0.7294
  281MOL0     C37825   3.064  11.218   8.708 -0.4661 -0.5499  0.2752
  281MOL0     C37826   3.071  11.312   8.603  0.4153 -1.0490 -0.3806
  281MOL0     C37827   3.194  11.343   8.537  0.2129 -0.7664  0.1118
  281MOL0     C37828   3.176  11.424   8.414  0.6698 -0.6348  0.7034
  281MOL0     C37829   3.314  11.280   8.586  0.2915  0.0577  0.5227
  281MOL0     C37830   3.454  11.318   8.537 -0.0032 -0.4912  0.3350
  281MOL0     O37831   3.554  11.299   8.627  0.9377 -0.3188  0.1928
  281MOL0     C37832   3.693  11.275   8.602  0.3640  0.5425  0.3853
  281MOL0     C37833   3.759  11.243   8.478 -0.2684  0.6616  0.2046
  281MOL0     C37834   3.896  11.212   8.472 -0.7888 -0.2730 -0.4453
  281MOL0     C37835   3.981  11.216   8.581 -0.1909  0.1299 -0.7626
  281MOL0     O37836   4.104  11.156   8.567  0.0417 -0.2730 -0.3510
  281MOL0     C37837   4.211  11.238   8.624 -0.3635  0.4077 -0.2125
  281MOL0     C37838   4.317  11.136   8.663  0.1210 -0.1724  0.6243
  281MOL0     C37839   4.286  11.048   8.781  0.9071  0.6858  0.1276
  281MOL0     C37840   4.412  11.025   8.867 -0.0108 -0.6476  0.3391
  281MOL0     C37841   4.519  10.946   8.797 -0.2355 -0.8370 -0.0755
  281MOL0     C37842   4.607  10.870   8.895  0.0951  0.2770  0.0813
  281MOL0     C37843   4.700  10.779   8.814 -0.0846  0.5828  0.2757
  281MOL0     C37844   4.833  10.838   8.767 -0.2247  0.1559  0.4888
  281MOL0    Cl37845   4.961  10.723   8.733  0.0688  0.1627 -0.6034
  281MOL0     C37846   3.923  11.228   8.703  0.0596  0.0301  0.1093
  281MOL0     C37847   3.783  11.264   8.713 -0.7129  0.1850 -0.4979
  281MOL0     O37848   3.474  11.362   8.424  0.6745  0.2583  0.0854
  281MOL0     C37849   3.301  11.187   8.696 -0.8260  0.4430 -0.4663
  281MOL0     C37850   3.179  11.152   8.742 -0.9017 -0.4019 -0.0492
  281MOL0     N37851   2.518  11.069   9.130  0.2776 -0.2489  0.7103
  281MOL0     N37852   2.541  11.030   9.248 -0.4500 -0.6301  0.3346
  281MOL0     C37853   2.302  11.304   9.574  0.7759  0.4414 -0.3204
  281MOL0     C37854   2.228  11.390   9.494 -0.2994 -0.6433  0.2134
  281MOL0     C37855   1.846  11.657   9.430 -0.2484 -0.4910  0.5535
  281MOL0     C37856   1.895  11.762   9.346 -0.0171 -0.1756 -0.0054
  281MOL0     C37857   1.809  11.846   9.279  0.7398 -0.9488 -0.9392
  281MOL0     C37858   1.668  11.835   9.291  0.0336 -0.3951 -0.7552
  281MOL0     O37859   1.576  11.912   9.232  0.1376  0.2652  1.0353
  281MOL0     C37860   1.606  12.036   9.149  0.7926  0.9458 -0.6398
  281MOL0     C37861   1.480  12.131   9.169  1.1685  1.0426 -0.1434
  281MOL0     C37862   1.342  12.061   9.156 -0.3396 -0.5278 -0.5136
  281MOL0     C37863   1.237  12.167   9.149  0.4148 -0.1221 -0.0981
  281MOL0     C37864   1.105  12.096   9.164 -0.0412  0.0018  0.0934
  281MOL0     C37865   0.998  12.035   9.172  0.4230 -0.4531 -0.6955
  281MOL0     C37866   1.617  11.733   9.375 -0.1591  0.0295 -0.3042
  281MOL0     C37867   1.703  11.642   9.442  0.4710  0.1822 -0.6130
  281MOL0     H37868   2.105  11.587   9.744  0.0120  0.0254  0.0444
  281MOL0     H37869   2.242  11.443   9.877  1.2556  3.6919  0.3157
  281MOL0     H37870   2.446  11.108   9.656  0.7409  1.4220 -0.6087
  281MOL0     H37871   2.583  11.215   9.715  0.9084 -0.5490 -0.3157
  281MOL0     H37872   2.566  11.115   9.929 -1.8806 -0.2525  0.6690
  281MOL0     H37873   2.449  10.992   9.875 -0.0411 -0.3569  0.7841
  281MOL0     H37874   2.726  11.013   9.741 -3.0211  2.0061 -0.8808
  281MOL0     H37875   2.693  10.909   9.870 -1.4802  1.4853  2.0028
  281MOL0     H37876   2.510  10.799   9.749  2.0035  0.6345  1.4800
  281MOL0     H37877   2.540  10.908   9.607  0.0151 -1.7190 -0.8280
  281MOL0     H37878   2.741  10.718   9.722  2.4273  3.2485  0.2106
  281MOL0     H37879   2.630  10.674   9.581 -2.7492  0.8246  1.0961
  281MOL0     H37880   2.879  10.826   9.619  0.1670  1.8623 -0.2549
  281MOL0     H37881   2.837  10.716   9.498 -1.8725 -1.0456 -1.0762
  281MOL0     H37882   2.704  10.983   9.486  0.0622 -0.3097 -0.1435
  281MOL0     H37883   2.839  10.924   9.377  1.3611 -1.9429  0.2222
  281MOL0     H37884   2.550  10.836   9.417  0.8849  0.0140  0.7046
  281MOL0     H37885   2.653  10.728   9.314 -0.7465  0.0070  0.2359
  281MOL0     H37886   2.703  10.808   9.072  0.7204  2.0855 -1.1069
  281MOL0     H37887   2.540  10.909   8.840 -1.5382 -0.2202  1.1656
  281MOL0     H37888   2.493  11.080   8.859  1.6347  0.4398 -2.4265
  281MOL0     H37889   2.661  11.056   8.710 -0.1333  1.4302 -0.4587
  281MOL0     H37890   2.767  10.984   8.835 -0.7190 -0.2106  0.2310
  281MOL0     H37891   2.774  11.188   8.957  1.1530  0.3931  0.1330
  281MOL0     H37892   2.639  11.253   8.866 -1.2418 -0.8106  1.0465
  281MOL0     H37893   2.868  11.357   8.810  0.0437 -0.0281 -1.7950
  281MOL0     H37894   2.783  11.294   8.672 -0.0010  0.2909 -0.5094
  281MOL0     H37895   2.977  11.344   8.559 -0.4418 -2.9123  0.0244
  281MOL0     H37896   3.101  11.502   8.428 -1.5107 -2.5112 -0.0747
  281MOL0     H37897   3.265  11.474   8.374  3.1971 -2.0864  4.0635
  281MOL0     H37898   3.138  11.358   8.336  2.4425  1.2601 -1.9514
  281MOL0     H37899   3.703  11.206   8.393 -1.2689 -2.4928  2.0607
  281MOL0     H37900   3.956  11.183   8.386 -0.6687 -1.5658  0.0553
  281MOL0     H37901   4.252  11.312   8.555  0.2105  1.1200  0.8575
  281MOL0     H37902   4.187  11.298   8.713 -0.6764 -1.5785  1.1113
  281MOL0     H37903   4.324  11.070   8.576 -0.3505 -0.0279  0.4727
  281MOL0     H37904   4.411  11.187   8.684 -0.4286  0.6282  1.2062
  281MOL0     H37905   4.244  10.954   8.744 -2.7989  0.7514  3.4471
  281MOL0     H37906   4.204  11.090   8.840  2.1145  0.9348  1.6666
  281MOL0     H37907   4.447  11.124   8.901 -0.4299 -0.1108 -0.7421
  281MOL0     H37908   4.388  10.978   8.963  0.8103 -0.9125  0.4210
  281MOL0     H37909   4.574  11.008   8.726  2.3530 -1.6430  1.1097
  281MOL0     H37910   4.471  10.872   8.732 -1.0870  2.2117 -3.2180
  281MOL0     H37911   4.668  10.949   8.940  0.0019 -1.2221  3.0882
  281MOL0     H37912   4.551  10.812   8.968 -2.1643  0.2713 -1.5512
  281MOL0     H37913   4.637  10.730   8.740 -2.2805  2.4250  0.8168
  281MOL0     H37914   4.721  10.698   8.884 -0.6662 -1.0115 -1.3050
  281MOL0     H37915   4.866  10.904   8.848 -0.3279 -0.0668  0.7122
  281MOL0     H37916   4.810  10.902   8.682  2.5498  1.2024  0.4052
  281MOL0     H37917   3.983  11.230   8.794 -1.1755 -0.9101  0.9923
  281MOL0     H37918   3.757  11.289   8.815  2.6563  1.4486  0.1872
  281MOL0     H37919   3.391  11.138   8.731  0.0325  2.9908  1.2416
  281MOL0     H37920   3.181  11.072   8.815  1.9549  1.6823  2.3827
  281MOL0     H37921   2.362  11.236   9.514  0.0288  0.3652 -1.0023
  281MOL0     H37922   2.234  11.393   9.386 -0.5773 -0.7295  0.1955
  281MOL0     H37923   2.001  11.773   9.329 -0.0906 -0.0531 -0.4036
  281MOL0     H37924   1.867  11.919   9.223  1.6600 -0.5888  0.4387
  281MOL0     H37925   1.695  12.088   9.186 -0.0272  0.2742  2.6162
  281MOL0     H37926   1.613  12.009   9.043 -1.0942 -0.4344 -0.4734
  281MOL0     H37927   1.483  12.214   9.098 -1.2063  1.8396  0.5972
  281MOL0     H37928   1.481  12.178   9.267  0.5579 -0.0269  0.3839
  281MOL0     H37929   1.317  11.985   9.230 -0.6790  0.1267  0.0484
  281MOL0     H37930   1.342  12.006   9.060 -2.5497 -3.7060  1.1195
  281MOL0     H37931   1.242  12.226   9.057  2.3007  0.0209  0.0544
  281MOL0     H37932   1.254  12.235   9.233  0.8901  0.6474 -0.8009
  281MOL0     H37933   0.909  11.976   9.178  0.8744 -1.3560 -2.1944
  281MOL0     H37934   1.513  11.715   9.398  0.1029 -0.7189  0.3611
  281MOL0     H37935   1.660  11.572   9.513 -1.9523  2.7366  0.5973
  282MOL0     O37936   8.258   5.452   9.494  0.5747 -0.2098  0.4232
  282MOL0     C37937   8.134   5.457   9.500 -0.3491 -0.4113  0.7938
  282MOL0     O37938   8.053   5.355   9.484  0.5082  0.0134 -0.5317
  282MOL0     C37939   8.104   5.228   9.465  0.6064 -0.7589 -0.3637
  282MOL0     C37940   8.192   5.160   9.550 -1.7116 -0.3320  0.0789
  282MOL0     C37941   8.237   5.029   9.533 -0.3795  0.1774  0.5474
  282MOL0     C37942   8.212   4.964   9.409  0.7845 -0.2234  0.7551
  282MOL0     O37943   8.267   4.836   9.377 -0.2874  0.2695 -1.0141
  282MOL0     C37944   8.316   4.762   9.487  0.0306  0.8544  0.3436
  282MOL0     C37945   8.318   4.616   9.439  0.3012 -0.8282 -0.4013
  282MOL0     C37946   8.407   4.514   9.515 -0.1365 -0.6469  0.2053
  282MOL0     C37947   8.333   4.476   9.638 -0.2875  0.5928  0.0699
  282MOL0     C37948   8.413   4.398   9.742  0.4925  0.9267 -0.4171
  282MOL0     C37949   8.488   4.277   9.681  0.7308 -0.3219  1.2661
  282MOL0     C37950   8.533   4.173   9.776 -1.0154 -0.2076 -0.0890
  282MOL0     C37951   8.524   4.040   9.709 -0.0036  0.5281  0.0982
  282MOL0     N37952   8.521   3.934   9.817 -0.1902  0.1819  0.7264
  282MOL0     C37953   8.409   3.910   9.893 -0.3122 -0.0963 -0.3142
  282MOL0     C37954   8.455   3.818   9.990  0.1378 -0.5203  0.7410
  282MOL0     C37955   8.359   3.758  10.094  0.2832 -0.4166  0.2719
  282MOL0     C37956   8.359   3.833  10.234 -0.6888  0.4767  0.4113
  282MOL0     C37957   8.305   3.982  10.227  0.7469  0.5050  0.5898
  282MOL0     C37958   8.302   4.058  10.352  0.1245 -0.0925  1.0864
  282MOL0     O37959   8.274   4.201  10.326  0.6826  0.0767  0.1143
  282MOL0     C37960   8.350   4.299  10.392  0.5850  0.6840  0.6200
  282MOL0     C37961   8.398   4.273  10.523  0.2149 -0.1925  0.3346
  282MOL0     C37962   8.474   4.379  10.585  0.0838 -0.0956  0.9730
  282MOL0     C37963   8.527   4.353  10.723 -0.3476  0.6230 -0.1444
  282MOL0     C37964   8.509   4.500  10.513 -0.3405 -0.3231  0.0889
  282MOL0     C37965   8.584   4.617  10.563 -0.5751 -0.8702  0.0088
  282MOL0     O37966   8.557   4.736  10.508 -0.2267 -0.8263 -0.1460
  282MOL0     C37967   8.641   4.837  10.496  0.0079 -0.2218  0.2427
  282MOL0     C37968   8.779   4.818  10.460 -0.2958  0.2000 -0.0192
  282MOL0     C37969   8.859   4.930  10.445 -0.2651 -0.6849 -0.6096
  282MOL0     C37970   8.808   5.056  10.462  0.0750  0.0929 -0.5139
  282MOL0     O37971   8.892   5.160  10.425 -0.1036  0.8405 -0.2974
  282MOL0     C37972   8.846   5.292  10.387 -1.2913  0.2881 -1.4336
  282MOL0     C37973   8.781   5.285  10.251 -0.2007  0.6421 -0.5037
  282MOL0     C37974   8.699   5.402  10.205  0.0929  0.3400  0.0239
  282MOL0     C37975   8.684   5.399  10.050  0.1360 -0.3230 -0.4627
  282MOL0     C37976   8.559   5.465  10.005  0.0342 -0.8165  0.5106
  282MOL0     C37977   8.579   5.619  10.001  0.9024  0.1286  0.2563
  282MOL0     C37978   8.461   5.674   9.924  0.1354 -0.0188  0.0858
  282MOL0     C37979   8.474   5.827   9.937 -0.6730 -0.3457  0.0236
  282MOL0    Cl37980   8.505   5.895  10.097  0.1304  0.0707 -0.1381
  282MOL0     C37981   8.672   5.077  10.476 -1.2909  0.3168  0.7084
  282MOL0     C37982   8.588   4.970  10.496 -0.1159  0.6354 -0.3637
  282MOL0     O37983   8.682   4.586  10.636  0.3671 -0.0307  0.9971
  282MOL0     C37984   8.461   4.513  10.387 -0.0314  0.6749  0.1226
  282MOL0     C37985   8.380   4.417  10.322  0.9723 -0.3358  0.2136
  282MOL0     N37986   8.587   3.787   9.957 -0.7517 -0.5061 -0.8924
  282MOL0     N37987   8.628   3.856   9.859 -0.0023 -0.0635  0.1220
  282MOL0     C37988   8.130   5.030   9.319 -0.2883  0.3331  0.3481
  282MOL0     C37989   8.079   5.160   9.346 -0.1827  0.3309 -0.5070
  282MOL0     C37990   8.070   5.590   9.540 -0.8286 -0.0692 -0.5994
  282MOL0     C37991   8.152   5.698   9.576  0.5215 -0.1801 -0.4144
  282MOL0     C37992   8.090   5.816   9.610 -0.2541 -0.5758  0.7380
  282MOL0     C37993   7.952   5.838   9.603  0.3203  1.3036 -0.4498
  282MOL0     O37994   7.903   5.956   9.641 -0.9247 -0.2865 -0.4375
  282MOL0     C37995   7.795   6.016   9.572  0.3747 -0.0710  0.2079
  282MOL0     C37996   7.807   6.166   9.573 -0.4009  0.4517 -0.0800
  282MOL0     C37997   7.930   6.196   9.488  0.2313 -0.5584 -0.7711
  282MOL0     C37998   8.021   6.283   9.579 -0.5174 -0.2290  0.1906
  282MOL0     C37999   8.088   6.209   9.687 -0.1164 -0.2764  0.7774
  282MOL0     C38000   8.148   6.151   9.782 -0.7565 -0.3082 -0.6769
  282MOL0     C38001   7.874   5.731   9.559  0.8092  0.4399  0.0043
  282MOL0     C38002   7.931   5.611   9.529  0.1651  0.2253 -0.7626
  282MOL0     H38003   8.207   5.194   9.652  0.2733 -0.0111 -0.2864
  282MOL0     H38004   8.299   4.987   9.612  0.2461  1.1644  0.5936
  282MOL0     H38005   8.410   4.802   9.527  0.3991  0.7911 -0.4265
  282MOL0     H38006   8.240   4.751   9.564  0.5188  0.1100  0.7368
  282MOL0     H38007   8.210   4.595   9.438 -0.2451  1.6089 -2.1434
  282MOL0     H38008   8.359   4.617   9.338  0.5915  0.1267 -0.2829
  282MOL0     H38009   8.442   4.425   9.462  2.4677  0.2404  0.3003
  282MOL0     H38010   8.497   4.574   9.530  0.5897 -1.6592  0.0099
  282MOL0     H38011   8.290   4.566   9.682 -0.2823  0.6865 -0.1159
  282MOL0     H38012   8.252   4.409   9.608 -1.0400  1.9123 -0.9723
  282MOL0     H38013   8.480   4.461   9.803  1.5334 -0.0227 -0.5553
  282MOL0     H38014   8.345   4.361   9.820  1.4632 -1.2258 -0.5330
  282MOL0     H38015   8.411   4.233   9.617 -1.9333  2.6426  2.1760
  282MOL0     H38016   8.575   4.314   9.626 -1.2534  2.4100 -0.2731
  282MOL0     H38017   8.630   4.203   9.817 -0.7500 -1.5690  0.3146
  282MOL0     H38018   8.456   4.178   9.853 -0.7312 -0.8682  0.2398
  282MOL0     H38019   8.598   4.034   9.629 -0.1613  1.3052 -0.1128
  282MOL0     H38020   8.429   4.024   9.657  1.2304 -2.5042 -1.4850
  282MOL0     H38021   8.308   3.945   9.875 -0.3737 -1.2818 -2.6573
  282MOL0     H38022   8.256   3.772  10.061  0.4112  1.9997  0.6988
  282MOL0     H38023   8.382   3.652  10.103  4.3492  0.2980  0.5489
  282MOL0     H38024   8.460   3.844  10.274 -0.0453 -2.8301 -0.0723
  282MOL0     H38025   8.311   3.779  10.316  0.5684 -0.4321  0.5641
  282MOL0     H38026   8.204   3.981  10.185  1.4258  1.9081 -1.1728
  282MOL0     H38027   8.355   4.041  10.150  3.5545  1.2462  2.8043
  282MOL0     H38028   8.401   4.044  10.395  1.5858  0.5015 -1.8527
  282MOL0     H38029   8.238   4.010  10.427 -1.7188  0.5250 -0.0134
  282MOL0     H38030   8.365   4.185  10.578 -2.9416 -0.6079 -1.9784
  282MOL0     H38031   8.521   4.442  10.787  3.9827 -0.0731  1.5733
  282MOL0     H38032   8.463   4.283  10.778  0.6440  2.4659  3.6885
  282MOL0     H38033   8.626   4.310  10.736 -2.7782 -5.8954  0.4948
  282MOL0     H38034   8.823   4.721  10.442 -2.1409 -1.2996  2.7101
  282MOL0     H38035   8.959   4.915  10.408 -0.4522  0.4417 -1.6105
  282MOL0     H38036   8.775   5.331  10.460  0.6418  0.2585  0.5879
  282MOL0     H38037   8.917   5.375  10.376 -2.1699  0.8255 -3.7020
  282MOL0     H38038   8.857   5.250  10.180 -0.8382 -0.5898 -0.6097
  282MOL0     H38039   8.712   5.200  10.247  0.3211  0.1294  0.7251
  282MOL0     H38040   8.743   5.498  10.232 -0.3163  0.8340 -0.9988
  282MOL0     H38041   8.597   5.401  10.243 -1.2297  0.6286 -3.1754
  282MOL0     H38042   8.776   5.446  10.013 -0.2338 -0.4692 -1.6083
  282MOL0     H38043   8.679   5.293  10.027  2.3692 -0.9792  1.6438
  282MOL0     H38044   8.478   5.429  10.070 -2.1128  0.1889 -1.4604
  282MOL0     H38045   8.553   5.418   9.906  2.0320  0.2280 -0.1463
  282MOL0     H38046   8.593   5.664  10.100  2.5569  0.6290 -0.1718
  282MOL0     H38047   8.673   5.641   9.951  1.0507  1.2110  0.9686
  282MOL0     H38048   8.370   5.639   9.972 -0.4718  0.1188 -0.9221
  282MOL0     H38049   8.469   5.633   9.822  0.7885  0.8888 -0.2390
  282MOL0     H38050   8.389   5.879   9.893  0.4889  0.7946 -0.9759
  282MOL0     H38051   8.558   5.864   9.877 -0.3122 -1.2219 -0.0312
  282MOL0     H38052   8.629   5.177  10.475 -1.0330  0.4635 -1.9105
  282MOL0     H38053   8.483   4.981  10.523 -0.3211  1.3957 -1.4025
  282MOL0     H38054   8.488   4.596  10.323 -0.1360 -0.4460 -1.4257
  282MOL0     H38055   8.340   4.445  10.226 -1.9445  1.2937  1.7608
  282MOL0     H38056   8.095   4.993   9.223  1.0462 -0.7547  0.2517
  282MOL0     H38057   8.011   5.198   9.270  0.8851  3.1839 -0.1532
  282MOL0     H38058   8.259   5.681   9.567  0.8482  0.3251  1.9398
  282MOL0     H38059   8.150   5.899   9.644 -0.4663  0.8441 -2.0853
  282MOL0     H38060   7.786   5.984   9.467  1.7044 -0.4888  0.2050
  282MOL0     H38061   7.703   5.991   9.626  1.4188 -1.0481  1.5821
  282MOL0     H38062   7.814   6.199   9.677 -1.6842  0.1108  0.1394
  282MOL0     H38063   7.722   6.217   9.525  1.4421  0.4079 -3.7236
  282MOL0     H38064   7.903   6.252   9.398  1.4738  0.9421 -0.2579
  282MOL0     H38065   7.999   6.113   9.470  2.7753  0.7704  1.9032
  282MOL0     H38066   7.978   6.376   9.616  2.9434  1.0776  1.3024
  282MOL0     H38067   8.104   6.317   9.516 -0.0549 -3.1213 -0.9555
  282MOL0     H38068   8.192   6.099   9.865  0.2808  0.4699 -0.7169
  282MOL0     H38069   7.766   5.745   9.552  0.4287  0.1884  3.4354
  282MOL0     H38070   7.868   5.531   9.493 -0.6900  0.1656  0.7760
  283MOL0     O38071   7.503   5.512   0.890 -0.0212  0.8531  0.0872
  283MOL0     C38072   7.385   5.466   0.878 -0.3480 -0.0559  0.3530
  283MOL0     O38073   7.274   5.551   0.870 -0.1702  0.4008 -0.1828
  283MOL0     C38074   7.293   5.691   0.886  0.1004  0.3104  0.4807
  283MOL0     C38075   7.362   5.753   0.780 -0.3563 -0.4067 -0.2636
  283MOL0     C38076   7.406   5.887   0.800 -0.5889 -0.0414 -0.2868
  283MOL0     C38077   7.363   5.961   0.915 -0.3596  0.9223  0.3462
  283MOL0     O38078   7.382   6.093   0.940 -0.1137  0.0698  0.6197
  283MOL0     C38079   7.504   6.145   0.885  0.4496  0.4927 -0.1083
  283MOL0     C38080   7.509   6.277   0.960 -0.4194 -0.3048  0.2305
  283MOL0     C38081   7.490   6.272   1.108  1.0427  0.2848  0.0723
  283MOL0     C38082   7.494   6.416   1.166 -0.2054 -0.0303 -0.1179
  283MOL0     C38083   7.486   6.418   1.316 -0.4707  0.0052 -1.1905
  283MOL0     C38084   7.626   6.375   1.382 -0.0411  0.2384 -0.0589
  283MOL0     C38085   7.753   6.441   1.329  0.1056 -0.1012 -0.0410
  283MOL0     C38086   7.876   6.426   1.415 -0.2711  0.3091 -0.6738
  283MOL0     N38087   7.911   6.558   1.478 -0.7474 -0.3112 -0.4092
  283MOL0     C38088   7.825   6.642   1.552 -0.3621  0.0450  0.2662
  283MOL0     C38089   7.900   6.753   1.591  0.2288  0.5028 -0.3882
  283MOL0     C38090   7.843   6.870   1.673 -0.7486 -0.4676 -0.0443
  283MOL0     C38091   7.862   6.836   1.829  0.1789  0.3183  0.6544
  283MOL0     C38092   8.015   6.849   1.872 -0.1503 -0.6272 -0.3900
  283MOL0     C38093   8.041   6.801   2.015  0.1758 -0.1788  0.1552
  283MOL0     O38094   7.937   6.861   2.095  0.0225  0.2812 -0.2401
  283MOL0     C38095   7.946   6.851   2.236 -0.1280  0.4271  0.2448
  283MOL0     C38096   7.856   6.932   2.310  0.7633 -0.7908  0.3265
  283MOL0     C38097   7.843   6.934   2.454  0.5751 -0.6107 -0.5200
  283MOL0     C38098   7.730   7.020   2.513  0.0499  0.6382  0.1681
  283MOL0     C38099   7.932   6.848   2.528 -0.3339 -0.6615  0.1450
  283MOL0     C38100   7.939   6.845   2.675  0.2043 -0.1711 -0.7153
  283MOL0     O38101   8.064   6.789   2.708 -0.6841  0.1084 -0.2114
  283MOL0     C38102   8.068   6.763   2.839 -0.0574  0.5364 -0.8637
  283MOL0     C38103   8.103   6.866   2.933 -0.4860 -0.6732  0.3563
  283MOL0     C38104   8.113   6.840   3.070 -1.6251 -0.0746 -0.4536
  283MOL0     C38105   8.083   6.710   3.119  0.2198  0.3122  0.0589
  283MOL0     O38106   8.073   6.683   3.257 -0.6089  0.2359 -0.1964
  283MOL0     C38107   8.087   6.789   3.354  0.5599 -0.2645  0.0767
  283MOL0     C38108   8.081   6.699   3.485 -0.2006 -0.5748  0.9460
  283MOL0     C38109   8.093   6.782   3.610 -0.0842  0.5871  0.2048
  283MOL0     C38110   8.049   6.705   3.736  0.7991 -0.1145 -0.0737
  283MOL0     C38111   7.986   6.806   3.844 -0.4463 -0.3289 -1.2902
  283MOL0     C38112   8.098   6.885   3.928  0.3233  0.7803  0.7236
  283MOL0     C38113   8.052   7.024   3.966  0.0511  0.7606 -0.3935
  283MOL0     C38114   8.162   7.087   4.043 -0.3147  0.6763 -0.2742
  283MOL0    Cl38115   8.103   7.260   4.086 -0.1039  0.0956 -0.3617
  283MOL0     C38116   8.059   6.608   3.022  0.6956  0.4335 -0.1583
  283MOL0     C38117   8.039   6.638   2.888  0.1793  0.7920  1.5959
  283MOL0     O38118   7.847   6.881   2.753 -0.2773  0.5045  0.2587
  283MOL0     C38119   8.020   6.767   2.453 -0.3117  0.6607  0.5521
  283MOL0     C38120   8.032   6.765   2.315 -0.1421 -0.5909 -0.9243
  283MOL0     N38121   8.026   6.732   1.534  1.3069  0.5876 -0.9300
  283MOL0     N38122   8.029   6.620   1.480  0.2521  0.1629 -0.7480
  283MOL0     C38123   7.280   5.897   1.003 -0.5716 -0.3874 -0.4024
  283MOL0     C38124   7.247   5.761   0.990  0.4346 -0.4512 -0.2243
  283MOL0     C38125   7.368   5.314   0.873  0.4508  0.6792  1.1513
  283MOL0     C38126   7.241   5.245   0.878  0.5561 -0.2606 -0.5175
  283MOL0     C38127   7.221   5.112   0.896 -0.1096 -0.4865 -0.1321
  283MOL0     C38128   7.329   5.026   0.890  0.1269  0.7799 -0.3537
  283MOL0     O38129   7.296   4.893   0.912  0.2110 -0.2767 -0.0461
  283MOL0     C38130   7.388   4.792   0.877  0.7516 -0.0445 -0.2279
  283MOL0     C38131   7.410   4.766   0.727  0.1079 -0.2594 -0.5978
  283MOL0     C38132   7.499   4.642   0.705  0.1242  0.2950 -0.0140
  283MOL0     C38133   7.647   4.684   0.745 -0.3180 -0.1825  0.0330
  283MOL0     C38134   7.733   4.575   0.706  0.2394  0.8622  0.0695
  283MOL0     C38135   7.803   4.483   0.672  0.4616  0.1977 -0.5116
  283MOL0     C38136   7.460   5.084   0.886 -0.6702  0.2650  0.2800
  283MOL0     C38137   7.485   5.223   0.884  0.7076 -0.0876 -0.5132
  283MOL0     H38138   7.391   5.706   0.686  0.0174  2.3842 -1.6560
  283MOL0     H38139   7.473   5.942   0.735  1.1030  1.1335  2.3091
  283MOL0     H38140   7.593   6.091   0.917  0.0355 -0.8043 -1.0868
  283MOL0     H38141   7.500   6.159   0.777 -0.6081  1.3745  0.0148
  283MOL0     H38142   7.606   6.322   0.939  0.0153 -0.0429  2.5332
  283MOL0     H38143   7.433   6.341   0.915  2.0028  1.4656 -1.5512
  283MOL0     H38144   7.396   6.223   1.132  2.5223 -2.8104 -0.0257
  283MOL0     H38145   7.563   6.199   1.143 -1.0938 -4.1204 -3.6342
  283MOL0     H38146   7.569   6.486   1.128 -2.7247  4.3052  1.9591
  283MOL0     H38147   7.398   6.456   1.133  0.8079  0.4133 -2.7495
  283MOL0     H38148   7.456   6.517   1.353  0.5880 -0.3457  0.7553
  283MOL0     H38149   7.411   6.342   1.342 -1.8321 -0.0821 -4.8492
  283MOL0     H38150   7.638   6.405   1.487  2.6611 -0.4313 -0.0905
  283MOL0     H38151   7.639   6.267   1.369 -1.4909 -0.1010  1.0894
  283MOL0     H38152   7.789   6.389   1.240  0.2003 -2.3083  1.2294
  283MOL0     H38153   7.732   6.548   1.319  1.8229  0.1041 -1.9693
  283MOL0     H38154   7.954   6.375   1.358 -0.5095  0.1659 -0.8771
  283MOL0     H38155   7.841   6.366   1.500 -3.6315  2.2098 -0.5510
  283MOL0     H38156   7.718   6.630   1.566 -0.2469 -2.0396 -0.2830
  283MOL0     H38157   7.912   6.950   1.643 -2.9084  0.7282 -2.1410
  283MOL0     H38158   7.738   6.889   1.649 -0.5122  0.4119 -0.4208
  283MOL0     H38159   7.830   6.732   1.843 -3.2019  1.2371  0.5440
  283MOL0     H38160   7.789   6.894   1.886  1.8231 -0.1993  3.4531
  283MOL0     H38161   8.051   6.951   1.856 -2.2246  0.1044 -0.7303
  283MOL0     H38162   8.068   6.780   1.805 -0.6508 -0.0841 -1.3740
  283MOL0     H38163   8.142   6.818   2.053  0.9645  2.8761 -2.8305
  283MOL0     H38164   8.016   6.694   2.013 -1.2648  0.1151  0.5985
  283MOL0     H38165   7.799   6.990   2.237  0.8176 -0.7296  0.3323
  283MOL0     H38166   7.663   6.954   2.568  1.6543  0.2928  1.8367
  283MOL0     H38167   7.770   7.102   2.574 -0.8641  0.4711  1.0010
  283MOL0     H38168   7.665   7.053   2.432  2.7361  0.0646 -2.3753
  283MOL0     H38169   8.126   6.966   2.898 -1.3179 -0.1503  1.2362
  283MOL0     H38170   8.137   6.931   3.124 -0.0454  0.2969 -1.7007
  283MOL0     H38171   8.180   6.847   3.349  0.8135 -0.6623  0.1799
  283MOL0     H38172   8.002   6.857   3.353  2.4378  2.2296 -0.2858
  283MOL0     H38173   7.990   6.638   3.492 -0.4087 -0.3520  0.2808
  283MOL0     H38174   8.163   6.628   3.477 -1.7556 -2.5257  1.5108
  283MOL0     H38175   8.054   6.884   3.606 -0.2616  0.6889  2.7020
  283MOL0     H38176   8.201   6.796   3.624 -0.0658 -0.6146  1.5636
  283MOL0     H38177   7.966   6.634   3.729 -1.5073  2.0491  2.8907
  283MOL0     H38178   8.135   6.652   3.777 -1.2355 -2.3896  1.4867
  283MOL0     H38179   7.921   6.754   3.916 -0.8076 -3.2772 -3.5565
  283MOL0     H38180   7.920   6.877   3.793 -1.1019  0.5877  0.7214
  283MOL0     H38181   8.104   6.826   4.020 -1.0298 -0.6171 -0.0255
  283MOL0     H38182   8.193   6.885   3.873 -0.4029 -1.6375 -0.7309
  283MOL0     H38183   7.973   7.009   4.040  0.6633  1.9302  0.5449
  283MOL0     H38184   8.018   7.079   3.878  1.2145  0.8605 -0.7971
  283MOL0     H38185   8.254   7.096   3.986  0.4346  1.7605  1.0547
  283MOL0     H38186   8.177   7.022   4.131  1.5170  2.1163  0.5356
  283MOL0     H38187   8.033   6.512   3.066 -2.4286 -0.0197 -2.6365
  283MOL0     H38188   8.013   6.561   2.816  1.9002  2.2001 -0.6869
  283MOL0     H38189   8.085   6.696   2.503 -1.0520 -3.0961 -3.1724
  283MOL0     H38190   8.092   6.708   2.245  1.6711  0.4832 -0.3204
  283MOL0     H38191   7.256   5.944   1.098 -0.7159  0.3177 -0.7791
  283MOL0     H38192   7.191   5.713   1.070 -2.7400  2.9536 -0.1248
  283MOL0     H38193   7.156   5.312   0.889  1.6618  1.0757  0.1269
  283MOL0     H38194   7.124   5.063   0.904 -0.9853  1.4171  1.7533
  283MOL0     H38195   7.484   4.811   0.925  1.0390  1.0215 -1.1796
  283MOL0     H38196   7.342   4.699   0.911  0.2822  0.3089  0.1054
  283MOL0     H38197   7.457   4.856   0.686 -1.9856  0.7419 -0.9415
  283MOL0     H38198   7.314   4.747   0.677  1.3087  1.2219 -3.7457
  283MOL0     H38199   7.497   4.614   0.599 -0.3476  1.7080 -0.3992
  283MOL0     H38200   7.460   4.564   0.772  0.3938  2.3387  2.6921
  283MOL0     H38201   7.660   4.708   0.851  0.2351 -0.1733 -0.0309
  283MOL0     H38202   7.678   4.775   0.693  0.5420 -0.2954  0.3313
  283MOL0     H38203   7.869   4.400   0.661  2.3911  1.5561  0.1276
  283MOL0     H38204   7.548   5.025   0.909  0.8811  2.3205 -0.1021
  283MOL0     H38205   7.586   5.262   0.885  0.3822  0.7978 -1.0510
  284MOL0     O38206   7.071   9.569   7.995  0.3758 -0.0632  0.3510
  284MOL0     C38207   7.174   9.520   7.950  0.4281  0.2128  0.9915
  284MOL0     O38208   7.266   9.442   8.012 -0.4743 -0.0221 -0.1261
  284MOL0     C38209   7.235   9.427   8.145 -1.5338 -0.0312 -0.8007
  284MOL0     C38210   7.232   9.530   8.245  0.0647  0.4555 -0.0152
  284MOL0     C38211   7.200   9.503   8.377 -0.4214 -0.4499  0.5283
  284MOL0     C38212   7.188   9.371   8.424 -0.2770  0.5062 -0.0557
  284MOL0     O38213   7.151   9.333   8.552 -0.5862  0.7730 -0.3712
  284MOL0     C38214   7.158   9.425   8.659  0.8304  0.4582 -1.2314
  284MOL0     C38215   7.121   9.354   8.790 -0.0114  0.5341 -0.6530
  284MOL0     C38216   6.981   9.293   8.794 -0.5756 -0.5777 -0.5883
  284MOL0     C38217   6.864   9.388   8.797  0.1704  0.2705  0.2438
  284MOL0     C38218   6.731   9.315   8.776  0.1871  0.1363 -1.4222
  284MOL0     C38219   6.717   9.256   8.638 -0.7991  0.1420 -0.5872
  284MOL0     C38220   6.575   9.200   8.630  0.8768 -0.6422  0.0852
  284MOL0     C38221   6.551   9.134   8.489  0.4361 -0.3927  0.5162
  284MOL0     N38222   6.441   9.049   8.480  0.5579  0.8006  0.5109
  284MOL0     C38223   6.332   9.068   8.388 -0.3072  0.3045 -0.2851
  284MOL0     C38224   6.255   8.958   8.401 -0.4457  0.3914  0.6102
  284MOL0     C38225   6.130   8.920   8.332  0.1656 -0.4405 -0.1228
  284MOL0     C38226   6.013   8.926   8.433  0.6531 -0.7474  0.3003
  284MOL0     C38227   5.877   8.893   8.369 -0.6444  0.6069  0.6115
  284MOL0     C38228   5.781   8.925   8.478  0.5557  0.5160  0.4555
  284MOL0     O38229   5.651   8.919   8.421  0.0190 -0.0806  0.3906
  284MOL0     C38230   5.537   8.933   8.487  0.1588  0.7166 -0.3508
  284MOL0     C38231   5.419   8.956   8.423  0.0925  0.8541 -0.0861
  284MOL0     C38232   5.296   8.967   8.485 -0.4158 -0.5653  0.3351
  284MOL0     C38233   5.187   9.013   8.403 -0.5525  0.4878 -0.3078
  284MOL0     C38234   5.283   8.944   8.628 -0.0537  0.0639 -1.1558
  284MOL0     C38235   5.148   8.932   8.696 -0.4942 -1.3559 -1.1220
  284MOL0     O38236   5.160   8.928   8.837  0.1133  0.5035  0.7522
  284MOL0     C38237   5.036   8.925   8.909 -0.3600  0.0128  0.2097
  284MOL0     C38238   4.976   9.053   8.935 -0.7330 -0.6167 -0.1863
  284MOL0     C38239   4.869   9.064   9.023  0.1743 -0.5744  0.0869
  284MOL0     C38240   4.820   8.951   9.079  0.1647  0.2159 -0.4255
  284MOL0     O38241   4.701   8.949   9.150  0.2585 -0.0395  0.1282
  284MOL0     C38242   4.725   8.963   9.289  0.3859  0.2789 -0.4118
  284MOL0     C38243   4.705   9.103   9.342 -0.1893 -0.1790  0.5441
  284MOL0     C38244   4.563   9.155   9.292  0.8550  0.2023 -0.8906
  284MOL0     C38245   4.516   9.283   9.362  0.3450 -0.0387 -0.5845
  284MOL0     C38246   4.406   9.368   9.278  0.1867  0.0677 -2.1651
  284MOL0     C38247   4.350   9.484   9.365 -0.1076 -0.2404  0.9205
  284MOL0     C38248   4.234   9.456   9.460  0.3344  0.4773 -0.0414
  284MOL0     C38249   4.210   9.569   9.561  0.7405 -1.2303  0.1937
  284MOL0    Cl38250   4.059   9.561   9.670  0.1888  0.4539  0.2227
  284MOL0     C38251   4.885   8.827   9.065  0.0465  0.7169 -0.2287
  284MOL0     C38252   4.994   8.815   8.978  0.3438  0.8597 -1.3075
  284MOL0     O38253   5.042   8.922   8.632  0.0495 -0.1164 -0.1430
  284MOL0     C38254   5.400   8.934   8.702  0.0616 -0.7038 -0.1974
  284MOL0     C38255   5.522   8.935   8.633 -0.4564  0.1134 -0.6046
  284MOL0     N38256   6.323   8.865   8.482  0.1232  0.3403  1.1448
  284MOL0     N38257   6.432   8.917   8.519  0.9294  0.0952 -0.1920
  284MOL0     C38258   7.207   9.261   8.328 -0.0150 -0.0548  0.2239
  284MOL0     C38259   7.228   9.296   8.193  0.1947 -0.3696 -0.6041
  284MOL0     C38260   7.198   9.550   7.803 -0.0381  0.3594 -0.3236
  284MOL0     C38261   7.308   9.490   7.736 -0.1939 -0.0508 -0.2609
  284MOL0     C38262   7.329   9.515   7.599  0.4502 -0.5554  0.3394
  284MOL0     C38263   7.242   9.605   7.529  1.1383  0.6587 -1.0578
  284MOL0     O38264   7.277   9.642   7.403  0.3339  0.3925  0.5071
  284MOL0     C38265   7.182   9.710   7.324 -0.9041 -0.7515 -0.1607
  284MOL0     C38266   7.234   9.737   7.184  0.8146  0.0571 -0.0421
  284MOL0     C38267   7.130   9.825   7.112  0.5063 -0.7272 -1.1077
  284MOL0     C38268   7.183   9.901   7.007 -0.1111 -0.3554 -0.7975
  284MOL0     C38269   7.174   9.841   6.871 -0.0660 -0.3518 -0.7208
  284MOL0     C38270   7.167   9.776   6.767  0.3665 -0.1834 -0.8006
  284MOL0     C38271   7.138   9.672   7.602 -0.4383 -0.0012 -1.0507
  284MOL0     C38272   7.118   9.641   7.738 -0.2093 -0.3535 -0.5203
  284MOL0     H38273   7.231   9.632   8.208  0.4360  1.2491  2.0265
  284MOL0     H38274   7.186   9.590   8.440 -1.7207 -0.3331  0.1194
  284MOL0     H38275   7.258   9.467   8.672  0.1476  1.5314  1.1422
  284MOL0     H38276   7.086   9.505   8.639 -0.1548  0.3617  1.5245
  284MOL0     H38277   7.197   9.278   8.810 -1.1898 -0.3798  0.5701
  284MOL0     H38278   7.123   9.415   8.881  0.4758 -0.2909 -0.1042
  284MOL0     H38279   6.970   9.222   8.711  1.5762  0.6969 -2.0658
  284MOL0     H38280   6.968   9.224   8.878 -1.9974 -0.2579 -0.5227
  284MOL0     H38281   6.857   9.428   8.898 -0.5792  1.6279 -0.3233
  284MOL0     H38282   6.880   9.469   8.725  1.3032  2.8144  3.1868
  284MOL0     H38283   6.728   9.231   8.846 -4.4970 -1.0700 -2.7285
  284MOL0     H38284   6.642   9.372   8.804 -0.6549 -2.2241  1.1838
  284MOL0     H38285   6.732   9.328   8.556 -0.3246 -2.9216 -3.4307
  284MOL0     H38286   6.788   9.173   8.626  0.0636  0.9786 -1.4971
  284MOL0     H38287   6.559   9.121   8.705  3.4185 -0.5419  0.8195
  284MOL0     H38288   6.494   9.272   8.643  3.0125  1.4519  3.1067
  284MOL0     H38289   6.641   9.074   8.468  2.0421  1.3792  1.9544
  284MOL0     H38290   6.546   9.216   8.417  0.1699 -0.0347  0.9427
  284MOL0     H38291   6.321   9.163   8.337  0.7354  0.7046  0.2023
  284MOL0     H38292   6.121   8.990   8.249 -0.6412  0.0903  0.4089
  284MOL0     H38293   6.120   8.817   8.295 -4.4656 -1.9040  4.1443
  284MOL0     H38294   6.008   9.032   8.462 -1.5914 -1.7686  4.4553
  284MOL0     H38295   6.033   8.870   8.524  2.2446  0.0130  0.4571
  284MOL0     H38296   5.878   8.790   8.332 -0.3481  1.3881 -1.7281
  284MOL0     H38297   5.866   8.947   8.275 -0.2014  0.8434  0.6920
  284MOL0     H38298   5.803   9.029   8.503  6.8636  0.3165 -2.3405
  284MOL0     H38299   5.784   8.857   8.563 -1.5217 -0.1070  0.0777
  284MOL0     H38300   5.414   8.952   8.315  2.0340  1.4532 -0.2440
  284MOL0     H38301   5.171   9.117   8.430 -0.1047  0.8813 -1.4679
  284MOL0     H38302   5.221   9.003   8.299 -0.9533 -0.3277 -0.3675
  284MOL0     H38303   5.099   8.950   8.417 -0.6085  0.7805  0.7518
  284MOL0     H38304   5.013   9.136   8.875 -2.2157  0.9873  1.0109
  284MOL0     H38305   4.817   9.159   9.033  0.4940 -0.5690  2.1791
  284MOL0     H38306   4.662   8.885   9.333  1.4244  0.4611  1.5526
  284MOL0     H38307   4.826   8.930   9.317 -0.3798 -2.1912 -0.3547
  284MOL0     H38308   4.699   9.098   9.451  0.6130  1.6027  0.7101
  284MOL0     H38309   4.784   9.171   9.310 -2.2854  1.8970 -0.5011
  284MOL0     H38310   4.482   9.090   9.325  0.7553  2.0872  3.3002
  284MOL0     H38311   4.564   9.175   9.184  0.3778  1.1576 -0.7275
  284MOL0     H38312   4.478   9.258   9.461  1.7196 -0.5484 -0.1658
  284MOL0     H38313   4.606   9.341   9.384  1.7575 -2.4562  0.2929
  284MOL0     H38314   4.319   9.307   9.253  3.3459 -3.8946 -4.7570
  284MOL0     H38315   4.462   9.413   9.195  1.2892  4.6119  0.6904
  284MOL0     H38316   4.421   9.548   9.418 -0.4923  1.0883 -0.1044
  284MOL0     H38317   4.304   9.558   9.299  1.8939 -0.2326 -0.5535
  284MOL0     H38318   4.253   9.364   9.517 -0.6023 -1.3352 -2.4856
  284MOL0     H38319   4.142   9.426   9.408  1.1982  0.4608 -1.6048
  284MOL0     H38320   4.198   9.670   9.520 -0.5039  0.3031  3.9162
  284MOL0     H38321   4.300   9.566   9.624  0.7996  1.0001  0.2983
  284MOL0     H38322   4.846   8.747   9.128  0.0270  0.4266 -0.6060
  284MOL0     H38323   5.042   8.721   8.951  1.4899  0.8249  0.6968
  284MOL0     H38324   5.397   8.931   8.810  2.8936 -0.6755 -0.0256
  284MOL0     H38325   5.607   8.908   8.694 -0.7310 -2.7002 -1.3219
  284MOL0     H38326   7.207   9.156   8.355 -1.9500 -0.2719 -0.5168
  284MOL0     H38327   7.210   9.230   8.109  1.4460  0.1857 -1.3489
  284MOL0     H38328   7.384   9.426   7.780  1.9749  1.8462 -1.0463
  284MOL0     H38329   7.419   9.479   7.549 -0.8606 -1.5899 -1.4068
  284MOL0     H38330   7.087   9.656   7.314 -0.2260 -1.7999 -1.1214
  284MOL0     H38331   7.171   9.805   7.376 -3.0518 -1.8625  1.6223
  284MOL0     H38332   7.233   9.650   7.118  5.4307 -0.7473  0.6284
  284MOL0     H38333   7.335   9.778   7.177  0.5809  0.7762  0.5824
  284MOL0     H38334   7.092   9.889   7.192  2.9822  2.3135 -2.1538
  284MOL0     H38335   7.046   9.766   7.074  1.1405 -2.5789  0.2115
  284MOL0     H38336   7.287   9.927   7.026 -0.6420  1.0687  0.3528
  284MOL0     H38337   7.118   9.988   7.018  2.1432  1.4940 -1.2897
  284MOL0     H38338   7.150   9.728   6.672 -1.6913 -0.6938 -0.2323
  284MOL0     H38339   7.072   9.751   7.568 -3.9229 -0.7597  3.0961
  284MOL0     H38340   7.049   9.700   7.796 -1.1144  1.8867 -3.6249
  285MOL0     O38341  11.405   0.789  10.781  0.4217  0.0009  0.8724
  285MOL0     C38342  11.450   0.718  10.874  0.5797 -0.0253  1.2336
  285MOL0     O38343  11.382   0.667  10.985 -0.2998  0.0205 -0.1064
  285MOL0     C38344  11.258   0.703  11.009  0.1433 -0.4982 -0.5721
  285MOL0     C38345  11.178   0.597  11.047  0.7912  0.1567  0.5573
  285MOL0     C38346  11.043   0.615  11.081  0.2778 -0.2902  0.4351
  285MOL0     C38347  10.994   0.749  11.091  0.0633  0.4151 -1.8456
  285MOL0     O38348  10.861   0.765  11.140 -0.0894 -0.8956  0.1660
  285MOL0     C38349  10.797   0.898  11.142  0.2128  0.0837  1.0102
  285MOL0     C38350  10.735   0.919  11.001 -0.0984 -0.9660 -0.3226
  285MOL0     C38351  10.651   1.046  11.007  0.4105 -0.2214  0.3459
  285MOL0     C38352  10.582   1.076  10.867 -0.4387  0.2439  0.8009
  285MOL0     C38353  10.482   1.181  10.894  0.2378  0.6544 -0.1227
  285MOL0     C38354  10.401   1.244  10.775 -0.4545  0.0752  0.8186
  285MOL0     C38355  10.330   1.134  10.694  0.9756 -0.9685 -0.2289
  285MOL0     C38356  10.252   1.197  10.571 -0.5224  0.1302 -0.5108
  285MOL0     N38357  10.181   1.101  10.487  0.7215  0.5657  0.2766
  285MOL0     C38358  10.123   0.991  10.536  0.7391  0.1483  0.3637
  285MOL0     C38359  10.091   0.916  10.428 -0.0040 -0.0852 -1.1186
  285MOL0     C38360  10.031   0.782  10.437 -0.1606 -0.1868 -0.5947
  285MOL0     C38361   9.875   0.789  10.449  0.4191 -1.0901  0.4206
  285MOL0     C38362   9.821   0.876  10.338  0.1044  0.1840  0.6864
  285MOL0     C38363   9.820   0.804  10.200  0.0432 -0.3421 -0.4124
  285MOL0     O38364   9.738   0.882  10.116  0.2928  0.4389 -0.1073
  285MOL0     C38365   9.705   0.825   9.989 -0.1371 -0.8139  0.4037
  285MOL0     C38366   9.646   0.913   9.902  0.7488 -0.1318  0.6277
  285MOL0     C38367   9.596   0.867   9.779 -1.2694  0.1623 -0.2469
  285MOL0     C38368   9.528   0.978   9.693  0.4581 -0.0733 -0.0866
  285MOL0     C38369   9.607   0.729   9.740  0.2171  0.3495  0.5422
  285MOL0     C38370   9.560   0.670   9.611  0.0485  0.4751  0.3314
  285MOL0     O38371   9.572   0.758   9.498  0.2547  0.1792  0.4438
  285MOL0     C38372   9.542   0.717   9.365  0.2321  0.3555  0.6425
  285MOL0     C38373   9.634   0.723   9.258  0.9046  0.9627 -0.1060
  285MOL0     C38374   9.590   0.695   9.130  0.2505 -0.3803  0.1139
  285MOL0     C38375   9.464   0.645   9.104 -0.1521 -0.3246  0.3243
  285MOL0     O38376   9.439   0.622   8.974 -0.2566 -0.1921  0.0199
  285MOL0     C38377   9.310   0.575   8.919 -0.7236 -0.3865  0.0049
  285MOL0     C38378   9.306   0.425   8.929  0.5770  0.0362 -0.0106
  285MOL0     C38379   9.408   0.356   8.842 -0.2624  0.1278  0.3077
  285MOL0     C38380   9.419   0.207   8.884 -1.1969 -1.3127  1.2326
  285MOL0     C38381   9.536   0.135   8.807 -0.2901 -0.5981  0.7355
  285MOL0     C38382   9.487   0.104   8.665 -0.5415 -0.0745  1.7387
  285MOL0     C38383   9.592   0.103   8.552  0.0654 -0.3743 -0.2390
  285MOL0     C38384   9.717   0.030   8.604 -0.5084 -0.3164  0.0050
  285MOL0    Cl38385   9.664  -0.148   8.632 -0.4817 -0.3338  0.3623
  285MOL0     C38386   9.378   0.619   9.214 -0.2844 -0.4256  0.3092
  285MOL0     C38387   9.417   0.651   9.336 -0.8534  0.2549 -0.5970
  285MOL0     O38388   9.492   0.566   9.617  0.3389  0.4415  0.6202
  285MOL0     C38389   9.682   0.648   9.817  0.6449 -0.1724 -0.0116
  285MOL0     C38390   9.732   0.697   9.949  0.6389  0.1344  0.7689
  285MOL0     N38391  10.121   0.993  10.316 -0.8004 -0.2159  0.3503
  285MOL0     N38392  10.165   1.110  10.353  0.7534 -0.2806 -0.8007
  285MOL0     C38393  11.081   0.857  11.055  0.4064  0.7824 -0.7788
  285MOL0     C38394  11.210   0.836  11.009  0.0790 -0.5928  0.2777
  285MOL0     C38395  11.598   0.697  10.874  0.3957 -0.4567 -0.6639
  285MOL0     C38396  11.685   0.737  10.772 -0.4256  0.3219  0.6494
  285MOL0     C38397  11.825   0.715  10.778 -0.3822 -0.4600 -0.0154
  285MOL0     C38398  11.887   0.666  10.892  0.0999  1.3284 -0.1036
  285MOL0     O38399  12.018   0.637  10.899 -0.1254 -0.3434  0.1549
  285MOL0     C38400  12.111   0.720  10.833 -0.2997 -0.7699 -0.2878
  285MOL0     C38401  12.135   0.857  10.885  0.1023 -0.5349 -0.2222
  285MOL0     C38402  12.209   0.857  11.020  0.1633 -0.3959 -0.1570
  285MOL0     C38403  12.181   0.968  11.120 -0.4280 -0.4687 -0.3294
  285MOL0     C38404  12.234   0.952  11.249 -0.7448  0.9984  0.0572
  285MOL0     C38405  12.281   0.948  11.365  0.4417  0.3401 -0.8130
  285MOL0     C38406  11.803   0.627  10.999  0.6747  0.0817  0.3848
  285MOL0     C38407  11.662   0.657  10.989  1.3454  0.4272  0.4121
  285MOL0     H38408  11.220   0.497  11.046 -0.7866 -0.5201 -0.1246
  285MOL0     H38409  10.965   0.542  11.103 -0.9945  1.4598  1.9967
  285MOL0     H38410  10.716   0.887  11.216 -0.6939 -1.1829 -0.1170
  285MOL0     H38411  10.857   0.987  11.166 -2.3212  1.8457  1.2127
  285MOL0     H38412  10.820   0.952  10.941  0.9152  0.2477  1.6615
  285MOL0     H38413  10.686   0.827  10.967  1.5244 -2.2054  0.5837
  285MOL0     H38414  10.581   1.038  11.090 -0.4407 -0.5656 -0.3840
  285MOL0     H38415  10.713   1.136  11.010  0.1878 -0.0795  0.7500
  285MOL0     H38416  10.658   1.105  10.794 -1.1366  0.3346  0.0944
  285MOL0     H38417  10.533   0.987  10.826  0.4448  1.8338 -4.4030
  285MOL0     H38418  10.405   1.129  10.953  0.0733 -0.2146 -1.0668
  285MOL0     H38419  10.525   1.261  10.954  3.5202 -2.5613  2.2538
  285MOL0     H38420  10.326   1.318  10.804  0.7243  1.3321  0.7671
  285MOL0     H38421  10.463   1.289  10.698 -0.9785 -1.6119 -0.6595
  285MOL0     H38422  10.402   1.057  10.664  1.7594 -0.1433 -0.4876
  285MOL0     H38423  10.259   1.113  10.775  3.2732  1.1353  2.5148
  285MOL0     H38424  10.329   1.244  10.510  1.8046 -0.0230  2.0841
  285MOL0     H38425  10.175   1.268  10.604 -0.4155 -0.1393  0.3607
  285MOL0     H38426  10.100   0.972  10.640 -1.3388  4.3210  0.8465
  285MOL0     H38427  10.051   0.733  10.342 -0.3321 -1.1386 -0.1535
  285MOL0     H38428  10.077   0.731  10.522 -0.3716  0.4787 -0.0706
  285MOL0     H38429   9.847   0.843  10.540 -1.8050 -1.2815 -0.0899
  285MOL0     H38430   9.828   0.690  10.446  3.5266 -2.7001 -0.1673
  285MOL0     H38431   9.877   0.969  10.325 -0.5845  0.5107  0.0004
  285MOL0     H38432   9.716   0.902  10.359 -0.8854  0.7162 -3.8403
  285MOL0     H38433   9.775   0.705  10.210  0.4512 -0.6622 -1.5123
  285MOL0     H38434   9.923   0.807  10.162  0.0991 -1.3738 -0.3823
  285MOL0     H38435   9.649   1.015   9.937  3.9802 -0.3760  1.3879
  285MOL0     H38436   9.596   0.994   9.609  0.1630 -0.8027 -0.4710
  285MOL0     H38437   9.429   0.953   9.656  0.3752  1.3070 -0.8577
  285MOL0     H38438   9.497   1.068   9.748 -0.4608  0.3720 -1.2941
  285MOL0     H38439   9.736   0.756   9.274  1.5582 -0.8274 -0.3399
  285MOL0     H38440   9.650   0.711   9.041  0.1922 -0.8958 -0.0249
  285MOL0     H38441   9.233   0.631   8.973  1.8099  2.8085  0.6313
  285MOL0     H38442   9.304   0.599   8.812  2.0377  1.9117  0.2312
  285MOL0     H38443   9.299   0.407   9.037 -0.2289  0.8871  0.0829
  285MOL0     H38444   9.213   0.396   8.880 -1.2632  0.8919  2.7798
  285MOL0     H38445   9.504   0.406   8.858 -1.3112  2.3598  0.0812
  285MOL0     H38446   9.375   0.371   8.739 -1.8746  0.6137  0.8668
  285MOL0     H38447   9.435   0.196   8.992  0.9770 -0.3858  1.0561
  285MOL0     H38448   9.334   0.144   8.857  0.9030 -3.6485 -0.3171
  285MOL0     H38449   9.570   0.046   8.861  3.6657  0.9049  1.0599
  285MOL0     H38450   9.616   0.210   8.802 -1.6265  0.9084  1.0392
  285MOL0     H38451   9.442   0.004   8.667  3.3927 -2.1160 -0.1393
  285MOL0     H38452   9.408   0.170   8.629  0.2768 -0.2693 -0.5692
  285MOL0     H38453   9.620   0.202   8.513 -0.5005 -0.7623 -1.7292
  285MOL0     H38454   9.564   0.048   8.461  0.0943 -0.2666 -0.3148
  285MOL0     H38455   9.772   0.069   8.690  0.1603 -0.9948 -0.0973
  285MOL0     H38456   9.793   0.033   8.525  1.0204 -1.1352  1.3704
  285MOL0     H38457   9.276   0.582   9.203 -0.8024  0.5434  1.5424
  285MOL0     H38458   9.351   0.648   9.422 -1.8530 -1.0672 -1.3732
  285MOL0     H38459   9.709   0.549   9.783 -0.9198 -0.6255 -0.0076
  285MOL0     H38460   9.775   0.628  10.020  1.1049 -0.7950 -0.3765
  285MOL0     H38461  11.055   0.960  11.079 -0.5337  0.0291  1.7887
  285MOL0     H38462  11.273   0.922  10.993 -0.7653  0.4246  2.0748
  285MOL0     H38463  11.638   0.799  10.696  0.7452  0.2085 -0.2066
  285MOL0     H38464  11.883   0.728  10.687  5.8352  0.5915  3.5720
  285MOL0     H38465  12.207   0.668  10.840 -1.9759 -3.8289  2.2379
  285MOL0     H38466  12.090   0.727  10.726 -2.2082 -1.1569  0.0182
  285MOL0     H38467  12.035   0.897  10.899  1.8629  4.4639  0.1317
  285MOL0     H38468  12.188   0.927  10.820 -1.7172  3.3285  2.1070
  285MOL0     H38469  12.316   0.855  10.997  0.6031 -1.3558  1.8316
  285MOL0     H38470  12.197   0.757  11.062  0.7832 -1.1830 -1.7349
  285MOL0     H38471  12.075   0.984  11.144 -0.5951 -2.9431  0.8501
  285MOL0     H38472  12.220   1.060  11.077  2.2631 -0.5776  1.6598
  285MOL0     H38473  12.321   0.941  11.464 -0.6092  0.8439 -0.3370
  285MOL0     H38474  11.823   0.559  11.082 -1.8282 -4.7019 -2.4718
  285MOL0     H38475  11.596   0.619  11.067 -0.2650 -0.6809 -1.3963
  286MOL0     O38476   9.587   1.182   8.511 -0.3424 -0.2025  0.4266
  286MOL0     C38477   9.580   1.063   8.471 -0.7352  0.1434  0.8741
  286MOL0     O38478   9.595   0.951   8.545  0.6494  0.1307  0.2773
  286MOL0     C38479   9.639   0.965   8.672  0.6011  0.7652 -0.4002
  286MOL0     C38480   9.740   0.887   8.719  0.0918  0.5146  0.2307
  286MOL0     C38481   9.780   0.894   8.858 -0.3326 -0.6614  1.6355
  286MOL0     C38482   9.715   0.981   8.950  0.9344 -0.8377  0.3608
  286MOL0     O38483   9.776   1.001   9.075 -1.0151 -0.6435  0.0505
  286MOL0     C38484   9.742   1.104   9.154 -0.1465  0.3487  0.1058
  286MOL0     C38485   9.870   1.112   9.244 -0.7288  1.0445  0.2344
  286MOL0     C38486   9.889   0.986   9.335 -0.5955  0.6911 -0.9645
  286MOL0     C38487   9.922   1.031   9.481 -0.1419 -0.9382  1.3364
  286MOL0     C38488   9.941   0.908   9.565 -0.2992  0.4080 -0.3529
  286MOL0     C38489  10.016   0.954   9.699  0.8591  0.2133  0.1126
  286MOL0     C38490  10.077   0.821   9.757  0.1750 -0.6182  0.9965
  286MOL0     C38491  10.131   0.834   9.897  0.0538 -0.0936  0.9090
  286MOL0     N38492  10.166   0.708   9.960 -0.0210 -0.1546  0.6046
  286MOL0     C38493  10.190   0.705  10.097  0.5344  0.0804  0.1510
  286MOL0     C38494  10.172   0.570  10.126  0.7757 -0.3101  1.8028
  286MOL0     C38495  10.186   0.494  10.256 -1.0523  0.1657  0.4518
  286MOL0     C38496  10.050   0.426  10.291  0.5916 -1.0030  0.2303
  286MOL0     C38497  10.049   0.369  10.434  0.1501 -0.3205  0.7511
  286MOL0     C38498   9.937   0.267  10.457 -0.6557  0.1556 -0.3933
  286MOL0     O38499   9.814   0.334  10.482  0.0185  0.0828  0.2984
  286MOL0     C38500   9.764   0.360  10.613 -0.8962 -0.4512  0.1645
  286MOL0     C38501   9.785   0.492  10.660 -0.2880 -0.0330  0.9159
  286MOL0     C38502   9.773   0.528  10.795 -0.2279  0.0634 -0.1394
  286MOL0     C38503   9.790   0.677  10.824  0.1306 -0.0199 -0.3422
  286MOL0     C38504   9.733   0.429  10.888  0.3882 -0.0078 -0.0300
  286MOL0     C38505   9.722   0.459  11.035  0.5834  1.0669  0.8114
  286MOL0     O38506   9.727   0.590  11.075  0.2722  0.9500 -0.7083
  286MOL0     C38507   9.756   0.628  11.203 -0.4332 -0.7045 -0.0487
  286MOL0     C38508   9.746   0.558  11.320  0.0019  0.2651  0.4707
  286MOL0     C38509   9.771   0.618  11.455 -0.6421  1.3682  0.3295
  286MOL0     C38510   9.805   0.752  11.473  1.2262 -1.0946  0.0232
  286MOL0     O38511   9.835   0.818  11.592 -0.7423 -0.3261 -0.4874
  286MOL0     C38512   9.860   0.962  11.601  0.6279 -0.0874  0.0472
  286MOL0     C38513   9.895   1.008  11.741  0.1549  0.0773  0.4621
  286MOL0     C38514  10.036   0.957  11.779 -0.8774  0.0132 -0.0629
  286MOL0     C38515  10.101   1.050  11.882  0.4385 -0.0430 -0.3915
  286MOL0     C38516  10.252   1.009  11.906  0.5749  0.3052  2.0171
  286MOL0     C38517  10.325   1.092  12.015 -0.3222  0.9032 -0.8276
  286MOL0     C38518  10.475   1.044  12.015  0.3797 -0.6220  0.6921
  286MOL0     C38519  10.549   1.117  12.122  0.7700 -0.1005 -0.4831
  286MOL0    Cl38520  10.604   1.265  12.032  0.3028 -0.1476 -0.3267
  286MOL0     C38521   9.822   0.818  11.349 -0.2600  0.6501  0.0513
  286MOL0     C38522   9.807   0.757  11.220  0.1407 -0.0130  0.3567
  286MOL0     O38523   9.704   0.358  11.112  0.1824  0.4940 -0.0135
  286MOL0     C38524   9.700   0.303  10.838  0.1101  0.0753 -0.8014
  286MOL0     C38525   9.724   0.263  10.708 -0.6530  0.1554 -0.2033
  286MOL0     N38526  10.140   0.499  10.009 -0.4957 -0.4507  0.0182
  286MOL0     N38527  10.137   0.588   9.914 -0.4107 -0.6946 -0.4702
  286MOL0     C38528   9.600   1.055   8.897  0.2965  0.8532 -0.3395
  286MOL0     C38529   9.562   1.043   8.770  0.5132  0.1191  1.1620
  286MOL0     C38530   9.537   1.022   8.336  0.4808 -0.3400  0.8851
  286MOL0     C38531   9.543   0.889   8.284  0.0200 -1.0571  0.0186
  286MOL0     C38532   9.512   0.855   8.157 -0.0511 -0.3616 -0.6922
  286MOL0     C38533   9.466   0.955   8.076  0.0226 -0.3496 -0.0771
  286MOL0     O38534   9.439   0.933   7.946  0.3430 -0.1628 -0.2945
  286MOL0     C38535   9.490   0.817   7.869 -0.6512 -1.1504 -0.4048
  286MOL0     C38536   9.446   0.822   7.725 -0.5979 -0.0531 -0.2898
  286MOL0     C38537   9.520   0.918   7.638 -0.1255 -0.5980 -0.4346
  286MOL0     C38538   9.512   0.884   7.483  0.1226 -0.1678 -0.1123
  286MOL0     C38539   9.574   0.982   7.388  0.3614 -0.1074  0.0232
  286MOL0     C38540   9.597   1.039   7.282  0.7267  0.0002  0.8161
  286MOL0     C38541   9.465   1.090   8.113 -0.2534 -0.1030 -0.0650
  286MOL0     C38542   9.498   1.119   8.242 -0.4477  0.1101 -0.9858
  286MOL0     H38543   9.783   0.823   8.643 -1.7494  0.4270 -0.7873
  286MOL0     H38544   9.862   0.830   8.889 -2.6062 -2.6580  3.9603
  286MOL0     H38545   9.728   1.195   9.094  0.6910  1.6262  1.7539
  286MOL0     H38546   9.651   1.081   9.210  2.0682  1.3712  4.5385
  286MOL0     H38547   9.958   1.128   9.181  0.3075 -1.2771  1.0011
  286MOL0     H38548   9.863   1.200   9.310  1.1968  0.9660  0.6006
  286MOL0     H38549   9.796   0.929   9.341  0.4948 -1.0221  2.5033
  286MOL0     H38550   9.970   0.923   9.298 -1.9317 -0.4977 -1.9715
  286MOL0     H38551  10.014   1.090   9.477 -0.0665 -0.9895  2.1622
  286MOL0     H38552   9.834   1.093   9.501 -1.2921 -2.7113  2.0327
  286MOL0     H38553   9.842   0.865   9.584  0.5144 -1.1991  0.5521
  286MOL0     H38554  10.004   0.838   9.508  0.2012  1.2185 -0.8130
  286MOL0     H38555  10.103   1.017   9.680 -0.0207  2.2427  2.3377
  286MOL0     H38556   9.951   1.006   9.770 -2.5315 -1.1905 -1.7122
  286MOL0     H38557   9.996   0.747   9.764 -3.2608  2.4120 -2.2112
  286MOL0     H38558  10.158   0.793   9.689  1.7233  2.5823  1.3661
  286MOL0     H38559  10.059   0.890   9.958  0.5363 -2.3563  3.7989
  286MOL0     H38560  10.223   0.893   9.897 -1.0341  1.6693  0.6066
  286MOL0     H38561  10.214   0.790  10.159 -0.6756  0.5135  0.0663
  286MOL0     H38562  10.261   0.415  10.250  1.7422  2.4454  2.5345
  286MOL0     H38563  10.216   0.550  10.345 -0.4281 -0.7240  0.8141
  286MOL0     H38564  10.020   0.349  10.220 -0.0815 -0.0965 -0.5031
  286MOL0     H38565   9.982   0.512  10.284  2.4301  0.3648 -3.8937
  286MOL0     H38566  10.035   0.453  10.503 -2.5751  0.5789 -0.7263
  286MOL0     H38567  10.144   0.320  10.454  0.7818 -1.1418 -3.3868
  286MOL0     H38568   9.958   0.197  10.539 -0.7062  0.7142  0.1079
  286MOL0     H38569   9.940   0.195  10.375  0.1444  0.3248 -0.5094
  286MOL0     H38570   9.827   0.559  10.586 -3.2577  2.9315  1.6579
  286MOL0     H38571   9.802   0.733  10.731  2.1260  0.7744  0.3490
  286MOL0     H38572   9.697   0.725  10.857 -0.1786 -0.6963 -0.2138
  286MOL0     H38573   9.865   0.707  10.897  0.7486  0.6972 -1.2395
  286MOL0     H38574   9.706   0.458  11.318 -0.0248  0.2548  1.1776
  286MOL0     H38575   9.753   0.555  11.541 -0.2641  2.7254  1.4537
  286MOL0     H38576   9.936   0.985  11.526 -0.6803 -1.3840 -1.7695
  286MOL0     H38577   9.775   1.029  11.585 -0.2806 -0.9327  1.2365
  286MOL0     H38578   9.891   1.117  11.734 -1.6448  0.0848  1.0125
  286MOL0     H38579   9.816   0.985  11.814  0.5872 -0.6674  0.7071
  286MOL0     H38580  10.099   0.973  11.691  0.3694  0.4994  0.8930
  286MOL0     H38581  10.020   0.851  11.804 -2.6266  0.7574  2.3097
  286MOL0     H38582  10.096   1.155  11.852 -1.7922 -0.4516 -1.6819
  286MOL0     H38583  10.049   1.043  11.978  3.0926  0.8831  1.2112
  286MOL0     H38584  10.300   1.038  11.812 -1.1932  0.8140  1.2283
  286MOL0     H38585  10.258   0.900  11.919 -1.4977 -0.4338 -1.7414
  286MOL0     H38586  10.328   1.200  11.997 -1.9854  1.4736  1.7850
  286MOL0     H38587  10.277   1.068  12.111  2.3281 -2.2719 -0.1322
  286MOL0     H38588  10.518   1.053  11.914 -3.0507  2.3184 -0.6987
  286MOL0     H38589  10.490   0.939  12.044  4.0085 -0.6203 -0.5981
  286MOL0     H38590  10.628   1.051  12.158 -0.0836 -0.6061  0.5350
  286MOL0     H38591  10.488   1.140  12.209 -1.6973  0.2167 -2.1788
  286MOL0     H38592   9.844   0.925  11.347 -0.0090  0.6347  1.2399
  286MOL0     H38593   9.831   0.814  11.131 -1.9723  1.4800  0.6679
  286MOL0     H38594   9.670   0.217  10.897 -2.1713  0.3973 -1.3749
  286MOL0     H38595   9.711   0.159  10.679 -2.1449 -0.5526  2.6240
  286MOL0     H38596   9.559   1.128   8.966  0.8085 -1.2204  2.3037
  286MOL0     H38597   9.477   1.100   8.733  0.6419  0.4850  1.4216
  286MOL0     H38598   9.588   0.812   8.346  3.4687  0.8559  0.1379
  286MOL0     H38599   9.525   0.751   8.126  0.7249 -1.4818  2.8838
  286MOL0     H38600   9.599   0.820   7.874 -0.6078 -1.8332 -0.7422
  286MOL0     H38601   9.447   0.724   7.909 -3.6876  0.7888  1.1946
  286MOL0     H38602   9.342   0.855   7.720  0.7721  5.9606  1.8899
  286MOL0     H38603   9.461   0.720   7.689  1.4099 -0.3211  1.1074
  286MOL0     H38604   9.625   0.927   7.666  0.1301 -0.3097 -1.4457
  286MOL0     H38605   9.473   1.017   7.647  1.4264 -0.0209  2.3889
  286MOL0     H38606   9.409   0.872   7.448  0.6525  2.0359 -2.7664
  286MOL0     H38607   9.564   0.789   7.469  2.7783  1.3884 -1.6439
  286MOL0     H38608   9.632   1.080   7.190 -1.0671 -0.3086 -0.0603
  286MOL0     H38609   9.433   1.168   8.045  0.5915  1.7001  1.5167
  286MOL0     H38610   9.496   1.223   8.273 -0.4684  0.2379 -1.4120
  287MOL0     O38611   2.088   0.984   7.179 -0.5665 -0.5167  0.2042
  287MOL0     C38612   2.085   0.876   7.232 -0.3496  0.0591  0.2550
  287MOL0     O38613   1.996   0.774   7.198  0.1182 -0.0094 -1.0971
  287MOL0     C38614   1.890   0.791   7.113 -0.4057  0.8634  0.8670
  287MOL0     C38615   1.858   0.670   7.045  0.7800 -0.1362  0.7948
  287MOL0     C38616   1.743   0.669   6.964  0.3027 -0.4445 -0.0022
  287MOL0     C38617   1.671   0.782   6.928 -0.0128 -0.9481 -0.4838
  287MOL0     O38618   1.564   0.767   6.840 -0.6139 -0.1361 -0.1235
  287MOL0     C38619   1.506   0.873   6.768 -0.7214 -0.7571  0.0470
  287MOL0     C38620   1.375   0.829   6.695  0.0435  0.0517  0.5693
  287MOL0     C38621   1.256   0.871   6.781 -0.5568 -0.7778 -0.6763
  287MOL0     C38622   1.207   0.741   6.853 -0.7957  0.3287  0.5353
  287MOL0     C38623   1.095   0.765   6.940  0.1109 -0.4270 -0.4259
  287MOL0     C38624   0.969   0.825   6.866  0.2278  0.0181 -0.2976
  287MOL0     C38625   0.832   0.833   6.948  0.9719 -0.1509 -1.0648
  287MOL0     C38626   0.854   0.890   7.090  0.1963 -0.2694 -0.8247
  287MOL0     N38627   0.913   1.028   7.088 -0.1076  0.7550  0.1152
  287MOL0     C38628   0.847   1.133   7.023  0.2747  0.2280  0.2628
  287MOL0     C38629   0.938   1.233   7.059 -0.8038  0.2627  1.4019
  287MOL0     C38630   0.919   1.381   7.033 -0.3646  0.2370  0.9017
  287MOL0     C38631   0.953   1.405   6.885  1.2228 -0.3868 -0.2995
  287MOL0     C38632   0.894   1.551   6.847  0.1694  0.3486  0.1930
  287MOL0     C38633   0.971   1.627   6.734  1.0204  0.2639 -0.6081
  287MOL0     O38634   0.937   1.769   6.754 -0.3464  0.3557 -0.2324
  287MOL0     C38635   1.047   1.855   6.750 -0.4196  0.6785 -0.0674
  287MOL0     C38636   1.157   1.829   6.663 -0.2712 -0.1253 -0.3073
  287MOL0     C38637   1.278   1.901   6.664 -0.9300  0.1935  0.0292
  287MOL0     C38638   1.401   1.852   6.570  0.2158  0.4875  0.1370
  287MOL0     C38639   1.293   1.999   6.767 -0.0850 -0.4443  0.6945
  287MOL0     C38640   1.411   2.085   6.778 -0.3247 -0.2930  0.0360
  287MOL0     O38641   1.442   2.137   6.904  0.0836  0.3486  0.6939
  287MOL0     C38642   1.568   2.187   6.926  0.7596 -0.6353 -0.1154
  287MOL0     C38643   1.681   2.121   6.898 -0.4379  0.9682  0.0628
  287MOL0     C38644   1.802   2.191   6.915 -0.0042  0.8018  0.1187
  287MOL0     C38645   1.805   2.317   6.965 -0.6894 -1.0228 -0.2900
  287MOL0     O38646   1.918   2.384   7.011 -0.1933 -1.0192 -0.6076
  287MOL0     C38647   2.041   2.312   7.012 -0.2232  0.6222  0.9031
  287MOL0     C38648   2.147   2.419   7.019 -0.1565  0.5204 -0.3264
  287MOL0     C38649   2.295   2.376   7.024  0.0590 -0.0652 -0.1442
  287MOL0     C38650   2.340   2.333   7.162  1.3408 -0.1634  0.4127
  287MOL0     C38651   2.474   2.261   7.180 -1.2519 -0.5198 -0.0083
  287MOL0     C38652   2.594   2.315   7.095 -0.1816 -0.5537 -1.2886
  287MOL0     C38653   2.632   2.469   7.103 -0.4185  0.1239  0.5899
  287MOL0     C38654   2.767   2.481   7.030  0.4120 -0.5330  0.9850
  287MOL0    Cl38655   2.784   2.650   7.049  0.3383  0.0352 -0.0292
  287MOL0     C38656   1.685   2.381   6.995 -0.0163 -0.9186 -0.4463
  287MOL0     C38657   1.571   2.319   6.976  0.5860  0.6664  0.9148
  287MOL0     O38658   1.487   2.101   6.682  0.1163  0.3079 -0.1064
  287MOL0     C38659   1.184   2.023   6.845  0.4624 -0.5583 -1.0804
  287MOL0     C38660   1.067   1.944   6.854  0.3563  0.6852  1.2020
  287MOL0     N38661   1.050   1.193   7.114  1.2732  0.5278 -0.2076
  287MOL0     N38662   1.031   1.068   7.130 -0.7739 -0.4121 -0.3266
  287MOL0     C38663   1.708   0.903   6.992  0.4681  0.5280 -0.3965
  287MOL0     C38664   1.819   0.907   7.078  0.2084 -0.4679 -1.0373
  287MOL0     C38665   2.196   0.836   7.322  0.3638 -0.0367 -0.1893
  287MOL0     C38666   2.305   0.924   7.357 -0.1135  0.0606  0.7475
  287MOL0     C38667   2.421   0.882   7.422 -0.6176  0.2788 -0.3305
  287MOL0     C38668   2.427   0.751   7.466 -0.3758  0.8066  1.2746
  287MOL0     O38669   2.532   0.713   7.539 -0.0425  0.6854  0.0807
  287MOL0     C38670   2.585   0.804   7.639  0.0212  0.1234  0.3503
  287MOL0     C38671   2.676   0.731   7.741 -0.9766 -0.6281 -0.8358
  287MOL0     C38672   2.803   0.676   7.676  0.2026 -0.2638 -0.2635
  287MOL0     C38673   2.870   0.576   7.769  0.8306  0.3791 -0.6366
  287MOL0     C38674   2.803   0.453   7.784 -0.0987 -0.1998  0.5871
  287MOL0     C38675   2.762   0.336   7.796  0.1936  0.9427  0.4489
  287MOL0     C38676   2.329   0.655   7.427  0.2311  0.4053  0.5805
  287MOL0     C38677   2.213   0.699   7.365  0.5290 -0.1856 -0.3417
  287MOL0     H38678   1.910   0.577   7.065  0.5415 -0.0028  2.1229
  287MOL0     H38679   1.716   0.575   6.916 -1.5006  0.2005 -0.3479
  287MOL0     H38680   1.483   0.964   6.825  0.2210  0.3429 -1.2725
  287MOL0     H38681   1.574   0.906   6.689 -0.7768 -1.7835 -0.4449
  287MOL0     H38682   1.381   0.874   6.595 -0.4385  0.0700  0.5454
  287MOL0     H38683   1.369   0.723   6.667  2.7241 -1.5405  5.0320
  287MOL0     H38684   1.285   0.942   6.859 -0.8636  0.0641 -1.3137
  287MOL0     H38685   1.183   0.923   6.717 -0.1445 -3.0830 -3.1727
  287MOL0     H38686   1.176   0.672   6.774 -0.6705  0.9793 -0.0956
  287MOL0     H38687   1.287   0.701   6.915  1.6297  2.7427 -0.7995
  287MOL0     H38688   1.058   0.671   6.982  0.2413 -0.0424  0.5739
  287MOL0     H38689   1.132   0.835   7.015 -0.8141 -0.1647 -0.2009
  287MOL0     H38690   0.989   0.929   6.839 -0.6377 -0.0442 -1.2363
  287MOL0     H38691   0.956   0.771   6.772 -0.8260  2.8939 -1.9129
  287MOL0     H38692   0.757   0.895   6.898 -0.7033 -1.6864 -0.5288
  287MOL0     H38693   0.787   0.734   6.953  1.3884 -0.6274 -4.2392
  287MOL0     H38694   0.917   0.824   7.150 -0.4878  0.3575  0.6246
  287MOL0     H38695   0.763   0.901   7.149 -0.9714 -1.0681 -2.3817
  287MOL0     H38696   0.754   1.136   6.968  0.1470 -1.5647  0.3316
  287MOL0     H38697   0.812   1.401   7.047 -0.8592 -0.5523 -1.3265
  287MOL0     H38698   0.979   1.445   7.098 -0.6100  0.3617  1.0082
  287MOL0     H38699   0.910   1.330   6.818  1.3307  0.9687 -1.9599
  287MOL0     H38700   1.062   1.408   6.875  1.3945  1.7901  1.4063
  287MOL0     H38701   0.884   1.613   6.937  0.5455  0.2748  0.2877
  287MOL0     H38702   0.793   1.520   6.820  0.7408 -2.8083  1.2443
  287MOL0     H38703   0.957   1.589   6.632  2.6419 -0.7197 -0.5046
  287MOL0     H38704   1.078   1.606   6.748  0.6625 -1.4150 -0.0765
  287MOL0     H38705   1.148   1.746   6.594  0.2623 -4.0567  3.8520
  287MOL0     H38706   1.373   1.769   6.504 -2.1503  3.7160 -3.3511
  287MOL0     H38707   1.448   1.933   6.512  1.0354 -1.2395 -1.7293
  287MOL0     H38708   1.487   1.816   6.627  1.6149  2.1475 -0.7917
  287MOL0     H38709   1.687   2.021   6.855  1.6126  1.0679  0.0350
  287MOL0     H38710   1.892   2.133   6.896 -1.3251 -0.9635 -1.0735
  287MOL0     H38711   2.062   2.242   7.093  3.1202 -0.3914 -0.6721
  287MOL0     H38712   2.066   2.265   6.916 -2.2673  1.1779  0.0512
  287MOL0     H38713   2.142   2.497   6.943 -0.9964  5.5645  4.2585
  287MOL0     H38714   2.129   2.474   7.112  0.3340 -0.7879  0.5803
  287MOL0     H38715   2.346   2.466   6.987 -0.4376  0.5359  0.6118
  287MOL0     H38716   2.322   2.292   6.960  1.2350  0.7307 -0.7400
  287MOL0     H38717   2.341   2.419   7.230 -0.0866  0.8012 -0.7484
  287MOL0     H38718   2.264   2.257   7.182  0.8191  0.8369  2.5512
  287MOL0     H38719   2.461   2.155   7.159  0.2163 -1.0200  1.4236
  287MOL0     H38720   2.497   2.269   7.287  0.3859 -1.2962 -0.2860
  287MOL0     H38721   2.680   2.250   7.113  0.0177  0.6486  3.4034
  287MOL0     H38722   2.564   2.303   6.990 -0.4129  1.1369 -1.4389
  287MOL0     H38723   2.647   2.497   7.207  1.9215 -1.1303  0.6488
  287MOL0     H38724   2.550   2.521   7.051  0.1825  2.6694  2.0378
  287MOL0     H38725   2.786   2.461   6.925  2.4186  0.1809  1.1723
  287MOL0     H38726   2.842   2.442   7.100  0.2631  2.2034  2.8265
  287MOL0     H38727   1.667   2.478   7.039 -1.3293 -1.9814  1.5244
  287MOL0     H38728   1.474   2.352   7.012 -0.0177 -1.1896  1.1061
  287MOL0     H38729   1.185   2.096   6.926 -0.7530 -2.3833  0.6980
  287MOL0     H38730   0.986   1.952   6.926 -0.1277  1.5564  0.5750
  287MOL0     H38731   1.654   0.996   6.976 -1.2606 -0.2375  0.7621
  287MOL0     H38732   1.846   1.007   7.109  1.0491 -0.6184 -1.2604
  287MOL0     H38733   2.300   1.032   7.350  1.7129  0.1464  0.2816
  287MOL0     H38734   2.498   0.955   7.443 -2.6763  2.3761  0.2771
  287MOL0     H38735   2.649   0.883   7.598  0.5360 -0.2698  0.3895
  287MOL0     H38736   2.511   0.853   7.703 -0.5628  0.9760 -0.9397
  287MOL0     H38737   2.632   0.641   7.784  2.3604 -1.8410  0.3842
  287MOL0     H38738   2.699   0.792   7.828 -1.6508 -0.9082 -0.4520
  287MOL0     H38739   2.870   0.756   7.645  1.9371 -1.1633  0.9984
  287MOL0     H38740   2.772   0.611   7.593 -1.6831 -1.0932  0.9969
  287MOL0     H38741   2.886   0.615   7.870  1.5541 -0.3985 -0.4390
  287MOL0     H38742   2.964   0.555   7.717  0.8538  0.0143 -0.4491
  287MOL0     H38743   2.711   0.249   7.833  1.2852  1.0474  2.3198
  287MOL0     H38744   2.333   0.552   7.461  0.4359  0.0238 -0.5593
  287MOL0     H38745   2.137   0.625   7.346  1.4108 -1.9060  2.3045
  288MOL0     O38746   9.960   5.822   8.583 -0.0101 -0.3084 -0.3788
  288MOL0     C38747  10.048   5.816   8.662 -0.6470 -0.2004  0.3281
  288MOL0     O38748  10.051   5.741   8.775 -0.9879 -0.2737 -0.1133
  288MOL0     C38749   9.937   5.675   8.809 -0.0379  0.1802 -0.0296
  288MOL0     C38750   9.809   5.735   8.829  0.1871  0.1003 -1.2542
  288MOL0     C38751   9.703   5.652   8.872 -0.0273  0.2861  0.2223
  288MOL0     C38752   9.728   5.511   8.904  0.2110  0.8740  1.2428
  288MOL0     O38753   9.628   5.419   8.934 -0.0006  0.2316  0.9705
  288MOL0     C38754   9.600   5.308   8.831  1.2950 -0.9577  0.1943
  288MOL0     C38755   9.477   5.218   8.874 -0.2009  0.0343 -0.4366
  288MOL0     C38756   9.459   5.097   8.785 -0.7624  0.1696 -0.3172
  288MOL0     C38757   9.575   4.996   8.796 -0.8429 -0.1975  0.4734
  288MOL0     C38758   9.526   4.864   8.744 -0.3348  0.6568  0.5379
  288MOL0     C38759   9.471   4.867   8.602  0.2885  0.7764  0.3480
  288MOL0     C38760   9.442   4.736   8.536  1.3629  0.2917  0.0583
  288MOL0     C38761   9.556   4.639   8.501  0.6656  0.0846  0.0990
  288MOL0     N38762   9.521   4.495   8.498  0.8308 -0.0501 -0.1348
  288MOL0     C38763   9.395   4.457   8.456 -1.0776  0.9406 -0.4058
  288MOL0     C38764   9.411   4.327   8.435  0.6419  0.9389  0.1831
  288MOL0     C38765   9.309   4.219   8.406  0.4301 -0.6640 -0.2987
  288MOL0     C38766   9.276   4.140   8.528 -0.0392  0.5054  0.4430
  288MOL0     C38767   9.144   4.066   8.502  0.4999  0.4725 -1.0116
  288MOL0     C38768   9.100   3.971   8.618  0.2559 -0.2985 -1.2016
  288MOL0     O38769   9.017   4.043   8.708  0.3392 -0.0554  0.4777
  288MOL0     C38770   9.021   4.000   8.838 -0.2313  0.4178  1.2726
  288MOL0     C38771   8.905   3.966   8.903 -0.5319 -0.8641 -0.0528
  288MOL0     C38772   8.897   3.893   9.018 -0.3511 -0.3329  1.1296
  288MOL0     C38773   8.771   3.820   9.061 -0.2129  1.0318  0.5205
  288MOL0     C38774   9.019   3.872   9.081  0.0186  0.1171  0.4653
  288MOL0     C38775   9.024   3.829   9.227 -0.3985  0.7394  0.0465
  288MOL0     O38776   8.942   3.873   9.318  0.3733 -0.1122 -0.6076
  288MOL0     C38777   8.895   4.002   9.327 -0.0252  0.0368 -0.2233
  288MOL0     C38778   8.984   4.113   9.326 -0.3221 -0.6309  0.5107
  288MOL0     C38779   8.923   4.244   9.327 -0.6455 -0.6696  0.1236
  288MOL0     C38780   8.785   4.259   9.339  0.1820  0.0032  0.0249
  288MOL0     O38781   8.721   4.382   9.344 -0.5479 -0.9099 -0.4532
  288MOL0     C38782   8.784   4.511   9.382  0.8588 -0.8750  0.5785
  288MOL0     C38783   8.848   4.576   9.257 -0.8368  0.3311 -0.0290
  288MOL0     C38784   8.924   4.707   9.281 -0.6288  0.0772 -0.0935
  288MOL0     C38785   8.836   4.831   9.300 -0.6232  0.7603  0.4568
  288MOL0     C38786   8.811   4.910   9.168  0.2400  0.4513  0.7165
  288MOL0     C38787   8.936   4.982   9.120  0.6159  0.7493 -0.4203
  288MOL0     C38788   8.894   5.040   8.988 -0.4413 -1.4314  0.9248
  288MOL0     C38789   9.011   5.046   8.894 -1.0488 -0.1662  0.4481
  288MOL0    Cl38790   9.142   5.147   8.981 -0.6316  0.5394 -0.4460
  288MOL0     C38791   8.703   4.155   9.356  0.0373  0.2214  0.2036
  288MOL0     C38792   8.758   4.023   9.365  0.5391 -0.4100 -0.1236
  288MOL0     O38793   9.121   3.755   9.250  0.9665 -0.2293  0.6712
  288MOL0     C38794   9.144   3.909   9.029 -0.2225 -0.7435 -0.2169
  288MOL0     C38795   9.144   3.973   8.904 -0.2091 -0.4818  0.2968
  288MOL0     N38796   9.544   4.285   8.462  0.5208  0.2024 -0.3243
  288MOL0     N38797   9.605   4.387   8.499  0.3123 -0.6721 -0.4948
  288MOL0     C38798   9.855   5.463   8.907 -0.4228 -0.1784  0.2843
  288MOL0     C38799   9.961   5.540   8.855  0.5000  0.6632  0.7732
  288MOL0     C38800  10.167   5.896   8.647  0.6439  0.2980 -0.1218
  288MOL0     C38801  10.203   5.940   8.523  1.1283  0.0655  0.4252
  288MOL0     C38802  10.296   6.038   8.527 -1.0201 -0.2425  1.0008
  288MOL0     C38803  10.362   6.083   8.641 -0.8081  0.3994 -0.3135
  288MOL0     O38804  10.468   6.170   8.639 -0.0665 -0.5761 -0.4198
  288MOL0     C38805  10.559   6.171   8.533  0.5497  0.3622  0.1410
  288MOL0     C38806  10.526   6.293   8.454 -0.7253 -0.6467 -0.3376
  288MOL0     C38807  10.620   6.314   8.325 -0.7816 -0.1765 -0.3838
  288MOL0     C38808  10.578   6.211   8.214  0.7302 -0.4186 -0.4817
  288MOL0     C38809  10.653   6.262   8.097  0.0995  0.0934  0.2873
  288MOL0     C38810  10.722   6.296   8.003 -0.3537  0.1506  0.6757
  288MOL0     C38811  10.322   6.042   8.764 -0.0681 -0.2555  0.7526
  288MOL0     C38812  10.220   5.948   8.765 -0.6333  0.4620  0.3770
  288MOL0     H38813   9.794   5.835   8.792  2.5688 -0.5013 -4.2930
  288MOL0     H38814   9.606   5.693   8.898  0.9169  0.8364  3.2735
  288MOL0     H38815   9.578   5.352   8.733 -0.4998 -2.0006  0.1007
  288MOL0     H38816   9.690   5.255   8.798 -0.1630 -2.2126 -1.9616
  288MOL0     H38817   9.498   5.177   8.974 -0.1029  1.2317  0.0531
  288MOL0     H38818   9.384   5.274   8.886 -0.9997 -1.0271 -1.4454
  288MOL0     H38819   9.367   5.041   8.803 -0.9612  0.7908  0.6990
  288MOL0     H38820   9.465   5.121   8.679  1.6486 -2.5386 -0.9545
  288MOL0     H38821   9.650   5.030   8.724  0.5938 -4.0818 -0.0905
  288MOL0     H38822   9.615   4.994   8.897  0.0878  0.1223  0.1246
  288MOL0     H38823   9.608   4.792   8.744 -0.6401  0.3015  0.9873
  288MOL0     H38824   9.448   4.819   8.807  0.2626 -3.0811 -1.1317
  288MOL0     H38825   9.374   4.918   8.608 -0.7507 -1.0421  0.0560
  288MOL0     H38826   9.549   4.913   8.541 -0.2112  2.0948  0.6783
  288MOL0     H38827   9.390   4.685   8.617  1.4920  0.3274  0.1635
  288MOL0     H38828   9.373   4.739   8.451 -0.4719 -1.7983  1.3659
  288MOL0     H38829   9.625   4.643   8.585  1.0600  2.3198 -0.2806
  288MOL0     H38830   9.601   4.669   8.406  1.2553  2.7713  1.1397
  288MOL0     H38831   9.301   4.512   8.454 -0.0333  2.8016 -0.0231
  288MOL0     H38832   9.224   4.284   8.382  0.3220  0.0735  1.8817
  288MOL0     H38833   9.349   4.153   8.329  1.5805 -1.1754  0.7018
  288MOL0     H38834   9.273   4.210   8.612 -0.2866  0.5193  0.4227
  288MOL0     H38835   9.351   4.061   8.543  0.7317  1.0212 -0.6111
  288MOL0     H38836   9.155   3.998   8.418 -1.0069  0.7880 -1.4868
  288MOL0     H38837   9.055   4.127   8.483 -2.2853 -2.8915  0.2551
  288MOL0     H38838   9.184   3.931   8.675  1.3169  5.3247  1.9401
  288MOL0     H38839   9.033   3.890   8.587 -2.0771  0.4493  1.5051
  288MOL0     H38840   8.817   3.985   8.842 -0.2914  2.7437  0.5580
  288MOL0     H38841   8.801   3.736   9.124 -0.5874  0.2094 -0.3657
  288MOL0     H38842   8.708   3.886   9.121  1.6463  2.8200  0.6058
  288MOL0     H38843   8.715   3.776   8.977  0.2914  1.0436  0.1736
  288MOL0     H38844   9.089   4.097   9.305  0.3908  3.4068  0.1441
  288MOL0     H38845   8.990   4.329   9.327 -1.1779 -0.2275  1.6520
  288MOL0     H38846   8.720   4.582   9.435  0.3425 -0.8963 -0.0035
  288MOL0     H38847   8.855   4.487   9.462  1.6692  1.5624  0.6956
  288MOL0     H38848   8.914   4.497   9.218  0.2425  1.1241  0.1458
  288MOL0     H38849   8.782   4.604   9.175  0.4292  1.0893 -0.8263
  288MOL0     H38850   8.997   4.732   9.203  0.2254 -0.7942  0.4067
  288MOL0     H38851   8.974   4.686   9.376  3.2554 -1.9365 -2.3198
  288MOL0     H38852   8.741   4.796   9.341 -0.0004  0.5013  1.7185
  288MOL0     H38853   8.875   4.901   9.374  0.8094  0.3415  0.1360
  288MOL0     H38854   8.733   4.985   9.180 -2.5899 -2.2388  0.5416
  288MOL0     H38855   8.774   4.835   9.097  1.4582 -0.2339  0.7785
  288MOL0     H38856   8.969   5.063   9.185  0.6645 -0.1640  0.7112
  288MOL0     H38857   9.016   4.910   9.102 -0.7263 -0.1574 -3.6692
  288MOL0     H38858   8.857   5.140   9.013  3.9306  1.2796 -1.9291
  288MOL0     H38859   8.810   4.986   8.943 -0.4255 -0.7248  0.0007
  288MOL0     H38860   8.990   5.089   8.796  2.3154 -1.1783 -0.8785
  288MOL0     H38861   9.051   4.944   8.884 -0.2167  0.1541  0.4129
  288MOL0     H38862   8.596   4.166   9.369  0.2058  2.0418  0.2845
  288MOL0     H38863   8.685   3.948   9.393 -0.1388 -0.9015 -2.8992
  288MOL0     H38864   9.237   3.877   9.075 -0.2279 -0.1673  0.1941
  288MOL0     H38865   9.245   3.998   8.871 -0.0107 -1.0886  0.4307
  288MOL0     H38866   9.864   5.356   8.924  1.8829 -0.1814 -0.6215
  288MOL0     H38867  10.066   5.512   8.852  0.6890  1.3644  0.5620
  288MOL0     H38868  10.166   5.882   8.439 -0.9687 -2.3059  2.7704
  288MOL0     H38869  10.312   6.080   8.428 -0.7747  1.8072  1.8677
  288MOL0     H38870  10.664   6.186   8.560  0.0609  3.4018  0.6830
  288MOL0     H38871  10.558   6.079   8.475  0.1688  0.8911 -0.7102
  288MOL0     H38872  10.553   6.385   8.508  1.5563 -0.9899 -0.8023
  288MOL0     H38873  10.424   6.299   8.415 -1.2106 -3.3717  0.3211
  288MOL0     H38874  10.724   6.293   8.353  0.8700  1.9632 -4.0187
  288MOL0     H38875  10.617   6.413   8.279 -3.3270 -1.1033 -2.4399
  288MOL0     H38876  10.470   6.205   8.202  0.5947 -0.5960  0.6718
  288MOL0     H38877  10.608   6.110   8.247  0.4160 -0.0857  0.9045
  288MOL0     H38878  10.784   6.319   7.919  0.7689  0.8224  1.6498
  288MOL0     H38879  10.354   6.087   8.857  0.1320  0.6317  0.2614
  288MOL0     H38880  10.187   5.909   8.861  1.8009 -0.5170  0.8946
  289MOL0     O38881   4.957   7.642   8.405  0.3232 -1.2446 -0.2982
  289MOL0     C38882   5.002   7.658   8.519 -0.0333 -0.9049  0.3864
  289MOL0     O38883   5.064   7.564   8.602 -0.3283  0.1460  0.1129
  289MOL0     C38884   5.071   7.444   8.547 -0.3229 -0.2986  1.0677
  289MOL0     C38885   4.981   7.353   8.573  0.8116  0.9349  1.4555
  289MOL0     C38886   4.979   7.236   8.491  0.1165 -0.6486 -0.2424
  289MOL0     C38887   5.082   7.213   8.398 -0.3958 -0.7357 -0.2221
  289MOL0     O38888   5.101   7.092   8.339  0.4583  0.0949  0.2136
  289MOL0     C38889   4.993   7.002   8.326  0.2907 -0.4811 -0.2322
  289MOL0     C38890   5.048   6.871   8.260  0.3852 -0.6116 -0.0770
  289MOL0     C38891   5.073   6.759   8.373 -0.4911  0.1990 -0.3571
  289MOL0     C38892   5.077   6.612   8.326 -0.8465 -0.2372  0.0902
  289MOL0     C38893   5.069   6.506   8.443 -0.4987  0.3206  0.0919
  289MOL0     C38894   5.131   6.369   8.389 -0.6100  0.5016  0.0453
  289MOL0     C38895   5.134   6.267   8.500  0.2266 -0.3468 -0.2777
  289MOL0     C38896   5.235   6.302   8.619 -0.0477  0.8365 -0.3583
  289MOL0     N38897   5.369   6.329   8.567 -0.1401 -1.0517  0.4177
  289MOL0     C38898   5.438   6.445   8.569  0.2130 -0.0926 -0.2775
  289MOL0     C38899   5.558   6.421   8.506  0.1463 -0.2632  0.0283
  289MOL0     C38900   5.666   6.521   8.499 -0.3621 -0.1348  0.8996
  289MOL0     C38901   5.686   6.590   8.364  0.2032 -0.0521 -0.0091
  289MOL0     C38902   5.743   6.496   8.252 -0.6547  0.2361  0.1250
  289MOL0     C38903   5.796   6.591   8.138 -0.7574 -0.1294  0.5252
  289MOL0     O38904   5.913   6.672   8.165  0.4591 -0.4189 -0.1161
  289MOL0     C38905   5.961   6.755   8.069 -0.0825  0.6293 -0.5317
  289MOL0     C38906   6.094   6.794   8.076 -0.6694  0.3066  0.5091
  289MOL0     C38907   6.155   6.880   7.993  0.7545 -0.4214 -0.8513
  289MOL0     C38908   6.298   6.904   8.027  0.3512  0.7024 -0.7178
  289MOL0     C38909   6.080   6.934   7.880  0.5303  0.7097 -0.9827
  289MOL0     C38910   6.142   7.037   7.789  0.0714  0.4449 -0.2974
  289MOL0     O38911   6.058   7.119   7.718  0.2320  0.1588  0.8573
  289MOL0     C38912   6.107   7.197   7.616 -0.2738  0.3883 -0.2909
  289MOL0     C38913   6.201   7.147   7.525 -0.4597  0.2801  0.2451
  289MOL0     C38914   6.265   7.230   7.432  0.6576  0.1686 -0.0581
  289MOL0     C38915   6.225   7.364   7.412  0.4383 -1.3891 -0.7947
  289MOL0     O38916   6.285   7.444   7.331  0.7390 -0.6940  0.6044
  289MOL0     C38917   6.337   7.380   7.217 -0.6193  0.0302 -0.2272
  289MOL0     C38918   6.360   7.492   7.110  0.0901 -0.0913 -0.3369
  289MOL0     C38919   6.243   7.512   7.006 -0.0185 -0.2333  0.0349
  289MOL0     C38920   6.288   7.566   6.869  0.0427  0.0930  0.2017
  289MOL0     C38921   6.166   7.597   6.773 -0.5947 -0.2702  0.0122
  289MOL0     C38922   6.087   7.725   6.807 -0.6639  0.2805  0.5186
  289MOL0     C38923   5.962   7.752   6.722  0.3603 -0.5369  0.0787
  289MOL0     C38924   5.921   7.907   6.737 -0.4200  0.3403  1.1533
  289MOL0    Cl38925   5.804   7.915   6.591  0.2283  0.1959 -0.2315
  289MOL0     C38926   6.124   7.412   7.497  0.3106  0.1301 -0.6153
  289MOL0     C38927   6.060   7.331   7.596 -1.1351 -0.2411 -0.3912
  289MOL0     O38928   6.263   7.070   7.799  0.4904  0.4259 -0.5463
  289MOL0     C38929   5.944   6.897   7.870 -0.9167 -0.0356  0.3470
  289MOL0     C38930   5.882   6.825   7.974 -0.1186 -0.0193 -0.0657
  289MOL0     N38931   5.562   6.283   8.471  0.2971  0.1414  0.1100
  289MOL0     N38932   5.449   6.231   8.519  0.1451  0.6815 -0.5247
  289MOL0     C38933   5.180   7.319   8.381 -0.0313  0.2141 -0.5644
  289MOL0     C38934   5.173   7.430   8.452  0.2446 -0.1617  0.2374
  289MOL0     C38935   5.009   7.799   8.571 -0.9994 -0.8724 -0.9516
  289MOL0     C38936   4.973   7.907   8.479  0.2103  0.2391 -1.4586
  289MOL0     C38937   4.995   8.031   8.514 -0.0169 -0.6938  0.9460
  289MOL0     C38938   5.035   8.076   8.640  0.9926 -0.4137 -0.2012
  289MOL0     O38939   5.065   8.200   8.679 -0.2815 -0.1088  0.5718
  289MOL0     C38940   5.006   8.318   8.636  0.6097  0.3903  0.0454
  289MOL0     C38941   5.077   8.399   8.526 -0.6894  0.5819 -0.4943
  289MOL0     C38942   5.005   8.534   8.502  0.1304 -1.0333 -0.1757
  289MOL0     C38943   5.089   8.638   8.416  0.2539  0.8142  0.5230
  289MOL0     C38944   5.128   8.597   8.284 -0.2309 -0.6667 -0.1477
  289MOL0     C38945   5.160   8.552   8.179  0.4905 -0.0407  0.4711
  289MOL0     C38946   5.064   7.976   8.730  0.5581 -0.4114 -0.6005
  289MOL0     C38947   5.054   7.838   8.699  0.1453  0.0729 -0.2077
  289MOL0     H38948   4.907   7.378   8.648  2.3015  1.9903  2.6337
  289MOL0     H38949   4.897   7.167   8.505 -1.9163  1.5495 -0.6754
  289MOL0     H38950   4.951   6.980   8.425  0.2904 -0.3133 -0.1960
  289MOL0     H38951   4.913   7.041   8.263  0.6070  0.3917 -0.1099
  289MOL0     H38952   4.976   6.833   8.188 -0.5111 -3.1127  1.9806
  289MOL0     H38953   5.141   6.890   8.206  1.2233 -4.7608 -0.4897
  289MOL0     H38954   5.166   6.794   8.421 -0.9278  0.7948  0.0655
  289MOL0     H38955   4.994   6.753   8.448 -1.6295 -2.8146 -1.6523
  289MOL0     H38956   4.997   6.575   8.262 -1.4013 -0.3679  0.8424
  289MOL0     H38957   5.175   6.591   8.283 -0.8538  1.6122 -0.9132
  289MOL0     H38958   5.130   6.533   8.529  0.0544 -1.7206  0.3844
  289MOL0     H38959   4.971   6.493   8.489 -1.2220  2.4506 -0.6950
  289MOL0     H38960   5.062   6.334   8.312  0.3077 -0.0401 -0.5558
  289MOL0     H38961   5.227   6.375   8.336  0.6540  1.3025  2.2469
  289MOL0     H38962   5.043   6.244   8.556  2.4990  0.4104  4.2212
  289MOL0     H38963   5.161   6.168   8.463  1.3222 -0.2216  0.1545
  289MOL0     H38964   5.229   6.208   8.675  0.3746  0.1949 -1.3575
  289MOL0     H38965   5.206   6.381   8.689 -1.3793  0.6277 -0.6420
  289MOL0     H38966   5.407   6.536   8.618  0.9431 -0.1264  0.2696
  289MOL0     H38967   5.664   6.602   8.573 -1.4772 -0.8692  1.7127
  289MOL0     H38968   5.765   6.477   8.516 -0.4748 -1.2537 -1.0372
  289MOL0     H38969   5.746   6.680   8.376 -3.3062  2.5447 -0.1371
  289MOL0     H38970   5.588   6.626   8.331  0.5655  1.6440  0.6555
  289MOL0     H38971   5.659   6.434   8.221  0.9287 -1.7784 -0.3664
  289MOL0     H38972   5.826   6.434   8.289 -0.2760  0.3623 -0.5041
  289MOL0     H38973   5.712   6.654   8.109 -1.6682 -1.3632  0.3948
  289MOL0     H38974   5.817   6.550   8.038  2.0366  2.2050 -0.0130
  289MOL0     H38975   6.151   6.749   8.156 -0.5677  0.6286  0.6170
  289MOL0     H38976   6.364   6.832   7.978  1.7459  0.4851  1.3382
  289MOL0     H38977   6.336   7.004   8.001  1.3007  0.7156  0.6461
  289MOL0     H38978   6.311   6.897   8.135 -0.8046  0.8085 -0.5596
  289MOL0     H38979   6.231   7.043   7.523 -0.7031  0.2091 -1.3721
  289MOL0     H38980   6.341   7.183   7.370 -0.2870  1.7743 -2.6310
  289MOL0     H38981   6.428   7.336   7.259 -0.9493 -0.5162 -0.0637
  289MOL0     H38982   6.280   7.294   7.181  1.4379 -0.0862 -3.5363
  289MOL0     H38983   6.391   7.588   7.151  2.6250 -1.1845  0.4885
  289MOL0     H38984   6.442   7.456   7.047  2.0403  0.2253  1.8883
  289MOL0     H38985   6.173   7.584   7.049 -0.1626  1.3434 -2.5950
  289MOL0     H38986   6.195   7.417   6.982 -1.2264  0.2748  0.3868
  289MOL0     H38987   6.335   7.665   6.878  0.7146 -0.1830 -0.2137
  289MOL0     H38988   6.356   7.494   6.824 -0.3050  1.1832 -2.2233
  289MOL0     H38989   6.090   7.518   6.767 -0.3413 -0.5303  0.2267
  289MOL0     H38990   6.220   7.603   6.678  1.0288 -1.2001  0.8302
  289MOL0     H38991   6.069   7.730   6.915  0.9435  0.0661  0.8255
  289MOL0     H38992   6.156   7.809   6.791 -0.3721  0.1765  1.1721
  289MOL0     H38993   5.877   7.688   6.747 -0.1382  0.4606  1.0453
  289MOL0     H38994   5.996   7.726   6.622  3.1956 -1.0551  1.0861
  289MOL0     H38995   6.007   7.971   6.717  1.6198 -2.4596  0.3940
  289MOL0     H38996   5.869   7.918   6.833 -2.9769 -1.3076  0.0725
  289MOL0     H38997   6.080   7.508   7.471 -0.0322  0.2531  0.3799
  289MOL0     H38998   5.981   7.378   7.654 -1.2015 -0.8666  0.0410
  289MOL0     H38999   5.882   6.945   7.795  2.2804  3.9552 -0.0843
  289MOL0     H39000   5.775   6.809   7.984 -0.7388  2.2126 -2.1054
  289MOL0     H39001   5.257   7.302   8.306 -0.5865 -4.5063 -0.3876
  289MOL0     H39002   5.240   7.515   8.441 -0.0293  0.0886  0.4956
  289MOL0     H39003   4.926   7.888   8.383 -0.3011 -0.5056 -1.0697
  289MOL0     H39004   4.980   8.103   8.434  0.8186 -1.8819 -0.3223
  289MOL0     H39005   4.904   8.300   8.599  0.3495  1.1699  0.3458
  289MOL0     H39006   5.001   8.383   8.724  1.1415  0.9484 -0.3286
  289MOL0     H39007   5.079   8.340   8.434 -1.1377 -1.5733  0.8045
  289MOL0     H39008   5.179   8.424   8.554 -1.6232  3.8763  0.4742
  289MOL0     H39009   4.980   8.590   8.593 -0.2910 -0.8484 -0.4079
  289MOL0     H39010   4.912   8.516   8.447 -0.6515 -0.1646  0.8190
  289MOL0     H39011   5.173   8.677   8.474 -0.3674  1.8048  0.7789
  289MOL0     H39012   5.034   8.732   8.409  2.0057  1.9658  1.5863
  289MOL0     H39013   5.212   8.514   8.093  3.2959  2.6117  0.8272
  289MOL0     H39014   5.097   8.008   8.828 -3.5490 -0.7510  1.0943
  289MOL0     H39015   5.081   7.765   8.775  0.3770  1.5486  1.1960
  290MOL0     O39016  10.914   1.253   1.115  0.2087 -0.5272  0.9153
  290MOL0     C39017  10.940   1.367   1.157 -0.0828 -0.4158 -0.8165
  290MOL0     O39018  10.856   1.472   1.147  0.7346  0.4241 -0.0313
  290MOL0     C39019  10.749   1.479   1.055  0.0225 -0.2002 -1.3767
  290MOL0     C39020  10.763   1.574   0.948  0.4650 -0.5340 -0.1399
  290MOL0     C39021  10.664   1.589   0.849 -0.1870  0.5483 -0.2836
  290MOL0     C39022  10.543   1.515   0.870  0.0128  0.0015  0.6763
  290MOL0     O39023  10.429   1.548   0.798 -0.5695  0.8673 -0.4919
  290MOL0     C39024  10.374   1.447   0.710 -0.3715 -0.6163 -0.0550
  290MOL0     C39025  10.269   1.486   0.620 -0.1448  0.4695  0.5929
  290MOL0     C39026  10.308   1.597   0.534 -0.2145 -0.3412 -0.6219
  290MOL0     C39027  10.407   1.551   0.429 -0.0576  0.2360 -0.8794
  290MOL0     C39028  10.436   1.663   0.331 -1.4324 -0.8069 -0.2904
  290MOL0     C39029  10.337   1.672   0.212 -0.8564 -0.4365 -0.1020
  290MOL0     C39030  10.396   1.591   0.088 -1.6688 -0.8741  0.2265
  290MOL0     C39031  10.294   1.578  -0.033  0.7735 -0.1629 -0.4150
  290MOL0     N39032  10.172   1.490   0.004 -0.5305 -0.2580 -0.1215
  290MOL0     C39033  10.060   1.478  -0.076  0.2465  0.1734 -0.4121
  290MOL0     C39034   9.983   1.374  -0.028  0.5524 -0.1117 -0.1409
  290MOL0     C39035   9.850   1.322  -0.069 -0.3088 -0.4573  1.1628
  290MOL0     C39036   9.841   1.270  -0.202  0.1402  0.3110 -0.5715
  290MOL0     C39037   9.871   1.358  -0.319  0.0770 -0.7730  0.7744
  290MOL0     C39038   9.792   1.487  -0.323  0.1638  0.0251 -0.5362
  290MOL0     O39039   9.811   1.563  -0.442  0.3431 -0.2615  0.8065
  290MOL0     C39040   9.720   1.654  -0.491  0.3767 -0.3003  0.0063
  290MOL0     C39041   9.601   1.684  -0.418 -0.3603  0.4299  0.0512
  290MOL0     C39042   9.505   1.771  -0.473  0.8361 -0.5140 -0.3299
  290MOL0     C39043   9.384   1.804  -0.386  0.2110 -0.7335  0.3877
  290MOL0     C39044   9.523   1.821  -0.597 -0.6630  0.2970 -0.5331
  290MOL0     C39045   9.421   1.915  -0.652 -0.9407 -0.0128  0.4436
  290MOL0     O39046   9.296   1.926  -0.612 -0.0920 -0.0558  0.3377
  290MOL0     C39047   9.223   2.032  -0.656  0.0678  0.2199  0.4478
  290MOL0     C39048   9.116   2.000  -0.737 -0.7105 -0.4649 -0.6283
  290MOL0     C39049   9.030   2.101  -0.779 -0.0526 -0.3541  0.2922
  290MOL0     C39050   9.052   2.235  -0.741  0.2573  0.1092  0.0412
  290MOL0     O39051   8.970   2.332  -0.792  0.1131 -0.5051  0.0796
  290MOL0     C39052   8.936   2.438  -0.705 -0.8420 -0.2877  0.5508
  290MOL0     C39053   8.799   2.477  -0.742 -0.2123  0.5010 -0.5644
  290MOL0     C39054   8.788   2.557  -0.866 -0.4462 -0.9831 -0.8437
  290MOL0     C39055   8.682   2.669  -0.866  0.3848  0.5901 -0.1843
  290MOL0     C39056   8.529   2.619  -0.859 -0.7209  0.5477 -0.3757
  290MOL0     C39057   8.484   2.560  -0.990 -0.0819  0.3254 -0.9498
  290MOL0     C39058   8.334   2.532  -0.980  1.7505 -0.2646  0.4841
  290MOL0     C39059   8.271   2.456  -1.096 -0.5032  0.7593 -0.3809
  290MOL0    Cl39060   8.106   2.411  -1.050  0.2269  0.1674  0.1927
  290MOL0     C39061   9.167   2.267  -0.670 -0.5336 -0.2439 -0.0621
  290MOL0     C39062   9.252   2.163  -0.628 -0.3669  0.8448 -0.2229
  290MOL0     O39063   9.466   1.976  -0.746  0.4706  0.4394 -0.6614
  290MOL0     C39064   9.635   1.783  -0.674 -0.2095 -0.2217  0.1794
  290MOL0     C39065   9.736   1.704  -0.619 -0.2694 -1.0605 -0.2373
  290MOL0     N39066  10.062   1.319   0.074  0.3549  0.3060 -0.2668
  290MOL0     N39067  10.175   1.382   0.087 -0.4258  0.3996 -0.1289
  290MOL0     C39068  10.529   1.430   0.982  0.1979  0.3500  1.1059
  290MOL0     C39069  10.631   1.406   1.067 -0.3898  0.2131  0.5122
  290MOL0     C39070  11.054   1.388   1.247  0.3856  0.5572 -1.5400
  290MOL0     C39071  11.123   1.274   1.308 -0.0372  1.1422 -0.7462
  290MOL0     C39072  11.232   1.298   1.385  0.2802  0.3951  0.1251
  290MOL0     C39073  11.275   1.427   1.422 -0.0293 -0.5962 -0.2140
  290MOL0     O39074  11.371   1.432   1.508  1.2699 -0.4532 -0.2657
  290MOL0     C39075  11.320   1.440   1.637 -0.6429 -0.3522  0.3624
  290MOL0     C39076  11.433   1.375   1.727  1.4504  0.2989  0.1927
  290MOL0     C39077  11.549   1.478   1.756  1.2732  1.0204  0.0065
  290MOL0     C39078  11.676   1.413   1.803  0.0918  0.1521 -0.6523
  290MOL0     C39079  11.776   1.501   1.870 -0.6589 -0.9662  0.2782
  290MOL0     C39080  11.858   1.575   1.923 -0.0394 -1.4513  0.4249
  290MOL0     C39081  11.199   1.528   1.377 -1.0268 -0.1915  0.1947
  290MOL0     C39082  11.096   1.521   1.284 -0.2539 -0.5769  0.6796
  290MOL0     H39083  10.859   1.621   0.931  0.8037 -0.1178  2.4812
  290MOL0     H39084  10.669   1.658   0.765 -0.8776  3.2344  1.7372
  290MOL0     H39085  10.459   1.407   0.655  0.8899 -1.6341  2.4614
  290MOL0     H39086  10.341   1.358   0.765 -2.1204 -3.0478 -4.5603
  290MOL0     H39087  10.235   1.398   0.564 -0.8407 -0.2604  2.0995
  290MOL0     H39088  10.186   1.531   0.675  0.5238  0.8295  1.3214
  290MOL0     H39089  10.215   1.631   0.487 -1.6282 -1.2298  1.3573
  290MOL0     H39090  10.348   1.678   0.596 -1.3846  1.0160 -1.5546
  290MOL0     H39091  10.499   1.519   0.477  2.4202 -0.1745 -5.4006
  290MOL0     H39092  10.369   1.458   0.384  1.5511 -2.8409  3.3914
  290MOL0     H39093  10.431   1.757   0.386 -2.0456 -1.5601  0.9971
  290MOL0     H39094  10.542   1.660   0.304 -0.6983  3.7929  1.2804
  290MOL0     H39095  10.242   1.630   0.246 -1.6755  1.2503 -0.1896
  290MOL0     H39096  10.314   1.776   0.188  0.1620 -0.6297 -2.1279
  290MOL0     H39097  10.480   1.654   0.057  0.0966 -4.1770 -2.4201
  290MOL0     H39098  10.433   1.493   0.121 -0.0076 -1.2111 -2.3735
  290MOL0     H39099  10.337   1.520  -0.115 -0.0749 -0.3562 -0.7303
  290MOL0     H39100  10.267   1.678  -0.069  2.5068 -0.1387 -1.7756
  290MOL0     H39101  10.050   1.543  -0.162 -0.5178  0.5753 -0.0296
  290MOL0     H39102   9.813   1.243  -0.002 -0.7403 -0.6684  0.6800
  290MOL0     H39103   9.779   1.404  -0.072 -0.5637 -0.6782 -2.4535
  290MOL0     H39104   9.743   1.222  -0.195  0.1572  0.5703  2.7721
  290MOL0     H39105   9.912   1.187  -0.205  1.5064  1.4328 -0.1508
  290MOL0     H39106   9.836   1.308  -0.410 -1.3196 -1.1033  1.4691
  290MOL0     H39107   9.978   1.375  -0.334  0.2151  0.7795  3.0687
  290MOL0     H39108   9.837   1.546  -0.243  1.0045 -0.1826 -0.8430
  290MOL0     H39109   9.689   1.453  -0.313  0.4581 -1.1325 -1.2071
  290MOL0     H39110   9.585   1.637  -0.321  1.0482  1.1180  0.6444
  290MOL0     H39111   9.379   1.914  -0.384 -0.7479 -0.5730 -3.1232
  290MOL0     H39112   9.299   1.764  -0.443  2.3802 -1.5870 -2.4970
  290MOL0     H39113   9.403   1.763  -0.287  3.0187 -2.4024 -0.7358
  290MOL0     H39114   9.096   1.898  -0.768 -1.2049  0.4083 -3.3934
  290MOL0     H39115   8.946   2.077  -0.844  1.0340  1.4829 -1.9562
  290MOL0     H39116   8.930   2.402  -0.602  1.0312  1.9370  1.5177
  290MOL0     H39117   9.006   2.521  -0.715  1.1578 -1.9400  0.1491
  290MOL0     H39118   8.723   2.399  -0.750 -1.5656  1.9176 -2.2745
  290MOL0     H39119   8.764   2.530  -0.653  4.9676 -1.9334  3.5315
  290MOL0     H39120   8.763   2.494  -0.952 -0.7859 -2.1694  0.1057
  290MOL0     H39121   8.879   2.617  -0.880 -0.6153  1.0024  4.5497
  290MOL0     H39122   8.698   2.744  -0.788  1.9564  1.8951 -1.6812
  290MOL0     H39123   8.687   2.719  -0.963 -0.3525  1.2900  0.1181
  290MOL0     H39124   8.463   2.702  -0.831  0.6551  1.6907 -0.4340
  290MOL0     H39125   8.515   2.539  -0.786 -0.5054  0.5589 -0.3239
  290MOL0     H39126   8.489   2.618  -1.082 -2.7148 -1.0054 -2.0169
  290MOL0     H39127   8.532   2.464  -1.013 -1.8118 -1.1686  1.1661
  290MOL0     H39128   8.267   2.618  -0.968 -0.0379 -1.9745  4.2670
  290MOL0     H39129   8.316   2.471  -0.892 -0.3986 -0.5040 -0.0539
  290MOL0     H39130   8.330   2.369  -1.125 -0.0693  0.8482  0.2296
  290MOL0     H39131   8.264   2.503  -1.195  4.0444 -1.6927 -2.1636
  290MOL0     H39132   9.192   2.371  -0.652 -1.5422  0.4240 -2.1366
  290MOL0     H39133   9.341   2.179  -0.568  1.0315  1.0175 -2.2287
  290MOL0     H39134   9.631   1.807  -0.780 -0.3285  3.0361  0.8143
  290MOL0     H39135   9.818   1.680  -0.685  0.7044 -1.6501  1.1254
  290MOL0     H39136  10.434   1.385   1.012 -0.5116  3.8282  5.1400
  290MOL0     H39137  10.636   1.332   1.146  1.0195 -0.9118 -0.5731
  290MOL0     H39138  11.083   1.174   1.297 -1.3450  1.4893  0.5278
  290MOL0     H39139  11.273   1.215   1.443 -0.0864  0.8345  1.0309
  290MOL0     H39140  11.316   1.545   1.669 -0.6390 -0.4071  0.5445
  290MOL0     H39141  11.227   1.384   1.654 -0.5791 -0.3634  0.6808
  290MOL0     H39142  11.476   1.287   1.679 -1.1016 -0.4226 -0.9355
  290MOL0     H39143  11.382   1.352   1.822  1.3721 -1.2817 -0.1935
  290MOL0     H39144  11.515   1.551   1.831  0.8497  0.4097  0.4188
  290MOL0     H39145  11.580   1.522   1.660  2.9544 -0.8282 -0.3547
  290MOL0     H39146  11.720   1.342   1.733  0.8001 -1.2299  1.1194
  290MOL0     H39147  11.642   1.355   1.890 -0.7429 -0.4126 -1.3454
  290MOL0     H39148  11.930   1.632   1.979  0.9189 -3.0219  0.8568
  290MOL0     H39149  11.221   1.622   1.427 -2.6331 -0.9070  2.4452
  290MOL0     H39150  11.055   1.607   1.231 -0.3410  0.3025  2.1089
  291MOL0     O39151   4.760   6.991   8.913  0.7594 -0.3067 -0.5648
  291MOL0     C39152   4.749   6.881   8.861 -0.2102  0.0356 -0.4821
  291MOL0     O39153   4.852   6.807   8.792 -0.4799  0.0678  0.1602
  291MOL0     C39154   4.988   6.846   8.767 -0.3399  0.3362  0.0930
  291MOL0     C39155   5.090   6.756   8.732  0.5914  1.1429  0.4179
  291MOL0     C39156   5.225   6.800   8.696 -0.1388  0.4423 -1.0378
  291MOL0     C39157   5.250   6.935   8.683 -0.3487  0.4398 -0.7230
  291MOL0     O39158   5.384   6.972   8.643 -0.1043 -0.8092 -0.2546
  291MOL0     C39159   5.388   7.044   8.517  0.7594  0.0932 -1.1656
  291MOL0     C39160   5.422   6.937   8.412 -0.2352 -0.8575  0.0412
  291MOL0     C39161   5.444   6.981   8.275 -0.1809 -0.6765 -0.2657
  291MOL0     C39162   5.473   6.857   8.190 -0.7993 -0.4622 -0.3932
  291MOL0     C39163   5.473   6.894   8.039  0.1305 -0.5758  0.3204
  291MOL0     C39164   5.337   6.939   7.981 -0.7871  0.6162 -0.5244
  291MOL0     C39165   5.329   6.956   7.835  0.4563 -0.2024 -0.1997
  291MOL0     C39166   5.188   7.002   7.785  0.2028  0.4390  0.4926
  291MOL0     N39167   5.183   7.044   7.648 -0.0520  0.0952  0.9473
  291MOL0     C39168   5.171   6.959   7.540 -0.1568  0.3293 -1.0464
  291MOL0     C39169   5.140   7.042   7.440  0.5793 -0.3485 -0.5071
  291MOL0     C39170   5.133   7.010   7.294  0.0938 -0.7244 -0.4788
  291MOL0     C39171   5.265   7.031   7.221  0.8160 -0.1277  0.0376
  291MOL0     C39172   5.304   7.182   7.201 -0.2530 -0.2444  0.0108
  291MOL0     C39173   5.240   7.246   7.081 -0.0219  0.2991 -0.3417
  291MOL0     O39174   5.268   7.386   7.103  0.2635 -0.0536  0.5172
  291MOL0     C39175   5.256   7.468   7.000  0.0164 -0.5187 -0.3282
  291MOL0     C39176   5.304   7.598   7.023 -0.0595 -0.5343  0.2135
  291MOL0     C39177   5.311   7.698   6.930  0.4133  0.1096  0.0672
  291MOL0     C39178   5.388   7.819   6.967 -0.7814 -0.4175  0.4804
  291MOL0     C39179   5.241   7.681   6.808 -0.0372  0.2971  0.6060
  291MOL0     C39180   5.223   7.785   6.706 -0.8851  0.5620 -0.2769
  291MOL0     O39181   5.200   7.758   6.577  1.3956  0.5249  0.3429
  291MOL0     C39182   5.236   7.849   6.471  0.4507  1.1427  0.4008
  291MOL0     C39183   5.356   7.907   6.461 -0.2209 -0.3694 -0.0864
  291MOL0     C39184   5.388   7.988   6.350  0.8816 -0.1573 -0.2669
  291MOL0     C39185   5.292   8.003   6.246 -1.2136  0.5194  0.5703
  291MOL0     O39186   5.320   8.071   6.128  0.1108  0.0534  0.1737
  291MOL0     C39187   5.211   8.151   6.074 -0.1670  0.2293 -0.3292
  291MOL0     C39188   5.142   8.090   5.955 -0.4720  0.4185 -0.6825
  291MOL0     C39189   5.229   8.073   5.827 -0.0633 -0.5411 -0.2673
  291MOL0     C39190   5.223   8.213   5.756 -1.0055  0.6703  0.3186
  291MOL0     C39191   5.312   8.231   5.629  0.1544 -0.2970 -0.4181
  291MOL0     C39192   5.466   8.227   5.666 -0.3851 -0.0361 -0.3119
  291MOL0     C39193   5.556   8.271   5.549 -0.9079 -0.3077 -0.2275
  291MOL0     C39194   5.710   8.256   5.568 -0.3847  1.0617  0.8127
  291MOL0    Cl39195   5.787   8.373   5.675 -0.0190  0.0915 -0.2067
  291MOL0     C39196   5.177   7.928   6.255 -0.2312 -0.3241  1.0202
  291MOL0     C39197   5.151   7.845   6.362  0.0425 -0.5643 -0.9972
  291MOL0     O39198   5.234   7.904   6.748  0.3114  1.1524  0.5114
  291MOL0     C39199   5.186   7.550   6.781 -0.9260  0.1446  0.1359
  291MOL0     C39200   5.186   7.450   6.876 -0.6502  0.6945 -0.4283
  291MOL0     N39201   5.135   7.167   7.488 -0.0213 -0.6133 -0.1918
  291MOL0     N39202   5.166   7.171   7.614  0.2277 -0.2134  0.9208
  291MOL0     C39203   5.151   7.030   8.705  0.0095  0.0012  0.1881
  291MOL0     C39204   5.026   6.985   8.755  0.2436  0.4611  0.2021
  291MOL0     C39205   4.616   6.821   8.842  0.7407 -0.1863 -0.5416
  291MOL0     C39206   4.527   6.798   8.957 -0.9209  0.6067 -0.0589
  291MOL0     C39207   4.400   6.746   8.933  0.3065 -0.1109 -0.4552
  291MOL0     C39208   4.354   6.724   8.803  0.5509 -0.0686 -0.7311
  291MOL0     O39209   4.229   6.683   8.761 -0.2311 -0.2071 -0.4872
  291MOL0     C39210   4.132   6.697   8.864  0.8643 -0.2796  0.0149
  291MOL0     C39211   4.105   6.854   8.889  0.7059  0.8848 -0.4867
  291MOL0     C39212   4.064   6.920   8.764 -0.2010 -0.5639 -0.1459
  291MOL0     C39213   3.989   7.050   8.775 -0.3275  0.0384 -0.2176
  291MOL0     C39214   4.072   7.165   8.806 -0.6347 -0.6679 -1.0664
  291MOL0     C39215   4.140   7.272   8.815  0.9739 -0.0928  0.5516
  291MOL0     C39216   4.443   6.745   8.696  0.0934  0.2148 -0.1198
  291MOL0     C39217   4.568   6.795   8.713 -0.3002 -0.7015 -0.0357
  291MOL0     H39218   5.076   6.648   8.737  1.6128  0.9854  5.2162
  291MOL0     H39219   5.300   6.726   8.670 -0.1575  0.9508 -2.6442
  291MOL0     H39220   5.289   7.081   8.491  0.5451 -1.5134 -2.8213
  291MOL0     H39221   5.464   7.123   8.512 -0.3525  1.1193 -2.3476
  291MOL0     H39222   5.521   6.899   8.438  1.0004 -0.1919 -3.1967
  291MOL0     H39223   5.356   6.851   8.407 -1.6054  0.1932 -0.6947
  291MOL0     H39224   5.356   7.033   8.236  0.6588 -0.6725 -2.2731
  291MOL0     H39225   5.526   7.053   8.282 -0.7561 -0.1957  2.7941
  291MOL0     H39226   5.573   6.832   8.224 -0.5013  0.4153 -0.6079
  291MOL0     H39227   5.404   6.774   8.209 -0.3633 -0.5126  1.1214
  291MOL0     H39228   5.549   6.973   8.031 -1.1966  0.5828 -2.9066
  291MOL0     H39229   5.507   6.816   7.970 -0.0812  1.7512 -2.6297
  291MOL0     H39230   5.280   6.853   8.019  4.2557 -1.2113  4.4670
  291MOL0     H39231   5.302   7.034   8.022 -3.1301  0.9357 -3.0096
  291MOL0     H39232   5.399   7.032   7.800 -0.5290  0.5786 -0.5155
  291MOL0     H39233   5.350   6.861   7.785 -0.1277 -2.1547  2.9642
  291MOL0     H39234   5.150   7.078   7.854 -1.6905  0.9165 -0.9871
  291MOL0     H39235   5.117   6.919   7.792 -1.6821  2.0224  1.1149
  291MOL0     H39236   5.201   6.855   7.538  1.3117  0.6970  0.1990
  291MOL0     H39237   5.105   6.905   7.279 -0.1051 -1.2138  2.6060
  291MOL0     H39238   5.054   7.068   7.246  0.3917 -2.3557 -3.1190
  291MOL0     H39239   5.271   6.992   7.119  0.0921  0.4363 -0.2314
  291MOL0     H39240   5.340   6.980   7.282 -0.0684  1.0193  2.1975
  291MOL0     H39241   5.412   7.202   7.196  0.0529 -2.0586 -2.2302
  291MOL0     H39242   5.267   7.234   7.290 -1.0638  2.0984 -1.6094
  291MOL0     H39243   5.132   7.236   7.094  0.2887 -0.1201  2.3908
  291MOL0     H39244   5.273   7.197   6.989 -1.5929 -1.1207 -0.2013
  291MOL0     H39245   5.348   7.624   7.119  0.8081 -0.0157 -0.3167
  291MOL0     H39246   5.324   7.902   6.998 -1.4289 -1.1512  1.1440
  291MOL0     H39247   5.457   7.803   7.050  0.2503 -1.2335 -0.5017
  291MOL0     H39248   5.454   7.858   6.889 -1.8972  0.7920  0.1070
  291MOL0     H39249   5.433   7.897   6.536  0.2107  0.8910 -0.3386
  291MOL0     H39250   5.482   8.042   6.342  0.8690 -0.2060 -0.7763
  291MOL0     H39251   5.137   8.169   6.152 -2.7861 -2.6820 -1.9078
  291MOL0     H39252   5.263   8.245   6.052 -0.4605  0.7129  0.9856
  291MOL0     H39253   5.100   7.992   5.977  0.3104  0.5895  1.8373
  291MOL0     H39254   5.054   8.152   5.937  0.2277  1.9220  0.7712
  291MOL0     H39255   5.175   7.996   5.772 -2.6843  1.1573 -0.2715
  291MOL0     H39256   5.330   8.044   5.859 -0.4811 -1.8050 -0.0664
  291MOL0     H39257   5.118   8.224   5.729 -0.8832  2.1403  0.3884
  291MOL0     H39258   5.260   8.286   5.828  3.2276 -1.2578  0.4507
  291MOL0     H39259   5.285   8.326   5.581  3.5189 -0.3304 -2.7521
  291MOL0     H39260   5.302   8.145   5.563  0.8285 -1.1146  0.5152
  291MOL0     H39261   5.475   8.304   5.744 -3.7105  0.3924 -0.1844
  291MOL0     H39262   5.495   8.127   5.698 -1.7532 -0.1432  0.6934
  291MOL0     H39263   5.534   8.374   5.519  2.2470  0.6711  0.4716
  291MOL0     H39264   5.523   8.198   5.474 -1.5067 -0.7207  0.4190
  291MOL0     H39265   5.759   8.246   5.471  2.2157  0.4353  2.1151
  291MOL0     H39266   5.723   8.160   5.619 -1.3384  1.8258  2.6076
  291MOL0     H39267   5.107   7.904   6.175  0.6196 -3.8508  1.1472
  291MOL0     H39268   5.073   7.770   6.371 -0.2337 -0.2361 -0.5974
  291MOL0     H39269   5.148   7.532   6.681 -0.4442  2.5146 -0.5544
  291MOL0     H39270   5.140   7.352   6.862  3.3001 -1.8928  2.6726
  291MOL0     H39271   5.177   7.134   8.688  2.0718 -0.4328  0.3274
  291MOL0     H39272   4.957   7.060   8.792 -0.6802 -0.6519  0.7934
  291MOL0     H39273   4.562   6.804   9.060 -0.3188 -0.4062 -0.1849
  291MOL0     H39274   4.338   6.734   9.021  2.5710  0.7043  1.3751
  291MOL0     H39275   4.041   6.664   8.814 -0.3864  2.0309  0.6300
  291MOL0     H39276   4.147   6.632   8.951  0.8287 -1.1543 -0.6160
  291MOL0     H39277   4.185   6.900   8.948 -0.4672 -0.7257  2.5906
  291MOL0     H39278   4.026   6.865   8.964  1.0003  1.0941 -0.2049
  291MOL0     H39279   3.992   6.865   8.703 -1.8846  2.2555 -0.8533
  291MOL0     H39280   4.149   6.943   8.699  0.8474 -1.4371  0.8746
  291MOL0     H39281   3.898   7.033   8.835 -0.9148 -0.7160 -1.2908
  291MOL0     H39282   3.955   7.071   8.674 -0.0803 -1.2191 -0.5809
  291MOL0     H39283   4.198   7.362   8.823  1.1902 -0.2205  0.4303
  291MOL0     H39284   4.421   6.728   8.591 -2.5937  2.3063 -0.0064
  291MOL0     H39285   4.633   6.802   8.626 -0.2117 -1.2993 -0.0192
  292MOL0     O39286  10.334   2.576   4.602  0.3049  0.5451  0.4813
  292MOL0     C39287  10.390   2.671   4.560  0.5575  0.4443 -0.4404
  292MOL0     O39288  10.375   2.729   4.433  0.0232 -0.1836 -0.6472
  292MOL0     C39289  10.318   2.654   4.333 -1.1067  0.8487 -0.3291
  292MOL0     C39290  10.218   2.714   4.245  0.1048  1.0679 -0.5707
  292MOL0     C39291  10.146   2.646   4.141  0.4260  0.2997  0.0033
  292MOL0     C39292  10.198   2.511   4.114  0.3616  0.6606 -1.1565
  292MOL0     O39293  10.154   2.453   4.002  0.5401 -0.5734  0.7483
  292MOL0     C39294  10.060   2.349   4.030 -0.7384 -0.0298 -1.4787
  292MOL0     C39295   9.987   2.337   3.905  0.2373 -0.7379 -0.7626
  292MOL0     C39296   9.888   2.214   3.913  0.5156  0.1141  0.7876
  292MOL0     C39297   9.800   2.197   3.775 -0.6050  0.9089 -0.6505
  292MOL0     C39298   9.671   2.114   3.787  0.5864 -0.1418  0.6010
  292MOL0     C39299   9.623   2.048   3.661 -0.1016 -0.7652 -0.4310
  292MOL0     C39300   9.548   2.142   3.559 -0.4188  0.5860 -0.2478
  292MOL0     C39301   9.524   2.064   3.428 -0.5985  0.8408  0.6241
  292MOL0     N39302   9.493   2.157   3.318 -0.0955 -0.6648 -0.3773
  292MOL0     C39303   9.383   2.248   3.317 -0.2357  0.1222  0.3201
  292MOL0     C39304   9.394   2.297   3.195 -1.2560 -1.2089 -0.9246
  292MOL0     C39305   9.294   2.404   3.142 -0.0240  0.2230 -0.0849
  292MOL0     C39306   9.321   2.459   2.995 -0.9859 -0.9231 -0.3737
  292MOL0     C39307   9.209   2.561   2.954 -1.1711  1.5287 -0.1516
  292MOL0     C39308   9.204   2.606   2.810  0.0216 -0.1051  0.5217
  292MOL0     O39309   9.082   2.671   2.788  0.0729  0.0332 -0.4736
  292MOL0     C39310   9.082   2.810   2.777  0.7827  0.7894 -0.0168
  292MOL0     C39311   9.192   2.891   2.798 -1.2644  0.2151  0.2660
  292MOL0     C39312   9.188   3.026   2.768  0.1163 -0.1122  0.3507
  292MOL0     C39313   9.316   3.113   2.780  0.1721  0.8787 -0.0766
  292MOL0     C39314   9.069   3.090   2.715  0.4917 -0.8173  0.4369
  292MOL0     C39315   9.053   3.237   2.686 -0.6649 -0.7249  0.1054
  292MOL0     O39316   8.938   3.300   2.705  0.8199  0.4148 -0.2877
  292MOL0     C39317   8.915   3.413   2.640  0.9180  0.6088  0.1644
  292MOL0     C39318   8.867   3.523   2.711 -0.1170  0.2586  0.1321
  292MOL0     C39319   8.843   3.645   2.649  0.8308 -1.0277  0.7291
  292MOL0     C39320   8.864   3.659   2.508  0.1532 -0.2944 -0.4968
  292MOL0     O39321   8.849   3.783   2.444  0.1917 -0.3593 -0.3086
  292MOL0     C39322   8.899   3.904   2.497 -0.5213 -0.7411  0.4009
  292MOL0     C39323   8.840   4.023   2.412 -0.4260  0.3537  0.2115
  292MOL0     C39324   8.910   4.041   2.276 -0.8351  0.5690  0.6355
  292MOL0     C39325   8.809   4.048   2.161  0.6182 -0.1201 -0.2923
  292MOL0     C39326   8.893   4.082   2.037 -0.2508 -1.0430 -0.6763
  292MOL0     C39327   8.789   4.121   1.923 -0.3578 -0.6227  0.9575
  292MOL0     C39328   8.698   4.242   1.950  0.9714 -0.4341 -0.4542
  292MOL0     C39329   8.653   4.317   1.823  0.4814  0.4555 -0.6494
  292MOL0    Cl39330   8.584   4.218   1.699  0.5195  0.5183 -0.1311
  292MOL0     C39331   8.890   3.543   2.439  0.8900  0.7261 -0.1780
  292MOL0     C39332   8.925   3.425   2.501 -0.0253  0.2447 -0.4047
  292MOL0     O39333   9.160   3.293   2.642 -0.0256  0.5008 -0.6246
  292MOL0     C39334   8.954   3.006   2.708  0.3230  0.0263  0.8483
  292MOL0     C39335   8.965   2.871   2.738  0.7931 -0.0832 -0.0785
  292MOL0     N39336   9.492   2.232   3.124  0.5212 -0.2668  0.9579
  292MOL0     N39337   9.555   2.156   3.202  0.6622 -0.0001  0.1799
  292MOL0     C39338  10.301   2.459   4.188 -1.0159 -0.3763  0.9465
  292MOL0     C39339  10.354   2.526   4.300  0.2558 -0.6131  0.1460
  292MOL0     C39340  10.468   2.745   4.658  0.3944  0.7495 -0.0923
  292MOL0     C39341  10.467   2.701   4.798  1.0196 -0.3363 -0.5101
  292MOL0     C39342  10.547   2.768   4.892 -0.2192 -0.2761  1.1652
  292MOL0     C39343  10.637   2.866   4.849  0.0279 -0.2652  0.5081
  292MOL0     O39344  10.728   2.916   4.944 -0.2937  1.1111 -0.5890
  292MOL0     C39345  10.835   3.007   4.905 -1.1740 -0.5556  0.4148
  292MOL0     C39346  10.914   3.048   5.028  0.3046 -0.0884  0.5555
  292MOL0     C39347  11.001   3.171   5.004  0.2640  0.2795  0.9810
  292MOL0     C39348  10.924   3.294   5.045 -0.5585  0.4443  0.6137
  292MOL0     C39349  11.020   3.403   5.038  0.3564  0.7271  0.1338
  292MOL0     C39350  11.094   3.496   5.020 -0.3006  0.8832  0.6396
  292MOL0     C39351  10.632   2.910   4.716  0.1845 -0.1163 -0.1315
  292MOL0     C39352  10.552   2.848   4.616 -0.4573 -0.4011 -0.7922
  292MOL0     H39353  10.173   2.812   4.255  1.9004  2.0539 -1.6451
  292MOL0     H39354  10.073   2.693   4.076 -1.0394 -1.8589  0.0037
  292MOL0     H39355  10.115   2.255   4.044 -3.2418 -1.4925 -0.7497
  292MOL0     H39356   9.993   2.375   4.112 -0.3822 -0.3830 -1.0695
  292MOL0     H39357   9.942   2.435   3.883  1.9219 -0.1739 -1.9074
  292MOL0     H39358  10.069   2.316   3.836  1.8067  1.0362  0.4544
  292MOL0     H39359   9.947   2.122   3.919  0.5034 -0.2553 -2.5539
  292MOL0     H39360   9.815   2.222   3.994 -1.0368  4.2369 -0.7094
  292MOL0     H39361   9.763   2.290   3.730 -2.7573 -0.7363 -2.4733
  292MOL0     H39362   9.863   2.141   3.705 -0.2446  1.9913 -1.2195
  292MOL0     H39363   9.676   2.045   3.871  0.3200 -1.2971 -0.3056
  292MOL0     H39364   9.598   2.192   3.812  2.7118  2.3001 -0.3636
  292MOL0     H39365   9.708   2.002   3.611 -0.2718 -0.6706 -0.8111
  292MOL0     H39366   9.573   1.954   3.687  1.7498 -1.9048 -0.8102
  292MOL0     H39367   9.460   2.198   3.591 -1.7921  0.0784 -2.9447
  292MOL0     H39368   9.619   2.220   3.528 -1.9606  1.8899 -0.6147
  292MOL0     H39369   9.442   1.992   3.439  1.5823 -1.4493  3.0185
  292MOL0     H39370   9.601   1.995   3.392 -0.8400  0.6810  0.4073
  292MOL0     H39371   9.314   2.275   3.397 -0.4262  0.1942  0.1320
  292MOL0     H39372   9.199   2.351   3.128 -0.1433  0.8673 -2.1252
  292MOL0     H39373   9.280   2.484   3.215 -0.6377  0.6828 -0.6850
  292MOL0     H39374   9.326   2.372   2.930  2.0676 -1.8622  0.9380
  292MOL0     H39375   9.419   2.507   2.994 -1.5861  0.4412  1.0175
  292MOL0     H39376   9.209   2.648   3.020 -1.6357  2.1398 -0.9453
  292MOL0     H39377   9.108   2.523   2.966 -0.9101  1.2249  1.2304
  292MOL0     H39378   9.201   2.513   2.753  0.9301 -1.2074  2.2138
  292MOL0     H39379   9.295   2.661   2.784 -0.6873  1.5245  1.3280
  292MOL0     H39380   9.287   2.852   2.833 -0.5538  0.7111 -1.0450
  292MOL0     H39381   9.392   3.052   2.831  1.9607  1.3101 -2.0753
  292MOL0     H39382   9.346   3.148   2.681 -2.4081  0.2015 -1.1580
  292MOL0     H39383   9.286   3.200   2.840 -1.6549 -1.6000  2.8852
  292MOL0     H39384   8.856   3.511   2.818 -3.5349 -1.5377 -0.2849
  292MOL0     H39385   8.800   3.732   2.698  3.7423  1.8852 -1.4874
  292MOL0     H39386   8.861   3.915   2.598 -5.0811 -6.0414 -0.2541
  292MOL0     H39387   9.008   3.916   2.492 -0.4685 -0.3044  2.0661
  292MOL0     H39388   8.735   4.001   2.394  0.0885  0.6595 -4.0586
  292MOL0     H39389   8.840   4.121   2.462 -1.3213  1.6752 -2.2242
  292MOL0     H39390   8.993   3.972   2.255 -0.0027  2.4107 -2.9493
  292MOL0     H39391   8.959   4.136   2.297 -0.3160  0.7608 -1.2850
  292MOL0     H39392   8.756   3.953   2.151 -0.4575  0.4311  0.0729
  292MOL0     H39393   8.731   4.124   2.169 -0.6731 -1.4602  0.3061
  292MOL0     H39394   8.966   4.003   2.017  1.3652  0.3318 -0.4917
  292MOL0     H39395   8.949   4.175   2.051  0.3076 -0.9152 -3.3220
  292MOL0     H39396   8.841   4.129   1.828  1.7291 -0.6566  2.0473
  292MOL0     H39397   8.722   4.034   1.915  0.7501 -1.3205 -1.5460
  292MOL0     H39398   8.756   4.310   2.013  2.3812 -0.8448 -1.2709
  292MOL0     H39399   8.606   4.220   2.005  0.1621 -0.4238 -1.7571
  292MOL0     H39400   8.749   4.354   1.786  1.7174 -1.6279  0.3267
  292MOL0     H39401   8.579   4.394   1.848 -0.2995 -1.1803  2.4477
  292MOL0     H39402   8.899   3.551   2.331 -0.6522  0.4158 -0.3488
  292MOL0     H39403   8.966   3.344   2.442 -0.4863  0.6850 -1.3426
  292MOL0     H39404   8.859   3.055   2.689  1.4848  3.2617  2.4882
  292MOL0     H39405   8.874   2.813   2.726  1.0181 -0.6362  0.7854
  292MOL0     H39406  10.331   2.359   4.158 -0.2934 -0.3302  1.4981
  292MOL0     H39407  10.430   2.477   4.361  0.4300 -4.3771 -2.7513
  292MOL0     H39408  10.401   2.621   4.832  0.6610  0.5060  0.8493
  292MOL0     H39409  10.555   2.740   4.996 -1.6674 -2.2243  0.8177
  292MOL0     H39410  10.899   2.963   4.827 -0.7175 -0.7839  0.9104
  292MOL0     H39411  10.787   3.092   4.856 -2.3225 -0.0832  2.2917
  292MOL0     H39412  10.963   2.954   5.057 -4.8598 -2.9213  1.3975
  292MOL0     H39413  10.849   3.070   5.114  2.6162  3.2310  1.6735
  292MOL0     H39414  11.024   3.192   4.899 -1.9962 -2.0202 -0.0583
  292MOL0     H39415  11.095   3.167   5.060  1.8000 -2.0602 -1.5253
  292MOL0     H39416  10.881   3.274   5.143  0.0573 -0.6576  0.6838
  292MOL0     H39417  10.844   3.320   4.975  1.5470 -1.2789 -2.7208
  292MOL0     H39418  11.160   3.577   4.995  0.8400 -0.2373 -0.0590
  292MOL0     H39419  10.709   2.980   4.686  0.0777  0.3633  0.7017
  292MOL0     H39420  10.548   2.886   4.515  3.8390  0.7458 -0.7354
  293MOL0     O39421   2.342   2.750   2.668 -0.1773  0.6410  0.0406
  293MOL0     C39422   2.287   2.687   2.574 -0.2562  0.1041  0.0026
  293MOL0     O39423   2.348   2.630   2.471 -0.3914  0.2011 -0.0403
  293MOL0     C39424   2.486   2.605   2.473 -0.6992 -0.5206  0.5659
  293MOL0     C39425   2.550   2.606   2.348  0.7899 -0.5939 -0.3684
  293MOL0     C39426   2.684   2.580   2.333  0.5330 -0.3621 -0.9038
  293MOL0     C39427   2.768   2.566   2.449  0.6876 -0.7332  1.5178
  293MOL0     O39428   2.902   2.552   2.422 -0.0196 -0.5075  0.2128
  293MOL0     C39429   2.995   2.529   2.524  0.0404  0.6317 -0.3575
  293MOL0     C39430   3.015   2.386   2.567 -0.8828  0.9411  0.2767
  293MOL0     C39431   3.068   2.383   2.711 -0.3332 -0.6841 -0.0672
  293MOL0     C39432   3.223   2.388   2.703 -0.4198  0.0054 -0.0753
  293MOL0     C39433   3.289   2.439   2.840  0.1197  0.2914 -0.3592
  293MOL0     C39434   3.246   2.379   2.962  0.7290  1.2630 -0.4179
  293MOL0     C39435   3.335   2.388   3.083  0.2544 -0.0929 -0.1635
  293MOL0     C39436   3.384   2.525   3.122  0.2230  0.6765  0.2886
  293MOL0     N39437   3.409   2.521   3.271  0.5012 -0.8904  0.5614
  293MOL0     C39438   3.491   2.449   3.344  0.6303  0.3290  0.1991
  293MOL0     C39439   3.476   2.491   3.472  0.3201 -0.5560  0.7491
  293MOL0     C39440   3.543   2.450   3.587 -1.4235  0.4347  0.6631
  293MOL0     C39441   3.691   2.448   3.579  0.0542 -1.0985  0.7060
  293MOL0     C39442   3.749   2.589   3.527  0.3218  0.8239  0.3517
  293MOL0     C39443   3.891   2.579   3.470 -0.0709 -0.7271  0.3419
  293MOL0     O39444   3.887   2.552   3.339 -0.5722  0.2068 -0.2809
  293MOL0     C39445   3.983   2.475   3.294 -0.1954  0.6725  0.8015
  293MOL0     C39446   3.953   2.342   3.272  0.8463  0.8559 -0.1668
  293MOL0     C39447   4.056   2.255   3.228  0.1835 -0.4192 -0.4605
  293MOL0     C39448   4.032   2.111   3.228  0.3187 -0.2544 -0.2343
  293MOL0     C39449   4.186   2.300   3.190 -0.1360 -0.2451  0.3735
  293MOL0     C39450   4.310   2.216   3.151  0.1338 -0.4403 -1.1859
  293MOL0     O39451   4.409   2.282   3.075  2.3232 -0.2209 -0.2878
  293MOL0     C39452   4.510   2.216   3.012  0.2264 -0.4937  0.0487
  293MOL0     C39453   4.524   2.078   2.993  0.1076  0.3020  0.2612
  293MOL0     C39454   4.628   2.024   2.920 -0.4521  0.1551 -0.1733
  293MOL0     C39455   4.740   2.104   2.873 -0.1145  0.1338 -0.0259
  293MOL0     O39456   4.853   2.052   2.810  0.0148 -0.2324 -0.0705
  293MOL0     C39457   4.987   2.123   2.818  1.1573  0.2504  0.2751
  293MOL0     C39458   5.089   2.008   2.832 -0.7840  0.3809 -0.2037
  293MOL0     C39459   5.076   1.928   2.968 -0.2168 -0.0661  1.1299
  293MOL0     C39460   5.162   1.799   2.951  0.1717 -0.6311  0.7513
  293MOL0     C39461   5.146   1.674   3.040 -0.2052  0.4010  1.2226
  293MOL0     C39462   5.225   1.542   3.018 -1.0370  0.4665  0.6691
  293MOL0     C39463   5.163   1.411   3.051 -0.5660 -0.7038 -0.9017
  293MOL0     C39464   5.260   1.291   3.032  0.0280 -0.5392  0.3512
  293MOL0    Cl39465   5.403   1.312   3.146 -0.2476  0.0574 -0.0458
  293MOL0     C39466   4.733   2.247   2.901 -0.3157  0.2888  0.7059
  293MOL0     C39467   4.615   2.297   2.960 -0.9387 -0.0793  0.5137
  293MOL0     O39468   4.331   2.109   3.208 -0.1696 -0.7719 -0.0873
  293MOL0     C39469   4.200   2.447   3.204  0.4020 -0.2570  0.8619
  293MOL0     C39470   4.103   2.532   3.256 -0.5830  0.3513  0.4600
  293MOL0     N39471   3.368   2.587   3.474  0.7335  0.1344 -0.9932
  293MOL0     N39472   3.331   2.601   3.350 -0.2443 -0.4596  0.1523
  293MOL0     C39473   2.705   2.571   2.576  1.0205 -0.4183  0.2266
  293MOL0     C39474   2.566   2.596   2.590  0.2069  0.8042  0.2435
  293MOL0     C39475   2.145   2.702   2.571 -0.5901  0.1872  0.4192
  293MOL0     C39476   2.058   2.717   2.680 -0.9618  0.9405  0.1137
  293MOL0     C39477   1.925   2.744   2.661  0.0592 -0.5688 -0.4704
  293MOL0     C39478   1.871   2.743   2.532  0.2392  0.6141  0.2094
  293MOL0     O39479   1.736   2.769   2.508 -0.1703  0.1268 -0.3444
  293MOL0     C39480   1.643   2.666   2.491  0.1511  0.1317  0.1951
  293MOL0     C39481   1.541   2.679   2.605 -0.4291 -0.0905  0.3766
  293MOL0     C39482   1.451   2.806   2.576  0.4501  0.7273 -0.1181
  293MOL0     C39483   1.359   2.829   2.689 -0.7203 -0.5390  1.0879
  293MOL0     C39484   1.408   2.839   2.826  0.1373 -0.0685 -0.3508
  293MOL0     C39485   1.450   2.840   2.942 -0.4757 -0.3186  0.2739
  293MOL0     C39486   1.948   2.707   2.424  0.2808 -0.6330  0.3616
  293MOL0     C39487   2.083   2.693   2.439  0.0121 -0.8599  0.6562
  293MOL0     H39488   2.495   2.626   2.257 -2.9197 -0.7899  1.6101
  293MOL0     H39489   2.730   2.567   2.236  1.5986 -0.4584 -0.3951
  293MOL0     H39490   3.089   2.574   2.490 -1.6172  1.7971 -3.8039
  293MOL0     H39491   2.960   2.589   2.609 -2.4293 -3.9805  2.2577
  293MOL0     H39492   2.929   2.318   2.566  0.8688 -1.4371  0.0356
  293MOL0     H39493   3.077   2.331   2.495 -2.0598 -0.0901  0.0133
  293MOL0     H39494   3.018   2.469   2.757 -0.1785  0.0011 -1.1487
  293MOL0     H39495   3.037   2.292   2.764 -0.2912  0.9174  2.9626
  293MOL0     H39496   3.271   2.292   2.686  0.6477 -0.0735  2.8852
  293MOL0     H39497   3.249   2.467   2.631  0.3678 -1.9286 -2.0315
  293MOL0     H39498   3.396   2.415   2.833 -0.0947 -0.2655 -2.0351
  293MOL0     H39499   3.280   2.548   2.849 -2.9828  0.0184  1.0592
  293MOL0     H39500   3.154   2.429   2.993  1.0775  1.7129 -0.0822
  293MOL0     H39501   3.228   2.273   2.941  0.7123  1.1039  0.3761
  293MOL0     H39502   3.277   2.360   3.171  3.1444 -0.3539  1.7868
  293MOL0     H39503   3.423   2.323   3.075 -0.2598 -0.8638  0.3469
  293MOL0     H39504   3.312   2.603   3.095  0.8945  1.3486  0.3841
  293MOL0     H39505   3.478   2.545   3.071  0.7736 -2.4814 -0.1079
  293MOL0     H39506   3.555   2.369   3.309 -2.0114 -1.3231 -1.1703
  293MOL0     H39507   3.527   2.515   3.674 -1.7861  3.0088 -1.2174
  293MOL0     H39508   3.508   2.351   3.616 -1.6705 -0.2908 -1.8571
  293MOL0     H39509   3.723   2.381   3.498 -1.5430  1.6981 -2.5130
  293MOL0     H39510   3.733   2.417   3.675  0.2175 -3.1943  0.0045
  293MOL0     H39511   3.759   2.652   3.615 -0.1839  1.4669 -0.0419
  293MOL0     H39512   3.680   2.632   3.453  1.4229 -0.9426 -1.8556
  293MOL0     H39513   3.948   2.507   3.530  1.8721  0.5799  0.1308
  293MOL0     H39514   3.936   2.677   3.487  0.4152 -1.1059  1.3371
  293MOL0     H39515   3.851   2.310   3.294  1.4760  0.9646  3.5275
  293MOL0     H39516   3.924   2.098   3.240  0.1679  1.2140  0.3022
  293MOL0     H39517   4.067   2.059   3.139  0.7138 -0.2146 -0.1072
  293MOL0     H39518   4.077   2.059   3.313 -1.6918 -0.9358  0.4663
  293MOL0     H39519   4.444   2.010   3.020  1.2945 -2.3501 -2.4620
  293MOL0     H39520   4.630   1.917   2.898 -1.9277 -0.5373  2.6023
  293MOL0     H39521   5.005   2.185   2.729 -0.6207 -0.1208 -0.3762
  293MOL0     H39522   5.000   2.191   2.903  4.0315  1.1094 -0.7198
  293MOL0     H39523   5.094   1.949   2.740 -0.0454 -0.1016  0.1337
  293MOL0     H39524   5.193   2.041   2.843  0.0287 -2.1597  0.3969
  293MOL0     H39525   4.971   1.897   2.973  0.0259 -2.1080 -2.7021
  293MOL0     H39526   5.108   1.987   3.054  0.4708  5.0198 -2.2223
  293MOL0     H39527   5.156   1.772   2.845 -4.2607 -1.4334  1.0167
  293MOL0     H39528   5.265   1.824   2.977  0.4826 -2.2189  1.1443
  293MOL0     H39529   5.043   1.635   3.039  0.5672 -1.8224  1.5253
  293MOL0     H39530   5.164   1.692   3.147  0.2724  0.9111  1.0574
  293MOL0     H39531   5.247   1.534   2.911  2.7160 -1.8397  1.4231
  293MOL0     H39532   5.322   1.556   3.067 -0.0551 -0.8923 -0.7752
  293MOL0     H39533   5.068   1.405   2.997 -2.0832  2.6202  1.0868
  293MOL0     H39534   5.130   1.402   3.155  1.6349  2.7259  0.2519
  293MOL0     H39535   5.299   1.285   2.930  1.1615  2.7531  0.4900
  293MOL0     H39536   5.205   1.202   3.066 -0.1938 -0.4897  0.1242
  293MOL0     H39537   4.808   2.311   2.856 -0.0380 -0.4670  0.0637
  293MOL0     H39538   4.594   2.404   2.958 -0.2763  0.0794 -2.4122
  293MOL0     H39539   4.294   2.495   3.181  0.1344  1.0144  2.2904
  293MOL0     H39540   4.138   2.634   3.271  1.6254 -0.4011  0.8142
  293MOL0     H39541   2.749   2.580   2.675  0.2702  0.4409  0.4887
  293MOL0     H39542   2.533   2.590   2.693  0.7363  0.1939  0.3820
  293MOL0     H39543   2.100   2.704   2.778 -0.1112 -1.7018 -0.5204
  293MOL0     H39544   1.862   2.758   2.749  1.3536  2.7995  0.0930
  293MOL0     H39545   1.599   2.686   2.392  0.9084  3.0909  0.3673
  293MOL0     H39546   1.686   2.566   2.502  0.4130  0.4289  2.2109
  293MOL0     H39547   1.603   2.703   2.692 -0.4380  0.6144  0.2004
  293MOL0     H39548   1.476   2.592   2.609  2.3733 -2.3033  0.5455
  293MOL0     H39549   1.386   2.800   2.489 -0.9215  1.6649  0.7894
  293MOL0     H39550   1.510   2.895   2.554 -1.2867  1.5531 -1.7037
  293MOL0     H39551   1.295   2.740   2.685  0.7253 -1.5762 -0.6649
  293MOL0     H39552   1.306   2.921   2.661 -1.7839 -1.1170  1.1466
  293MOL0     H39553   1.477   2.838   3.046 -0.3714 -3.0415  0.2750
  293MOL0     H39554   1.889   2.689   2.335 -1.9820  1.9415  1.1995
  293MOL0     H39555   2.149   2.680   2.354  0.7662 -0.7100  1.2074
  294MOL0     O39556   4.794   0.385  10.278 -0.3874 -0.6720 -0.4453
  294MOL0     C39557   4.735   0.476  10.215  0.0614 -0.4881  0.5252
  294MOL0     O39558   4.784   0.545  10.105 -0.4596 -0.4867  0.2197
  294MOL0     C39559   4.887   0.488  10.034 -1.0045  0.2669  0.8249
  294MOL0     C39560   5.012   0.552  10.036  0.1894 -0.8308 -0.6839
  294MOL0     C39561   5.121   0.491   9.976  0.5944  0.3443  0.5039
  294MOL0     C39562   5.104   0.358   9.919 -0.7632 -0.0780 -0.1035
  294MOL0     O39563   5.211   0.308   9.860 -0.5559  0.0721  0.1915
  294MOL0     C39564   5.195   0.207   9.759  0.0731  0.7472  0.0077
  294MOL0     C39565   5.302   0.214   9.654  0.2354 -0.1953 -0.4086
  294MOL0     C39566   5.439   0.173   9.716  0.2672  0.6109 -0.1981
  294MOL0     C39567   5.549   0.230   9.627  0.3547  0.6846  1.1601
  294MOL0     C39568   5.579   0.146   9.493  0.4772 -0.2990  0.4184
  294MOL0     C39569   5.702   0.210   9.422  0.6038  0.1419  0.3061
  294MOL0     C39570   5.742   0.132   9.295  0.4110  1.2124  0.6582
  294MOL0     C39571   5.892   0.155   9.252  0.8716  0.3484 -0.1494
  294MOL0     N39572   5.915   0.095   9.114  0.6189  0.4745  0.1911
  294MOL0     C39573   5.849   0.095   8.998  0.6259  0.5437  0.4895
  294MOL0     C39574   5.895  -0.005   8.926 -0.0555  0.4302 -0.2373
  294MOL0     C39575   5.851  -0.058   8.793  1.1119 -0.5817  0.1052
  294MOL0     C39576   5.888   0.037   8.676 -0.4711  0.0048 -0.7356
  294MOL0     C39577   5.832  -0.015   8.540 -0.3013  0.2993  0.9401
  294MOL0     C39578   5.850   0.089   8.428 -1.2070  0.0310  0.4219
  294MOL0     O39579   5.963   0.176   8.467 -0.0442  0.3097 -0.2619
  294MOL0     C39580   6.018   0.258   8.367  0.6880  0.4167 -0.0460
  294MOL0     C39581   6.162   0.258   8.352 -0.1290 -0.0369  0.8566
  294MOL0     C39582   6.226   0.340   8.257  0.0730  1.1284 -0.1685
  294MOL0     C39583   6.370   0.326   8.252  0.0579  0.4916 -0.0618
  294MOL0     C39584   6.148   0.427   8.176  0.5153 -0.7151  0.8702
  294MOL0     C39585   6.206   0.543   8.102  0.1008  0.8786 -0.4622
  294MOL0     O39586   6.326   0.587   8.160 -0.6882  0.6182 -0.4071
  294MOL0     C39587   6.389   0.678   8.078 -1.3877 -0.7409 -0.2836
  294MOL0     C39588   6.358   0.814   8.062  0.2860 -0.3925  0.8904
  294MOL0     C39589   6.436   0.902   7.983 -0.2652 -0.2349  0.1827
  294MOL0     C39590   6.555   0.865   7.929 -0.5651 -0.2046 -0.2328
  294MOL0     O39591   6.616   0.960   7.859 -0.4902  0.4307  0.7808
  294MOL0     C39592   6.743   0.932   7.776  0.2403 -0.1890 -0.0887
  294MOL0     C39593   6.759   1.067   7.696 -0.4409  0.8356 -0.6043
  294MOL0     C39594   6.882   1.065   7.609 -0.1993 -0.0691  0.3601
  294MOL0     C39595   6.889   0.981   7.484 -0.2433 -0.4388  0.1746
  294MOL0     C39596   7.005   1.007   7.393 -0.4452 -0.2863 -0.2769
  294MOL0     C39597   6.984   0.980   7.238  0.5324 -0.6853 -0.2712
  294MOL0     C39598   7.111   0.992   7.165 -0.4555  0.4685 -0.4229
  294MOL0     C39599   7.084   0.999   7.010 -0.2956  0.3323 -0.2379
  294MOL0    Cl39600   7.246   1.010   6.928 -0.0010 -0.0736  0.3228
  294MOL0     C39601   6.593   0.730   7.951 -0.3111  0.8127 -1.2399
  294MOL0     C39602   6.520   0.639   8.025  0.1113  0.8770 -0.7151
  294MOL0     O39603   6.156   0.582   7.997 -0.0805  0.1197 -0.1792
  294MOL0     C39604   6.004   0.418   8.187  0.2697 -0.3580  0.6042
  294MOL0     C39605   5.934   0.341   8.284 -1.0535  0.2173 -0.4128
  294MOL0     N39606   6.005  -0.057   8.997 -0.3640 -0.4422  0.8220
  294MOL0     N39607   6.019   0.008   9.107  0.2614  0.4957 -0.2907
  294MOL0     C39608   4.988   0.290   9.937  0.6944  0.1198  1.0352
  294MOL0     C39609   4.881   0.356   9.988  0.0480  0.0329 -0.4589
  294MOL0     C39610   4.599   0.515  10.271  0.0356  0.0952 -0.0522
  294MOL0     C39611   4.514   0.430  10.337  0.1483  0.4527  0.4746
  294MOL0     C39612   4.394   0.452  10.398 -0.2930  0.0207  0.3303
  294MOL0     C39613   4.357   0.584  10.405  0.2780 -0.2119 -0.4315
  294MOL0     O39614   4.243   0.608  10.482 -0.2141  0.6837  0.4731
  294MOL0     C39615   4.189   0.738  10.463 -0.1744  0.3261  0.2246
  294MOL0     C39616   4.056   0.750  10.520 -0.8960  0.5481 -0.9713
  294MOL0     C39617   3.989   0.885  10.506 -0.8756  0.7950 -0.2102
  294MOL0     C39618   3.850   0.892  10.572  0.4732 -0.5744 -0.0993
  294MOL0     C39619   3.857   0.878  10.718 -0.1834  0.8158 -0.4964
  294MOL0     C39620   3.867   0.880  10.842  0.4887  0.2372  0.0930
  294MOL0     C39621   4.435   0.679  10.324 -0.9272  0.0206  1.5220
  294MOL0     C39622   4.552   0.643  10.255  0.3634 -0.7527  0.4414
  294MOL0     H39623   5.019   0.654  10.073  0.8089 -0.9764 -0.3867
  294MOL0     H39624   5.215   0.545   9.965  1.0326  0.1121  2.6729
  294MOL0     H39625   5.194   0.106   9.801  0.5515  0.4591 -0.6629
  294MOL0     H39626   5.097   0.220   9.713 -1.7553 -0.4970  3.1546
  294MOL0     H39627   5.271   0.151   9.570 -5.7241  1.5795 -0.0157
  294MOL0     H39628   5.302   0.313   9.608 -0.5827  0.6787  1.3505
  294MOL0     H39629   5.450   0.209   9.819  2.5565 -1.5306  0.4323
  294MOL0     H39630   5.430   0.064   9.721 -0.6975  0.6253 -1.3533
  294MOL0     H39631   5.519   0.333   9.602  0.6687  0.4847 -0.1371
  294MOL0     H39632   5.638   0.258   9.684  1.6427  1.5112 -1.1049
  294MOL0     H39633   5.607   0.047   9.532  1.4767  0.2719  1.2037
  294MOL0     H39634   5.492   0.130   9.429 -0.0511 -0.6906  1.2084
  294MOL0     H39635   5.673   0.314   9.405  2.4396  0.1192 -4.4332
  294MOL0     H39636   5.782   0.201   9.496 -1.3810  0.5239  2.6264
  294MOL0     H39637   5.722   0.028   9.322  0.3820  0.4197 -2.1388
  294MOL0     H39638   5.679   0.169   9.214 -0.3906 -1.1623  0.1463
  294MOL0     H39639   5.952   0.109   9.331 -0.2294  2.4023  2.0181
  294MOL0     H39640   5.915   0.262   9.245  0.8894  0.4509  1.1920
  294MOL0     H39641   5.775   0.165   8.959 -0.0970 -1.3132 -1.6820
  294MOL0     H39642   5.900  -0.155   8.781 -0.4785 -1.9459  3.3061
  294MOL0     H39643   5.743  -0.078   8.798  0.4540  2.7020  1.3750
  294MOL0     H39644   5.997   0.040   8.671 -0.3120 -0.9734  1.3188
  294MOL0     H39645   5.849   0.135   8.706  1.8297  0.5028  0.9328
  294MOL0     H39646   5.725  -0.025   8.557 -0.3644 -0.5782  0.0687
  294MOL0     H39647   5.872  -0.114   8.518 -1.1080  0.4958 -1.7384
  294MOL0     H39648   5.768   0.161   8.418 -1.2151  0.3391  2.3757
  294MOL0     H39649   5.877   0.025   8.344 -0.0544 -1.3791  1.8178
  294MOL0     H39650   6.223   0.216   8.432 -0.6468  0.0709  1.3199
  294MOL0     H39651   6.420   0.387   8.327 -2.2773  1.4361  0.8135
  294MOL0     H39652   6.393   0.219   8.256 -0.4280  0.3913  0.1266
  294MOL0     H39653   6.403   0.352   8.151 -3.6231  1.0981 -1.2584
  294MOL0     H39654   6.272   0.860   8.108  1.3039  0.5275  1.9389
  294MOL0     H39655   6.419   1.009   7.976 -0.0385  0.0203  2.7671
  294MOL0     H39656   6.823   0.921   7.849 -0.4241 -0.7241  0.5791
  294MOL0     H39657   6.744   0.849   7.706  2.7588  1.4919 -2.2218
  294MOL0     H39658   6.663   1.080   7.646 -0.5303 -0.9985 -0.9719
  294MOL0     H39659   6.775   1.142   7.773  1.6615  0.1080 -0.2709
  294MOL0     H39660   6.961   1.040   7.680 -0.3436  2.4297  1.4854
  294MOL0     H39661   6.899   1.170   7.584  1.2543 -0.2792  0.3809
  294MOL0     H39662   6.874   0.875   7.509 -2.6640 -0.6932 -1.8741
  294MOL0     H39663   6.800   1.009   7.426  1.7131  0.1960 -2.7643
  294MOL0     H39664   7.093   0.957   7.434 -1.0394  0.4242  2.0278
  294MOL0     H39665   7.035   1.109   7.416 -1.5829 -0.5546  3.0453
  294MOL0     H39666   6.960   0.874   7.233  1.4941 -0.8898 -0.7045
  294MOL0     H39667   6.908   1.049   7.199  0.1009 -1.7093 -1.2925
  294MOL0     H39668   7.165   0.898   7.186 -0.4668 -0.6989 -4.6209
  294MOL0     H39669   7.162   1.076   7.213 -1.0050 -0.7066  2.4098
  294MOL0     H39670   7.030   1.092   6.990 -4.7351 -2.0186 -0.3672
  294MOL0     H39671   7.033   0.911   6.972  2.2723  0.0886 -3.5145
  294MOL0     H39672   6.680   0.678   7.911  0.0512  0.8397 -0.4937
  294MOL0     H39673   6.551   0.536   8.042  0.2562  0.9642 -0.4488
  294MOL0     H39674   5.947   0.471   8.112 -2.1015 -0.0227  2.4937
  294MOL0     H39675   5.828   0.356   8.297 -1.2496 -0.6112 -0.9518
  294MOL0     H39676   4.967   0.184   9.927 -0.0275 -0.2079  4.6490
  294MOL0     H39677   4.784   0.307   9.985 -0.1128 -0.2267  3.6867
  294MOL0     H39678   4.549   0.327  10.345  3.8817  1.5534  0.1432
  294MOL0     H39679   4.343   0.370  10.447  0.8345 -0.0172  1.4715
  294MOL0     H39680   4.243   0.822  10.510 -1.8993  0.6462  1.7470
  294MOL0     H39681   4.189   0.761  10.356  2.0383  2.3006  0.5422
  294MOL0     H39682   4.058   0.731  10.627  0.1645  0.7138 -0.9529
  294MOL0     H39683   3.992   0.670  10.481 -0.3926 -1.8810  2.6704
  294MOL0     H39684   3.968   0.903  10.401  0.2171 -1.8170 -0.9410
  294MOL0     H39685   4.050   0.969  10.542 -0.9812  0.0733  1.7835
  294MOL0     H39686   3.781   0.813  10.542 -1.3523  0.8064  0.2773
  294MOL0     H39687   3.809   0.991  10.547 -1.1682  0.3494  5.0607
  294MOL0     H39688   3.885   0.894  10.946  2.0695 -1.5882  0.1049
  294MOL0     H39689   4.405   0.783  10.315  0.3393  0.2156 -2.4852
  294MOL0     H39690   4.584   0.720  10.185  1.8317 -0.7807  1.0449
  295MOL0     O39691   9.462   2.647  10.930 -0.8983 -0.1953 -0.2114
  295MOL0     C39692   9.483   2.548  10.857  0.8363  0.9628 -0.6601
  295MOL0     O39693   9.426   2.528  10.736  0.3841  0.7634  0.1080
  295MOL0     C39694   9.361   2.630  10.673 -0.4399 -0.2283 -1.2617
  295MOL0     C39695   9.245   2.605  10.598  0.4441 -0.1527  0.1838
  295MOL0     C39696   9.181   2.711  10.536 -0.5300  0.0207  0.3851
  295MOL0     C39697   9.237   2.835  10.535  0.2574  0.3336  0.1373
  295MOL0     O39698   9.176   2.928  10.450  0.8432 -0.0540 -0.9356
  295MOL0     C39699   9.168   3.067  10.487 -0.1010 -0.0231 -0.7207
  295MOL0     C39700   9.018   3.082  10.506  0.7835 -0.1265  1.6641
  295MOL0     C39701   8.944   3.094  10.368 -0.7823 -0.2283  0.8493
  295MOL0     C39702   8.925   3.251  10.339 -0.1157  0.8990 -0.4404
  295MOL0     C39703   8.829   3.276  10.211 -0.6391  0.3036  0.1489
  295MOL0     C39704   8.855   3.210  10.079 -0.5449  0.4302 -0.9361
  295MOL0     C39705   8.998   3.190  10.031  0.2526 -0.3498  0.0865
  295MOL0     C39706   9.018   3.077   9.926 -1.9862  0.4968 -0.3329
  295MOL0     N39707   8.942   3.101   9.804 -0.5122 -0.3813 -0.8560
  295MOL0     C39708   8.808   3.089   9.790 -0.5505  0.4139 -0.1711
  295MOL0     C39709   8.780   3.152   9.672 -0.4640 -0.5783  0.6576
  295MOL0     C39710   8.651   3.171   9.598  0.8014 -0.1293 -0.4312
  295MOL0     C39711   8.600   3.057   9.513 -0.3876 -0.2791  0.9934
  295MOL0     C39712   8.562   2.932   9.590 -0.2194  0.0326  1.4661
  295MOL0     C39713   8.434   2.942   9.681  0.2384  0.2705 -1.1338
  295MOL0     O39714   8.486   2.962   9.820 -0.1866 -0.3478  0.7392
  295MOL0     C39715   8.555   2.869   9.895  0.1206 -0.7497  0.1755
  295MOL0     C39716   8.591   2.912  10.023  0.1894  0.5157  1.3630
  295MOL0     C39717   8.634   2.829  10.121  0.7887  0.1645  0.4767
  295MOL0     C39718   8.647   2.882  10.258  0.1319 -0.8125 -0.5195
  295MOL0     C39719   8.658   2.697  10.086  1.1243  0.1494  0.5162
  295MOL0     C39720   8.734   2.604  10.171 -0.0146  0.4191  0.8581
  295MOL0     O39721   8.742   2.484  10.119  0.0973 -0.3318  0.3801
  295MOL0     C39722   8.856   2.419  10.181 -0.1117 -0.9735  0.3914
  295MOL0     C39723   8.822   2.297  10.243 -0.6651  0.1231  0.7706
  295MOL0     C39724   8.920   2.212  10.292  0.3995  0.3799 -0.0139
  295MOL0     C39725   9.053   2.256  10.298  1.1768  0.6487  0.1839
  295MOL0     O39726   9.147   2.169  10.349 -0.1049  0.0714 -0.1758
  295MOL0     C39727   9.258   2.236  10.423  0.2795  0.7697  0.9885
  295MOL0     C39728   9.353   2.138  10.474  0.5787  0.2209 -0.2958
  295MOL0     C39729   9.473   2.226  10.520 -0.6517 -0.5404  0.2167
  295MOL0     C39730   9.569   2.252  10.407 -0.7195  1.0386  0.3016
  295MOL0     C39731   9.635   2.399  10.428  0.1877 -0.4007 -0.3395
  295MOL0     C39732   9.718   2.403  10.556 -0.8202  0.1185  0.7425
  295MOL0     C39733   9.799   2.535  10.566 -0.2941  0.5669 -0.8061
  295MOL0     C39734   9.917   2.523  10.666 -0.2501  0.0743  0.5768
  295MOL0    Cl39735   9.997   2.678  10.654 -0.1225  0.3437 -0.4006
  295MOL0     C39736   9.083   2.381  10.243 -0.4597  0.6824  0.6598
  295MOL0     C39737   8.989   2.456  10.178 -0.2748  1.1194  1.2163
  295MOL0     O39738   8.769   2.641  10.283  0.0061  0.3167 -0.5992
  295MOL0     C39739   8.626   2.651   9.952 -0.7601 -0.0668 -0.9883
  295MOL0     C39740   8.568   2.737   9.863  1.0418  0.4466 -0.3459
  295MOL0     N39741   8.900   3.200   9.613 -0.2863  0.4558 -0.7325
  295MOL0     N39742   8.996   3.166   9.692  0.2472  0.2063  0.2842
  295MOL0     C39743   9.361   2.855  10.592 -0.1531 -0.7613  0.0447
  295MOL0     C39744   9.419   2.760  10.668 -0.3398  0.0438 -0.3416
  295MOL0     C39745   9.579   2.443  10.902 -0.4988  1.0598 -0.8537
  295MOL0     C39746   9.677   2.472  10.991 -0.1617  0.2762 -0.2948
  295MOL0     C39747   9.761   2.372  11.048 -1.0555 -0.3350 -0.4295
  295MOL0     C39748   9.752   2.242  11.013  0.6129  0.3414  0.2537
  295MOL0     O39749   9.836   2.161  11.076 -0.2892 -0.2562 -0.2683
  295MOL0     C39750   9.801   2.026  11.090  0.1355 -0.4153  0.2358
  295MOL0     C39751   9.900   1.960  11.195 -0.0363  0.4043 -0.5806
  295MOL0     C39752  10.039   1.961  11.133 -0.6533 -0.1703  0.1182
  295MOL0     C39753  10.143   1.912  11.223 -0.1243 -0.6211 -0.5096
  295MOL0     C39754  10.171   1.975  11.353  0.2385 -1.0226 -0.4384
  295MOL0     C39755  10.193   2.016  11.465  0.4317  0.7141 -0.3760
  295MOL0     C39756   9.652   2.203  10.922  0.9138  0.0282  0.2594
  295MOL0     C39757   9.564   2.303  10.868  1.0169  0.6224 -0.8166
  295MOL0     H39758   9.196   2.508  10.603  1.2588 -0.7194 -2.0480
  295MOL0     H39759   9.086   2.684  10.490 -1.7364  1.5342  1.8673
  295MOL0     H39760   9.220   3.077  10.583 -0.2780 -0.9373 -0.5138
  295MOL0     H39761   9.194   3.144  10.414  5.3174 -1.3336 -0.5681
  295MOL0     H39762   8.984   2.992  10.557  5.0024 -3.0372 -0.1057
  295MOL0     H39763   8.995   3.170  10.567  0.7586  2.4692 -1.7994
  295MOL0     H39764   8.992   3.051  10.280  0.0501  0.9811  0.6866
  295MOL0     H39765   8.844   3.050  10.381  0.5174 -3.0182  2.0010
  295MOL0     H39766   8.881   3.295  10.430  0.0660 -0.4845  0.3349
  295MOL0     H39767   9.024   3.296  10.329  0.0639  0.3445 -1.1386
  295MOL0     H39768   8.724   3.254  10.232 -1.2857  2.6000 -0.3976
  295MOL0     H39769   8.843   3.383  10.195  4.8252 -0.2190 -0.4547
  295MOL0     H39770   8.804   3.114  10.093 -0.4042  0.5019  0.2103
  295MOL0     H39771   8.804   3.266  10.000  0.7612  1.1108 -1.3250
  295MOL0     H39772   9.031   3.287   9.994  0.1085  0.3777  1.7828
  295MOL0     H39773   9.061   3.160  10.116 -1.8864 -1.8623  1.2430
  295MOL0     H39774   8.998   2.980   9.974  2.5240  0.0225  1.0400
  295MOL0     H39775   9.124   3.070   9.901 -1.7444 -4.0675  1.0599
  295MOL0     H39776   8.731   3.040   9.849 -0.3200  1.3178  0.9006
  295MOL0     H39777   8.584   3.208   9.676  1.6795  0.5028  0.0396
  295MOL0     H39778   8.667   3.252   9.526 -2.0027  0.4682 -0.5000
  295MOL0     H39779   8.683   3.034   9.446  1.1788 -2.7578  3.5446
  295MOL0     H39780   8.513   3.079   9.451 -0.1277 -3.4072 -0.6670
  295MOL0     H39781   8.650   2.900   9.646  1.8082  0.5643 -1.1835
  295MOL0     H39782   8.545   2.844   9.526 -3.0625 -1.4152  3.9815
  295MOL0     H39783   8.364   2.862   9.657  0.5130 -0.1768 -0.4840
  295MOL0     H39784   8.373   3.027   9.649 -2.2757 -1.6368 -1.7292
  295MOL0     H39785   8.548   3.009  10.044 -1.1524 -0.0862  1.5028
  295MOL0     H39786   8.746   2.868  10.302 -0.5621  1.9171  2.2569
  295MOL0     H39787   8.640   2.991  10.265  2.6535 -0.6765  1.3770
  295MOL0     H39788   8.572   2.825  10.313 -1.2176 -0.3708 -1.8371
  295MOL0     H39789   8.723   2.253  10.241 -1.2393  1.3992 -0.2070
  295MOL0     H39790   8.891   2.115  10.330  1.7678  0.5775  1.6612
  295MOL0     H39791   9.303   2.292  10.340 -5.9777  0.9372 -3.0225
  295MOL0     H39792   9.231   2.315  10.494  2.4689  0.6053  2.0637
  295MOL0     H39793   9.301   2.083  10.553 -2.3082 -1.5268 -3.1573
  295MOL0     H39794   9.365   2.074  10.386 -2.7865  0.5949 -1.1581
  295MOL0     H39795   9.520   2.170  10.602 -0.8654 -3.6146 -1.6086
  295MOL0     H39796   9.435   2.322  10.556  0.2729 -0.4866  1.0987
  295MOL0     H39797   9.643   2.172  10.419 -1.9569 -0.0667  0.7727
  295MOL0     H39798   9.527   2.242  10.307  2.2641  1.1089 -1.0560
  295MOL0     H39799   9.562   2.480  10.432  0.6473  0.0869 -1.4058
  295MOL0     H39800   9.695   2.422  10.339  1.4715 -1.8340  0.1026
  295MOL0     H39801   9.663   2.388  10.648 -1.7187 -0.9170  0.0539
  295MOL0     H39802   9.785   2.317  10.549 -2.4788 -1.4394  2.9501
  295MOL0     H39803   9.738   2.618  10.603  0.2630  1.3607 -1.6362
  295MOL0     H39804   9.836   2.561  10.467  1.0792  2.0234  0.0596
  295MOL0     H39805   9.990   2.444  10.647 -0.3410  0.6601 -2.7622
  295MOL0     H39806   9.888   2.524  10.772  2.6804  2.9882  1.5134
  295MOL0     H39807   9.186   2.415  10.243 -0.0266 -0.4593 -1.1531
  295MOL0     H39808   9.025   2.552  10.143  0.6988 -0.3116 -2.1142
  295MOL0     H39809   8.643   2.550   9.918  1.4406 -0.0428 -0.1055
  295MOL0     H39810   8.551   2.699   9.763 -2.2760 -0.4453  0.4010
  295MOL0     H39811   9.407   2.951  10.571 -3.4069  1.3957  1.9349
  295MOL0     H39812   9.516   2.771  10.716 -0.8087 -2.2886  1.3047
  295MOL0     H39813   9.701   2.567  11.037  0.7009 -0.7433  1.4735
  295MOL0     H39814   9.831   2.404  11.125  0.2816  2.3860 -2.5974
  295MOL0     H39815   9.693   2.022  11.105 -0.3109 -0.3469 -2.5030
  295MOL0     H39816   9.813   1.969  10.997 -3.0436  1.2063 -1.3200
  295MOL0     H39817   9.871   1.861  11.231  0.8816  0.1159 -0.6047
  295MOL0     H39818   9.892   2.016  11.289  1.8331  3.7647 -2.2365
  295MOL0     H39819  10.068   2.063  11.104 -0.1144 -1.5364 -5.3358
  295MOL0     H39820  10.028   1.910  11.036 -0.9200  2.6851 -1.4781
  295MOL0     H39821  10.239   1.920  11.172 -2.0020  2.7254 -4.1186
  295MOL0     H39822  10.134   1.805  11.246 -0.2176 -0.9846 -2.1642
  295MOL0     H39823  10.222   2.035  11.566 -1.0883 -1.7473  0.6145
  295MOL0     H39824   9.634   2.100  10.895 -0.3347  0.6859 -1.6501
  295MOL0     H39825   9.473   2.275  10.814  0.6803  1.3072 -0.6122
  296MOL0     O39826   5.425   9.751   2.069 -0.4027  0.2959 -0.4825
  296MOL0     C39827   5.395   9.818   1.968  0.0749 -0.8457  0.3951
  296MOL0     O39828   5.281   9.800   1.891 -0.2520  0.4701  0.0473
  296MOL0     C39829   5.197   9.694   1.908  0.2148  0.3885  0.0295
  296MOL0     C39830   5.076   9.694   1.842 -0.2552  0.7920  1.1974
  296MOL0     C39831   4.971   9.607   1.863 -0.6099 -0.0263 -0.7748
  296MOL0     C39832   5.002   9.487   1.923  0.8276 -0.0372  0.3907
  296MOL0     O39833   4.918   9.375   1.934  0.3702 -0.1325 -0.4861
  296MOL0     C39834   4.773   9.387   1.918 -0.8707  0.2750 -0.1475
  296MOL0     C39835   4.695   9.489   2.015  1.0532 -0.9810 -0.2018
  296MOL0     C39836   4.750   9.545   2.146 -0.1023 -0.4151 -0.4670
  296MOL0     C39837   4.715   9.465   2.271  0.4282 -0.3743 -0.5899
  296MOL0     C39838   4.736   9.306   2.266 -0.1575 -0.9558 -0.4294
  296MOL0     C39839   4.682   9.250   2.402  0.0519 -0.2502  0.1749
  296MOL0     C39840   4.693   9.096   2.398  0.3336 -0.4277  0.2828
  296MOL0     C39841   4.843   9.053   2.418  0.3996  0.1427  0.7967
  296MOL0     N39842   4.857   8.915   2.469  0.6476  0.0931  0.3613
  296MOL0     C39843   4.889   8.804   2.402 -0.6027  0.2412  0.1429
  296MOL0     C39844   4.858   8.695   2.480 -0.7759 -0.2248 -1.3512
  296MOL0     C39845   4.877   8.560   2.418  0.0363  0.8145 -0.7629
  296MOL0     C39846   4.865   8.449   2.522  0.7449  0.5305 -1.1031
  296MOL0     C39847   4.724   8.442   2.584  1.0005  0.1885 -0.1182
  296MOL0     C39848   4.666   8.297   2.609 -0.3831 -0.2024  0.0556
  296MOL0     O39849   4.734   8.235   2.730  0.7430  0.2092  1.0068
  296MOL0     C39850   4.678   8.107   2.762 -0.8620 -0.2986  0.4761
  296MOL0     C39851   4.699   8.070   2.892 -0.0247  0.0807 -0.9697
  296MOL0     C39852   4.639   7.954   2.954 -0.8507 -0.1105  0.8318
  296MOL0     C39853   4.668   7.944   3.098  0.1621  0.0802 -1.0982
  296MOL0     C39854   4.574   7.863   2.862  0.9837 -0.1717 -0.0407
  296MOL0     C39855   4.515   7.733   2.913 -1.2153  0.0891  0.2477
  296MOL0     O39856   4.466   7.649   2.811  0.2442 -0.1651  0.6568
  296MOL0     C39857   4.435   7.524   2.847 -0.6574 -0.6844  1.0161
  296MOL0     C39858   4.500   7.418   2.795  0.2130  0.0377  1.0448
  296MOL0     C39859   4.471   7.285   2.826  1.0119  0.2305 -1.0928
  296MOL0     C39860   4.367   7.253   2.913  0.2529 -0.0971  0.5889
  296MOL0     O39861   4.328   7.123   2.958  0.7340  0.6490 -0.0782
  296MOL0     C39862   4.369   7.020   2.875  0.4042 -0.5062 -0.0205
  296MOL0     C39863   4.289   6.895   2.911 -0.2657  1.0763  0.4385
  296MOL0     C39864   4.252   6.816   2.778 -0.3789 -0.4945 -0.1321
  296MOL0     C39865   4.198   6.677   2.817 -0.3101 -0.7584 -0.2633
  296MOL0     C39866   4.110   6.609   2.702  0.7511  0.6807  0.6292
  296MOL0     C39867   3.962   6.657   2.709 -0.4174 -0.1711 -0.3771
  296MOL0     C39868   3.881   6.588   2.598 -0.1021 -0.7914  0.3426
  296MOL0     C39869   3.737   6.645   2.611 -0.0848  0.6451 -0.0323
  296MOL0    Cl39870   3.707   6.817   2.556 -0.4634 -0.4891  0.4207
  296MOL0     C39871   4.297   7.362   2.961 -0.4607  0.4700 -0.3004
  296MOL0     C39872   4.332   7.498   2.934 -0.0167  0.5803  0.4481
  296MOL0     O39873   4.513   7.712   3.035 -0.2035  0.0689 -0.2300
  296MOL0     C39874   4.566   7.894   2.723  0.4756 -0.2869 -0.5435
  296MOL0     C39875   4.617   8.013   2.677  0.1854  0.5079  0.5300
  296MOL0     N39876   4.801   8.744   2.595 -0.1447 -0.6088 -0.2750
  296MOL0     N39877   4.798   8.871   2.588  0.0125 -0.1387 -0.3786
  296MOL0     C39878   5.124   9.482   1.988  0.3290 -0.0526 -0.1187
  296MOL0     C39879   5.219   9.577   1.978 -0.3188 -0.5642 -0.5187
  296MOL0     C39880   5.500   9.910   1.910 -0.1480  0.3711 -0.3883
  296MOL0     C39881   5.620   9.933   1.987  0.8058  0.6900  0.9942
  296MOL0     C39882   5.722  10.009   1.933 -0.2718 -0.8585  0.4565
  296MOL0     C39883   5.709  10.070   1.812 -0.1649  0.0306 -0.1195
  296MOL0     O39884   5.796  10.155   1.749  0.2806 -0.1092  0.3555
  296MOL0     C39885   5.910  10.211   1.815  1.0584  1.1174  0.3790
  296MOL0     C39886   5.979  10.312   1.725 -0.4781 -0.2875 -1.1518
  296MOL0     C39887   6.013  10.248   1.590 -0.3169 -0.4732  0.3919
  296MOL0     C39888   6.111  10.340   1.510 -0.5809 -0.2672  0.1442
  296MOL0     C39889   6.248  10.323   1.563  0.6971  0.1511  0.4228
  296MOL0     C39890   6.365  10.304   1.598 -0.2320 -0.3310  0.6314
  296MOL0     C39891   5.601  10.024   1.735 -0.3689 -0.3706  0.3767
  296MOL0     C39892   5.495   9.950   1.777 -0.0999  0.1743 -0.0688
  296MOL0     H39893   5.049   9.784   1.787 -0.5250  0.0755  0.1289
  296MOL0     H39894   4.870   9.629   1.829 -1.2125  0.0156  0.9047
  296MOL0     H39895   4.745   9.405   1.814 -0.4754 -1.6330 -0.6118
  296MOL0     H39896   4.722   9.293   1.940 -0.1804 -0.3835 -1.2985
  296MOL0     H39897   4.677   9.575   1.950 -0.5449  1.7532  3.4981
  296MOL0     H39898   4.595   9.451   2.036  0.2606  1.3727  0.6268
  296MOL0     H39899   4.858   9.533   2.144 -0.0003  0.4940 -1.4474
  296MOL0     H39900   4.734   9.653   2.151  1.3872 -0.1315 -1.3787
  296MOL0     H39901   4.772   9.501   2.357 -0.2858  0.3390 -0.4043
  296MOL0     H39902   4.607   9.475   2.283  0.3050 -3.0024  1.2740
  296MOL0     H39903   4.678   9.268   2.182  0.0186 -2.6361  0.1765
  296MOL0     H39904   4.843   9.292   2.249  0.3327  0.7920  0.8536
  296MOL0     H39905   4.737   9.300   2.483 -0.9703  3.3044 -1.1311
  296MOL0     H39906   4.580   9.279   2.426 -0.4750 -1.4459 -0.5519
  296MOL0     H39907   4.640   9.057   2.485  0.7391  3.5756  2.5838
  296MOL0     H39908   4.656   9.066   2.300 -0.8798  1.6395  0.0479
  296MOL0     H39909   4.886   9.117   2.496 -0.5926 -2.0325  3.2269
  296MOL0     H39910   4.897   9.072   2.325 -0.1825  0.0446  0.4335
  296MOL0     H39911   4.924   8.799   2.300 -1.8824 -1.9164 -0.2738
  296MOL0     H39912   4.801   8.545   2.341  0.4019 -3.4705 -0.5262
  296MOL0     H39913   4.974   8.551   2.368 -1.2786 -1.8909 -3.1157
  296MOL0     H39914   4.941   8.469   2.599  1.2020 -1.9674 -0.8366
  296MOL0     H39915   4.894   8.353   2.479  1.7106  0.3410 -0.0668
  296MOL0     H39916   4.648   8.483   2.517  0.8822 -2.2641 -1.6343
  296MOL0     H39917   4.728   8.484   2.685  1.5851  1.0688 -0.5036
  296MOL0     H39918   4.684   8.239   2.517 -0.3595  2.3598 -1.6361
  296MOL0     H39919   4.558   8.312   2.610 -0.5858 -1.3630  2.2445
  296MOL0     H39920   4.744   8.137   2.965  0.5048 -0.8634 -0.4185
  296MOL0     H39921   4.721   7.852   3.123 -1.1728 -0.3023  0.5570
  296MOL0     H39922   4.711   8.032   3.147  1.7894 -0.5501 -1.3669
  296MOL0     H39923   4.573   7.922   3.150  1.1752 -5.3516 -0.9619
  296MOL0     H39924   4.565   7.429   2.708 -0.1079  1.0339  0.9215
  296MOL0     H39925   4.531   7.205   2.783  1.2235 -0.0341 -0.3160
  296MOL0     H39926   4.348   7.050   2.772  1.6374 -2.3194 -0.8436
  296MOL0     H39927   4.475   6.994   2.880  0.5965  0.0604 -0.8662
  296MOL0     H39928   4.353   6.838   2.979 -0.4498 -2.6660 -2.2231
  296MOL0     H39929   4.204   6.923   2.973  1.7914  3.7831  2.2629
  296MOL0     H39930   4.346   6.799   2.725 -0.7260 -0.3656 -0.8043
  296MOL0     H39931   4.179   6.865   2.713 -0.5251 -1.1247 -0.4477
  296MOL0     H39932   4.283   6.621   2.858  0.8913  0.8961 -0.3850
  296MOL0     H39933   4.127   6.686   2.899 -1.2274 -0.6230 -1.0564
  296MOL0     H39934   4.111   6.502   2.723  0.7729  0.4581 -0.4069
  296MOL0     H39935   4.146   6.629   2.600 -0.6122  2.5449  0.4620
  296MOL0     H39936   3.923   6.630   2.808 -2.3562 -2.1649 -1.5852
  296MOL0     H39937   3.968   6.766   2.702  0.8476 -0.2627 -1.0732
  296MOL0     H39938   3.892   6.480   2.609  1.7976 -0.3420  4.4274
  296MOL0     H39939   3.922   6.618   2.501 -4.1336  0.0942 -1.3059
  296MOL0     H39940   3.708   6.632   2.716 -0.1594  3.2227  0.3106
  296MOL0     H39941   3.671   6.580   2.552 -1.1155  0.4185  1.3263
  296MOL0     H39942   4.208   7.351   3.022 -0.0609  1.7084  0.5333
  296MOL0     H39943   4.274   7.581   2.973  0.3170  1.5481 -1.0302
  296MOL0     H39944   4.503   7.826   2.666 -0.5197 -1.0015  1.3452
  296MOL0     H39945   4.602   8.029   2.570 -0.2157  3.0484  0.8913
  296MOL0     H39946   5.144   9.387   2.036 -1.3512 -0.1969  0.3751
  296MOL0     H39947   5.314   9.557   2.028 -1.4838 -3.2014  0.8904
  296MOL0     H39948   5.617   9.898   2.089  0.7146  1.5666  1.3041
  296MOL0     H39949   5.801  10.035   2.002 -2.2653  1.8513  1.9122
  296MOL0     H39950   5.876  10.253   1.910 -1.5623  0.6422 -0.2690
  296MOL0     H39951   5.990  10.140   1.838 -0.0321 -0.0798  0.5615
  296MOL0     H39952   6.072  10.359   1.759 -2.5662  2.9514  0.4655
  296MOL0     H39953   5.911  10.396   1.715 -0.0099  0.0798 -1.2997
  296MOL0     H39954   5.919  10.249   1.533 -0.3336  2.1578  0.3468
  296MOL0     H39955   6.043  10.144   1.607 -5.9926 -2.1958  1.9528
  296MOL0     H39956   6.080  10.444   1.518  0.7320  0.0369  1.7942
  296MOL0     H39957   6.108  10.307   1.406 -1.4375 -0.8844  0.3564
  296MOL0     H39958   6.466  10.298   1.633 -0.2778  2.1495  1.3824
  296MOL0     H39959   5.602  10.045   1.628  5.4462 -0.8062  0.0204
  296MOL0     H39960   5.421   9.919   1.704  0.0684  0.7916 -0.5172
  297MOL0     O39961   5.420   1.168   7.956 -0.2866  0.7317  0.4349
  297MOL0     C39962   5.499   1.147   7.867 -0.7345 -1.1423  0.8681
  297MOL0     O39963   5.626   1.085   7.882 -0.0030  0.1868  0.7064
  297MOL0     C39964   5.688   1.020   7.992 -0.4097  0.1817  0.0243
  297MOL0     C39965   5.799   0.929   7.977  0.7394 -0.0884 -1.0387
  297MOL0     C39966   5.854   0.870   8.090 -1.0832  1.0168  0.3692
  297MOL0     C39967   5.817   0.904   8.213 -0.7828 -0.2810 -0.8458
  297MOL0     O39968   5.885   0.855   8.325  0.7348 -0.4629 -0.1690
  297MOL0     C39969   5.890   0.711   8.334  0.2674 -0.7444 -0.2005
  297MOL0     C39970   5.802   0.668   8.460 -0.6247 -0.7625 -0.4566
  297MOL0     C39971   5.833   0.735   8.595  0.1915 -0.2831 -0.0935
  297MOL0     C39972   5.739   0.691   8.714 -0.2707 -0.4062 -0.8679
  297MOL0     C39973   5.764   0.763   8.845 -0.1907 -0.3742  1.7184
  297MOL0     C39974   5.662   0.738   8.954  0.1191  0.5907 -0.6311
  297MOL0     C39975   5.523   0.774   8.933  1.2095  0.3188 -0.7016
  297MOL0     C39976   5.428   0.738   9.051  0.2409 -0.1123  0.1774
  297MOL0     N39977   5.370   0.848   9.133 -0.1968  0.7672 -0.4963
  297MOL0     C39978   5.256   0.915   9.126  0.7757 -1.0913  0.2814
  297MOL0     C39979   5.268   1.004   9.219 -0.1052  0.4238  0.1061
  297MOL0     C39980   5.166   1.107   9.242  1.3032 -0.4202 -0.1207
  297MOL0     C39981   5.179   1.219   9.136 -0.4008  0.1883  1.1948
  297MOL0     C39982   5.070   1.329   9.145 -0.5143 -0.4677 -0.0679
  297MOL0     C39983   5.097   1.466   9.075 -0.7160  0.0478 -0.1707
  297MOL0     O39984   4.977   1.542   9.066 -0.0818 -0.9604 -0.1254
  297MOL0     C39985   4.914   1.596   9.168 -0.1923  0.3540 -0.3047
  297MOL0     C39986   4.792   1.647   9.134 -0.7459 -1.5789 -0.3838
  297MOL0     C39987   4.716   1.714   9.226  0.2182  0.3115 -0.5273
  297MOL0     C39988   4.587   1.764   9.177 -0.1398  0.2964  0.1000
  297MOL0     C39989   4.757   1.717   9.363 -0.6451  0.2947  0.9686
  297MOL0     C39990   4.682   1.778   9.477  0.5146 -0.6456 -0.1812
  297MOL0     O39991   4.743   1.768   9.599  0.2426  0.7665 -0.1561
  297MOL0     C39992   4.689   1.844   9.697  0.3523  0.8584  0.9399
  297MOL0     C39993   4.664   1.977   9.692 -0.1107  0.6391  0.4773
  297MOL0     C39994   4.611   2.038   9.802  1.0585 -0.5533 -0.1553
  297MOL0     C39995   4.593   1.979   9.916 -0.0425 -0.5850 -0.0394
  297MOL0     O39996   4.553   2.050  10.024 -0.1510 -0.4910 -0.3480
  297MOL0     C39997   4.611   2.005  10.154 -0.8756 -1.0537 -0.4581
  297MOL0     C39998   4.578   2.109  10.263  0.7205  0.0564  0.0894
  297MOL0     C39999   4.622   2.067  10.405 -0.4181 -0.8688  0.1054
  297MOL0     C40000   4.762   2.011  10.422 -0.0980 -0.8439 -0.1783
  297MOL0     C40001   4.781   1.991  10.570  0.1606 -1.4050 -0.9960
  297MOL0     C40002   4.889   1.892  10.609  0.2142 -0.5738 -0.8185
  297MOL0     C40003   4.941   1.884  10.758 -0.7164  0.2961  0.8143
  297MOL0     C40004   4.824   1.872  10.844  0.3596  0.0221 -0.0027
  297MOL0    Cl40005   4.872   1.889  11.011 -0.3742  0.2376 -0.1280
  297MOL0     C40006   4.610   1.836   9.913  0.7590 -0.7631 -0.2112
  297MOL0     C40007   4.653   1.767   9.805 -0.3942  0.9184 -0.5770
  297MOL0     O40008   4.574   1.830   9.458 -0.4963  0.3593  0.3793
  297MOL0     C40009   4.886   1.663   9.400  0.5750 -0.8127 -0.0829
  297MOL0     C40010   4.964   1.606   9.294  0.4405  0.2170 -0.5923
  297MOL0     N40011   5.380   0.985   9.298 -0.8357  0.7073 -0.0955
  297MOL0     N40012   5.442   0.896   9.234 -0.3458  0.3472  0.1222
  297MOL0     C40013   5.711   0.991   8.232  0.3376 -0.0445  0.7847
  297MOL0     C40014   5.641   1.046   8.124 -0.0636 -0.8309 -0.3833
  297MOL0     C40015   5.454   1.170   7.726  1.0956 -0.7866  0.1216
  297MOL0     C40016   5.544   1.159   7.615 -0.7639  0.3213  0.1975
  297MOL0     C40017   5.505   1.177   7.486  0.6716  0.3443  0.1097
  297MOL0     C40018   5.369   1.213   7.450 -0.8457  1.0138  0.3671
  297MOL0     O40019   5.346   1.235   7.312  0.0007  0.0889 -0.2249
  297MOL0     C40020   5.220   1.196   7.257 -0.5330 -0.3302  0.1666
  297MOL0     C40021   5.203   1.050   7.275 -0.9559 -0.0571 -0.7033
  297MOL0     C40022   5.083   0.998   7.197  0.6195  0.9069  0.8010
  297MOL0     C40023   5.096   0.841   7.211  0.1092 -0.1499  0.3551
  297MOL0     C40024   5.061   0.792   7.345  0.6634 -0.0920 -0.3385
  297MOL0     C40025   5.025   0.743   7.448 -0.3029  1.1604 -0.0120
  297MOL0     C40026   5.279   1.222   7.557  0.1548 -0.2118  0.8976
  297MOL0     C40027   5.319   1.209   7.693  0.2057 -0.0014  0.0533
  297MOL0     H40028   5.829   0.903   7.876 -1.3236 -1.6539 -1.3232
  297MOL0     H40029   5.929   0.792   8.080 -0.0023  2.1197 -0.3765
  297MOL0     H40030   5.842   0.669   8.245 -3.8435  0.9369  1.0059
  297MOL0     H40031   5.989   0.663   8.332  1.5778  1.8102 -0.4233
  297MOL0     H40032   5.701   0.699   8.434 -1.1072 -0.2756  1.8031
  297MOL0     H40033   5.798   0.559   8.476 -0.4120 -0.9271 -1.4517
  297MOL0     H40034   5.932   0.704   8.629  0.3004  0.1765  0.0050
  297MOL0     H40035   5.826   0.844   8.585  3.5780 -0.1247 -2.1420
  297MOL0     H40036   5.632   0.704   8.691 -0.5786  1.1249  1.2219
  297MOL0     H40037   5.737   0.583   8.734 -0.0618 -0.3599 -0.6081
  297MOL0     H40038   5.866   0.736   8.873  0.2013 -0.0450  0.6579
  297MOL0     H40039   5.785   0.868   8.823  2.7018 -1.3256 -0.5924
  297MOL0     H40040   5.662   0.630   8.974 -2.1829  0.4795 -0.9748
  297MOL0     H40041   5.693   0.785   9.048 -3.8162  1.6312  0.3642
  297MOL0     H40042   5.520   0.882   8.913 -0.6003  0.4058 -0.1326
  297MOL0     H40043   5.479   0.727   8.845  0.4232 -0.1166 -0.0823
  297MOL0     H40044   5.490   0.673   9.114  0.1629  0.2211  0.6027
  297MOL0     H40045   5.346   0.675   9.016 -0.9734  0.3150  2.0861
  297MOL0     H40046   5.172   0.890   9.062  1.6605  0.7014 -1.6855
  297MOL0     H40047   5.068   1.059   9.239  1.4417 -0.7931  1.1163
  297MOL0     H40048   5.173   1.153   9.341  1.2503  0.9671 -0.7336
  297MOL0     H40049   5.164   1.177   9.035  0.4220 -0.7207  1.4401
  297MOL0     H40050   5.284   1.249   9.138  0.2368 -1.0691 -3.0074
  297MOL0     H40051   5.049   1.342   9.252 -1.7573  2.0695 -0.5414
  297MOL0     H40052   4.977   1.296   9.098 -0.5046 -1.5929  0.6691
  297MOL0     H40053   5.119   1.436   8.972 -2.7449 -0.7600 -0.4018
  297MOL0     H40054   5.180   1.521   9.120 -0.0928 -0.7326 -0.3271
  297MOL0     H40055   4.753   1.643   9.033  1.5289  2.3956 -1.6552
  297MOL0     H40056   4.586   1.873   9.190 -1.9631  0.3341 -0.0716
  297MOL0     H40057   4.578   1.750   9.069  3.6081  1.7045 -0.5440
  297MOL0     H40058   4.503   1.717   9.229 -0.9273 -0.1074 -1.4754
  297MOL0     H40059   4.676   2.034   9.601 -0.6431 -0.0475 -0.0244
  297MOL0     H40060   4.584   2.143   9.797  1.0950 -0.3732  2.1995
  297MOL0     H40061   4.564   1.907  10.167 -3.4225 -1.0232 -6.3929
  297MOL0     H40062   4.720   1.992  10.144 -0.1036  3.1785  0.7477
  297MOL0     H40063   4.622   2.204  10.231 -2.1807  1.0753 -1.1779
  297MOL0     H40064   4.469   2.114  10.267  0.5439 -1.2748 -1.8925
  297MOL0     H40065   4.557   1.986  10.439 -0.9173 -0.7040 -0.4408
  297MOL0     H40066   4.608   2.150  10.475  4.6640 -0.2570  0.7957
  297MOL0     H40067   4.763   1.913  10.373 -1.5391 -0.9891  0.0511
  297MOL0     H40068   4.824   2.085  10.371 -2.5464  0.8223 -0.8794
  297MOL0     H40069   4.686   1.952  10.607 -0.5612  0.9134 -0.2030
  297MOL0     H40070   4.810   2.087  10.613  0.7874 -1.3639 -1.4932
  297MOL0     H40071   4.852   1.792  10.586 -1.6819  0.3228 -1.8284
  297MOL0     H40072   4.972   1.919  10.543  0.0690 -0.2950 -0.8896
  297MOL0     H40073   4.987   1.981  10.779 -3.1516  2.0278 -1.1805
  297MOL0     H40074   5.011   1.802  10.774 -2.2442 -3.0129 -5.8778
  297MOL0     H40075   4.778   1.773  10.832 -1.2591  0.8282 -0.7314
  297MOL0     H40076   4.751   1.951  10.827 -1.6396 -1.7762 -0.2521
  297MOL0     H40077   4.591   1.770   9.997 -0.7768 -1.0260 -0.7420
  297MOL0     H40078   4.661   1.659   9.798  1.1657  0.9802 -0.0663
  297MOL0     H40079   4.940   1.679   9.493  1.3439  0.2106 -0.6767
  297MOL0     H40080   5.065   1.575   9.319  0.1745  1.5076  2.6792
  297MOL0     H40081   5.684   1.012   8.335  3.1948  0.2278  1.5673
  297MOL0     H40082   5.563   1.117   8.152 -0.2167 -1.5078  0.9664
  297MOL0     H40083   5.646   1.125   7.624 -0.7323 -0.5938 -2.6049
  297MOL0     H40084   5.577   1.147   7.410  0.9280 -1.7313  1.1072
  297MOL0     H40085   5.136   1.252   7.299 -1.4726 -1.0188 -0.7371
  297MOL0     H40086   5.225   1.225   7.151 -2.1895 -2.8166 -0.6825
  297MOL0     H40087   5.196   1.034   7.383 -1.9382 -1.6105 -0.9639
  297MOL0     H40088   5.292   1.000   7.236 -1.7538 -1.7633 -0.4706
  297MOL0     H40089   5.100   1.020   7.092 -1.9224  1.1773  0.3792
  297MOL0     H40090   4.986   1.039   7.226  1.3433  3.0330  0.3645
  297MOL0     H40091   5.199   0.806   7.196  0.4804  0.3388  1.6506
  297MOL0     H40092   5.032   0.784   7.142 -1.9981 -2.0149  3.5728
  297MOL0     H40093   5.007   0.668   7.522 -0.2585  1.3561  0.1977
  297MOL0     H40094   5.175   1.249   7.542  0.7178  1.3634 -0.4149
  297MOL0     H40095   5.254   1.224   7.778  1.2349  3.4908  0.3966
  298MOL0     O40096  11.219   2.150   0.921 -0.0294  0.8116  0.0899
  298MOL0     C40097  11.317   2.223   0.950  0.3038 -0.4560 -0.5409
  298MOL0     O40098  11.323   2.351   0.941 -0.9279 -1.0609 -0.4486
  298MOL0     C40099  11.213   2.432   0.911 -0.9104  1.0152  1.1131
  298MOL0     C40100  11.074   2.412   0.922  0.4489 -0.0716  0.4166
  298MOL0     C40101  10.972   2.502   0.876  0.8227 -0.3270  0.3379
  298MOL0     C40102  11.009   2.620   0.805  0.8564 -0.9087  0.6291
  298MOL0     O40103  10.916   2.720   0.768  0.1192 -0.6213  0.3896
  298MOL0     C40104  10.781   2.691   0.733 -0.0204 -0.4455  1.4122
  298MOL0     C40105  10.677   2.763   0.821 -0.9323  0.2957 -0.9800
  298MOL0     C40106  10.539   2.716   0.797  0.2033 -0.1802  1.1013
  298MOL0     C40107  10.436   2.827   0.825 -0.5882  1.2616 -0.0930
  298MOL0     C40108  10.292   2.785   0.784 -1.0951  0.7623  0.1342
  298MOL0     C40109  10.267   2.842   0.648  0.4264  1.1762 -0.2081
  298MOL0     C40110  10.110   2.833   0.604 -0.7915 -1.3097 -0.4721
  298MOL0     C40111  10.096   2.918   0.478  0.3245 -0.6373 -0.4789
  298MOL0     N40112   9.962   2.900   0.424  0.1616 -0.3559 -0.9891
  298MOL0     C40113   9.856   2.977   0.449  0.2639  1.0476  0.1389
  298MOL0     C40114   9.752   2.925   0.377 -0.2969 -0.4788 -0.3347
  298MOL0     C40115   9.608   2.966   0.381  1.4378  0.0409  0.6025
  298MOL0     C40116   9.582   3.073   0.271  0.5594  0.7029  0.4029
  298MOL0     C40117   9.435   3.116   0.261 -0.6395  0.5124  0.0237
  298MOL0     C40118   9.425   3.230   0.148  0.5785  0.3553 -0.2477
  298MOL0     O40119   9.290   3.264   0.141  0.1467 -0.3939  0.3584
  298MOL0     C40120   9.251   3.366   0.223 -0.6469  0.2774  0.5616
  298MOL0     C40121   9.315   3.434   0.324 -0.6756  0.9781 -0.0784
  298MOL0     C40122   9.253   3.523   0.412 -0.1532 -0.5318  0.2229
  298MOL0     C40123   9.329   3.570   0.537 -0.9767 -0.6784  0.2793
  298MOL0     C40124   9.129   3.571   0.382  0.1317  0.6045 -0.2949
  298MOL0     C40125   9.047   3.655   0.462 -1.0967  0.1195  0.3728
  298MOL0     O40126   8.960   3.743   0.396  0.6803  0.5020 -0.1135
  298MOL0     C40127   8.909   3.838   0.478  0.6252 -0.3755 -0.0802
  298MOL0     C40128   8.824   3.793   0.586  0.0361  0.1467  0.2756
  298MOL0     C40129   8.771   3.883   0.678 -0.9191  0.2222  0.6995
  298MOL0     C40130   8.796   4.018   0.659  0.1608  0.3985  0.2771
  298MOL0     O40131   8.731   4.110   0.738  0.0455  0.4870 -0.4580
  298MOL0     C40132   8.811   4.218   0.798  0.4150  0.0043 -0.4604
  298MOL0     C40133   8.729   4.302   0.890  0.5058  0.7540  0.6517
  298MOL0     C40134   8.588   4.331   0.836 -0.4140 -0.6269 -1.1697
  298MOL0     C40135   8.584   4.423   0.715 -0.1655  0.2573  0.4126
  298MOL0     C40136   8.440   4.475   0.668 -0.1930  1.0741 -0.7072
  298MOL0     C40137   8.451   4.572   0.549  0.9620  0.7905 -0.9802
  298MOL0     C40138   8.494   4.714   0.594 -0.1412 -0.5296 -0.1601
  298MOL0     C40139   8.412   4.827   0.521 -0.4504  0.2712 -0.7674
  298MOL0    Cl40140   8.468   4.816   0.350 -0.1548  0.0281  0.4007
  298MOL0     C40141   8.877   4.063   0.549  0.1480 -0.2547  0.0581
  298MOL0     C40142   8.939   3.973   0.465  0.6291  1.5867 -0.5814
  298MOL0     O40143   9.054   3.623   0.583 -0.2983  0.3537 -0.7797
  298MOL0     C40144   9.069   3.514   0.261  0.6810 -0.2282  0.8403
  298MOL0     C40145   9.130   3.416   0.184 -0.1137 -0.8413  0.5193
  298MOL0     N40146   9.804   2.807   0.315 -0.3889  0.4803  0.1084
  298MOL0     N40147   9.934   2.807   0.333  0.9348 -0.4595  0.1205
  298MOL0     C40148  11.144   2.647   0.790 -0.7374 -0.3005 -0.0999
  298MOL0     C40149  11.240   2.556   0.844 -0.0118  0.9518  0.8957
  298MOL0     C40150  11.445   2.168   0.977 -1.1902  0.0028 -0.4967
  298MOL0     C40151  11.450   2.029   0.993 -0.4576  0.5224  0.2163
  298MOL0     C40152  11.577   1.967   1.014  0.0602  0.4658 -0.0928
  298MOL0     C40153  11.687   2.048   1.014 -0.0181 -0.8801 -0.6795
  298MOL0     O40154  11.813   2.009   1.040  0.2696 -0.3496 -0.2208
  298MOL0     C40155  11.865   1.874   1.034  0.0144  0.3311  0.4246
  298MOL0     C40156  11.974   1.872   0.929 -0.5034 -0.3976 -0.2300
  298MOL0     C40157  11.911   1.866   0.788 -0.2115  0.2887 -0.1672
  298MOL0     C40158  11.806   1.758   0.764 -0.1584  0.3083 -0.5603
  298MOL0     C40159  11.841   1.691   0.643 -0.7772  0.3373 -0.3613
  298MOL0     C40160  11.859   1.627   0.536  0.1631  0.3558 -0.3715
  298MOL0     C40161  11.681   2.190   1.000  0.1550 -0.2778 -0.3790
  298MOL0     C40162  11.567   2.245   0.976 -0.5088 -0.0555  0.2075
  298MOL0     H40163  11.054   2.318   0.973  1.0375 -0.3413  0.1625
  298MOL0     H40164  10.868   2.480   0.898  0.0769  1.3041 -1.2833
  298MOL0     H40165  10.761   2.723   0.631  1.9743  0.1743  1.1937
  298MOL0     H40166  10.753   2.585   0.730  0.1694 -0.4740 -0.1726
  298MOL0     H40167  10.700   2.729   0.922 -0.1185  1.6798 -0.6690
  298MOL0     H40168  10.702   2.869   0.814 -0.1785  0.1528 -0.5891
  298MOL0     H40169  10.540   2.667   0.699  2.9684 -1.6129  1.7262
  298MOL0     H40170  10.509   2.629   0.856 -0.8340 -1.0610 -0.6454
  298MOL0     H40171  10.438   2.847   0.932  0.9763  0.8499 -0.0294
  298MOL0     H40172  10.468   2.922   0.781  0.8333  0.9287  0.1942
  298MOL0     H40173  10.281   2.676   0.784  3.2108  0.0963 -2.4605
  298MOL0     H40174  10.218   2.828   0.852 -1.7416  1.0958 -0.7631
  298MOL0     H40175  10.306   2.943   0.639 -0.1502  1.5015  0.7857
  298MOL0     H40176  10.322   2.783   0.574 -1.4804  1.1165 -1.6453
  298MOL0     H40177  10.084   2.731   0.574  0.4695 -1.4691 -1.1004
  298MOL0     H40178  10.049   2.871   0.686  2.3545  1.6210  0.8074
  298MOL0     H40179  10.162   2.867   0.407  3.0951 -2.2345  2.9172
  298MOL0     H40180  10.124   3.023   0.492  0.5770 -0.5994 -1.2072
  298MOL0     H40181   9.855   3.053   0.526  0.0193  1.6474 -0.4513
  298MOL0     H40182   9.555   2.871   0.370 -0.5611  1.0679  0.8233
  298MOL0     H40183   9.576   3.000   0.480  1.2057 -0.8558  0.8463
  298MOL0     H40184   9.614   3.040   0.172 -1.6944 -2.0235  0.4866
  298MOL0     H40185   9.640   3.163   0.297  0.2496  0.9258  0.3254
  298MOL0     H40186   9.399   3.154   0.357 -0.9550  0.5492 -0.1061
  298MOL0     H40187   9.370   3.035   0.226 -0.9406  0.7768 -0.0302
  298MOL0     H40188   9.456   3.194   0.049 -1.0773 -0.9599 -0.3363
  298MOL0     H40189   9.490   3.317   0.166  0.7880  0.1595 -0.0404
  298MOL0     H40190   9.419   3.403   0.330 -1.1857 -0.9888 -0.5608
  298MOL0     H40191   9.435   3.542   0.536 -0.3301  1.2484 -2.9573
  298MOL0     H40192   9.322   3.678   0.551  0.2418 -0.4269 -0.8002
  298MOL0     H40193   9.285   3.533   0.630  0.3393 -0.0951  1.1638
  298MOL0     H40194   8.787   3.694   0.611 -1.6655  1.2632  2.5854
  298MOL0     H40195   8.720   3.839   0.763 -0.0847 -0.7132  0.7331
  298MOL0     H40196   8.892   4.181   0.862 -0.7623  1.3520  1.9330
  298MOL0     H40197   8.854   4.281   0.719  0.8938 -0.8248 -0.8759
  298MOL0     H40198   8.707   4.256   0.986 -0.8958 -0.9365 -0.4141
  298MOL0     H40199   8.782   4.398   0.898 -1.3069  2.2491 -2.9475
  298MOL0     H40200   8.528   4.379   0.914 -0.1131  0.2965 -1.4973
  298MOL0     H40201   8.530   4.244   0.801 -0.9758 -1.0451  0.6825
  298MOL0     H40202   8.646   4.510   0.736 -2.4468  1.5076  2.4529
  298MOL0     H40203   8.629   4.364   0.634  0.2852  0.5935  0.4153
  298MOL0     H40204   8.385   4.510   0.755  0.6681  1.3995 -0.2800
  298MOL0     H40205   8.387   4.382   0.643  0.4313 -0.1825  2.2563
  298MOL0     H40206   8.531   4.526   0.490  0.4934 -2.4270  0.6315
  298MOL0     H40207   8.353   4.567   0.501  0.2076 -0.4576  0.6031
  298MOL0     H40208   8.603   4.725   0.595 -0.2591  1.1070 -1.4984
  298MOL0     H40209   8.473   4.723   0.701 -1.6537  1.0175 -0.5442
  298MOL0     H40210   8.453   4.921   0.561  0.9149  0.4176 -2.4192
  298MOL0     H40211   8.307   4.798   0.522 -0.3588 -0.0643  0.0208
  298MOL0     H40212   8.882   4.169   0.528 -3.3602 -0.0989 -0.7268
  298MOL0     H40213   8.991   4.000   0.374  0.5318 -1.2271 -1.5410
  298MOL0     H40214   8.969   3.536   0.226  2.8670 -0.5334 -8.1171
  298MOL0     H40215   9.084   3.383   0.091 -1.1372  0.3950  0.5665
  298MOL0     H40216  11.172   2.739   0.738  0.2619 -1.3176 -1.4331
  298MOL0     H40217  11.343   2.587   0.833  1.0694 -2.5276 -0.1069
  298MOL0     H40218  11.357   1.974   0.981 -1.2008  2.2244 -3.3211
  298MOL0     H40219  11.582   1.864   1.050 -0.6184  0.1862 -0.7571
  298MOL0     H40220  11.912   1.865   1.132 -2.0437 -0.4085  1.3904
  298MOL0     H40221  11.788   1.796   1.026 -1.5849  2.0454 -3.4216
  298MOL0     H40222  12.026   1.776   0.936  1.8987  0.7173 -1.4637
  298MOL0     H40223  12.028   1.964   0.954 -1.8528  0.4424 -0.3159
  298MOL0     H40224  11.992   1.867   0.714 -0.6124 -0.7184 -0.6514
  298MOL0     H40225  11.851   1.957   0.775 -1.7385 -0.4049  1.5389
  298MOL0     H40226  11.704   1.799   0.762  0.2260  1.2913 -2.6753
  298MOL0     H40227  11.814   1.696   0.854  1.4953  0.2769 -0.7086
  298MOL0     H40228  11.864   1.574   0.443  1.2941 -0.2657  0.0162
  298MOL0     H40229  11.779   2.236   1.010  0.0088  0.1007 -0.6885
  298MOL0     H40230  11.567   2.354   0.969  0.7226  0.2570  3.3393
  299MOL0     O40231   0.334   5.346   4.224  0.4200 -0.3521  0.1571
  299MOL0     C40232   0.424   5.293   4.290  0.4524  0.2492  0.0377
  299MOL0     O40233   0.436   5.156   4.324  0.2726 -0.4870 -0.8628
  299MOL0     C40234   0.336   5.069   4.320  0.3854 -0.3532  0.1323
  299MOL0     C40235   0.376   4.938   4.334  0.1474  0.4666 -0.3031
  299MOL0     C40236   0.286   4.836   4.324  0.1966  0.5149 -0.9655
  299MOL0     C40237   0.148   4.861   4.319 -0.6481 -0.0577 -0.6081
  299MOL0     O40238   0.047   4.763   4.329  0.4037 -0.6467  0.3557
  299MOL0     C40239   0.079   4.632   4.277  0.1123 -0.5147 -1.1985
  299MOL0     C40240  -0.047   4.550   4.308 -0.1838  0.0404  0.4430
  299MOL0     C40241   0.004   4.407   4.343 -0.9501 -0.1540  0.0532
  299MOL0     C40242   0.036   4.329   4.222  0.1521 -0.4693  0.0630
  299MOL0     C40243   0.131   4.213   4.267 -0.8268 -0.5913  0.6119
  299MOL0     C40244   0.169   4.149   4.136 -0.0560 -0.6387 -0.0109
  299MOL0     C40245   0.239   4.008   4.146 -0.0931 -0.7185  0.3205
  299MOL0     C40246   0.223   3.919   4.025 -0.0943  0.2410  0.0210
  299MOL0     N40247   0.261   3.777   4.064 -0.0580  0.1509 -0.6550
  299MOL0     C40248   0.378   3.741   4.122 -0.0406 -0.4470  0.7527
  299MOL0     C40249   0.372   3.618   4.150  0.0474 -1.1432 -0.9876
  299MOL0     C40250   0.477   3.529   4.219  0.4737 -0.3742  0.6445
  299MOL0     C40251   0.614   3.566   4.192 -0.3939  0.6996  0.3606
  299MOL0     C40252   0.722   3.486   4.266  0.6258  0.0719  0.1466
  299MOL0     C40253   0.858   3.544   4.250 -0.5099  0.0783 -0.0723
  299MOL0     O40254   0.907   3.519   4.118  0.2091  0.3607 -0.1469
  299MOL0     C40255   1.025   3.581   4.080  0.0351 -0.4220 -0.4732
  299MOL0     C40256   1.095   3.674   4.163  0.3134  0.7096 -0.0196
  299MOL0     C40257   1.213   3.737   4.117 -0.8171  0.6199  0.4624
  299MOL0     C40258   1.287   3.826   4.219 -0.0969 -0.4058  0.3882
  299MOL0     C40259   1.251   3.725   3.981 -0.1296 -0.8097  1.3266
  299MOL0     C40260   1.355   3.811   3.922 -0.9969 -0.2864 -0.6377
  299MOL0     O40261   1.413   3.920   3.982  0.6426  0.4249  0.7888
  299MOL0     C40262   1.535   3.967   3.940 -0.2190  0.7226 -0.6384
  299MOL0     C40263   1.552   4.058   3.837  0.8958  0.2087  0.5735
  299MOL0     C40264   1.680   4.100   3.791  0.1858 -0.5121  0.1813
  299MOL0     C40265   1.794   4.052   3.851 -0.4084 -0.5823  0.0371
  299MOL0     O40266   1.928   4.083   3.811 -0.0863 -0.2000 -0.9427
  299MOL0     C40267   1.960   4.205   3.745 -0.3603  0.2845  0.0028
  299MOL0     C40268   2.103   4.209   3.728 -0.8809  0.2242 -0.5063
  299MOL0     C40269   2.167   4.307   3.627  0.8974 -0.9445 -1.1009
  299MOL0     C40270   2.124   4.450   3.656  0.0692  0.3762 -0.8735
  299MOL0     C40271   2.196   4.546   3.557 -0.4008  0.0379  0.3066
  299MOL0     C40272   2.150   4.690   3.592  0.0574 -0.8420 -0.0928
  299MOL0     C40273   2.256   4.791   3.532 -1.4410  0.4344 -0.7596
  299MOL0     C40274   2.220   4.939   3.567  0.0207  0.0261  1.0255
  299MOL0    Cl40275   2.346   5.075   3.559  0.4317  0.5742  0.0642
  299MOL0     C40276   1.785   3.965   3.967  0.9144 -0.7330 -0.0196
  299MOL0     C40277   1.652   3.922   4.005 -0.0333  0.0304 -0.0353
  299MOL0     O40278   1.394   3.768   3.814  0.4807  0.4221  0.2708
  299MOL0     C40279   1.174   3.648   3.894  0.4804  0.3026 -0.0283
  299MOL0     C40280   1.066   3.578   3.951 -0.5321  0.4818 -0.1303
  299MOL0     N40281   0.241   3.578   4.131 -0.5970 -0.8574 -0.3370
  299MOL0     N40282   0.169   3.676   4.076 -0.5162 -0.1140 -0.1193
  299MOL0     C40283   0.103   4.991   4.328  0.3559 -0.6592  0.0607
  299MOL0     C40284   0.194   5.097   4.321  0.2832 -0.5339  0.0165
  299MOL0     C40285   0.524   5.387   4.330 -0.2320 -0.4124 -0.5034
  299MOL0     C40286   0.564   5.495   4.262 -1.3350  0.2182 -0.6372
  299MOL0     C40287   0.672   5.577   4.306 -0.5676  0.3813 -0.1913
  299MOL0     C40288   0.730   5.553   4.433 -0.0902  0.3387  0.1690
  299MOL0     O40289   0.824   5.652   4.451  0.0785  0.5744  0.8291
  299MOL0     C40290   0.888   5.685   4.575 -0.7591 -0.0043 -0.2971
  299MOL0     C40291   0.812   5.766   4.687 -0.4127 -0.3935 -0.1600
  299MOL0     C40292   0.685   5.686   4.735 -0.8305 -0.4271  0.9646
  299MOL0     C40293   0.607   5.757   4.851  0.0517  0.2084  0.3400
  299MOL0     C40294   0.572   5.896   4.819 -0.2067 -0.7283  0.0871
  299MOL0     C40295   0.559   6.006   4.786  0.8110 -0.3509  0.7796
  299MOL0     C40296   0.695   5.444   4.510 -0.0415 -0.0334 -0.2024
  299MOL0     C40297   0.592   5.357   4.456 -0.0982 -0.7184 -0.0957
  299MOL0     H40298   0.476   4.897   4.346  0.6738  1.3074 -1.5798
  299MOL0     H40299   0.325   4.736   4.336 -0.0199  0.2721 -2.1447
  299MOL0     H40300   0.106   4.642   4.171  0.0178  4.4637 -1.0020
  299MOL0     H40301   0.171   4.603   4.328 -1.1351 -0.6301  1.1136
  299MOL0     H40302  -0.095   4.608   4.387 -1.7987  1.3997 -1.4179
  299MOL0     H40303  -0.122   4.554   4.228 -1.5270 -1.0220  1.5852
  299MOL0     H40304   0.096   4.411   4.401 -1.0023 -4.7884  0.8095
  299MOL0     H40305  -0.066   4.350   4.405 -0.7447 -1.4418 -0.8681
  299MOL0     H40306  -0.056   4.297   4.172  0.3482 -0.1189 -0.5366
  299MOL0     H40307   0.086   4.396   4.150  1.9921 -0.9897  0.8067
  299MOL0     H40308   0.225   4.241   4.315 -0.1771 -1.5962 -0.0326
  299MOL0     H40309   0.075   4.142   4.328  2.2272 -3.2207  0.6219
  299MOL0     H40310   0.078   4.135   4.076  1.1921 -2.5693 -1.5636
  299MOL0     H40311   0.239   4.214   4.084  0.8921 -1.9693 -0.4586
  299MOL0     H40312   0.344   4.016   4.174  0.0550 -0.6275 -0.2553
  299MOL0     H40313   0.189   3.968   4.235 -0.0093 -0.1806  0.6120
  299MOL0     H40314   0.296   3.957   3.952  0.7013  0.1469  0.7485
  299MOL0     H40315   0.117   3.927   4.001 -0.1417  1.5707  0.6312
  299MOL0     H40316   0.464   3.808   4.127 -1.4687  1.4880  0.4319
  299MOL0     H40317   0.460   3.507   4.325 -0.2938 -1.7504  0.2601
  299MOL0     H40318   0.458   3.436   4.165  2.6173  0.6783 -2.1522
  299MOL0     H40319   0.627   3.669   4.227 -0.0721  0.7041  0.2339
  299MOL0     H40320   0.633   3.572   4.084 -2.5748 -0.9058 -0.1784
  299MOL0     H40321   0.715   3.386   4.222 -3.6955  0.0858  0.3729
  299MOL0     H40322   0.710   3.484   4.374  0.1920  0.8945  0.1235
  299MOL0     H40323   0.923   3.503   4.327 -1.4391  3.2800  2.6521
  299MOL0     H40324   0.868   3.649   4.280  3.4236 -0.2920  0.4795
  299MOL0     H40325   1.074   3.687   4.268 -0.5394  0.9563 -0.2120
  299MOL0     H40326   1.234   3.825   4.315 -0.8755  2.3750  0.0876
  299MOL0     H40327   1.387   3.789   4.242 -0.3556  0.2989  2.8946
  299MOL0     H40328   1.279   3.932   4.194 -0.2775 -0.4243  0.3649
  299MOL0     H40329   1.465   4.102   3.790  1.9834  1.3088 -0.4689
  299MOL0     H40330   1.689   4.161   3.701 -1.0079 -1.7749 -0.8432
  299MOL0     H40331   1.914   4.195   3.646 -0.1092  0.4466 -0.1305
  299MOL0     H40332   1.940   4.295   3.805  0.2618  0.7177 -0.4324
  299MOL0     H40333   2.156   4.234   3.820 -0.6978  1.0650 -0.8193
  299MOL0     H40334   2.125   4.106   3.699 -1.2806  0.7326 -2.9186
  299MOL0     H40335   2.135   4.270   3.530 -1.1156  1.4905 -1.4766
  299MOL0     H40336   2.276   4.296   3.637  0.7227 -3.1935 -1.2948
  299MOL0     H40337   2.016   4.465   3.650 -0.6624 -2.4418  2.4502
  299MOL0     H40338   2.151   4.473   3.759 -1.0176 -2.9357  0.2457
  299MOL0     H40339   2.181   4.521   3.452  1.1911  2.0205 -0.4613
  299MOL0     H40340   2.305   4.545   3.565 -0.4682 -1.6242  1.4847
  299MOL0     H40341   2.054   4.730   3.561  0.7588  1.4985  0.5737
  299MOL0     H40342   2.154   4.707   3.700 -2.4369  0.8887 -0.1953
  299MOL0     H40343   2.256   4.791   3.423  0.0672 -0.8958 -0.7903
  299MOL0     H40344   2.360   4.772   3.560 -1.8955  3.4996  4.3351
  299MOL0     H40345   2.181   4.945   3.669  0.6180  0.2013  1.2507
  299MOL0     H40346   2.137   4.961   3.499  1.9674 -0.2677 -1.6018
  299MOL0     H40347   1.863   3.921   4.028  0.5758  0.1348  1.0787
  299MOL0     H40348   1.636   3.853   4.087 -0.5419  0.0701 -0.0991
  299MOL0     H40349   1.198   3.635   3.789  0.3567  0.9146 -0.1345
  299MOL0     H40350   1.011   3.497   3.905 -4.6364  2.4754  0.7990
  299MOL0     H40351  -0.002   5.004   4.305  0.4354  1.0924  0.5257
  299MOL0     H40352   0.149   5.193   4.299  0.1982 -0.2396  1.4201
  299MOL0     H40353   0.512   5.508   4.168  2.1459 -4.7380 -3.7337
  299MOL0     H40354   0.695   5.662   4.243  2.5824 -0.8699 -0.9397
  299MOL0     H40355   0.911   5.587   4.617  0.5048  1.0587  1.6382
  299MOL0     H40356   0.984   5.731   4.549 -0.2827 -1.2537 -0.8616
  299MOL0     H40357   0.793   5.862   4.639  1.2026 -0.1219 -0.2999
  299MOL0     H40358   0.895   5.775   4.757  0.7487 -1.7281 -1.2973
  299MOL0     H40359   0.725   5.590   4.770  0.7633 -0.6538 -1.2653
  299MOL0     H40360   0.615   5.675   4.651 -0.8446  0.7358  0.8137
  299MOL0     H40361   0.681   5.755   4.931  0.3564  2.2758  0.1782
  299MOL0     H40362   0.519   5.703   4.885  0.6033 -2.1369 -1.6887
  299MOL0     H40363   0.560   6.104   4.743  0.5987 -2.1008 -3.7608
  299MOL0     H40364   0.747   5.422   4.603  2.2686 -0.3145 -1.4660
  299MOL0     H40365   0.564   5.286   4.534 -0.5065 -2.0306 -1.3858
  300MOL0     O40366   7.468  11.437   7.856  0.3115 -0.1433 -0.0557
  300MOL0     C40367   7.557  11.416   7.939  0.0025  0.1092 -0.2300
  300MOL0     O40368   7.538  11.405   8.075 -0.6542 -0.0979 -0.3441
  300MOL0     C40369   7.410  11.417   8.114 -0.4283 -0.1173  0.9151
  300MOL0     C40370   7.352  11.545   8.152  0.5147 -0.2870 -0.4820
  300MOL0     C40371   7.220  11.540   8.207 -0.0230  0.5128 -0.0456
  300MOL0     C40372   7.141  11.420   8.216 -0.4338  0.2589 -0.0529
  300MOL0     O40373   7.029  11.437   8.288  0.0988  0.3316  0.3458
  300MOL0     C40374   6.938  11.330   8.297 -0.3865 -0.5769  0.2237
  300MOL0     C40375   6.840  11.328   8.179 -0.0513 -0.0256  0.0736
  300MOL0     C40376   6.733  11.235   8.216 -0.4379 -0.0668  1.2095
  300MOL0     C40377   6.631  11.188   8.114  0.5204  0.3398 -0.0977
  300MOL0     C40378   6.515  11.293   8.114  0.4594  0.7000  0.1404
  300MOL0     C40379   6.372  11.226   8.091  0.0804 -0.3992  0.4421
  300MOL0     C40380   6.271  11.320   8.021 -0.1375  0.3552  0.4996
  300MOL0     C40381   6.202  11.412   8.115  0.0798  0.2287 -0.3384
  300MOL0     N40382   6.072  11.463   8.050  0.0887 -0.1867 -0.6527
  300MOL0     C40383   6.065  11.600   8.017 -0.6451 -0.4275 -0.0681
  300MOL0     C40384   5.936  11.608   7.972 -0.1794 -0.1260 -0.1919
  300MOL0     C40385   5.859  11.720   7.906  1.1101 -0.4634 -0.2629
  300MOL0     C40386   5.941  11.794   7.803  0.5872  0.0374  0.4622
  300MOL0     C40387   5.841  11.905   7.744 -0.3699 -0.0766  0.5763
  300MOL0     C40388   5.896  11.998   7.642 -0.2049 -0.0740 -0.6471
  300MOL0     O40389   5.928  11.912   7.527  0.8615  0.4258  0.0511
  300MOL0     C40390   5.933  11.959   7.408 -0.3960 -0.3446  0.3723
  300MOL0     C40391   5.898  11.867   7.305 -0.4616  0.3512 -0.1518
  300MOL0     C40392   5.883  11.920   7.170 -0.0401 -1.0632  0.5725
  300MOL0     C40393   5.838  11.824   7.067 -0.7344 -0.7802 -0.4911
  300MOL0     C40394   5.917  12.051   7.132  0.0720 -0.0977 -0.0617
  300MOL0     C40395   5.923  12.102   6.997  0.3858  0.2795 -0.1412
  300MOL0     O40396   5.917  12.012   6.892  0.4356  0.5782  0.1488
  300MOL0     C40397   5.906  12.050   6.767  0.0804 -1.0613  0.0412
  300MOL0     C40398   6.029  12.068   6.698 -0.0530  0.2520 -0.3713
  300MOL0     C40399   6.026  12.109   6.563 -0.8080  0.6496  0.0902
  300MOL0     C40400   5.906  12.138   6.489  0.4999 -0.0676  0.0145
  300MOL0     O40401   5.925  12.188   6.363  0.3505  0.4967  0.4295
  300MOL0     C40402   5.804  12.253   6.302 -0.7735 -0.1647 -0.7182
  300MOL0     C40403   5.853  12.306   6.162  0.6835  0.8253  0.0578
  300MOL0     C40404   5.732  12.376   6.079  0.0680  0.3883 -0.2619
  300MOL0     C40405   5.764  12.405   5.931  0.0094 -0.0208 -0.0715
  300MOL0     C40406   5.672  12.504   5.860 -0.6033 -0.6896 -0.9541
  300MOL0     C40407   5.532  12.452   5.844 -0.1908  1.5199  0.6937
  300MOL0     C40408   5.509  12.329   5.745  1.0762 -1.5501 -0.9864
  300MOL0     C40409   5.365  12.267   5.737  0.3129  0.2689  0.9364
  300MOL0    Cl40410   5.344  12.156   5.588  0.4442 -0.1568  0.4516
  300MOL0     C40411   5.788  12.110   6.559  0.1343 -0.5956 -0.1875
  300MOL0     C40412   5.790  12.067   6.693  0.2604 -0.3111 -0.9148
  300MOL0     O40413   5.940  12.223   6.980 -0.2747 -0.3038  0.4803
  300MOL0     C40414   5.962  12.137   7.242  0.0142 -0.2534 -0.4828
  300MOL0     C40415   5.965  12.096   7.378 -0.0618  0.4315  0.4745
  300MOL0     N40416   5.873  11.489   8.004 -0.7854 -0.4177  1.0574
  300MOL0     N40417   5.959  11.399   8.054  1.2005  0.2814  0.4632
  300MOL0     C40418   7.201  11.304   8.164  0.8582  0.0014 -0.4403
  300MOL0     C40419   7.334  11.305   8.115  1.0741  1.2884  0.1347
  300MOL0     C40420   7.700  11.418   7.891  0.4816 -0.7973 -0.3804
  300MOL0     C40421   7.776  11.310   7.911  0.4947 -0.8072  0.8659
  300MOL0     C40422   7.902  11.300   7.850  0.9935  0.0717 -0.3350
  300MOL0     C40423   7.958  11.396   7.766  0.3005 -0.4806  0.3461
  300MOL0     O40424   8.083  11.359   7.703  0.9763 -0.1592  0.2480
  300MOL0     C40425   8.134  11.446   7.593 -0.0397  0.7188 -0.0339
  300MOL0     C40426   8.224  11.366   7.503 -0.7471 -0.2433  0.3913
  300MOL0     C40427   8.135  11.264   7.445 -0.1315 -0.4841  0.1708
  300MOL0     C40428   8.199  11.168   7.352  0.5544  0.5835  0.2689
  300MOL0     C40429   8.099  11.092   7.273 -0.4113  0.1765  0.3146
  300MOL0     C40430   8.010  11.034   7.219  0.5327 -0.0069 -0.5065
  300MOL0     C40431   7.881  11.516   7.744  0.0169  0.3266  0.3062
  300MOL0     C40432   7.749  11.520   7.797 -0.3474 -0.6092  0.3353
  300MOL0     H40433   7.408  11.638   8.150 -0.4588  0.3387  0.4762
  300MOL0     H40434   7.179  11.620   8.268 -2.2206 -2.1353  2.2184
  300MOL0     H40435   6.993  11.237   8.312 -0.9737 -0.7154  1.6925
  300MOL0     H40436   6.877  11.352   8.385  1.1657 -0.3696  1.2906
  300MOL0     H40437   6.804  11.429   8.158 -2.0961 -0.6713  0.2907
  300MOL0     H40438   6.900  11.312   8.088  0.4122  1.9615  0.0006
  300MOL0     H40439   6.794  11.151   8.250 -0.9780  0.1021  2.6693
  300MOL0     H40440   6.688  11.279   8.305 -0.5232 -0.8632  1.5698
  300MOL0     H40441   6.687  11.182   8.020  0.3206 -0.5146 -0.1768
  300MOL0     H40442   6.579  11.094   8.136 -0.0523  0.5878 -0.3640
  300MOL0     H40443   6.515  11.349   8.208 -2.5423  1.7272 -0.3604
  300MOL0     H40444   6.524  11.365   8.032 -1.6493 -0.6174 -1.3373
  300MOL0     H40445   6.405  11.144   8.027  1.1841  0.0444  0.4157
  300MOL0     H40446   6.337  11.183   8.185  0.8142 -2.6239 -0.2422
  300MOL0     H40447   6.313  11.365   7.930 -1.5555 -1.3945 -1.1099
  300MOL0     H40448   6.196  11.257   7.971 -1.5740  1.7221  0.8562
  300MOL0     H40449   6.273  11.491   8.142  0.6442  0.4235 -2.2682
  300MOL0     H40450   6.168  11.352   8.200  2.5026 -1.8468 -0.7403
  300MOL0     H40451   6.140  11.675   7.995 -0.3207 -0.3183  1.3561
  300MOL0     H40452   5.770  11.674   7.861 -1.7717  2.6913  1.7701
  300MOL0     H40453   5.816  11.786   7.981 -3.3884 -3.3990  0.1454
  300MOL0     H40454   5.971  11.721   7.727  0.1777 -1.5171  1.7370
  300MOL0     H40455   6.019  11.865   7.835 -0.0019  1.6176 -1.4409
  300MOL0     H40456   5.827  11.976   7.826  3.0826 -0.8003  1.9358
  300MOL0     H40457   5.738  11.873   7.725 -2.2405  2.6020  4.6741
  300MOL0     H40458   5.983  12.048   7.686 -2.9134  2.5648  2.2538
  300MOL0     H40459   5.823  12.078   7.627  0.4945  1.1331  1.9247
  300MOL0     H40460   5.871  11.765   7.330 -3.8541  1.4098  1.2461
  300MOL0     H40461   5.922  11.769   7.023 -2.1311 -1.4015 -2.5646
  300MOL0     H40462   5.779  11.746   7.117 -0.0882  1.1803  3.7667
  300MOL0     H40463   5.770  11.874   6.997  1.6582  1.3916 -1.4131
  300MOL0     H40464   6.123  12.041   6.743  0.6179 -2.0660 -2.8932
  300MOL0     H40465   6.122  12.137   6.522 -0.7596  1.6777  0.8821
  300MOL0     H40466   5.716  12.191   6.283 -1.0574  1.0067 -3.7865
  300MOL0     H40467   5.770  12.335   6.366 -2.3380 -0.9938 -0.4310
  300MOL0     H40468   5.932  12.378   6.189  2.3957 -0.3188 -1.6519
  300MOL0     H40469   5.905  12.232   6.101 -1.3231 -0.1832 -0.5094
  300MOL0     H40470   5.712  12.472   6.127  0.5528  2.0587 -3.1212
  300MOL0     H40471   5.637  12.322   6.080  0.1414  0.2391  1.2191
  300MOL0     H40472   5.861  12.453   5.914 -1.1342  2.4507  0.0359
  300MOL0     H40473   5.763  12.307   5.883 -0.7804 -0.0422 -0.0113
  300MOL0     H40474   5.717  12.543   5.768  2.6989 -0.5608  0.5703
  300MOL0     H40475   5.643  12.592   5.918 -3.1451 -2.7292  1.1159
  300MOL0     H40476   5.495  12.415   5.940 -1.6032  3.2474  0.8555
  300MOL0     H40477   5.485  12.541   5.800  3.4510  1.6045 -3.7863
  300MOL0     H40478   5.581  12.251   5.770  2.4476  0.1132  0.4660
  300MOL0     H40479   5.517  12.356   5.639  0.4595  0.4045 -0.5629
  300MOL0     H40480   5.286  12.342   5.750 -0.8816 -0.6772 -0.5446
  300MOL0     H40481   5.342  12.205   5.824 -1.7020  0.7933  0.8330
  300MOL0     H40482   5.695  12.110   6.504 -0.1625 -2.1854  0.2610
  300MOL0     H40483   5.692  12.037   6.729  2.2326 -3.7583  2.3714
  300MOL0     H40484   5.974  12.240   7.209 -1.3676 -0.7344 -2.7288
  300MOL0     H40485   6.000  12.161   7.458 -1.1914  1.6631  0.0002
  300MOL0     H40486   7.157  11.205   8.175 -0.0098  0.5417  1.3339
  300MOL0     H40487   7.376  11.214   8.072 -5.1769 -1.6608 -0.9375
  300MOL0     H40488   7.724  11.236   7.971 -3.8245  0.0984 -1.4124
  300MOL0     H40489   7.956  11.208   7.873  1.7746  1.1775  2.7144
  300MOL0     H40490   8.052  11.491   7.536  1.2082  1.1820 -1.5422
  300MOL0     H40491   8.205  11.519   7.634  1.6706 -1.1872  0.6070
  300MOL0     H40492   8.300  11.313   7.561 -2.1211 -2.9128 -0.0769
  300MOL0     H40493   8.263  11.429   7.423  0.5099 -2.3029 -0.7125
  300MOL0     H40494   8.063  11.324   7.387 -0.4003 -2.1480 -1.3221
  300MOL0     H40495   8.080  11.211   7.523 -0.8289  2.0529  1.4773
  300MOL0     H40496   8.252  11.090   7.407 -0.2454 -2.6774 -3.1602
  300MOL0     H40497   8.272  11.224   7.293  2.8828  0.0124  2.4587
  300MOL0     H40498   7.932  10.986   7.165  1.1526 -2.3626  0.5355
  300MOL0     H40499   7.918  11.597   7.683 -1.1321  1.1334  0.6490
  300MOL0     H40500   7.685  11.606   7.781 -1.6850 -2.2313 -5.6485
  301MOL0     O40501   1.640   4.506   5.975  0.3545 -0.8330  0.1858
  301MOL0     C40502   1.548   4.452   6.030  0.2086  0.8858 -0.4443
  301MOL0     O40503   1.487   4.340   5.983  0.5486 -0.3841 -0.2977
  301MOL0     C40504   1.539   4.272   5.876  0.6456  0.1722 -0.4921
  301MOL0     C40505   1.589   4.330   5.752  0.8902  0.4464 -0.2628
  301MOL0     C40506   1.641   4.242   5.652 -0.4526  1.2015 -0.4657
  301MOL0     C40507   1.638   4.103   5.665  0.0418 -0.2098  0.1207
  301MOL0     O40508   1.695   4.033   5.563 -0.2494  0.2583  0.3683
  301MOL0     C40509   1.777   3.926   5.608  0.5224  0.7105 -0.2553
  301MOL0     C40510   1.860   3.888   5.479  0.0303  1.2685  0.3587
  301MOL0     C40511   1.768   3.809   5.376  0.5140  0.9815  0.2945
  301MOL0     C40512   1.833   3.726   5.264  1.2622  0.3464  1.1522
  301MOL0     C40513   1.723   3.658   5.181  0.4007  0.1285 -0.1313
  301MOL0     C40514   1.771   3.619   5.042 -0.8989 -0.1298  0.5235
  301MOL0     C40515   1.867   3.504   5.047  1.2926  0.9497 -0.0501
  301MOL0     C40516   1.953   3.488   4.922 -0.3978 -0.2198 -0.5125
  301MOL0     N40517   1.872   3.429   4.825  0.5320  0.2441 -0.1347
  301MOL0     C40518   1.832   3.303   4.830 -0.1974  0.6507 -0.5366
  301MOL0     C40519   1.750   3.292   4.722 -0.4152  1.2116  0.1084
  301MOL0     C40520   1.677   3.162   4.691 -0.0360  0.4201 -0.1673
  301MOL0     C40521   1.578   3.124   4.794  0.3112 -1.3468 -0.6845
  301MOL0     C40522   1.442   3.194   4.780  0.2353  0.6867  0.5886
  301MOL0     C40523   1.457   3.344   4.822  0.5601  0.7054  0.2886
  301MOL0     O40524   1.326   3.398   4.869  0.1249 -0.6262 -0.4549
  301MOL0     C40525   1.307   3.522   4.824  0.1310  0.3974 -0.4393
  301MOL0     C40526   1.382   3.630   4.870  1.0421 -0.4435 -0.2916
  301MOL0     C40527   1.352   3.757   4.821 -0.0348 -0.6795  0.3930
  301MOL0     C40528   1.435   3.866   4.872 -0.4824 -0.6029 -0.2010
  301MOL0     C40529   1.239   3.780   4.737  0.4614  0.9485 -0.0806
  301MOL0     C40530   1.202   3.915   4.678  0.6112 -0.6233  0.2283
  301MOL0     O40531   1.094   3.919   4.583 -0.4147  0.3370  0.1556
  301MOL0     C40532   1.065   4.025   4.499 -0.1372 -0.3798 -0.9737
  301MOL0     C40533   1.101   4.162   4.520  0.3806 -0.4592  0.8757
  301MOL0     C40534   1.062   4.260   4.425  0.0517  0.2596  0.0800
  301MOL0     C40535   0.979   4.229   4.313 -0.0812 -0.2341 -0.5493
  301MOL0     O40536   0.947   4.310   4.213  0.6849 -0.2320  0.6727
  301MOL0     C40537   0.943   4.455   4.255 -0.2957  0.7654  1.3667
  301MOL0     C40538   0.855   4.530   4.159  0.0796 -0.1396 -0.0035
  301MOL0     C40539   0.866   4.689   4.183  0.3160 -0.5900  0.2403
  301MOL0     C40540   0.822   4.734   4.320  0.2414  0.2042 -0.0153
  301MOL0     C40541   0.869   4.880   4.356  0.9241 -0.3973 -0.4172
  301MOL0     C40542   0.801   4.915   4.487 -0.1962  0.2252 -0.1031
  301MOL0     C40543   0.846   5.059   4.532 -0.5728 -0.5282  0.1475
  301MOL0     C40544   0.759   5.108   4.656  0.4002 -0.0800  1.2191
  301MOL0    Cl40545   0.831   5.019   4.782  0.5050  0.0773 -0.7510
  301MOL0     C40546   0.945   4.095   4.291  0.0087  0.6203  0.1267
  301MOL0     C40547   0.981   4.001   4.390 -0.7678  0.2055  0.1729
  301MOL0     O40548   1.272   4.013   4.706 -0.1060 -0.5601 -0.2736
  301MOL0     C40549   1.162   3.666   4.706 -0.1953  0.4876 -0.3563
  301MOL0     C40550   1.200   3.543   4.744 -0.7169 -0.3821 -0.1146
  301MOL0     N40551   1.745   3.401   4.645 -0.5669 -0.1677 -0.2824
  301MOL0     N40552   1.813   3.488   4.713 -0.0090 -0.4911  0.2010
  301MOL0     C40553   1.576   4.046   5.785 -0.3118  0.3841 -0.0209
  301MOL0     C40554   1.523   4.130   5.882 -0.1202  1.3936  0.7013
  301MOL0     C40555   1.481   4.526   6.140  0.4994 -0.7254 -0.2374
  301MOL0     C40556   1.397   4.462   6.227 -0.1883  0.2817  0.0815
  301MOL0     C40557   1.332   4.538   6.328  0.0334 -0.8851 -0.2485
  301MOL0     C40558   1.355   4.675   6.352  0.0917 -0.0810 -0.3288
  301MOL0     O40559   1.300   4.744   6.457 -0.2158 -0.2025  0.9545
  301MOL0     C40560   1.177   4.683   6.520 -0.1040  0.2681 -0.5978
  301MOL0     C40561   1.052   4.697   6.430  0.1292  0.1463  0.6839
  301MOL0     C40562   1.038   4.833   6.374 -1.1144  0.2351 -0.1011
  301MOL0     C40563   0.921   4.830   6.278 -0.7997 -0.8054 -0.2758
  301MOL0     C40564   0.795   4.784   6.338 -0.1153  0.4109  0.3856
  301MOL0     C40565   0.701   4.728   6.386  0.0699 -0.0548  1.3220
  301MOL0     C40566   1.438   4.739   6.259 -0.5488 -0.4079  0.2059
  301MOL0     C40567   1.491   4.667   6.152  0.2459 -0.0774 -0.1646
  301MOL0     H40568   1.607   4.437   5.748 -4.7970  1.7741  0.5643
  301MOL0     H40569   1.688   4.293   5.569 -0.7757  2.1220 -0.1006
  301MOL0     H40570   1.849   3.954   5.686 -1.7916  2.4984  1.3873
  301MOL0     H40571   1.716   3.845   5.648  1.3018 -0.4217 -1.2882
  301MOL0     H40572   1.922   3.971   5.444  3.7430 -1.1888  0.4854
  301MOL0     H40573   1.936   3.812   5.502 -1.0997  0.1409  0.4693
  301MOL0     H40574   1.701   3.742   5.432  1.8334  0.9922  2.0026
  301MOL0     H40575   1.698   3.882   5.336 -0.5896  1.2640  2.5460
  301MOL0     H40576   1.890   3.790   5.196  3.0736 -0.1853  2.0936
  301MOL0     H40577   1.900   3.650   5.306  3.9383  0.5934 -2.2336
  301MOL0     H40578   1.681   3.572   5.234  2.9625 -0.7770  0.5387
  301MOL0     H40579   1.639   3.729   5.171  3.3068  3.8200 -0.4907
  301MOL0     H40580   1.681   3.594   4.985 -0.6046  1.5576 -0.7610
  301MOL0     H40581   1.818   3.706   4.995 -0.5340  1.1248  3.0086
  301MOL0     H40582   1.937   3.510   5.130  3.1453 -4.2409 -0.8381
  301MOL0     H40583   1.811   3.410   5.060  3.5378 -0.5802 -0.7757
  301MOL0     H40584   2.039   3.425   4.948 -0.3714  0.4234  1.1335
  301MOL0     H40585   2.002   3.581   4.890  2.7113 -0.6581  2.3313
  301MOL0     H40586   1.861   3.231   4.906  0.2593 -1.6341 -2.7573
  301MOL0     H40587   1.617   3.184   4.603 -1.8102  1.5976  1.2552
  301MOL0     H40588   1.755   3.085   4.700  0.7972  1.3250  0.6403
  301MOL0     H40589   1.630   3.136   4.890  1.7254 -0.8316 -1.4889
  301MOL0     H40590   1.563   3.018   4.776 -0.8234 -1.7561  2.0747
  301MOL0     H40591   1.367   3.148   4.845  1.2813 -2.4860 -0.2928
  301MOL0     H40592   1.401   3.192   4.679  1.9382  2.8664 -0.2258
  301MOL0     H40593   1.485   3.391   4.727  2.5306  3.3804  2.0441
  301MOL0     H40594   1.543   3.350   4.889  0.7712 -2.6433  0.4759
  301MOL0     H40595   1.468   3.609   4.933  1.1504  0.3801 -0.1478
  301MOL0     H40596   1.491   3.921   4.796  2.0984 -1.2998  1.0654
  301MOL0     H40597   1.375   3.945   4.917 -0.8117 -0.1850 -1.3604
  301MOL0     H40598   1.511   3.839   4.947  0.1445 -2.5588 -1.4646
  301MOL0     H40599   1.158   4.198   4.605  1.4547 -0.0212 -0.0041
  301MOL0     H40600   1.087   4.363   4.447 -0.2573  0.3642 -0.0551
  301MOL0     H40601   0.910   4.457   4.359 -0.5902  2.4538  1.2773
  301MOL0     H40602   1.045   4.491   4.241  0.8306 -3.2134 -3.4651
  301MOL0     H40603   0.880   4.506   4.056  0.8675 -2.4942  0.6802
  301MOL0     H40604   0.759   4.486   4.187  0.6819 -2.6620 -1.5674
  301MOL0     H40605   0.806   4.749   4.113  0.7493  3.2768  2.8503
  301MOL0     H40606   0.967   4.725   4.162 -0.0623  0.4257  0.0500
  301MOL0     H40607   0.715   4.742   4.303  0.6854  1.6682 -2.7851
  301MOL0     H40608   0.849   4.658   4.394  3.5637  1.5580  0.3391
  301MOL0     H40609   0.834   4.956   4.286 -3.5739 -2.1092 -0.3457
  301MOL0     H40610   0.977   4.875   4.369  0.7943  1.6907  2.3430
  301MOL0     H40611   0.695   4.903   4.464 -0.1575 -0.3370 -0.0067
  301MOL0     H40612   0.818   4.837   4.561 -2.3428  0.2953  0.5284
  301MOL0     H40613   0.825   5.117   4.442  3.1089 -0.6873 -1.0087
  301MOL0     H40614   0.956   5.062   4.540 -0.4785  1.1873 -1.2665
  301MOL0     H40615   0.657   5.067   4.655  1.4817 -3.0595  0.3773
  301MOL0     H40616   0.765   5.216   4.667 -1.1514  0.1796 -0.1206
  301MOL0     H40617   0.885   4.059   4.208  0.9322 -0.9836  0.1220
  301MOL0     H40618   0.948   3.898   4.398  1.5800 -0.4462  3.6848
  301MOL0     H40619   1.078   3.656   4.637  1.0080  0.2104 -1.8293
  301MOL0     H40620   1.141   3.460   4.705 -1.2425  0.4626 -1.1591
  301MOL0     H40621   1.564   3.939   5.792 -2.6264  0.4222 -1.9448
  301MOL0     H40622   1.466   4.082   5.960 -0.3793  1.3440  0.4834
  301MOL0     H40623   1.383   4.355   6.215 -3.9078  0.5900  0.7262
  301MOL0     H40624   1.266   4.481   6.392 -0.8766 -1.0024 -1.2714
  301MOL0     H40625   1.175   4.577   6.548 -3.3275 -0.7460 -3.7704
  301MOL0     H40626   1.151   4.739   6.610 -1.8689  1.5908 -1.8527
  301MOL0     H40627   0.968   4.661   6.491  0.8528 -0.9858  1.0514
  301MOL0     H40628   1.061   4.633   6.341 -0.3899  0.0858  0.6708
  301MOL0     H40629   1.129   4.863   6.321  0.0535 -2.2320  0.3599
  301MOL0     H40630   1.019   4.908   6.452 -2.5393  0.2299 -0.4068
  301MOL0     H40631   0.952   4.769   6.193 -0.8899  0.7031 -1.4189
  301MOL0     H40632   0.906   4.928   6.232  1.8135  0.5320  1.4588
  301MOL0     H40633   0.632   4.668   6.441 -0.8555  0.9788  1.3150
  301MOL0     H40634   1.467   4.840   6.284  1.6673 -0.6610 -1.0320
  301MOL0     H40635   1.547   4.723   6.077 -1.0252  1.9399  0.3157
  302MOL0     O40636   1.284   1.707  10.910  0.2679  0.3739 -0.3087
  302MOL0     C40637   1.232   1.766  10.817  1.3448 -0.5363  0.1980
  302MOL0     O40638   1.096   1.769  10.794 -0.1623  0.9604 -0.2919
  302MOL0     C40639   1.019   1.748  10.904  0.0734  1.6763 -0.5884
  302MOL0     C40640   0.944   1.632  10.900 -0.6604 -0.3957  0.6828
  302MOL0     C40641   0.840   1.614  10.993  0.3529  0.3533  0.1159
  302MOL0     C40642   0.810   1.709  11.091  0.3498 -0.6788  0.5792
  302MOL0     O40643   0.700   1.689  11.159 -0.3861  0.5017 -0.4113
  302MOL0     C40644   0.711   1.691  11.303 -0.2337 -0.8765  0.7595
  302MOL0     C40645   0.585   1.627  11.369 -0.1010  0.3750  0.3119
  302MOL0     C40646   0.604   1.568  11.507  0.1261 -0.1944  0.0789
  302MOL0     C40647   0.502   1.458  11.542 -0.0505 -1.0020  0.0815
  302MOL0     C40648   0.354   1.520  11.538 -0.1312  0.1531  0.6896
  302MOL0     C40649   0.249   1.404  11.565  0.0996 -0.3972 -0.0807
  302MOL0     C40650   0.120   1.424  11.494  0.5319 -0.6350 -0.3951
  302MOL0     C40651  -0.000   1.367  11.562 -0.0165  0.3485  0.2991
  302MOL0     N40652  -0.129   1.386  11.480 -0.1222  0.4563 -0.4565
  302MOL0     C40653  -0.192   1.291  11.407  0.3726  0.4759  0.3443
  302MOL0     C40654  -0.310   1.361  11.363 -0.0793 -1.2862  0.7518
  302MOL0     C40655  -0.423   1.333  11.271 -0.2337  0.0401  0.2771
  302MOL0     C40656  -0.414   1.412  11.146 -0.5883 -0.7940 -0.9984
  302MOL0     C40657  -0.269   1.468  11.101  0.3756  0.8502 -0.0246
  302MOL0     C40658  -0.269   1.543  10.980  0.0694 -1.6560  0.5311
  302MOL0     O40659  -0.278   1.463  10.859 -0.0143 -0.1141  0.6286
  302MOL0     C40660  -0.154   1.440  10.796 -0.1078  0.0982 -0.3062
  302MOL0     C40661  -0.111   1.310  10.772  0.5177 -0.0714  0.9494
  302MOL0     C40662   0.009   1.279  10.704  0.3880 -0.1295  0.5338
  302MOL0     C40663   0.045   1.130  10.718 -0.5331 -0.9351 -0.7346
  302MOL0     C40664   0.096   1.380  10.653  0.2290 -0.0174  0.3690
  302MOL0     C40665   0.220   1.346  10.579 -0.1182 -0.0099  0.2645
  302MOL0     O40666   0.284   1.454  10.535  0.1034 -0.3957  0.2279
  302MOL0     C40667   0.387   1.430  10.455  0.3579 -0.2384  0.9883
  302MOL0     C40668   0.524   1.421  10.494 -0.7621  1.3085 -0.7480
  302MOL0     C40669   0.629   1.423  10.402  1.3739  1.4250 -0.0886
  302MOL0     C40670   0.598   1.398  10.267 -0.3365 -0.1043  0.5491
  302MOL0     O40671   0.702   1.373  10.177  0.0154 -0.9154  0.2376
  302MOL0     C40672   0.667   1.293  10.063 -0.0421 -0.3284 -0.5697
  302MOL0     C40673   0.799   1.248   9.995  0.0364 -0.7483  0.8091
  302MOL0     C40674   0.793   1.118   9.921  0.1663  0.3385 -0.1003
  302MOL0     C40675   0.907   1.089   9.823  0.0742  0.2991  0.2323
  302MOL0     C40676   0.869   0.956   9.755  0.3531  0.9975 -0.5786
  302MOL0     C40677   0.975   0.917   9.650  0.7533 -0.0780  0.4127
  302MOL0     C40678   0.934   0.787   9.589 -0.0384 -0.1498 -0.7171
  302MOL0     C40679   1.017   0.744   9.470 -0.3924 -0.3721 -0.5399
  302MOL0    Cl40680   1.182   0.794   9.495  0.3975 -0.2934  0.5817
  302MOL0     C40681   0.462   1.415  10.230 -0.6617  0.4769 -0.0793
  302MOL0     C40682   0.361   1.435  10.311 -0.5864  0.7217 -0.0630
  302MOL0     O40683   0.261   1.230  10.567  0.4016 -0.0995 -0.3476
  302MOL0     C40684   0.057   1.514  10.675  0.4010  0.1328 -0.2525
  302MOL0     C40685  -0.063   1.538  10.749  0.2564 -0.7311  1.1543
  302MOL0     N40686  -0.310   1.474  11.435  0.9605 -0.3167  0.5718
  302MOL0     N40687  -0.194   1.499  11.491  1.1465  0.8544 -0.0614
  302MOL0     C40688   0.888   1.828  11.093 -0.5203  0.2915  0.0171
  302MOL0     C40689   0.989   1.846  10.995 -0.4230  0.4119  0.1900
  302MOL0     C40690   1.314   1.835  10.709  1.0319  1.2727 -0.6158
  302MOL0     C40691   1.448   1.832  10.704 -0.4157 -0.1179 -0.1452
  302MOL0     C40692   1.523   1.902  10.609 -0.4740 -0.9836 -0.0043
  302MOL0     C40693   1.466   1.997  10.526  1.0164  0.0134 -0.0826
  302MOL0     O40694   1.530   2.100  10.451 -0.6666  0.1130  0.1486
  302MOL0     C40695   1.677   2.097  10.440  0.5108  0.3142 -0.0215
  302MOL0     C40696   1.728   2.165  10.317 -0.3882 -0.1704  0.2986
  302MOL0     C40697   1.653   2.098  10.186 -0.8217 -0.8563  0.7480
  302MOL0     C40698   1.701   2.166  10.064  0.7002 -0.1633  0.1898
  302MOL0     C40699   1.641   2.092   9.956  0.7102  0.2319  0.0793
  302MOL0     C40700   1.580   2.059   9.858 -0.2549 -0.4455  0.1642
  302MOL0     C40701   1.328   2.012  10.538 -0.6790  0.3110 -0.7020
  302MOL0     C40702   1.247   1.935  10.630 -0.0570 -0.6740  0.2788
  302MOL0     H40703   0.975   1.562  10.823  0.4185  1.7331 -0.9376
  302MOL0     H40704   0.772   1.529  10.984  1.0879 -0.2071 -0.3547
  302MOL0     H40705   0.796   1.627  11.325 -1.5672 -2.5236  1.2800
  302MOL0     H40706   0.729   1.792  11.341 -1.6845 -1.5870  3.5646
  302MOL0     H40707   0.510   1.706  11.381  0.9452  1.3980  0.2331
  302MOL0     H40708   0.559   1.553  11.292  0.5506  0.1082  0.3392
  302MOL0     H40709   0.703   1.521  11.512  2.6403  4.6223  1.0418
  302MOL0     H40710   0.597   1.650  11.579 -1.6722 -1.7774  1.8501
  302MOL0     H40711   0.515   1.377  11.469  1.1658  0.3949 -1.3193
  302MOL0     H40712   0.524   1.413  11.639  2.0970  0.1267  0.1777
  302MOL0     H40713   0.352   1.592  11.621  1.6310 -1.0844  1.8611
  302MOL0     H40714   0.335   1.571  11.443 -1.5082 -0.9165  0.3411
  302MOL0     H40715   0.291   1.309  11.529 -2.3269 -1.4948 -0.2683
  302MOL0     H40716   0.223   1.391  11.670 -1.7776 -2.0054 -0.6741
  302MOL0     H40717   0.107   1.533  11.494 -3.9697 -0.9601  0.1624
  302MOL0     H40718   0.131   1.387  11.391  0.2651 -3.5404  0.5297
  302MOL0     H40719  -0.016   1.430  11.650 -1.7185 -2.3087  2.0532
  302MOL0     H40720   0.035   1.265  11.584  1.1744  0.2898 -1.6113
  302MOL0     H40721  -0.164   1.190  11.381 -0.3466  0.7246 -1.5177
  302MOL0     H40722  -0.427   1.230  11.236  0.5556  0.5320 -1.3909
  302MOL0     H40723  -0.507   1.368  11.332  0.5715  1.4329  0.6439
  302MOL0     H40724  -0.486   1.492  11.167 -2.2961 -1.9842 -2.0395
  302MOL0     H40725  -0.464   1.356  11.065 -1.1066  0.0305 -1.2651
  302MOL0     H40726  -0.200   1.384  11.095 -0.8602 -0.2236  0.3367
  302MOL0     H40727  -0.216   1.531  11.173  4.7007 -2.1379 -0.1881
  302MOL0     H40728  -0.184   1.612  10.988 -2.1849  1.3075  0.2475
  302MOL0     H40729  -0.359   1.604  10.974  0.2027 -1.6051 -2.4374
  302MOL0     H40730  -0.173   1.235  10.821 -2.6275  0.7970 -1.3633
  302MOL0     H40731  -0.025   1.090  10.791  2.4957 -0.2561  2.9055
  302MOL0     H40732   0.044   1.087  10.618 -0.7179  3.0750 -2.6566
  302MOL0     H40733   0.149   1.123  10.753  0.7033  1.2096 -3.5273
  302MOL0     H40734   0.556   1.426  10.598  0.9198  3.3721 -1.3029
  302MOL0     H40735   0.731   1.403  10.433  0.9268 -0.0438  0.4914
  302MOL0     H40736   0.612   1.211  10.111 -2.7299  0.8979 -1.3867
  302MOL0     H40737   0.608   1.352   9.993  2.6182  1.5456 -1.3924
  302MOL0     H40738   0.828   1.326   9.925  1.0174 -3.9455 -2.6822
  302MOL0     H40739   0.871   1.243  10.078  1.4966 -0.3374 -0.3965
  302MOL0     H40740   0.702   1.139   9.864 -0.5172  1.3909  1.3174
  302MOL0     H40741   0.784   1.038   9.995 -2.1013 -0.3596 -1.0446
  302MOL0     H40742   0.901   1.164   9.744  2.6388  0.1405 -0.1797
  302MOL0     H40743   0.999   1.087   9.881 -1.0557  0.0341  2.1153
  302MOL0     H40744   0.772   0.963   9.706 -1.1965  1.3773  2.3181
  302MOL0     H40745   0.864   0.871   9.824  0.3383  1.3942 -0.0825
  302MOL0     H40746   0.983   0.992   9.570  1.3333 -1.2221 -0.6490
  302MOL0     H40747   1.069   0.894   9.701 -0.0897 -1.3572  1.4623
  302MOL0     H40748   0.826   0.786   9.572  0.3632  1.7747 -4.3304
  302MOL0     H40749   0.955   0.715   9.669 -1.7187 -1.8598 -1.7220
  302MOL0     H40750   0.978   0.779   9.373 -2.6720  1.0337  0.7805
  302MOL0     H40751   1.019   0.635   9.458 -4.1946 -1.0886  3.1399
  302MOL0     H40752   0.437   1.417  10.124 -2.6286  0.1408  0.3307
  302MOL0     H40753   0.262   1.452  10.268 -1.0329  2.5422  1.5034
  302MOL0     H40754   0.125   1.592  10.645 -0.2999  0.6219 -0.6046
  302MOL0     H40755  -0.101   1.639  10.763 -0.3548 -1.0107  1.5543
  302MOL0     H40756   0.866   1.911  11.158 -1.4901  1.2803 -1.5300
  302MOL0     H40757   1.033   1.945  10.998 -0.6635  0.5021  1.4207
  302MOL0     H40758   1.495   1.766  10.776 -3.1523 -0.6782  1.2445
  302MOL0     H40759   1.631   1.900  10.614 -0.3913  1.8367  0.9029
  302MOL0     H40760   1.729   2.134  10.529 -0.0425  0.6221  0.1760
  302MOL0     H40761   1.704   1.992  10.425 -0.1542 -0.1331  1.7244
  302MOL0     H40762   1.837   2.157  10.312 -0.3416 -1.4647  2.2879
  302MOL0     H40763   1.704   2.272  10.317 -1.0905 -0.3127 -0.6757
  302MOL0     H40764   1.545   2.101  10.203 -1.7230 -2.0479 -3.5367
  302MOL0     H40765   1.691   1.996  10.169  1.1791  0.3192 -3.2220
  302MOL0     H40766   1.809   2.159  10.052  0.5116 -1.3500 -0.9729
  302MOL0     H40767   1.678   2.271  10.044  1.6423 -0.1178 -0.7517
  302MOL0     H40768   1.535   2.026   9.767 -0.8443 -2.9520  1.2567
  302MOL0     H40769   1.275   2.087  10.481 -1.8070 -0.2156 -0.3760
  302MOL0     H40770   1.141   1.958  10.634 -0.2308 -0.1700 -3.7213
  303MOL0     O40771   1.104   7.665   0.703 -0.1940 -0.1704 -0.4815
  303MOL0     C40772   1.062   7.590   0.784 -0.3410 -0.0525 -0.2693
  303MOL0     O40773   0.928   7.563   0.815  0.0522  1.1128 -0.3374
  303MOL0     C40774   0.827   7.644   0.768 -0.2809  0.7402  0.0785
  303MOL0     C40775   0.705   7.585   0.721  0.7455  0.3807  0.1799
  303MOL0     C40776   0.608   7.671   0.669 -0.3629 -0.9239  1.0421
  303MOL0     C40777   0.635   7.805   0.658  0.6001 -0.0350  0.3418
  303MOL0     O40778   0.538   7.892   0.608 -0.4632  0.4658 -0.8107
  303MOL0     C40779   0.547   8.033   0.601  0.4127  0.9599 -0.3445
  303MOL0     C40780   0.619   8.077   0.472 -0.6931 -0.1145  0.2198
  303MOL0     C40781   0.656   8.224   0.464 -0.1430  0.8315 -0.6662
  303MOL0     C40782   0.755   8.252   0.351 -0.5842  0.2486 -0.6668
  303MOL0     C40783   0.687   8.229   0.221 -0.0776  0.5751 -0.0293
  303MOL0     C40784   0.749   8.287   0.101  0.5284  0.3248 -0.4597
  303MOL0     C40785   0.663   8.251  -0.024 -0.5294 -0.2467 -0.7968
  303MOL0     C40786   0.731   8.258  -0.154 -0.1240 -0.0214  0.6547
  303MOL0     N40787   0.829   8.149  -0.172 -1.1534  0.5321  0.5635
  303MOL0     C40788   0.924   8.156  -0.269  0.7195 -1.1857 -0.2857
  303MOL0     C40789   0.999   8.045  -0.249 -0.6331 -0.9924  0.2565
  303MOL0     C40790   1.114   7.998  -0.336  0.1877  0.1281  0.3496
  303MOL0     C40791   1.234   8.097  -0.329 -0.7723  0.4537  0.2382
  303MOL0     C40792   1.298   8.096  -0.190  0.3825  0.2931 -0.0472
  303MOL0     C40793   1.440   8.154  -0.189  0.9014  0.1403 -1.1982
  303MOL0     O40794   1.523   8.094  -0.282 -0.8099 -0.2267  0.3796
  303MOL0     C40795   1.652   8.139  -0.261  0.3710  0.8795 -0.2179
  303MOL0     C40796   1.696   8.259  -0.316 -0.6683  0.3575 -0.0813
  303MOL0     C40797   1.830   8.307  -0.313  0.3597  0.4105  0.1577
  303MOL0     C40798   1.858   8.442  -0.380 -0.1529  0.2993 -1.3567
  303MOL0     C40799   1.923   8.233  -0.239  0.2198  0.6581 -0.8408
  303MOL0     C40800   2.069   8.269  -0.229  0.5801  0.1122 -0.3378
  303MOL0     O40801   2.140   8.174  -0.177 -0.3967  0.2684 -0.6099
  303MOL0     C40802   2.274   8.188  -0.128  0.0491  0.3513 -0.3767
  303MOL0     C40803   2.323   8.310  -0.074 -0.2068  0.7135 -0.3804
  303MOL0     C40804   2.449   8.322  -0.015  0.1591 -0.6175 -1.0126
  303MOL0     C40805   2.521   8.205   0.013 -0.7549 -0.2269 -0.0675
  303MOL0     O40806   2.635   8.228   0.105 -0.3232 -0.7764  0.6669
  303MOL0     C40807   2.686   8.112   0.172  0.8267  0.6397 -0.4805
  303MOL0     C40808   2.809   8.143   0.259  0.0700  0.4300 -0.0758
  303MOL0     C40809   2.786   8.230   0.381  0.0349 -0.6265 -0.6775
  303MOL0     C40810   2.908   8.231   0.475 -0.0141 -1.0173  0.0863
  303MOL0     C40811   2.928   8.367   0.539 -0.4453 -0.3980 -0.0287
  303MOL0     C40812   2.995   8.456   0.453 -0.3609  0.1770 -1.0473
  303MOL0     C40813   3.032   8.598   0.525  0.0120 -0.5616  0.0553
  303MOL0     C40814   3.173   8.641   0.484  0.2133 -0.1617  0.6217
  303MOL0    Cl40815   3.218   8.805   0.544 -0.3898  0.0989 -0.1369
  303MOL0     C40816   2.474   8.081  -0.034  1.0920  0.5318 -1.0673
  303MOL0     C40817   2.356   8.076  -0.112  0.5275 -0.2330 -0.0798
  303MOL0     O40818   2.104   8.373  -0.266 -0.0074  0.2295 -0.0854
  303MOL0     C40819   1.875   8.121  -0.172  0.8452  0.2449  0.9854
  303MOL0     C40820   1.743   8.068  -0.183  0.3703 -1.0132 -0.1371
  303MOL0     N40821   0.955   7.969  -0.150  0.9298 -0.0986 -0.3534
  303MOL0     N40822   0.854   8.036  -0.105 -1.0270 -1.0450 -1.3578
  303MOL0     C40823   0.757   7.857   0.699  0.2574 -1.2985 -0.6551
  303MOL0     C40824   0.856   7.783   0.756  0.1995  0.5809 -0.4199
  303MOL0     C40825   1.157   7.503   0.862 -0.0235  1.2728 -0.3109
  303MOL0     C40826   1.291   7.498   0.831  0.2353 -0.0583  0.0845
  303MOL0     C40827   1.380   7.410   0.876 -0.4595 -0.0105 -0.8196
  303MOL0     C40828   1.334   7.318   0.966  0.2796 -0.4802  0.8596
  303MOL0     O40829   1.421   7.213   1.014 -0.2662 -0.6664  0.4558
  303MOL0     C40830   1.536   7.185   0.936  0.3156  0.7122 -0.8552
  303MOL0     C40831   1.565   7.028   0.941  0.3312  0.9013  0.2173
  303MOL0     C40832   1.488   6.956   0.826  0.4864 -0.0220  0.7025
  303MOL0     C40833   1.519   7.001   0.685  0.1753  0.1876  0.7062
  303MOL0     C40834   1.662   7.022   0.661  0.8544  0.5791 -0.4601
  303MOL0     C40835   1.777   7.054   0.632  0.1798  0.3617 -0.3130
  303MOL0     C40836   1.203   7.322   1.017  0.2767 -0.5815 -0.5847
  303MOL0     C40837   1.117   7.413   0.960 -0.7570  0.0300 -0.8323
  303MOL0     H40838   0.685   7.480   0.737 -1.5999  0.6003 -0.8421
  303MOL0     H40839   0.506   7.639   0.651 -0.2764 -0.4781 -0.4361
  303MOL0     H40840   0.450   8.082   0.586 -0.1180 -0.1850 -0.7639
  303MOL0     H40841   0.585   8.076   0.695  1.0476  0.5633 -0.4123
  303MOL0     H40842   0.715   8.023   0.465 -1.5579 -1.6210 -0.5712
  303MOL0     H40843   0.559   8.050   0.385  0.0974  2.9676 -1.4002
  303MOL0     H40844   0.568   8.285   0.440  0.9982  2.1682 -1.5576
  303MOL0     H40845   0.690   8.250   0.565 -0.7361 -1.3021  0.1388
  303MOL0     H40846   0.792   8.354   0.359 -2.1339  1.0132 -2.4635
  303MOL0     H40847   0.839   8.183   0.362 -1.7422 -1.1693 -0.3453
  303MOL0     H40848   0.667   8.123   0.202  1.5266 -0.0855  1.6870
  303MOL0     H40849   0.592   8.281   0.237  1.0081  1.8333  3.0686
  303MOL0     H40850   0.768   8.394   0.098  1.4457  0.1502 -1.9838
  303MOL0     H40851   0.849   8.245   0.087  0.5733 -1.0381  2.8473
  303MOL0     H40852   0.622   8.150  -0.010  2.5048 -1.3151  1.4968
  303MOL0     H40853   0.580   8.322  -0.021  0.0489  0.4194  0.0944
  303MOL0     H40854   0.793   8.347  -0.168  0.2991 -0.4962 -0.6572
  303MOL0     H40855   0.660   8.250  -0.236  1.1977 -0.0288 -0.5362
  303MOL0     H40856   0.932   8.226  -0.352 -0.4915  2.8583  2.7154
  303MOL0     H40857   1.142   7.896  -0.312 -0.3314  0.4207  2.3601
  303MOL0     H40858   1.075   7.985  -0.437  0.9245  0.7188 -0.0185
  303MOL0     H40859   1.198   8.198  -0.352 -3.1907  0.6699  4.0671
  303MOL0     H40860   1.304   8.064  -0.407 -1.0567  0.4303 -0.0109
  303MOL0     H40861   1.315   7.995  -0.152  2.6010  1.3111  1.9935
  303MOL0     H40862   1.225   8.150  -0.129  0.2335  0.8214 -0.6789
  303MOL0     H40863   1.479   8.140  -0.087 -0.9264  4.4885  0.3309
  303MOL0     H40864   1.439   8.263  -0.197 -0.7686  0.1010 -1.8075
  303MOL0     H40865   1.632   8.327  -0.372  0.4162  0.9675 -0.6154
  303MOL0     H40866   1.942   8.431  -0.450 -1.0967 -1.3355 -2.3148
  303MOL0     H40867   1.774   8.474  -0.442  0.8133  2.4143 -1.6505
  303MOL0     H40868   1.886   8.516  -0.305  0.6844  0.1556 -1.5141
  303MOL0     H40869   2.257   8.396  -0.067 -0.9657  0.3251 -2.0816
  303MOL0     H40870   2.472   8.419   0.028 -0.5647  0.1361 -2.2402
  303MOL0     H40871   2.607   8.067   0.232  2.0523 -0.3517  0.4445
  303MOL0     H40872   2.725   8.031   0.109  0.8745  1.3727 -1.4113
  303MOL0     H40873   2.850   8.050   0.300  0.9722  1.8613  2.4942
  303MOL0     H40874   2.890   8.191   0.202 -0.5027  0.4401 -0.8970
  303MOL0     H40875   2.700   8.182   0.429  1.1350 -1.4932  0.4851
  303MOL0     H40876   2.748   8.324   0.340  1.6378  0.6900  0.7761
  303MOL0     H40877   2.902   8.163   0.561 -1.4308  0.4701  1.2426
  303MOL0     H40878   2.995   8.200   0.418 -0.7420  0.4154 -1.9329
  303MOL0     H40879   2.993   8.346   0.625 -0.2464 -0.4560 -0.1939
  303MOL0     H40880   2.835   8.415   0.572  1.0925  4.4194 -2.0073
  303MOL0     H40881   3.092   8.425   0.414  0.4375  1.6961 -0.3517
  303MOL0     H40882   2.924   8.487   0.375  0.2198  2.0239 -0.8953
  303MOL0     H40883   3.032   8.596   0.634 -0.2823  0.9276  0.0971
  303MOL0     H40884   2.968   8.674   0.479  0.7502  2.3831  3.4631
  303MOL0     H40885   3.176   8.652   0.375 -3.8105  2.1366  0.5482
  303MOL0     H40886   3.237   8.563   0.526  0.1576  0.8679  2.7273
  303MOL0     H40887   2.515   7.989   0.006 -0.7147  0.0980 -0.1023
  303MOL0     H40888   2.325   7.980  -0.152 -2.0799 -0.1614  1.5197
  303MOL0     H40889   1.942   8.051  -0.122  1.6886 -1.4313 -2.2348
  303MOL0     H40890   1.703   7.972  -0.151 -0.3743 -0.9726 -0.9223
  303MOL0     H40891   0.778   7.962   0.711  2.3232 -1.7580  0.2758
  303MOL0     H40892   0.941   7.837   0.796  0.1514  0.5872 -0.3251
  303MOL0     H40893   1.330   7.551   0.745  1.0186  0.0811  0.5214
  303MOL0     H40894   1.481   7.421   0.837 -0.2030  0.9166  0.0747
  303MOL0     H40895   1.544   7.208   0.829  5.3438  1.3829 -0.5938
  303MOL0     H40896   1.616   7.230   0.995  0.2177 -0.9573  0.6377
  303MOL0     H40897   1.519   6.988   1.031  0.1874  2.0404  0.6660
  303MOL0     H40898   1.673   7.012   0.944 -0.0249 -1.7632  2.3515
  303MOL0     H40899   1.379   6.962   0.834  0.1666 -0.0474 -2.5802
  303MOL0     H40900   1.516   6.850   0.825  3.5278  0.6476 -1.7874
  303MOL0     H40901   1.452   7.081   0.653 -2.0316 -1.7614  0.1965
  303MOL0     H40902   1.484   6.916   0.626 -1.4306  0.0469  1.7734
  303MOL0     H40903   1.876   7.083   0.604  0.9888 -2.3233 -0.4932
  303MOL0     H40904   1.169   7.242   1.081 -0.6957 -1.1309 -1.7444
  303MOL0     H40905   1.021   7.414   1.009  0.2688 -3.2677  1.5738
  304MOL0     O40906   4.715   2.528   1.378  0.2598 -0.2615 -0.8467
  304MOL0     C40907   4.676   2.416   1.346 -0.3008 -0.5827 -0.0482
  304MOL0     O40908   4.748   2.331   1.258  0.2899  0.4235  0.9624
  304MOL0     C40909   4.876   2.358   1.233  0.3124  0.0594 -0.3217
  304MOL0     C40910   4.911   2.382   1.094 -0.0791  0.2344  0.6886
  304MOL0     C40911   5.045   2.378   1.049 -0.6980 -0.0251  0.1194
  304MOL0     C40912   5.147   2.373   1.150  0.9617  0.3999 -0.3800
  304MOL0     O40913   5.272   2.383   1.106 -0.3793 -0.1058  0.6408
  304MOL0     C40914   5.384   2.345   1.185  0.1504  0.5478 -0.6944
  304MOL0     C40915   5.522   2.376   1.113  0.7933  0.3945  0.1487
  304MOL0     C40916   5.550   2.249   1.020 -0.4364  0.5041 -0.5729
  304MOL0     C40917   5.666   2.268   0.922 -0.1474 -0.0300 -0.2904
  304MOL0     C40918   5.688   2.143   0.833  0.1292  0.2604  0.8042
  304MOL0     C40919   5.775   2.048   0.906 -0.1575  0.3800 -0.3199
  304MOL0     C40920   5.687   1.920   0.918  0.1335 -1.6553 -0.7749
  304MOL0     C40921   5.774   1.796   0.909 -0.3276 -0.6055 -0.4831
  304MOL0     N40922   5.768   1.742   0.767 -0.5371 -0.4542 -0.7128
  304MOL0     C40923   5.837   1.785   0.657 -0.2360 -0.1310 -0.0513
  304MOL0     C40924   5.807   1.712   0.549  0.9235  0.7038 -0.7386
  304MOL0     C40925   5.837   1.745   0.408 -0.3230  0.7979  0.3845
  304MOL0     C40926   5.772   1.653   0.300 -0.5799 -0.0325  0.2903
  304MOL0     C40927   5.812   1.714   0.166  0.4284 -0.0718  0.3679
  304MOL0     C40928   5.757   1.623   0.052 -0.1398  0.2679 -0.5772
  304MOL0     O40929   5.740   1.705  -0.054 -0.6210 -0.3688 -0.2230
  304MOL0     C40930   5.660   1.675  -0.156  0.1334  0.3102  0.0812
  304MOL0     C40931   5.639   1.771  -0.257  0.5791  0.2660  0.0350
  304MOL0     C40932   5.572   1.739  -0.373 -0.0124  0.0114  0.7178
  304MOL0     C40933   5.561   1.849  -0.478  0.1283 -0.3718  0.0310
  304MOL0     C40934   5.526   1.616  -0.405 -0.1348  0.4648 -0.1596
  304MOL0     C40935   5.453   1.571  -0.528  0.0393  0.3467  0.3878
  304MOL0     O40936   5.414   1.661  -0.621 -0.4899  0.0941 -0.1016
  304MOL0     C40937   5.356   1.602  -0.734  0.8684  0.6978  0.4770
  304MOL0     C40938   5.212   1.592  -0.724  0.0058  0.6997  0.6001
  304MOL0     C40939   5.129   1.534  -0.832 -0.0319 -0.1218 -0.0838
  304MOL0     C40940   5.193   1.505  -0.952  0.7151 -0.2756  0.3382
  304MOL0     O40941   5.114   1.463  -1.052  0.2942  1.0895  0.0879
  304MOL0     C40942   5.124   1.531  -1.167 -1.1577 -0.5123 -0.0512
  304MOL0     C40943   5.000   1.601  -1.215 -0.0300 -0.2045  0.4060
  304MOL0     C40944   4.875   1.507  -1.205  0.4842  0.0541 -0.6526
  304MOL0     C40945   4.766   1.542  -1.310 -0.8296 -0.0917 -0.7214
  304MOL0     C40946   4.644   1.451  -1.291 -0.1540 -0.0383 -0.6855
  304MOL0     C40947   4.590   1.419  -1.441 -0.6790 -0.0113 -0.5566
  304MOL0     C40948   4.448   1.356  -1.435 -0.3023 -0.1826  0.0235
  304MOL0     C40949   4.386   1.339  -1.579  0.4949 -0.1903  0.0665
  304MOL0    Cl40950   4.514   1.256  -1.677 -0.4436 -0.0049  0.1094
  304MOL0     C40951   5.334   1.520  -0.960  0.6273  0.1835  0.0382
  304MOL0     C40952   5.416   1.561  -0.850  0.4603  0.7155  1.1200
  304MOL0     O40953   5.427   1.451  -0.524  0.4304 -0.2472 -0.1760
  304MOL0     C40954   5.562   1.512  -0.313  0.5366  0.0122 -0.4219
  304MOL0     C40955   5.614   1.540  -0.185  0.5834 -0.1633 -0.4341
  304MOL0     N40956   5.712   1.626   0.606 -1.0666 -0.6509 -0.0058
  304MOL0     N40957   5.691   1.634   0.731  0.2612 -0.9401  0.2993
  304MOL0     C40958   5.105   2.353   1.280 -0.7018  0.9848 -0.0317
  304MOL0     C40959   4.979   2.346   1.324 -0.0065  0.2663 -1.0871
  304MOL0     C40960   4.551   2.370   1.404  0.1523  0.2631  0.9240
  304MOL0     C40961   4.510   2.393   1.538  0.0929 -0.5979  0.1843
  304MOL0     C40962   4.393   2.350   1.597  1.2709  0.0139  0.2011
  304MOL0     C40963   4.307   2.275   1.518  0.0365  0.7653  0.2282
  304MOL0     O40964   4.190   2.242   1.571 -0.6643 -1.0633 -0.3734
  304MOL0     C40965   4.071   2.306   1.528  0.1562 -0.5005  0.1401
  304MOL0     C40966   3.975   2.193   1.517  0.8882 -1.2200 -0.0488
  304MOL0     C40967   4.002   2.094   1.400  0.0859 -0.5634 -0.5191
  304MOL0     C40968   3.901   1.990   1.379  0.3564 -0.8684 -0.2559
  304MOL0     C40969   3.929   1.884   1.281 -0.0463 -0.0534  0.3508
  304MOL0     C40970   3.958   1.801   1.188  0.4167 -0.0367  0.2658
  304MOL0     C40971   4.343   2.241   1.387 -0.7461 -1.2530 -0.1294
  304MOL0     C40972   4.464   2.284   1.335 -1.3258  1.1164  0.5259
  304MOL0     H40973   4.828   2.392   1.025  0.4782  0.7574  0.0806
  304MOL0     H40974   5.073   2.383   0.944  6.7164 -1.1797  1.4969
  304MOL0     H40975   5.379   2.401   1.279 -1.4861 -2.7568  1.3812
  304MOL0     H40976   5.378   2.241   1.218 -0.5837  1.1104  1.0682
  304MOL0     H40977   5.490   2.460   1.050 -0.3574  1.3277  1.9142
  304MOL0     H40978   5.606   2.406   1.176  2.7267 -2.5651 -0.8064
  304MOL0     H40979   5.569   2.157   1.075 -1.6176  1.2012  1.0822
  304MOL0     H40980   5.467   2.223   0.954 -0.6577 -0.1404 -0.0500
  304MOL0     H40981   5.628   2.353   0.865 -1.2385  0.0645  0.5405
  304MOL0     H40982   5.756   2.305   0.973 -0.0538  1.5836 -1.5396
  304MOL0     H40983   5.589   2.110   0.801  1.1203  0.5191 -2.8981
  304MOL0     H40984   5.740   2.167   0.740 -0.0269 -1.4339  0.2527
  304MOL0     H40985   5.856   2.034   0.835 -1.6085 -1.8014 -1.6876
  304MOL0     H40986   5.806   2.077   1.007 -0.3173 -3.1972  0.8889
  304MOL0     H40987   5.634   1.924   1.014 -0.0839  0.8362 -0.9189
  304MOL0     H40988   5.612   1.900   0.841  1.7572 -2.9706 -2.0895
  304MOL0     H40989   5.734   1.716   0.972  1.1321 -0.1130  1.1672
  304MOL0     H40990   5.881   1.810   0.926 -0.3343 -0.6115 -0.4358
  304MOL0     H40991   5.896   1.875   0.646  0.3955 -0.7143 -1.7519
  304MOL0     H40992   5.825   1.853   0.395 -0.3226  1.3337  3.8449
  304MOL0     H40993   5.946   1.735   0.402 -0.2470  1.3064  0.8387
  304MOL0     H40994   5.663   1.647   0.305 -0.6008 -2.4443 -1.3625
  304MOL0     H40995   5.813   1.554   0.320 -1.0932 -0.7502 -1.9084
  304MOL0     H40996   5.912   1.751   0.141 -1.2893  4.0430 -1.2598
  304MOL0     H40997   5.752   1.804   0.180  0.2208 -0.6205  4.0470
  304MOL0     H40998   5.665   1.572   0.080  0.0040  0.3238  0.0118
  304MOL0     H40999   5.837   1.549   0.043  0.1213  0.6995 -2.1414
  304MOL0     H41000   5.686   1.868  -0.243 -1.5888  1.2920  0.5436
  304MOL0     H41001   5.458   1.881  -0.492  0.2205 -0.5379 -1.1069
  304MOL0     H41002   5.620   1.938  -0.456 -0.7194  1.2450 -3.6472
  304MOL0     H41003   5.594   1.807  -0.573  1.7703 -1.1632  0.8866
  304MOL0     H41004   5.168   1.622  -0.630 -2.3785 -0.9639  0.1090
  304MOL0     H41005   5.021   1.528  -0.837  0.0141 -0.1149 -1.7545
  304MOL0     H41006   5.201   1.608  -1.155 -0.5695 -1.3478  1.9793
  304MOL0     H41007   5.158   1.452  -1.235  0.1951 -0.0941  0.1063
  304MOL0     H41008   4.987   1.694  -1.159 -3.0431 -0.1595 -0.1895
  304MOL0     H41009   5.015   1.631  -1.319  0.4898  0.0589  0.5554
  304MOL0     H41010   4.819   1.517  -1.112  0.3324  1.2140 -0.8563
  304MOL0     H41011   4.897   1.400  -1.208  6.1329  0.8960 -3.1620
  304MOL0     H41012   4.755   1.650  -1.292 -0.2317  0.0181 -0.9820
  304MOL0     H41013   4.805   1.526  -1.410 -0.4546 -2.0186 -0.2966
  304MOL0     H41014   4.562   1.493  -1.231 -1.2088 -1.7170 -0.8936
  304MOL0     H41015   4.658   1.352  -1.247 -3.5874 -1.7339 -3.0287
  304MOL0     H41016   4.583   1.517  -1.488 -0.7030  1.8729  2.9930
  304MOL0     H41017   4.665   1.366  -1.500  0.7897  1.5019 -0.1240
  304MOL0     H41018   4.384   1.413  -1.367 -1.8975 -3.2991  1.3440
  304MOL0     H41019   4.450   1.262  -1.379  0.1114 -0.3181 -0.2175
  304MOL0     H41020   4.347   1.427  -1.631 -0.9077  1.5528  3.7306
  304MOL0     H41021   4.300   1.271  -1.579 -0.8097  1.3736  1.6549
  304MOL0     H41022   5.389   1.502  -1.052  0.0518  2.1144 -0.7529
  304MOL0     H41023   5.524   1.554  -0.856  0.2596 -2.0885 -1.4725
  304MOL0     H41024   5.554   1.407  -0.340 -1.5344 -0.4781  1.7906
  304MOL0     H41025   5.626   1.461  -0.113  1.4642  1.0873  0.8430
  304MOL0     H41026   5.182   2.355   1.356 -2.0768  2.5265  1.4065
  304MOL0     H41027   4.952   2.317   1.425  2.5895 -2.5011 -1.0349
  304MOL0     H41028   4.582   2.446   1.599  1.9255  0.2325 -2.4957
  304MOL0     H41029   4.364   2.362   1.701 -0.6750 -2.3257  0.0258
  304MOL0     H41030   4.038   2.388   1.593  0.8642  0.5692 -0.7993
  304MOL0     H41031   4.082   2.351   1.428 -1.3085  2.0266  1.0155
  304MOL0     H41032   3.879   2.244   1.501  1.6842 -0.1985 -1.9592
  304MOL0     H41033   3.973   2.138   1.611 -0.8547 -1.0315  0.0611
  304MOL0     H41034   4.100   2.052   1.421  0.9788  1.8641  0.6019
  304MOL0     H41035   4.014   2.146   1.304  0.7987  1.0050  0.3679
  304MOL0     H41036   3.810   2.042   1.348 -1.5650 -3.8614 -0.0679
  304MOL0     H41037   3.880   1.945   1.476  0.8921  0.1739  0.3687
  304MOL0     H41038   3.987   1.747   1.100 -3.9221  0.6017 -1.8458
  304MOL0     H41039   4.286   2.172   1.326  0.9249 -2.8482  0.0529
  304MOL0     H41040   4.489   2.254   1.234  0.5088  0.5984  1.1007
  305MOL0     O41041   9.699   8.510   2.683 -0.2790 -0.2039  0.3306
  305MOL0     C41042   9.765   8.469   2.590 -0.0186 -0.8114  0.0402
  305MOL0     O41043   9.740   8.346   2.538 -0.2151 -0.1143  0.5220
  305MOL0     C41044   9.686   8.245   2.623 -0.0089  0.5479 -0.9953
  305MOL0     C41045   9.583   8.165   2.570 -0.3760 -1.1802 -0.0437
  305MOL0     C41046   9.512   8.060   2.645  0.0844 -0.4925 -0.6618
  305MOL0     C41047   9.568   8.034   2.778  0.8913 -0.3910  0.1288
  305MOL0     O41048   9.508   7.937   2.848  0.7973  0.8928 -0.1506
  305MOL0     C41049   9.575   7.890   2.970 -1.1409 -0.6907 -0.4990
  305MOL0     C41050   9.498   7.789   3.040  0.1054 -0.6694 -0.3879
  305MOL0     C41051   9.504   7.651   2.980  0.0425 -1.3983 -0.8187
  305MOL0     C41052   9.477   7.546   3.083 -1.0562  0.7743  0.4722
  305MOL0     C41053   9.466   7.409   3.017 -0.6549  0.5051 -0.2406
  305MOL0     C41054   9.424   7.290   3.104  0.2564 -0.1177  0.0266
  305MOL0     C41055   9.291   7.310   3.183  0.3107 -0.5509  0.7081
  305MOL0     C41056   9.234   7.182   3.245 -0.5598  0.3121 -0.0901
  305MOL0     N41057   9.340   7.117   3.333  0.2778 -0.0738 -0.5016
  305MOL0     C41058   9.403   7.172   3.443 -0.8350 -0.2625  0.1581
  305MOL0     C41059   9.475   7.072   3.490 -0.8774 -0.4156 -0.2043
  305MOL0     C41060   9.559   7.062   3.610 -0.3591  0.0819  0.5522
  305MOL0     C41061   9.466   7.028   3.732  0.3232  0.5891  0.0869
  305MOL0     C41062   9.397   7.154   3.782  0.3371 -0.0986  0.0008
  305MOL0     C41063   9.270   7.143   3.874  0.0494 -0.6142 -0.0174
  305MOL0     O41064   9.297   7.093   4.005 -0.9736  0.2736 -0.5895
  305MOL0     C41065   9.350   6.972   4.025 -0.9169 -0.2872 -0.3999
  305MOL0     C41066   9.331   6.858   3.946  0.8154  0.1817  0.1297
  305MOL0     C41067   9.380   6.736   3.971 -0.0601 -0.6911 -1.6394
  305MOL0     C41068   9.324   6.622   3.880  0.0239 -0.2995 -0.9313
  305MOL0     C41069   9.468   6.721   4.086  0.4208 -1.2074 -0.5604
  305MOL0     C41070   9.535   6.596   4.114  0.5166 -0.3363  0.8482
  305MOL0     O41071   9.581   6.568   4.235 -0.2528  0.0429  0.6474
  305MOL0     C41072   9.579   6.429   4.266 -0.0233 -0.2920  0.3768
  305MOL0     C41073   9.510   6.323   4.192  0.3411 -0.4879 -0.7314
  305MOL0     C41074   9.509   6.194   4.244  0.6740  0.3995  0.4999
  305MOL0     C41075   9.564   6.164   4.372 -0.2727  0.5541  0.1765
  305MOL0     O41076   9.585   6.037   4.413  0.7771  0.2074  0.1794
  305MOL0     C41077   9.638   5.943   4.324 -0.1084 -0.3289 -0.4912
  305MOL0     C41078   9.768   5.975   4.260 -0.2503 -0.6228 -0.5414
  305MOL0     C41079   9.895   6.009   4.330  0.9480 -0.2052  0.6896
  305MOL0     C41080   9.923   5.913   4.452  0.2895 -0.4594  1.2294
  305MOL0     C41081  10.067   5.940   4.515  0.8097  0.0591  0.0001
  305MOL0     C41082  10.092   5.853   4.638  0.6411  0.1951  0.3769
  305MOL0     C41083  10.230   5.865   4.686 -0.3668  0.1935  0.3080
  305MOL0     C41084  10.251   5.799   4.818  0.4490 -0.0672 -0.4773
  305MOL0    Cl41085  10.221   5.901   4.959  0.1514  0.1224  0.1286
  305MOL0     C41086   9.626   6.270   4.443 -0.0731 -0.3883 -0.7518
  305MOL0     C41087   9.635   6.398   4.391  0.2841 -0.3796 -0.5989
  305MOL0     O41088   9.577   6.549   4.010 -0.0249  0.0316  0.3171
  305MOL0     C41089   9.474   6.829   4.177 -0.0743  1.0886  0.0045
  305MOL0     C41090   9.431   6.955   4.140 -0.4514  0.4498 -0.0561
  305MOL0     N41091   9.464   6.957   3.414 -0.6416  0.7004  0.6913
  305MOL0     N41092   9.383   6.984   3.321  0.3075  0.4064  0.6509
  305MOL0     C41093   9.680   8.108   2.825 -0.6074 -0.0742 -0.2190
  305MOL0     C41094   9.726   8.217   2.748 -0.7652  0.6455  0.5604
  305MOL0     C41095   9.854   8.559   2.522  0.0671 -0.0441  1.0641
  305MOL0     C41096   9.895   8.687   2.578 -0.2090 -0.1316 -0.5884
  305MOL0     C41097   9.980   8.777   2.504 -0.9028 -0.0480 -1.0250
  305MOL0     C41098  10.030   8.742   2.380 -0.0124 -0.0911  0.1323
  305MOL0     O41099  10.116   8.831   2.307  0.2756 -0.3863 -0.6261
  305MOL0     C41100  10.178   8.787   2.186  0.1726  0.5472 -0.1945
  305MOL0     C41101  10.334   8.829   2.205 -0.3439  1.0888  1.4254
  305MOL0     C41102  10.349   8.984   2.223  0.3339 -0.5068  0.3127
  305MOL0     C41103  10.495   9.045   2.231  1.2133 -0.0135 -0.3744
  305MOL0     C41104  10.550   9.056   2.090 -0.4307 -1.8027  0.6874
  305MOL0     C41105  10.588   9.085   1.984 -0.3924 -0.4101  0.0964
  305MOL0     C41106   9.984   8.622   2.318 -0.9632  1.2192  0.0511
  305MOL0     C41107   9.898   8.531   2.390 -0.1286 -0.3235  0.1807
  305MOL0     H41108   9.539   8.185   2.473  1.4610  0.4491 -0.6216
  305MOL0     H41109   9.427   8.001   2.611 -2.4111  1.7562  1.1636
  305MOL0     H41110   9.674   7.853   2.943  0.0412  0.0867  2.3552
  305MOL0     H41111   9.590   7.967   3.047 -4.4441 -1.0436  0.6691
  305MOL0     H41112   9.541   7.787   3.140  1.0644 -0.1597 -0.7730
  305MOL0     H41113   9.393   7.821   3.037  0.3610  0.6308  2.1669
  305MOL0     H41114   9.426   7.653   2.903  0.3391  1.3612 -1.1225
  305MOL0     H41115   9.592   7.635   2.918 -0.3058  0.3534 -1.8161
  305MOL0     H41116   9.564   7.554   3.150 -0.0272  1.8955 -0.9534
  305MOL0     H41117   9.381   7.561   3.134 -0.9556 -0.8220  1.2036
  305MOL0     H41118   9.389   7.410   2.940  0.5121  1.2848 -1.4254
  305MOL0     H41119   9.557   7.397   2.957 -0.9077 -0.6833 -0.4265
  305MOL0     H41120   9.406   7.206   3.036 -2.1396 -0.0767  0.5053
  305MOL0     H41121   9.506   7.279   3.175 -1.0100  0.8435  1.7326
  305MOL0     H41122   9.312   7.388   3.258  1.1090 -1.7710  1.7983
  305MOL0     H41123   9.220   7.355   3.114  1.9758  0.8982 -0.1498
  305MOL0     H41124   9.214   7.109   3.166 -3.4892  0.8429  0.0425
  305MOL0     H41125   9.144   7.219   3.296  0.7885  2.7527  0.6998
  305MOL0     H41126   9.400   7.273   3.484 -3.9325 -0.8933  1.8199
  305MOL0     H41127   9.623   6.973   3.601 -0.6797 -0.1018 -0.0091
  305MOL0     H41128   9.622   7.149   3.631 -1.3128  0.7592  0.6498
  305MOL0     H41129   9.520   7.001   3.823  4.5803  6.0115 -0.2939
  305MOL0     H41130   9.396   6.951   3.699  2.2325 -2.1456  1.9836
  305MOL0     H41131   9.363   7.205   3.692  1.7582 -1.9050 -1.6482
  305MOL0     H41132   9.466   7.224   3.828 -1.5953  0.9063  1.5410
  305MOL0     H41133   9.187   7.088   3.830 -3.6035  2.1975  2.7739
  305MOL0     H41134   9.218   7.239   3.876 -2.5183 -1.9473  0.7663
  305MOL0     H41135   9.271   6.872   3.857  2.6321  2.4062 -0.8645
  305MOL0     H41136   9.233   6.655   3.830 -0.3004 -3.0730 -2.3749
  305MOL0     H41137   9.391   6.605   3.795 -1.4732 -1.9954 -1.8357
  305MOL0     H41138   9.308   6.524   3.927 -2.9878 -0.1273 -1.4181
  305MOL0     H41139   9.478   6.345   4.090 -0.6772  1.8467  0.0280
  305MOL0     H41140   9.477   6.107   4.187 -2.2368  0.7333  1.4830
  305MOL0     H41141   9.657   5.853   4.383 -3.0877  0.5516  2.0910
  305MOL0     H41142   9.559   5.914   4.254 -0.2979 -3.5325  0.8843
  305MOL0     H41143   9.795   5.884   4.206  1.6295 -1.9425  2.3137
  305MOL0     H41144   9.745   6.049   4.183  1.2541  0.8097  0.2886
  305MOL0     H41145   9.894   6.108   4.378 -3.6037  1.3665 -1.9717
  305MOL0     H41146   9.967   6.016   4.248 -3.0016 -1.2830 -3.2120
  305MOL0     H41147   9.849   5.935   4.529 -0.8275 -0.6904  0.2521
  305MOL0     H41148   9.925   5.816   4.400  0.7112  0.7524 -1.1703
  305MOL0     H41149  10.068   6.044   4.550 -0.0013  0.5636 -1.4057
  305MOL0     H41150  10.135   5.918   4.432 -1.4005 -4.4245 -0.9173
  305MOL0     H41151  10.011   5.883   4.706  1.4494 -1.2546  2.0505
  305MOL0     H41152  10.063   5.751   4.612 -0.9856  0.4527  1.0533
  305MOL0     H41153  10.242   5.973   4.701 -0.7367 -0.0684  3.0068
  305MOL0     H41154  10.286   5.812   4.609  0.5597  0.5151  0.7525
  305MOL0     H41155  10.358   5.780   4.830  0.0012 -1.1487  3.0350
  305MOL0     H41156  10.189   5.710   4.828 -0.9988  1.1616  3.4128
  305MOL0     H41157   9.667   6.262   4.543 -4.7463 -3.5850  1.2791
  305MOL0     H41158   9.699   6.465   4.449  1.1405 -0.5832 -1.2782
  305MOL0     H41159   9.530   6.829   4.269 -2.6788  1.6577  1.7138
  305MOL0     H41160   9.460   7.038   4.203  1.9996 -0.8341  0.6658
  305MOL0     H41161   9.722   8.096   2.925  1.1479  0.1309 -0.8960
  305MOL0     H41162   9.806   8.280   2.786  0.5572 -0.5767 -0.1258
  305MOL0     H41163   9.860   8.721   2.675 -1.4855 -3.0442  0.0905
  305MOL0     H41164  10.016   8.874   2.538  0.4315  0.7261 -4.2631
  305MOL0     H41165  10.169   8.678   2.177 -1.0501  0.5504  0.8021
  305MOL0     H41166  10.145   8.845   2.099 -0.6200  0.7473  0.2314
  305MOL0     H41167  10.378   8.804   2.108 -1.5798 -1.3659  1.4098
  305MOL0     H41168  10.382   8.774   2.286 -2.2363  0.6523  2.3040
  305MOL0     H41169  10.305   9.016   2.318  0.1691  2.6010 -0.6908
  305MOL0     H41170  10.297   9.034   2.141  2.3589 -0.2322 -0.8623
  305MOL0     H41171  10.547   8.978   2.300 -1.1966 -2.1364 -0.4190
  305MOL0     H41172  10.482   9.144   2.276  2.1412 -0.3683  0.7217
  305MOL0     H41173  10.634   9.103   1.889 -2.0973 -1.1493 -0.9127
  305MOL0     H41174   9.988   8.608   2.211 -2.0298  1.7183 -0.0689
  305MOL0     H41175   9.840   8.448   2.351 -0.6765  1.1625 -2.3785
  306MOL0     O41176   3.310   2.699   0.227 -0.4540 -0.0890  0.1734
  306MOL0     C41177   3.221   2.778   0.268 -0.2520  0.4211  0.3315
  306MOL0     O41178   3.103   2.806   0.202  0.2891  0.1741  0.0994
  306MOL0     C41179   3.095   2.750   0.077 -0.2825  0.2729  0.3031
  306MOL0     C41180   3.012   2.636   0.043  0.0392 -1.1085  0.2488
  306MOL0     C41181   3.002   2.589  -0.083 -0.1144 -0.0926  0.3915
  306MOL0     C41182   3.055   2.661  -0.184 -0.0603  0.5740 -0.1514
  306MOL0     O41183   3.043   2.628  -0.317 -0.2461  0.6305 -0.0101
  306MOL0     C41184   2.981   2.503  -0.349 -0.2283 -0.0966 -0.4336
  306MOL0     C41185   2.954   2.481  -0.490  0.4402  0.2944  0.4669
  306MOL0     C41186   2.837   2.574  -0.536 -0.8224 -0.0499 -0.9651
  306MOL0     C41187   2.718   2.490  -0.588 -0.5267 -0.6296  0.3956
  306MOL0     C41188   2.617   2.598  -0.627  0.5714  0.2023 -0.5320
  306MOL0     C41189   2.649   2.670  -0.757  0.2254 -0.5563 -0.1463
  306MOL0     C41190   2.533   2.756  -0.808  0.8525 -0.6023  0.7488
  306MOL0     C41191   2.581   2.819  -0.940 -0.2246 -0.3303 -0.0780
  306MOL0     N41192   2.472   2.894  -1.000 -0.2131  0.0956 -0.6259
  306MOL0     C41193   2.480   3.023  -1.054 -0.8558  0.3112 -0.0342
  306MOL0     C41194   2.366   3.040  -1.122 -0.0922  1.3624  0.4757
  306MOL0     C41195   2.327   3.144  -1.225  0.3059  0.7037  0.0415
  306MOL0     C41196   2.358   3.098  -1.375 -0.4380 -0.2960 -1.1707
  306MOL0     C41197   2.332   3.222  -1.470 -0.4715  0.2111 -0.5370
  306MOL0     C41198   2.303   3.176  -1.610  0.0867  0.3552 -0.1366
  306MOL0     O41199   2.421   3.123  -1.678 -0.3103 -0.4526  0.7192
  306MOL0     C41200   2.428   3.064  -1.802  0.3802 -0.1807 -0.2177
  306MOL0     C41201   2.334   3.073  -1.900  0.5890  0.0029  0.4442
  306MOL0     C41202   2.354   3.001  -2.019  0.2274  0.0174  0.3317
  306MOL0     C41203   2.248   3.021  -2.121  0.3592  0.7728  0.6504
  306MOL0     C41204   2.474   2.926  -2.037 -0.1752 -0.4071 -0.3372
  306MOL0     C41205   2.504   2.865  -2.165 -0.9451 -0.4779 -0.4471
  306MOL0     O41206   2.413   2.780  -2.219  0.3024 -0.4749  0.3766
  306MOL0     C41207   2.453   2.717  -2.341  0.3121  0.0467 -0.1893
  306MOL0     C41208   2.537   2.597  -2.346 -0.0900  0.2467  0.2208
  306MOL0     C41209   2.572   2.550  -2.480 -0.3361  0.0590 -0.2385
  306MOL0     C41210   2.529   2.615  -2.597 -0.9519  0.7584  0.7489
  306MOL0     O41211   2.585   2.577  -2.714  0.1586 -0.2901  0.5991
  306MOL0     C41212   2.636   2.680  -2.805  0.0161  0.0971 -0.7575
  306MOL0     C41213   2.737   2.763  -2.725  0.4962 -0.2095  0.5044
  306MOL0     C41214   2.823   2.843  -2.826  1.2503  0.6165 -0.5748
  306MOL0     C41215   2.963   2.883  -2.783  0.6003 -0.1981  0.9177
  306MOL0     C41216   3.025   2.981  -2.880  0.3128 -0.2680 -0.1133
  306MOL0     C41217   3.151   3.049  -2.829  1.2254 -0.0844  0.3847
  306MOL0     C41218   3.261   2.949  -2.791 -0.1225  0.3585 -0.4041
  306MOL0     C41219   3.395   3.020  -2.771  0.5060 -0.1386 -0.0924
  306MOL0    Cl41220   3.414   3.143  -2.633  0.3573 -0.0909  1.0505
  306MOL0     C41221   2.453   2.737  -2.584  0.1133  0.7425 -1.0234
  306MOL0     C41222   2.424   2.787  -2.460 -0.3686 -0.3135 -0.3435
  306MOL0     O41223   2.620   2.881  -2.205  0.0558  0.7659  0.0100
  306MOL0     C41224   2.568   2.915  -1.927  0.7344  0.3669  0.4123
  306MOL0     C41225   2.539   2.987  -1.817  0.6849  0.6897  0.6995
  306MOL0     N41226   2.286   2.932  -1.099  0.8222 -0.4410  0.2744
  306MOL0     N41227   2.344   2.845  -1.028 -0.4351 -0.1654  0.0786
  306MOL0     C41228   3.124   2.778  -0.158 -0.3330  0.2284 -0.7092
  306MOL0     C41229   3.145   2.829  -0.029  0.2778  0.7047 -0.0444
  306MOL0     C41230   3.251   2.833   0.398 -0.1233 -0.4816 -0.2839
  306MOL0     C41231   3.148   2.869   0.484 -0.9260 -0.1832 -0.8066
  306MOL0     C41232   3.186   2.947   0.599 -0.8632  0.2214 -0.6442
  306MOL0     C41233   3.321   2.976   0.630 -0.2403 -0.7086  0.1891
  306MOL0     O41234   3.338   3.057   0.740  0.2000  0.2537  0.2981
  306MOL0     C41235   3.438   2.996   0.828 -0.1724  0.7760  0.1689
  306MOL0     C41236   3.423   3.069   0.961 -0.1537  0.2413 -0.5108
  306MOL0     C41237   3.513   3.013   1.072 -1.1821  0.4662  0.2163
  306MOL0     C41238   3.434   2.998   1.204  0.3534 -1.1195 -0.2291
  306MOL0     C41239   3.362   2.879   1.221  1.0894  0.4028 -0.2788
  306MOL0     C41240   3.278   2.792   1.241  0.0450 -0.3208  0.3847
  306MOL0     C41241   3.423   2.945   0.540 -0.3377  0.6348  0.6764
  306MOL0     C41242   3.387   2.865   0.431 -0.9944  0.4366  0.3797
  306MOL0     H41243   2.970   2.570   0.118  0.0533 -1.6481 -0.2177
  306MOL0     H41244   2.949   2.495  -0.092 -0.4488  0.0372  0.9555
  306MOL0     H41245   3.046   2.418  -0.324 -0.8217 -1.7421 -3.9876
  306MOL0     H41246   2.886   2.493  -0.295 -1.5181 -2.1669 -2.8757
  306MOL0     H41247   3.048   2.502  -0.543  1.5031 -0.4788  1.9545
  306MOL0     H41248   2.932   2.375  -0.507  0.9325  0.3232 -0.4135
  306MOL0     H41249   2.790   2.624  -0.451  1.0948  1.2212 -0.6011
  306MOL0     H41250   2.877   2.652  -0.601  1.5922  0.8183  1.3980
  306MOL0     H41251   2.750   2.417  -0.663  2.7697 -0.9166  1.9086
  306MOL0     H41252   2.677   2.427  -0.508  0.4704  0.3219  1.7198
  306MOL0     H41253   2.517   2.555  -0.619  0.2073  1.1983  0.8444
  306MOL0     H41254   2.589   2.678  -0.557 -2.6119 -2.1488  1.1328
  306MOL0     H41255   2.743   2.725  -0.760  1.3156 -2.3900 -1.0916
  306MOL0     H41256   2.647   2.591  -0.833  0.0769 -0.2843 -0.4289
  306MOL0     H41257   2.445   2.690  -0.810  0.5601 -0.3518  2.9416
  306MOL0     H41258   2.513   2.839  -0.740  1.0861  1.0015 -1.0694
  306MOL0     H41259   2.620   2.745  -1.011  0.1909  0.4804 -0.7139
  306MOL0     H41260   2.661   2.888  -0.913  0.1722 -1.8592  3.1374
  306MOL0     H41261   2.557   3.099  -1.067  1.2186 -1.7645 -0.4078
  306MOL0     H41262   2.226   3.185  -1.216  0.3868  1.0587 -0.5723
  306MOL0     H41263   2.390   3.231  -1.203 -2.6306  3.3024 -1.0359
  306MOL0     H41264   2.290   3.016  -1.400  0.8662 -1.3167 -1.4946
  306MOL0     H41265   2.460   3.058  -1.376  0.1638  1.1759 -2.5192
  306MOL0     H41266   2.407   3.302  -1.465 -0.7848  0.4489  0.8903
  306MOL0     H41267   2.237   3.263  -1.435 -1.0990 -1.8840  0.3681
  306MOL0     H41268   2.254   3.257  -1.664  0.3725  0.8800  0.3832
  306MOL0     H41269   2.239   3.089  -1.593 -1.3138  1.7750  2.4107
  306MOL0     H41270   2.242   3.128  -1.883  0.8549  0.3657  0.7161
  306MOL0     H41271   2.192   2.927  -2.123  3.4022 -1.1579 -1.9309
  306MOL0     H41272   2.193   3.106  -2.079  2.1781  0.0825  4.9689
  306MOL0     H41273   2.288   3.054  -2.217 -2.7535  3.2803  0.0416
  306MOL0     H41274   2.563   2.554  -2.250 -0.1089 -0.5962 -0.1434
  306MOL0     H41275   2.633   2.462  -2.497 -0.1215  0.3716 -1.1306
  306MOL0     H41276   2.672   2.640  -2.900 -0.6009 -1.4422 -0.3782
  306MOL0     H41277   2.559   2.748  -2.840 -0.0998 -0.8456 -2.4310
  306MOL0     H41278   2.688   2.842  -2.666 -0.6875  0.8047 -1.6962
  306MOL0     H41279   2.808   2.711  -2.661 -3.1503 -3.2032  2.5385
  306MOL0     H41280   2.773   2.936  -2.855  0.9589  1.6609  2.8135
  306MOL0     H41281   2.847   2.783  -2.914  1.0370 -1.3838  0.6677
  306MOL0     H41282   2.963   2.916  -2.679  1.4625 -1.1188  1.2246
  306MOL0     H41283   3.026   2.794  -2.781  0.3759 -0.4850 -1.7483
  306MOL0     H41284   2.950   3.061  -2.885 -0.0710 -0.5624  0.8318
  306MOL0     H41285   3.040   2.939  -2.980 -1.2594 -1.1657  0.0139
  306MOL0     H41286   3.179   3.117  -2.910 -0.5529  2.0250  1.4134
  306MOL0     H41287   3.128   3.124  -2.752  1.0915  3.9059 -3.1579
  306MOL0     H41288   3.265   2.874  -2.871  0.5351  0.7102 -0.7122
  306MOL0     H41289   3.231   2.911  -2.694  2.3403  1.3608  0.8404
  306MOL0     H41290   3.432   3.068  -2.862 -3.2265  2.6282 -0.3991
  306MOL0     H41291   3.470   2.943  -2.751  1.1891 -0.1021 -2.2532
  306MOL0     H41292   2.409   2.786  -2.670  1.1109  0.4394 -1.7218
  306MOL0     H41293   2.359   2.873  -2.448 -0.4495 -0.0238 -2.5310
  306MOL0     H41294   2.666   2.870  -1.943  1.6378  2.7899 -1.7038
  306MOL0     H41295   2.615   2.976  -1.740  0.7109 -0.4517  0.5303
  306MOL0     H41296   3.146   2.837  -0.246  0.8440  1.8270  0.5660
  306MOL0     H41297   3.191   2.925  -0.011  0.3970  0.3223  2.0037
  306MOL0     H41298   3.046   2.853   0.451 -1.0379 -1.8284  0.2636
  306MOL0     H41299   3.110   2.986   0.666 -0.6462 -0.7689  0.1904
  306MOL0     H41300   3.425   2.892   0.861  1.1476  1.4682  3.2218
  306MOL0     H41301   3.541   3.006   0.790 -0.8909  1.2168 -1.7782
  306MOL0     H41302   3.319   3.062   0.995 -0.0985 -0.9642 -0.5562
  306MOL0     H41303   3.441   3.177   0.961  0.3022  0.1826  0.7581
  306MOL0     H41304   3.594   3.086   1.082 -0.6589  0.4205 -2.8018
  306MOL0     H41305   3.554   2.916   1.042 -2.1584  0.6843 -2.0072
  306MOL0     H41306   3.366   3.081   1.226 -0.9699 -1.8033 -1.6111
  306MOL0     H41307   3.515   3.002   1.278  1.8183  3.5885 -1.7737
  306MOL0     H41308   3.205   2.716   1.258 -4.5505  3.4967 -0.0402
  306MOL0     H41309   3.527   2.973   0.552  0.4697 -2.5783  2.2230
  306MOL0     H41310   3.463   2.832   0.361 -1.7633  0.0423 -0.2917
  307MOL0     O41311   4.812   8.579   4.385  0.2274 -0.8621 -0.0799
  307MOL0     C41312   4.722   8.514   4.327  0.7419  0.2824 -1.0523
  307MOL0     O41313   4.587   8.517   4.367  0.0939  0.0455  0.6958
  307MOL0     C41314   4.537   8.621   4.433  0.8404  0.1165  0.3972
  307MOL0     C41315   4.397   8.622   4.416 -0.4057  0.2930  0.5258
  307MOL0     C41316   4.320   8.709   4.491  0.1525 -0.6483  0.3151
  307MOL0     C41317   4.372   8.788   4.581 -0.6391 -0.1240  0.3183
  307MOL0     O41318   4.289   8.862   4.660  0.1814  0.1293 -0.6773
  307MOL0     C41319   4.199   8.782   4.736 -0.0662 -1.0483 -0.5468
  307MOL0     C41320   4.189   8.850   4.872 -0.0058 -0.0928 -1.0347
  307MOL0     C41321   4.066   8.946   4.879  0.3983  0.6630  0.2762
  307MOL0     C41322   4.033   8.985   5.017  1.1599 -0.3929 -0.1423
  307MOL0     C41323   4.144   9.062   5.092  0.4717 -0.3885  0.2072
  307MOL0     C41324   4.089   9.133   5.213 -0.5950  0.3774 -0.0303
  307MOL0     C41325   4.021   9.036   5.315  0.1543  0.4806 -0.1325
  307MOL0     C41326   3.969   9.121   5.434 -0.0246  0.2433 -0.2668
  307MOL0     N41327   3.900   9.037   5.523 -1.3865  0.7364  0.0499
  307MOL0     C41328   3.780   8.971   5.515  0.3363 -0.2807 -1.2090
  307MOL0     C41329   3.771   8.902   5.634  0.1808  0.3908 -0.7293
  307MOL0     C41330   3.659   8.815   5.685 -0.1802  0.0489 -0.8151
  307MOL0     C41331   3.707   8.675   5.686 -0.2422  0.6085 -0.3377
  307MOL0     C41332   3.621   8.587   5.776 -0.1508  0.4490  0.4785
  307MOL0     C41333   3.675   8.446   5.758  0.5288 -0.0059 -0.3706
  307MOL0     O41334   3.570   8.358   5.812 -0.0101  0.0328 -0.1236
  307MOL0     C41335   3.604   8.223   5.815  0.6400 -0.3554 -0.1809
  307MOL0     C41336   3.504   8.134   5.837  0.0678  0.4495  0.1244
  307MOL0     C41337   3.531   7.992   5.850 -0.6821  0.8295  0.5827
  307MOL0     C41338   3.409   7.898   5.862 -0.7928 -0.4951 -0.4866
  307MOL0     C41339   3.663   7.935   5.821  0.0161  0.4277 -0.5776
  307MOL0     C41340   3.704   7.796   5.853  0.9925 -0.1582  0.7494
  307MOL0     O41341   3.649   7.744   5.966  1.1499 -0.1122  0.5303
  307MOL0     C41342   3.667   7.611   6.009 -0.2760 -0.7755 -0.1054
  307MOL0     C41343   3.560   7.543   6.062  0.1766  0.5898 -0.0896
  307MOL0     C41344   3.575   7.416   6.124 -0.0282 -0.0371 -1.4787
  307MOL0     C41345   3.704   7.364   6.129 -0.4425  0.5435 -0.1760
  307MOL0     O41346   3.708   7.238   6.180  0.4821 -0.5468  0.4471
  307MOL0     C41347   3.824   7.187   6.241  0.2493  0.1424 -1.1722
  307MOL0     C41348   3.884   7.072   6.163 -0.5145 -0.8872  0.8428
  307MOL0     C41349   3.791   6.941   6.136  0.0744 -0.8138  0.0235
  307MOL0     C41350   3.677   6.952   6.040 -0.3214 -0.6649 -0.2545
  307MOL0     C41351   3.619   6.807   6.025  0.0257 -1.4109  0.3408
  307MOL0     C41352   3.481   6.804   5.953  1.2273  0.3068  0.1167
  307MOL0     C41353   3.458   6.853   5.803 -0.1229 -0.4405  0.5371
  307MOL0     C41354   3.302   6.861   5.774 -0.1502 -0.6574  0.5563
  307MOL0    Cl41355   3.209   6.704   5.774  0.5249 -0.3658  0.1561
  307MOL0     C41356   3.814   7.438   6.077 -0.2510  0.4953  0.3562
  307MOL0     C41357   3.800   7.563   6.018 -0.3356  0.5844 -0.2605
  307MOL0     O41358   3.798   7.752   5.796  0.2058 -0.0154  0.0906
  307MOL0     C41359   3.758   8.028   5.788 -0.0613 -0.0891 -0.0189
  307MOL0     C41360   3.731   8.169   5.793 -0.9302 -0.1091  0.8674
  307MOL0     N41361   3.888   8.922   5.706 -0.2805  0.5430  0.2771
  307MOL0     N41362   3.957   9.008   5.646 -0.3120  0.2048 -0.0697
  307MOL0     C41363   4.510   8.803   4.591  1.1722  0.4881 -0.0216
  307MOL0     C41364   4.599   8.714   4.527  0.5923  0.0243  0.1072
  307MOL0     C41365   4.760   8.432   4.208 -0.3479 -1.1239 -0.3766
  307MOL0     C41366   4.859   8.481   4.127 -0.4179  1.4307  0.7864
  307MOL0     C41367   4.867   8.412   3.994 -0.4226  0.3570  0.1393
  307MOL0     C41368   4.805   8.289   3.973 -1.0156  0.3851 -0.7835
  307MOL0     O41369   4.819   8.218   3.853 -0.5740  0.2567  1.3107
  307MOL0     C41370   4.886   8.278   3.740 -0.4874 -1.6237  0.2631
  307MOL0     C41371   4.860   8.187   3.625 -0.4268  0.0433  0.0031
  307MOL0     C41372   4.900   8.241   3.490 -0.4621  1.2612  0.2257
  307MOL0     C41373   4.837   8.163   3.364  0.3836 -0.8918 -0.7813
  307MOL0     C41374   4.872   8.225   3.238  1.1895 -0.3241 -0.0777
  307MOL0     C41375   4.895   8.277   3.140  0.2234 -0.1298 -0.1822
  307MOL0     C41376   4.709   8.236   4.068 -0.0535 -0.2638  0.3444
  307MOL0     C41377   4.687   8.319   4.177  0.0598 -0.0462 -0.1106
  307MOL0     H41378   4.340   8.568   4.342  1.0456  0.8893 -1.1045
  307MOL0     H41379   4.216   8.719   4.462 -0.6275 -1.0413  2.7155
  307MOL0     H41380   4.105   8.797   4.683 -0.7151  3.5911  1.4372
  307MOL0     H41381   4.235   8.679   4.749 -1.9146 -1.6897 -0.2002
  307MOL0     H41382   4.187   8.780   4.957  1.2752  0.4305 -0.5369
  307MOL0     H41383   4.282   8.905   4.892 -0.0733  0.4850 -2.2212
  307MOL0     H41384   4.076   9.039   4.822 -2.7735  2.3151  2.1364
  307MOL0     H41385   3.987   8.879   4.846  0.0220  2.1456 -2.1109
  307MOL0     H41386   3.948   9.052   5.033  0.8971 -1.0546  1.3631
  307MOL0     H41387   4.009   8.891   5.068 -0.6204 -0.7611 -1.5652
  307MOL0     H41388   4.224   8.998   5.129  0.6873  1.4734  3.3349
  307MOL0     H41389   4.189   9.132   5.020  0.0684  0.2630  0.5805
  307MOL0     H41390   4.168   9.187   5.265  0.8607 -1.9876  0.3672
  307MOL0     H41391   4.009   9.201   5.183 -1.8139  0.0702  2.2684
  307MOL0     H41392   3.931   8.984   5.279 -1.9125  3.0136  1.0020
  307MOL0     H41393   4.097   8.966   5.350 -1.0671 -0.1137  1.4572
  307MOL0     H41394   3.896   9.190   5.391 -1.3030 -0.8730  0.0166
  307MOL0     H41395   4.054   9.181   5.467  1.4991 -0.6507 -2.3463
  307MOL0     H41396   3.722   8.951   5.426  0.7150  0.8562 -1.7297
  307MOL0     H41397   3.650   8.853   5.787 -1.2445 -0.8837 -0.5397
  307MOL0     H41398   3.564   8.815   5.630  0.3988 -1.4130 -1.8782
  307MOL0     H41399   3.813   8.661   5.709 -0.0342  1.3502 -0.7937
  307MOL0     H41400   3.699   8.642   5.583 -0.2269 -0.9456  0.1404
  307MOL0     H41401   3.516   8.592   5.744  0.4967 -2.0782 -2.6021
  307MOL0     H41402   3.623   8.619   5.880 -0.5517  1.9015  0.0552
  307MOL0     H41403   3.769   8.440   5.815  0.3230  2.6785  0.3963
  307MOL0     H41404   3.695   8.430   5.652 -1.4133 -1.0485 -0.6082
  307MOL0     H41405   3.402   8.168   5.857 -0.8170 -2.8531  1.8914
  307MOL0     H41406   3.317   7.949   5.832 -0.3703  0.0470 -0.8636
  307MOL0     H41407   3.436   7.814   5.798 -0.3993 -0.1559 -0.7651
  307MOL0     H41408   3.383   7.856   5.960  1.0056 -6.4476 -2.1306
  307MOL0     H41409   3.462   7.589   6.064  0.8351  2.0592 -0.3014
  307MOL0     H41410   3.488   7.376   6.176  1.0157  0.7122  0.9694
  307MOL0     H41411   3.898   7.264   6.262 -1.2867  1.2327  0.6411
  307MOL0     H41412   3.800   7.154   6.343  3.4633 -1.4840 -0.8351
  307MOL0     H41413   3.916   7.124   6.073 -0.8702  2.8249  2.6503
  307MOL0     H41414   3.973   7.027   6.208 -1.2572 -0.4152  2.9398
  307MOL0     H41415   3.757   6.915   6.237 -0.4314  1.8003  0.5937
  307MOL0     H41416   3.859   6.865   6.096 -0.2164 -1.2137  0.2748
  307MOL0     H41417   3.603   7.021   6.080 -0.4575 -2.2505  2.4525
  307MOL0     H41418   3.712   6.989   5.943 -1.3108  0.7994 -0.0910
  307MOL0     H41419   3.614   6.755   6.120 -2.4728  0.1066  1.1395
  307MOL0     H41420   3.689   6.756   5.958  0.6418 -0.6181  0.3536
  307MOL0     H41421   3.434   6.706   5.961  1.9864  0.0033  0.9532
  307MOL0     H41422   3.422   6.866   6.022  0.4403  0.2008 -0.4453
  307MOL0     H41423   3.507   6.788   5.730 -0.2224 -1.4299  1.3214
  307MOL0     H41424   3.499   6.954   5.790 -1.3841  0.0461  0.1724
  307MOL0     H41425   3.287   6.909   5.676  1.1230 -1.7346 -0.2100
  307MOL0     H41426   3.259   6.920   5.854  1.2333  0.0159  0.8334
  307MOL0     H41427   3.912   7.398   6.098 -2.0284 -3.3625  2.5343
  307MOL0     H41428   3.888   7.614   5.980 -1.1709 -0.3468 -3.8137
  307MOL0     H41429   3.858   7.988   5.777 -0.4517 -1.9693  2.5024
  307MOL0     H41430   3.813   8.238   5.774 -3.6719  2.9476 -1.1216
  307MOL0     H41431   4.539   8.884   4.658  3.0550 -0.2220  0.0880
  307MOL0     H41432   4.706   8.717   4.543  1.2488  5.7295 -2.9076
  307MOL0     H41433   4.921   8.569   4.137  3.8503 -1.3073  1.1503
  307MOL0     H41434   4.929   8.459   3.919 -0.1333  0.8476  0.6754
  307MOL0     H41435   4.844   8.379   3.728 -0.2461 -1.7302 -1.7221
  307MOL0     H41436   4.991   8.285   3.772  0.3607 -1.7538 -2.3180
  307MOL0     H41437   4.757   8.153   3.636 -0.4390 -0.5024 -1.5938
  307MOL0     H41438   4.931   8.105   3.639 -1.2676 -0.9377 -1.1884
  307MOL0     H41439   5.008   8.240   3.471 -0.4255 -2.5693 -0.1205
  307MOL0     H41440   4.866   8.345   3.478 -2.3743  0.6224 -0.2407
  307MOL0     H41441   4.728   8.159   3.361  0.3689 -0.2702 -2.8897
  307MOL0     H41442   4.883   8.065   3.375  3.5706  0.6290  1.2434
  307MOL0     H41443   4.909   8.321   3.043 -0.3066  0.4968  0.0156
  307MOL0     H41444   4.653   8.145   4.050 -1.2307 -0.1576  3.0254
  307MOL0     H41445   4.609   8.287   4.245 -0.6323 -2.1847 -1.8156
  308MOL0     O41446   3.641   2.677   1.923 -0.3532 -0.6454  0.1018
  308MOL0     C41447   3.663   2.556   1.938 -0.1303  0.4327 -0.2637
  308MOL0     O41448   3.758   2.492   1.862  0.5326 -0.4581 -0.1389
  308MOL0     C41449   3.835   2.569   1.790 -0.1750  0.3581  0.0884
  308MOL0     C41450   3.784   2.611   1.666 -0.4640  0.2357 -1.1150
  308MOL0     C41451   3.845   2.710   1.595 -0.4578  0.0819  0.1967
  308MOL0     C41452   3.976   2.754   1.623 -0.1502 -0.3208 -0.8857
  308MOL0     O41453   4.048   2.835   1.531 -0.5441  0.3697  0.0588
  308MOL0     C41454   4.189   2.842   1.525  0.0158 -0.9055 -1.1062
  308MOL0     C41455   4.236   2.703   1.468 -0.1165 -0.4683  0.4690
  308MOL0     C41456   4.323   2.720   1.340  0.5687 -0.1804  0.3349
  308MOL0     C41457   4.228   2.752   1.217  0.0644  0.7253 -0.3083
  308MOL0     C41458   4.291   2.721   1.081 -0.8396 -1.2037  0.1810
  308MOL0     C41459   4.335   2.578   1.073  0.2199 -0.3256  0.3384
  308MOL0     C41460   4.352   2.548   0.918 -0.6232  0.3379 -0.1111
  308MOL0     C41461   4.399   2.406   0.886 -0.7955 -0.1127  0.5282
  308MOL0     N41462   4.304   2.298   0.915  0.0501 -0.1805  0.1903
  308MOL0     C41463   4.194   2.244   0.839  0.1077 -0.6911 -0.2900
  308MOL0     C41464   4.153   2.150   0.924 -0.2045  0.0224 -0.2235
  308MOL0     C41465   4.053   2.046   0.884 -0.0172  0.3392 -0.4928
  308MOL0     C41466   3.916   2.055   0.941 -0.8829 -0.5094  0.7379
  308MOL0     C41467   3.828   2.171   0.896  0.6544  0.0613  0.1723
  308MOL0     C41468   3.739   2.130   0.785 -0.0589 -0.2539 -0.3756
  308MOL0     O41469   3.649   2.027   0.829  0.4064  0.1655  0.5856
  308MOL0     C41470   3.590   1.947   0.732  0.0040 -0.8599 -0.3681
  308MOL0     C41471   3.572   1.972   0.590 -0.6509  0.3679 -0.2276
  308MOL0     C41472   3.482   1.885   0.516  0.7170  0.4696  0.1384
  308MOL0     C41473   3.425   1.945   0.393 -0.8047 -0.2720 -0.3713
  308MOL0     C41474   3.433   1.765   0.577 -0.9471  0.0907  0.0092
  308MOL0     C41475   3.346   1.667   0.507  0.4591  0.6334 -0.4039
  308MOL0     O41476   3.366   1.669   0.371 -0.3803 -0.6204 -0.1011
  308MOL0     C41477   3.288   1.580   0.298 -0.6497  0.4961 -0.9363
  308MOL0     C41478   3.326   1.446   0.291  0.1722 -0.5653 -0.5864
  308MOL0     C41479   3.263   1.362   0.204 -0.2398 -0.9021  0.2480
  308MOL0     C41480   3.170   1.411   0.116  0.1621 -0.7172  1.0941
  308MOL0     O41481   3.132   1.324   0.011 -0.1797 -0.5461 -0.0884
  308MOL0     C41482   2.989   1.321  -0.024  0.5928 -0.2688 -0.5685
  308MOL0     C41483   2.979   1.220  -0.144  0.2659  0.3401  0.0716
  308MOL0     C41484   2.830   1.216  -0.188  0.1070  0.9103  0.3846
  308MOL0     C41485   2.820   1.106  -0.298  0.4314 -0.0461  0.2552
  308MOL0     C41486   2.679   1.105  -0.366  0.7881 -0.2619 -0.1641
  308MOL0     C41487   2.576   1.072  -0.258  0.4754 -0.0618  0.2220
  308MOL0     C41488   2.430   1.081  -0.305 -0.3744  0.3637  0.5501
  308MOL0     C41489   2.337   1.032  -0.191  0.4331  0.7545 -0.1647
  308MOL0    Cl41490   2.317   1.146  -0.061  0.1547  0.0635  0.1533
  308MOL0     C41491   3.129   1.545   0.126  0.1719  0.0402  0.7828
  308MOL0     C41492   3.189   1.628   0.216  0.4373  0.1252 -0.1700
  308MOL0     O41493   3.288   1.582   0.572  0.9120 -0.0247 -0.0814
  308MOL0     C41494   3.469   1.743   0.711 -0.1958 -0.1076 -0.0437
  308MOL0     C41495   3.537   1.833   0.788  0.8656  0.2070 -0.8313
  308MOL0     N41496   4.238   2.138   1.037 -0.2775  0.7026 -0.4641
  308MOL0     N41497   4.323   2.234   1.032 -0.3752  0.4378  1.2930
  308MOL0     C41498   4.033   2.704   1.739 -0.8097 -1.1480 -0.1832
  308MOL0     C41499   3.964   2.620   1.828  1.0552 -0.5201  0.2594
  308MOL0     C41500   3.566   2.475   2.004  0.7203  0.0931 -0.5604
  308MOL0     C41501   3.443   2.515   2.049 -0.0084 -0.2470  0.5378
  308MOL0     C41502   3.378   2.437   2.144  0.0586 -0.4165  0.0726
  308MOL0     C41503   3.414   2.301   2.178  0.2227 -0.0492 -0.0167
  308MOL0     O41504   3.330   2.240   2.272 -0.9778 -0.1035  1.2069
  308MOL0     C41505   3.359   2.097   2.293  1.0060 -0.4737 -0.9470
  308MOL0     C41506   3.283   2.027   2.416 -0.3406 -0.0008 -0.3757
  308MOL0     C41507   3.132   2.028   2.412  0.0222  0.0157  1.2345
  308MOL0     C41508   3.073   1.973   2.287 -1.2284  0.2303  0.6011
  308MOL0     C41509   3.134   1.837   2.254  0.4640  0.0488 -0.4639
  308MOL0     C41510   3.170   1.730   2.220  0.0490  0.4517  0.0785
  308MOL0     C41511   3.528   2.256   2.113 -0.3129 -0.1254  0.5753
  308MOL0     C41512   3.594   2.340   2.023 -0.6602  0.4553 -0.7742
  308MOL0     H41513   3.693   2.565   1.630  1.6876 -3.9505 -1.8082
  308MOL0     H41514   3.808   2.742   1.498  1.2408 -0.0863 -0.5291
  308MOL0     H41515   4.211   2.932   1.466  0.3042  1.9851  3.0423
  308MOL0     H41516   4.224   2.852   1.628 -0.4189  1.0091 -1.1153
  308MOL0     H41517   4.287   2.647   1.546  1.4967  1.4690  0.8862
  308MOL0     H41518   4.144   2.644   1.456 -1.5096  1.4119  1.3977
  308MOL0     H41519   4.395   2.798   1.367 -1.3636  1.8749 -0.1554
  308MOL0     H41520   4.382   2.629   1.324  0.0657 -0.4445 -0.0396
  308MOL0     H41521   4.144   2.683   1.228  0.7419 -0.1157 -0.2644
  308MOL0     H41522   4.194   2.854   1.234  0.9623  0.8257  1.0200
  308MOL0     H41523   4.222   2.754   1.002  0.1299 -1.6536 -0.8756
  308MOL0     H41524   4.373   2.792   1.065 -1.9274  0.4185  1.4645
  308MOL0     H41525   4.435   2.585   1.116  1.3453  0.1513 -2.1659
  308MOL0     H41526   4.282   2.504   1.134  2.6885 -1.6416  1.0282
  308MOL0     H41527   4.263   2.575   0.861 -1.5620  2.1829  2.0436
  308MOL0     H41528   4.434   2.614   0.888 -0.3556  0.6291  1.1891
  308MOL0     H41529   4.480   2.393   0.959 -2.3553 -0.1591  2.3384
  308MOL0     H41530   4.436   2.401   0.783  0.9292  3.4961  0.8195
  308MOL0     H41531   4.163   2.262   0.736  1.7288  1.4096 -0.4767
  308MOL0     H41532   4.044   2.042   0.775  0.4370  2.0967 -0.6323
  308MOL0     H41533   4.090   1.949   0.917 -0.1631  0.7700  1.0021
  308MOL0     H41534   3.924   2.064   1.049 -1.8209 -0.8797  0.8449
  308MOL0     H41535   3.868   1.958   0.926 -1.8551  0.1130 -0.3351
  308MOL0     H41536   3.894   2.253   0.867  0.2668  0.0195 -0.8822
  308MOL0     H41537   3.757   2.205   0.972 -1.5041 -2.9804 -0.3046
  308MOL0     H41538   3.799   2.113   0.696  2.8412  3.2090  0.6544
  308MOL0     H41539   3.673   2.215   0.761 -2.7690 -0.7601  4.0435
  308MOL0     H41540   3.613   2.058   0.538 -0.0779 -0.9684 -2.1016
  308MOL0     H41541   3.473   1.901   0.306 -0.0351  4.2893 -2.5401
  308MOL0     H41542   3.316   1.941   0.393 -0.8149 -0.0078 -1.0392
  308MOL0     H41543   3.446   2.053   0.391  0.7953 -0.4480  2.0653
  308MOL0     H41544   3.402   1.418   0.363  1.0794  0.9965 -0.9078
  308MOL0     H41545   3.297   1.259   0.204  0.3534 -0.7096  0.9038
  308MOL0     H41546   2.942   1.298   0.072 -0.5379  0.1766 -0.9953
  308MOL0     H41547   2.958   1.424  -0.047  1.6415  0.4856  1.1495
  308MOL0     H41548   3.047   1.249  -0.224  1.7353  1.1660  1.5749
  308MOL0     H41549   3.002   1.118  -0.112  1.8212 -0.4386 -3.1583
  308MOL0     H41550   2.802   1.314  -0.229  0.4514  1.6032  1.7320
  308MOL0     H41551   2.772   1.186  -0.101  1.7458 -1.9265  0.6283
  308MOL0     H41552   2.899   1.108  -0.374  0.3002  1.5864  0.1212
  308MOL0     H41553   2.823   1.005  -0.255  2.8099 -0.2012 -0.1331
  308MOL0     H41554   2.677   1.039  -0.452 -0.0999  2.5657 -2.4973
  308MOL0     H41555   2.656   1.203  -0.410  1.2007 -0.2441 -0.3401
  308MOL0     H41556   2.591   0.969  -0.222 -0.4458  0.0376  0.9235
  308MOL0     H41557   2.581   1.141  -0.174  1.1741 -0.4878  0.5410
  308MOL0     H41558   2.427   1.011  -0.388 -2.4840 -1.0392  1.7128
  308MOL0     H41559   2.407   1.184  -0.333  1.6574  0.0948 -2.5441
  308MOL0     H41560   2.383   0.940  -0.154 -3.3413 -2.3124 -2.3433
  308MOL0     H41561   2.241   1.000  -0.233  1.4984 -3.2301  0.1187
  308MOL0     H41562   3.062   1.590   0.053 -2.1367 -1.1791  2.0374
  308MOL0     H41563   3.169   1.735   0.212 -0.3911 -0.0612 -2.8238
  308MOL0     H41564   3.448   1.647   0.757 -2.1014  0.1969 -0.2180
  308MOL0     H41565   3.552   1.809   0.892  1.8286 -2.5825 -1.5167
  308MOL0     H41566   4.134   2.730   1.769 -1.0855  0.5156 -0.6316
  308MOL0     H41567   4.010   2.586   1.920  0.6528 -1.6834  0.0420
  308MOL0     H41568   3.400   2.612   2.026  2.3994  0.7892  0.1973
  308MOL0     H41569   3.285   2.479   2.181  0.9353  2.3719 -0.6217
  308MOL0     H41570   3.327   2.049   2.200 -1.2219  0.4326 -0.7256
  308MOL0     H41571   3.465   2.084   2.314  0.4830 -0.0932  2.5404
  308MOL0     H41572   3.303   2.085   2.507  2.0754  1.5597 -1.7883
  308MOL0     H41573   3.321   1.926   2.433 -0.4980 -0.1919 -1.1285
  308MOL0     H41574   3.091   2.129   2.419 -0.0355  0.2643 -1.4612
  308MOL0     H41575   3.102   1.959   2.491  2.7658 -3.9397 -0.7967
  308MOL0     H41576   3.095   2.046   2.209  3.3594 -2.1691 -0.7509
  308MOL0     H41577   2.964   1.960   2.283 -1.2886  0.9149 -2.0201
  308MOL0     H41578   3.218   1.647   2.172  1.6618  0.0155  2.3283
  308MOL0     H41579   3.564   2.155   2.127  0.0716  0.2608  2.6479
  308MOL0     H41580   3.684   2.292   1.985 -2.5379 -2.3567 -2.0287
  309MOL0     O41581   6.470   0.038   5.163  0.2397  0.6977  0.4248
  309MOL0     C41582   6.503   0.150   5.124  0.3282 -0.3873  0.1058
  309MOL0     O41583   6.588   0.177   5.017 -0.0686 -0.2825 -0.4934
  309MOL0     C41584   6.665   0.071   4.965  0.4205  0.0482 -0.3248
  309MOL0     C41585   6.660   0.049   4.833  0.0325  0.4570 -0.0502
  309MOL0     C41586   6.735  -0.049   4.768 -0.8335 -0.0724  0.0214
  309MOL0     C41587   6.827  -0.124   4.838 -0.8120 -0.5270 -0.4573
  309MOL0     O41588   6.921  -0.206   4.780 -0.0130 -0.5889 -0.1154
  309MOL0     C41589   6.914  -0.340   4.823 -0.1525 -0.3133  0.1276
  309MOL0     C41590   6.968  -0.419   4.701  0.2926 -0.5058  0.2623
  309MOL0     C41591   6.941  -0.566   4.688  0.7439 -0.3315  0.1317
  309MOL0     C41592   6.801  -0.572   4.631  1.0953 -0.2912  0.6378
  309MOL0     C41593   6.769  -0.722   4.614  0.4787  0.8826 -0.9434
  309MOL0     C41594   6.629  -0.764   4.598 -0.1782  0.2687  0.1972
  309MOL0     C41595   6.547  -0.725   4.724  0.1584 -0.8887 -0.0689
  309MOL0     C41596   6.422  -0.822   4.751 -0.1064  0.2462  0.0460
  309MOL0     N41597   6.322  -0.830   4.643  0.1306 -0.3397  0.2114
  309MOL0     C41598   6.284  -0.727   4.569 -0.0409 -0.4072 -0.9448
  309MOL0     C41599   6.198  -0.776   4.476 -0.0893 -0.2378 -0.3701
  309MOL0     C41600   6.141  -0.702   4.356  0.0763 -0.1370 -0.2273
  309MOL0     C41601   6.245  -0.604   4.292  1.1100 -0.6620 -1.0003
  309MOL0     C41602   6.184  -0.526   4.173  0.6790  0.1870  0.6066
  309MOL0     C41603   6.180  -0.623   4.053  0.4988 -0.6156 -0.0015
  309MOL0     O41604   6.077  -0.565   3.971  0.2081  0.2482  0.4370
  309MOL0     C41605   6.120  -0.510   3.855  0.5366  1.1651 -0.0689
  309MOL0     C41606   6.197  -0.399   3.851  0.1710 -0.2125  0.5172
  309MOL0     C41607   6.244  -0.347   3.732 -0.3166  0.7079  0.7796
  309MOL0     C41608   6.314  -0.217   3.742  0.2742  0.2927 -0.3131
  309MOL0     C41609   6.221  -0.418   3.612 -1.7590 -1.0466  0.1227
  309MOL0     C41610   6.264  -0.389   3.477 -0.6987  0.2448 -0.5460
  309MOL0     O41611   6.396  -0.417   3.444  0.2205 -0.2968 -0.7274
  309MOL0     C41612   6.433  -0.349   3.331 -1.0295  0.6946 -0.5054
  309MOL0     C41613   6.431  -0.216   3.307  0.3130  0.6407 -0.6092
  309MOL0     C41614   6.498  -0.162   3.191 -0.2096  0.7699 -0.4329
  309MOL0     C41615   6.538  -0.253   3.092  0.3771 -0.4189  0.8192
  309MOL0     O41616   6.584  -0.202   2.969 -0.8308 -0.4025 -0.6679
  309MOL0     C41617   6.689  -0.272   2.896  0.8343  0.1806  0.3852
  309MOL0     C41618   6.633  -0.335   2.769  0.8492  1.3895  0.3783
  309MOL0     C41619   6.736  -0.429   2.706  0.2467  0.1891 -0.0856
  309MOL0     C41620   6.741  -0.561   2.785 -0.2536 -1.0167 -0.1276
  309MOL0     C41621   6.608  -0.630   2.773  0.6036  0.5179 -0.7258
  309MOL0     C41622   6.629  -0.767   2.836 -0.5136 -0.1170  0.2872
  309MOL0     C41623   6.500  -0.848   2.864 -0.7240  0.5246  0.1845
  309MOL0     C41624   6.524  -0.936   2.987  0.7235  0.5469 -0.4798
  309MOL0    Cl41625   6.480  -0.843   3.138  0.2374 -0.2096 -0.1287
  309MOL0     C41626   6.544  -0.384   3.119 -0.1208 -0.2730 -0.0350
  309MOL0     C41627   6.490  -0.438   3.229 -0.0080 -0.7093  0.0934
  309MOL0     O41628   6.187  -0.332   3.403  0.7678  0.2780  0.2497
  309MOL0     C41629   6.140  -0.529   3.626  0.5577 -0.6179 -0.0520
  309MOL0     C41630   6.093  -0.577   3.740  0.5698  0.1231  0.4883
  309MOL0     N41631   6.184  -0.911   4.500 -0.5456  0.1598 -0.4143
  309MOL0     N41632   6.266  -0.945   4.591 -0.7855  0.2217  0.1585
  309MOL0     C41633   6.828  -0.107   4.979  0.1477  0.0077  0.4229
  309MOL0     C41634   6.739  -0.015   5.048 -0.3173 -0.0841 -0.1000
  309MOL0     C41635   6.436   0.261   5.185  0.2201 -0.3208  0.0365
  309MOL0     C41636   6.343   0.240   5.292 -0.8943  0.4098  0.8402
  309MOL0     C41637   6.276   0.349   5.356  1.0099 -0.3374  0.0564
  309MOL0     C41638   6.296   0.476   5.318 -0.7694 -0.9470  0.7480
  309MOL0     O41639   6.209   0.568   5.359  0.3877  0.6796 -0.4657
  309MOL0     C41640   6.249   0.702   5.359 -0.3797 -1.3142  0.1303
  309MOL0     C41641   6.203   0.784   5.479  0.0590  0.3169  0.5775
  309MOL0     C41642   6.056   0.759   5.531  0.5239 -0.4353  0.2825
  309MOL0     C41643   5.983   0.896   5.558 -0.1630 -0.2854  0.1994
  309MOL0     C41644   5.934   0.962   5.437 -0.1619  0.3826 -0.3573
  309MOL0     C41645   5.900   1.020   5.335  0.5784  0.7926  0.3537
  309MOL0     C41646   6.384   0.498   5.217  0.5857 -0.3367 -0.0818
  309MOL0     C41647   6.454   0.397   5.148  0.0660  0.3434  0.8569
  309MOL0     H41648   6.588   0.097   4.767  2.1012 -0.3689 -3.1131
  309MOL0     H41649   6.737  -0.056   4.660  0.0755  0.3331  0.0081
  309MOL0     H41650   6.973  -0.361   4.913  1.8665  1.7864 -0.6100
  309MOL0     H41651   6.808  -0.368   4.827 -0.3485 -0.2504 -2.6492
  309MOL0     H41652   6.927  -0.372   4.611  0.8811 -1.7339 -0.6717
  309MOL0     H41653   7.076  -0.403   4.698  0.3008 -0.2144  1.4346
  309MOL0     H41654   7.005  -0.609   4.610 -0.0479 -0.5032 -0.4315
  309MOL0     H41655   6.942  -0.629   4.778  1.3671 -0.9839 -0.3161
  309MOL0     H41656   6.727  -0.514   4.687  1.0247 -1.6095  1.9812
  309MOL0     H41657   6.804  -0.528   4.531  0.5500 -1.0772  0.2630
  309MOL0     H41658   6.812  -0.769   4.525  4.1896  0.1235  1.0155
  309MOL0     H41659   6.809  -0.771   4.703 -0.5352  1.2135 -0.2917
  309MOL0     H41660   6.590  -0.699   4.520 -0.9478 -0.5250 -0.1068
  309MOL0     H41661   6.612  -0.868   4.566  2.1416  0.5699 -2.3452
  309MOL0     H41662   6.599  -0.740   4.819  1.2352  0.7083 -0.3827
  309MOL0     H41663   6.507  -0.624   4.716  2.7655  0.3364  1.2720
  309MOL0     H41664   6.375  -0.806   4.848 -0.4199 -1.5690  0.2289
  309MOL0     H41665   6.462  -0.924   4.755  3.7474  1.6754  2.4453
  309MOL0     H41666   6.325  -0.627   4.578 -1.1406 -0.1181  2.0526
  309MOL0     H41667   6.122  -0.780   4.282 -2.1763 -0.3458  0.5075
  309MOL0     H41668   6.047  -0.651   4.380  0.5734  0.4051  0.6358
  309MOL0     H41669   6.336  -0.659   4.266 -0.3493 -2.4754 -2.4739
  309MOL0     H41670   6.280  -0.526   4.361 -2.7183  0.6370 -0.2788
  309MOL0     H41671   6.248  -0.439   4.157  1.2213  0.1900  2.4578
  309MOL0     H41672   6.087  -0.493   4.212  0.6792  1.4805 -0.4369
  309MOL0     H41673   6.157  -0.727   4.077 -2.5054 -0.7996 -2.9345
  309MOL0     H41674   6.276  -0.612   4.002 -0.1743 -0.7600 -1.3389
  309MOL0     H41675   6.203  -0.349   3.947 -2.9007 -1.0736  1.2697
  309MOL0     H41676   6.275  -0.151   3.820 -0.0739  0.6784 -0.8054
  309MOL0     H41677   6.422  -0.233   3.752  0.3912  2.0426  2.4792
  309MOL0     H41678   6.291  -0.156   3.654 -3.2037 -2.6830 -1.6829
  309MOL0     H41679   6.389  -0.149   3.381 -0.4565 -0.9270  0.4114
  309MOL0     H41680   6.487  -0.054   3.182 -0.9447  0.5639 -2.6066
  309MOL0     H41681   6.766  -0.200   2.867 -1.0391  1.7575 -0.9451
  309MOL0     H41682   6.742  -0.340   2.963 -1.6424 -3.0170 -0.6464
  309MOL0     H41683   6.532  -0.376   2.773  0.4594  1.7155 -2.9487
  309MOL0     H41684   6.615  -0.260   2.691 -2.4543  0.1274 -0.2510
  309MOL0     H41685   6.837  -0.387   2.700 -0.1688  1.1102 -1.0278
  309MOL0     H41686   6.706  -0.443   2.601 -0.4497 -0.4560  0.1873
  309MOL0     H41687   6.822  -0.627   2.753 -0.5539 -3.6886  3.8946
  309MOL0     H41688   6.761  -0.549   2.892 -1.7354  0.3653  0.0319
  309MOL0     H41689   6.584  -0.645   2.667 -1.5696 -4.4934  0.1749
  309MOL0     H41690   6.535  -0.578   2.836  3.9601  3.4026  1.0942
  309MOL0     H41691   6.694  -0.830   2.775 -0.1919 -0.3738  0.8860
  309MOL0     H41692   6.687  -0.753   2.928  0.0042  3.1263 -0.4076
  309MOL0     H41693   6.490  -0.916   2.779 -0.1610 -1.5087  1.6637
  309MOL0     H41694   6.409  -0.789   2.880 -2.1568 -2.2337  3.6373
  309MOL0     H41695   6.628  -0.964   3.003  1.2288  2.8972  0.8144
  309MOL0     H41696   6.464  -1.028   2.990  0.9480  0.3485 -1.6826
  309MOL0     H41697   6.568  -0.455   3.041  1.8783 -1.5914  1.6587
  309MOL0     H41698   6.481  -0.546   3.237  0.8411 -0.8376 -0.5758
  309MOL0     H41699   6.111  -0.588   3.540  1.2643 -1.4754  0.2926
  309MOL0     H41700   6.042  -0.672   3.727  0.1483  0.6216 -2.0627
  309MOL0     H41701   6.913  -0.154   5.026  2.8660  2.7601 -1.3974
  309MOL0     H41702   6.746  -0.005   5.156  0.7036 -0.5458 -0.1114
  309MOL0     H41703   6.333   0.139   5.331  1.8667 -1.1887 -2.1257
  309MOL0     H41704   6.208   0.337   5.439  0.6493  0.3964 -0.1203
  309MOL0     H41705   6.358   0.711   5.348 -0.4958 -2.8600 -4.0160
  309MOL0     H41706   6.212   0.740   5.263  1.6321  1.4687  0.3230
  309MOL0     H41707   6.200   0.890   5.452 -1.6855  0.4928  1.3852
  309MOL0     H41708   6.270   0.768   5.564  0.3775  0.9295  0.4504
  309MOL0     H41709   6.055   0.696   5.621  4.0985 -2.3027 -0.7795
  309MOL0     H41710   5.999   0.703   5.457 -0.0002  0.7211 -0.2253
  309MOL0     H41711   6.051   0.959   5.615  0.4399 -1.7517  1.1631
  309MOL0     H41712   5.895   0.884   5.623  1.4058 -1.8890  2.1399
  309MOL0     H41713   5.871   1.080   5.251  3.5816  3.4924  1.0662
  309MOL0     H41714   6.396   0.598   5.176 -0.1169  1.1963  3.0979
  309MOL0     H41715   6.519   0.425   5.066 -2.4226  0.6089 -1.1457
  310MOL0     O41716   3.702   2.056   1.702  0.1463  0.5616  0.6351
  310MOL0     C41717   3.647   1.996   1.797 -0.7798 -0.2592  0.7597
  310MOL0     O41718   3.711   1.895   1.866  0.4109  0.3483 -0.0271
  310MOL0     C41719   3.781   1.791   1.803  0.3944  0.7386 -0.1492
  310MOL0     C41720   3.840   1.693   1.889 -0.2585 -0.3164  0.1535
  310MOL0     C41721   3.917   1.592   1.843 -0.6695 -0.1862 -0.1017
  310MOL0     C41722   3.931   1.558   1.706  1.1511 -0.6669  0.8060
  310MOL0     O41723   4.010   1.458   1.667  0.7715 -0.7602  0.6937
  310MOL0     C41724   4.068   1.458   1.534  0.3453 -0.1750  0.8458
  310MOL0     C41725   4.025   1.345   1.446 -0.9134  0.7059  0.8036
  310MOL0     C41726   4.075   1.208   1.493 -0.5919  0.1375  1.1966
  310MOL0     C41727   3.986   1.094   1.443  1.2508  0.7032  0.5736
  310MOL0     C41728   3.996   1.078   1.285  0.6442  0.1407 -0.4049
  310MOL0     C41729   3.918   0.954   1.234 -0.9745  0.5247 -0.5563
  310MOL0     C41730   3.776   0.932   1.282  0.6925  0.1731 -0.5978
  310MOL0     C41731   3.670   1.043   1.247  0.0028  0.5174  0.0498
  310MOL0     N41732   3.531   1.005   1.274 -0.4433  0.1244 -0.7385
  310MOL0     C41733   3.437   0.974   1.184 -0.8753  0.3939  0.2948
  310MOL0     C41734   3.337   0.927   1.259  0.1123  0.2156  0.4137
  310MOL0     C41735   3.206   0.892   1.194  1.4827  0.4546  0.2337
  310MOL0     C41736   3.100   0.810   1.279  0.0671  0.5555  0.4612
  310MOL0     C41737   3.108   0.659   1.254  0.4446 -0.5490  0.2056
  310MOL0     C41738   3.237   0.597   1.299 -0.1766 -0.6188  0.4404
  310MOL0     O41739   3.236   0.448   1.275 -0.1453 -0.3206  0.1499
  310MOL0     C41740   3.228   0.381   1.390  0.2521 -0.0092  0.3831
  310MOL0     C41741   3.329   0.381   1.483  0.3951  0.1667  0.3261
  310MOL0     C41742   3.310   0.332   1.615  0.1434  1.1149 -0.1502
  310MOL0     C41743   3.430   0.356   1.712  0.7350 -0.7982  1.0292
  310MOL0     C41744   3.199   0.251   1.645  0.8803 -0.9205 -0.1781
  310MOL0     C41745   3.192   0.163   1.766 -0.5263  0.4021  0.2665
  310MOL0     O41746   3.150   0.037   1.725 -0.1038 -0.3971  0.2186
  310MOL0     C41747   3.062  -0.032   1.795 -0.6252 -0.5075  0.0721
  310MOL0     C41748   2.967   0.037   1.875  0.0651  0.3525 -0.3070
  310MOL0     C41749   2.862  -0.036   1.942 -0.3795  0.2845 -0.2182
  310MOL0     C41750   2.855  -0.166   1.924 -1.0073 -0.2477  0.2168
  310MOL0     O41751   2.760  -0.240   1.988  0.1398 -0.3980 -0.0970
  310MOL0     C41752   2.819  -0.332   2.076 -0.2073 -0.8344 -0.1760
  310MOL0     C41753   2.704  -0.395   2.156 -0.9360  0.4990  0.4073
  310MOL0     C41754   2.744  -0.532   2.206  0.9645 -0.0235  0.0379
  310MOL0     C41755   2.641  -0.611   2.272 -0.4339 -0.4779  0.0109
  310MOL0     C41756   2.696  -0.745   2.313  0.3916 -0.3804 -1.2119
  310MOL0     C41757   2.588  -0.854   2.354 -0.6997  0.3562  0.5353
  310MOL0     C41758   2.655  -0.989   2.378  0.8824 -0.5475  0.4188
  310MOL0     C41759   2.561  -1.105   2.337 -0.7862  0.2673 -0.9933
  310MOL0    Cl41760   2.517  -1.100   2.178  0.1871 -0.1849  0.7270
  310MOL0     C41761   2.942  -0.232   1.833 -0.4169  0.2795 -0.4134
  310MOL0     C41762   3.046  -0.166   1.775  0.3705  0.3674  0.1955
  310MOL0     O41763   3.224   0.197   1.876  0.3243  0.4870  0.0860
  310MOL0     C41764   3.103   0.232   1.546  0.6016  0.6219  0.9343
  310MOL0     C41765   3.115   0.298   1.418  0.3994 -0.5524 -0.0586
  310MOL0     N41766   3.364   0.926   1.393  0.0153 -0.1936 -0.3189
  310MOL0     N41767   3.487   0.976   1.405  0.6797  0.3130 -0.2987
  310MOL0     C41768   3.858   1.642   1.614 -0.7591 -0.0246  0.1750
  310MOL0     C41769   3.790   1.762   1.661  0.2611  0.5281 -1.1922
  310MOL0     C41770   3.510   2.027   1.831  0.1220 -0.4024 -0.2287
  310MOL0     C41771   3.447   2.145   1.776  0.0338 -0.0628  0.7927
  310MOL0     C41772   3.317   2.180   1.813 -0.8873  0.2397 -0.9154
  310MOL0     C41773   3.243   2.094   1.901 -1.0424 -0.0216  0.2902
  310MOL0     O41774   3.105   2.101   1.931  0.0678  0.2477  0.2969
  310MOL0     C41775   3.036   2.229   1.942 -1.0009 -0.5142 -0.4010
  310MOL0     C41776   2.888   2.233   1.955  0.2890  0.0371 -0.3172
  310MOL0     C41777   2.827   2.171   2.084 -0.9634  0.0211 -0.8687
  310MOL0     C41778   2.860   2.254   2.212 -0.1430 -0.1676  0.6120
  310MOL0     C41779   2.788   2.198   2.329  1.9950 -0.4465  0.0734
  310MOL0     C41780   2.716   2.148   2.420 -0.4394 -0.4402  0.8352
  310MOL0     C41781   3.309   1.976   1.955 -0.6760  0.0589  0.1671
  310MOL0     C41782   3.439   1.955   1.920 -0.4577  0.6433 -0.0938
  310MOL0     H41783   3.826   1.701   1.996 -2.0089 -0.5163 -0.0363
  310MOL0     H41784   3.973   1.527   1.910  2.4452  0.6582 -1.7160
  310MOL0     H41785   4.031   1.538   1.468 -0.2661 -2.1648 -1.4023
  310MOL0     H41786   4.176   1.468   1.519  0.2844 -0.3040  0.2681
  310MOL0     H41787   3.916   1.343   1.446 -0.9265  0.5918 -0.9144
  310MOL0     H41788   4.076   1.356   1.350  2.0172 -0.9724  2.0100
  310MOL0     H41789   4.169   1.185   1.442 -1.0527 -3.1716  1.5894
  310MOL0     H41790   4.090   1.204   1.601 -0.5391 -1.1900  1.1497
  310MOL0     H41791   3.996   0.992   1.480 -1.0802 -0.1407 -0.8799
  310MOL0     H41792   3.889   1.130   1.481  1.7739  0.6957  1.9528
  310MOL0     H41793   3.962   1.168   1.234  2.4993  1.0918 -0.0778
  310MOL0     H41794   4.102   1.069   1.258  1.2122  0.5208  1.4864
  310MOL0     H41795   3.910   0.959   1.125 -0.3495 -0.7711 -0.6852
  310MOL0     H41796   3.982   0.872   1.267 -1.3315  1.5305  3.0368
  310MOL0     H41797   3.743   0.836   1.241  0.3288 -0.4990  1.1359
  310MOL0     H41798   3.768   0.914   1.390 -0.6878 -0.1976 -0.7408
  310MOL0     H41799   3.686   1.074   1.144 -1.1904  3.2115  0.5972
  310MOL0     H41800   3.704   1.129   1.306  3.6057 -0.6005 -0.1465
  310MOL0     H41801   3.450   0.988   1.077 -3.0350 -2.4921 -0.4889
  310MOL0     H41802   3.156   0.988   1.177  2.6012  1.5516  2.6123
  310MOL0     H41803   3.221   0.837   1.101 -0.0456  1.4189 -0.6177
  310MOL0     H41804   3.003   0.853   1.253  1.5597  3.7061 -0.4296
  310MOL0     H41805   3.099   0.834   1.385  0.5365 -2.4335  1.2338
  310MOL0     H41806   3.089   0.642   1.147 -0.5446 -1.7731  0.5472
  310MOL0     H41807   3.014   0.615   1.290  0.2099  1.1248  1.7555
  310MOL0     H41808   3.267   0.614   1.403 -0.7228 -1.2930  0.7181
  310MOL0     H41809   3.313   0.630   1.228  1.8010 -0.9401  2.2687
  310MOL0     H41810   3.419   0.433   1.452  1.2762 -1.4751  0.0191
  310MOL0     H41811   3.518   0.365   1.648  2.6802 -0.2178  3.6449
  310MOL0     H41812   3.416   0.444   1.775 -3.0212 -0.8069  0.4626
  310MOL0     H41813   3.440   0.264   1.770  4.3584 -0.1565  1.6396
  310MOL0     H41814   2.960   0.144   1.893 -2.5678 -0.0075  1.4222
  310MOL0     H41815   2.782   0.013   1.996  0.1588 -0.6587  1.5333
  310MOL0     H41816   2.875  -0.408   2.020 -0.3798 -0.4033 -0.9346
  310MOL0     H41817   2.898  -0.284   2.134 -1.1101 -0.1321  0.5138
  310MOL0     H41818   2.670  -0.347   2.248 -1.5645  0.3913  0.2336
  310MOL0     H41819   2.614  -0.405   2.095 -1.2535 -5.7295  1.2377
  310MOL0     H41820   2.823  -0.525   2.282  0.3045 -0.9809  0.8281
  310MOL0     H41821   2.775  -0.579   2.112 -1.5176 -0.6807 -0.5151
  310MOL0     H41822   2.613  -0.564   2.367  1.4676 -0.9428  0.8410
  310MOL0     H41823   2.559  -0.623   2.201  0.0868 -5.6225 -0.0687
  310MOL0     H41824   2.767  -0.723   2.393 -0.1793  2.6529 -1.3971
  310MOL0     H41825   2.748  -0.785   2.226  2.2770  1.1451 -0.8458
  310MOL0     H41826   2.554  -0.818   2.451 -0.3340  2.9165 -0.2189
  310MOL0     H41827   2.503  -0.849   2.286 -0.2307  0.4911 -0.0585
  310MOL0     H41828   2.675  -1.007   2.484  0.0623 -3.1332  0.2101
  310MOL0     H41829   2.750  -1.003   2.326  0.5373 -0.1200 -0.3377
  310MOL0     H41830   2.473  -1.109   2.402 -1.6880 -0.8396 -2.2116
  310MOL0     H41831   2.623  -1.192   2.362 -2.0461 -0.2079  0.6223
  310MOL0     H41832   2.931  -0.335   1.800 -0.3062  0.2727 -0.4326
  310MOL0     H41833   3.120  -0.216   1.713 -0.6379  0.3763 -1.0584
  310MOL0     H41834   3.023   0.159   1.544 -3.5624  4.7356 -1.0099
  310MOL0     H41835   3.038   0.281   1.343 -2.0955 -1.0424  2.4263
  310MOL0     H41836   3.850   1.615   1.509 -1.3325 -1.3782  0.5512
  310MOL0     H41837   3.739   1.825   1.589 -1.4326  0.4586 -0.1248
  310MOL0     H41838   3.497   2.202   1.699 -2.2935 -0.8983 -1.4804
  310MOL0     H41839   3.270   2.265   1.764 -1.4088  0.7224  0.3798
  310MOL0     H41840   3.084   2.268   2.032  0.4163 -1.5936 -0.6478
  310MOL0     H41841   3.069   2.293   1.860  0.1984  0.8269  1.0473
  310MOL0     H41842   2.861   2.169   1.871  2.1379 -0.5092 -0.5579
  310MOL0     H41843   2.847   2.332   1.938  2.4045  0.7753 -1.4437
  310MOL0     H41844   2.886   2.080   2.097 -0.9106  0.1538 -0.1655
  310MOL0     H41845   2.723   2.139   2.074 -0.9649 -0.2261 -0.1474
  310MOL0     H41846   2.824   2.354   2.185  1.8123 -0.1808 -2.7031
  310MOL0     H41847   2.967   2.270   2.224  0.0426 -0.1145 -0.8520
  310MOL0     H41848   2.657   2.090   2.488  0.4010  0.2378  2.1964
  310MOL0     H41849   3.243   1.919   2.019 -1.6848 -0.8384 -1.6032
  310MOL0     H41850   3.489   1.864   1.951  0.0278  0.7344 -0.6021
  311MOL0     O41851   1.037   1.665   5.786  0.0056 -0.3393 -0.3900
  311MOL0     C41852   1.080   1.558   5.836  0.1604 -0.4712  0.0269
  311MOL0     O41853   1.050   1.429   5.800  0.1025  0.1636  0.2916
  311MOL0     C41854   0.979   1.412   5.685  0.5191 -0.2368 -0.5658
  311MOL0     C41855   1.042   1.355   5.575  0.8602 -0.0644  0.5802
  311MOL0     C41856   0.959   1.336   5.455 -0.5708 -0.3878 -0.3666
  311MOL0     C41857   0.833   1.401   5.439 -0.2577 -0.0892  0.0215
  311MOL0     O41858   0.761   1.395   5.324 -0.6122  0.0446  0.1615
  311MOL0     C41859   0.797   1.305   5.217  0.4971 -0.9640 -0.1751
  311MOL0     C41860   0.695   1.307   5.105 -0.3477  0.0740  0.4418
  311MOL0     C41861   0.569   1.240   5.145 -0.2769  1.2449 -0.6522
  311MOL0     C41862   0.579   1.095   5.102  0.6643 -0.1613  0.4225
  311MOL0     C41863   0.443   1.023   5.132  0.3132 -0.6876 -0.4152
  311MOL0     C41864   0.389   1.026   5.275 -0.0273 -0.4561 -0.4732
  311MOL0     C41865   0.271   1.126   5.294 -0.8305 -0.1440 -1.1308
  311MOL0     C41866   0.126   1.090   5.272  0.6793  0.1862 -0.1414
  311MOL0     N41867   0.102   1.084   5.127 -0.9336 -0.7524 -0.2345
  311MOL0     C41868   0.069   0.975   5.056  0.1969 -0.0781  0.0155
  311MOL0     C41869   0.022   1.022   4.945 -0.2687 -0.6198 -0.0084
  311MOL0     C41870  -0.042   0.945   4.833  0.7379 -0.2736  0.5335
  311MOL0     C41871  -0.189   0.898   4.866  0.2913  0.2985  0.8165
  311MOL0     C41872  -0.295   1.008   4.844  1.0304  0.9091 -0.5224
  311MOL0     C41873  -0.431   0.942   4.870 -1.3518 -0.4805  1.3472
  311MOL0     O41874  -0.457   0.890   5.002  0.2359 -0.3207 -0.0175
  311MOL0     C41875  -0.573   0.819   5.033  0.3079  0.5644 -0.5734
  311MOL0     C41876  -0.548   0.705   5.116  0.4717 -0.2154  0.0413
  311MOL0     C41877  -0.665   0.629   5.151  0.5473  0.0163  0.2154
  311MOL0     C41878  -0.639   0.505   5.212  0.0431  0.5352 -0.6582
  311MOL0     C41879  -0.794   0.660   5.100  0.8723 -0.2470  0.7011
  311MOL0     C41880  -0.911   0.577   5.118  0.4664 -0.7015 -0.0579
  311MOL0     O41881  -0.966   0.529   5.005 -0.6229  0.1081 -0.1892
  311MOL0     C41882  -1.047   0.425   5.016  0.6307  0.0339 -0.4778
  311MOL0     C41883  -1.017   0.320   4.932  0.8267 -0.2242 -0.4049
  311MOL0     C41884  -1.105   0.208   4.937  0.6484 -0.3798 -0.6069
  311MOL0     C41885  -1.212   0.198   5.029  0.0869 -0.1724  0.1413
  311MOL0     O41886  -1.292   0.092   5.027  0.2267  0.0199 -0.2836
  311MOL0     C41887  -1.224  -0.045   5.032 -0.5203 -0.2653 -0.8676
  311MOL0     C41888  -1.310  -0.131   5.130 -0.1566  0.6008 -0.0536
  311MOL0     C41889  -1.243  -0.259   5.154  0.1586  0.4966  0.4924
  311MOL0     C41890  -1.209  -0.355   5.040  0.6176 -0.7574  0.7975
  311MOL0     C41891  -1.089  -0.447   5.079 -0.2020 -0.2071  0.6411
  311MOL0     C41892  -1.111  -0.566   5.164  0.9305  0.7106 -0.4123
  311MOL0     C41893  -0.985  -0.646   5.193 -0.3371 -0.2337 -1.1082
  311MOL0     C41894  -1.000  -0.786   5.244  0.5929 -1.1801  0.2760
  311MOL0    Cl41895  -1.091  -0.782   5.406 -0.1743 -0.0743  0.1907
  311MOL0     C41896  -1.249   0.318   5.097 -0.0942  0.5117  0.4546
  311MOL0     C41897  -1.166   0.431   5.094 -1.2838 -0.1981 -0.3270
  311MOL0     O41898  -0.941   0.533   5.225 -0.7424  0.5721 -0.3396
  311MOL0     C41899  -0.810   0.767   5.015  0.0782  0.0473 -0.5821
  311MOL0     C41900  -0.700   0.842   4.986  0.5415 -0.6737 -0.3933
  311MOL0     N41901   0.013   1.160   4.943 -0.9045  0.4587  0.0678
  311MOL0     N41902   0.075   1.199   5.054 -0.7324 -0.8665  0.8489
  311MOL0     C41903   0.776   1.459   5.549  0.2893 -0.1864 -0.5334
  311MOL0     C41904   0.844   1.465   5.668 -0.0184 -0.4561  0.4197
  311MOL0     C41905   1.157   1.575   5.955  0.0301  0.4198 -0.3671
  311MOL0     C41906   1.156   1.688   6.040 -0.4856 -0.1659  1.0840
  311MOL0     C41907   1.230   1.707   6.155 -0.4067  0.3038 -0.5852
  311MOL0     C41908   1.312   1.603   6.197  0.3731  0.2703 -0.1295
  311MOL0     O41909   1.402   1.630   6.302  0.1135  0.2439  0.1058
  311MOL0     C41910   1.468   1.522   6.379  0.2876 -0.4491  0.5348
  311MOL0     C41911   1.616   1.519   6.333  0.1756  0.6566 -0.2193
  311MOL0     C41912   1.701   1.643   6.381 -0.1597  0.1790 -0.5780
  311MOL0     C41913   1.731   1.639   6.529 -0.3998 -0.0671  0.1024
  311MOL0     C41914   1.770   1.762   6.586 -0.7046 -0.9330 -0.4891
  311MOL0     C41915   1.800   1.865   6.641  1.1425 -0.6570 -0.2932
  311MOL0     C41916   1.326   1.486   6.110  0.4522 -0.1831  1.0232
  311MOL0     C41917   1.241   1.475   5.998  0.1572 -0.2872  0.3092
  311MOL0     H41918   1.144   1.317   5.576  0.7611 -0.3685 -0.2578
  311MOL0     H41919   1.007   1.278   5.377  0.1619 -1.0564  0.5652
  311MOL0     H41920   0.898   1.318   5.177 -0.8096 -3.2552 -4.9329
  311MOL0     H41921   0.792   1.204   5.260  1.9523 -0.2407  1.8324
  311MOL0     H41922   0.676   1.405   5.060 -2.8072 -0.3051  0.5422
  311MOL0     H41923   0.746   1.254   5.024 -1.1342  1.6488 -1.1604
  311MOL0     H41924   0.553   1.241   5.253 -0.5950 -0.6178 -0.6355
  311MOL0     H41925   0.484   1.288   5.096 -0.4482  1.8820  0.2459
  311MOL0     H41926   0.599   1.079   4.996 -0.4781 -1.9374  0.4434
  311MOL0     H41927   0.663   1.039   5.145  0.0881 -1.3478  0.0475
  311MOL0     H41928   0.375   1.072   5.062 -0.8900 -2.4188 -0.5446
  311MOL0     H41929   0.466   0.922   5.096  5.3227 -0.1915  0.6468
  311MOL0     H41930   0.378   0.927   5.320  2.6176 -1.3071 -1.4849
  311MOL0     H41931   0.475   1.057   5.335 -0.0634 -0.3427 -0.4802
  311MOL0     H41932   0.281   1.142   5.401  0.3279  0.0108 -1.2449
  311MOL0     H41933   0.289   1.220   5.241 -0.2175  0.0396 -0.6060
  311MOL0     H41934   0.076   1.177   5.315  3.6179  1.5932  0.7425
  311MOL0     H41935   0.086   1.002   5.323 -0.6627  0.1368 -1.2340
  311MOL0     H41936   0.069   0.869   5.078 -0.9107  0.0184  0.5622
  311MOL0     H41937  -0.032   0.995   4.737 -2.3970 -2.5801 -1.2162
  311MOL0     H41938   0.013   0.851   4.825 -1.8906 -1.8585 -0.2143
  311MOL0     H41939  -0.193   0.877   4.973  1.2319 -0.7272  0.6743
  311MOL0     H41940  -0.211   0.806   4.809  3.8995  0.2380 -0.7722
  311MOL0     H41941  -0.296   1.055   4.745  2.5243 -0.2615 -1.1450
  311MOL0     H41942  -0.272   1.089   4.913  0.0581 -1.5606  3.0118
  311MOL0     H41943  -0.423   0.857   4.802 -0.9543 -0.1361  0.9556
  311MOL0     H41944  -0.505   1.003   4.817  1.2481 -0.3979 -2.6061
  311MOL0     H41945  -0.451   0.682   5.159  0.8225  1.9246  0.5249
  311MOL0     H41946  -0.689   0.492   5.308  0.7741  0.1926 -0.3171
  311MOL0     H41947  -0.683   0.422   5.157  2.3119 -1.9169  0.9843
  311MOL0     H41948  -0.532   0.489   5.227  0.3441  1.7960 -1.3019
  311MOL0     H41949  -0.930   0.305   4.868  0.4006 -1.0353 -0.8113
  311MOL0     H41950  -1.094   0.119   4.876  0.2130 -1.3284  0.6490
  311MOL0     H41951  -1.230  -0.090   4.933  0.6999 -0.8179 -0.6982
  311MOL0     H41952  -1.120  -0.023   5.057 -0.4278  0.4942 -1.8690
  311MOL0     H41953  -1.324  -0.092   5.231  0.2748 -4.0420  2.0409
  311MOL0     H41954  -1.406  -0.142   5.080  1.2553  1.2326 -3.1373
  311MOL0     H41955  -1.309  -0.308   5.227 -3.3837  2.0422 -1.3896
  311MOL0     H41956  -1.143  -0.241   5.194  0.6987 -0.8915 -0.1548
  311MOL0     H41957  -1.300  -0.411   5.020 -0.1676  0.3070  1.3119
  311MOL0     H41958  -1.182  -0.302   4.948  1.2264 -0.3419  1.2048
  311MOL0     H41959  -1.013  -0.376   5.115 -3.3242  2.7248  1.9760
  311MOL0     H41960  -1.056  -0.485   4.982 -2.3310 -0.9493  0.1668
  311MOL0     H41961  -1.163  -0.540   5.256 -0.7182 -0.3052 -1.0114
  311MOL0     H41962  -1.168  -0.640   5.108  0.5317  0.3949  0.4096
  311MOL0     H41963  -0.922  -0.595   5.267 -2.0759 -0.3756  0.5339
  311MOL0     H41964  -0.915  -0.655   5.109 -1.8969  1.3118 -2.6789
  311MOL0     H41965  -0.897  -0.817   5.262  0.6876 -1.2845 -0.4162
  311MOL0     H41966  -1.048  -0.855   5.173 -1.3480  1.5308 -1.2541
  311MOL0     H41967  -1.342   0.307   5.153 -0.3187 -2.7723 -0.3073
  311MOL0     H41968  -1.196   0.519   5.151 -3.7694 -0.9957 -0.3043
  311MOL0     H41969  -0.909   0.800   4.983 -0.6019  1.3393  2.4432
  311MOL0     H41970  -0.717   0.928   4.921 -1.3299  1.2066  2.3435
  311MOL0     H41971   0.677   1.503   5.550  0.8549  1.1382 -0.8620
  311MOL0     H41972   0.790   1.521   5.744  0.6908  2.5456 -1.1350
  311MOL0     H41973   1.098   1.777   6.018 -0.0667  0.4333  2.2977
  311MOL0     H41974   1.230   1.800   6.211  0.0318 -0.7924  1.2993
  311MOL0     H41975   1.464   1.547   6.485  0.0837  1.7018  0.0559
  311MOL0     H41976   1.418   1.425   6.370  0.7034 -0.8085  1.9389
  311MOL0     H41977   1.629   1.515   6.225 -0.2284  1.7460 -0.3206
  311MOL0     H41978   1.672   1.430   6.365  1.3877  1.4553 -0.0586
  311MOL0     H41979   1.635   1.728   6.362 -1.5780 -0.8647 -0.5698
  311MOL0     H41980   1.791   1.649   6.318  0.8699  0.2078  0.8586
  311MOL0     H41981   1.801   1.562   6.562 -3.8984 -1.7621  4.6093
  311MOL0     H41982   1.643   1.614   6.589  1.8025 -1.0595  3.1689
  311MOL0     H41983   1.812   1.959   6.692 -2.1806  0.2428 -0.8971
  311MOL0     H41984   1.390   1.402   6.132  0.2117 -0.1619  1.8193
  311MOL0     H41985   1.259   1.385   5.939 -0.4736  1.2404 -2.3891
  312MOL0     O41986   8.825   2.341   5.397  0.1362  0.3908  0.6138
  312MOL0     C41987   8.837   2.449   5.449  0.1710  0.7659 -0.8757
  312MOL0     O41988   8.835   2.573   5.389  0.8484 -0.3887  0.3235
  312MOL0     C41989   8.819   2.569   5.257  0.8830  0.0211  0.4325
  312MOL0     C41990   8.920   2.547   5.170 -0.0944  1.0458 -1.1486
  312MOL0     C41991   8.899   2.550   5.036  0.4249  0.4399  0.4348
  312MOL0     C41992   8.771   2.581   4.979  0.2829  0.7198  0.5112
  312MOL0     O41993   8.744   2.585   4.840 -0.7680 -0.1732 -0.6663
  312MOL0     C41994   8.811   2.518   4.738  0.3665 -0.2341 -0.0435
  312MOL0     C41995   8.907   2.621   4.673  0.5618 -0.5525 -0.9334
  312MOL0     C41996   8.920   2.613   4.523 -0.1942  0.5673  0.4635
  312MOL0     C41997   9.059   2.678   4.476 -0.6666  0.0940 -0.2166
  312MOL0     C41998   9.105   2.651   4.325 -1.1079 -0.8862  0.6856
  312MOL0     C41999   9.022   2.735   4.232 -0.7591  0.3596  0.1215
  312MOL0     C42000   9.041   2.667   4.090 -0.5190  0.1135  0.9423
  312MOL0     C42001   8.992   2.523   4.062  0.0462 -0.2868 -0.1397
  312MOL0     N42002   8.977   2.490   3.920  0.0574 -0.2284 -0.2751
  312MOL0     C42003   8.872   2.529   3.841 -0.1129 -0.5648 -0.4341
  312MOL0     C42004   8.892   2.456   3.726  0.5009 -1.2373 -0.1029
  312MOL0     C42005   8.810   2.445   3.606  0.3285 -0.0538  0.1818
  312MOL0     C42006   8.818   2.580   3.535 -0.0830  0.3358  0.1460
  312MOL0     C42007   8.730   2.576   3.415 -0.1640  0.3061  0.2356
  312MOL0     C42008   8.747   2.685   3.323  1.2035  0.0861 -0.1823
  312MOL0     O42009   8.756   2.808   3.402 -0.0912  0.1501 -0.5471
  312MOL0     C42010   8.748   2.919   3.313 -0.1497 -0.0355  0.0660
  312MOL0     C42011   8.859   2.963   3.242 -0.7900 -0.3731 -0.5904
  312MOL0     C42012   8.852   3.066   3.143 -1.5714  0.7312  0.1159
  312MOL0     C42013   8.982   3.094   3.079 -0.2686  0.4091  0.6067
  312MOL0     C42014   8.737   3.130   3.124  0.7758 -0.7994 -0.3525
  312MOL0     C42015   8.705   3.247   3.020 -0.3132 -0.3429 -0.7630
  312MOL0     O42016   8.573   3.263   2.984  0.0145 -0.6879  0.4648
  312MOL0     C42017   8.524   3.380   2.928  0.0131  0.2888  0.5405
  312MOL0     C42018   8.575   3.422   2.804 -0.8074 -0.4529 -0.2896
  312MOL0     C42019   8.534   3.534   2.746  1.0184 -0.1967 -0.5338
  312MOL0     C42020   8.445   3.618   2.823  0.5903 -0.4344 -0.4094
  312MOL0     O42021   8.404   3.734   2.756  0.2061  0.0900 -0.6406
  312MOL0     C42022   8.499   3.813   2.695 -0.1661  0.3503  0.3788
  312MOL0     C42023   8.496   3.807   2.543 -0.5257  0.5397 -0.0161
  312MOL0     C42024   8.367   3.873   2.497 -0.4110  0.2986  0.7325
  312MOL0     C42025   8.372   3.914   2.347  1.2309  0.1109 -0.6387
  312MOL0     C42026   8.237   3.962   2.299  0.4644 -0.1294 -0.2003
  312MOL0     C42027   8.255   4.055   2.175  0.3757  0.2384 -0.2352
  312MOL0     C42028   8.308   3.985   2.053  0.0046 -0.7489  0.2837
  312MOL0     C42029   8.216   3.875   1.993  0.0859 -0.4220  0.6017
  312MOL0    Cl42030   8.259   3.866   1.807 -0.1499  0.1453  0.1979
  312MOL0     C42031   8.383   3.571   2.944  0.2376 -0.3242  0.0957
  312MOL0     C42032   8.423   3.453   2.995  0.2966  0.4415 -0.0094
  312MOL0     O42033   8.798   3.325   2.996 -0.4748  0.2485 -0.4259
  312MOL0     C42034   8.629   3.098   3.208  0.3963 -0.0353 -0.2584
  312MOL0     C42035   8.636   2.999   3.308  0.3234  0.1133 -0.0701
  312MOL0     N42036   9.000   2.378   3.737 -0.7823  0.6127  0.1026
  312MOL0     N42037   9.049   2.392   3.853 -0.2085  0.2782 -0.5846
  312MOL0     C42038   8.675   2.609   5.070  0.8966 -0.1964 -0.0948
  312MOL0     C42039   8.697   2.605   5.205 -0.7208 -0.1233  0.2681
  312MOL0     C42040   8.866   2.461   5.597  0.1123  0.7220  0.0403
  312MOL0     C42041   8.837   2.353   5.683 -0.2937 -0.3381 -0.6129
  312MOL0     C42042   8.864   2.370   5.821  0.6812 -0.8104 -0.7589
  312MOL0     C42043   8.916   2.493   5.874 -0.1827 -0.8441  0.3751
  312MOL0     O42044   8.922   2.505   6.007 -0.7443  1.3384  1.2595
  312MOL0     C42045   8.973   2.623   6.068  0.3425 -0.8526 -0.1034
  312MOL0     C42046   8.975   2.593   6.219 -0.4446  0.1235  0.3359
  312MOL0     C42047   8.913   2.713   6.291 -0.1495  0.9656 -0.2635
  312MOL0     C42048   8.920   2.709   6.446 -0.8965  0.5628 -0.4356
  312MOL0     C42049   8.832   2.591   6.495 -0.2659 -1.1532 -0.3466
  312MOL0     C42050   8.769   2.517   6.559 -1.0058  0.0798 -0.8639
  312MOL0     C42051   8.937   2.592   5.786 -0.6720 -0.1380 -0.7836
  312MOL0     C42052   8.909   2.579   5.652  1.1114  0.3518  0.0151
  312MOL0     H42053   9.023   2.527   5.199 -0.4501  0.9816  0.1616
  312MOL0     H42054   8.983   2.535   4.969  0.0155  2.3000 -0.5545
  312MOL0     H42055   8.865   2.432   4.778  1.2236  0.6260  0.7095
  312MOL0     H42056   8.743   2.479   4.662  1.2908  0.0336 -1.0422
  312MOL0     H42057   8.864   2.721   4.682 -0.9042 -0.9961 -2.4545
  312MOL0     H42058   9.000   2.616   4.730  0.4205  0.3706 -0.6085
  312MOL0     H42059   8.935   2.508   4.494 -0.9731  0.7449 -0.6483
  312MOL0     H42060   8.827   2.641   4.473 -1.3724 -0.9863  1.6552
  312MOL0     H42061   9.058   2.785   4.499 -3.5075  0.5781 -2.1305
  312MOL0     H42062   9.127   2.644   4.555 -0.9314 -1.4799 -0.6327
  312MOL0     H42063   9.210   2.668   4.299 -1.0262 -2.6379 -0.3699
  312MOL0     H42064   9.096   2.544   4.301 -1.2827 -0.3059 -2.1862
  312MOL0     H42065   8.919   2.734   4.269 -1.5308 -2.3208 -1.8116
  312MOL0     H42066   9.064   2.836   4.239  0.1659 -0.1249  2.9062
  312MOL0     H42067   8.980   2.734   4.028  1.1377  2.7222  1.9717
  312MOL0     H42068   9.146   2.678   4.063 -1.0750 -0.2487 -1.5908
  312MOL0     H42069   8.889   2.530   4.099 -0.2366 -0.1080 -0.9296
  312MOL0     H42070   9.041   2.440   4.113  0.4101  0.5626  0.9460
  312MOL0     H42071   8.791   2.600   3.857 -1.4458 -2.1307  0.0142
  312MOL0     H42072   8.846   2.366   3.539  1.2023  1.2521 -0.9495
  312MOL0     H42073   8.704   2.433   3.629  0.4889  0.3795  1.1761
  312MOL0     H42074   8.920   2.612   3.511 -0.4936  1.7662  0.1721
  312MOL0     H42075   8.776   2.665   3.590 -0.2248  1.0759 -1.0593
  312MOL0     H42076   8.627   2.567   3.450  0.8216 -0.2626  3.3410
  312MOL0     H42077   8.754   2.480   3.369 -0.3688  0.4963 -0.2662
  312MOL0     H42078   8.671   2.686   3.245  1.8589 -2.1150 -0.9545
  312MOL0     H42079   8.840   2.665   3.268  2.0748  2.3945  0.3628
  312MOL0     H42080   8.949   2.907   3.265 -0.7123  0.2767  0.7591
  312MOL0     H42081   9.054   3.012   3.089 -0.6739 -0.2710 -1.5663
  312MOL0     H42082   8.977   3.111   2.971 -4.5587 -0.7314  0.4479
  312MOL0     H42083   9.022   3.175   3.141 -4.0620  1.5321  1.8450
  312MOL0     H42084   8.656   3.361   2.764  1.0208  2.2190 -0.8897
  312MOL0     H42085   8.566   3.559   2.646  1.7732  2.2414  0.2492
  312MOL0     H42086   8.488   3.917   2.725  2.8744  0.1924  2.4185
  312MOL0     H42087   8.600   3.795   2.734 -1.0827 -2.1382  1.8030
  312MOL0     H42088   8.586   3.858   2.506  0.9904 -2.1316 -0.2375
  312MOL0     H42089   8.499   3.707   2.500  0.6959  0.4874  0.1599
  312MOL0     H42090   8.333   3.958   2.558  0.4089  1.6752 -0.6496
  312MOL0     H42091   8.289   3.797   2.501 -0.5705  0.5140  1.9490
  312MOL0     H42092   8.447   3.988   2.318  1.0618  0.0161 -1.3375
  312MOL0     H42093   8.399   3.823   2.293  1.5026  0.0802 -0.4556
  312MOL0     H42094   8.191   4.021   2.380  0.2437  0.6494 -0.8801
  312MOL0     H42095   8.181   3.870   2.283 -1.8099  0.7968  1.7171
  312MOL0     H42096   8.156   4.094   2.152 -0.3266 -0.3670  1.5416
  312MOL0     H42097   8.326   4.134   2.200  0.4127  0.3040 -0.5467
  312MOL0     H42098   8.397   3.925   2.069 -1.1890 -2.7623 -0.3639
  312MOL0     H42099   8.334   4.060   1.977 -0.9346 -0.9666 -0.2736
  312MOL0     H42100   8.115   3.916   1.992 -0.9290 -2.5779 -2.7600
  312MOL0     H42101   8.219   3.782   2.051  1.7100 -0.5059  0.4348
  312MOL0     H42102   8.297   3.625   2.979 -0.4603 -2.3779  1.7656
  312MOL0     H42103   8.368   3.422   3.083 -1.6906  3.4790 -0.0187
  312MOL0     H42104   8.534   3.151   3.204  0.9766  0.9884 -0.6661
  312MOL0     H42105   8.544   2.976   3.360 -0.5980 -0.8482 -2.0003
  312MOL0     H42106   8.573   2.639   5.047  0.0133 -2.0360  1.1796
  312MOL0     H42107   8.626   2.651   5.273 -1.0947 -0.5381  0.1574
  312MOL0     H42108   8.801   2.258   5.644 -2.0829  0.2525 -0.5149
  312MOL0     H42109   8.847   2.287   5.889  2.3869  0.2855  1.1072
  312MOL0     H42110   9.077   2.639   6.038  0.9925 -1.1793  1.8036
  312MOL0     H42111   8.914   2.710   6.040 -0.2068 -2.0796 -3.1130
  312MOL0     H42112   9.080   2.586   6.250 -0.5163  0.8750  0.7793
  312MOL0     H42113   8.923   2.500   6.244  0.6263 -0.4781  0.3762
  312MOL0     H42114   8.805   2.716   6.276 -0.3919  0.7527  1.2570
  312MOL0     H42115   8.960   2.802   6.249  1.0227  0.8378  0.7334
  312MOL0     H42116   8.888   2.795   6.505 -0.7298  0.6424 -0.4598
  312MOL0     H42117   9.023   2.695   6.481 -0.1215  3.9451 -1.0198
  312MOL0     H42118   8.699   2.455   6.610 -1.3617  0.2613 -1.1328
  312MOL0     H42119   8.958   2.692   5.823  0.4048 -0.1213 -1.3869
  312MOL0     H42120   8.914   2.673   5.598  1.1571  0.3096 -0.0549
  313MOL0     O42121   8.183   8.641   6.820  0.4788 -0.4452  0.4044
  313MOL0     C42122   8.209   8.761   6.837  0.1699 -0.4073  0.1962
  313MOL0     O42123   8.129   8.865   6.860  1.6438  0.4731  0.2333
  313MOL0     C42124   7.990   8.842   6.855  0.1385  0.4666  0.6684
  313MOL0     C42125   7.923   8.848   6.977  0.0695  0.2031  0.0004
  313MOL0     C42126   7.785   8.840   6.979  1.1581  0.3805 -0.3835
  313MOL0     C42127   7.708   8.819   6.869  0.3754  1.2998  0.7044
  313MOL0     O42128   7.573   8.824   6.876  0.0217  0.2377 -0.3767
  313MOL0     C42129   7.515   8.890   6.987  0.6011 -0.5929  0.6341
  313MOL0     C42130   7.379   8.933   6.929 -0.1928 -0.1752 -0.9653
  313MOL0     C42131   7.289   9.004   7.036  0.0861 -0.2316 -0.1223
  313MOL0     C42132   7.176   9.074   6.951  0.2038  0.0340 -0.2297
  313MOL0     C42133   7.091   9.167   7.041 -0.2731  1.5135  0.1860
  313MOL0     C42134   7.154   9.299   7.096 -1.0812  0.4622  0.3431
  313MOL0     C42135   7.047   9.396   7.156  0.5552  0.1087  0.6188
  313MOL0     C42136   6.928   9.320   7.244  0.1151 -0.3368 -0.0614
  313MOL0     N42137   6.815   9.404   7.285 -1.1501  0.3993 -0.9831
  313MOL0     C42138   6.688   9.369   7.307  0.1659  0.4823 -0.6076
  313MOL0     C42139   6.641   9.469   7.382  0.6607 -0.5489 -0.7934
  313MOL0     C42140   6.513   9.473   7.450  0.8613 -0.7397 -0.6873
  313MOL0     C42141   6.494   9.591   7.547 -0.6338  0.6178 -0.2243
  313MOL0     C42142   6.371   9.597   7.630  0.9077  1.2445 -0.2203
  313MOL0     C42143   6.245   9.569   7.547  0.2815 -0.0338 -0.2579
  313MOL0     O42144   6.121   9.584   7.614 -0.8486 -0.7481 -0.3057
  313MOL0     C42145   6.012   9.570   7.535 -0.2931 -0.1275 -0.0583
  313MOL0     C42146   6.006   9.557   7.394 -0.1618 -0.1710  0.5745
  313MOL0     C42147   5.880   9.531   7.328 -0.5726  0.9478 -0.0707
  313MOL0     C42148   5.873   9.501   7.177 -0.1927 -0.6119  0.0328
  313MOL0     C42149   5.764   9.516   7.399  0.0945  0.0487 -0.0389
  313MOL0     C42150   5.628   9.517   7.338  0.9910  0.8924 -0.6455
  313MOL0     O42151   5.543   9.440   7.412 -0.3085  0.2830  0.7078
  313MOL0     C42152   5.425   9.420   7.359  1.4689  0.7179  0.1752
  313MOL0     C42153   5.398   9.293   7.284  0.1397  0.5496  0.2007
  313MOL0     C42154   5.270   9.264   7.228  0.8267  0.6750  1.0216
  313MOL0     C42155   5.163   9.347   7.264  0.4106 -0.6527 -0.2636
  313MOL0     O42156   5.037   9.327   7.213  0.0884 -0.7754  0.4837
  313MOL0     C42157   4.944   9.317   7.322 -0.6189 -0.6416  0.9105
  313MOL0     C42158   4.814   9.276   7.260 -0.0548 -0.2686  0.3423
  313MOL0     C42159   4.730   9.393   7.195 -0.5542  0.7006 -0.7232
  313MOL0     C42160   4.588   9.354   7.185 -0.5602 -0.0372  0.2894
  313MOL0     C42161   4.493   9.469   7.203  0.7029 -0.0193  0.0524
  313MOL0     C42162   4.355   9.431   7.142  0.5056 -0.1901  0.1601
  313MOL0     C42163   4.254   9.549   7.172 -0.0363  0.0620 -0.7170
  313MOL0     C42164   4.183   9.537   7.317 -0.0103 -0.9950 -0.6705
  313MOL0    Cl42165   4.085   9.380   7.326  0.3255 -0.3749  0.1356
  313MOL0     C42166   5.186   9.459   7.345  0.4087  0.1739 -0.8083
  313MOL0     C42167   5.315   9.502   7.395  0.6396  0.2064 -0.2834
  313MOL0     O42168   5.604   9.564   7.225 -0.0836  0.2009 -0.1064
  313MOL0     C42169   5.784   9.502   7.543 -0.1594  0.1393  1.0286
  313MOL0     C42170   5.897   9.553   7.607  0.2257 -0.1860  0.0260
  313MOL0     N42171   6.732   9.566   7.394  0.0983 -0.2079 -0.6343
  313MOL0     N42172   6.847   9.527   7.336 -0.1788 -0.5112 -0.7402
  313MOL0     C42173   7.774   8.799   6.753 -0.0929 -1.4771 -0.4663
  313MOL0     C42174   7.911   8.821   6.743 -0.2226 -0.3893  0.5591
  313MOL0     C42175   8.354   8.793   6.827 -0.0866 -0.4678 -0.3919
  313MOL0     C42176   8.454   8.689   6.841 -0.0178  0.6722 -0.3016
  313MOL0     C42177   8.588   8.712   6.824  0.5736 -0.0334 -1.4177
  313MOL0     C42178   8.628   8.839   6.830 -0.5226 -0.0008  0.8315
  313MOL0     O42179   8.757   8.868   6.837  0.3053 -0.3114 -0.6168
  313MOL0     C42180   8.804   9.004   6.835 -0.4738  0.0528  0.1837
  313MOL0     C42181   8.956   9.020   6.839  0.4608 -0.6498 -0.0773
  313MOL0     C42182   8.988   9.168   6.850 -0.0146  0.0765 -0.6599
  313MOL0     C42183   9.139   9.189   6.856 -0.4652  0.1115  0.6144
  313MOL0     C42184   9.193   9.154   6.989 -0.4796 -1.0273 -0.7192
  313MOL0     C42185   9.215   9.136   7.106  0.6877 -0.6528 -1.0090
  313MOL0     C42186   8.537   8.947   6.812  0.3837 -1.1290 -0.2283
  313MOL0     C42187   8.400   8.923   6.815 -0.0108  0.5112 -0.0210
  313MOL0     H42188   7.985   8.863   7.065 -0.6391  0.9848  0.3863
  313MOL0     H42189   7.742   8.847   7.078  2.5960 -0.0024  0.2898
  313MOL0     H42190   7.525   8.817   7.067  3.6108 -1.6915 -0.5843
  313MOL0     H42191   7.584   8.972   7.012  2.8311 -2.4096  0.7247
  313MOL0     H42192   7.391   9.002   6.845 -2.9324  1.7061  0.0589
  313MOL0     H42193   7.325   8.841   6.903  0.8251 -0.7590 -1.0649
  313MOL0     H42194   7.243   8.929   7.101 -0.8537 -0.8910 -1.4926
  313MOL0     H42195   7.340   9.071   7.105 -0.1941 -0.8017  0.6521
  313MOL0     H42196   7.211   9.126   6.862  1.8617 -1.8878 -0.7667
  313MOL0     H42197   7.107   8.994   6.924 -0.6263  1.1022 -1.3788
  313MOL0     H42198   6.993   9.173   6.993 -1.9264 -3.6971  2.1959
  313MOL0     H42199   7.063   9.112   7.132 -0.6579 -1.1409 -1.4429
  313MOL0     H42200   7.234   9.275   7.167 -0.5059 -0.9717 -0.7491
  313MOL0     H42201   7.207   9.345   7.012 -1.3202 -0.6579 -0.4316
  313MOL0     H42202   7.092   9.483   7.204 -2.3382  3.1066 -1.6603
  313MOL0     H42203   6.997   9.442   7.070  2.8518  1.0082 -0.2954
  313MOL0     H42204   6.991   9.302   7.331  1.2262  4.2385  0.3326
  313MOL0     H42205   6.898   9.225   7.198  1.1268 -2.3457  3.0936
  313MOL0     H42206   6.632   9.279   7.283  1.4164 -0.7241  0.7838
  313MOL0     H42207   6.433   9.460   7.376  0.6427 -0.1169 -0.5683
  313MOL0     H42208   6.508   9.382   7.510 -0.5200 -1.1618 -1.3809
  313MOL0     H42209   6.489   9.677   7.479 -2.2182 -0.9703 -2.2416
  313MOL0     H42210   6.582   9.617   7.606  0.1614 -0.7257 -0.7897
  313MOL0     H42211   6.354   9.682   7.696  2.8883  2.2977 -0.9922
  313MOL0     H42212   6.379   9.503   7.686  2.3888  2.3152  1.4331
  313MOL0     H42213   6.240   9.467   7.508 -4.4673  0.5146 -1.6821
  313MOL0     H42214   6.246   9.639   7.463 -2.7370  0.9117  0.3574
  313MOL0     H42215   6.091   9.573   7.328 -0.0490  0.9787  0.9892
  313MOL0     H42216   5.829   9.406   7.144 -0.3420  0.5623 -3.6004
  313MOL0     H42217   5.829   9.585   7.124  0.8755 -1.5667 -2.5639
  313MOL0     H42218   5.979   9.498   7.148 -0.6390  0.0734 -1.7667
  313MOL0     H42219   5.476   9.219   7.267 -1.8872 -1.4746 -0.7307
  313MOL0     H42220   5.253   9.171   7.175  2.1540  1.2125 -0.4343
  313MOL0     H42221   4.976   9.248   7.400 -2.9808 -1.2222  1.4403
  313MOL0     H42222   4.925   9.414   7.369 -0.2678 -0.0962 -0.0333
  313MOL0     H42223   4.834   9.197   7.188 -2.0222  1.7498 -2.6352
  313MOL0     H42224   4.761   9.247   7.351  0.8589  0.4502  1.1310
  313MOL0     H42225   4.777   9.424   7.101  1.2937  0.3000  0.0163
  313MOL0     H42226   4.732   9.484   7.255 -0.4433 -1.1080  2.1753
  313MOL0     H42227   4.576   9.317   7.082 -0.1557 -1.0686  0.5970
  313MOL0     H42228   4.579   9.264   7.246  1.4286 -1.8052 -1.8237
  313MOL0     H42229   4.532   9.554   7.145 -1.9407 -0.9553 -3.4286
  313MOL0     H42230   4.474   9.494   7.308 -1.5987 -2.6062  0.3561
  313MOL0     H42231   4.359   9.415   7.034 -2.8425 -0.7471  0.0024
  313MOL0     H42232   4.317   9.338   7.185  1.6152 -0.9809 -0.5173
  313MOL0     H42233   4.175   9.543   7.097 -1.6487 -0.3474  0.9429
  313MOL0     H42234   4.315   9.640   7.175 -1.9017  1.3519  1.6386
  313MOL0     H42235   4.115   9.622   7.331 -1.3483 -2.0222 -0.7425
  313MOL0     H42236   4.247   9.542   7.406 -2.7535 -0.8414  1.4531
  313MOL0     H42237   5.106   9.524   7.379 -2.7195 -3.0857 -1.2802
  313MOL0     H42238   5.337   9.588   7.457 -0.5314  0.1740  0.1929
  313MOL0     H42239   5.708   9.477   7.615  0.1021  1.3189  1.7460
  313MOL0     H42240   5.901   9.552   7.716  0.8573  1.2271  0.0294
  313MOL0     H42241   7.707   8.791   6.668  0.0376 -1.0512 -0.6161
  313MOL0     H42242   7.947   8.807   6.641 -4.0897 -0.1531 -1.0188
  313MOL0     H42243   8.437   8.583   6.853  4.2326 -0.3547 -1.5634
  313MOL0     H42244   8.659   8.630   6.827 -0.5369 -0.9922 -0.5805
  313MOL0     H42245   8.774   9.050   6.741  2.8916 -1.2621 -1.7269
  313MOL0     H42246   8.771   9.065   6.919  3.8684  1.2946  1.2617
  313MOL0     H42247   9.007   8.975   6.753  3.3654  0.8943  0.7186
  313MOL0     H42248   8.998   8.980   6.932  2.5423 -0.5544 -0.9095
  313MOL0     H42249   8.934   9.207   6.936 -0.9892  1.4333 -1.8344
  313MOL0     H42250   8.953   9.228   6.765 -2.7368 -1.5840 -0.8333
  313MOL0     H42251   9.162   9.293   6.830 -1.9502  0.5854  1.1242
  313MOL0     H42252   9.180   9.112   6.791 -3.1107 -1.6045  0.8560
  313MOL0     H42253   9.235   9.124   7.211 -1.8294  1.2495 -0.2311
  313MOL0     H42254   8.568   9.050   6.794 -0.4234 -1.0754 -1.4312
  313MOL0     H42255   8.337   9.011   6.818  0.1700  0.6856  4.0639
  314MOL0     O42256   3.458  10.416   9.340  0.0245  0.0824 -0.1215
  314MOL0     C42257   3.429  10.365   9.229 -0.3813 -0.5049  0.2100
  314MOL0     O42258   3.309  10.310   9.194  0.5818 -0.2070  0.5167
  314MOL0     C42259   3.217  10.316   9.293 -0.5779 -0.2258 -1.4865
  314MOL0     C42260   3.100  10.384   9.268 -0.0615  0.4968  0.1276
  314MOL0     C42261   2.992  10.377   9.365 -0.0149  0.9336  0.3236
  314MOL0     C42262   2.995  10.288   9.473 -0.0673 -0.6112  0.0697
  314MOL0     O42263   2.891  10.267   9.570 -0.6357  1.4810 -0.4785
  314MOL0     C42264   2.803  10.383   9.595  0.7383 -0.0298  0.4556
  314MOL0     C42265   2.699  10.353   9.713 -0.4354  0.6784  0.5689
  314MOL0     C42266   2.608  10.245   9.663  0.4443 -0.4567  0.0348
  314MOL0     C42267   2.504  10.215   9.777 -0.3321 -0.3066  0.0261
  314MOL0     C42268   2.400  10.109   9.742  0.0798 -0.6439  0.4038
  314MOL0     C42269   2.293  10.095   9.855  0.7063  0.3158  0.3494
  314MOL0     C42270   2.171  10.017   9.813 -0.1432 -0.3954  0.3030
  314MOL0     C42271   2.191   9.864   9.770  0.7014  0.6623  0.3606
  314MOL0     N42272   2.066   9.823   9.693  0.1378  0.4665  0.4412
  314MOL0     C42273   1.951   9.803   9.767 -0.5169  0.3225  0.2204
  314MOL0     C42274   1.872   9.736   9.684  0.3074  0.1914 -0.4192
  314MOL0     C42275   1.730   9.720   9.725 -0.0939 -0.1180  0.1563
  314MOL0     C42276   1.647   9.812   9.642 -0.2680 -0.1530 -0.0142
  314MOL0     C42277   1.661   9.960   9.693  0.0266  0.8862  1.3462
  314MOL0     C42278   1.684  10.057   9.580  0.6025  0.1833  0.0561
  314MOL0     O42279   1.729  10.180   9.635  0.2625 -0.0650 -1.0019
  314MOL0     C42280   1.648  10.295   9.641 -0.1146  0.4251 -0.8133
  314MOL0     C42281   1.703  10.428   9.643  0.4537  0.1309  0.0471
  314MOL0     C42282   1.621  10.544   9.634 -0.4473 -0.4990  0.9683
  314MOL0     C42283   1.697  10.668   9.606 -0.4404  0.5524 -0.4739
  314MOL0     C42284   1.478  10.525   9.637 -1.0459  0.3558 -0.1805
  314MOL0     C42285   1.376  10.636   9.624 -0.0022 -0.1670  0.1157
  314MOL0     O42286   1.245  10.604   9.645 -0.1075 -0.0939  0.4748
  314MOL0     C42287   1.141  10.692   9.615  0.0284 -0.4579  0.3840
  314MOL0     C42288   1.135  10.826   9.653  0.5442  0.2551 -0.4859
  314MOL0     C42289   1.025  10.905   9.621  0.6632 -1.1081  0.4029
  314MOL0     C42290   0.921  10.846   9.541 -1.0429 -0.9579 -0.4425
  314MOL0     O42291   0.806  10.907   9.498 -0.5047  0.1014  0.7381
  314MOL0     C42292   0.803  11.046   9.512  0.0139  0.1115  0.1760
  314MOL0     C42293   0.682  11.099   9.434  0.2127  0.0185  0.1865
  314MOL0     C42294   0.548  11.041   9.484 -0.4644  0.4452 -0.4116
  314MOL0     C42295   0.437  11.082   9.395  0.5147 -0.4517 -0.9395
  314MOL0     C42296   0.294  11.025   9.415 -0.6516 -0.2290  0.0540
  314MOL0     C42297   0.250  11.016   9.562 -0.7713 -1.1538  0.2932
  314MOL0     C42298   0.107  10.973   9.582  0.2232  0.4321  0.4731
  314MOL0     C42299   0.042  11.032   9.709 -1.3340 -0.2970 -0.0192
  314MOL0    Cl42300   0.007  11.211   9.689  0.0723 -0.5940 -0.2533
  314MOL0     C42301   0.921  10.712   9.508 -0.3264 -0.4777 -0.0608
  314MOL0     C42302   1.033  10.639   9.546 -0.4511  0.1962 -0.3482
  314MOL0     O42303   1.407  10.747   9.586 -0.4284  0.5172 -0.0279
  314MOL0     C42304   1.433  10.399   9.628  0.2798  0.9445 -0.1467
  314MOL0     C42305   1.516  10.286   9.635  0.6936  0.5447 -0.1469
  314MOL0     N42306   1.926   9.721   9.561 -0.1722 -0.5469 -0.1455
  314MOL0     N42307   2.045   9.778   9.571 -0.0527 -0.0528 -0.3319
  314MOL0     C42308   3.114  10.212   9.488  0.3206 -1.0103 -0.1678
  314MOL0     C42309   3.222  10.223   9.405 -1.0178 -1.1182  0.2315
  314MOL0     C42310   3.534  10.368   9.127  1.4159  0.5867  1.2258
  314MOL0     C42311   3.661  10.432   9.142 -0.0263 -0.3247  0.4499
  314MOL0     C42312   3.736  10.440   9.024 -1.1171 -0.3858  0.3179
  314MOL0     C42313   3.698  10.357   8.905  0.6451 -0.0813 -0.8120
  314MOL0     O42314   3.791  10.344   8.800 -0.0584 -0.5805  0.3372
  314MOL0     C42315   3.900  10.247   8.812  0.0676 -0.3061  0.4202
  314MOL0     C42316   4.032  10.312   8.795  0.1294 -0.3008  0.0431
  314MOL0     C42317   4.070  10.441   8.876 -0.0464 -0.2578 -1.0994
  314MOL0     C42318   4.221  10.470   8.869  0.6002  0.3711 -0.6573
  314MOL0     C42319   4.309  10.370   8.934  0.1873  0.3206  0.8188
  314MOL0     C42320   4.386  10.278   8.964 -0.4157  0.4959  0.0232
  314MOL0     C42321   3.591  10.274   8.912 -0.0916 -0.6267 -0.4247
  314MOL0     C42322   3.503  10.289   9.013  0.5482  0.3920 -0.1448
  314MOL0     H42323   3.085  10.452   9.184  1.1592  2.8258  1.6587
  314MOL0     H42324   2.903  10.438   9.348 -1.9721 -1.6545  0.6996
  314MOL0     H42325   2.859  10.477   9.602  0.4196  0.3074 -1.1033
  314MOL0     H42326   2.739  10.392   9.506  2.4226 -1.0771 -0.9342
  314MOL0     H42327   2.750  10.319   9.804 -0.5041  0.4515  0.5219
  314MOL0     H42328   2.651  10.447   9.743  1.5902  2.0929 -0.3572
  314MOL0     H42329   2.556  10.284   9.576  4.5606  1.4462 -1.8644
  314MOL0     H42330   2.665  10.157   9.633 -0.6898 -0.9996 -0.5689
  314MOL0     H42331   2.563  10.180   9.862  0.5537  1.2566  0.0881
  314MOL0     H42332   2.455  10.311   9.793 -0.7033  0.1804 -3.2622
  314MOL0     H42333   2.355  10.147   9.649  1.3924 -0.1082 -0.0398
  314MOL0     H42334   2.442  10.012   9.715 -1.4799 -1.2783  0.1604
  314MOL0     H42335   2.342  10.048   9.940 -0.0588 -1.8038 -0.3197
  314MOL0     H42336   2.247  10.185   9.896 -1.7097 -0.6699 -0.0334
  314MOL0     H42337   2.091  10.015   9.888 -1.0546 -1.4120 -0.6610
  314MOL0     H42338   2.125  10.063   9.725  1.6376  1.1837  0.1481
  314MOL0     H42339   2.218   9.793   9.849  0.0846  0.1559  0.1267
  314MOL0     H42340   2.261   9.840   9.689 -0.2985  0.1667 -0.3742
  314MOL0     H42341   1.932   9.828   9.871 -1.8253 -1.1900  0.3954
  314MOL0     H42342   1.692   9.622   9.697  0.4401 -0.1056 -0.6512
  314MOL0     H42343   1.714   9.741   9.832  0.1491 -2.1118  0.6186
  314MOL0     H42344   1.544   9.775   9.653 -0.1730 -0.5512 -0.4446
  314MOL0     H42345   1.675   9.808   9.537 -0.6315 -1.7662 -0.0870
  314MOL0     H42346   1.732   9.968   9.776 -0.4162 -0.3192  1.8742
  314MOL0     H42347   1.570  10.001   9.738 -0.4173  0.0954  1.1971
  314MOL0     H42348   1.597  10.073   9.517  1.1402  0.1285 -0.7096
  314MOL0     H42349   1.764  10.019   9.516  0.1399  0.5651 -0.7566
  314MOL0     H42350   1.809  10.442   9.624  0.7172 -1.0550  0.5603
  314MOL0     H42351   1.714  10.685   9.499  0.0011  0.8890 -0.3530
  314MOL0     H42352   1.652  10.763   9.637  2.9944  3.1712 -2.8169
  314MOL0     H42353   1.792  10.663   9.659 -0.7772  1.0485  0.1940
  314MOL0     H42354   1.218  10.873   9.706  1.9139 -2.6476  0.1331
  314MOL0     H42355   1.018  11.007   9.658  1.7502 -0.4888 -1.0345
  314MOL0     H42356   0.781  11.057   9.619  2.2482 -2.3637  1.0253
  314MOL0     H42357   0.898  11.088   9.477 -1.4931  0.5356 -3.8586
  314MOL0     H42358   0.687  11.209   9.436  2.2914  0.0138 -1.0320
  314MOL0     H42359   0.694  11.067   9.330 -0.0466 -0.5390  0.3280
  314MOL0     H42360   0.527  11.058   9.590 -0.4994 -0.5097 -0.2632
  314MOL0     H42361   0.554  10.932   9.481  0.8564  0.4200  1.7139
  314MOL0     H42362   0.434  11.189   9.419  2.9899 -0.4550 -0.3806
  314MOL0     H42363   0.461  11.074   9.289 -0.4932  1.6461 -1.3933
  314MOL0     H42364   0.278  10.926   9.372  0.2123 -0.6122  0.6106
  314MOL0     H42365   0.234  11.098   9.359 -2.5604 -1.3540  0.5325
  314MOL0     H42366   0.312  10.948   9.621 -1.0550  1.4412  3.9357
  314MOL0     H42367   0.266  11.113   9.609  0.0401 -1.9764  1.8204
  314MOL0     H42368   0.116  10.865   9.596  1.8223  0.4593 -0.0831
  314MOL0     H42369   0.037  10.999   9.502 -0.3008 -3.3033 -0.4486
  314MOL0     H42370   0.117  11.029   9.788 -0.1309  0.4574 -1.0933
  314MOL0     H42371  -0.048  10.977   9.739 -2.1091  0.6523 -0.5585
  314MOL0     H42372   0.838  10.667   9.455  0.9840 -0.4144 -2.2594
  314MOL0     H42373   1.047  10.537   9.511 -1.3687  0.2073 -0.7823
  314MOL0     H42374   1.325  10.392   9.624  0.4237 -1.8034 -1.9754
  314MOL0     H42375   1.465  10.190   9.639  0.9698  0.2397 -2.5111
  314MOL0     H42376   3.128  10.157   9.581  0.4474  1.4301  1.3273
  314MOL0     H42377   3.316  10.169   9.416 -0.2495  0.2256  0.4100
  314MOL0     H42378   3.689  10.488   9.231 -1.7281  0.1590  0.7160
  314MOL0     H42379   3.829  10.495   9.025 -0.6939 -1.0636 -0.4860
  314MOL0     H42380   3.902  10.205   8.913  1.1814  0.1852  0.6216
  314MOL0     H42381   3.881  10.167   8.740  0.6484  0.7431 -0.9503
  314MOL0     H42382   4.032  10.349   8.691  0.6057 -3.9424 -1.3886
  314MOL0     H42383   4.105  10.232   8.805  0.9144  0.1205 -1.8197
  314MOL0     H42384   4.036  10.423   8.979  0.8143  3.9427  0.1278
  314MOL0     H42385   4.019  10.530   8.841 -3.0533 -0.5861  1.9206
  314MOL0     H42386   4.227  10.575   8.900 -0.0800 -0.1538  1.3847
  314MOL0     H42387   4.246  10.480   8.763  1.0791  1.2439 -0.4695
  314MOL0     H42388   4.468  10.217   8.995 -1.7419 -0.5840  1.6176
  314MOL0     H42389   3.561  10.211   8.828  0.1840  0.7506 -1.6043
  314MOL0     H42390   3.411  10.233   9.002  0.6101  0.8377 -5.2754
  315MOL0     O42391   8.334  10.386   4.638 -0.3422  0.5617  1.0975
  315MOL0     C42392   8.336  10.384   4.756 -0.7729  1.0211 -1.2026
  315MOL0     O42393   8.250  10.311   4.838 -0.2544 -0.2576  0.9017
  315MOL0     C42394   8.150  10.244   4.766  0.3792 -0.5302  1.2868
  315MOL0     C42395   8.178  10.117   4.729 -0.1522  0.8366  0.0959
  315MOL0     C42396   8.081  10.024   4.680  0.3655 -0.2608 -1.1926
  315MOL0     C42397   7.949  10.072   4.659  0.9183  0.6919 -1.0248
  315MOL0     O42398   7.872   9.995   4.587  0.6541 -0.2070 -0.5245
  315MOL0     C42399   7.783  10.065   4.504 -0.4312 -0.2205  0.3214
  315MOL0     C42400   7.732   9.956   4.407 -0.3975  0.0774 -0.3114
  315MOL0     C42401   7.650   9.845   4.472 -0.1971 -1.2404 -0.0655
  315MOL0     C42402   7.585   9.762   4.374 -0.1752  0.6074  0.1518
  315MOL0     C42403   7.481   9.672   4.446 -0.2771  0.2062 -1.0553
  315MOL0     C42404   7.410   9.589   4.342 -1.2882 -0.1156 -0.0574
  315MOL0     C42405   7.295   9.509   4.390  0.6120  0.0937  0.1304
  315MOL0     C42406   7.331   9.422   4.507 -0.2646  0.0623  0.4402
  315MOL0     N42407   7.400   9.293   4.478 -0.3994 -0.6313 -0.3896
  315MOL0     C42408   7.521   9.277   4.421 -0.7986 -0.4528  0.1574
  315MOL0     C42409   7.545   9.141   4.441 -0.7988 -0.9478 -0.1802
  315MOL0     C42410   7.669   9.056   4.395  0.3938 -0.1764 -0.1942
  315MOL0     C42411   7.797   9.103   4.453 -0.2295  0.0276  0.3263
  315MOL0     C42412   7.821   9.028   4.582 -0.1486  0.3254 -0.5573
  315MOL0     C42413   7.964   9.059   4.623  0.1908 -0.6074  0.6624
  315MOL0     O42414   8.015   8.972   4.725  0.2412 -0.1738  0.4515
  315MOL0     C42415   8.137   9.003   4.776  0.3542  0.5648  0.1917
  315MOL0     C42416   8.157   8.960   4.908  1.1602  0.2691 -0.8769
  315MOL0     C42417   8.273   9.001   4.980 -0.0260  0.7014 -0.5459
  315MOL0     C42418   8.285   8.954   5.132  0.7537 -0.1973  0.4894
  315MOL0     C42419   8.374   9.068   4.906 -0.2477  0.4414  0.0752
  315MOL0     C42420   8.521   9.088   4.942 -0.6017 -0.2465  0.0260
  315MOL0     O42421   8.593   9.173   4.873 -0.4506 -1.1717  0.1046
  315MOL0     C42422   8.731   9.170   4.877 -0.4673  0.8942 -0.5736
  315MOL0     C42423   8.816   9.057   4.896  0.5495 -0.4957 -0.6029
  315MOL0     C42424   8.954   9.063   4.897 -0.5762 -0.1579 -0.3046
  315MOL0     C42425   9.014   9.184   4.862 -0.1568 -0.6692 -0.7533
  315MOL0     O42426   9.153   9.206   4.843  0.2827  0.8314 -0.6574
  315MOL0     C42427   9.228   9.083   4.850 -1.3427  0.4510 -0.1134
  315MOL0     C42428   9.379   9.119   4.839 -0.2555 -0.3656 -1.1315
  315MOL0     C42429   9.456   9.090   4.969 -0.6902 -0.4064  0.5699
  315MOL0     C42430   9.612   9.082   4.964  0.4165  0.3623  0.0513
  315MOL0     C42431   9.679   9.064   5.102 -1.2661  0.1560  0.1744
  315MOL0     C42432   9.826   9.115   5.103 -1.2724 -0.7008 -0.1268
  315MOL0     C42433   9.919   9.071   4.982  0.9375  0.1732 -0.5484
  315MOL0     C42434   9.918   8.913   4.974 -0.3369  0.1088 -0.4952
  315MOL0    Cl42435  10.032   8.864   4.838  0.0903 -0.2772 -0.4747
  315MOL0     C42436   8.936   9.294   4.841  1.3990  1.3924 -1.4512
  315MOL0     C42437   8.796   9.291   4.852 -0.1757 -0.1374  0.5545
  315MOL0     O42438   8.559   9.036   5.044  1.1410 -0.3707 -0.5419
  315MOL0     C42439   8.344   9.120   4.784  0.6890 -0.2383 -0.1557
  315MOL0     C42440   8.226   9.089   4.715 -0.8596 -0.0537 -0.3740
  315MOL0     N42441   7.438   9.083   4.502  0.4483  0.4804 -0.6447
  315MOL0     N42442   7.358   9.175   4.525 -0.1535  0.7256  0.7644
  315MOL0     C42443   7.920  10.202   4.703  0.1353  0.1251  0.6919
  315MOL0     C42444   8.019  10.289   4.753 -0.1792 -0.0890 -0.3049
  315MOL0     C42445   8.447  10.462   4.819 -0.1683 -0.6038  0.0878
  315MOL0     C42446   8.551  10.515   4.736 -0.8568 -1.4264  0.4160
  315MOL0     C42447   8.649  10.595   4.790 -0.1926  0.6919 -0.2052
  315MOL0     C42448   8.657  10.618   4.926 -0.6206  0.8392  0.0916
  315MOL0     O42449   8.751  10.695   4.978 -1.0966 -0.7133  0.2055
  315MOL0     C42450   8.812  10.811   4.908  0.7713  0.5418 -0.5123
  315MOL0     C42451   8.943  10.769   4.840 -0.2886  0.1311 -0.1115
  315MOL0     C42452   9.002  10.866   4.731 -0.5537  0.9963 -0.2664
  315MOL0     C42453   9.106  10.957   4.797  0.4046 -0.0498  0.1768
  315MOL0     C42454   9.037  11.056   4.885 -0.0126  0.5515  0.2851
  315MOL0     C42455   8.977  11.124   4.967  0.0024 -1.2139 -0.2642
  315MOL0     C42456   8.562  10.562   5.005 -0.0616  0.4917 -0.8394
  315MOL0     C42457   8.463  10.480   4.960 -0.5643  0.0824  0.2936
  315MOL0     H42458   8.281  10.083   4.725 -0.1009  1.0555 -0.7121
  315MOL0     H42459   8.101   9.925   4.641 -1.1869 -0.7473 -0.8230
  315MOL0     H42460   7.698  10.112   4.554 -1.4065 -1.5813  0.0057
  315MOL0     H42461   7.825  10.140   4.435 -0.6776 -2.1322 -2.0612
  315MOL0     H42462   7.670  10.010   4.334 -2.6570 -0.7927  0.8665
  315MOL0     H42463   7.816   9.906   4.359  2.1499  1.5883  2.2389
  315MOL0     H42464   7.707   9.783   4.543  0.8482 -0.8890 -0.5758
  315MOL0     H42465   7.577   9.890   4.539  2.6728  1.1596  1.7259
  315MOL0     H42466   7.544   9.813   4.287  1.8467 -0.1195 -1.3270
  315MOL0     H42467   7.657   9.690   4.333 -2.3468 -2.4241  1.3162
  315MOL0     H42468   7.541   9.607   4.510  2.0401  1.9820 -1.2840
  315MOL0     H42469   7.420   9.734   4.512  1.1913 -1.1900  1.7600
  315MOL0     H42470   7.369   9.665   4.275  1.0636  1.0883 -0.2165
  315MOL0     H42471   7.471   9.520   4.283 -0.5284  1.2846 -0.9543
  315MOL0     H42472   7.211   9.569   4.423 -0.9843 -3.4196  3.1848
  315MOL0     H42473   7.248   9.452   4.309 -1.4215  0.9168  0.6782
  315MOL0     H42474   7.236   9.400   4.556 -0.6338  2.6902  1.0523
  315MOL0     H42475   7.399   9.475   4.575  0.6328  0.4252 -0.6975
  315MOL0     H42476   7.589   9.352   4.383  2.6852 -3.4883 -0.1523
  315MOL0     H42477   7.647   8.955   4.430 -1.6905 -0.5360 -2.3261
  315MOL0     H42478   7.684   9.048   4.287  2.0729  2.6565 -0.2661
  315MOL0     H42479   7.784   9.211   4.463  1.5300  0.5939 -2.4517
  315MOL0     H42480   7.878   9.071   4.387 -0.3249 -2.4052  1.3016
  315MOL0     H42481   7.806   8.921   4.564 -2.4597  0.2185  1.5544
  315MOL0     H42482   7.753   9.054   4.664 -3.8334  0.4637 -3.3606
  315MOL0     H42483   7.994   9.163   4.638 -0.3359 -0.3566  0.0261
  315MOL0     H42484   8.025   9.039   4.535 -2.9728  1.2995 -2.2271
  315MOL0     H42485   8.092   8.899   4.969  3.0456 -0.8546  0.0997
  315MOL0     H42486   8.335   8.858   5.144 -1.7747 -1.3722  2.5519
  315MOL0     H42487   8.347   9.030   5.180  0.5092  0.2830  0.0513
  315MOL0     H42488   8.190   8.949   5.186 -0.2179 -1.6317 -1.2557
  315MOL0     H42489   8.757   8.967   4.911  1.3244 -0.7222  1.3451
  315MOL0     H42490   9.011   8.974   4.920  0.9836  0.3668 -1.9390
  315MOL0     H42491   9.217   9.031   4.945 -3.7619  2.2540  0.6832
  315MOL0     H42492   9.199   9.002   4.783  1.2893 -0.8965  0.2136
  315MOL0     H42493   9.412   9.062   4.752  0.7810 -1.8444  0.1772
  315MOL0     H42494   9.380   9.223   4.806 -1.7390  0.1576  0.3135
  315MOL0     H42495   9.429   8.993   5.014 -1.4897 -0.1717  0.6104
  315MOL0     H42496   9.415   9.166   5.036 -1.8677  0.7670 -1.4290
  315MOL0     H42497   9.626   9.003   4.889 -2.5029  0.4030 -0.6447
  315MOL0     H42498   9.661   9.168   4.918  0.1915  0.6384  0.3313
  315MOL0     H42499   9.684   8.960   5.134 -2.4762 -0.0069 -0.0988
  315MOL0     H42500   9.628   9.127   5.175 -1.3638  1.9350 -1.3574
  315MOL0     H42501   9.818   9.223   5.091 -4.0730 -0.9852 -1.7090
  315MOL0     H42502   9.868   9.113   5.204 -1.4319  3.1882  0.1540
  315MOL0     H42503  10.020   9.107   5.005  0.2782  0.4454  2.3521
  315MOL0     H42504   9.888   9.100   4.882  1.2257 -2.8699 -1.6419
  315MOL0     H42505   9.814   8.885   4.954 -0.4323  1.5826 -2.2853
  315MOL0     H42506   9.957   8.868   5.066  0.0650 -0.6011 -1.0024
  315MOL0     H42507   8.972   9.395   4.826  0.7223  2.2202  1.6285
  315MOL0     H42508   8.725   9.372   4.839 -1.0157 -0.8526  0.6453
  315MOL0     H42509   8.416   9.175   4.725  1.0874 -0.4565  0.1282
  315MOL0     H42510   8.229   9.134   4.616 -1.8102  0.3936 -0.2154
  315MOL0     H42511   7.828  10.257   4.686  0.8841  1.3444  0.5447
  315MOL0     H42512   7.986  10.386   4.788 -2.2730 -1.9369  3.4987
  315MOL0     H42513   8.554  10.488   4.630  3.1146 -1.9516  0.4829
  315MOL0     H42514   8.709  10.641   4.712  2.5025 -1.3980  0.4906
  315MOL0     H42515   8.733  10.844   4.840  0.0725  2.6602  1.2404
  315MOL0     H42516   8.834  10.892   4.978 -0.5470  1.3416 -0.9933
  315MOL0     H42517   8.932  10.667   4.800  4.1895  0.7379 -3.7447
  315MOL0     H42518   9.017  10.744   4.918 -0.6187 -1.8636 -0.3659
  315MOL0     H42519   8.925  10.927   4.682 -0.2888  0.3636 -1.5288
  315MOL0     H42520   9.052  10.806   4.654 -0.9969 -0.0176  0.2219
  315MOL0     H42521   9.150  11.026   4.725 -0.8191  0.7792  0.1867
  315MOL0     H42522   9.187  10.900   4.844  1.3191  3.3040  3.0150
  315MOL0     H42523   8.932  11.188   5.041 -2.1342 -0.4319 -2.0914
  315MOL0     H42524   8.586  10.577   5.110  1.3230 -0.0130 -1.0497
  315MOL0     H42525   8.391  10.430   5.024 -0.2941  0.9278  1.2882
  316MOL0     O42526   9.442   2.997   5.914 -0.0429  0.0079  0.1593
  316MOL0     C42527   9.321   3.012   5.891  0.0006 -0.0037  0.1462
  316MOL0     O42528   9.212   2.935   5.944 -0.2416 -0.7142  0.5177
  316MOL0     C42529   9.252   2.861   6.050  0.0685  0.1609  0.0761
  316MOL0     C42530   9.207   2.882   6.184  0.8420  0.4808 -0.0647
  316MOL0     C42531   9.257   2.808   6.291  0.0325  0.1664 -0.0869
  316MOL0     C42532   9.341   2.700   6.270  0.2706  0.8869  0.2122
  316MOL0     O42533   9.393   2.645   6.387  0.3946 -1.1517  0.3063
  316MOL0     C42534   9.428   2.503   6.393 -0.1057  0.1029 -0.0409
  316MOL0     C42535   9.569   2.476   6.429 -0.4297  0.5163 -0.0904
  316MOL0     C42536   9.686   2.552   6.353 -0.1696  0.0590 -0.1233
  316MOL0     C42537   9.830   2.520   6.412  0.0103  0.2790 -0.3133
  316MOL0     C42538   9.958   2.588   6.356 -0.1347  0.2169 -0.5817
  316MOL0     C42539   9.965   2.588   6.206 -1.0224 -0.6185  0.2353
  316MOL0     C42540  10.117   2.612   6.157 -1.0783 -0.2189 -0.3765
  316MOL0     C42541  10.202   2.481   6.146  0.3708  0.2736  0.4091
  316MOL0     N42542  10.299   2.465   6.253 -0.0807 -0.4185  1.1819
  316MOL0     C42543  10.427   2.400   6.239  1.4764  0.3665  0.8526
  316MOL0     C42544  10.489   2.422   6.359 -0.5809 -0.4286 -0.7759
  316MOL0     C42545  10.621   2.344   6.386 -0.1531  0.2869 -0.1616
  316MOL0     C42546  10.741   2.436   6.383 -0.5848 -0.4238 -0.9604
  316MOL0     C42547  10.856   2.368   6.464  0.3069 -0.0566 -1.1043
  316MOL0     C42548  10.984   2.378   6.397 -0.2411 -0.5849 -0.2122
  316MOL0     O42549  11.057   2.275   6.467  0.2191  0.5078  0.6757
  316MOL0     C42550  11.181   2.302   6.524  0.1185  0.8406 -0.0133
  316MOL0     C42551  11.264   2.409   6.487 -0.4735  0.8276 -0.4604
  316MOL0     C42552  11.399   2.426   6.535  0.7373 -0.2707 -0.1216
  316MOL0     C42553  11.473   2.551   6.487  0.7526 -0.0545  0.1748
  316MOL0     C42554  11.450   2.342   6.637  0.0045  0.0817  0.0738
  316MOL0     C42555  11.591   2.338   6.677 -0.3323  0.7352  0.2211
  316MOL0     O42556  11.624   2.286   6.800 -0.3318  0.6458 -0.0401
  316MOL0     C42557  11.739   2.206   6.809 -0.7457 -0.9263 -0.3006
  316MOL0     C42558  11.868   2.268   6.808 -0.2681 -0.2460 -1.0275
  316MOL0     C42559  11.974   2.180   6.821  0.7116  0.3277 -0.0118
  316MOL0     C42560  11.960   2.042   6.843 -0.0038 -0.9929  1.5582
  316MOL0     O42561  12.057   1.950   6.852 -0.7835  0.3270 -0.0515
  316MOL0     C42562  12.188   2.001   6.821  0.1389 -0.5786 -0.7342
  316MOL0     C42563  12.203   2.018   6.668  0.0094  0.9220 -0.7420
  316MOL0     C42564  12.171   1.886   6.595  0.7706  0.1745 -0.1380
  316MOL0     C42565  12.214   1.886   6.449 -0.0884  0.1427  0.3714
  316MOL0     C42566  12.149   1.773   6.375 -0.1959  1.0526 -0.3545
  316MOL0     C42567  12.206   1.752   6.234 -0.1688  0.3218 -0.5680
  316MOL0     C42568  12.181   1.876   6.151 -0.7311  0.1224  0.3649
  316MOL0     C42569  12.191   1.828   6.001  0.6840 -0.5521 -0.1507
  316MOL0    Cl42570  12.053   1.708   5.965 -0.6705 -0.0261  0.0856
  316MOL0     C42571  11.837   1.987   6.830  0.3350 -0.0293  0.5696
  316MOL0     C42572  11.721   2.071   6.815  0.2974  0.0300  0.5985
  316MOL0     O42573  11.680   2.369   6.594  0.4723  0.4295  0.3184
  316MOL0     C42574  11.366   2.243   6.684  0.1930 -0.7629  0.3797
  316MOL0     C42575  11.241   2.226   6.621  0.0532  0.4371 -0.4803
  316MOL0     N42576  10.414   2.507   6.435  1.0868 -0.0202  0.4388
  316MOL0     N42577  10.304   2.545   6.365  0.6293 -0.4337  0.3602
  316MOL0     C42578   9.379   2.672   6.138 -0.8695 -0.1493  0.2801
  316MOL0     C42579   9.328   2.745   6.033  0.4765  0.3465 -0.9544
  316MOL0     C42580   9.302   3.138   5.818  0.0356  0.1096  0.4831
  316MOL0     C42581   9.192   3.219   5.833  0.4076 -0.6658 -0.6078
  316MOL0     C42582   9.188   3.342   5.765 -0.3706 -0.9428 -0.3520
  316MOL0     C42583   9.280   3.380   5.669  1.1627 -0.0926  0.1741
  316MOL0     O42584   9.266   3.508   5.610  0.3094  0.3221  0.5138
  316MOL0     C42585   9.381   3.575   5.548  0.4664  0.1168 -0.7591
  316MOL0     C42586   9.483   3.594   5.669  0.8832  0.1736  0.0385
  316MOL0     C42587   9.597   3.688   5.626  0.3555 -0.5828 -0.1613
  316MOL0     C42588   9.663   3.766   5.752 -0.5980  0.1444 -0.0815
  316MOL0     C42589   9.719   3.680   5.858  0.2841 -0.0809  0.4008
  316MOL0     C42590   9.770   3.592   5.918 -0.3489 -0.6501 -0.2449
  316MOL0     C42591   9.379   3.288   5.641 -0.3303  0.5202 -0.4459
  316MOL0     C42592   9.399   3.174   5.719  0.0951 -0.0179  0.5039
  316MOL0     H42593   9.143   2.960   6.223  0.8195 -1.0997  3.5200
  316MOL0     H42594   9.218   2.829   6.391  0.7443  1.0583  0.0146
  316MOL0     H42595   9.357   2.458   6.463 -2.6479  2.9603 -0.5707
  316MOL0     H42596   9.410   2.465   6.293 -1.9837  0.8356 -0.0168
  316MOL0     H42597   9.571   2.523   6.528 -2.0320  1.6529 -0.5619
  316MOL0     H42598   9.578   2.368   6.444  1.1591  0.0767 -3.3452
  316MOL0     H42599   9.697   2.527   6.248 -1.0097 -1.3797  0.1112
  316MOL0     H42600   9.666   2.660   6.357  0.1277  0.1431 -0.7849
  316MOL0     H42601   9.821   2.538   6.519 -0.3647 -0.0831 -0.2814
  316MOL0     H42602   9.850   2.412   6.406 -1.8957 -0.3056  2.2870
  316MOL0     H42603   9.956   2.689   6.398 -1.0004  0.5582 -1.4113
  316MOL0     H42604  10.030   2.529   6.413  0.4835 -0.2436 -1.8221
  316MOL0     H42605   9.933   2.497   6.155 -1.8813  0.3050 -0.9559
  316MOL0     H42606   9.906   2.667   6.157 -1.6748 -1.9512 -1.2305
  316MOL0     H42607  10.103   2.669   6.065  1.6619  1.5001  0.1498
  316MOL0     H42608  10.174   2.690   6.210  2.2097 -0.3528 -3.3914
  316MOL0     H42609  10.261   2.496   6.055 -1.2409 -2.1894 -1.1776
  316MOL0     H42610  10.133   2.397   6.134 -0.8817  1.5203 -2.0671
  316MOL0     H42611  10.453   2.357   6.143  1.4186  1.5668  0.2739
  316MOL0     H42612  10.608   2.294   6.482 -4.3764  1.7953  0.2281
  316MOL0     H42613  10.627   2.264   6.311 -3.1091 -0.5492  0.3558
  316MOL0     H42614  10.726   2.535   6.427  0.0507  0.1594 -2.0189
  316MOL0     H42615  10.768   2.448   6.278  1.0301  1.8189 -0.3753
  316MOL0     H42616  10.822   2.265   6.476 -0.3713  0.5070  3.2297
  316MOL0     H42617  10.867   2.407   6.565  0.5144 -0.7328 -0.8650
  316MOL0     H42618  11.031   2.475   6.409  3.4214 -2.0354 -1.5386
  316MOL0     H42619  11.000   2.347   6.293  1.4437 -0.0427 -0.1464
  316MOL0     H42620  11.221   2.479   6.416 -0.3821 -0.4302 -1.8306
  316MOL0     H42621  11.538   2.591   6.565  1.5127  0.8037 -0.8736
  316MOL0     H42622  11.524   2.537   6.391  2.8190 -2.5722  1.5542
  316MOL0     H42623  11.403   2.635   6.479 -0.5703 -1.2759 -4.1050
  316MOL0     H42624  11.878   2.373   6.786 -0.9038  0.6534  2.4326
  316MOL0     H42625  12.076   2.216   6.815  1.8148 -1.4957  4.1100
  316MOL0     H42626  12.217   2.097   6.866 -0.2257  0.4825 -2.6554
  316MOL0     H42627  12.262   1.928   6.855  0.1574 -1.2421 -2.1360
  316MOL0     H42628  12.138   2.099   6.632 -1.5653  0.2269  0.4201
  316MOL0     H42629  12.302   2.045   6.631  0.6845 -2.3112 -1.5327
  316MOL0     H42630  12.062   1.873   6.597  0.9241 -1.1865  0.6024
  316MOL0     H42631  12.218   1.801   6.644  4.5813  0.6513 -2.4947
  316MOL0     H42632  12.189   1.977   6.395  0.4748 -0.0674 -0.2541
  316MOL0     H42633  12.323   1.880   6.445 -0.1434 -1.2124  0.4020
  316MOL0     H42634  12.043   1.793   6.357 -0.3265  1.2708  0.5816
  316MOL0     H42635  12.164   1.677   6.426  1.6474  1.1656 -0.6116
  316MOL0     H42636  12.312   1.728   6.242 -0.7697 -2.8696 -0.6933
  316MOL0     H42637  12.157   1.662   6.195  2.4067 -0.8951 -1.2147
  316MOL0     H42638  12.252   1.957   6.171 -1.9639  1.2479  0.3334
  316MOL0     H42639  12.078   1.908   6.168 -0.8640 -1.6109  3.4574
  316MOL0     H42640  12.295   1.800   5.980  0.8879  1.1533 -1.6194
  316MOL0     H42641  12.182   1.918   5.940  1.8638  1.2553  2.1550
  316MOL0     H42642  11.818   1.880   6.823 -1.0068  0.3110 -2.5063
  316MOL0     H42643  11.622   2.026   6.809  0.0530  0.3812  1.7579
  316MOL0     H42644  11.384   2.174   6.766  3.9579  0.8248  1.0901
  316MOL0     H42645  11.179   2.146   6.658 -0.0402 -0.9347 -3.3574
  316MOL0     H42646   9.450   2.592   6.124  1.5092  1.6888  1.1035
  316MOL0     H42647   9.364   2.726   5.932 -0.4165 -0.6028 -1.1118
  316MOL0     H42648   9.123   3.211   5.916  2.1029  0.8569  1.0327
  316MOL0     H42649   9.109   3.413   5.788 -0.1353 -0.7114 -0.2434
  316MOL0     H42650   9.437   3.521   5.471  0.1061 -2.7643  0.8611
  316MOL0     H42651   9.339   3.669   5.510 -1.3549 -0.0632  0.6597
  316MOL0     H42652   9.515   3.504   5.722  1.5523 -0.3664 -1.2240
  316MOL0     H42653   9.418   3.649   5.737 -2.2364  0.0890 -2.6098
  316MOL0     H42654   9.555   3.772   5.570  1.6657  0.2921  0.1414
  316MOL0     H42655   9.675   3.641   5.565  2.8589  0.3737  2.1284
  316MOL0     H42656   9.594   3.842   5.788  0.7100  1.2442  0.1758
  316MOL0     H42657   9.738   3.820   5.693 -3.1874  1.8742 -2.0268
  316MOL0     H42658   9.822   3.533   5.991  0.0880  2.9725  2.7424
  316MOL0     H42659   9.459   3.300   5.568  0.3393  0.5823  0.2897
  316MOL0     H42660   9.482   3.107   5.701 -0.2680 -0.4650  0.4911
  317MOL0     O42661   8.648   2.538   4.053  0.5158 -0.2490  0.4868
  317MOL0     C42662   8.616   2.595   4.161 -0.3014 -0.2006  0.5436
  317MOL0     O42663   8.604   2.734   4.179 -0.0914  0.4082  0.6220
  317MOL0     C42664   8.659   2.795   4.067 -0.3487  0.0276 -0.4269
  317MOL0     C42665   8.608   2.795   3.939 -0.4415  0.1358  0.6473
  317MOL0     C42666   8.675   2.864   3.833  0.1637 -0.1331 -1.1853
  317MOL0     C42667   8.774   2.964   3.854  1.1504 -0.1212  0.3482
  317MOL0     O42668   8.841   3.037   3.760 -0.6906 -0.1961 -0.6794
  317MOL0     C42669   8.761   3.155   3.722  0.1382 -0.1964 -0.2975
  317MOL0     C42670   8.633   3.109   3.657 -0.5016 -0.4370  0.5607
  317MOL0     C42671   8.570   3.225   3.580  0.2475 -0.8157 -0.6629
  317MOL0     C42672   8.499   3.329   3.677  0.2354 -0.0599 -0.4475
  317MOL0     C42673   8.463   3.465   3.622 -0.4404 -1.4401  0.3418
  317MOL0     C42674   8.384   3.479   3.489 -0.0323 -0.2238  0.5398
  317MOL0     C42675   8.328   3.619   3.471  0.7463  0.0147  0.0461
  317MOL0     C42676   8.256   3.636   3.345 -1.5640  0.2722  0.4235
  317MOL0     N42677   8.147   3.549   3.315 -0.7571  0.2572  0.4312
  317MOL0     C42678   8.017   3.544   3.365  0.8174 -0.7423  1.0768
  317MOL0     C42679   7.954   3.463   3.278  0.8199 -0.2962 -0.1070
  317MOL0     C42680   7.808   3.411   3.292 -0.1074 -0.6040 -0.1796
  317MOL0     C42681   7.689   3.507   3.252 -0.8310  0.0866 -0.0760
  317MOL0     C42682   7.555   3.446   3.244  0.3935 -0.1106 -1.2312
  317MOL0     C42683   7.485   3.452   3.383 -0.6857 -0.6731 -0.0567
  317MOL0     O42684   7.439   3.581   3.422 -0.5100  0.5001 -0.4132
  317MOL0     C42685   7.373   3.585   3.548 -0.2838  0.0286 -0.3826
  317MOL0     C42686   7.335   3.467   3.626 -0.3176 -0.8383  0.0676
  317MOL0     C42687   7.249   3.484   3.739 -0.6509 -0.2185 -0.5751
  317MOL0     C42688   7.218   3.367   3.827  0.2977 -0.8742  0.4693
  317MOL0     C42689   7.208   3.614   3.780 -0.4769  0.3530  0.6499
  317MOL0     C42690   7.106   3.642   3.881 -1.3810  0.7086 -0.7673
  317MOL0     O42691   7.150   3.681   4.004 -0.2541 -0.8864 -0.2545
  317MOL0     C42692   7.058   3.720   4.099 -0.1971  0.2258 -0.4299
  317MOL0     C42693   7.029   3.637   4.208 -0.1621 -0.0153  0.0053
  317MOL0     C42694   6.949   3.685   4.310  0.3149  0.6875  0.1828
  317MOL0     C42695   6.905   3.821   4.312  0.2250  1.2406 -0.4158
  317MOL0     O42696   6.839   3.893   4.409 -0.0146 -0.4216  0.1157
  317MOL0     C42697   6.751   3.822   4.495  0.3635 -0.0925 -0.0716
  317MOL0     C42698   6.616   3.788   4.437 -0.2474 -0.7034 -1.1267
  317MOL0     C42699   6.545   3.918   4.371 -0.0712  0.1897  0.1739
  317MOL0     C42700   6.441   3.896   4.265 -0.8584  0.3871 -0.5134
  317MOL0     C42701   6.414   4.022   4.171 -0.4639 -0.7443 -0.7768
  317MOL0     C42702   6.290   4.008   4.085 -0.2806  0.4710 -0.2287
  317MOL0     C42703   6.320   3.903   3.971 -1.0009 -0.5607 -0.5227
  317MOL0     C42704   6.239   3.926   3.838 -0.6138 -0.3889  0.0386
  317MOL0    Cl42705   6.280   4.087   3.789  0.0112 -0.0892  0.0451
  317MOL0     C42706   6.947   3.897   4.201  0.0404  0.0892 -0.4739
  317MOL0     C42707   7.010   3.846   4.093 -0.5397  0.2973  0.3421
  317MOL0     O42708   6.997   3.634   3.848 -0.2498  0.4745 -0.5586
  317MOL0     C42709   7.247   3.726   3.700 -0.2469 -0.4812  0.6925
  317MOL0     C42710   7.328   3.714   3.586 -0.6433 -0.1695  1.5157
  317MOL0     N42711   8.040   3.408   3.182  0.3303  0.9750 -0.4636
  317MOL0     N42712   8.154   3.461   3.210  0.5621  0.6626  0.1463
  317MOL0     C42713   8.814   2.975   3.980  0.2982  1.1946 -0.1605
  317MOL0     C42714   8.757   2.892   4.084  0.4814 -0.5173 -0.0845
  317MOL0     C42715   8.580   2.518   4.288  0.3409  0.5403  0.4304
  317MOL0     C42716   8.639   2.392   4.305 -0.1643  0.4180  0.0382
  317MOL0     C42717   8.617   2.316   4.426 -0.2180 -0.6257 -0.1534
  317MOL0     C42718   8.554   2.371   4.534  0.5726  0.0782  0.0561
  317MOL0     O42719   8.557   2.297   4.651 -0.1648 -0.1397  0.5496
  317MOL0     C42720   8.487   2.362   4.762 -0.4426  0.0711  1.4366
  317MOL0     C42721   8.473   2.265   4.887  0.7136  1.0933 -0.2568
  317MOL0     C42722   8.592   2.288   4.985  0.0989 -0.3599  1.5412
  317MOL0     C42723   8.580   2.209   5.110  0.2145 -0.6917 -0.6580
  317MOL0     C42724   8.605   2.066   5.082  0.7830  0.6701 -0.6647
  317MOL0     C42725   8.620   1.949   5.063 -0.2354  0.3734 -0.6711
  317MOL0     C42726   8.497   2.499   4.514 -0.5468 -0.4894  0.0828
  317MOL0     C42727   8.510   2.574   4.396 -0.0694 -0.1161  0.7896
  317MOL0     H42728   8.524   2.732   3.913  0.2665 -1.0399  1.1383
  317MOL0     H42729   8.639   2.846   3.732  1.0557 -1.0420 -1.3571
  317MOL0     H42730   8.754   3.227   3.803 -0.2992 -1.4484  0.8168
  317MOL0     H42731   8.817   3.203   3.641  2.6568 -3.2098 -0.5396
  317MOL0     H42732   8.667   3.035   3.584  2.2810 -2.4402  3.6192
  317MOL0     H42733   8.565   3.051   3.720 -0.0408 -0.3835  1.1164
  317MOL0     H42734   8.634   3.296   3.527 -1.2707  1.4978  0.4314
  317MOL0     H42735   8.513   3.184   3.495  2.1015 -1.2980 -1.7198
  317MOL0     H42736   8.407   3.275   3.702  1.1230 -1.0856  0.7559
  317MOL0     H42737   8.555   3.344   3.770  0.5298  0.3344 -0.6833
  317MOL0     H42738   8.406   3.528   3.691 -4.8322  1.4832 -5.1327
  317MOL0     H42739   8.565   3.501   3.601 -1.3630  1.5180  0.4486
  317MOL0     H42740   8.447   3.453   3.404  1.0078  3.9238 -0.1679
  317MOL0     H42741   8.305   3.404   3.493  2.1699 -2.7097  0.3689
  317MOL0     H42742   8.248   3.640   3.542  1.9244 -0.3631  1.5214
  317MOL0     H42743   8.414   3.687   3.476  1.1985 -0.6014  0.7107
  317MOL0     H42744   8.331   3.620   3.267  0.7424 -1.7166  2.8610
  317MOL0     H42745   8.212   3.736   3.339 -1.9944  0.1223  1.0192
  317MOL0     H42746   7.981   3.600   3.451 -3.6463  1.4135 -1.8078
  317MOL0     H42747   7.807   3.319   3.232 -1.0965 -2.4990  2.4857
  317MOL0     H42748   7.780   3.381   3.394  0.0367  1.0817  0.3888
  317MOL0     H42749   7.714   3.550   3.155  0.8061 -1.0700 -0.2091
  317MOL0     H42750   7.705   3.587   3.325 -2.9598  0.4031  0.1106
  317MOL0     H42751   7.562   3.342   3.209 -0.1665 -0.6134  0.0727
  317MOL0     H42752   7.496   3.509   3.177 -5.0057  3.3812  5.5799
  317MOL0     H42753   7.558   3.411   3.452  1.3532  0.1253 -1.6240
  317MOL0     H42754   7.393   3.393   3.369 -1.7367  1.2928 -2.1130
  317MOL0     H42755   7.375   3.369   3.600 -0.1604 -0.7902  0.1234
  317MOL0     H42756   7.240   3.276   3.771 -0.7835  0.6098 -2.6141
  317MOL0     H42757   7.295   3.368   3.904  3.1294  5.5277 -1.7353
  317MOL0     H42758   7.117   3.364   3.870  0.2750  0.0270  0.4911
  317MOL0     H42759   7.074   3.539   4.216 -0.2283 -0.0570 -0.1232
  317MOL0     H42760   6.933   3.625   4.400 -4.0911  2.3003  0.7090
  317MOL0     H42761   6.799   3.740   4.548  1.1609 -0.7860 -1.7918
  317MOL0     H42762   6.735   3.891   4.579 -1.2486 -0.1206 -0.3101
  317MOL0     H42763   6.644   3.716   4.360 -1.4528 -1.1054 -1.2035
  317MOL0     H42764   6.553   3.731   4.506  0.0373 -0.9001 -1.0283
  317MOL0     H42765   6.621   3.980   4.323  0.2940  0.4007  1.0024
  317MOL0     H42766   6.512   3.974   4.459  0.5931  0.5543  0.1995
  317MOL0     H42767   6.478   3.819   4.197 -4.0306  1.4539 -3.7325
  317MOL0     H42768   6.350   3.862   4.314 -1.0272 -1.0641 -1.7921
  317MOL0     H42769   6.502   4.054   4.113 -0.0345  1.4057  0.9140
  317MOL0     H42770   6.405   4.107   4.240 -2.0424  0.4017 -2.2940
  317MOL0     H42771   6.204   3.960   4.133 -1.3345 -0.3975 -2.8245
  317MOL0     H42772   6.271   4.109   4.048  1.3314  1.6930  2.0104
  317MOL0     H42773   6.296   3.809   4.022 -1.3518  0.5953  1.5486
  317MOL0     H42774   6.427   3.911   3.951 -0.1739  3.5144  3.7763
  317MOL0     H42775   6.130   3.929   3.854 -0.4351  0.7158  1.2261
  317MOL0     H42776   6.267   3.852   3.763  4.8337  0.3240  0.9681
  317MOL0     H42777   6.911   4.000   4.192 -1.4798 -0.3573  0.0593
  317MOL0     H42778   7.041   3.917   4.017 -0.5976 -1.2516 -1.1672
  317MOL0     H42779   7.216   3.830   3.711  1.5116  0.1460  0.1117
  317MOL0     H42780   7.349   3.797   3.519  1.0544 -0.9508  1.0280
  317MOL0     H42781   8.870   3.065   4.001  0.1519  1.5921 -1.3978
  317MOL0     H42782   8.801   2.904   4.182 -0.4306 -0.5847  0.3486
  317MOL0     H42783   8.696   2.350   4.224  1.1125 -0.9547  1.5771
  317MOL0     H42784   8.635   2.209   4.428 -1.9167 -0.9658 -1.1139
  317MOL0     H42785   8.542   2.456   4.773 -1.6826  0.9139  0.6294
  317MOL0     H42786   8.388   2.393   4.729 -0.0398 -1.1057 -1.0821
  317MOL0     H42787   8.472   2.163   4.847  2.3195  0.6132  0.8493
  317MOL0     H42788   8.378   2.279   4.940 -0.0286 -2.0071 -0.5304
  317MOL0     H42789   8.588   2.393   5.014  1.0059  0.4837 -1.1386
  317MOL0     H42790   8.685   2.277   4.929 -1.0849 -0.3220 -0.5208
  317MOL0     H42791   8.487   2.218   5.167 -0.4677 -1.8439 -1.5509
  317MOL0     H42792   8.657   2.247   5.177 -0.4071  0.3551 -0.5212
  317MOL0     H42793   8.637   1.844   5.052  0.4182  0.2500  1.2656
  317MOL0     H42794   8.438   2.540   4.595  1.6345  1.0743  0.9735
  317MOL0     H42795   8.454   2.667   4.402  0.6386  0.4214 -0.5295
  318MOL0     O42796   3.631   6.161  10.858 -0.3688  0.7679  0.9327
  318MOL0     C42797   3.588   6.126  10.969 -1.0604  0.6639 -0.3155
  318MOL0     O42798   3.624   6.181  11.086  0.0653  1.4954 -0.2619
  318MOL0     C42799   3.716   6.277  11.087  0.0441 -0.8157  0.1554
  318MOL0     C42800   3.684   6.406  11.035  0.1719  0.3466  0.0668
  318MOL0     C42801   3.780   6.512  11.035  0.3609 -0.7335 -0.0894
  318MOL0     C42802   3.914   6.491  11.065 -0.3025  0.1845  0.5380
  318MOL0     O42803   4.010   6.577  11.054 -0.3982  0.0472 -0.6145
  318MOL0     C42804   4.020   6.673  10.947 -0.6834  0.1302  0.6482
  318MOL0     C42805   4.137   6.775  10.963 -0.7249 -0.3829 -0.3695
  318MOL0     C42806   4.158   6.857  10.834  0.7263 -0.7172  1.0245
  318MOL0     C42807   4.280   6.947  10.843  0.2507  0.1925 -0.7177
  318MOL0     C42808   4.299   7.036  10.715  0.2171  0.6610  0.1480
  318MOL0     C42809   4.203   7.146  10.697 -0.4224  0.0250  0.3312
  318MOL0     C42810   4.235   7.214  10.557  0.3154  0.0183 -0.0970
  318MOL0     C42811   4.376   7.274  10.548  0.0808  0.0561  1.0873
  318MOL0     N42812   4.382   7.386  10.632  0.0035  0.3372 -0.7048
  318MOL0     C42813   4.307   7.500  10.620  0.1982  0.3640 -0.4041
  318MOL0     C42814   4.340   7.575  10.725 -0.2531 -0.7337  0.2594
  318MOL0     C42815   4.295   7.723  10.759 -0.6138 -0.1135  0.9501
  318MOL0     C42816   4.222   7.724  10.901  0.5874  0.8344  0.7707
  318MOL0     C42817   4.220   7.859  10.964  0.0032  0.2284  0.0499
  318MOL0     C42818   4.121   7.952  10.899  0.7534 -0.1113 -0.0177
  318MOL0     O42819   3.992   7.886  10.870  0.4074  0.4516 -0.3172
  318MOL0     C42820   3.906   7.956  10.789 -0.2849 -0.6474  0.2068
  318MOL0     C42821   3.800   7.880  10.718  0.1531 -0.3818  0.0372
  318MOL0     C42822   3.699   7.956  10.644 -1.0833 -0.3271 -0.6197
  318MOL0     C42823   3.588   7.873  10.583  0.1335 -1.2649 -0.0798
  318MOL0     C42824   3.699   8.095  10.636 -0.2350  1.0909 -0.7348
  318MOL0     C42825   3.607   8.178  10.559  0.2559 -0.1917  0.2194
  318MOL0     O42826   3.557   8.127  10.438 -0.4250 -0.1100  0.0481
  318MOL0     C42827   3.475   8.215  10.366 -0.0427 -0.1285  0.4383
  318MOL0     C42828   3.344   8.235  10.404 -0.6102 -0.7310  0.1971
  318MOL0     C42829   3.267   8.325  10.331 -0.7916  0.2740  0.0450
  318MOL0     C42830   3.317   8.399  10.222  0.4399 -0.0002 -0.6362
  318MOL0     O42831   3.239   8.488  10.149  0.0439 -0.7831  0.0539
  318MOL0     C42832   3.102   8.453  10.115  0.4550 -0.5097  0.1746
  318MOL0     C42833   3.013   8.557  10.168 -0.1142 -0.0716  0.5614
  318MOL0     C42834   2.857   8.545  10.141 -0.0676  0.2918 -0.1321
  318MOL0     C42835   2.815   8.637  10.029 -1.4973  0.4599 -0.0407
  318MOL0     C42836   2.667   8.626   9.977 -0.3512  0.2545 -0.6191
  318MOL0     C42837   2.652   8.695   9.840  0.9341 -0.6255 -0.2578
  318MOL0     C42838   2.506   8.742   9.820  0.1348  0.5704 -0.1915
  318MOL0     C42839   2.422   8.644   9.737  0.0095  0.0733  1.2941
  318MOL0    Cl42840   2.475   8.681   9.565  0.1832  0.0840 -0.2405
  318MOL0     C42841   3.446   8.374  10.183  0.9826 -0.5859  0.5231
  318MOL0     C42842   3.529   8.284  10.246  0.3017  0.4806  0.3674
  318MOL0     O42843   3.585   8.294  10.592  0.1490 -0.4923  0.2073
  318MOL0     C42844   3.804   8.163  10.703  0.1131 -0.3332 -0.2089
  318MOL0     C42845   3.891   8.098  10.785 -0.7578  0.8747  0.4484
  318MOL0     N42846   4.447   7.510  10.793 -0.1824 -0.0382  0.4042
  318MOL0     N42847   4.466   7.394  10.737 -0.2182  0.0531 -0.7222
  318MOL0     C42848   3.949   6.362  11.107  0.0536  0.6545  1.1748
  318MOL0     C42849   3.847   6.261  11.129 -0.1631 -0.1364  0.2148
  318MOL0     C42850   3.482   6.024  10.963 -0.0955 -0.3142 -0.2848
  318MOL0     C42851   3.413   5.996  11.078  0.4717  0.5403  0.2836
  318MOL0     C42852   3.318   5.892  11.078 -0.5857  0.5295  0.2503
  318MOL0     C42853   3.276   5.818  10.967  0.2154 -0.6714  0.3112
  318MOL0     O42854   3.174   5.720  10.976 -0.8667  0.0075  0.2496
  318MOL0     C42855   3.044   5.751  10.913 -0.1093 -0.7584 -0.1631
  318MOL0     C42856   3.002   5.643  10.809  0.2339 -0.4833  0.5496
  318MOL0     C42857   3.091   5.616  10.688 -0.4180  0.4712  0.2249
  318MOL0     C42858   3.090   5.732  10.593 -0.0070 -0.4212 -0.3395
  318MOL0     C42859   3.218   5.734  10.511  0.4134 -0.0061  0.9264
  318MOL0     C42860   3.323   5.736  10.442 -0.0980  0.0029  0.4288
  318MOL0     C42861   3.341   5.855  10.844 -0.7468  0.6764 -0.4180
  318MOL0     C42862   3.445   5.957  10.840  0.7088  0.2450 -0.9219
  318MOL0     H42863   3.578   6.425  11.024 -0.0280 -1.0556 -0.7517
  318MOL0     H42864   3.736   6.608  11.007  0.9837 -0.4776 -0.2004
  318MOL0     H42865   4.008   6.630  10.847  1.9696  0.0417  0.3092
  318MOL0     H42866   3.939   6.744  10.968 -1.2529 -0.7982  1.6607
  318MOL0     H42867   4.120   6.847  11.044  0.8858 -2.1718  1.6942
  318MOL0     H42868   4.228   6.722  10.990 -0.4269 -1.3661 -3.0099
  318MOL0     H42869   4.154   6.801  10.739 -0.6356 -0.6736  1.0330
  318MOL0     H42870   4.069   6.920  10.844  0.4870 -1.2958  2.8945
  318MOL0     H42871   4.282   7.000  10.939 -0.5096  2.5413 -1.8964
  318MOL0     H42872   4.366   6.879  10.844  0.0913 -0.3408  4.5939
  318MOL0     H42873   4.391   7.095  10.712  1.3824 -1.1253 -1.3830
  318MOL0     H42874   4.302   6.971  10.627 -1.2542 -1.1355  1.3496
  318MOL0     H42875   4.100   7.113  10.707 -0.0922 -0.3119  3.5304
  318MOL0     H42876   4.212   7.219  10.778 -2.7311 -0.9971  1.5977
  318MOL0     H42877   4.213   7.155  10.467  0.2233  1.4501 -1.0428
  318MOL0     H42878   4.163   7.295  10.544 -4.0979 -3.5680 -0.2511
  318MOL0     H42879   4.375   7.318  10.448 -0.4335 -2.6173 -0.1714
  318MOL0     H42880   4.455   7.199  10.558  0.6892  0.7327  1.5274
  318MOL0     H42881   4.241   7.515  10.535  0.9087 -0.6517 -1.1567
  318MOL0     H42882   4.382   7.789  10.753 -0.3324 -0.4670  1.0915
  318MOL0     H42883   4.221   7.767  10.691  0.5905  1.2515  0.4853
  318MOL0     H42884   4.283   7.663  10.967  1.7027 -1.1918 -1.9180
  318MOL0     H42885   4.120   7.685  10.894  0.9687 -0.7503  3.0871
  318MOL0     H42886   4.324   7.893  10.960 -0.6412  2.7015  1.7536
  318MOL0     H42887   4.193   7.851  11.070 -2.3383  1.6933 -0.3798
  318MOL0     H42888   4.161   8.005  10.811  1.1879  0.1916  0.3582
  318MOL0     H42889   4.103   8.031  10.973  1.6760  0.0182  0.0808
  318MOL0     H42890   3.794   7.772  10.728  0.1392 -0.2224  2.2582
  318MOL0     H42891   3.566   7.798  10.659 -2.9810  0.8646  1.3454
  318MOL0     H42892   3.495   7.930  10.567  0.4131 -0.2335  1.6698
  318MOL0     H42893   3.611   7.825  10.488 -0.1696  1.2584 -1.5257
  318MOL0     H42894   3.300   8.168  10.476 -1.1803 -2.2017 -1.4406
  318MOL0     H42895   3.161   8.334  10.352 -0.4915 -1.0936  2.4609
  318MOL0     H42896   3.096   8.437  10.007  1.8485  0.3784 -0.0651
  318MOL0     H42897   3.081   8.354  10.156 -0.3261 -0.3939  0.0695
  318MOL0     H42898   3.038   8.579  10.272  1.9635 -0.6093  0.2257
  318MOL0     H42899   3.047   8.649  10.121 -0.4832  0.3400  1.0829
  318MOL0     H42900   2.804   8.570  10.233  1.7410  1.3903  0.6545
  318MOL0     H42901   2.828   8.444  10.110 -1.0345  0.4914  0.0933
  318MOL0     H42902   2.836   8.738  10.066 -1.3073  0.5835 -0.4734
  318MOL0     H42903   2.881   8.600   9.951  0.1143  1.8763  0.5777
  318MOL0     H42904   2.608   8.683  10.049 -1.9255  0.9068 -2.3558
  318MOL0     H42905   2.627   8.524   9.984 -0.5058  0.2419 -1.5890
  318MOL0     H42906   2.726   8.776   9.845  1.4500 -1.0202 -1.1000
  318MOL0     H42907   2.682   8.627   9.759 -0.7041 -0.9850 -0.5972
  318MOL0     H42908   2.511   8.840   9.772  2.0145  0.8478  0.4705
  318MOL0     H42909   2.464   8.769   9.917  1.2340  2.7243 -0.2643
  318MOL0     H42910   2.315   8.664   9.749  0.5591  2.5366  2.7356
  318MOL0     H42911   2.444   8.542   9.770  1.2054 -0.7759 -1.7574
  318MOL0     H42912   3.477   8.417  10.088  0.9725 -1.8609 -0.0733
  318MOL0     H42913   3.630   8.267  10.209  0.4904  0.8286  0.7123
  318MOL0     H42914   3.815   8.270  10.689 -0.4602 -0.6414 -4.3119
  318MOL0     H42915   3.961   8.160  10.840  0.2680 -0.2335  0.4272
  318MOL0     H42916   4.052   6.335  11.128  1.1792 -0.3680 -4.2490
  318MOL0     H42917   3.885   6.162  11.153  2.3191  0.3899 -1.2201
  318MOL0     H42918   3.432   6.047  11.172 -2.3198 -0.4282  1.5015
  318MOL0     H42919   3.270   5.849  11.165  0.0015 -0.3851  0.1367
  318MOL0     H42920   2.970   5.776  10.989 -1.6719  1.9626 -2.3821
  318MOL0     H42921   3.058   5.853  10.876  1.9147 -0.3059  1.6679
  318MOL0     H42922   2.905   5.666  10.763  1.3137 -1.1563 -2.3070
  318MOL0     H42923   2.996   5.554  10.872  0.3181 -1.6385 -1.0074
  318MOL0     H42924   3.057   5.525  10.638 -0.6311 -0.5524  2.1512
  318MOL0     H42925   3.190   5.598  10.731 -1.3457 -0.3093  2.1344
  318MOL0     H42926   3.081   5.828  10.645  1.3021  0.5822 -1.8424
  318MOL0     H42927   3.003   5.726  10.527 -1.1761 -1.2146  1.2293
  318MOL0     H42928   3.409   5.745  10.379 -0.3664  2.3179  0.3235
  318MOL0     H42929   3.310   5.807  10.751  0.2921  0.2877 -0.5763
  318MOL0     H42930   3.479   5.987  10.741  1.5035 -0.4693 -0.8824
  319MOL0     O42931   8.931   9.980   3.595  0.2141 -0.0867  0.5174
  319MOL0     C42932   8.834   9.961   3.666  0.2915 -0.2548 -1.3551
  319MOL0     O42933   8.745  10.053   3.715  0.0340  0.5117 -0.2379
  319MOL0     C42934   8.771  10.183   3.716  0.3608 -0.8482 -0.5693
  319MOL0     C42935   8.767  10.259   3.599  0.4719 -0.9719  0.1848
  319MOL0     C42936   8.781  10.395   3.603  0.7015  0.2346  0.7050
  319MOL0     C42937   8.795  10.463   3.729  0.4642 -0.1753 -0.2687
  319MOL0     O42938   8.817  10.599   3.745 -0.5283 -0.5039 -0.0401
  319MOL0     C42939   8.866  10.677   3.639  0.2041 -0.6337  0.2408
  319MOL0     C42940   8.815  10.822   3.668  0.1305  0.1817  1.2139
  319MOL0     C42941   8.925  10.923   3.622 -0.1678  0.3674  1.0060
  319MOL0     C42942   8.958  10.917   3.472 -0.4712 -0.2354  0.0188
  319MOL0     C42943   9.017  11.051   3.442 -0.0344 -0.0913  0.3496
  319MOL0     C42944   9.105  11.045   3.318 -0.1190 -0.2068 -0.1262
  319MOL0     C42945   9.148  11.197   3.274  0.1850  0.5526 -0.3858
  319MOL0     C42946   9.240  11.182   3.157  0.2746 -0.0033  0.2306
  319MOL0     N42947   9.175  11.213   3.022  0.0502 -0.2959  1.1560
  319MOL0     C42948   9.137  11.133   2.924  0.1858 -0.2621  0.4466
  319MOL0     C42949   9.053  11.215   2.849 -0.1398  0.1661  0.9145
  319MOL0     C42950   8.981  11.164   2.732  0.5179  0.0220  0.8276
  319MOL0     C42951   8.842  11.220   2.715  0.9150 -0.6899 -0.7156
  319MOL0     C42952   8.740  11.180   2.829  0.2854  0.4859  0.3650
  319MOL0     C42953   8.771  11.267   2.954  0.6844  0.1897  0.1691
  319MOL0     O42954   8.659  11.250   3.033  0.7503  0.2657 -0.4502
  319MOL0     C42955   8.632  11.136   3.111  0.0436 -0.1333  0.2698
  319MOL0     C42956   8.502  11.110   3.170 -0.5179 -0.5257  1.2975
  319MOL0     C42957   8.472  11.004   3.257  1.2865 -0.7198  0.2889
  319MOL0     C42958   8.335  11.006   3.334  0.7637 -0.5180  0.4648
  319MOL0     C42959   8.570  10.906   3.279 -0.6057 -0.2668  0.2613
  319MOL0     C42960   8.555  10.773   3.355 -0.1900 -0.1901  0.7500
  319MOL0     O42961   8.434  10.757   3.406 -0.5319  0.8219 -0.9046
  319MOL0     C42962   8.402  10.640   3.478  0.4141  0.2425  1.1936
  319MOL0     C42963   8.264  10.603   3.483  0.5735 -0.5180  1.1134
  319MOL0     C42964   8.219  10.491   3.555  0.1308 -0.5165 -0.2077
  319MOL0     C42965   8.313  10.411   3.638  0.3605 -1.5402 -0.4590
  319MOL0     O42966   8.280  10.308   3.721 -0.4918 -0.6779  0.5792
  319MOL0     C42967   8.138  10.283   3.746 -0.2368  0.0723 -0.1868
  319MOL0     C42968   8.105  10.175   3.845  0.2480 -0.5292 -0.2227
  319MOL0     C42969   8.131  10.031   3.786 -0.0963 -0.1116 -0.1154
  319MOL0     C42970   8.008   9.986   3.716 -0.9403  0.2680 -0.4877
  319MOL0     C42971   8.024   9.838   3.663 -0.0477  0.2875  0.6156
  319MOL0     C42972   8.095   9.820   3.526 -0.7114  0.9572  0.0093
  319MOL0     C42973   7.995   9.779   3.408  0.3912 -0.4997  0.5241
  319MOL0     C42974   8.063   9.733   3.276 -0.0800 -0.8385 -0.0996
  319MOL0    Cl42975   8.127   9.566   3.280 -0.7813  0.0159 -0.7036
  319MOL0     C42976   8.441  10.456   3.634  0.7706 -0.3875  0.3008
  319MOL0     C42977   8.481  10.566   3.556 -0.3408 -0.5839 -1.1904
  319MOL0     O42978   8.651  10.694   3.355 -0.1079 -0.2531 -0.4095
  319MOL0     C42979   8.693  10.922   3.209  0.1072 -0.1347  0.2364
  319MOL0     C42980   8.723  11.036   3.125 -0.0481  0.2335 -0.0260
  319MOL0     N42981   9.070  11.352   2.886  0.0376  0.9008  0.4272
  319MOL0     N42982   9.143  11.344   2.993 -0.1791 -0.0502  0.1630
  319MOL0     C42983   8.798  10.389   3.840  0.6025  0.1300 -0.3424
  319MOL0     C42984   8.791  10.254   3.843 -0.5854 -0.7617 -0.1510
  319MOL0     C42985   8.820   9.821   3.722 -0.4577  0.1636 -1.0659
  319MOL0     C42986   8.773   9.787   3.854  0.2296  0.3024  0.4282
  319MOL0     C42987   8.759   9.654   3.885  0.1246  0.4289  0.3472
  319MOL0     C42988   8.798   9.555   3.792 -0.3955  0.7452  0.2415
  319MOL0     O42989   8.794   9.420   3.822  0.1543 -0.1462  0.1090
  319MOL0     C42990   8.689   9.370   3.909  1.0223 -0.1468 -0.1675
  319MOL0     C42991   8.719   9.231   3.952 -0.3507  0.1897  0.4609
  319MOL0     C42992   8.723   9.152   3.815 -0.4494  0.1463 -0.7099
  319MOL0     C42993   8.738   9.005   3.846 -0.5338  0.1126  0.1736
  319MOL0     C42994   8.869   8.969   3.892  0.3319 -0.3232 -0.4284
  319MOL0     C42995   8.980   8.936   3.937  0.0740  1.2277 -0.8296
  319MOL0     C42996   8.839   9.588   3.662 -0.9892  0.2762  0.5215
  319MOL0     C42997   8.850   9.719   3.633 -0.0687 -0.1137 -0.2132
  319MOL0     H42998   8.745  10.216   3.502  0.1190 -0.6128  0.1045
  319MOL0     H42999   8.758  10.458   3.518  1.7687 -0.1965  0.0848
  319MOL0     H43000   8.974  10.678   3.654  0.2565 -2.9890  0.3784
  319MOL0     H43001   8.835  10.633   3.543 -0.4601 -0.8970  0.5688
  319MOL0     H43002   8.729  10.843   3.603  1.3744  2.1690  0.0908
  319MOL0     H43003   8.782  10.836   3.771  0.2777 -0.9769  1.4274
  319MOL0     H43004   8.894  11.019   3.665  4.6188  1.7609  2.0437
  319MOL0     H43005   9.016  10.895   3.676  0.4084 -2.1500 -1.1034
  319MOL0     H43006   9.022  10.831   3.450  0.5053  0.7015 -0.9426
  319MOL0     H43007   8.863  10.904   3.420 -2.2423  0.6104  2.8026
  319MOL0     H43008   8.926  11.110   3.427 -0.0640  0.2333  1.6507
  319MOL0     H43009   9.085  11.090   3.519 -0.2847 -1.0367  1.0744
  319MOL0     H43010   9.190  10.979   3.335  0.0995  0.1548  0.1887
  319MOL0     H43011   9.050  11.001   3.235  1.4361 -1.1454 -0.6812
  319MOL0     H43012   9.060  11.254   3.243  0.4462  0.2951 -1.6245
  319MOL0     H43013   9.205  11.246   3.353  3.0233 -0.8680 -1.4175
  319MOL0     H43014   9.277  11.080   3.142  0.7113  0.1277  0.3993
  319MOL0     H43015   9.329  11.243   3.175  1.4306 -1.7172  0.5441
  319MOL0     H43016   9.139  11.025   2.913  1.6047 -0.1172 -1.0325
  319MOL0     H43017   9.049  11.186   2.648 -1.4344  1.2711 -0.5041
  319MOL0     H43018   8.983  11.056   2.748  0.6546 -0.4210 -1.6706
  319MOL0     H43019   8.812  11.174   2.620  0.1015  0.1166 -0.8649
  319MOL0     H43020   8.859  11.328   2.711  2.5041 -0.8010  1.4727
  319MOL0     H43021   8.746  11.073   2.851  0.5392 -0.1288 -2.3091
  319MOL0     H43022   8.640  11.190   2.785 -0.3735 -4.2124  0.2601
  319MOL0     H43023   8.766  11.375   2.933 -3.9189 -0.0849 -1.1963
  319MOL0     H43024   8.859  11.234   3.010 -0.4101  3.1741  4.1230
  319MOL0     H43025   8.425  11.186   3.162  1.5963  1.5614 -1.3964
  319MOL0     H43026   8.286  11.103   3.328  0.7937 -0.2484  3.3974
  319MOL0     H43027   8.264  10.929   3.305 -1.4818  1.4622  0.4306
  319MOL0     H43028   8.364  10.990   3.438 -0.2611 -2.7768  0.4459
  319MOL0     H43029   8.197  10.654   3.414  0.1474 -0.5494  1.5004
  319MOL0     H43030   8.112  10.472   3.565  0.5460 -2.9913  0.1873
  319MOL0     H43031   8.097  10.378   3.782  1.8642  0.8829  0.2112
  319MOL0     H43032   8.081  10.256   3.657  0.9910 -0.3820 -0.8512
  319MOL0     H43033   8.164  10.190   3.937 -0.3694  1.3256 -0.0762
  319MOL0     H43034   8.003  10.194   3.877 -0.0824 -2.5975  0.0553
  319MOL0     H43035   8.153   9.970   3.874  2.0430  2.4764  1.2812
  319MOL0     H43036   8.214  10.028   3.715  1.0092  0.0340  1.1286
  319MOL0     H43037   7.927   9.992   3.790 -1.4340  1.6604 -1.1019
  319MOL0     H43038   7.980  10.062   3.643  0.9523 -0.1609 -1.7123
  319MOL0     H43039   7.922   9.801   3.670 -0.4307  1.5247  2.7511
  319MOL0     H43040   8.094   9.777   3.721  2.6991 -0.8338 -3.4612
  319MOL0     H43041   8.136   9.915   3.489  0.8055  0.3623  0.0564
  319MOL0     H43042   8.175   9.746   3.530 -2.9270 -1.4961  1.4846
  319MOL0     H43043   7.939   9.870   3.383  1.1618  0.1713  1.1750
  319MOL0     H43044   7.923   9.704   3.440  0.3173 -0.7181 -0.1424
  319MOL0     H43045   8.138   9.803   3.237 -1.5204 -0.9696 -3.4638
  319MOL0     H43046   7.980   9.741   3.206 -1.7383 -0.5717  1.7904
  319MOL0     H43047   8.508  10.407   3.704 -0.6501 -0.3741  1.7267
  319MOL0     H43048   8.584  10.598   3.567 -0.4582 -0.1471 -1.3320
  319MOL0     H43049   8.754  10.835   3.225 -1.1186 -0.5675  3.2598
  319MOL0     H43050   8.822  11.039   3.079 -0.7525  0.4860 -1.5781
  319MOL0     H43051   8.809  10.437   3.937  1.5107  2.6448 -1.5813
  319MOL0     H43052   8.778  10.208   3.940  0.7159  0.7277  0.7897
  319MOL0     H43053   8.745   9.865   3.924 -0.7467  1.3840 -1.1001
  319MOL0     H43054   8.719   9.628   3.983  2.0711  0.1479  1.1114
  319MOL0     H43055   8.682   9.431   3.999 -1.4727  1.1179 -1.1098
  319MOL0     H43056   8.593   9.383   3.859  1.6678  3.6338 -0.6623
  319MOL0     H43057   8.652   9.187   4.028 -0.9582  1.3458  0.6187
  319MOL0     H43058   8.820   9.225   3.994  0.2358 -1.1753 -1.0664
  319MOL0     H43059   8.810   9.192   3.761 -1.1983  0.2528 -1.8798
  319MOL0     H43060   8.633   9.177   3.758 -0.9742 -3.1674 -1.4926
  319MOL0     H43061   8.725   8.947   3.755 -0.3747  1.2237 -0.5746
  319MOL0     H43062   8.655   8.976   3.911  2.0041  0.5296  3.9309
  319MOL0     H43063   9.062   8.894   3.990  0.5293  2.0050 -0.9047
  319MOL0     H43064   8.859   9.508   3.591 -3.3642  1.1080 -1.2378
  319MOL0     H43065   8.889   9.751   3.537 -0.7983  1.4663 -0.0120
  320MOL0     O43066  10.546  11.423   4.339  0.0823 -0.0010  0.1026
  320MOL0     C43067  10.507  11.343   4.259 -0.2197 -0.0764  0.2130
  320MOL0     O43068  10.561  11.219   4.222  0.0555  0.1907 -0.4302
  320MOL0     C43069  10.679  11.173   4.285  0.1087 -0.5797 -0.3216
  320MOL0     C43070  10.779  11.149   4.202  0.2568 -0.9038  0.4458
  320MOL0     C43071  10.900  11.115   4.255  0.0975  0.3714 -0.7974
  320MOL0     C43072  10.924  11.076   4.396  0.4686  0.3910  0.4905
  320MOL0     O43073  11.038  11.009   4.441  0.9487 -0.3897  0.7387
  320MOL0     C43074  11.035  10.917   4.554  0.7375  0.4178 -0.3024
  320MOL0     C43075  11.015  10.781   4.476  0.3971 -0.4922  0.3301
  320MOL0     C43076  10.878  10.763   4.404 -0.2163  0.3411  0.9249
  320MOL0     C43077  10.822  10.616   4.412  0.1961 -0.3888 -0.2579
  320MOL0     C43078  10.722  10.604   4.303  0.0858  1.2858  1.0434
  320MOL0     C43079  10.655  10.463   4.303  0.5259 -0.3390 -1.4452
  320MOL0     C43080  10.551  10.454   4.415  0.4473  0.9622  0.1909
  320MOL0     C43081  10.431  10.350   4.395 -0.8243  0.4792 -0.2641
  320MOL0     N43082  10.457  10.258   4.289  0.0250 -0.2883  0.2449
  320MOL0     C43083  10.549  10.160   4.276 -0.1163 -0.2230 -0.0175
  320MOL0     C43084  10.512  10.081   4.167  0.4066 -0.3098 -0.8094
  320MOL0     C43085  10.580   9.958   4.124  0.0403  0.1251  0.7011
  320MOL0     C43086  10.476   9.844   4.120 -0.5924 -0.2968 -0.2445
  320MOL0     C43087  10.473   9.765   4.256  0.4365 -0.1265 -1.5082
  320MOL0     C43088  10.426   9.850   4.383  0.5523  0.4245 -0.0480
  320MOL0     O43089  10.534   9.893   4.454 -0.3441 -0.1748  0.4169
  320MOL0     C43090  10.514   9.909   4.592  0.6501 -0.5492 -0.9046
  320MOL0     C43091  10.497   9.790   4.677 -0.2392  0.7731 -0.7045
  320MOL0     C43092  10.456   9.796   4.808 -0.2323 -0.2387 -0.4287
  320MOL0     C43093  10.440   9.662   4.885 -0.3977 -0.4307 -0.1879
  320MOL0     C43094  10.404   9.911   4.854 -0.2812 -0.5221 -0.3145
  320MOL0     C43095  10.329   9.926   4.985 -0.3535 -0.7570  1.4230
  320MOL0     O43096  10.273   9.816   5.033  0.1888 -0.0650  0.6272
  320MOL0     C43097  10.244   9.822   5.163 -0.2576  0.6068  0.1817
  320MOL0     C43098  10.319   9.747   5.262 -0.0619  0.3752 -0.3151
  320MOL0     C43099  10.281   9.735   5.397  0.4804 -0.1897 -0.4310
  320MOL0     C43100  10.175   9.815   5.444  0.2560 -0.5689 -0.4941
  320MOL0     O43101  10.122   9.811   5.569  0.1617  0.4869 -0.1715
  320MOL0     C43102  10.166   9.718   5.681 -1.3800 -0.4996  1.3219
  320MOL0     C43103  10.082   9.720   5.807  0.4991  0.1711  0.2712
  320MOL0     C43104  10.089   9.867   5.868  1.1548  0.5102  0.6466
  320MOL0     C43105   9.997   9.971   5.820  0.5999  0.2263  0.4550
  320MOL0     C43106   9.997  10.094   5.907 -0.7392  0.7802  0.2299
  320MOL0     C43107   9.882  10.184   5.883 -0.1034 -1.0889 -0.6168
  320MOL0     C43108   9.760  10.184   5.978 -0.9321  0.2434 -0.2869
  320MOL0     C43109   9.697  10.046   5.971 -0.4548  1.2773  0.1755
  320MOL0    Cl43110   9.535  10.076   6.061  0.0760 -0.0011 -0.1637
  320MOL0     C43111  10.106   9.890   5.338  0.5005 -0.8813  0.1607
  320MOL0     C43112  10.135   9.884   5.203  0.0642  0.1646  1.3105
  320MOL0     O43113  10.357  10.026   5.058  0.3561  0.0285 -0.7065
  320MOL0     C43114  10.411  10.028   4.780 -0.7365 -0.6636  0.0058
  320MOL0     C43115  10.476  10.022   4.653 -0.7320 -1.3405 -0.0979
  320MOL0     N43116  10.405  10.142   4.120 -0.1534 -0.3149  0.1675
  320MOL0     N43117  10.386  10.248   4.185 -0.5489 -0.3988 -0.1188
  320MOL0     C43118  10.813  11.103   4.480  0.9740 -0.1810 -0.1644
  320MOL0     C43119  10.693  11.151   4.424  0.2535  0.9135  0.0916
  320MOL0     C43120  10.396  11.393   4.177 -0.4361  0.0197  0.2219
  320MOL0     C43121  10.317  11.495   4.226  0.1567  0.2982  0.3126
  320MOL0     C43122  10.202  11.545   4.155  0.2464 -0.0550 -0.1764
  320MOL0     C43123  10.165  11.490   4.030 -0.3783 -0.3538  0.0753
  320MOL0     O43124  10.068  11.557   3.954 -0.0115  0.1174 -0.2950
  320MOL0     C43125  10.072  11.519   3.818 -0.2441  0.7147 -0.1602
  320MOL0     C43126   9.973  11.393   3.788  0.5305  0.4254  0.3356
  320MOL0     C43127   9.985  11.353   3.641  1.3962  0.8219 -0.1430
  320MOL0     C43128   9.951  11.203   3.638 -0.1646  0.1218 -0.2903
  320MOL0     C43129   9.969  11.133   3.515  0.6797 -0.0563  0.1023
  320MOL0     C43130   9.949  11.078   3.408  0.4656 -0.7803  0.5136
  320MOL0     C43131  10.242  11.383   3.989  0.1370  0.6679 -0.0334
  320MOL0     C43132  10.351  11.335   4.061 -0.6800 -1.0685 -0.2259
  320MOL0     H43133  10.760  11.167   4.097  0.5762 -0.9718  0.3760
  320MOL0     H43134  10.986  11.116   4.189  0.9334 -2.5109  0.1134
  320MOL0     H43135  11.132  10.910   4.604  0.7354 -0.9806 -0.4518
  320MOL0     H43136  10.953  10.925   4.626  2.6055 -3.7461  2.6668
  320MOL0     H43137  11.099  10.784   4.405 -0.0838  0.7197 -0.2020
  320MOL0     H43138  11.029  10.695   4.543 -0.9400  0.1776  1.5139
  320MOL0     H43139  10.801  10.832   4.440  0.9930  1.7498  0.8890
  320MOL0     H43140  10.896  10.799   4.303  2.9663  0.9451  1.6092
  320MOL0     H43141  10.899  10.539   4.400 -2.1268 -2.6629 -1.7521
  320MOL0     H43142  10.775  10.597   4.509  1.1064 -0.9933  0.0819
  320MOL0     H43143  10.659  10.693   4.303  2.0841  2.7783  1.7161
  320MOL0     H43144  10.778  10.612   4.209 -4.7115 -2.8975 -2.7387
  320MOL0     H43145  10.616  10.444   4.203 -2.3392  0.2973 -0.5336
  320MOL0     H43146  10.737  10.393   4.322  1.2754  0.5794 -1.1442
  320MOL0     H43147  10.621  10.433   4.496  0.2547 -1.8420 -0.2853
  320MOL0     H43148  10.512  10.554   4.438  5.0540  3.2496 -0.6563
  320MOL0     H43149  10.337  10.400   4.372 -1.6741  0.6036  3.0816
  320MOL0     H43150  10.421  10.305   4.494  3.4548  0.9967  0.6253
  320MOL0     H43151  10.627  10.140   4.348  0.2941  0.2022 -0.3406
  320MOL0     H43152  10.628   9.976   4.028 -3.7230  0.5651 -1.3165
  320MOL0     H43153  10.658   9.938   4.198  2.5830 -0.4219 -1.9679
  320MOL0     H43154  10.512   9.776   4.042 -0.0467  0.9400 -1.1134
  320MOL0     H43155  10.372   9.863   4.089 -1.0544 -1.5179  0.4895
  320MOL0     H43156  10.580   9.749   4.273  0.0849 -0.2054  1.0894
  320MOL0     H43157  10.421   9.669   4.256  2.6808 -1.4039 -1.1264
  320MOL0     H43158  10.358   9.787   4.440  0.5316 -0.5798 -1.1464
  320MOL0     H43159  10.367   9.939   4.361  0.2762  0.8246  2.1291
  320MOL0     H43160  10.511   9.692   4.632 -3.5369 -0.2600  0.2485
  320MOL0     H43161  10.507   9.588   4.840  1.7453  1.3320 -0.0648
  320MOL0     H43162  10.467   9.682   4.989 -0.8868  0.9310 -0.3070
  320MOL0     H43163  10.341   9.615   4.884 -0.5344 -0.2661  1.8397
  320MOL0     H43164  10.412   9.700   5.233  0.1745  1.1114 -0.7867
  320MOL0     H43165  10.330   9.676   5.474  1.7665  0.1352 -0.9601
  320MOL0     H43166  10.179   9.617   5.641 -1.2809  0.0347 -0.0454
  320MOL0     H43167  10.266   9.745   5.718 -2.2822  1.2351  2.6513
  320MOL0     H43168   9.982   9.679   5.794 -0.0673  0.2240  3.6511
  320MOL0     H43169  10.128   9.644   5.871  3.3099 -1.9670 -3.7671
  320MOL0     H43170  10.190   9.906   5.860  1.2244  0.2697  0.3637
  320MOL0     H43171  10.076   9.860   5.977  2.2257  0.9952  0.8164
  320MOL0     H43172  10.025   9.991   5.716 -1.4918  1.4180  0.0617
  320MOL0     H43173   9.896   9.930   5.814  0.8133 -0.1150 -1.3590
  320MOL0     H43174  10.094  10.141   5.886  0.8679 -1.2131  2.6894
  320MOL0     H43175  10.010  10.061   6.010  1.9798 -1.7204 -0.7829
  320MOL0     H43176   9.922  10.285   5.875 -1.0062 -0.8526 -2.8846
  320MOL0     H43177   9.837  10.158   5.787  0.0143 -4.8305  0.1683
  320MOL0     H43178   9.695  10.269   5.959  0.8905  1.8707  0.3797
  320MOL0     H43179   9.814  10.205   6.072 -1.1275  3.2325 -0.7537
  320MOL0     H43180   9.749   9.968   6.027 -0.4618  0.1430 -1.3449
  320MOL0     H43181   9.684  10.013   5.867 -2.7642 -1.6992  1.2600
  320MOL0     H43182  10.015   9.942   5.364 -0.5495 -1.7695 -1.5610
  320MOL0     H43183  10.060   9.939   5.149 -1.7727 -1.0982  2.4622
  320MOL0     H43184  10.373  10.122   4.818  0.0640 -1.8602  4.3421
  320MOL0     H43185  10.498  10.112   4.596 -0.0871 -0.6651  1.1600
  320MOL0     H43186  10.823  11.073   4.583 -3.0647 -3.4426 -0.4527
  320MOL0     H43187  10.614  11.185   4.491  0.4382  1.4733  0.0337
  320MOL0     H43188  10.335  11.538   4.324 -0.3008 -0.5782  0.8004
  320MOL0     H43189  10.139  11.621   4.200  0.4808 -0.2023  0.4143
  320MOL0     H43190  10.039  11.610   3.766  0.8842  1.5448  0.5062
  320MOL0     H43191  10.168  11.495   3.772 -0.8218 -0.6139 -0.7130
  320MOL0     H43192   9.871  11.423   3.813  0.7405  1.6021 -0.1712
  320MOL0     H43193   9.988  11.311   3.859  0.0270 -2.1352 -2.3155
  320MOL0     H43194  10.088  11.353   3.604  0.9388 -0.9484 -1.5803
  320MOL0     H43195   9.908  11.398   3.578  1.5456  0.2389 -0.7672
  320MOL0     H43196   9.850  11.187   3.676 -1.4732  2.5613 -2.4942
  320MOL0     H43197  10.019  11.158   3.711 -3.6009 -0.9834  2.5048
  320MOL0     H43198   9.932  11.033   3.312 -0.2923 -0.6477  0.5868
  320MOL0     H43199  10.227  11.329   3.896  2.6853 -2.7111  1.2747
  320MOL0     H43200  10.405  11.252   4.016 -0.2205 -0.6773 -0.4032
  321MOL0     O43201   5.708   9.731   4.193  0.7362 -0.2407  0.2932
  321MOL0     C43202   5.709   9.636   4.119 -0.4880 -1.1156  0.4769
  321MOL0     O43203   5.771   9.513   4.141  0.0612  0.6039 -0.2372
  321MOL0     C43204   5.806   9.484   4.265 -0.1274  0.8158 -0.6667
  321MOL0     C43205   5.926   9.416   4.279  0.5049  0.3099  0.8260
  321MOL0     C43206   5.967   9.375   4.405 -0.1108  0.4318  0.4266
  321MOL0     C43207   5.896   9.413   4.522  0.0054  1.2224 -0.2790
  321MOL0     O43208   5.945   9.393   4.646  0.3691  0.8617 -0.2821
  321MOL0     C43209   6.069   9.459   4.678  0.8152 -0.3534  0.2808
  321MOL0     C43210   6.056   9.587   4.755 -0.0281 -0.7125  0.0474
  321MOL0     C43211   6.194   9.637   4.788  0.0395 -0.1845  0.3575
  321MOL0     C43212   6.202   9.738   4.902  0.1276  0.2040  0.1937
  321MOL0     C43213   6.347   9.748   4.943 -0.0928 -0.1433 -0.0375
  321MOL0     C43214   6.387   9.840   5.057  0.3312  0.1030  0.5308
  321MOL0     C43215   6.528   9.795   5.111  0.2789  0.1613 -0.2296
  321MOL0     C43216   6.548   9.871   5.240 -0.2317 -0.3377  0.1270
  321MOL0     N43217   6.606   9.784   5.345 -0.6153 -0.1395  0.0151
  321MOL0     C43218   6.725   9.721   5.329  0.3679 -0.5437  0.1374
  321MOL0     C43219   6.737   9.658   5.444 -0.6914 -1.6540  0.8198
  321MOL0     C43220   6.852   9.568   5.477 -0.5102  0.2624 -0.0059
  321MOL0     C43221   6.833   9.421   5.429  0.4726 -0.7998  0.3522
  321MOL0     C43222   6.927   9.321   5.500  1.0661 -0.1106 -0.7167
  321MOL0     C43223   6.912   9.184   5.435  0.1983  0.8001 -0.1460
  321MOL0     O43224   6.981   9.175   5.298 -0.6763 -0.6121 -0.1886
  321MOL0     C43225   7.067   9.068   5.288  0.3189  0.1154  0.7311
  321MOL0     C43226   7.159   9.027   5.388 -0.5009 -0.9524  0.0633
  321MOL0     C43227   7.251   8.919   5.382  0.2016 -1.1470  0.6626
  321MOL0     C43228   7.337   8.891   5.497 -0.5585  0.6668  0.5400
  321MOL0     C43229   7.239   8.840   5.263 -0.3990  0.9903 -1.3044
  321MOL0     C43230   7.311   8.710   5.237 -0.2499 -0.7976 -0.8816
  321MOL0     O43231   7.233   8.612   5.180  0.0266  0.5622 -0.4919
  321MOL0     C43232   7.270   8.514   5.096 -0.1103 -0.1221  0.0770
  321MOL0     C43233   7.402   8.476   5.080 -0.5901 -0.0942  1.3274
  321MOL0     C43234   7.435   8.369   4.994 -1.5612 -0.0616 -0.3847
  321MOL0     C43235   7.334   8.307   4.912 -0.7156 -0.0118 -0.3783
  321MOL0     O43236   7.371   8.204   4.835  0.3602  0.1623  0.5731
  321MOL0     C43237   7.491   8.212   4.751  0.4775 -1.5097 -0.5740
  321MOL0     C43238   7.577   8.081   4.758  0.3453 -0.3914  0.9433
  321MOL0     C43239   7.603   8.024   4.897  0.0972  0.0460  0.1425
  321MOL0     C43240   7.566   7.881   4.894 -1.1228 -0.6458  0.2119
  321MOL0     C43241   7.601   7.799   5.020  0.3167 -0.3838  0.7127
  321MOL0     C43242   7.543   7.657   5.025 -0.0611 -0.3758 -0.1301
  321MOL0     C43243   7.585   7.590   5.153 -0.6257  0.0274 -0.7883
  321MOL0     C43244   7.515   7.454   5.176 -0.4436 -0.3409 -1.2190
  321MOL0    Cl43245   7.604   7.338   5.087  0.0662 -0.0895  0.2792
  321MOL0     C43246   7.203   8.354   4.926 -0.5692  0.1596 -1.1115
  321MOL0     C43247   7.173   8.453   5.020 -0.4879  0.8943  0.5292
  321MOL0     O43248   7.431   8.695   5.260  0.5840  0.0674 -0.0303
  321MOL0     C43249   7.147   8.885   5.159  0.4359 -0.2578 -0.7231
  321MOL0     C43250   7.063   8.996   5.170 -0.1953  0.4423  0.7526
  321MOL0     N43251   6.630   9.691   5.525  0.6849  0.1809 -0.1170
  321MOL0     N43252   6.546   9.766   5.470 -0.4539 -0.0859  0.0103
  321MOL0     C43253   5.774   9.468   4.506  0.3606  0.1563  0.7759
  321MOL0     C43254   5.722   9.494   4.372  0.5339 -0.6048  0.5425
  321MOL0     C43255   5.640   9.637   3.984  0.2389  0.2797 -0.3984
  321MOL0     C43256   5.602   9.766   3.925  0.1868  1.2533 -0.6549
  321MOL0     C43257   5.532   9.760   3.798 -0.2708 -0.1299  0.3774
  321MOL0     C43258   5.494   9.643   3.732 -0.4013 -0.5465 -0.1976
  321MOL0     O43259   5.431   9.666   3.617  0.3285  0.1295 -0.1614
  321MOL0     C43260   5.406   9.551   3.533  0.3474 -0.0473 -0.2585
  321MOL0     C43261   5.519   9.554   3.426 -0.6098 -0.7289 -0.2965
  321MOL0     C43262   5.515   9.420   3.350  0.1618  0.2702  0.6822
  321MOL0     C43263   5.647   9.343   3.360 -0.5979 -0.0928 -0.6908
  321MOL0     C43264   5.645   9.204   3.337 -0.3024 -0.0377  0.0039
  321MOL0     C43265   5.640   9.080   3.329  0.1208 -0.2098 -0.0180
  321MOL0     C43266   5.523   9.523   3.801 -0.2923  0.3599  0.3078
  321MOL0     C43267   5.600   9.520   3.918 -0.3289 -0.0563 -0.3701
  321MOL0     H43268   5.967   9.379   4.185 -4.5323 -2.7746 -0.5549
  321MOL0     H43269   6.063   9.325   4.407 -1.5585 -2.6948 -1.1772
  321MOL0     H43270   6.129   9.387   4.733  0.0685  0.1575  1.8187
  321MOL0     H43271   6.119   9.473   4.582 -0.0277 -1.2863 -0.3210
  321MOL0     H43272   6.012   9.657   4.684 -0.1709  0.3431  1.1379
  321MOL0     H43273   6.018   9.568   4.856  1.8222  3.8701  1.8847
  321MOL0     H43274   6.257   9.550   4.809  1.1202  0.5453  0.2181
  321MOL0     H43275   6.232   9.676   4.693  0.6240  1.3353  1.1771
  321MOL0     H43276   6.167   9.835   4.866  0.6787  0.4254  0.2461
  321MOL0     H43277   6.135   9.704   4.981 -0.0207  0.7353  0.3002
  321MOL0     H43278   6.386   9.648   4.961  1.0982  0.0710 -1.2633
  321MOL0     H43279   6.408   9.768   4.854  1.2111 -0.8529  0.6649
  321MOL0     H43280   6.390   9.943   5.021 -0.6282  0.7319  2.1667
  321MOL0     H43281   6.311   9.835   5.136 -0.8518  0.5051 -0.5589
  321MOL0     H43282   6.522   9.691   5.143 -0.3164  0.3556  0.3122
  321MOL0     H43283   6.608   9.816   5.039  0.2836  2.1255  0.2790
  321MOL0     H43284   6.459   9.920   5.281 -0.5970 -2.5739  2.2455
  321MOL0     H43285   6.621   9.948   5.216  0.1922 -1.1988 -1.5385
  321MOL0     H43286   6.793   9.719   5.244  2.7632  2.1889  1.7978
  321MOL0     H43287   6.947   9.608   5.441 -1.9169 -0.2455 -5.1041
  321MOL0     H43288   6.845   9.565   5.586 -2.1838 -1.0321 -0.1056
  321MOL0     H43289   6.842   9.416   5.320  2.3009  3.2349  0.1536
  321MOL0     H43290   6.733   9.401   5.468  0.9668 -1.3583  1.4008
  321MOL0     H43291   6.908   9.322   5.608 -1.1753  1.3653 -1.0420
  321MOL0     H43292   7.028   9.363   5.500  0.2625  2.2092  2.3115
  321MOL0     H43293   6.808   9.162   5.409  0.5778 -3.0118  0.9150
  321MOL0     H43294   6.920   9.101   5.507 -3.1635 -3.1728 -3.8256
  321MOL0     H43295   7.163   9.090   5.477 -1.0676 -0.5509 -0.1898
  321MOL0     H43296   7.441   8.857   5.487 -1.4577 -2.0848 -0.2734
  321MOL0     H43297   7.338   8.967   5.575 -2.2372  1.8412 -0.5171
  321MOL0     H43298   7.291   8.802   5.539 -0.4002  1.2059  1.9135
  321MOL0     H43299   7.481   8.520   5.139  1.2477  1.4646 -1.9925
  321MOL0     H43300   7.542   8.350   4.993 -1.4364  0.5320 -2.2738
  321MOL0     H43301   7.447   8.218   4.651 -0.1135 -2.5894 -0.3845
  321MOL0     H43302   7.547   8.304   4.774 -3.4024  0.8763  0.2427
  321MOL0     H43303   7.521   8.008   4.698  0.4051  1.5796 -1.6936
  321MOL0     H43304   7.670   8.098   4.703  0.5178  1.3989  1.7395
  321MOL0     H43305   7.546   8.076   4.974  1.4330  0.4149  0.9332
  321MOL0     H43306   7.712   8.030   4.906  0.3164  2.5104 -2.7006
  321MOL0     H43307   7.459   7.886   4.876 -1.0475 -1.8887 -0.7267
  321MOL0     H43308   7.613   7.828   4.810 -3.1488 -1.4036 -0.5056
  321MOL0     H43309   7.561   7.860   5.101  0.8211 -3.3599  3.3861
  321MOL0     H43310   7.710   7.790   5.020  0.8069  3.5900 -0.7793
  321MOL0     H43311   7.433   7.661   5.027 -0.1058 -1.3984 -0.3865
  321MOL0     H43312   7.559   7.594   4.938  3.4689  1.1100 -0.7193
  321MOL0     H43313   7.555   7.650   5.239  1.2709 -0.6768  0.4238
  321MOL0     H43314   7.689   7.558   5.164 -0.8644 -0.3779  0.4103
  321MOL0     H43315   7.409   7.448   5.153 -0.8814 -0.2636  0.6322
  321MOL0     H43316   7.514   7.422   5.280 -0.3047  1.2004 -0.7153
  321MOL0     H43317   7.121   8.304   4.876  1.6048 -5.1889  0.0040
  321MOL0     H43318   7.072   8.490   5.035 -0.9454 -1.2536  3.6244
  321MOL0     H43319   7.127   8.831   5.068 -0.0970  2.9524 -2.6811
  321MOL0     H43320   7.006   9.027   5.083  1.4304  4.0114  0.8238
  321MOL0     H43321   5.723   9.468   4.601  2.9093 -0.2927  2.2446
  321MOL0     H43322   5.621   9.535   4.371  0.5292 -0.6282  0.0355
  321MOL0     H43323   5.629   9.855   3.982  3.8651 -1.2450  1.9599
  321MOL0     H43324   5.519   9.855   3.748  2.5685 -0.4940 -1.2711
  321MOL0     H43325   5.395   9.456   3.585  0.6396 -0.1111 -0.3062
  321MOL0     H43326   5.310   9.575   3.486 -0.0335  2.7753  1.7197
  321MOL0     H43327   5.622   9.569   3.459 -0.4461 -0.7842 -0.7646
  321MOL0     H43328   5.504   9.640   3.359 -2.5942  0.0181  1.0294
  321MOL0     H43329   5.496   9.438   3.244  3.9965  1.5268  0.0321
  321MOL0     H43330   5.424   9.372   3.384  0.4329  0.3595  1.5561
  321MOL0     H43331   5.693   9.360   3.458 -1.1460  2.2690 -0.7745
  321MOL0     H43332   5.717   9.390   3.290  1.8102  2.0050  2.8351
  321MOL0     H43333   5.632   8.973   3.322 -0.1862 -0.0557 -2.9976
  321MOL0     H43334   5.491   9.427   3.762 -5.7899  2.3537 -1.0066
  321MOL0     H43335   5.627   9.420   3.950 -0.7781  0.3999  1.5264
  322MOL0     O43336   7.915  10.054   9.497 -0.0838  0.3509 -0.7598
  322MOL0     C43337   8.017  10.024   9.429 -0.5365  0.0757  0.1703
  322MOL0     O43338   8.024   9.962   9.309  0.3005  0.6656 -0.7578
  322MOL0     C43339   7.917   9.937   9.221  1.4511  0.2733 -0.8271
  322MOL0     C43340   7.944   9.889   9.099  0.1804  0.9432  0.2071
  322MOL0     C43341   7.849   9.873   8.994  0.6869  0.6789  0.2316
  322MOL0     C43342   7.713   9.906   9.026 -0.8379  0.7839  0.6461
  322MOL0     O43343   7.616   9.881   8.933 -0.0298  0.2208 -0.2239
  322MOL0     C43344   7.481   9.949   8.937  0.5974 -0.2475 -0.2919
  322MOL0     C43345   7.506  10.104   8.900  0.6042  0.9221  0.5985
  322MOL0     C43346   7.496  10.114   8.747  0.4734 -0.9019 -0.5471
  322MOL0     C43347   7.536  10.256   8.717 -0.7891 -0.0977 -0.1012
  322MOL0     C43348   7.560  10.277   8.568 -0.3569 -0.4418 -0.0368
  322MOL0     C43349   7.613  10.419   8.535 -0.3963 -1.1696 -0.0743
  322MOL0     C43350   7.629  10.431   8.380 -0.0824  0.1551 -0.0094
  322MOL0     C43351   7.628  10.576   8.332 -1.0380 -0.2365 -0.0467
  322MOL0     N43352   7.632  10.602   8.190  0.1740  0.7344 -0.3086
  322MOL0     C43353   7.522  10.586   8.105  0.4697 -0.6514  0.3059
  322MOL0     C43354   7.570  10.623   7.988 -0.1821 -0.7445  0.4636
  322MOL0     C43355   7.501  10.654   7.857 -0.0241  0.2481  0.6601
  322MOL0     C43356   7.544  10.766   7.771 -0.3857  0.2977  0.8627
  322MOL0     C43357   7.586  10.888   7.841  0.2039 -0.3619 -0.1767
  322MOL0     C43358   7.579  11.024   7.751  0.4113 -0.4745 -0.3221
  322MOL0     O43359   7.701  11.057   7.686 -0.5499 -0.2963  0.9380
  322MOL0     C43360   7.694  11.158   7.593 -0.4545  0.0381 -0.0001
  322MOL0     C43361   7.585  11.250   7.565  0.2076  0.0362 -0.0501
  322MOL0     C43362   7.585  11.349   7.462 -1.4544  0.2133  0.2153
  322MOL0     C43363   7.477  11.453   7.476 -0.5056  0.2103 -0.2078
  322MOL0     C43364   7.699  11.355   7.373  0.2709  0.3220 -0.1238
  322MOL0     C43365   7.713  11.453   7.269  0.5489 -0.2138 -0.0465
  322MOL0     O43366   7.618  11.547   7.251 -0.0744  0.4794  0.6958
  322MOL0     C43367   7.659  11.681   7.218  0.6821  0.5919 -0.3800
  322MOL0     C43368   7.763  11.736   7.285  0.1656  0.2412  0.2477
  322MOL0     C43369   7.784  11.872   7.278 -1.0068  0.3938  0.2021
  322MOL0     C43370   7.709  11.948   7.188  0.4354  0.1436 -0.3620
  322MOL0     O43371   7.735  12.078   7.184 -0.1844  0.2223  0.6865
  322MOL0     C43372   7.685  12.170   7.093 -0.2170 -0.0198 -0.3923
  322MOL0     C43373   7.769  12.297   7.095  0.1633 -0.0468  0.0465
  322MOL0     C43374   7.758  12.374   6.958 -0.3097  0.6016  0.0196
  322MOL0     C43375   7.857  12.489   6.953 -0.5001 -0.5538  0.1270
  322MOL0     C43376   7.816  12.593   6.846  0.6833  0.6439 -0.0899
  322MOL0     C43377   7.867  12.740   6.865 -0.8087  0.5818 -2.1150
  322MOL0     C43378   8.016  12.730   6.849 -0.0889 -0.5345 -0.1526
  322MOL0     C43379   8.082  12.861   6.874  0.1470 -0.0148  1.3878
  322MOL0    Cl43380   8.026  12.952   7.021  0.4847  0.3113  0.3812
  322MOL0     C43381   7.602  11.884   7.120 -0.9564 -0.0683  0.6719
  322MOL0     C43382   7.574  11.748   7.137 -1.3513  0.0206  0.9203
  322MOL0     O43383   7.813  11.441   7.201 -0.0502 -0.3185  0.3060
  322MOL0     C43384   7.802  11.253   7.396 -0.2338 -0.2946 -0.5658
  322MOL0     C43385   7.801  11.166   7.504  0.0398 -0.5345 -0.3554
  322MOL0     N43386   7.702  10.639   8.002  0.9760  0.0351  0.3450
  322MOL0     N43387   7.744  10.622   8.120 -0.2396 -0.7630  0.0614
  322MOL0     C43388   7.689   9.960   9.150  0.6211 -0.3580 -0.6046
  322MOL0     C43389   7.788   9.980   9.245 -0.1698 -0.4091  0.0693
  322MOL0     C43390   8.147  10.080   9.477 -0.6402 -0.1056  0.2174
  322MOL0     C43391   8.154  10.159   9.595 -0.1818 -0.9626  0.3926
  322MOL0     C43392   8.284  10.198   9.633  0.4798 -0.6849  0.1660
  322MOL0     C43393   8.403  10.175   9.562  0.5192 -0.2925 -0.3692
  322MOL0     O43394   8.534  10.206   9.608 -0.1224  0.3241  0.1670
  322MOL0     C43395   8.553  10.307   9.712  0.6736  0.4112  0.1441
  322MOL0     C43396   8.695  10.369   9.711  0.7403 -0.5501  0.2051
  322MOL0     C43397   8.776  10.370   9.832  0.1401  0.0600 -0.3800
  322MOL0     C43398   8.922  10.416   9.803 -1.0005 -0.6097 -0.1841
  322MOL0     C43399   8.915  10.560   9.790 -0.3195 -0.3962  0.1792
  322MOL0     C43400   8.905  10.681   9.761  0.4384 -0.4946 -0.1314
  322MOL0     C43401   8.391  10.105   9.444 -0.4118  0.2216 -1.1957
  322MOL0     C43402   8.262  10.053   9.399  0.0726 -0.6779  0.3714
  322MOL0     H43403   8.047   9.858   9.086  1.1098  2.5759  2.7052
  322MOL0     H43404   7.860   9.825   8.897 -1.8560 -1.5826  0.9329
  322MOL0     H43405   7.416   9.895   8.867  0.5478 -1.1258  0.4131
  322MOL0     H43406   7.433   9.944   9.035 -2.7951 -2.5773 -1.8525
  322MOL0     H43407   7.433  10.162   8.958 -2.1283 -1.3495 -0.3388
  322MOL0     H43408   7.611  10.119   8.923  0.5684 -0.7676  2.1123
  322MOL0     H43409   7.576  10.054   8.703 -0.5821 -2.4433 -0.4026
  322MOL0     H43410   7.400  10.097   8.698 -0.4553  3.6080 -0.8025
  322MOL0     H43411   7.462  10.328   8.753 -1.8976 -1.1240 -0.2563
  322MOL0     H43412   7.635  10.267   8.762  0.0065 -0.9456 -1.5415
  322MOL0     H43413   7.627  10.198   8.530 -0.0401 -1.4423  2.4309
  322MOL0     H43414   7.463  10.260   8.520 -0.1550 -1.0049 -0.2524
  322MOL0     H43415   7.555  10.502   8.576  0.6756 -0.7097  0.5493
  322MOL0     H43416   7.716  10.443   8.566  0.0371 -2.4612 -0.4538
  322MOL0     H43417   7.720  10.381   8.346  0.3061  0.3297  0.7499
  322MOL0     H43418   7.547  10.377   8.332  3.6468 -3.4719 -3.1056
  322MOL0     H43419   7.719  10.620   8.375 -0.0545 -0.8155 -1.4864
  322MOL0     H43420   7.540  10.628   8.372  1.3442  1.9973  2.8093
  322MOL0     H43421   7.419  10.564   8.130  1.0776 -0.8620  3.0040
  322MOL0     H43422   7.521  10.566   7.795 -0.1918  1.6215 -1.4401
  322MOL0     H43423   7.393  10.669   7.867  0.1402  4.2663 -1.7074
  322MOL0     H43424   7.473  10.788   7.690  1.1149  3.8430  0.3141
  322MOL0     H43425   7.636  10.735   7.720  0.2241 -1.0917  2.7186
  322MOL0     H43426   7.692  10.879   7.865  1.5946  0.5936 -4.9197
  322MOL0     H43427   7.518  10.900   7.926  0.5356  0.2257  0.0098
  322MOL0     H43428   7.547  11.109   7.811  2.1061  0.1224 -0.2243
  322MOL0     H43429   7.500  11.020   7.675 -1.0168  2.4722  0.8608
  322MOL0     H43430   7.498  11.251   7.630 -0.1765  2.7360 -0.4845
  322MOL0     H43431   7.417  11.458   7.384 -3.4237 -0.3179  1.5526
  322MOL0     H43432   7.412  11.427   7.560 -1.9438 -1.7894 -1.8200
  322MOL0     H43433   7.527  11.548   7.493  1.0288 -0.7193  0.7273
  322MOL0     H43434   7.829  11.671   7.341 -0.7379  0.8516  2.1155
  322MOL0     H43435   7.869  11.913   7.331  3.1664 -1.3549 -4.3862
  322MOL0     H43436   7.681  12.139   6.988  1.3509  0.7877 -0.7201
  322MOL0     H43437   7.586  12.179   7.137  0.6076  3.3227  1.0353
  322MOL0     H43438   7.736  12.368   7.172  1.4878  1.1080 -0.4009
  322MOL0     H43439   7.874  12.278   7.119  0.0828 -0.0528  0.3964
  322MOL0     H43440   7.659  12.421   6.962 -0.2217  1.0747 -2.1855
  322MOL0     H43441   7.763  12.319   6.863 -4.7811 -1.2132  0.5787
  322MOL0     H43442   7.854  12.546   7.047 -2.5356 -0.2445 -0.0831
  322MOL0     H43443   7.956  12.446   6.939 -1.8948 -3.9243 -0.3534
  322MOL0     H43444   7.707  12.595   6.856  0.7273  0.5322  0.4159
  322MOL0     H43445   7.824  12.553   6.744 -2.1145 -1.5206  0.4222
  322MOL0     H43446   7.825  12.797   6.781 -0.4353  1.4058 -1.7503
  322MOL0     H43447   7.840  12.790   6.958  1.8488 -2.6772  0.6161
  322MOL0     H43448   8.040  12.692   6.749 -0.7898 -2.7730  0.4614
  322MOL0     H43449   8.053  12.670   6.932  0.3246  1.0767  0.8725
  322MOL0     H43450   8.065  12.932   6.793  1.6699  0.5003  1.4816
  322MOL0     H43451   8.191  12.851   6.870  0.1421  0.1451  0.7842
  322MOL0     H43452   7.527  11.927   7.055 -2.8685 -2.4920  1.1326
  322MOL0     H43453   7.502  11.688   7.083  0.3184 -0.1033 -1.3382
  322MOL0     H43454   7.879  11.242   7.320 -2.6162  0.8082 -3.3194
  322MOL0     H43455   7.890  11.115   7.541 -0.8118 -0.3611  2.1411
  322MOL0     H43456   7.587   9.982   9.179 -0.0152 -1.2673 -2.0327
  322MOL0     H43457   7.755  10.031   9.335 -2.9180 -0.4147 -0.8516
  322MOL0     H43458   8.063  10.185   9.648  0.5236  0.4214  1.0008
  322MOL0     H43459   8.282  10.261   9.721 -0.7161 -0.9289  0.3256
  322MOL0     H43460   8.470  10.378   9.709  0.0926 -0.2716 -0.4432
  322MOL0     H43461   8.553  10.262   9.812  0.9452  2.1077  0.9473
  322MOL0     H43462   8.694  10.474   9.678 -1.3668  0.5549  3.3038
  322MOL0     H43463   8.748  10.314   9.633  1.1780  1.2891 -0.8590
  322MOL0     H43464   8.777  10.271   9.880  0.4001  1.0822  1.8298
  322MOL0     H43465   8.735  10.434   9.911 -2.7509 -1.5017 -0.4908
  322MOL0     H43466   8.969  10.371   9.715  0.9701 -0.5171  0.7721
  322MOL0     H43467   8.992  10.399   9.885 -0.6194  1.1490 -0.1196
  322MOL0     H43468   8.906  10.786   9.740 -0.5354 -0.6046 -0.8177
  322MOL0     H43469   8.477  10.079   9.385 -1.5279  1.0804 -3.3242
  322MOL0     H43470   8.252  10.004   9.302 -1.0226  3.9207 -2.1560
  323MOL0     O43471   1.730   4.672   3.496 -0.1151  0.1544 -0.0852
  323MOL0     C43472   1.762   4.785   3.534 -0.3729  0.2987  0.5864
  323MOL0     O43473   1.797   4.809   3.666 -0.2533 -0.7478  0.2103
  323MOL0     C43474   1.805   4.711   3.764 -0.0537 -1.1383  1.2334
  323MOL0     C43475   1.757   4.573   3.753 -0.5946 -0.8179 -0.3940
  323MOL0     C43476   1.791   4.490   3.852 -0.1669 -0.4110  0.2917
  323MOL0     C43477   1.865   4.529   3.971  1.2971 -0.5035  0.1734
  323MOL0     O43478   1.867   4.440   4.069 -0.1528 -0.5298 -0.5354
  323MOL0     C43479   1.996   4.408   4.126 -0.7526  0.8669  0.4845
  323MOL0     C43480   1.959   4.314   4.240 -0.3691  0.2936 -0.3132
  323MOL0     C43481   2.087   4.275   4.318 -0.1860  0.2697 -0.4485
  323MOL0     C43482   2.169   4.182   4.235  0.7364 -0.5112  0.0091
  323MOL0     C43483   2.104   4.058   4.172  0.4692 -0.5987 -0.0120
  323MOL0     C43484   2.224   3.963   4.154 -0.8487  0.1750  0.3106
  323MOL0     C43485   2.196   3.848   4.060  0.1257 -0.8160  0.5616
  323MOL0     C43486   2.095   3.751   4.123 -0.6512  0.5686  0.8889
  323MOL0     N43487   2.148   3.613   4.117 -0.2397 -0.2426 -0.8075
  323MOL0     C43488   2.215   3.537   4.022 -0.1975 -0.5746 -0.6315
  323MOL0     C43489   2.252   3.413   4.078 -0.3073  0.0971 -0.2747
  323MOL0     C43490   2.335   3.306   4.006 -0.3124 -0.2622  0.6458
  323MOL0     C43491   2.250   3.237   3.893  0.3299 -0.3696  0.0299
  323MOL0     C43492   2.296   3.105   3.837  0.1716 -0.0566 -0.1850
  323MOL0     C43493   2.432   3.121   3.766  0.7681  0.5738 -0.7062
  323MOL0     O43494   2.400   3.179   3.639  0.1480  0.7875 -0.2080
  323MOL0     C43495   2.420   3.090   3.536 -0.6317  0.4640  0.0306
  323MOL0     C43496   2.547   3.047   3.496  0.4477  0.1165 -0.9432
  323MOL0     C43497   2.565   2.948   3.401  0.0386  0.0630 -0.3250
  323MOL0     C43498   2.708   2.903   3.363 -1.0147 -0.0609  1.2659
  323MOL0     C43499   2.448   2.875   3.361 -0.3106 -0.1205 -0.3790
  323MOL0     C43500   2.440   2.744   3.277 -0.4167  0.1143  0.9056
  323MOL0     O43501   2.318   2.685   3.244  0.0718 -1.2602  0.4290
  323MOL0     C43502   2.321   2.586   3.155  0.4135 -0.5672  0.4843
  323MOL0     C43503   2.319   2.623   3.018  0.3747 -0.5269 -0.2270
  323MOL0     C43504   2.286   2.524   2.927 -0.7741  0.0855  1.1306
  323MOL0     C43505   2.272   2.385   2.961  0.0528  0.3660  0.5533
  323MOL0     O43506   2.245   2.302   2.860 -0.5548 -0.0814 -0.3700
  323MOL0     C43507   2.351   2.232   2.799 -0.4641 -0.6119  0.2824
  323MOL0     C43508   2.307   2.167   2.667  0.7486 -0.4989  0.3398
  323MOL0     C43509   2.297   2.264   2.552 -0.3230  1.2097  0.1491
  323MOL0     C43510   2.294   2.171   2.424 -0.1580 -0.0189  0.0988
  323MOL0     C43511   2.304   2.235   2.287  0.8417 -0.8464 -0.0104
  323MOL0     C43512   2.163   2.281   2.250 -0.7147 -1.1247 -0.0662
  323MOL0     C43513   2.162   2.374   2.131  0.3618 -0.4066 -1.9320
  323MOL0     C43514   2.188   2.308   2.001  0.0445 -0.0391 -1.3350
  323MOL0    Cl43515   2.063   2.189   1.958 -0.3237 -0.0767 -0.2816
  323MOL0     C43516   2.304   2.346   3.096  1.3473  0.0551  0.1560
  323MOL0     C43517   2.308   2.453   3.193 -0.4648  0.1738 -0.0570
  323MOL0     O43518   2.552   2.704   3.250  0.5071 -0.0630  0.8438
  323MOL0     C43519   2.321   2.906   3.416 -0.2749 -0.2711  0.3332
  323MOL0     C43520   2.305   3.017   3.488 -0.1631  0.5519  0.1692
  323MOL0     N43521   2.212   3.423   4.214 -0.9296  0.4542  0.4132
  323MOL0     N43522   2.150   3.535   4.231 -1.1217  0.7420 -0.3668
  323MOL0     C43523   1.910   4.662   3.977  0.5880  0.3909  0.5730
  323MOL0     C43524   1.874   4.756   3.875  0.3650 -0.5955  0.0885
  323MOL0     C43525   1.786   4.887   3.432 -0.6232 -0.6967 -0.1367
  323MOL0     C43526   1.862   5.010   3.450  0.0032  0.7849  0.2152
  323MOL0     C43527   1.859   5.109   3.355 -0.0705  0.0781  0.1221
  323MOL0     C43528   1.784   5.101   3.235  0.2691 -0.1479 -0.6759
  323MOL0     O43529   1.787   5.202   3.136  0.1858 -0.7636 -0.2267
  323MOL0     C43530   1.857   5.321   3.170 -0.4785  0.6100  0.4607
  323MOL0     C43531   1.808   5.435   3.082 -0.5793 -0.2405  0.2355
  323MOL0     C43532   1.855   5.437   2.934  0.4828  0.1593  0.5369
  323MOL0     C43533   2.008   5.455   2.927  0.3371 -0.7584  0.3482
  323MOL0     C43534   2.054   5.572   2.993  0.1947 -0.7608 -0.0488
  323MOL0     C43535   2.051   5.679   3.045  0.1637 -0.5281  0.0163
  323MOL0     C43536   1.708   4.978   3.211  0.1856  0.0889  0.1833
  323MOL0     C43537   1.709   4.878   3.311  0.3208 -0.4852 -0.0646
  323MOL0     H43538   1.696   4.538   3.671 -1.1392  0.7651 -0.7064
  323MOL0     H43539   1.772   4.384   3.842  1.2141 -0.5210 -1.6821
  323MOL0     H43540   2.060   4.351   4.058 -0.6520 -0.6933  1.8292
  323MOL0     H43541   2.057   4.492   4.160 -3.3156  3.6890 -1.3637
  323MOL0     H43542   1.889   4.367   4.307 -0.5816 -0.6032  0.1934
  323MOL0     H43543   1.898   4.231   4.203  0.1762  0.5394 -1.8298
  323MOL0     H43544   2.139   4.368   4.344  0.3111  0.2677 -1.3835
  323MOL0     H43545   2.065   4.224   4.412  0.9119  1.2148  0.3520
  323MOL0     H43546   2.202   4.245   4.152 -2.8744  3.0840  0.9866
  323MOL0     H43547   2.251   4.141   4.295  0.8194  1.2509  1.1554
  323MOL0     H43548   2.038   4.016   4.248 -0.0677 -0.5869 -0.4640
  323MOL0     H43549   2.048   4.082   4.081 -0.9752  1.3192  1.3104
  323MOL0     H43550   2.313   4.018   4.122  0.1614 -0.5932  1.6659
  323MOL0     H43551   2.251   3.927   4.254 -1.6568  0.2731  0.5680
  323MOL0     H43552   2.147   3.891   3.972  1.0105  3.6221  1.9764
  323MOL0     H43553   2.284   3.806   4.010  0.4695  0.7755 -0.2574
  323MOL0     H43554   1.995   3.754   4.077  1.3728  2.1052 -4.1234
  323MOL0     H43555   2.074   3.781   4.226 -0.1172  0.4560  1.0292
  323MOL0     H43556   2.227   3.564   3.918 -1.1119 -3.4014 -1.5834
  323MOL0     H43557   2.423   3.356   3.966 -0.1309 -1.1936 -0.1587
  323MOL0     H43558   2.358   3.224   4.074 -0.4330 -2.1654 -1.4987
  323MOL0     H43559   2.249   3.316   3.817  3.5941  0.3474  0.5594
  323MOL0     H43560   2.143   3.222   3.909 -0.4419  0.8354 -3.2298
  323MOL0     H43561   2.219   3.062   3.772 -0.9754  0.6399  0.6843
  323MOL0     H43562   2.309   3.032   3.917  0.4099 -1.3609 -1.3555
  323MOL0     H43563   2.476   3.021   3.759  0.3235  0.1451  1.7699
  323MOL0     H43564   2.498   3.186   3.825 -0.9676  1.3432  0.4967
  323MOL0     H43565   2.631   3.095   3.545  0.1347  2.5530 -2.5923
  323MOL0     H43566   2.717   2.799   3.394 -0.4232 -0.9160 -1.5758
  323MOL0     H43567   2.710   2.890   3.255  0.0949  1.1203  1.1197
  323MOL0     H43568   2.788   2.968   3.400 -0.7398 -0.5118  1.4670
  323MOL0     H43569   2.336   2.728   2.994 -0.2802  1.0534  4.9384
  323MOL0     H43570   2.283   2.562   2.825 -1.2837  0.3073  1.2267
  323MOL0     H43571   2.442   2.291   2.789 -2.0213  1.8376 -0.2930
  323MOL0     H43572   2.381   2.161   2.877 -2.1207  1.3740  2.9281
  323MOL0     H43573   2.390   2.101   2.641  0.2680 -0.4692 -1.3545
  323MOL0     H43574   2.226   2.094   2.682 -0.3639  0.7028  0.3557
  323MOL0     H43575   2.388   2.322   2.570  0.9239 -1.6134  4.4478
  323MOL0     H43576   2.216   2.339   2.556  1.5852  3.4067 -0.3194
  323MOL0     H43577   2.378   2.101   2.422  1.3857  1.7642 -1.1768
  323MOL0     H43578   2.212   2.100   2.431  0.7628 -1.0081  1.3047
  323MOL0     H43579   2.341   2.158   2.219  1.9231 -1.3896  1.1602
  323MOL0     H43580   2.370   2.323   2.290  1.3527 -1.1395  4.6912
  323MOL0     H43581   2.105   2.192   2.223 -1.0552 -1.2172  0.9326
  323MOL0     H43582   2.106   2.323   2.333 -0.3838  1.0038 -0.8431
  323MOL0     H43583   2.234   2.455   2.144  0.9756 -1.0283 -1.3967
  323MOL0     H43584   2.060   2.415   2.133  0.0171 -0.7378  3.8095
  323MOL0     H43585   2.279   2.248   2.010 -1.4088 -2.1408  0.2766
  323MOL0     H43586   2.210   2.378   1.920  1.3653  0.5342 -0.5119
  323MOL0     H43587   2.308   2.247   3.142  2.1995  0.6159  1.3360
  323MOL0     H43588   2.317   2.436   3.300  1.6730  1.3722  0.0100
  323MOL0     H43589   2.237   2.843   3.387  0.2756 -1.4098  1.1182
  323MOL0     H43590   2.202   3.037   3.518 -1.6275 -1.3804 -3.0032
  323MOL0     H43591   1.965   4.697   4.063  1.6081  2.3261 -0.7863
  323MOL0     H43592   1.893   4.862   3.886 -2.4032 -0.1364  1.4185
  323MOL0     H43593   1.921   5.020   3.541 -1.6491 -1.1108  1.5978
  323MOL0     H43594   1.924   5.189   3.388  2.4620 -3.1028  3.7508
  323MOL0     H43595   1.829   5.347   3.272 -2.0055 -1.3484  0.5942
  323MOL0     H43596   1.964   5.301   3.177 -0.0285  3.1157  2.2341
  323MOL0     H43597   1.832   5.531   3.127 -0.3051  0.9913 -2.3583
  323MOL0     H43598   1.699   5.428   3.077 -0.5393 -2.4555  1.0240
  323MOL0     H43599   1.803   5.516   2.878  0.0754 -1.0389 -0.8233
  323MOL0     H43600   1.827   5.342   2.889  2.4891 -0.8525  1.3150
  323MOL0     H43601   2.034   5.467   2.821  2.4139  0.3691  0.9258
  323MOL0     H43602   2.060   5.364   2.960 -0.3860 -0.6967  1.7093
  323MOL0     H43603   2.069   5.768   3.101 -0.1142  0.4898 -1.4429
  323MOL0     H43604   1.663   4.953   3.115 -1.7416 -2.5047  1.5994
  323MOL0     H43605   1.663   4.781   3.294 -1.1820  0.2058 -0.1464
  324MOL0     O43606   1.866   9.879  11.246 -0.2998 -0.6768  0.2333
  324MOL0     C43607   1.757   9.908  11.298 -1.0433  0.6866 -0.1751
  324MOL0     O43608   1.749   9.958  11.424 -0.6196 -0.3527 -0.6286
  324MOL0     C43609   1.873  10.004  11.486  1.1687  1.1595  0.2901
  324MOL0     C43610   1.894  10.140  11.461 -0.6609  0.0733  0.4292
  324MOL0     C43611   2.016  10.198  11.503 -0.6935  0.4088  0.9566
  324MOL0     C43612   2.101  10.119  11.574 -0.0765  1.0795 -0.3664
  324MOL0     O43613   2.203  10.173  11.649  0.6469  0.0330 -1.2652
  324MOL0     C43614   2.278  10.281  11.595 -0.3782  0.6710  0.6180
  324MOL0     C43615   2.413  10.265  11.661  0.3179  0.0910  0.8263
  324MOL0     C43616   2.499  10.392  11.652 -1.2409 -0.0130  0.0434
  324MOL0     C43617   2.639  10.360  11.695  0.2550  0.1317 -0.5589
  324MOL0     C43618   2.733  10.488  11.706 -0.0914  0.3650  0.4326
  324MOL0     C43619   2.886  10.450  11.736  0.1437  0.2919 -0.7922
  324MOL0     C43620   2.915  10.413  11.882 -0.2693 -0.0077  0.0294
  324MOL0     C43621   3.068  10.412  11.920  0.0827  0.3315 -0.3517
  324MOL0     N43622   3.137  10.538  11.886 -0.3370 -0.1138 -0.5512
  324MOL0     C43623   3.200  10.572  11.769  0.4256 -0.0958  0.5461
  324MOL0     C43624   3.219  10.707  11.782 -0.6107  0.3800 -0.0631
  324MOL0     C43625   3.278  10.794  11.674 -0.7722 -0.4506 -0.3683
  324MOL0     C43626   3.223  10.765  11.538 -0.6020  1.1553  0.2751
  324MOL0     C43627   3.281  10.853  11.432 -0.4826  0.9057  0.6004
  324MOL0     C43628   3.198  10.854  11.298 -0.1916 -0.0969 -0.3960
  324MOL0     O43629   3.208  10.743  11.206 -0.4701 -0.4320 -0.0646
  324MOL0     C43630   3.317  10.730  11.127 -0.0852 -0.0995 -0.3334
  324MOL0     C43631   3.413  10.839  11.108  0.3408  0.6872 -0.4014
  324MOL0     C43632   3.522  10.818  11.025  0.7423 -0.1894  0.7157
  324MOL0     C43633   3.613  10.937  11.009 -0.4693 -0.3045  0.7507
  324MOL0     C43634   3.545  10.694  10.959 -0.2053  0.0512  0.3686
  324MOL0     C43635   3.662  10.638  10.884  0.0826 -0.4104  0.2383
  324MOL0     O43636   3.689  10.511  10.881 -0.6052  0.3736  0.4944
  324MOL0     C43637   3.780  10.464  10.793 -0.0724 -0.0846 -0.1162
  324MOL0     C43638   3.909  10.418  10.841  0.4669 -0.0903 -0.0027
  324MOL0     C43639   4.008  10.396  10.743 -0.0637 -0.2303 -0.0814
  324MOL0     C43640   3.989  10.428  10.605 -0.4998 -1.2394 -0.0208
  324MOL0     O43641   4.087  10.416  10.520 -0.9653 -0.7303 -0.1196
  324MOL0     C43642   4.068  10.426  10.378 -0.3190 -0.2256 -0.4408
  324MOL0     C43643   4.179  10.348  10.305  0.3560 -1.2920  0.1822
  324MOL0     C43644   4.323  10.396  10.346 -0.3809 -0.5348 -1.6170
  324MOL0     C43645   4.403  10.360  10.229 -1.1412  0.3913 -0.1715
  324MOL0     C43646   4.547  10.389  10.265 -1.0140 -0.6433 -1.2977
  324MOL0     C43647   4.638  10.326  10.159 -0.0296  0.3380 -0.1770
  324MOL0     C43648   4.783  10.388  10.152  0.0808 -0.4073 -0.0231
  324MOL0     C43649   4.896  10.282  10.173  0.6254 -0.6986 -0.3541
  324MOL0    Cl43650   4.886  10.206  10.331 -0.6530 -0.2078 -0.0302
  324MOL0     C43651   3.855  10.453  10.570 -0.5697  0.2340 -0.3502
  324MOL0     C43652   3.753  10.467  10.661  0.9594 -0.9135  1.0909
  324MOL0     O43653   3.719  10.727  10.811  0.5268 -0.5034 -0.4752
  324MOL0     C43654   3.444  10.595  10.975 -0.3027 -0.2450 -0.9387
  324MOL0     C43655   3.337  10.614  11.058  0.4205 -0.9692  0.4380
  324MOL0     N43656   3.170  10.746  11.909 -0.5116  0.6109 -0.0844
  324MOL0     N43657   3.128  10.645  11.970  0.2953 -0.3717  0.3287
  324MOL0     C43658   2.078   9.987  11.600  0.3428 -1.0403 -0.6370
  324MOL0     C43659   1.966   9.926  11.554  0.8361 -0.7084  0.2573
  324MOL0     C43660   1.628   9.901  11.206 -0.0586  1.5114 -0.0223
  324MOL0     C43661   1.495   9.909  11.257 -0.6384 -0.7207 -0.7077
  324MOL0     C43662   1.388   9.913  11.162  0.5542 -0.2991 -0.3425
  324MOL0     C43663   1.410   9.905  11.022  0.8024 -0.1375 -1.2761
  324MOL0     O43664   1.309   9.923  10.936  0.9159  0.3156 -0.4130
  324MOL0     C43665   1.205  10.021  10.973 -0.5440  0.0109 -0.4154
  324MOL0     C43666   1.117  10.034  10.853  0.3343  0.4401  0.3456
  324MOL0     C43667   1.045  10.165  10.863  0.1343 -0.9283  0.4225
  324MOL0     C43668   0.950  10.194  10.745 -0.2270  0.3955  0.0403
  324MOL0     C43669   0.879  10.318  10.769 -0.7599  0.0663  0.3176
  324MOL0     C43670   0.833  10.427  10.791 -0.1271  0.3395 -0.4185
  324MOL0     C43671   1.538   9.887  10.979 -0.3356 -0.7032  0.5339
  324MOL0     C43672   1.644   9.895  11.069  0.9991 -0.9833  0.4762
  324MOL0     H43673   1.821  10.185  11.394 -1.6324 -2.6285 -0.4377
  324MOL0     H43674   2.052  10.295  11.471  4.1933 -1.3158  0.4959
  324MOL0     H43675   2.292  10.254  11.490  0.0488 -2.9368  1.4586
  324MOL0     H43676   2.236  10.381  11.603 -0.2406  0.8096 -0.2221
  324MOL0     H43677   2.398  10.247  11.768 -1.3463  1.2585  0.8233
  324MOL0     H43678   2.466  10.181  11.614  0.0477 -0.1223  0.9032
  324MOL0     H43679   2.513  10.435  11.552  1.1854  1.9131  1.0788
  324MOL0     H43680   2.464  10.477  11.711  1.0014  1.4484 -0.5767
  324MOL0     H43681   2.635  10.314  11.794 -0.7641  1.8335  0.2560
  324MOL0     H43682   2.675  10.285  11.624 -0.5162 -0.5711 -0.2222
  324MOL0     H43683   2.728  10.552  11.617 -5.7422  1.9831  1.5663
  324MOL0     H43684   2.683  10.545  11.784 -1.6142  1.2193 -1.1022
  324MOL0     H43685   2.910  10.367  11.669 -3.2007 -0.3783 -1.3763
  324MOL0     H43686   2.952  10.534  11.712 -0.7485  1.0568 -0.6414
  324MOL0     H43687   2.872  10.485  11.953  1.5144 -0.3748  1.5656
  324MOL0     H43688   2.869  10.317  11.908 -0.2754 -0.0841 -0.2629
  324MOL0     H43689   3.125  10.342  11.858  2.6300  0.5140  1.6274
  324MOL0     H43690   3.075  10.390  12.027  2.7726 -1.0803 -0.7326
  324MOL0     H43691   3.226  10.510  11.683  2.6362 -1.0343  1.8127
  324MOL0     H43692   3.250  10.899  11.689  0.6925 -0.0104 -0.5808
  324MOL0     H43693   3.387  10.785  11.677 -0.4655  2.3446 -0.2344
  324MOL0     H43694   3.115  10.782  11.541 -1.4184 -2.9672  0.5114
  324MOL0     H43695   3.236  10.664  11.496 -1.5952  0.2632  1.9978
  324MOL0     H43696   3.380  10.810  11.413 -1.1174 -0.5659  0.5449
  324MOL0     H43697   3.282  10.957  11.466 -2.3631  1.4456 -0.8494
  324MOL0     H43698   3.226  10.948  11.249  0.7434  1.8897  3.5184
  324MOL0     H43699   3.092  10.867  11.320 -0.0728 -1.1863  0.9024
  324MOL0     H43700   3.398  10.936  11.156  0.0428  0.5897 -0.2945
  324MOL0     H43701   3.614  11.002  11.097 -2.6821 -0.0602  0.6662
  324MOL0     H43702   3.712  10.895  10.990 -1.8013 -3.2339 -0.2999
  324MOL0     H43703   3.576  10.983  10.917 -0.5341 -0.3695  0.7454
  324MOL0     H43704   3.926  10.397  10.946  2.0961  3.5293  0.6314
  324MOL0     H43705   4.100  10.352  10.780 -0.5290 -0.6795  0.5515
  324MOL0     H43706   3.972  10.381  10.350 -2.5312  3.5613  0.3140
  324MOL0     H43707   4.069  10.529  10.339  0.5097  0.0095  0.1718
  324MOL0     H43708   4.166  10.241  10.323  0.1587 -1.0075  1.8292
  324MOL0     H43709   4.161  10.380  10.202 -2.3104  1.6738  1.4163
  324MOL0     H43710   4.357  10.349  10.439 -0.6752 -1.7149 -2.0981
  324MOL0     H43711   4.314  10.505  10.360 -3.9343 -0.8598 -0.2689
  324MOL0     H43712   4.399  10.251  10.216  2.1119 -0.1640  2.1421
  324MOL0     H43713   4.380  10.418  10.139  0.0002  0.4734 -0.4297
  324MOL0     H43714   4.586  10.340  10.354  1.9747  1.7319 -1.1409
  324MOL0     H43715   4.555  10.498  10.272  1.2049 -0.8374 -0.1333
  324MOL0     H43716   4.650  10.219  10.176 -0.1832  0.3969  0.2984
  324MOL0     H43717   4.591  10.335  10.061 -1.1659 -2.5744  0.0035
  324MOL0     H43718   4.788  10.470  10.224  0.0534 -1.0791  0.7629
  324MOL0     H43719   4.783  10.421  10.048 -0.0753  0.3769  0.2168
  324MOL0     H43720   4.992  10.332  10.158  0.7742 -1.6138 -3.1121
  324MOL0     H43721   4.888  10.209  10.092 -1.0013 -0.1809 -0.7188
  324MOL0     H43722   3.831  10.474  10.466  3.3324 -2.5929 -2.0712
  324MOL0     H43723   3.654  10.488  10.621  0.3417  0.5129  3.2390
  324MOL0     H43724   3.463  10.500  10.925  2.3204 -0.3557  0.0759
  324MOL0     H43725   3.261  10.537  11.060 -1.2296  0.5741  0.0153
  324MOL0     H43726   2.139   9.936  11.674  0.5828 -0.1819 -0.2191
  324MOL0     H43727   1.973   9.820  11.576 -2.8013 -1.2843 -0.6355
  324MOL0     H43728   1.481   9.919  11.364 -1.4078  0.2056 -0.8834
  324MOL0     H43729   1.284   9.926  11.193 -0.0341  4.1177 -3.3181
  324MOL0     H43730   1.140   9.984  11.053 -3.0041 -0.2214 -2.4205
  324MOL0     H43731   1.236  10.122  11.001 -1.8909 -0.3512  2.8844
  324MOL0     H43732   1.043   9.954  10.854 -0.3821  1.0326  3.1083
  324MOL0     H43733   1.179  10.030  10.763 -1.5109  3.6613 -1.2411
  324MOL0     H43734   1.120  10.245  10.864 -0.6523 -0.1591 -0.0109
  324MOL0     H43735   0.981  10.168  10.951  1.9034 -1.7986  1.7997
  324MOL0     H43736   0.880  10.120  10.706  1.3870 -0.1937 -1.9152
  324MOL0     H43737   1.011  10.204  10.655  2.2350 -0.2505  1.5307
  324MOL0     H43738   0.788  10.522  10.812  1.0052  1.1559 -1.4961
  324MOL0     H43739   1.541   9.882  10.871  0.3298  1.4794  0.4016
  324MOL0     H43740   1.741   9.881  11.023  1.1592  0.3790  0.3606
  325MOL0     O43741   1.801   2.813   3.329 -0.5822 -0.2561 -0.8846
  325MOL0     C43742   1.892   2.733   3.297  0.1785  0.0233 -0.3402
  325MOL0     O43743   1.990   2.689   3.376  0.4030 -0.0394 -0.2497
  325MOL0     C43744   1.984   2.726   3.511  0.0044 -0.1573  0.0493
  325MOL0     C43745   2.005   2.622   3.592  0.1583 -0.2211 -0.0591
  325MOL0     C43746   2.006   2.642   3.731  0.4727  0.4203  1.1002
  325MOL0     C43747   1.967   2.771   3.787  0.1023  0.0384 -1.1868
  325MOL0     O43748   1.946   2.800   3.921 -0.8039 -0.9141 -0.3544
  325MOL0     C43749   1.987   2.695   4.008 -0.1719 -0.9396  0.9848
  325MOL0     C43750   1.993   2.747   4.152 -0.8523 -0.3873  0.1643
  325MOL0     C43751   2.097   2.868   4.177 -0.4196 -1.0380  0.1466
  325MOL0     C43752   2.090   2.926   4.317 -0.8176 -0.9916  0.0143
  325MOL0     C43753   2.185   3.038   4.358  0.1288  0.1810 -0.2855
  325MOL0     C43754   2.145   3.101   4.488 -0.6441  0.1899  0.8211
  325MOL0     C43755   2.219   3.225   4.515  0.5195 -1.0157 -0.2578
  325MOL0     C43756   2.144   3.304   4.622 -0.4337 -0.2608  0.4220
  325MOL0     N43757   2.177   3.257   4.749  0.0128  0.0526 -0.6757
  325MOL0     C43758   2.282   3.295   4.830 -0.3543 -0.2462  0.6224
  325MOL0     C43759   2.294   3.211   4.934  0.3994  0.2097 -0.0934
  325MOL0     C43760   2.358   3.227   5.071 -0.8893  0.4257 -0.5965
  325MOL0     C43761   2.279   3.311   5.174  0.4543 -0.2216 -0.4683
  325MOL0     C43762   2.364   3.331   5.295 -0.2955  0.0626 -0.4938
  325MOL0     C43763   2.296   3.413   5.394  1.2629  0.3356 -1.2637
  325MOL0     O43764   2.391   3.467   5.490 -0.8838  0.1957  0.2810
  325MOL0     C43765   2.333   3.510   5.598 -0.7529 -0.8019 -0.5563
  325MOL0     C43766   2.311   3.644   5.616 -0.4948 -0.2685 -0.0572
  325MOL0     C43767   2.254   3.691   5.730  0.2535 -0.6038 -0.5902
  325MOL0     C43768   2.216   3.829   5.748 -0.2169 -0.0473 -0.0164
  325MOL0     C43769   2.223   3.600   5.839  0.4139  0.2020  0.2113
  325MOL0     C43770   2.169   3.640   5.968 -0.2147  0.1720 -0.4326
  325MOL0     O43771   2.213   3.575   6.079 -0.0982  0.0302  0.1819
  325MOL0     C43772   2.165   3.632   6.199  0.3401  0.4304  0.5338
  325MOL0     C43773   2.098   3.549   6.285 -0.8669 -0.3021  0.1890
  325MOL0     C43774   2.037   3.606   6.398  0.2678 -1.0980  0.3364
  325MOL0     C43775   2.076   3.734   6.449  0.2786  0.6904  0.2214
  325MOL0     O43776   2.057   3.778   6.577  0.4548 -0.1232  0.8481
  325MOL0     C43777   1.986   3.903   6.587 -0.2981 -0.5132  0.4236
  325MOL0     C43778   1.875   3.910   6.685 -0.7376 -0.3588 -0.0203
  325MOL0     C43779   1.768   3.805   6.667 -0.9088  0.4836  0.2688
  325MOL0     C43780   1.794   3.663   6.725  0.2866 -1.2912 -0.2550
  325MOL0     C43781   1.676   3.568   6.713 -0.2172 -0.3060 -0.0057
  325MOL0     C43782   1.705   3.428   6.775  0.7265  0.9650 -0.5059
  325MOL0     C43783   1.569   3.354   6.790 -0.5048 -0.2837  0.5988
  325MOL0     C43784   1.580   3.205   6.820  0.1027 -0.9654  0.1102
  325MOL0    Cl43785   1.629   3.112   6.668  0.1954 -0.3322 -0.3599
  325MOL0     C43786   2.159   3.813   6.365  0.9907  0.1837 -0.6686
  325MOL0     C43787   2.193   3.762   6.241 -0.2725 -0.4259 -0.3831
  325MOL0     O43788   2.079   3.730   5.971  0.0423 -0.2886 -0.1614
  325MOL0     C43789   2.257   3.469   5.829  1.3527 -0.1170  0.7577
  325MOL0     C43790   2.297   3.423   5.700  0.4501  0.5554  0.1077
  325MOL0     N43791   2.191   3.118   4.914 -0.1959 -0.4567  0.3465
  325MOL0     N43792   2.135   3.145   4.804  0.1027  0.5716 -0.5107
  325MOL0     C43793   1.934   2.876   3.703 -0.2238  0.0097 -0.0430
  325MOL0     C43794   1.958   2.857   3.564 -0.2133  0.0661 -0.4792
  325MOL0     C43795   1.875   2.658   3.171 -0.7782  0.5014  0.0387
  325MOL0     C43796   1.972   2.562   3.131  0.5251 -0.1195  0.2413
  325MOL0     C43797   1.941   2.480   3.024  0.4160 -0.5287 -0.7874
  325MOL0     C43798   1.830   2.495   2.946 -0.1472 -0.3889 -0.5395
  325MOL0     O43799   1.792   2.422   2.839  0.0053 -0.6126  0.9540
  325MOL0     C43800   1.903   2.389   2.758  0.3817  0.3911  0.8229
  325MOL0     C43801   1.825   2.334   2.632  0.1121  0.3173  0.2511
  325MOL0     C43802   1.756   2.190   2.657 -0.3377  0.1509  0.5770
  325MOL0     C43803   1.692   2.112   2.531 -0.2772 -0.2893 -0.0228
  325MOL0     C43804   1.599   2.205   2.459  0.0635  0.6864  0.3266
  325MOL0     C43805   1.555   2.300   2.398  0.6471  0.8173 -0.1530
  325MOL0     C43806   1.730   2.586   2.985  0.3845  0.2232 -0.9437
  325MOL0     C43807   1.756   2.664   3.098  0.1599  1.4167  0.0994
  325MOL0     H43808   2.018   2.525   3.547  0.5982  0.1627 -0.7751
  325MOL0     H43809   2.026   2.554   3.792  0.7079  0.2400  0.7674
  325MOL0     H43810   1.915   2.613   3.997 -0.0658 -0.7225 -2.8957
  325MOL0     H43811   2.084   2.661   3.972  1.4280  0.7907  3.3963
  325MOL0     H43812   1.891   2.773   4.179  0.3691  4.4865  0.9741
  325MOL0     H43813   2.031   2.668   4.217  1.7100 -1.0021 -1.8725
  325MOL0     H43814   2.196   2.825   4.159  0.7012  2.2840 -2.8110
  325MOL0     H43815   2.078   2.950   4.107 -1.4007 -0.0115  1.5364
  325MOL0     H43816   1.994   2.976   4.331 -0.8689 -0.5062 -1.8536
  325MOL0     H43817   2.085   2.834   4.376 -0.8423 -1.4304 -0.6717
  325MOL0     H43818   2.290   3.009   4.360  0.1693  0.3053 -0.4914
  325MOL0     H43819   2.167   3.114   4.281 -3.8527 -0.8804 -0.6478
  325MOL0     H43820   2.039   3.130   4.488 -0.0391  2.7303 -1.5650
  325MOL0     H43821   2.175   3.029   4.565  2.5801  0.0623 -0.4303
  325MOL0     H43822   2.319   3.205   4.555 -0.0751 -0.3499  1.6823
  325MOL0     H43823   2.205   3.282   4.422 -2.8960 -1.3733 -0.1054
  325MOL0     H43824   2.035   3.303   4.614 -0.5502 -0.8228  1.8035
  325MOL0     H43825   2.169   3.410   4.607  2.6762 -1.0728 -0.8608
  325MOL0     H43826   2.338   3.387   4.832  0.5824 -0.6807 -2.0068
  325MOL0     H43827   2.363   3.126   5.112  0.3437  1.1216  1.0777
  325MOL0     H43828   2.465   3.249   5.075 -0.7134 -0.4977  0.0227
  325MOL0     H43829   2.181   3.267   5.194  1.7510 -3.0979  0.0075
  325MOL0     H43830   2.252   3.405   5.124 -1.8121 -0.6766 -0.2121
  325MOL0     H43831   2.452   3.382   5.255  1.1309 -0.3836  1.8555
  325MOL0     H43832   2.393   3.237   5.343 -1.9315  0.0312  0.5257
  325MOL0     H43833   2.225   3.350   5.448  1.8216  2.5885  2.4542
  325MOL0     H43834   2.236   3.496   5.357 -1.0947  1.6645  4.4005
  325MOL0     H43835   2.324   3.719   5.538  1.7587  0.1033  0.6017
  325MOL0     H43836   2.109   3.851   5.747  0.1538  1.8906 -0.7420
  325MOL0     H43837   2.248   3.858   5.849 -1.2796  0.2664  0.2427
  325MOL0     H43838   2.280   3.884   5.679 -0.0362  0.7595  0.7721
  325MOL0     H43839   2.087   3.445   6.259 -0.5415 -0.7433  1.7079
  325MOL0     H43840   1.987   3.538   6.466  2.3544 -0.7044  2.4051
  325MOL0     H43841   2.065   3.976   6.606  0.2793 -1.0102 -0.0453
  325MOL0     H43842   1.953   3.941   6.490  1.9216  1.0297  0.2117
  325MOL0     H43843   1.928   3.909   6.781 -1.6279  2.9763  0.6567
  325MOL0     H43844   1.837   4.013   6.679  1.1324  0.4117  0.6544
  325MOL0     H43845   1.762   3.791   6.559  2.2168  1.5051 -0.1299
  325MOL0     H43846   1.672   3.847   6.701 -2.4370  1.3375 -4.4148
  325MOL0     H43847   1.881   3.615   6.680  0.3109 -1.1057 -0.4081
  325MOL0     H43848   1.823   3.673   6.830  1.3699  3.7518 -0.7822
  325MOL0     H43849   1.661   3.551   6.606  0.5207 -0.3167 -0.1137
  325MOL0     H43850   1.590   3.619   6.757 -1.1419 -1.6080 -0.2326
  325MOL0     H43851   1.761   3.358   6.713 -1.3243 -0.8521 -0.4486
  325MOL0     H43852   1.751   3.439   6.874 -0.3503 -1.3009  0.3323
  325MOL0     H43853   1.515   3.371   6.696  2.0229  2.7989 -0.4636
  325MOL0     H43854   1.516   3.412   6.866 -0.8471 -0.8515  0.8001
  325MOL0     H43855   1.479   3.183   6.857 -0.5120  2.4167  0.8350
  325MOL0     H43856   1.643   3.198   6.908  0.3594 -0.5225 -0.0316
  325MOL0     H43857   2.205   3.900   6.410  1.6081 -1.3423  1.8074
  325MOL0     H43858   2.266   3.823   6.188 -1.8708  2.2817  0.3797
  325MOL0     H43859   2.239   3.395   5.905  1.9405 -1.2261 -0.1572
  325MOL0     H43860   2.308   3.316   5.701  2.2848  0.5502  4.9143
  325MOL0     H43861   1.905   2.972   3.745  3.5118  0.9263  0.7846
  325MOL0     H43862   1.935   2.946   3.507  4.0292  2.1338  0.6004
  325MOL0     H43863   2.056   2.536   3.193 -0.2963  2.0353  2.4296
  325MOL0     H43864   2.006   2.394   3.009 -0.5053 -1.3189 -0.3172
  325MOL0     H43865   1.953   2.478   2.721 -1.3672  0.6326 -1.1638
  325MOL0     H43866   1.978   2.321   2.800  1.6651  0.4129 -1.2634
  325MOL0     H43867   1.894   2.317   2.549  0.7885 -0.2477  0.9059
  325MOL0     H43868   1.740   2.397   2.607 -1.3407 -1.5084  0.4004
  325MOL0     H43869   1.679   2.212   2.731  1.2660 -0.9800  2.7025
  325MOL0     H43870   1.827   2.133   2.718 -1.7373  2.5936  4.9283
  325MOL0     H43871   1.650   2.012   2.542  0.3351 -0.4838  0.6219
  325MOL0     H43872   1.784   2.096   2.474  0.8749  0.9210  1.4140
  325MOL0     H43873   1.527   2.382   2.335 -0.4108 -0.8364 -1.9770
  325MOL0     H43874   1.635   2.596   2.935 -0.3125 -1.2618  0.0227
  325MOL0     H43875   1.678   2.733   3.128 -0.4660  1.0540 -0.6730
  326MOL0     O43876   0.267   8.004  11.359 -0.5257  0.5961 -0.5646
  326MOL0     C43877   0.358   8.050  11.289  0.3626 -1.2273 -0.0023
  326MOL0     O43878   0.395   8.178  11.272  0.1205 -0.2779  0.5475
  326MOL0     C43879   0.308   8.266  11.327 -0.4487 -0.4342  0.5208
  326MOL0     C43880   0.222   8.331  11.239  1.4297  0.3935 -0.1656
  326MOL0     C43881   0.122   8.426  11.289 -0.2366  0.0624 -0.2179
  326MOL0     C43882   0.117   8.455  11.424  0.4957  0.0361 -0.9568
  326MOL0     O43883   0.011   8.532  11.464 -0.1831 -0.5735  0.2831
  326MOL0     C43884  -0.078   8.486  11.567 -1.0142  0.6377  1.0833
  326MOL0     C43885  -0.209   8.567  11.555  0.7025 -1.1082  1.2861
  326MOL0     C43886  -0.312   8.520  11.656 -0.5291  0.3687 -0.1203
  326MOL0     C43887  -0.390   8.396  11.606  0.5400 -0.2556  0.4257
  326MOL0     C43888  -0.478   8.340  11.723 -0.2673  0.6194  0.0388
  326MOL0     C43889  -0.577   8.446  11.776  0.4955 -0.0362  0.1548
  326MOL0     C43890  -0.657   8.419  11.909 -1.0432 -0.7632  0.7734
  326MOL0     C43891  -0.738   8.536  11.961 -0.1903  0.0208  0.7064
  326MOL0     N43892  -0.661   8.647  11.997 -0.0682 -0.0104  0.3756
  326MOL0     C43893  -0.547   8.650  12.062 -0.0531 -0.1580  0.2458
  326MOL0     C43894  -0.501   8.774  12.045  0.9650  0.1984  0.6235
  326MOL0     C43895  -0.349   8.819  12.063  0.7351  0.1351  0.5511
  326MOL0     C43896  -0.268   8.755  11.950 -0.7581 -0.5406  0.6559
  326MOL0     C43897  -0.127   8.817  11.950 -0.3195  0.2275  0.3477
  326MOL0     C43898  -0.023   8.737  11.878 -0.1034  0.8610 -0.0796
  326MOL0     O43899   0.028   8.619  11.951 -0.8027  1.5002  0.1540
  326MOL0     C43900   0.092   8.637  12.069 -0.0380  0.4168  0.6346
  326MOL0     C43901   0.042   8.577  12.184 -0.4523  0.9959  0.6116
  326MOL0     C43902   0.094   8.619  12.308  0.2466  0.2462  1.0377
  326MOL0     C43903   0.022   8.547  12.421 -0.0482 -0.0549 -0.3897
  326MOL0     C43904   0.205   8.710  12.321  0.7819 -0.1471  0.5441
  326MOL0     C43905   0.258   8.781  12.448 -0.1445 -0.0969  0.1560
  326MOL0     O43906   0.357   8.870  12.435 -0.3988  0.5426  0.6641
  326MOL0     C43907   0.443   8.907  12.534 -0.7194  0.8924 -0.9050
  326MOL0     C43908   0.487   9.040  12.536 -0.1304 -0.3686 -0.2808
  326MOL0     C43909   0.563   9.079  12.639  0.2513  1.0838 -0.8394
  326MOL0     C43910   0.615   9.001  12.743 -0.2649 -0.7451 -0.1808
  326MOL0     O43911   0.676   9.078  12.841  0.4569  0.4493 -0.1393
  326MOL0     C43912   0.782   9.008  12.898 -1.1761  0.0561  0.5501
  326MOL0     C43913   0.895   9.109  12.918 -0.2777  0.5203  0.4158
  326MOL0     C43914   1.019   9.029  12.945  0.1991  0.0135  1.3172
  326MOL0     C43915   1.026   8.950  13.074  0.8966  0.1521 -0.9263
  326MOL0     C43916   1.171   8.919  13.112  0.7693  1.3134  0.3405
  326MOL0     C43917   1.238   8.827  13.011 -0.4893  0.6397 -1.1561
  326MOL0     C43918   1.384   8.816  13.036 -0.4262  0.5611  0.1969
  326MOL0     C43919   1.430   8.684  12.980 -1.2667  0.5321  0.7957
  326MOL0    Cl43920   1.446   8.668  12.805 -0.7556 -0.1135  0.2304
  326MOL0     C43921   0.562   8.868  12.746 -0.9231 -0.7484  0.6725
  326MOL0     C43922   0.490   8.825  12.638 -0.4085  0.6842  0.7953
  326MOL0     O43923   0.207   8.740  12.553  0.5162 -0.4820 -0.2757
  326MOL0     C43924   0.257   8.765  12.203  0.2430 -0.4360  0.6962
  326MOL0     C43925   0.204   8.724  12.080  0.8715  0.0404 -0.6787
  326MOL0     N43926  -0.603   8.848  11.985 -0.1787 -0.6848  0.2944
  326MOL0     N43927  -0.691   8.770  11.941 -0.1514 -0.2528 -0.2342
  326MOL0     C43928   0.203   8.388  11.517  0.5247  0.0133 -0.5535
  326MOL0     C43929   0.296   8.290  11.472 -0.3975 -0.5636  0.0482
  326MOL0     C43930   0.436   7.946  11.227  0.5259  0.3051 -0.5604
  326MOL0     C43931   0.395   7.817  11.225 -0.3292  0.1151 -0.6205
  326MOL0     C43932   0.463   7.711  11.168  0.1257 -0.0755 -0.0490
  326MOL0     C43933   0.590   7.730  11.112 -0.0502 -1.0368  0.5470
  326MOL0     O43934   0.655   7.621  11.064 -0.2646  0.2788  0.3987
  326MOL0     C43935   0.796   7.626  11.054 -0.8177  0.1023  0.4405
  326MOL0     C43936   0.875   7.642  11.179  0.9483  0.0884 -1.1286
  326MOL0     C43937   0.821   7.545  11.284 -0.8136  1.4063  0.0177
  326MOL0     C43938   0.897   7.557  11.415  0.1353 -0.1257 -0.3414
  326MOL0     C43939   0.873   7.436  11.488  0.1722  0.0403 -1.2942
  326MOL0     C43940   0.836   7.339  11.555 -0.6997  0.2141  0.7758
  326MOL0     C43941   0.637   7.867  11.119  0.2826  0.4440  0.6153
  326MOL0     C43942   0.562   7.968  11.173  0.2560 -0.0710  0.3988
  326MOL0     H43943   0.217   8.311  11.132 -0.4114 -0.5150  0.0521
  326MOL0     H43944   0.058   8.469  11.212  0.6932 -0.7563 -1.4902
  326MOL0     H43945  -0.102   8.380  11.553  0.2830 -0.2006  4.2509
  326MOL0     H43946  -0.027   8.500  11.663  1.1640 -2.1016  0.4506
  326MOL0     H43947  -0.188   8.671  11.581 -0.7392 -0.4812  0.0800
  326MOL0     H43948  -0.257   8.572  11.457  0.9933 -0.5575  1.1646
  326MOL0     H43949  -0.271   8.502  11.755  0.4821 -1.1438 -0.7777
  326MOL0     H43950  -0.377   8.607  11.669 -2.7068 -0.9721 -1.3616
  326MOL0     H43951  -0.450   8.438  11.525  1.7418  1.2410  0.2619
  326MOL0     H43952  -0.335   8.308  11.572 -1.1494 -1.5101  0.8261
  326MOL0     H43953  -0.535   8.254  11.686  1.2408  0.2468 -1.5439
  326MOL0     H43954  -0.418   8.310  11.809  0.4859  0.8431 -0.4050
  326MOL0     H43955  -0.530   8.542  11.803 -1.8292  0.6201  2.2712
  326MOL0     H43956  -0.646   8.480  11.699  0.2941  0.2763  0.4722
  326MOL0     H43957  -0.723   8.334  11.888 -0.7126 -0.6694 -0.7663
  326MOL0     H43958  -0.582   8.392  11.983 -0.1710  1.2839  0.7142
  326MOL0     H43959  -0.793   8.489  12.043  2.3709 -2.6874  1.0440
  326MOL0     H43960  -0.811   8.557  11.883 -2.0854 -2.7456  1.5498
  326MOL0     H43961  -0.493   8.562  12.094  0.4469  0.5322  1.3549
  326MOL0     H43962  -0.353   8.929  12.061 -5.5716  0.2806 -0.5575
  326MOL0     H43963  -0.313   8.788  12.161  0.2538 -1.1735  0.3236
  326MOL0     H43964  -0.323   8.756  11.855  0.7464  0.3717 -0.2382
  326MOL0     H43965  -0.260   8.650  11.981  0.1902 -1.4280 -2.2298
  326MOL0     H43966  -0.085   8.831  12.051 -1.1135  1.9069  0.4854
  326MOL0     H43967  -0.128   8.917  11.906  2.1454  0.0042 -0.3926
  326MOL0     H43968   0.068   8.789  11.845  0.3554  2.0117  2.7402
  326MOL0     H43969  -0.085   8.695  11.799 -1.6259 -1.2525  2.1017
  326MOL0     H43970  -0.053   8.525  12.173  0.0003  0.3580 -0.3508
  326MOL0     H43971   0.093   8.523  12.501  1.9868  1.3868 -1.6707
  326MOL0     H43972  -0.048   8.614  12.472  0.0107  0.1171 -0.5352
  326MOL0     H43973  -0.033   8.457  12.390 -2.3901  1.5014 -1.0208
  326MOL0     H43974   0.445   9.105  12.460 -3.8211 -1.2382  0.8047
  326MOL0     H43975   0.579   9.186  12.649 -1.3288  1.4589 -1.9197
  326MOL0     H43976   0.752   8.951  12.986 -1.4185 -1.2158 -0.3172
  326MOL0     H43977   0.820   8.937  12.824  1.5239  2.9417 -1.0742
  326MOL0     H43978   0.891   9.168  12.826 -3.6409 -0.9526 -0.5439
  326MOL0     H43979   0.873   9.181  12.997 -0.2955 -1.3665  2.2290
  326MOL0     H43980   1.100   9.101  12.953  0.4278  0.0349 -0.6755
  326MOL0     H43981   1.035   8.971  12.853 -4.9051 -0.8814  0.6801
  326MOL0     H43982   0.962   9.006  13.143 -0.7780 -2.9729  0.2625
  326MOL0     H43983   0.966   8.859  13.062  1.1753  0.0440 -1.5671
  326MOL0     H43984   1.175   8.881  13.214  1.1241  1.5019  0.3983
  326MOL0     H43985   1.228   9.013  13.111 -0.8068  2.3280  1.1188
  326MOL0     H43986   1.187   8.731  13.022  0.8545  0.2331  6.0116
  326MOL0     H43987   1.228   8.871  12.911  0.0153  3.7480  0.0678
  326MOL0     H43988   1.395   8.818  13.145 -1.4947 -0.9963  0.3697
  326MOL0     H43989   1.434   8.902  12.989 -0.4568  0.8442  0.6710
  326MOL0     H43990   1.381   8.598  13.025 -1.1259 -1.1911 -2.1042
  326MOL0     H43991   1.534   8.673  13.013 -2.3733  0.4332  4.6874
  326MOL0     H43992   0.600   8.801  12.823  2.9559  1.7910  1.2676
  326MOL0     H43993   0.454   8.722  12.637  0.2796  0.3544 -2.3992
  326MOL0     H43994   0.346   8.827  12.195  1.0107 -1.3694  1.6661
  326MOL0     H43995   0.239   8.758  11.984 -0.4600  1.4535 -0.6825
  326MOL0     H43996   0.188   8.393  11.625 -1.0290  0.4169 -0.7645
  326MOL0     H43997   0.353   8.241  11.550  2.9293  0.2074 -1.7166
  326MOL0     H43998   0.297   7.783  11.257 -0.4893  1.1258 -0.0180
  326MOL0     H43999   0.429   7.608  11.164  0.6845 -0.2505 -0.4009
  326MOL0     H44000   0.839   7.544  10.996  1.4805  2.2350 -1.0711
  326MOL0     H44001   0.814   7.704  10.980  1.0551 -1.5001 -0.9176
  326MOL0     H44002   0.871   7.747  11.207  0.7992 -0.0434 -0.6452
  326MOL0     H44003   0.980   7.611  11.177  0.5774 -1.5148  0.7740
  326MOL0     H44004   0.825   7.445  11.239  3.6441  0.0679  2.7909
  326MOL0     H44005   0.717   7.569  11.307 -0.6288  2.0062  0.2332
  326MOL0     H44006   0.861   7.639  11.478 -1.2886 -0.0818 -1.1665
  326MOL0     H44007   1.003   7.575  11.396 -0.1661  3.1199  0.4425
  326MOL0     H44008   0.803   7.249  11.603  2.2237 -1.0453  0.6745
  326MOL0     H44009   0.741   7.892  11.103 -0.0808  1.7935  0.1412
  326MOL0     H44010   0.602   8.067  11.193 -2.4525  1.2254 -0.1374
  327MOL0     O44011  10.165   0.345   7.044  0.3826 -0.0464 -0.5603
  327MOL0     C44012  10.139   0.263   7.131 -0.1399  0.7241  0.2230
  327MOL0     O44013  10.103   0.129   7.114 -0.0138 -0.5484 -0.4024
  327MOL0     C44014  10.076   0.082   6.985 -0.0376  0.4853  1.0737
  327MOL0     C44015  10.097  -0.060   6.968 -0.6746  0.8239  0.5963
  327MOL0     C44016  10.069  -0.128   6.845  0.1841 -0.0561  0.0041
  327MOL0     C44017  10.038  -0.053   6.726 -0.2051 -0.2853 -0.3335
  327MOL0     O44018  10.023  -0.114   6.601 -0.0318  0.2921 -0.2023
  327MOL0     C44019  10.051  -0.253   6.587  0.3681 -1.0398  0.0238
  327MOL0     C44020  10.039  -0.288   6.441  0.3149  0.5756  0.7396
  327MOL0     C44021  10.101  -0.428   6.417 -0.0722  0.6593  0.3435
  327MOL0     C44022   9.997  -0.535   6.419 -0.3989 -0.2090  0.0578
  327MOL0     C44023  10.057  -0.682   6.423  0.6002  0.3174  0.1649
  327MOL0     C44024   9.954  -0.787   6.380  0.2977  0.6279  0.6332
  327MOL0     C44025  10.027  -0.922   6.356 -0.2397  0.0703 -0.1191
  327MOL0     C44026   9.909  -1.010   6.310 -0.3920 -0.4473  0.2124
  327MOL0     N44027   9.939  -1.155   6.348  0.4013  0.3054  0.9348
  327MOL0     C44028   9.937  -1.203   6.474  0.3521  0.8246 -0.3758
  327MOL0     C44029   9.992  -1.327   6.473 -0.0982  0.1756  0.5310
  327MOL0     C44030  10.023  -1.417   6.586  0.3505  0.0112 -0.5282
  327MOL0     C44031  10.161  -1.409   6.637  0.2989 -0.4358 -0.0223
  327MOL0     C44032  10.181  -1.508   6.749  0.7351  1.2188  0.4145
  327MOL0     C44033  10.260  -1.630   6.708 -0.5429 -0.3246 -0.6840
  327MOL0     O44034  10.201  -1.685   6.581 -0.4068 -0.6353  0.0880
  327MOL0     C44035  10.288  -1.749   6.501  0.0826  0.9315  0.2226
  327MOL0     C44036  10.253  -1.757   6.364  0.4657 -0.9135 -0.7634
  327MOL0     C44037  10.339  -1.810   6.267 -0.4529  0.4442  0.1012
  327MOL0     C44038  10.299  -1.815   6.123  0.4452 -0.0152 -0.3827
  327MOL0     C44039  10.453  -1.876   6.318 -0.1551 -0.0854  0.0959
  327MOL0     C44040  10.555  -1.940   6.227  0.2317 -0.6220 -0.2820
  327MOL0     O44041  10.644  -2.040   6.288  0.4450  0.0382  0.0700
  327MOL0     C44042  10.717  -2.133   6.225  0.4975  0.3317 -0.6533
  327MOL0     C44043  10.704  -2.171   6.089  0.4148  0.4381  0.1695
  327MOL0     C44044  10.775  -2.286   6.031  0.4180  0.1005 -1.5543
  327MOL0     C44045  10.862  -2.343   6.122 -0.1684 -0.3659  0.1903
  327MOL0     O44046  10.935  -2.438   6.051 -0.2084  0.0076  0.0437
  327MOL0     C44047  11.029  -2.523   6.116 -0.5944  0.1055 -0.6009
  327MOL0     C44048  11.100  -2.609   6.009  0.7598 -0.4729  0.5867
  327MOL0     C44049  11.210  -2.537   5.924  0.0732 -0.7511 -0.4999
  327MOL0     C44050  11.255  -2.621   5.796  0.2755 -0.8870 -0.9438
  327MOL0     C44051  11.378  -2.705   5.827 -0.0243 -0.0416 -0.2052
  327MOL0     C44052  11.434  -2.792   5.704 -0.0600 -1.1029 -0.3351
  327MOL0     C44053  11.530  -2.892   5.751  0.3390  0.5031  0.6425
  327MOL0     C44054  11.625  -2.925   5.633  0.4716 -0.2412  0.0256
  327MOL0    Cl44055  11.743  -3.047   5.682 -0.3767  0.2575  0.3945
  327MOL0     C44056  10.887  -2.306   6.255  0.0871  0.2789  0.3566
  327MOL0     C44057  10.793  -2.209   6.312 -0.5262  0.1887  0.0766
  327MOL0     O44058  10.559  -1.916   6.109 -0.4066  0.5034  0.2736
  327MOL0     C44059  10.480  -1.892   6.455 -0.3145  0.0583 -0.1957
  327MOL0     C44060  10.395  -1.835   6.545 -0.1238 -0.7455 -0.5950
  327MOL0     N44061   9.994  -1.368   6.340 -0.0626 -0.4761  0.3058
  327MOL0     N44062   9.979  -1.261   6.265 -0.3000  0.2260  0.3759
  327MOL0     C44063  10.016   0.087   6.743 -0.5721  0.6739  0.3736
  327MOL0     C44064  10.029   0.151   6.867 -0.6961  0.4741  0.1536
  327MOL0     C44065  10.186   0.304   7.263  0.0587 -0.4668 -0.4932
  327MOL0     C44066  10.178   0.203   7.369  0.0215 -0.2446 -0.0666
  327MOL0     C44067  10.234   0.229   7.496 -0.1549 -0.2600 -0.2872
  327MOL0     C44068  10.286   0.356   7.518 -0.2788  0.3256 -0.8833
  327MOL0     O44069  10.322   0.374   7.655 -0.0967 -0.2055  0.6322
  327MOL0     C44070  10.276   0.498   7.717 -0.6019 -0.3151  0.5962
  327MOL0     C44071  10.324   0.510   7.861 -0.0827 -0.1660 -0.9710
  327MOL0     C44072  10.368   0.658   7.898  0.4124 -0.8039 -0.2264
  327MOL0     C44073  10.237   0.730   7.942 -0.0816  0.1440 -0.7484
  327MOL0     C44074  10.274   0.865   7.963  0.2450 -0.0172 -0.9653
  327MOL0     C44075  10.291   0.985   7.998 -0.1599  0.0393 -0.3816
  327MOL0     C44076  10.284   0.458   7.416  0.3897  0.6928 -1.0052
  327MOL0     C44077  10.244   0.432   7.288  0.7284  0.6923  0.7775
  327MOL0     H44078  10.133  -0.110   7.057 -0.1004  2.4836  1.3191
  327MOL0     H44079  10.080  -0.236   6.840 -2.5919 -0.4491  0.4319
  327MOL0     H44080  10.156  -0.264   6.614 -0.3882 -1.0926  3.4173
  327MOL0     H44081   9.982  -0.309   6.651  0.1307 -2.7519 -1.6687
  327MOL0     H44082   9.943  -0.259   6.398  0.8711  0.5153 -0.5960
  327MOL0     H44083  10.101  -0.220   6.382 -0.6114  1.3427  0.6250
  327MOL0     H44084  10.165  -0.439   6.329 -2.1871 -1.2592 -1.0742
  327MOL0     H44085  10.156  -0.459   6.506  1.2893 -1.0181 -0.9987
  327MOL0     H44086   9.930  -0.514   6.504  2.1543  1.3308  1.8326
  327MOL0     H44087   9.938  -0.527   6.327 -1.1860  1.9738  0.6687
  327MOL0     H44088  10.141  -0.688   6.353  2.0577  1.5843  1.7109
  327MOL0     H44089  10.091  -0.712   6.523  0.1332 -0.9089 -0.0331
  327MOL0     H44090   9.873  -0.800   6.453 -2.5943  2.1639 -2.0343
  327MOL0     H44091   9.901  -0.764   6.287 -1.8569 -1.1047  1.3480
  327MOL0     H44092  10.105  -0.919   6.280  2.1948 -1.8695  2.1367
  327MOL0     H44093  10.061  -0.960   6.453 -1.3645 -0.0818  0.2378
  327MOL0     H44094   9.900  -0.996   6.202  3.7885  3.0712  0.0362
  327MOL0     H44095   9.813  -0.976   6.351 -1.1747 -2.6550  0.3764
  327MOL0     H44096   9.898  -1.150   6.561 -0.7970 -0.4494 -0.0729
  327MOL0     H44097   9.947  -1.389   6.659 -0.7220  1.6511 -2.1818
  327MOL0     H44098  10.006  -1.521   6.558 -1.6455 -1.1413  4.0376
  327MOL0     H44099  10.181  -1.309   6.677 -0.8635  0.0530 -0.6000
  327MOL0     H44100  10.241  -1.427   6.564  2.6332  1.1845  1.9660
  327MOL0     H44101  10.087  -1.544   6.791  0.2753  0.8644 -0.8963
  327MOL0     H44102  10.232  -1.450   6.827  1.0496 -0.4592  1.5100
  327MOL0     H44103  10.282  -1.696   6.792 -0.5203 -0.0037 -0.4345
  327MOL0     H44104  10.358  -1.593   6.677 -0.4616 -1.8454 -2.4360
  327MOL0     H44105  10.166  -1.700   6.331  0.9678 -1.5028 -3.2342
  327MOL0     H44106  10.373  -1.757   6.066  1.8813  1.0039  2.3197
  327MOL0     H44107  10.294  -1.915   6.079  1.2304 -0.2047 -0.0758
  327MOL0     H44108  10.203  -1.768   6.102 -1.1990 -4.0517 -3.1123
  327MOL0     H44109  10.638  -2.115   6.024  0.9381  0.4455 -0.3621
  327MOL0     H44110  10.768  -2.317   5.927  0.0800  1.1653 -1.8559
  327MOL0     H44111  11.103  -2.476   6.181 -1.5350 -0.7913  1.1827
  327MOL0     H44112  10.980  -2.590   6.188  0.2042 -1.1495 -1.1906
  327MOL0     H44113  11.154  -2.693   6.056  2.4016  0.4649  0.4542
  327MOL0     H44114  11.026  -2.649   5.939  0.3624 -1.3066  1.4513
  327MOL0     H44115  11.284  -2.512   6.000  0.0404  0.0868 -0.7291
  327MOL0     H44116  11.167  -2.439   5.901  1.4624  0.1098  0.4451
  327MOL0     H44117  11.172  -2.682   5.759  0.2339 -1.0068 -0.6489
  327MOL0     H44118  11.283  -2.550   5.717  0.5775  2.5435  2.0071
  327MOL0     H44119  11.349  -2.770   5.911  1.3602 -1.0264 -0.4513
  327MOL0     H44120  11.460  -2.644   5.864  0.3760 -2.0442  2.5389
  327MOL0     H44121  11.354  -2.836   5.644 -0.4231 -2.3283  1.0008
  327MOL0     H44122  11.474  -2.721   5.631 -2.4185 -1.3267 -1.9582
  327MOL0     H44123  11.476  -2.985   5.768  3.4718 -1.5135  0.5270
  327MOL0     H44124  11.586  -2.870   5.842  0.2178 -0.1197  0.8749
  327MOL0     H44125  11.675  -2.831   5.607 -2.1258  0.9479 -1.1943
  327MOL0     H44126  11.584  -2.950   5.535 -0.9187  1.9343 -0.0260
  327MOL0     H44127  10.966  -2.337   6.322  0.4275  1.0602  0.3324
  327MOL0     H44128  10.776  -2.196   6.418  1.4139  3.1562  0.1439
  327MOL0     H44129  10.558  -1.960   6.487 -0.0190 -0.3020 -1.6218
  327MOL0     H44130  10.432  -1.851   6.646  2.1347 -0.0112 -1.2286
  327MOL0     H44131   9.990   0.139   6.651  0.5857  1.0282  0.2351
  327MOL0     H44132   9.993   0.253   6.879 -0.5741  0.5297  0.0505
  327MOL0     H44133  10.150   0.100   7.347  1.7213 -0.7188 -0.1942
  327MOL0     H44134  10.243   0.147   7.567  0.6216  1.0670  1.2114
  327MOL0     H44135  10.330   0.573   7.659 -0.1124  0.4496  1.9791
  327MOL0     H44136  10.169   0.517   7.713 -0.5003  0.3070  0.7354
  327MOL0     H44137  10.416   0.454   7.883 -1.8357 -3.1693 -0.8005
  327MOL0     H44138  10.248   0.461   7.922 -2.2860  2.4119 -1.4833
  327MOL0     H44139  10.414   0.700   7.809 -0.5638 -1.1299 -0.9091
  327MOL0     H44140  10.444   0.659   7.976  2.1218 -1.7734 -1.8183
  327MOL0     H44141  10.190   0.703   8.037 -2.5723  0.6056 -1.7815
  327MOL0     H44142  10.157   0.732   7.868 -0.7944  1.4544  0.0342
  327MOL0     H44143  10.305   1.091   8.008  1.6870 -0.3278  1.6577
  327MOL0     H44144  10.322   0.552   7.455 -0.8108 -0.1885  2.7213
  327MOL0     H44145  10.242   0.515   7.218 -0.1257 -1.1833 -1.5599
  328MOL0     O44146   3.167   7.655   7.751  0.2905  0.3882  0.5971
  328MOL0     C44147   3.242   7.588   7.817  0.1133  1.2015  0.3355
  328MOL0     O44148   3.314   7.478   7.775  0.1446 -0.7312 -0.0147
  328MOL0     C44149   3.341   7.465   7.641  0.5553 -0.7392  1.0079
  328MOL0     C44150   3.344   7.330   7.584  0.2353 -0.9893 -0.3725
  328MOL0     C44151   3.372   7.321   7.441  0.0220  0.1072  0.2512
  328MOL0     C44152   3.402   7.431   7.357 -0.9934  0.7391 -0.1394
  328MOL0     O44153   3.417   7.408   7.226 -0.5274  0.0556 -0.7626
  328MOL0     C44154   3.415   7.524   7.140 -0.3453  0.3672  1.0027
  328MOL0     C44155   3.438   7.470   6.999 -1.1323  0.1493 -0.6187
  328MOL0     C44156   3.579   7.424   6.970  0.4681  0.6119  1.2056
  328MOL0     C44157   3.556   7.338   6.838  0.2050 -0.5036 -0.1697
  328MOL0     C44158   3.684   7.262   6.788 -0.1332 -0.8538  0.2063
  328MOL0     C44159   3.659   7.175   6.660 -0.4071 -0.8717 -1.0964
  328MOL0     C44160   3.762   7.063   6.650  0.1202 -0.2648 -0.6003
  328MOL0     C44161   3.711   6.935   6.570  0.0921 -0.3687  1.1134
  328MOL0     N44162   3.603   6.866   6.651 -0.6646 -0.7371 -0.4806
  328MOL0     C44163   3.472   6.916   6.655 -0.2448  0.0573  0.1210
  328MOL0     C44164   3.420   6.832   6.737  1.4410  0.0959  0.2571
  328MOL0     C44165   3.269   6.824   6.773 -0.2599 -0.9616 -0.2578
  328MOL0     C44166   3.234   6.683   6.821  0.2614  0.2043 -0.3023
  328MOL0     C44167   3.090   6.687   6.869 -0.2429 -0.1068  0.4347
  328MOL0     C44168   3.048   6.556   6.927 -0.4136  1.0834  0.3101
  328MOL0     O44169   2.911   6.558   6.974 -0.1019  0.2451 -0.1373
  328MOL0     C44170   2.864   6.491   7.084 -0.0875 -0.6361 -0.0518
  328MOL0     C44171   2.949   6.429   7.178  0.0975  0.0863 -0.6607
  328MOL0     C44172   2.905   6.358   7.282  0.2744 -0.6252 -0.3939
  328MOL0     C44173   3.009   6.295   7.370 -0.5765  1.2507 -0.7728
  328MOL0     C44174   2.758   6.349   7.305 -0.3552 -0.0048 -0.3147
  328MOL0     C44175   2.687   6.285   7.417  0.3607  0.7167 -0.6141
  328MOL0     O44176   2.734   6.165   7.459  0.0977 -0.4361  0.3082
  328MOL0     C44177   2.678   6.053   7.399  0.8477  0.4548 -0.3519
  328MOL0     C44178   2.629   6.044   7.268 -0.0485 -1.4970  0.4840
  328MOL0     C44179   2.556   5.933   7.219 -0.3066 -0.1341 -0.6308
  328MOL0     C44180   2.536   5.821   7.304  0.1576 -0.4706 -0.0732
  328MOL0     O44181   2.461   5.717   7.244 -0.0595  0.4122  0.3743
  328MOL0     C44182   2.430   5.610   7.330 -0.9535 -0.8027 -1.1088
  328MOL0     C44183   2.320   5.514   7.284 -0.2565 -0.2209  0.1050
  328MOL0     C44184   2.376   5.429   7.162 -0.9008 -0.8879  0.1302
  328MOL0     C44185   2.264   5.332   7.115  0.6637  0.5837 -0.2460
  328MOL0     C44186   2.317   5.264   6.992 -0.5746  0.1672  0.3490
  328MOL0     C44187   2.195   5.182   6.931 -0.1117 -0.0887  0.3205
  328MOL0     C44188   2.262   5.085   6.835  0.1286  0.2763  0.3798
  328MOL0     C44189   2.165   5.004   6.743  0.6417 -0.3527 -0.8009
  328MOL0    Cl44190   2.254   4.902   6.628 -0.5214 -0.6022 -0.2846
  328MOL0     C44191   2.591   5.823   7.429 -0.3774  0.5094 -0.1333
  328MOL0     C44192   2.661   5.936   7.483 -0.3181  0.0916 -0.8463
  328MOL0     O44193   2.580   6.328   7.451  0.6219 -0.2061  0.0720
  328MOL0     C44194   2.676   6.426   7.219 -0.6245 -0.3756 -0.9074
  328MOL0     C44195   2.729   6.492   7.108 -0.5961 -0.5996 -0.7790
  328MOL0     N44196   3.503   6.737   6.783 -0.9783  0.9309 -0.4059
  328MOL0     N44197   3.614   6.757   6.719 -0.0304  0.0035 -0.2723
  328MOL0     C44198   3.391   7.558   7.416  0.0365  0.6930 -0.1139
  328MOL0     C44199   3.371   7.578   7.551 -0.4598  0.1401 -0.0973
  328MOL0     C44200   3.256   7.629   7.958 -0.3969  0.4555 -0.0541
  328MOL0     C44201   3.199   7.751   8.007  0.1452  0.4507 -0.1361
  328MOL0     C44202   3.204   7.778   8.147 -1.6443  1.1416  0.3635
  328MOL0     C44203   3.268   7.691   8.231 -0.0925 -0.3156  0.4712
  328MOL0     O44204   3.260   7.717   8.368  0.0255 -0.1051 -0.2950
  328MOL0     C44205   3.353   7.653   8.456 -0.6428 -0.1839 -0.1139
  328MOL0     C44206   3.501   7.707   8.439 -0.5204  0.2912 -0.4241
  328MOL0     C44207   3.605   7.624   8.519  0.0492 -0.1425 -0.0011
  328MOL0     C44208   3.624   7.494   8.442  0.6685  1.1184 -0.1972
  328MOL0     C44209   3.722   7.409   8.517 -0.0687 -0.3151  0.9671
  328MOL0     C44210   3.806   7.337   8.577 -0.5804 -0.2878  0.4091
  328MOL0     C44211   3.330   7.575   8.179 -0.3031 -0.3670 -0.6537
  328MOL0     C44212   3.327   7.542   8.048 -0.2889 -0.3475  0.1014
  328MOL0     H44213   3.316   7.243   7.643 -1.4268 -0.6428 -0.6115
  328MOL0     H44214   3.364   7.221   7.398 -1.8608  1.2225 -2.2236
  328MOL0     H44215   3.319   7.576   7.141  0.7697  2.7135 -1.6752
  328MOL0     H44216   3.490   7.600   7.165 -1.3085  1.9352 -0.6565
  328MOL0     H44217   3.359   7.395   6.991 -1.5732  0.7177 -1.7950
  328MOL0     H44218   3.418   7.543   6.920 -0.9393  1.4783  0.5166
  328MOL0     H44219   3.645   7.508   6.951  0.1745  0.5861  0.0061
  328MOL0     H44220   3.621   7.361   7.049  1.2065 -0.2583  0.1586
  328MOL0     H44221   3.478   7.267   6.866 -1.7115  1.8977  0.8920
  328MOL0     H44222   3.525   7.402   6.756  3.0811  2.6589  0.9294
  328MOL0     H44223   3.768   7.331   6.786 -1.1999  0.4545 -0.9800
  328MOL0     H44224   3.705   7.191   6.869  0.6375 -1.3170 -0.3875
  328MOL0     H44225   3.551   7.158   6.654 -1.1380  2.6566 -0.3712
  328MOL0     H44226   3.677   7.234   6.569 -3.7377 -1.0774 -2.0140
  328MOL0     H44227   3.859   7.096   6.612  1.1542  1.8784  3.3386
  328MOL0     H44228   3.785   7.026   6.751 -0.5226  4.2246  1.4133
  328MOL0     H44229   3.796   6.867   6.558  0.8583  0.3020  2.3810
  328MOL0     H44230   3.672   6.947   6.469  2.8686 -0.9918 -0.1512
  328MOL0     H44231   3.428   6.995   6.595  1.8040  0.1892 -1.2993
  328MOL0     H44232   3.247   6.907   6.842  0.3643  1.7331 -3.0787
  328MOL0     H44233   3.206   6.851   6.687 -5.1142  2.7884  3.8139
  328MOL0     H44234   3.308   6.652   6.895  0.5094 -0.3501 -0.7825
  328MOL0     H44235   3.236   6.613   6.737 -2.4893 -0.8964  0.4457
  328MOL0     H44236   3.021   6.706   6.786  2.0285 -0.4848 -1.6628
  328MOL0     H44237   3.080   6.761   6.949 -3.7366  0.0691  0.0014
  328MOL0     H44238   3.122   6.535   7.005  0.6517  0.5223 -0.8013
  328MOL0     H44239   3.060   6.470   6.860  1.1456 -1.5192  3.6221
  328MOL0     H44240   3.049   6.405   7.144 -0.1851 -1.7036 -0.3623
  328MOL0     H44241   3.107   6.333   7.339 -1.0693  0.2878 -3.8521
  328MOL0     H44242   2.994   6.333   7.472  1.6898  0.8448 -0.2276
  328MOL0     H44243   3.013   6.188   7.351  0.2775  0.6853  2.0657
  328MOL0     H44244   2.641   6.126   7.198  2.5940 -1.7110  0.6005
  328MOL0     H44245   2.502   5.947   7.126 -0.5925  0.1525 -0.4246
  328MOL0     H44246   2.517   5.554   7.364  0.2106  2.2239  1.3709
  328MOL0     H44247   2.393   5.662   7.419  0.2159  1.7402 -2.0211
  328MOL0     H44248   2.293   5.441   7.361 -1.4755 -1.5787 -1.5441
  328MOL0     H44249   2.230   5.567   7.251 -0.0496  0.0986  0.0402
  328MOL0     H44250   2.454   5.364   7.203  2.2184  0.3435 -3.3220
  328MOL0     H44251   2.408   5.500   7.085  1.9242 -0.9764  1.1171
  328MOL0     H44252   2.224   5.262   7.189 -0.3391  1.4692  0.0822
  328MOL0     H44253   2.176   5.396   7.101  0.1211 -0.2495 -0.7575
  328MOL0     H44254   2.408   5.205   7.005  0.2325  0.8510 -1.7632
  328MOL0     H44255   2.343   5.338   6.916  0.7024  0.7947  1.3598
  328MOL0     H44256   2.156   5.124   7.015  0.7429  1.6968  2.0359
  328MOL0     H44257   2.122   5.250   6.887  0.0854  2.2804  3.3385
  328MOL0     H44258   2.331   5.016   6.884 -0.8407 -1.1176 -0.1713
  328MOL0     H44259   2.323   5.141   6.763 -0.7209  1.0322  0.2354
  328MOL0     H44260   2.109   5.067   6.673  1.0581 -0.7370 -1.4864
  328MOL0     H44261   2.101   4.938   6.803 -0.3608  0.9693 -0.3422
  328MOL0     H44262   2.581   5.747   7.505 -3.6767  1.5662  0.6628
  328MOL0     H44263   2.696   5.938   7.586 -2.0558 -0.9107 -0.2066
  328MOL0     H44264   2.569   6.433   7.237 -0.4951 -3.0534  1.5330
  328MOL0     H44265   2.668   6.546   7.037  1.2722 -0.5562 -2.4673
  328MOL0     H44266   3.421   7.649   7.364  0.7156 -0.4924 -1.8982
  328MOL0     H44267   3.371   7.678   7.592 -1.4207 -1.0331  3.1245
  328MOL0     H44268   3.146   7.808   7.932  3.3172  1.7031 -1.6275
  328MOL0     H44269   3.168   7.868   8.195  0.6392  0.5277  3.5304
  328MOL0     H44270   3.333   7.683   8.559  0.3047  0.7841 -0.1865
  328MOL0     H44271   3.336   7.545   8.463  0.9084 -0.3468  2.7815
  328MOL0     H44272   3.501   7.811   8.473 -1.5150 -0.4508  2.0478
  328MOL0     H44273   3.529   7.707   8.333 -0.2420 -0.0908 -0.3540
  328MOL0     H44274   3.572   7.615   8.623 -1.7084  0.1597 -0.5015
  328MOL0     H44275   3.697   7.683   8.517 -0.8951  1.3869 -0.6675
  328MOL0     H44276   3.654   7.519   8.340 -0.3402  0.5384 -0.6562
  328MOL0     H44277   3.533   7.433   8.436 -0.1943  2.3799 -0.4716
  328MOL0     H44278   3.861   7.276   8.646  0.3695  0.0499 -0.0439
  328MOL0     H44279   3.397   7.519   8.244 -1.0404 -0.7706 -0.2107
  328MOL0     H44280   3.381   7.458   8.005  0.4191  0.6956 -1.1224
  329MOL0     O44281   8.118   6.869   8.909  0.8672 -0.1150 -0.0049
  329MOL0     C44282   8.231   6.914   8.925  0.0186 -0.8175  0.3244
  329MOL0     O44283   8.273   7.028   8.993  0.6325  0.1920 -0.8831
  329MOL0     C44284   8.184   7.076   9.080 -0.0686  0.1832  0.2348
  329MOL0     C44285   8.131   6.998   9.185  0.6203 -0.4615 -0.5979
  329MOL0     C44286   8.027   7.053   9.260 -1.5875  0.4169  0.0769
  329MOL0     C44287   7.986   7.187   9.246 -0.3333 -0.4606  1.0093
  329MOL0     O44288   7.891   7.256   9.318 -0.2641  0.3291 -0.2709
  329MOL0     C44289   7.843   7.201   9.445  0.0757 -0.3207  0.4349
  329MOL0     C44290   7.731   7.303   9.479  0.0504 -0.0486 -1.2659
  329MOL0     C44291   7.785   7.424   9.552 -0.4506 -0.6222  0.9228
  329MOL0     C44292   7.679   7.519   9.602  0.1475 -0.3791 -0.2354
  329MOL0     C44293   7.625   7.612   9.490  0.1635  0.6049  0.1598
  329MOL0     C44294   7.517   7.711   9.558 -0.5871  0.1012  0.0551
  329MOL0     C44295   7.474   7.828   9.469  0.2181  0.6662 -0.5812
  329MOL0     C44296   7.451   7.795   9.321 -0.5789 -0.0496  0.0934
  329MOL0     N44297   7.383   7.915   9.276  0.2184 -1.1606 -0.6746
  329MOL0     C44298   7.247   7.926   9.236  0.7268  0.5853  0.2702
  329MOL0     C44299   7.231   8.046   9.170  0.0453  0.1295 -0.3335
  329MOL0     C44300   7.097   8.103   9.131  0.1602  0.4627  0.0149
  329MOL0     C44301   7.004   7.998   9.075  0.9284 -0.0723 -0.4870
  329MOL0     C44302   6.862   8.042   9.042 -0.7436  0.9267  0.8045
  329MOL0     C44303   6.780   7.927   8.972  0.7432  0.0173  0.0183
  329MOL0     O44304   6.639   7.949   8.991 -0.2612  0.0819 -0.1704
  329MOL0     C44305   6.574   8.029   8.899  0.5150 -0.2274  0.7138
  329MOL0     C44306   6.440   8.056   8.922 -0.0396  0.9244 -0.2697
  329MOL0     C44307   6.349   8.126   8.846  0.1987  0.3148  0.3259
  329MOL0     C44308   6.201   8.108   8.874  0.1048 -0.4895 -0.4518
  329MOL0     C44309   6.402   8.186   8.733 -0.5361  0.3922  0.7685
  329MOL0     C44310   6.320   8.246   8.633  0.5516  0.1459 -0.0951
  329MOL0     O44311   6.363   8.367   8.584  0.2654 -0.0693  0.5186
  329MOL0     C44312   6.303   8.407   8.465  0.8700  0.2389 -0.6580
  329MOL0     C44313   6.337   8.347   8.344 -0.7072 -1.0883 -1.1468
  329MOL0     C44314   6.263   8.359   8.227  0.8375  0.1825  0.3416
  329MOL0     C44315   6.166   8.448   8.233 -0.0630 -0.8993 -1.0386
  329MOL0     O44316   6.106   8.470   8.109 -0.0661  0.0425  0.3651
  329MOL0     C44317   5.965   8.521   8.100  0.3287  0.8574 -1.1907
  329MOL0     C44318   5.960   8.666   8.056  0.4785 -0.4385  0.3455
  329MOL0     C44319   5.935   8.681   7.911  0.1579 -0.2105  0.0569
  329MOL0     C44320   5.902   8.834   7.877 -0.8152  0.6501 -0.1013
  329MOL0     C44321   5.756   8.857   7.857 -0.4513  0.1281  0.1197
  329MOL0     C44322   5.662   8.838   7.972  0.4011 -0.7143  0.8062
  329MOL0     C44323   5.515   8.837   7.928  0.6809 -0.3179  0.4177
  329MOL0     C44324   5.415   8.872   8.033 -0.2584 -0.8173  0.5620
  329MOL0    Cl44325   5.249   8.857   7.964 -0.2271  0.0084 -0.1869
  329MOL0     C44326   6.129   8.523   8.348  0.0646 -0.2290  0.7870
  329MOL0     C44327   6.196   8.502   8.464 -0.6885  0.3221  0.1566
  329MOL0     O44328   6.214   8.188   8.591 -0.0727 -0.2156 -0.0270
  329MOL0     C44329   6.547   8.171   8.699 -0.2264 -0.7038 -0.2713
  329MOL0     C44330   6.635   8.099   8.788  0.4860  0.7357  0.6838
  329MOL0     N44331   7.355   8.107   9.170 -0.4754 -1.0871 -0.7486
  329MOL0     N44332   7.440   8.029   9.235  0.6986 -0.4066  0.0798
  329MOL0     C44333   8.055   7.267   9.152 -0.2820 -0.3907 -0.7356
  329MOL0     C44334   8.148   7.211   9.068  0.3304 -0.4382  0.0046
  329MOL0     C44335   8.330   6.842   8.840  0.2873  0.1413 -0.1745
  329MOL0     C44336   8.465   6.855   8.868  0.7487  0.1438  0.8899
  329MOL0     C44337   8.554   6.804   8.774 -0.5272 -0.4630 -0.9026
  329MOL0     C44338   8.518   6.733   8.663  0.5752  0.9338  0.2291
  329MOL0     O44339   8.624   6.684   8.581  0.9448 -1.5262 -0.7179
  329MOL0     C44340   8.624   6.560   8.525 -0.0360  0.5628 -0.6865
  329MOL0     C44341   8.680   6.456   8.620  0.0242 -0.4723  0.3607
  329MOL0     C44342   8.821   6.502   8.657  0.8351 -0.7652 -1.2320
  329MOL0     C44343   8.896   6.396   8.729  0.0406  0.4995 -0.1800
  329MOL0     C44344   8.827   6.385   8.860 -0.0981  0.4653 -0.7295
  329MOL0     C44345   8.785   6.407   8.975 -0.0184  0.2455 -0.7616
  329MOL0     C44346   8.380   6.716   8.640  0.5405  0.3379  0.1849
  329MOL0     C44347   8.290   6.768   8.732 -0.9545 -0.1780 -0.5812
  329MOL0     H44348   8.159   6.895   9.205 -0.2066 -0.5507  0.1819
  329MOL0     H44349   7.974   7.010   9.344 -0.6110  2.8874  2.0765
  329MOL0     H44350   7.816   7.095   9.449  1.3112 -0.6313  2.9975
  329MOL0     H44351   7.909   7.207   9.532 -2.4835 -0.2607  2.4936
  329MOL0     H44352   7.664   7.326   9.396 -1.7650  0.8859  0.3530
  329MOL0     H44353   7.669   7.255   9.556  0.9000 -2.4496 -1.9915
  329MOL0     H44354   7.835   7.396   9.645 -2.4683  0.7236  2.5353
  329MOL0     H44355   7.847   7.476   9.478 -4.9636  3.2009 -0.7859
  329MOL0     H44356   7.587   7.472   9.639  0.9031 -1.2512  0.5814
  329MOL0     H44357   7.725   7.572   9.686 -2.6994  2.1280 -0.0748
  329MOL0     H44358   7.700   7.663   9.429 -0.3014  0.7408 -0.3068
  329MOL0     H44359   7.586   7.544   9.414  0.2524 -2.5638  2.7233
  329MOL0     H44360   7.436   7.650   9.599  0.8872 -1.1235  1.2776
  329MOL0     H44361   7.567   7.759   9.642  3.7474  1.8053 -3.1373
  329MOL0     H44362   7.383   7.877   9.507  0.3404 -0.5310  1.4220
  329MOL0     H44363   7.562   7.894   9.468  1.2419 -0.6060 -3.3648
  329MOL0     H44364   7.374   7.720   9.300 -3.4024  2.9257 -1.1774
  329MOL0     H44365   7.541   7.775   9.263 -1.3672  0.8898 -1.5365
  329MOL0     H44366   7.178   7.844   9.224 -0.3979  1.5472 -0.0837
  329MOL0     H44367   7.046   8.151   9.214 -0.6233  1.5424 -1.0524
  329MOL0     H44368   7.113   8.181   9.056  0.3127  0.2025 -0.2265
  329MOL0     H44369   7.001   7.920   9.152 -0.3251 -0.3815 -0.8260
  329MOL0     H44370   7.050   7.959   8.984 -0.4521  0.8098 -1.6072
  329MOL0     H44371   6.868   8.119   8.965 -1.2182  0.1683 -0.0050
  329MOL0     H44372   6.807   8.077   9.130 -2.7823 -0.5935  0.1958
  329MOL0     H44373   6.807   7.840   9.034  1.4287 -0.4450 -0.9005
  329MOL0     H44374   6.822   7.911   8.872  3.4814 -1.0358  1.2237
  329MOL0     H44375   6.418   7.995   9.008  3.3279 -1.6582 -1.0021
  329MOL0     H44376   6.161   8.032   8.806 -3.5106  0.6223  0.2008
  329MOL0     H44377   6.183   8.075   8.977 -0.6279  1.0638 -0.0445
  329MOL0     H44378   6.150   8.203   8.855 -2.4199 -2.0565 -2.1013
  329MOL0     H44379   6.432   8.295   8.340 -1.1153 -1.7908 -3.1833
  329MOL0     H44380   6.301   8.316   8.134  1.9200  0.6354  0.5624
  329MOL0     H44381   5.919   8.461   8.022  2.3138 -0.8344 -1.1452
  329MOL0     H44382   5.913   8.503   8.195  1.4027  1.8419 -0.3956
  329MOL0     H44383   5.889   8.723   8.116  0.8125 -0.0456  0.3701
  329MOL0     H44384   6.055   8.713   8.085  0.3882 -1.8105  3.3148
  329MOL0     H44385   5.862   8.618   7.859 -3.4708  2.6999  1.1468
  329MOL0     H44386   6.027   8.657   7.858 -0.4328  1.6372 -1.9572
  329MOL0     H44387   5.948   8.901   7.950 -1.3538  1.8944 -0.8563
  329MOL0     H44388   5.953   8.857   7.782  1.0249 -1.4401  0.3202
  329MOL0     H44389   5.717   8.796   7.776 -2.3879  1.5643 -0.1124
  329MOL0     H44390   5.761   8.964   7.832  1.4045 -0.3338 -1.8020
  329MOL0     H44391   5.696   8.742   8.013  2.2160 -0.7395 -0.6026
  329MOL0     H44392   5.683   8.920   8.042  0.3379  2.4934 -2.6119
  329MOL0     H44393   5.503   8.739   7.881  2.3906  0.8446 -2.7707
  329MOL0     H44394   5.495   8.903   7.843  0.1168  0.9107  1.4849
  329MOL0     H44395   5.445   8.975   8.054  0.7998 -1.4668  2.4022
  329MOL0     H44396   5.419   8.812   8.124  3.0378 -0.8435  0.5123
  329MOL0     H44397   6.054   8.600   8.336  1.4736  0.9982 -0.5072
  329MOL0     H44398   6.172   8.558   8.554 -2.8215 -1.1255  0.5682
  329MOL0     H44399   6.595   8.205   8.608 -1.3392 -2.3014 -1.5058
  329MOL0     H44400   6.742   8.108   8.769  1.5539 -1.0707  4.7729
  329MOL0     H44401   8.032   7.373   9.145 -0.9542 -0.2520  2.1445
  329MOL0     H44402   8.180   7.267   8.981  0.6570 -0.5837  0.0313
  329MOL0     H44403   8.509   6.905   8.954  2.2851  3.6000 -1.6340
  329MOL0     H44404   8.661   6.823   8.772 -0.1501 -2.1002  0.9925
  329MOL0     H44405   8.526   6.526   8.490  0.5709 -1.3565 -0.6687
  329MOL0     H44406   8.678   6.570   8.430 -1.9082  2.2728 -1.6402
  329MOL0     H44407   8.700   6.363   8.565  0.7505 -0.2483  0.2303
  329MOL0     H44408   8.610   6.443   8.703 -0.3288  0.0542  0.1522
  329MOL0     H44409   8.817   6.593   8.719  2.1916  0.1378 -2.4072
  329MOL0     H44410   8.882   6.516   8.567 -0.7195 -1.1178 -2.3824
  329MOL0     H44411   9.003   6.417   8.739  0.8642 -2.1938 -2.0358
  329MOL0     H44412   8.885   6.297   8.683  3.0614  1.2560 -2.8678
  329MOL0     H44413   8.742   6.430   9.070  1.3435 -2.5552  0.6402
  329MOL0     H44414   8.355   6.663   8.549  0.7211 -1.1267  0.9525
  329MOL0     H44415   8.184   6.761   8.710 -0.9891 -0.7470 -0.2592
  330MOL0     O44416   1.430   4.595   4.914  0.3376 -0.2055 -0.5513
  330MOL0     C44417   1.411   4.665   5.011 -0.9224  0.2041 -0.7181
  330MOL0     O44418   1.307   4.662   5.100  0.1557  0.1766 -0.7342
  330MOL0     C44419   1.226   4.546   5.100  0.8421  0.2024  0.8209
  330MOL0     C44420   1.098   4.570   5.148 -0.8668 -0.0248  0.0453
  330MOL0     C44421   1.000   4.464   5.145  0.1544 -0.9448  0.8965
  330MOL0     C44422   1.036   4.337   5.092 -0.3785 -0.0396  0.3430
  330MOL0     O44423   0.943   4.238   5.100 -0.3747  0.1530 -0.2336
  330MOL0     C44424   0.966   4.146   5.206 -0.7076 -0.4350 -1.2954
  330MOL0     C44425   0.893   4.021   5.177 -0.8105  0.4455 -0.4593
  330MOL0     C44426   0.739   4.041   5.215 -1.1409  0.2795  0.8353
  330MOL0     C44427   0.652   3.925   5.169  0.8606 -0.8495  1.5327
  330MOL0     C44428   0.654   3.797   5.253  0.0323 -0.3666  0.4163
  330MOL0     C44429   0.742   3.680   5.201  0.5884 -0.1905  0.5474
  330MOL0     C44430   0.787   3.586   5.307  0.4710 -0.5814 -0.1093
  330MOL0     C44431   0.843   3.457   5.246  0.2262 -1.3102  0.2286
  330MOL0     N44432   0.733   3.397   5.169  0.2442 -0.0640 -0.5000
  330MOL0     C44433   0.644   3.317   5.231 -0.3357  0.1993 -0.8620
  330MOL0     C44434   0.584   3.251   5.139  1.1001  0.1359  0.9457
  330MOL0     C44435   0.492   3.125   5.144  1.1392  0.6015 -0.7126
  330MOL0     C44436   0.356   3.143   5.068  0.9334 -1.0048 -0.2172
  330MOL0     C44437   0.325   3.140   4.917 -0.3612  0.0787  1.5945
  330MOL0     C44438   0.408   3.037   4.857 -0.5356 -0.5880  0.1207
  330MOL0     O44439   0.380   2.905   4.900  0.2151  0.7323 -0.4483
  330MOL0     C44440   0.303   2.817   4.823 -0.3797  1.0471  0.0385
  330MOL0     C44441   0.218   2.852   4.723 -0.1552 -0.5737 -0.3431
  330MOL0     C44442   0.152   2.757   4.646  0.2626 -0.1295  0.1562
  330MOL0     C44443   0.057   2.814   4.540  0.5724 -0.6533 -0.6231
  330MOL0     C44444   0.170   2.615   4.678 -0.1783 -0.0134  0.1047
  330MOL0     C44445   0.115   2.506   4.584 -0.0082 -0.5939  0.5165
  330MOL0     O44446   0.177   2.382   4.585  0.3878 -0.2723  0.2575
  330MOL0     C44447   0.137   2.285   4.498  0.5296  0.5495  0.9636
  330MOL0     C44448   0.102   2.297   4.360  0.2570 -0.7669 -0.1071
  330MOL0     C44449   0.066   2.185   4.283  0.1089  0.4482  0.0972
  330MOL0     C44450   0.059   2.053   4.338 -0.1949 -0.1253  0.0910
  330MOL0     O44451   0.030   1.948   4.260 -0.0746  0.8983 -0.6566
  330MOL0     C44452  -0.052   1.840   4.314  0.6158  0.1308  0.4820
  330MOL0     C44453  -0.119   1.775   4.192  0.4608 -0.4249 -0.1125
  330MOL0     C44454  -0.263   1.832   4.177  1.0956  0.9230 -0.0201
  330MOL0     C44455  -0.331   1.768   4.050 -0.3966  0.0785 -0.2443
  330MOL0     C44456  -0.460   1.838   4.008  0.2543  0.5000 -0.1374
  330MOL0     C44457  -0.468   1.892   3.864  0.2878  0.0899  0.3200
  330MOL0     C44458  -0.603   1.966   3.839 -0.8625 -0.1921 -0.2474
  330MOL0     C44459  -0.581   2.048   3.711  0.2250  0.7208 -0.4220
  330MOL0    Cl44460  -0.553   1.928   3.570  0.7102  0.3076 -0.3902
  330MOL0     C44461   0.094   2.039   4.480 -0.0956  0.2599  0.8098
  330MOL0     C44462   0.128   2.156   4.548 -0.1359  1.3647 -0.3888
  330MOL0     O44463   0.015   2.530   4.524 -0.2559 -0.9331  0.8201
  330MOL0     C44464   0.258   2.578   4.777 -0.4606 -0.4431 -0.4672
  330MOL0     C44465   0.334   2.684   4.840  0.2024  0.0695 -0.6294
  330MOL0     N44466   0.640   3.274   5.014 -0.5304  0.2187 -0.2686
  330MOL0     N44467   0.724   3.364   5.040  0.8033 -0.6084  0.1144
  330MOL0     C44468   1.167   4.304   5.052 -0.0313 -0.6619 -0.1034
  330MOL0     C44469   1.259   4.410   5.055  0.6663  0.2480  0.0735
  330MOL0     C44470   1.521   4.760   5.050 -0.2399 -0.4155  0.9713
  330MOL0     C44471   1.630   4.793   4.966 -0.1934 -0.8630 -0.3585
  330MOL0     C44472   1.742   4.885   4.998  0.0019 -0.9152 -0.2080
  330MOL0     C44473   1.743   4.944   5.130 -0.1808 -0.3687 -0.2665
  330MOL0     O44474   1.839   5.032   5.170  0.3777  0.0228 -0.4809
  330MOL0     C44475   1.963   5.048   5.099  0.6240 -0.8666 -0.0936
  330MOL0     C44476   1.981   5.177   5.013 -0.5577 -1.2002  0.5334
  330MOL0     C44477   2.118   5.180   4.957 -0.0728 -0.1017 -0.5439
  330MOL0     C44478   2.150   5.320   4.890 -0.0166  0.7685  0.3530
  330MOL0     C44479   2.177   5.413   4.997  0.8760  0.2875 -0.0824
  330MOL0     C44480   2.212   5.498   5.071  0.9179  0.8274  0.5050
  330MOL0     C44481   1.634   4.917   5.210  0.6622 -0.4814  0.0499
  330MOL0     C44482   1.522   4.833   5.174  0.1249 -0.4516 -0.0221
  330MOL0     H44483   1.080   4.670   5.185  1.9338  1.3400 -1.9185
  330MOL0     H44484   0.903   4.478   5.191 -1.4722  1.8517 -2.8347
  330MOL0     H44485   1.070   4.121   5.227 -1.1791 -1.8010 -0.4687
  330MOL0     H44486   0.945   4.197   5.301  2.4521  1.1983 -1.3575
  330MOL0     H44487   0.901   3.987   5.073  3.6978  1.0898 -0.5201
  330MOL0     H44488   0.946   3.954   5.246  2.5462  2.7398 -0.6128
  330MOL0     H44489   0.728   4.053   5.323  4.1186 -1.2573  1.8400
  330MOL0     H44490   0.711   4.126   5.152  1.0640 -1.3789 -2.7270
  330MOL0     H44491   0.551   3.967   5.169  0.2296 -2.2554  0.0408
  330MOL0     H44492   0.672   3.895   5.065  1.5186  1.9522  0.7627
  330MOL0     H44493   0.695   3.829   5.349 -4.7498  1.0090  2.2610
  330MOL0     H44494   0.550   3.767   5.269  0.4024 -0.9047  1.9353
  330MOL0     H44495   0.683   3.635   5.120  0.1702  0.3551  0.5390
  330MOL0     H44496   0.825   3.731   5.151 -0.8545  0.5609 -1.2300
  330MOL0     H44497   0.852   3.630   5.384 -0.4039 -1.5793  1.2326
  330MOL0     H44498   0.702   3.541   5.359  0.6674 -0.7840  0.0388
  330MOL0     H44499   0.890   3.394   5.321  0.9568  0.4609  1.3195
  330MOL0     H44500   0.918   3.495   5.175 -0.5454  0.3213  0.2327
  330MOL0     H44501   0.627   3.311   5.338 -0.8922  0.7168 -0.9144
  330MOL0     H44502   0.542   3.035   5.107  0.6153 -0.7536  1.6856
  330MOL0     H44503   0.468   3.110   5.249 -0.5269  1.1537 -0.9855
  330MOL0     H44504   0.309   3.237   5.098  1.6011  0.3317 -2.9827
  330MOL0     H44505   0.297   3.060   5.107  1.7771 -0.7821  1.6262
  330MOL0     H44506   0.348   3.229   4.857  1.8158 -0.6211  1.3272
  330MOL0     H44507   0.217   3.121   4.911 -0.2336 -0.7613  1.9558
  330MOL0     H44508   0.514   3.060   4.875 -0.6394  0.3486 -0.4222
  330MOL0     H44509   0.403   3.047   4.748 -3.2907 -0.7611  0.1586
  330MOL0     H44510   0.189   2.952   4.690  2.8207 -0.3309 -2.6848
  330MOL0     H44511   0.115   2.884   4.479  2.3606  0.9519  2.6195
  330MOL0     H44512  -0.008   2.758   4.473 -1.9312 -0.7085  1.6687
  330MOL0     H44513  -0.016   2.876   4.595  0.8482  0.6452 -1.6669
  330MOL0     H44514   0.101   2.395   4.314 -1.2803 -0.7298 -0.0314
  330MOL0     H44515   0.045   2.198   4.177 -0.1438 -0.0327  0.0825
  330MOL0     H44516  -0.007   1.757   4.369  0.0073 -1.5333 -1.4529
  330MOL0     H44517  -0.123   1.884   4.385  2.5600  2.9000  0.8956
  330MOL0     H44518  -0.063   1.790   4.100  1.7893  2.0718  0.9894
  330MOL0     H44519  -0.131   1.668   4.209  1.1551 -0.2818  1.5164
  330MOL0     H44520  -0.262   1.941   4.170  0.3139  0.8414 -2.0162
  330MOL0     H44521  -0.331   1.806   4.259  1.4967  0.0304  0.0516
  330MOL0     H44522  -0.264   1.768   3.964 -1.1969 -1.1402 -0.8868
  330MOL0     H44523  -0.347   1.663   4.073  2.3195 -0.1302  1.0491
  330MOL0     H44524  -0.497   1.919   4.072 -4.3444 -2.2983  1.2309
  330MOL0     H44525  -0.546   1.772   4.018  0.4231  0.1103 -1.1302
  330MOL0     H44526  -0.381   1.956   3.850  3.1851 -3.8128 -1.1016
  330MOL0     H44527  -0.445   1.810   3.795  1.3425  3.1896 -3.3528
  330MOL0     H44528  -0.625   2.032   3.923 -1.0108 -0.7875  0.1861
  330MOL0     H44529  -0.678   1.887   3.829 -1.7913  0.9083 -3.1569
  330MOL0     H44530  -0.494   2.114   3.720  0.7864 -0.0717  0.0976
  330MOL0     H44531  -0.670   2.109   3.698 -1.5291 -1.4644  0.7271
  330MOL0     H44532   0.103   1.941   4.527  1.1144  1.4245  3.1411
  330MOL0     H44533   0.146   2.135   4.653 -2.5801 -1.1411 -0.3471
  330MOL0     H44534   0.291   2.477   4.800  0.1301 -0.4178 -1.1443
  330MOL0     H44535   0.413   2.672   4.914  3.1913 -1.2043 -3.7390
  330MOL0     H44536   1.187   4.207   5.006 -1.3631 -1.6783  1.3619
  330MOL0     H44537   1.362   4.379   5.036  1.3966  2.0481  0.9272
  330MOL0     H44538   1.621   4.735   4.874 -3.9776 -0.2391 -0.5392
  330MOL0     H44539   1.820   4.901   4.925  1.1618  3.0029  1.6448
  330MOL0     H44540   2.048   5.055   5.168 -0.0892  1.6568  0.6627
  330MOL0     H44541   1.991   4.958   5.045  2.5712 -3.2175  4.3157
  330MOL0     H44542   1.956   5.265   5.073 -4.0882 -0.2741 -1.9860
  330MOL0     H44543   1.912   5.173   4.929  0.8754  1.4949 -0.8902
  330MOL0     H44544   2.141   5.092   4.896  1.8074 -1.0855  1.4397
  330MOL0     H44545   2.187   5.155   5.039 -2.4047 -1.8461  1.0328
  330MOL0     H44546   2.074   5.360   4.823  0.9600  0.4240 -0.9903
  330MOL0     H44547   2.241   5.305   4.833  1.1307  0.1960  2.2263
  330MOL0     H44548   2.241   5.566   5.148 -3.2597 -0.0512  3.1804
  330MOL0     H44549   1.629   4.969   5.305 -1.8171 -3.2538  1.5993
  330MOL0     H44550   1.443   4.807   5.244 -2.1127  0.6705 -1.9775
  331MOL0     O44551   5.477   4.977   0.725  1.4106 -1.1159  0.7033
  331MOL0     C44552   5.590   4.964   0.752 -0.0112 -0.1267 -0.0967
  331MOL0     O44553   5.675   5.072   0.768  0.1166 -0.0151  0.1132
  331MOL0     C44554   5.642   5.199   0.798 -1.0442 -0.1251 -0.0129
  331MOL0     C44555   5.763   5.272   0.826  0.3712 -0.3788 -0.3913
  331MOL0     C44556   5.754   5.399   0.869 -0.1840 -0.6514  0.5002
  331MOL0     C44557   5.631   5.469   0.880 -0.7515  0.9228  0.0749
  331MOL0     O44558   5.633   5.599   0.920 -0.0669 -0.3879 -0.2618
  331MOL0     C44559   5.542   5.640   1.032  0.4390  0.5516  0.8906
  331MOL0     C44560   5.572   5.777   1.078 -0.3296  0.1183  0.4247
  331MOL0     C44561   5.507   5.793   1.208 -0.5713  0.3251  0.5339
  331MOL0     C44562   5.528   5.917   1.282  0.6605 -1.6018 -0.1664
  331MOL0     C44563   5.675   5.946   1.323 -0.4905  0.3167 -0.2863
  331MOL0     C44564   5.694   6.071   1.399 -0.7962 -0.7236 -0.5993
  331MOL0     C44565   5.728   6.193   1.310  0.2153 -0.3584 -0.1463
  331MOL0     C44566   5.748   6.318   1.377 -0.5339 -0.2944 -0.2927
  331MOL0     N44567   5.630   6.360   1.451 -0.0760 -0.1333  0.1888
  331MOL0     C44568   5.625   6.408   1.575 -0.3870 -0.7993  0.3581
  331MOL0     C44569   5.495   6.448   1.596 -0.6712 -0.4013  1.0616
  331MOL0     C44570   5.473   6.499   1.738  0.3689 -0.7209  0.0125
  331MOL0     C44571   5.462   6.649   1.734 -0.9636  0.6588 -0.5059
  331MOL0     C44572   5.345   6.696   1.642  0.1209  0.2047  0.1347
  331MOL0     C44573   5.323   6.848   1.651  1.0919  0.1635 -0.7952
  331MOL0     O44574   5.183   6.870   1.616  0.1656 -0.3882 -0.3843
  331MOL0     C44575   5.154   6.974   1.551  0.2364 -0.2463  1.4825
  331MOL0     C44576   5.171   6.982   1.409 -0.3871  0.6431 -0.7339
  331MOL0     C44577   5.124   7.092   1.344  0.2119 -0.2563 -0.0797
  331MOL0     C44578   5.151   7.103   1.197  0.9334  0.9661  0.4360
  331MOL0     C44579   5.056   7.198   1.412  0.3909  0.0493 -1.0115
  331MOL0     C44580   4.982   7.310   1.335  0.6772 -0.3545 -0.0100
  331MOL0     O44581   4.848   7.315   1.336  0.4722  0.5512  0.1107
  331MOL0     C44582   4.776   7.199   1.353  0.5421  0.8388 -0.1335
  331MOL0     C44583   4.719   7.187   1.478 -0.6646  0.1727 -0.1923
  331MOL0     C44584   4.637   7.077   1.514 -0.1223  0.0312 -0.3934
  331MOL0     C44585   4.609   6.969   1.425  0.0854  1.1020 -0.6241
  331MOL0     O44586   4.531   6.864   1.474 -1.3276  0.8768 -0.0482
  331MOL0     C44587   4.509   6.751   1.398 -0.0156 -0.0524 -0.2215
  331MOL0     C44588   4.381   6.666   1.426 -0.2465  0.1425  0.7740
  331MOL0     C44589   4.375   6.543   1.342  0.1108 -0.4519 -0.0757
  331MOL0     C44590   4.237   6.493   1.326 -0.2063 -0.2385 -0.7619
  331MOL0     C44591   4.216   6.361   1.243  0.3053  0.5816 -0.9996
  331MOL0     C44592   4.157   6.254   1.338 -0.1017 -0.4361 -0.8097
  331MOL0     C44593   4.152   6.123   1.276  0.3502  0.2181  0.1086
  331MOL0     C44594   4.069   6.024   1.363 -0.9453 -0.8271  0.0954
  331MOL0    Cl44595   4.099   5.862   1.296 -0.0169 -0.1513  0.2239
  331MOL0     C44596   4.675   6.977   1.298 -0.1027 -0.4938  0.5214
  331MOL0     C44597   4.760   7.091   1.262 -0.1253 -0.2459  0.9151
  331MOL0     O44598   5.054   7.374   1.262  0.7683 -0.4199  0.3176
  331MOL0     C44599   5.058   7.200   1.558 -0.3148  0.5692  0.0304
  331MOL0     C44600   5.103   7.086   1.620  0.9836 -0.4116 -0.7129
  331MOL0     N44601   5.420   6.406   1.488 -1.2507 -0.3944  0.2435
  331MOL0     N44602   5.506   6.369   1.398 -0.1036  0.0528  0.4937
  331MOL0     C44603   5.516   5.400   0.844 -0.1969 -0.3974 -0.4579
  331MOL0     C44604   5.512   5.270   0.797 -0.9668 -0.6062 -0.3579
  331MOL0     C44605   5.636   4.818   0.774 -0.2835 -0.1543  0.2848
  331MOL0     C44606   5.555   4.704   0.744 -0.6292 -0.8315  0.3210
  331MOL0     C44607   5.596   4.572   0.746  0.2518  0.1068 -0.2036
  331MOL0     C44608   5.721   4.553   0.783  0.6211  0.0833 -1.2001
  331MOL0     O44609   5.746   4.421   0.801 -0.4687 -0.2832 -0.4808
  331MOL0     C44610   5.814   4.385   0.926  0.4698 -0.4406  0.4365
  331MOL0     C44611   5.933   4.297   0.900  0.0382 -0.4388 -0.4837
  331MOL0     C44612   6.031   4.362   0.810 -0.5289 -0.0014  0.4043
  331MOL0     C44613   6.162   4.275   0.803  0.1642  0.4631  0.4713
  331MOL0     C44614   6.148   4.151   0.723 -0.4129 -0.6725 -0.0925
  331MOL0     C44615   6.130   4.054   0.647  0.5016 -0.3912 -0.0461
  331MOL0     C44616   5.812   4.666   0.803  0.2705  0.2123 -0.6427
  331MOL0     C44617   5.770   4.795   0.798  0.0273 -0.1715  0.3674
  331MOL0     H44618   5.857   5.219   0.833 -0.2006 -1.8287 -2.6690
  331MOL0     H44619   5.851   5.444   0.889  1.2108 -2.6076 -1.4235
  331MOL0     H44620   5.438   5.623   1.001  0.8583  0.2473 -0.4508
  331MOL0     H44621   5.558   5.575   1.118  2.8329 -1.6304 -1.0225
  331MOL0     H44622   5.679   5.800   1.086 -0.2926  1.0916 -2.0358
  331MOL0     H44623   5.535   5.846   1.001  0.4124  0.8698  0.7228
  331MOL0     H44624   5.400   5.770   1.211 -1.3631  3.0758  5.6649
  331MOL0     H44625   5.543   5.716   1.277 -1.5721  1.0798  1.9476
  331MOL0     H44626   5.490   5.997   1.217  2.1986 -0.3324  0.4379
  331MOL0     H44627   5.476   5.914   1.379  0.6965 -0.4102 -0.0898
  331MOL0     H44628   5.714   5.870   1.390 -2.8383  2.7177  4.2422
  331MOL0     H44629   5.737   5.950   1.233  0.5978  1.3974  0.4835
  331MOL0     H44630   5.614   6.095   1.470  1.0997 -1.2372  1.8231
  331MOL0     H44631   5.772   6.045   1.471 -3.1028 -0.1324  2.2863
  331MOL0     H44632   5.811   6.182   1.239 -1.8320  1.3411 -3.0248
  331MOL0     H44633   5.652   6.215   1.234 -0.8330 -4.2826 -0.4412
  331MOL0     H44634   5.769   6.388   1.295 -1.6951  1.6103  0.9536
  331MOL0     H44635   5.836   6.315   1.441 -0.6097 -0.4668 -0.1953
  331MOL0     H44636   5.712   6.408   1.640 -2.1514 -0.6557  2.8238
  331MOL0     H44637   5.379   6.462   1.780 -0.5804  1.1060 -0.3700
  331MOL0     H44638   5.557   6.478   1.804  0.7441 -2.0697 -0.8522
  331MOL0     H44639   5.553   6.693   1.691 -1.3930  2.7393  0.5630
  331MOL0     H44640   5.446   6.687   1.835 -0.2552  1.4459 -0.6787
  331MOL0     H44641   5.253   6.640   1.661  2.5468 -3.7018  1.5343
  331MOL0     H44642   5.371   6.682   1.536  2.1415  1.6330  0.3750
  331MOL0     H44643   5.395   6.895   1.584 -1.0140  2.0681 -1.8666
  331MOL0     H44644   5.327   6.885   1.754 -1.4040 -2.4752  0.3950
  331MOL0     H44645   5.206   6.893   1.358 -6.2028 -1.3733 -2.0271
  331MOL0     H44646   5.185   7.005   1.161  1.6770  0.5919  2.0842
  331MOL0     H44647   5.055   7.111   1.144 -0.2023 -1.5525  1.9079
  331MOL0     H44648   5.216   7.185   1.167  0.5368  0.7144 -1.2280
  331MOL0     H44649   4.741   7.264   1.551  1.6345 -0.8111  0.2628
  331MOL0     H44650   4.605   7.064   1.617 -4.6039 -0.4446 -1.6527
  331MOL0     H44651   4.490   6.781   1.294 -0.1316 -0.7985 -0.4221
  331MOL0     H44652   4.605   6.703   1.413  0.6361  0.4874 -2.2890
  331MOL0     H44653   4.367   6.646   1.533  0.3107 -4.4795  0.1989
  331MOL0     H44654   4.299   6.731   1.395  1.3328  1.8679  0.0181
  331MOL0     H44655   4.438   6.473   1.399 -1.8402 -0.6239  1.9796
  331MOL0     H44656   4.402   6.558   1.237 -2.9648 -0.8139 -1.0099
  331MOL0     H44657   4.184   6.481   1.421 -1.3784 -2.4709 -1.6168
  331MOL0     H44658   4.176   6.559   1.263  2.2184  1.3234 -1.5924
  331MOL0     H44659   4.306   6.315   1.201  1.0167 -0.2519  1.2669
  331MOL0     H44660   4.151   6.365   1.155 -2.8029 -1.1219  1.0098
  331MOL0     H44661   4.223   6.254   1.426  4.2101 -1.3373 -3.7188
  331MOL0     H44662   4.056   6.283   1.369  0.1426 -1.3454  0.9851
  331MOL0     H44663   4.253   6.085   1.257  0.4072  1.3593 -2.1943
  331MOL0     H44664   4.101   6.129   1.179 -0.4222 -0.2288  0.4724
  331MOL0     H44665   3.962   6.048   1.359 -0.2821  3.4414  2.0466
  331MOL0     H44666   4.103   6.039   1.466  1.3618  2.7351 -1.0048
  331MOL0     H44667   4.684   6.893   1.229  1.7053  1.2659 -1.5221
  331MOL0     H44668   4.828   7.094   1.178  0.1186 -1.8722  1.0322
  331MOL0     H44669   5.016   7.278   1.621  3.2275  1.3391  1.6690
  331MOL0     H44670   5.105   7.087   1.728 -1.1025 -1.3549 -0.6028
  331MOL0     H44671   5.419   5.446   0.857  0.3682  1.3869 -2.0805
  331MOL0     H44672   5.426   5.209   0.769 -1.4608 -1.3865  2.5060
  331MOL0     H44673   5.455   4.735   0.716  0.0524  0.5720 -0.7010
  331MOL0     H44674   5.532   4.491   0.712 -0.7269 -0.4594  2.7290
  331MOL0     H44675   5.857   4.470   0.980  0.8955  1.7880 -3.0556
  331MOL0     H44676   5.745   4.325   0.986 -0.7865  0.4158 -0.0877
  331MOL0     H44677   5.904   4.201   0.857  0.8996  0.8146 -4.2810
  331MOL0     H44678   5.978   4.287   0.999  0.9746  1.1732 -0.7023
  331MOL0     H44679   6.055   4.461   0.851 -1.3892 -1.0307  3.6183
  331MOL0     H44680   5.995   4.394   0.711  0.5359  1.2258  0.3833
  331MOL0     H44681   6.213   4.252   0.897  1.2553 -1.0468 -0.4297
  331MOL0     H44682   6.230   4.329   0.736 -1.2109  0.0010 -1.3775
  331MOL0     H44683   6.126   3.967   0.585 -2.3897 -0.5995  0.2988
  331MOL0     H44684   5.916   4.644   0.824 -0.3850  0.2426  3.4711
  331MOL0     H44685   5.845   4.873   0.812 -2.1229  1.9199  0.9629
  332MOL0     O44686   7.875   0.880  11.325 -0.3000  0.0688  0.0547
  332MOL0     C44687   7.759   0.893  11.301 -0.5254 -0.0057 -0.2942
  332MOL0     O44688   7.659   0.803  11.320 -0.1409 -0.4527  0.4933
  332MOL0     C44689   7.673   0.688  11.383  0.3908  0.0459  0.9235
  332MOL0     C44690   7.587   0.589  11.348 -1.5107 -1.0075  0.6885
  332MOL0     C44691   7.586   0.463  11.417 -0.3034 -0.0909  0.2033
  332MOL0     C44692   7.689   0.436  11.503 -0.3009  1.1148  0.4632
  332MOL0     O44693   7.683   0.314  11.566  0.2857  0.0117 -0.1890
  332MOL0     C44694   7.779   0.218  11.513 -0.3544 -0.9858  0.0246
  332MOL0     C44695   7.761   0.080  11.582  0.7051 -0.1694 -0.2188
  332MOL0     C44696   7.803  -0.034  11.485  0.6290  0.5742 -0.1821
  332MOL0     C44697   7.696  -0.075  11.379 -0.1232 -0.0097 -0.2082
  332MOL0     C44698   7.734  -0.194  11.294 -1.0569  0.4618 -0.1119
  332MOL0     C44699   7.624  -0.229  11.195  0.4313 -0.1790 -0.8444
  332MOL0     C44700   7.676  -0.358  11.117 -0.3465 -0.4760 -0.4376
  332MOL0     C44701   7.556  -0.418  11.044  0.0687  0.1952  0.9416
  332MOL0     N44702   7.538  -0.349  10.913  0.2981  0.0006 -1.4294
  332MOL0     C44703   7.633  -0.296  10.833  0.3885 -0.2365 -0.1276
  332MOL0     C44704   7.569  -0.281  10.715 -0.5487  0.2941  0.2296
  332MOL0     C44705   7.626  -0.216  10.589 -0.2294  0.1754 -0.1205
  332MOL0     C44706   7.772  -0.174  10.618  0.5362  0.0396 -0.5054
  332MOL0     C44707   7.834  -0.117  10.486  0.0283  0.6082 -0.1229
  332MOL0     C44708   7.760   0.005  10.440 -0.7504 -0.0022 -0.0474
  332MOL0     O44709   7.714   0.090  10.545 -0.4384  0.5722  0.4676
  332MOL0     C44710   7.695   0.224  10.526 -0.4630 -0.1600 -0.0383
  332MOL0     C44711   7.614   0.286  10.617  0.0046 -0.5447  0.2499
  332MOL0     C44712   7.568   0.421  10.604 -0.7602 -0.1432  1.1562
  332MOL0     C44713   7.478   0.492  10.705 -0.6035 -0.1811  0.7146
  332MOL0     C44714   7.634   0.496  10.509  0.3263 -0.1777 -0.3703
  332MOL0     C44715   7.610   0.637  10.492  0.3027 -1.1433 -0.8033
  332MOL0     O44716   7.483   0.674  10.499 -0.6449  0.4490 -0.2567
  332MOL0     C44717   7.437   0.803  10.470 -0.2246  0.3106  0.0865
  332MOL0     C44718   7.497   0.883  10.374  0.6475  0.1050 -0.4918
  332MOL0     C44719   7.444   1.012  10.352  0.6870  0.9084  0.3905
  332MOL0     C44720   7.343   1.066  10.426 -0.5750 -0.0820 -0.2923
  332MOL0     O44721   7.302   1.195  10.405 -0.1543 -0.5882 -0.0892
  332MOL0     C44722   7.362   1.286  10.310  0.0856 -0.0382 -0.0260
  332MOL0     C44723   7.325   1.430  10.331  0.8210  0.2866  0.1938
  332MOL0     C44724   7.412   1.515  10.253  0.0872 -0.1566 -0.2033
  332MOL0     C44725   7.370   1.661  10.258 -0.0756  0.9772 -0.4382
  332MOL0     C44726   7.472   1.746  10.183 -0.4539  0.4098  0.0427
  332MOL0     C44727   7.452   1.892  10.208 -0.1783 -0.2640 -0.6083
  332MOL0     C44728   7.496   1.938  10.346  0.2343 -0.0343 -1.1728
  332MOL0     C44729   7.424   2.072  10.391 -1.1227  0.3416 -0.7016
  332MOL0    Cl44730   7.417   2.184  10.247 -0.4887  0.2652  0.3642
  332MOL0     C44731   7.281   0.989  10.515 -0.5588  0.0787 -0.1328
  332MOL0     C44732   7.324   0.856  10.536  0.2758 -0.2822  0.8075
  332MOL0     O44733   7.709   0.715  10.480  0.0640  0.3458  0.0962
  332MOL0     C44734   7.721   0.431  10.420  0.0833  0.0485  0.5039
  332MOL0     C44735   7.748   0.298  10.433  0.1253  0.0420  0.8029
  332MOL0     N44736   7.427  -0.320  10.726 -0.3653  0.0536 -0.1888
  332MOL0     N44737   7.417  -0.348  10.853 -0.5723 -0.0691 -0.8532
  332MOL0     C44738   7.789   0.531  11.539  0.2150 -0.0010  0.4414
  332MOL0     C44739   7.770   0.664  11.484 -0.1817 -0.3150  0.3068
  332MOL0     C44740   7.722   1.020  11.247 -0.2477  0.6965 -0.5251
  332MOL0     C44741   7.793   1.083  11.144 -0.1875  0.4585  0.5616
  332MOL0     C44742   7.751   1.200  11.082  0.4105 -0.8798 -0.2183
  332MOL0     C44743   7.643   1.277  11.137  0.0203 -0.1031  1.6321
  332MOL0     O44744   7.611   1.404  11.080  0.5182  0.1816 -0.1088
  332MOL0     C44745   7.531   1.492  11.161  0.8570 -0.2013  0.6428
  332MOL0     C44746   7.617   1.575  11.257 -0.3584  0.5008 -0.1135
  332MOL0     C44747   7.759   1.621  11.203 -0.5343 -0.0670  0.6589
  332MOL0     C44748   7.757   1.733  11.113  0.6739  0.5255 -0.0101
  332MOL0     C44749   7.890   1.794  11.091 -0.6918  0.2011  0.6407
  332MOL0     C44750   7.979   1.873  11.068 -0.8159 -0.1854 -0.6830
  332MOL0     C44751   7.576   1.219  11.250  0.3772 -0.1085  0.0691
  332MOL0     C44752   7.606   1.091  11.296 -0.4287  0.3261  0.6274
  332MOL0     H44753   7.518   0.611  11.267  1.6008  2.9480 -1.2524
  332MOL0     H44754   7.516   0.381  11.405  2.1612 -2.2103 -0.5940
  332MOL0     H44755   7.761   0.209  11.406  0.6356  1.6363 -0.4218
  332MOL0     H44756   7.878   0.259  11.534 -1.0611  0.3100  0.9316
  332MOL0     H44757   7.831   0.060  11.664 -0.3348 -2.5623  0.1864
  332MOL0     H44758   7.657   0.068  11.614  0.1077 -2.1079 -2.6145
  332MOL0     H44759   7.898  -0.010  11.436  0.9841  1.0203  0.7025
  332MOL0     H44760   7.818  -0.124  11.545  0.1863 -0.3537 -1.4179
  332MOL0     H44761   7.611  -0.111  11.438  1.1049 -0.9069  1.0576
  332MOL0     H44762   7.665   0.006  11.311  0.3442 -0.7201 -1.2964
  332MOL0     H44763   7.827  -0.175  11.239 -1.5334  1.8863 -0.4652
  332MOL0     H44764   7.743  -0.276  11.365 -2.5187  1.0202  0.7615
  332MOL0     H44765   7.531  -0.251  11.248  0.0861  0.9567 -0.9699
  332MOL0     H44766   7.603  -0.142  11.132 -0.9027  0.3857  0.3372
  332MOL0     H44767   7.756  -0.342  11.045 -1.0945  0.0634 -1.1677
  332MOL0     H44768   7.732  -0.426  11.183  0.1367 -1.4150 -1.7690
  332MOL0     H44769   7.464  -0.411  11.103 -0.4873  0.7640  0.0146
  332MOL0     H44770   7.580  -0.524  11.028 -0.4338  0.1343  0.5868
  332MOL0     H44771   7.739  -0.278  10.851 -0.3630  2.0210  2.8022
  332MOL0     H44772   7.624  -0.279  10.500  1.9689  0.9872 -0.8241
  332MOL0     H44773   7.572  -0.123  10.571 -1.3368 -1.0038 -3.7170
  332MOL0     H44774   7.834  -0.257  10.653  1.7484 -0.0741 -2.6988
  332MOL0     H44775   7.776  -0.097  10.695 -4.1221 -0.6441  0.7047
  332MOL0     H44776   7.827  -0.192  10.408 -1.7540 -1.4832  1.8850
  332MOL0     H44777   7.936  -0.102  10.523  0.0655 -3.8327  2.3017
  332MOL0     H44778   7.674  -0.035  10.386  0.6997 -0.2040 -2.3647
  332MOL0     H44779   7.819   0.058  10.365 -0.1309  0.2726  0.6193
  332MOL0     H44780   7.594   0.218  10.699 -2.5601  0.9083  0.9071
  332MOL0     H44781   7.432   0.418  10.771 -0.3976 -2.4687 -1.5547
  332MOL0     H44782   7.530   0.567  10.766 -2.1706  1.4773  0.0599
  332MOL0     H44783   7.385   0.527  10.660  1.8903  2.3492 -3.0702
  332MOL0     H44784   7.582   0.849  10.317  0.7734 -0.6771  0.1361
  332MOL0     H44785   7.499   1.061  10.272 -1.9271  1.7710 -0.9935
  332MOL0     H44786   7.470   1.271  10.318  0.4504  2.0263 -0.3959
  332MOL0     H44787   7.348   1.260  10.204  0.2633 -2.2157  0.4515
  332MOL0     H44788   7.222   1.453  10.305  0.0929  0.0381  2.6346
  332MOL0     H44789   7.339   1.462  10.435  1.4586  1.9003 -0.3582
  332MOL0     H44790   7.414   1.486  10.148 -0.2364  2.1093 -0.9005
  332MOL0     H44791   7.514   1.501  10.290  0.3911  0.5423 -0.7513
  332MOL0     H44792   7.273   1.680  10.210 -0.3510  0.5291 -0.0664
  332MOL0     H44793   7.361   1.700  10.360 -1.7095 -3.5568  1.4007
  332MOL0     H44794   7.447   1.733  10.077 -0.2983 -0.2553  0.0834
  332MOL0     H44795   7.578   1.726  10.203 -0.1244  2.8993  1.2250
  332MOL0     H44796   7.497   1.953  10.129 -0.8986  0.9022 -0.1481
  332MOL0     H44797   7.344   1.908  10.206 -0.0257  1.2219  0.8177
  332MOL0     H44798   7.605   1.948  10.345  0.5140 -2.2703  0.1273
  332MOL0     H44799   7.470   1.851  10.407  2.4387 -1.7145 -2.5144
  332MOL0     H44800   7.466   2.110  10.485 -1.0706 -0.2408 -0.4880
  332MOL0     H44801   7.319   2.052  10.414 -0.9758  1.6500  1.4151
  332MOL0     H44802   7.206   1.043  10.573  0.0764  0.2749  0.5242
  332MOL0     H44803   7.272   0.805  10.616  0.8958 -2.3275 -0.0322
  332MOL0     H44804   7.780   0.480  10.343 -3.7792  0.9649 -2.1380
  332MOL0     H44805   7.830   0.260  10.374 -1.5353 -2.8813  0.1944
  332MOL0     H44806   7.877   0.517  11.601  0.2045 -1.2059  0.2142
  332MOL0     H44807   7.831   0.745  11.522 -0.1989  0.0161 -0.3559
  332MOL0     H44808   7.883   1.043  11.098 -0.8604  1.8496 -2.1856
  332MOL0     H44809   7.806   1.234  10.995  0.7450 -0.3326  0.2008
  332MOL0     H44810   7.492   1.566  11.090  0.7710 -1.3426 -0.5353
  332MOL0     H44811   7.448   1.444  11.212  1.9117 -1.8036  0.9179
  332MOL0     H44812   7.624   1.512  11.347 -1.9509 -2.8908 -2.1718
  332MOL0     H44813   7.553   1.658  11.287  0.5431  0.9470  0.6100
  332MOL0     H44814   7.818   1.541  11.158 -0.4835 -0.4351  1.3825
  332MOL0     H44815   7.827   1.660  11.278  0.4470  2.4630 -1.3863
  332MOL0     H44816   7.690   1.801  11.167  0.4515 -1.9575  3.1252
  332MOL0     H44817   7.708   1.700  11.022  1.0423 -1.0667  0.3499
  332MOL0     H44818   8.062   1.938  11.046  1.0987 -2.4287 -0.4728
  332MOL0     H44819   7.498   1.265  11.311  0.1647  0.7149 -0.7964
  332MOL0     H44820   7.549   1.063  11.384 -1.0322  0.5417  0.3058
  333MOL0     O44821   1.911   5.995   8.907  0.2708 -0.4178  0.2015
  333MOL0     C44822   1.859   5.892   8.919  0.7998 -0.0791 -0.3468
  333MOL0     O44823   1.736   5.859   8.974 -0.2330 -0.5424  0.6885
  333MOL0     C44824   1.661   5.971   9.002  0.7268  0.4654 -0.5002
  333MOL0     C44825   1.556   6.002   8.916  0.1772  0.4482  0.4084
  333MOL0     C44826   1.470   6.104   8.953  0.0181  0.0260 -0.0484
  333MOL0     C44827   1.484   6.167   9.076 -0.6930  0.3186 -0.0767
  333MOL0     O44828   1.411   6.277   9.119 -0.7270  0.2908  0.1473
  333MOL0     C44829   1.340   6.256   9.246  0.3370  0.4816 -0.0098
  333MOL0     C44830   1.321   6.402   9.301 -0.2206  0.1828  0.3080
  333MOL0     C44831   1.241   6.492   9.201 -0.4709 -0.2375 -0.2085
  333MOL0     C44832   1.266   6.633   9.245  0.7145 -0.5885 -0.0099
  333MOL0     C44833   1.201   6.719   9.141  1.1341  0.2940  0.8951
  333MOL0     C44834   1.212   6.871   9.171  0.3576  0.5165  0.2640
  333MOL0     C44835   1.177   6.972   9.055  0.6088 -0.4504  0.0192
  333MOL0     C44836   1.032   7.003   9.040 -0.0014  0.5246  0.7235
  333MOL0     N44837   0.964   7.047   9.157  0.6366 -0.3718 -0.7135
  333MOL0     C44838   0.989   7.175   9.212 -0.4389  0.0691 -0.6971
  333MOL0     C44839   0.906   7.178   9.320  0.9040 -0.3245  0.4446
  333MOL0     C44840   0.892   7.280   9.426 -0.6553  1.1523  0.2116
  333MOL0     C44841   0.777   7.377   9.413  0.2353  0.9157  0.4060
  333MOL0     C44842   0.644   7.324   9.491  0.1350  0.6635  0.3379
  333MOL0     C44843   0.659   7.305   9.651 -0.3953  0.1601 -0.1123
  333MOL0     O44844   0.526   7.273   9.704  0.8286  0.0152  0.7219
  333MOL0     C44845   0.496   7.301   9.837 -0.2401  0.4992 -0.6145
  333MOL0     C44846   0.586   7.334   9.938 -0.5440 -0.1877  0.9210
  333MOL0     C44847   0.551   7.369  10.068 -0.4476  0.4079 -0.3604
  333MOL0     C44848   0.678   7.420  10.144  0.5563  0.7875 -0.2301
  333MOL0     C44849   0.415   7.374  10.107 -0.6717  0.1183  0.3913
  333MOL0     C44850   0.355   7.400  10.243  0.0322  0.0834 -0.1819
  333MOL0     O44851   0.438   7.430  10.349  0.3009 -0.9458 -1.0904
  333MOL0     C44852   0.377   7.498  10.453 -0.0301  0.6164 -0.7354
  333MOL0     C44853   0.405   7.454  10.583  0.1617 -0.3740  0.0043
  333MOL0     C44854   0.352   7.527  10.685 -0.9284 -0.4290  0.2547
  333MOL0     C44855   0.267   7.638  10.667  0.1687  0.5686  0.9685
  333MOL0     O44856   0.204   7.716  10.766  0.1944 -0.2410 -0.0011
  333MOL0     C44857   0.224   7.683  10.903 -0.0583  0.3355  0.0185
  333MOL0     C44858   0.103   7.603  10.954 -0.0060  0.0981  0.4407
  333MOL0     C44859  -0.015   7.694  10.978 -0.2785  1.3279 -0.7454
  333MOL0     C44860  -0.092   7.731  10.851  0.2121 -0.1542 -0.0364
  333MOL0     C44861  -0.229   7.782  10.884  0.3202  0.3669  0.4381
  333MOL0     C44862  -0.291   7.820  10.757  0.3234  0.6003  1.0058
  333MOL0     C44863  -0.443   7.820  10.763 -0.0844  0.3586  0.0118
  333MOL0     C44864  -0.507   7.939  10.832  0.2869  0.3812  0.0365
  333MOL0    Cl44865  -0.443   8.095  10.779  0.4630  0.3470  0.1586
  333MOL0     C44866   0.244   7.677  10.536  0.9664 -1.0043 -0.5131
  333MOL0     C44867   0.295   7.608  10.430  0.4904 -0.1077 -0.1711
  333MOL0     O44868   0.238   7.382  10.254  0.3341  0.0939  0.5837
  333MOL0     C44869   0.329   7.333  10.006  0.0224  0.7411 -0.2249
  333MOL0     C44870   0.357   7.290   9.877 -0.5276  0.1122 -0.3708
  333MOL0     N44871   0.834   7.065   9.321  0.0964 -0.3907  0.3942
  333MOL0     N44872   0.870   6.985   9.238 -0.0234  0.9041 -0.8564
  333MOL0     C44873   1.601   6.146   9.149 -1.0672  0.3400  0.7483
  333MOL0     C44874   1.690   6.042   9.113 -0.5605  0.5226 -0.5525
  333MOL0     C44875   1.941   5.777   8.871  0.6756  0.2346  0.0937
  333MOL0     C44876   2.082   5.783   8.873  0.6106 -0.7415  0.0374
  333MOL0     C44877   2.153   5.668   8.837  0.7880 -0.3367 -0.3165
  333MOL0     C44878   2.095   5.547   8.804  0.1337 -0.2701  0.9092
  333MOL0     O44879   2.179   5.441   8.775  0.3239  0.5837  0.0298
  333MOL0     C44880   2.138   5.333   8.686  0.4962 -1.2365  0.7216
  333MOL0     C44881   2.137   5.201   8.758 -0.1690 -0.4100  0.7351
  333MOL0     C44882   2.259   5.185   8.849  0.5347  0.1063 -0.3619
  333MOL0     C44883   2.293   5.046   8.845  0.8998 -0.0135  0.6847
  333MOL0     C44884   2.387   5.010   8.945 -0.8163  0.1265  0.4753
  333MOL0     C44885   2.477   4.968   9.024  0.3090 -0.3344  0.4413
  333MOL0     C44886   1.955   5.535   8.802 -0.0628  0.0835  0.3393
  333MOL0     C44887   1.880   5.650   8.840  0.3724 -0.9910  0.4108
  333MOL0     H44888   1.536   5.944   8.827 -0.5760  1.9723 -0.4587
  333MOL0     H44889   1.384   6.145   8.900 -1.7810 -2.5479  0.7098
  333MOL0     H44890   1.243   6.207   9.250  1.3992 -1.7774 -0.5275
  333MOL0     H44891   1.408   6.209   9.317 -0.1811  0.2971  0.3701
  333MOL0     H44892   1.274   6.400   9.400 -1.7280 -1.7684 -0.3942
  333MOL0     H44893   1.418   6.450   9.314 -0.2412 -0.2931  2.6145
  333MOL0     H44894   1.278   6.481   9.099 -0.4207 -2.1662 -0.0110
  333MOL0     H44895   1.137   6.463   9.186 -0.2773 -0.2949 -1.4845
  333MOL0     H44896   1.216   6.664   9.337 -1.0368  3.4891 -2.0592
  333MOL0     H44897   1.370   6.667   9.249 -0.0377  3.5982 -4.8029
  333MOL0     H44898   1.252   6.703   9.046  1.4359  2.6708  0.6058
  333MOL0     H44899   1.096   6.688   9.135  1.9029 -2.2306 -1.8016
  333MOL0     H44900   1.150   6.896   9.257 -0.4052  1.3501 -0.5136
  333MOL0     H44901   1.312   6.902   9.202  1.0161  2.0587 -2.9398
  333MOL0     H44902   1.218   7.069   9.085 -0.9207 -0.5331  2.6921
  333MOL0     H44903   1.212   6.939   8.957 -0.1668  2.1412 -1.2272
  333MOL0     H44904   0.993   6.908   9.004 -1.7923  2.1615 -2.0573
  333MOL0     H44905   1.037   7.079   8.961  2.2578  2.2297  2.3755
  333MOL0     H44906   1.056   7.255   9.180 -1.2205  1.9099  1.9683
  333MOL0     H44907   0.881   7.226   9.520 -1.1518  2.4793  0.9400
  333MOL0     H44908   0.984   7.340   9.426  1.2003 -1.5175 -0.1280
  333MOL0     H44909   0.754   7.390   9.307 -1.1902 -2.2519  0.2240
  333MOL0     H44910   0.804   7.472   9.460  1.5306  0.8412 -0.1369
  333MOL0     H44911   0.612   7.236   9.435 -0.0665  2.4509 -2.5283
  333MOL0     H44912   0.570   7.402   9.473 -0.0897  1.0660  2.6962
  333MOL0     H44913   0.684   7.404   9.690 -0.0645 -0.0679  0.2607
  333MOL0     H44914   0.731   7.226   9.675 -0.3889  0.0037 -0.6251
  333MOL0     H44915   0.692   7.335   9.912  0.0929 -1.1256  3.2028
  333MOL0     H44916   0.659   7.461  10.243 -2.6397 -3.3739  1.1711
  333MOL0     H44917   0.753   7.340  10.150  0.7787  1.0451  0.4502
  333MOL0     H44918   0.726   7.480  10.066  0.1096  1.6748  0.1771
  333MOL0     H44919   0.473   7.372  10.604 -2.1092 -2.0365  1.2440
  333MOL0     H44920   0.353   7.482  10.784  2.7265 -2.4454 -0.4963
  333MOL0     H44921   0.322   7.641  10.928  0.2198  0.9693  0.0137
  333MOL0     H44922   0.224   7.774  10.964 -0.7718 -0.6466  1.5306
  333MOL0     H44923   0.072   7.520  10.890 -2.3615 -0.9489  2.7499
  333MOL0     H44924   0.146   7.549  11.039  1.3953 -3.7801 -2.4355
  333MOL0     H44925   0.016   7.785  11.030  1.2033 -0.3699  1.5285
  333MOL0     H44926  -0.085   7.642  11.045  0.9486 -1.5472 -1.5609
  333MOL0     H44927  -0.033   7.811  10.807  0.0503 -0.1448 -0.2354
  333MOL0     H44928  -0.103   7.653  10.775 -1.4927 -0.3138  0.3130
  333MOL0     H44929  -0.217   7.873  10.943  4.5328 -0.5430  1.3688
  333MOL0     H44930  -0.281   7.704  10.940 -0.0868  0.6513  0.4544
  333MOL0     H44931  -0.255   7.918  10.722  2.8665 -1.1693 -1.8054
  333MOL0     H44932  -0.268   7.749  10.677 -0.7754 -1.0861  2.1220
  333MOL0     H44933  -0.477   7.730  10.815  1.5697 -0.8895 -0.9632
  333MOL0     H44934  -0.478   7.808  10.660  1.2484  1.8976 -0.6609
  333MOL0     H44935  -0.482   7.927  10.938  0.9478  0.5254 -0.0945
  333MOL0     H44936  -0.615   7.928  10.822  0.1865  0.3283  1.1218
  333MOL0     H44937   0.177   7.761  10.519 -1.3098 -2.5963  0.2313
  333MOL0     H44938   0.289   7.650  10.330 -2.5523 -0.4309 -0.2153
  333MOL0     H44939   0.225   7.356  10.024 -0.7133 -2.0996 -0.3022
  333MOL0     H44940   0.285   7.268   9.799 -0.0787  1.2774 -1.1527
  333MOL0     H44941   1.624   6.213   9.231 -0.8973  0.6055  0.4866
  333MOL0     H44942   1.773   6.015   9.178 -0.1725 -0.4587 -1.4196
  333MOL0     H44943   2.143   5.866   8.908  1.1934 -0.1190 -2.3124
  333MOL0     H44944   2.261   5.683   8.840  0.6816  1.1609 -2.2575
  333MOL0     H44945   2.039   5.355   8.646  0.9786 -1.4998 -0.6797
  333MOL0     H44946   2.199   5.334   8.595 -1.3240 -1.5387 -0.5577
  333MOL0     H44947   2.133   5.121   8.684  0.0331 -1.5291  1.8934
  333MOL0     H44948   2.049   5.203   8.823  0.3965  1.7097  1.5352
  333MOL0     H44949   2.237   5.211   8.953  2.9201  0.3399  0.1319
  333MOL0     H44950   2.344   5.233   8.801 -0.7294  0.3965 -2.4327
  333MOL0     H44951   2.323   5.004   8.749 -2.0378 -1.0592  0.1176
  333MOL0     H44952   2.206   4.986   8.874  1.4684 -0.1982  2.0880
  333MOL0     H44953   2.553   4.947   9.096  1.8317  1.4957 -0.5362
  333MOL0     H44954   1.902   5.444   8.775  0.2657 -0.0627  0.1855
  333MOL0     H44955   1.772   5.634   8.845  0.2114 -0.7645 -1.4252
  334MOL0     O44956   5.459   0.580   8.411  0.4924  0.1579  0.8150
  334MOL0     C44957   5.526   0.505   8.337 -0.0013  0.2967  0.5515
  334MOL0     O44958   5.613   0.408   8.380  0.3037 -0.3452  0.7519
  334MOL0     C44959   5.570   0.341   8.491  0.6543  0.1782 -0.3231
  334MOL0     C44960   5.438   0.296   8.518 -0.6319  0.1525 -0.5005
  334MOL0     C44961   5.406   0.241   8.641 -0.0847  0.7714 -0.1889
  334MOL0     C44962   5.504   0.228   8.741 -0.7633 -1.3368 -0.6459
  334MOL0     O44963   5.446   0.190   8.854 -0.5502  0.2409  0.0244
  334MOL0     C44964   5.446   0.276   8.974  0.4133  0.6200 -0.7074
  334MOL0     C44965   5.386   0.208   9.098  0.7556 -0.0435 -1.1291
  334MOL0     C44966   5.243   0.197   9.073 -0.7634 -0.0423 -1.3710
  334MOL0     C44967   5.162   0.167   9.202 -0.0160 -0.1357  0.1797
  334MOL0     C44968   5.011   0.121   9.166 -1.0084  0.3326  0.1851
  334MOL0     C44969   4.917   0.145   9.290 -0.1816 -0.5706 -0.7264
  334MOL0     C44970   4.783   0.067   9.267  0.1219 -0.2536 -0.3557
  334MOL0     C44971   4.701   0.108   9.143 -0.3481  0.7149  0.1008
  334MOL0     N44972   4.604  -0.000   9.130 -0.7681 -0.2654 -0.3317
  334MOL0     C44973   4.493  -0.021   9.211  0.5028  0.7084 -0.0453
  334MOL0     C44974   4.448  -0.139   9.158 -0.2912 -0.6588 -0.3202
  334MOL0     C44975   4.327  -0.211   9.209 -0.4249  0.2263 -0.2802
  334MOL0     C44976   4.212  -0.239   9.107 -0.1446  0.3817  0.2061
  334MOL0     C44977   4.155  -0.108   9.038 -0.2843  0.2167 -0.2994
  334MOL0     C44978   4.056  -0.041   9.136  0.5261  0.5219 -0.9364
  334MOL0     O44979   3.972   0.033   9.048  0.1615 -0.3332 -0.7624
  334MOL0     C44980   3.877   0.119   9.096 -0.1641  1.0794 -0.1843
  334MOL0     C44981   3.819   0.196   9.005  0.1649  0.6991  0.1649
  334MOL0     C44982   3.742   0.307   9.048 -0.0618 -0.7980  0.3048
  334MOL0     C44983   3.721   0.407   8.939 -0.6344 -0.5770  0.0285
  334MOL0     C44984   3.715   0.330   9.186 -0.1550  0.9575 -0.0879
  334MOL0     C44985   3.626   0.445   9.240 -0.4746  0.1087 -0.2280
  334MOL0     O44986   3.585   0.418   9.370 -0.7172  1.0894  0.0513
  334MOL0     C44987   3.507   0.508   9.446  0.0252 -0.0301 -0.2309
  334MOL0     C44988   3.444   0.447   9.556 -0.0446  0.5832 -0.0674
  334MOL0     C44989   3.345   0.515   9.632 -0.1056  0.1385  0.1163
  334MOL0     C44990   3.312   0.643   9.597  0.0074 -0.1651 -0.0799
  334MOL0     O44991   3.218   0.706   9.676  0.1059 -0.2430  0.4102
  334MOL0     C44992   3.126   0.807   9.624 -1.1741 -0.2173  0.1789
  334MOL0     C44993   3.016   0.823   9.738 -0.0457 -0.3732  0.1560
  334MOL0     C44994   2.892   0.913   9.684  0.1449 -0.3012  0.1362
  334MOL0     C44995   2.921   1.063   9.668 -0.8431  0.4116 -0.0821
  334MOL0     C44996   2.793   1.145   9.661 -0.3583  0.2786 -0.0407
  334MOL0     C44997   2.680   1.094   9.568 -0.0257  0.0115  1.2143
  334MOL0     C44998   2.556   1.182   9.595  0.0756 -0.6300  0.4250
  334MOL0     C44999   2.430   1.140   9.526 -0.4680 -0.1820 -0.1611
  334MOL0    Cl45000   2.455   1.099   9.347  0.0900  0.0104  0.0072
  334MOL0     C45001   3.382   0.708   9.493  0.0693 -0.2225 -0.7205
  334MOL0     C45002   3.471   0.640   9.409  0.3399 -0.4379 -0.4107
  334MOL0     O45003   3.578   0.538   9.166 -0.4724  0.0019  0.1844
  334MOL0     C45004   3.778   0.235   9.273 -0.0382 -0.8979  0.5560
  334MOL0     C45005   3.862   0.132   9.228 -0.3088 -0.3084 -0.2056
  334MOL0     N45006   4.523  -0.176   9.046 -0.8011  0.8251  1.0349
  334MOL0     N45007   4.616  -0.096   9.033 -0.9892  0.1842  0.2436
  334MOL0     C45008   5.636   0.269   8.717  0.3789 -0.7080 -0.4925
  334MOL0     C45009   5.670   0.320   8.592 -0.2424 -0.4227  0.0052
  334MOL0     C45010   5.519   0.545   8.195  0.9045  0.5240 -0.5689
  334MOL0     C45011   5.593   0.477   8.101 -0.5353 -0.1569 -1.1687
  334MOL0     C45012   5.582   0.505   7.968  0.0240 -0.3488  1.1567
  334MOL0     C45013   5.487   0.594   7.921  0.3027  0.5399 -0.9597
  334MOL0     O45014   5.512   0.625   7.795  0.3368 -0.6709 -0.6876
  334MOL0     C45015   5.434   0.723   7.726  0.2386  0.1937  0.0581
  334MOL0     C45016   5.465   0.715   7.582 -0.0946  0.4473  1.0974
  334MOL0     C45017   5.587   0.805   7.558  0.1430 -0.7404  0.2747
  334MOL0     C45018   5.610   0.814   7.410  0.2850 -0.3086  0.1356
  334MOL0     C45019   5.736   0.888   7.389 -0.1923 -0.1459  0.3115
  334MOL0     C45020   5.824   0.967   7.387  0.1598 -0.8221  0.5725
  334MOL0     C45021   5.409   0.660   8.014 -0.0051  0.9712  0.3321
  334MOL0     C45022   5.438   0.655   8.149  1.1677  0.5479 -0.3154
  334MOL0     H45023   5.350   0.317   8.459 -1.3936  3.1057  1.4564
  334MOL0     H45024   5.303   0.210   8.651  0.6144 -2.0343 -0.7787
  334MOL0     H45025   5.548   0.307   9.000 -0.2242  2.1913  0.0733
  334MOL0     H45026   5.392   0.366   8.943  1.5851  0.5840 -3.1220
  334MOL0     H45027   5.436   0.111   9.107  1.4330  0.1423 -2.5332
  334MOL0     H45028   5.406   0.271   9.185  0.4238 -0.7258 -0.5535
  334MOL0     H45029   5.191   0.284   9.030  0.2905  1.5947  0.5380
  334MOL0     H45030   5.228   0.111   9.006  3.6051 -0.3388 -2.2050
  334MOL0     H45031   5.198   0.090   9.271 -3.4489 -2.6537 -0.5624
  334MOL0     H45032   5.171   0.259   9.261  2.9737  2.0327 -3.2398
  334MOL0     H45033   4.984   0.190   9.086  1.2643 -0.4639 -1.3574
  334MOL0     H45034   5.011   0.014   9.143  1.6457 -0.1427  1.8785
  334MOL0     H45035   4.955   0.114   9.388  0.7147  1.2790 -0.4534
  334MOL0     H45036   4.907   0.251   9.311  1.3180 -0.5174 -0.1975
  334MOL0     H45037   4.815  -0.037   9.254 -0.9585 -0.4653 -1.4645
  334MOL0     H45038   4.725   0.079   9.359  0.2727 -0.6871 -0.2012
  334MOL0     H45039   4.769   0.110   9.058 -2.7148 -1.3267 -2.0382
  334MOL0     H45040   4.653   0.205   9.161 -1.6165  0.0865  0.2617
  334MOL0     H45041   4.463   0.023   9.305  0.7993 -1.1963  1.0006
  334MOL0     H45042   4.370  -0.308   9.237  1.0061  1.0472  0.4765
  334MOL0     H45043   4.281  -0.160   9.294 -0.0938 -0.5006  0.3398
  334MOL0     H45044   4.139  -0.311   9.144 -1.1361  0.4898 -1.4712
  334MOL0     H45045   4.262  -0.306   9.036  0.4546  0.0434  0.9180
  334MOL0     H45046   4.103  -0.151   8.952 -2.0781  1.1247  0.2682
  334MOL0     H45047   4.244  -0.050   9.010 -1.0305  1.2403 -0.6258
  334MOL0     H45048   4.091   0.031   9.210 -0.9576 -2.1341  2.6619
  334MOL0     H45049   4.005  -0.118   9.195 -0.8621  1.5856 -0.6934
  334MOL0     H45050   3.845   0.190   8.900  1.2379 -1.0763  0.4941
  334MOL0     H45051   3.768   0.391   8.842 -0.1492  1.9310 -0.2246
  334MOL0     H45052   3.614   0.418   8.921 -0.8894 -1.8732  0.6584
  334MOL0     H45053   3.760   0.501   8.980  0.4502 -2.2207  3.0559
  334MOL0     H45054   3.474   0.347   9.586 -1.2136 -0.0961 -1.0564
  334MOL0     H45055   3.289   0.474   9.716 -1.5936  2.7480  0.5259
  334MOL0     H45056   3.175   0.902   9.605  1.2499 -0.6062  3.5287
  334MOL0     H45057   3.076   0.768   9.535  3.1251 -2.4582 -1.5516
  334MOL0     H45058   2.971   0.726   9.760  0.0383 -1.4143 -3.6094
  334MOL0     H45059   3.068   0.878   9.817 -0.2136  1.5183 -0.9868
  334MOL0     H45060   2.830   0.892   9.771  0.6320 -1.5199  0.2076
  334MOL0     H45061   2.842   0.882   9.591 -3.0937  0.5536  1.4568
  334MOL0     H45062   2.983   1.105   9.748 -2.4178  1.1801  0.7689
  334MOL0     H45063   2.969   1.073   9.570 -0.4895  0.6589  0.1098
  334MOL0     H45064   2.832   1.240   9.624  0.3525 -0.9159 -2.6334
  334MOL0     H45065   2.750   1.148   9.761  0.0084  1.4970  0.1004
  334MOL0     H45066   2.702   1.110   9.462  0.0132  2.5259  1.5309
  334MOL0     H45067   2.649   0.992   9.591 -1.8043 -0.7477 -3.5216
  334MOL0     H45068   2.575   1.288   9.575  0.8519 -0.7385  0.5361
  334MOL0     H45069   2.542   1.168   9.702 -1.3373 -1.2088  0.1854
  334MOL0     H45070   2.348   1.208   9.549  1.2963  1.9062  0.3746
  334MOL0     H45071   2.393   1.050   9.575 -0.5026 -1.6317 -2.7016
  334MOL0     H45072   3.364   0.813   9.471  3.6846  0.9098  0.9307
  334MOL0     H45073   3.537   0.683   9.335 -0.5886 -2.8209 -2.7926
  334MOL0     H45074   3.765   0.235   9.381  1.5193 -1.4968  0.7714
  334MOL0     H45075   3.909   0.081   9.311 -1.6518 -1.2969 -0.0027
  334MOL0     H45076   5.706   0.282   8.799 -1.0584  0.1867  0.6529
  334MOL0     H45077   5.766   0.370   8.586  0.5565 -2.0878 -2.2119
  334MOL0     H45078   5.659   0.394   8.124 -2.2956 -1.9504 -2.2914
  334MOL0     H45079   5.645   0.462   7.891 -1.9050 -1.2703  0.0174
  334MOL0     H45080   5.331   0.687   7.740 -0.3652  1.1487 -1.6649
  334MOL0     H45081   5.452   0.822   7.768  0.5414  0.1876 -0.0595
  334MOL0     H45082   5.383   0.761   7.525  1.9028  1.8344 -0.7955
  334MOL0     H45083   5.481   0.614   7.544  1.1559  0.6373  1.0996
  334MOL0     H45084   5.675   0.768   7.611  0.8567 -1.5827 -1.4366
  334MOL0     H45085   5.561   0.902   7.601  0.4301 -0.4982 -0.1018
  334MOL0     H45086   5.545   0.888   7.364  3.3919  2.5848  0.0555
  334MOL0     H45087   5.590   0.715   7.366 -1.7621 -0.8201  1.9972
  334MOL0     H45088   5.908   1.033   7.389  0.1537 -0.8269  1.5922
  334MOL0     H45089   5.332   0.733   7.989 -2.7455 -1.5641  0.7642
  334MOL0     H45090   5.377   0.718   8.213  0.8928 -0.8251  0.8159
  335MOL0     O45091   1.134   5.470   1.076  0.5439 -0.3189  0.0279
  335MOL0     C45092   1.138   5.353   1.094  0.1820 -0.2405 -1.4615
  335MOL0     O45093   1.243   5.280   1.142 -0.2045 -0.1298  0.2530
  335MOL0     C45094   1.360   5.351   1.172  0.1142  0.4268  0.7919
  335MOL0     C45095   1.458   5.403   1.075 -0.6084 -0.0372  0.4213
  335MOL0     C45096   1.575   5.468   1.120 -0.4382  0.0324 -0.3359
  335MOL0     C45097   1.595   5.494   1.261 -1.0022 -0.1995 -0.2539
  335MOL0     O45098   1.709   5.570   1.297  0.6003  0.1972 -0.3570
  335MOL0     C45099   1.747   5.554   1.440 -0.5247 -0.6906  1.1746
  335MOL0     C45100   1.888   5.625   1.462  0.1296  0.2267 -0.0980
  335MOL0     C45101   1.881   5.777   1.480 -0.9645 -0.3409 -0.7458
  335MOL0     C45102   1.969   5.807   1.606  0.3555 -0.0554 -0.3623
  335MOL0     C45103   1.933   5.924   1.688 -0.4441 -0.4158 -0.2972
  335MOL0     C45104   1.827   5.881   1.785 -0.0289 -0.1603 -0.6005
  335MOL0     C45105   1.776   6.006   1.873  0.4285  0.2483 -0.3744
  335MOL0     C45106   1.862   6.049   1.987 -0.6852 -0.1979 -1.5987
  335MOL0     N45107   1.806   6.010   2.115  0.1382 -0.2370 -0.3578
  335MOL0     C45108   1.802   5.891   2.178 -0.1847  0.1540  1.2568
  335MOL0     C45109   1.722   5.921   2.287  0.4937  0.1237 -0.8749
  335MOL0     C45110   1.702   5.827   2.411 -0.1559  1.0446  0.0810
  335MOL0     C45111   1.716   5.899   2.532 -0.4231 -0.2518 -0.5036
  335MOL0     C45112   1.746   5.801   2.651  0.2721  0.1690 -0.0175
  335MOL0     C45113   1.802   5.884   2.775  0.0459  0.8507  0.5485
  335MOL0     O45114   1.748   6.021   2.794 -0.5412 -0.2777  0.1959
  335MOL0     C45115   1.634   6.042   2.870 -0.8222 -0.3103  0.8478
  335MOL0     C45116   1.550   5.936   2.902  0.0040  0.1206  0.3870
  335MOL0     C45117   1.441   5.967   2.966  0.4041 -0.3888  0.4000
  335MOL0     C45118   1.363   5.845   3.013 -0.1908 -0.0579 -0.3654
  335MOL0     C45119   1.411   6.097   3.014  0.6286 -0.4301 -0.0240
  335MOL0     C45120   1.290   6.144   3.092  0.5339 -0.4768 -0.7432
  335MOL0     O45121   1.283   6.277   3.118 -0.2561  0.3698  0.8384
  335MOL0     C45122   1.186   6.305   3.215 -0.4486 -0.0845  0.6378
  335MOL0     C45123   1.231   6.300   3.345 -0.4753  0.1561  0.6609
  335MOL0     C45124   1.144   6.334   3.449 -0.7988 -0.1741  0.7870
  335MOL0     C45125   1.014   6.396   3.419  0.5597 -0.0830  0.6010
  335MOL0     O45126   0.909   6.451   3.500 -0.5947  1.1801 -0.4724
  335MOL0     C45127   0.948   6.458   3.638 -0.0198  0.8706 -0.6453
  335MOL0     C45128   0.900   6.584   3.692 -0.0023 -1.2223  0.5872
  335MOL0     C45129   0.977   6.697   3.615 -0.1089  0.0548 -0.4358
  335MOL0     C45130   0.930   6.837   3.670  0.2674 -0.2744  0.5756
  335MOL0     C45131   0.979   6.948   3.578 -1.0110 -0.0285  0.1897
  335MOL0     C45132   0.996   7.074   3.659  0.7192 -0.3655 -0.3083
  335MOL0     C45133   1.129   7.072   3.746 -0.4918  0.4337  0.0693
  335MOL0     C45134   1.145   7.203   3.821  0.1160 -1.0452 -0.4273
  335MOL0    Cl45135   1.278   7.189   3.940  0.4998 -0.1512 -0.1964
  335MOL0     C45136   0.971   6.397   3.283 -0.7665  1.2517 -0.5912
  335MOL0     C45137   1.058   6.352   3.180  1.1512  0.0449 -0.0545
  335MOL0     O45138   1.204   6.060   3.131 -1.0708 -0.4685  0.9836
  335MOL0     C45139   1.492   6.204   2.977 -0.3924  0.4253  0.0301
  335MOL0     C45140   1.609   6.166   2.904  0.2788 -0.4793  0.3252
  335MOL0     N45141   1.690   6.057   2.291 -0.0080  0.1517 -0.1707
  335MOL0     N45142   1.729   6.102   2.184 -0.4875 -0.5424  0.8276
  335MOL0     C45143   1.497   5.449   1.350  0.3939  0.5863  0.0100
  335MOL0     C45144   1.391   5.378   1.305  1.0328  0.5757  0.4327
  335MOL0     C45145   1.019   5.262   1.074  0.3620 -0.1164 -0.2952
  335MOL0     C45146   0.924   5.322   0.990  1.0182 -0.2838 -0.2089
  335MOL0     C45147   0.809   5.252   0.965  0.0259 -0.0525  0.2239
  335MOL0     C45148   0.782   5.125   1.015 -0.0074  0.0446 -0.4783
  335MOL0     O45149   0.658   5.075   0.990  0.0639  0.0753 -0.1963
  335MOL0     C45150   0.569   5.097   1.103  1.2031  0.8604  0.6806
  335MOL0     C45151   0.420   5.090   1.051 -1.0532 -0.4095  1.5725
  335MOL0     C45152   0.406   4.944   1.010  0.5759  0.3267  0.2373
  335MOL0     C45153   0.270   4.881   1.021 -0.1822 -0.4460  0.7680
  335MOL0     C45154   0.216   4.894   1.152 -0.4264 -0.0287 -0.1667
  335MOL0     C45155   0.163   4.907   1.269 -0.6703 -0.1151 -0.7579
  335MOL0     C45156   0.875   5.062   1.099  0.0218 -1.2014  0.5204
  335MOL0     C45157   0.989   5.143   1.136 -0.0332 -0.0098  0.5220
  335MOL0     H45158   1.443   5.374   0.971 -2.5882 -0.1919  0.7108
  335MOL0     H45159   1.647   5.484   1.041 -1.9419 -0.9654 -1.9633
  335MOL0     H45160   1.676   5.601   1.508  1.8800 -1.5332  4.5161
  335MOL0     H45161   1.765   5.449   1.463  1.2955 -1.3265 -2.3678
  335MOL0     H45162   1.940   5.571   1.541 -3.4226 -0.8027  1.7359
  335MOL0     H45163   1.936   5.606   1.365 -2.2961  0.3160 -1.3824
  335MOL0     H45164   1.912   5.831   1.390 -1.5070 -0.6493 -1.1198
  335MOL0     H45165   1.775   5.799   1.500 -0.2902  0.2036  3.1254
  335MOL0     H45166   1.978   5.725   1.678 -0.0048  0.9853  0.8943
  335MOL0     H45167   2.063   5.840   1.561 -0.4773  3.3038  0.1211
  335MOL0     H45168   2.025   5.967   1.729  0.2185 -1.2588 -0.8629
  335MOL0     H45169   1.896   6.009   1.632 -0.7891 -0.5285 -0.2452
  335MOL0     H45170   1.736   5.844   1.739 -0.3927  0.8346 -0.7163
  335MOL0     H45171   1.864   5.806   1.856 -2.2724 -1.4342 -0.7010
  335MOL0     H45172   1.786   6.089   1.803  2.1554 -0.9414 -1.6472
  335MOL0     H45173   1.672   5.990   1.903  0.7020 -2.4785 -0.6002
  335MOL0     H45174   1.860   6.158   1.980 -0.1176 -0.0872 -0.3374
  335MOL0     H45175   1.962   6.009   1.969 -1.1882 -1.1436 -2.3924
  335MOL0     H45176   1.852   5.796   2.161  1.0102  1.3429 -2.9954
  335MOL0     H45177   1.608   5.772   2.403  1.9578 -2.6424 -1.9737
  335MOL0     H45178   1.787   5.758   2.405 -0.7240  0.2418  0.9841
  335MOL0     H45179   1.626   5.957   2.555  0.9725  1.1610  1.7665
  335MOL0     H45180   1.794   5.975   2.520 -0.2993 -0.1238  0.9686
  335MOL0     H45181   1.812   5.719   2.622  2.4714  2.2457 -1.1663
  335MOL0     H45182   1.654   5.755   2.690  0.1129  0.2494 -0.2948
  335MOL0     H45183   1.910   5.888   2.761 -0.2457  0.9324 -2.2412
  335MOL0     H45184   1.783   5.820   2.861  0.5576  0.2139  0.2017
  335MOL0     H45185   1.563   5.833   2.870  1.1869 -0.0732  1.3949
  335MOL0     H45186   1.415   5.749   3.007 -1.9534 -1.0341 -0.7620
  335MOL0     H45187   1.344   5.873   3.117 -4.2678 -1.1111 -0.6590
  335MOL0     H45188   1.266   5.831   2.964  1.5613 -3.6898 -3.3379
  335MOL0     H45189   1.326   6.257   3.376  0.0073  0.6656 -0.0538
  335MOL0     H45190   1.181   6.311   3.548  1.0888  2.1758  0.7366
  335MOL0     H45191   0.905   6.378   3.700 -1.0980  0.2939 -2.0900
  335MOL0     H45192   1.056   6.468   3.654  0.5082 -3.6880  0.1133
  335MOL0     H45193   0.796   6.601   3.664  1.3831  3.6267 -3.2156
  335MOL0     H45194   0.914   6.588   3.800 -0.3241  1.8701  0.5979
  335MOL0     H45195   0.963   6.694   3.507 -1.0770 -0.9725 -0.2991
  335MOL0     H45196   1.086   6.692   3.629 -0.1070  3.5067  1.8869
  335MOL0     H45197   0.821   6.830   3.666  0.0786  1.2054  2.0882
  335MOL0     H45198   0.962   6.850   3.774  0.3026  3.7817  0.1935
  335MOL0     H45199   0.902   6.959   3.501 -0.0501 -0.4367 -0.8590
  335MOL0     H45200   1.075   6.923   3.532  0.0423  0.7786  1.8713
  335MOL0     H45201   0.995   7.169   3.605  1.3348 -0.3918 -0.3768
  335MOL0     H45202   0.907   7.076   3.723 -1.2807  0.0430 -2.9259
  335MOL0     H45203   1.220   7.067   3.686 -1.3995 -3.1682 -1.2599
  335MOL0     H45204   1.120   6.986   3.813 -1.5035  1.8180  1.7930
  335MOL0     H45205   1.049   7.236   3.863 -0.4341 -1.1061 -1.5899
  335MOL0     H45206   1.172   7.272   3.741  1.1468  2.3672  2.5747
  335MOL0     H45207   0.873   6.432   3.250 -0.5465 -0.1184 -2.8903
  335MOL0     H45208   1.032   6.349   3.074  0.1229 -0.2775  0.1933
  335MOL0     H45209   1.478   6.310   2.997 -1.8919  0.8264 -2.6194
  335MOL0     H45210   1.673   6.247   2.869 -1.0350 -1.0176 -3.8536
  335MOL0     H45211   1.518   5.471   1.454  1.9695 -0.8226  0.0296
  335MOL0     H45212   1.322   5.344   1.381  0.1284  2.5538  0.5537
  335MOL0     H45213   0.929   5.424   0.952 -1.4956 -0.6765 -1.8930
  335MOL0     H45214   0.730   5.305   0.913 -1.7891  0.2173  3.0264
  335MOL0     H45215   0.578   5.036   1.194  0.2439  1.6134  1.2994
  335MOL0     H45216   0.584   5.199   1.138 -1.1536  2.0488 -1.4348
  335MOL0     H45217   0.412   5.157   0.965  1.5668 -3.7525 -1.6009
  335MOL0     H45218   0.359   5.105   1.141  0.5111  0.8477  2.4992
  335MOL0     H45219   0.482   4.879   1.054 -0.5168  0.4987  2.5250
  335MOL0     H45220   0.427   4.942   0.902  1.0461 -1.7523  0.3206
  335MOL0     H45221   0.288   4.775   1.001  4.5323  0.1350  0.8024
  335MOL0     H45222   0.208   4.926   0.942  2.1134  1.1208 -0.2620
  335MOL0     H45223   0.121   4.909   1.368  3.5601 -0.6867  1.2602
  335MOL0     H45224   0.855   4.963   1.138 -4.3979 -0.0964  1.7223
  335MOL0     H45225   1.066   5.091   1.193 -0.8559 -2.4986 -0.4739
  336MOL0     O45226   0.985   0.186   2.090 -1.2406 -0.0813  0.0319
  336MOL0     C45227   1.089   0.170   2.149 -0.3782 -0.3776 -0.3855
  336MOL0     O45228   1.195   0.260   2.145  0.2101  0.0050  0.4830
  336MOL0     C45229   1.172   0.368   2.068 -0.5255 -0.2395 -0.4144
  336MOL0     C45230   1.193   0.375   1.932 -0.9857  0.8846 -0.5891
  336MOL0     C45231   1.195   0.492   1.856  1.2977  0.3715 -0.7507
  336MOL0     C45232   1.156   0.611   1.921 -0.5171  0.1350  0.5460
  336MOL0     O45233   1.143   0.727   1.856  0.6833 -0.7920 -0.3455
  336MOL0     C45234   1.009   0.770   1.842  0.4032 -0.4753 -0.4466
  336MOL0     C45235   1.010   0.848   1.712  0.4782  0.0780 -0.3290
  336MOL0     C45236   1.114   0.961   1.693 -0.0404  0.3291  0.4254
  336MOL0     C45237   1.046   1.100   1.696 -0.6990  0.4314  0.6270
  336MOL0     C45238   1.024   1.161   1.837  0.1671 -0.2462  0.4447
  336MOL0     C45239   0.949   1.291   1.812 -0.3575  0.4402  0.0722
  336MOL0     C45240   0.910   1.360   1.938  0.1851  0.3948 -0.1423
  336MOL0     C45241   0.893   1.507   1.923 -0.1122  0.4830 -0.3685
  336MOL0     N45242   1.020   1.578   1.909  0.1368 -0.1949 -0.6044
  336MOL0     C45243   1.044   1.660   1.800 -0.6568  0.3373 -0.9814
  336MOL0     C45244   1.152   1.730   1.834  0.0983  1.0844  0.0566
  336MOL0     C45245   1.225   1.814   1.728  0.7797 -0.2452  0.3793
  336MOL0     C45246   1.188   1.959   1.757 -0.5861  0.8899 -0.2595
  336MOL0     C45247   1.043   1.983   1.794 -0.8470 -0.0295  0.9469
  336MOL0     C45248   0.950   1.948   1.666 -0.3562  1.2184 -0.6720
  336MOL0     O45249   0.885   2.073   1.626 -0.3273 -0.0231  0.3810
  336MOL0     C45250   0.774   2.110   1.696 -0.6014  0.5470 -0.1209
  336MOL0     C45251   0.744   2.065   1.826 -0.3442  0.3512 -0.4621
  336MOL0     C45252   0.618   2.100   1.889  1.2471  0.2411 -1.0200
  336MOL0     C45253   0.584   2.037   2.025 -0.2990  0.5198  0.2657
  336MOL0     C45254   0.519   2.179   1.823 -0.7236 -0.2138 -0.1079
  336MOL0     C45255   0.377   2.211   1.865  0.1285  0.3640 -0.3179
  336MOL0     O45256   0.284   2.253   1.770 -0.0789  0.2140  0.5280
  336MOL0     C45257   0.157   2.308   1.795 -0.2194 -0.8870 -0.9264
  336MOL0     C45258   0.117   2.381   1.916 -0.9641  0.7857  0.2364
  336MOL0     C45259  -0.004   2.436   1.946 -0.2878 -0.0931 -1.0331
  336MOL0     C45260  -0.099   2.421   1.845  1.4111  0.2990 -0.2058
  336MOL0     O45261  -0.216   2.481   1.869  0.9911 -0.2812 -0.0164
  336MOL0     C45262  -0.340   2.403   1.851 -0.3178  0.9117  0.7047
  336MOL0     C45263  -0.450   2.436   1.942 -0.1918  0.3295 -1.4485
  336MOL0     C45264  -0.413   2.388   2.083 -0.7933 -0.6015  0.0536
  336MOL0     C45265  -0.396   2.239   2.089  0.3906 -0.4554 -0.4553
  336MOL0     C45266  -0.519   2.160   2.043 -0.2435  0.7559 -0.3762
  336MOL0     C45267  -0.545   2.051   2.140  0.0065  0.0521  0.0768
  336MOL0     C45268  -0.683   1.977   2.110 -0.8147 -0.2231  0.6515
  336MOL0     C45269  -0.804   2.057   2.126  1.0039 -0.9210  0.0378
  336MOL0    Cl45270  -0.943   1.944   2.117  0.3289 -0.0445  0.3975
  336MOL0     C45271  -0.080   2.347   1.731  0.1397  0.4934  0.0648
  336MOL0     C45272   0.051   2.293   1.706 -0.0819  0.2633  0.4440
  336MOL0     O45273   0.349   2.214   1.983 -0.1840 -0.1459 -0.3874
  336MOL0     C45274   0.565   2.239   1.705 -0.3163 -0.3485  1.2535
  336MOL0     C45275   0.686   2.196   1.642 -0.3012 -0.3404  0.2207
  336MOL0     N45276   1.184   1.702   1.968  0.7941 -0.0373 -0.5872
  336MOL0     N45277   1.106   1.613   2.007  0.2221 -0.1162  1.1842
  336MOL0     C45278   1.124   0.608   2.060  0.2931  1.1891  0.6015
  336MOL0     C45279   1.140   0.493   2.132  0.4412  0.7339 -0.0319
  336MOL0     C45280   1.107   0.041   2.223  0.5051  0.2190 -0.4584
  336MOL0     C45281   1.233   0.016   2.277 -1.0718  0.1862 -0.8027
  336MOL0     C45282   1.261  -0.097   2.350 -0.6232  0.7629 -0.8120
  336MOL0     C45283   1.146  -0.178   2.385 -0.0505  1.1381 -0.3718
  336MOL0     O45284   1.158  -0.295   2.462 -0.1909 -0.3563  0.3859
  336MOL0     C45285   1.291  -0.346   2.482 -0.0234  0.2079 -0.3470
  336MOL0     C45286   1.274  -0.491   2.526 -0.7889 -0.4950  1.1660
  336MOL0     C45287   1.415  -0.569   2.547  0.7248  0.2858  0.0462
  336MOL0     C45288   1.466  -0.546   2.692  0.6811 -0.1783  0.2491
  336MOL0     C45289   1.382  -0.641   2.758  0.3936  0.9049  0.1681
  336MOL0     C45290   1.316  -0.728   2.816 -0.3650  0.0020  0.6797
  336MOL0     C45291   1.022  -0.145   2.339  0.8866 -0.4227  0.8903
  336MOL0     C45292   1.000  -0.043   2.247  0.2041 -0.6738 -0.3923
  336MOL0     H45293   1.222   0.278   1.893  0.4348  0.7534  0.6984
  336MOL0     H45294   1.212   0.485   1.749  1.0365 -1.2150 -0.7092
  336MOL0     H45295   0.938   0.687   1.848  1.2718 -1.1317  2.9155
  336MOL0     H45296   0.981   0.829   1.930 -0.2987 -2.4285  0.7129
  336MOL0     H45297   1.030   0.771   1.637  1.5724  1.9200 -2.0163
  336MOL0     H45298   0.909   0.884   1.690 -0.7941 -3.7893 -1.6471
  336MOL0     H45299   1.203   0.967   1.757  1.4172  2.5245 -1.6336
  336MOL0     H45300   1.153   0.958   1.591 -2.1365  1.9388 -0.4999
  336MOL0     H45301   1.115   1.170   1.648  0.6832 -1.4315 -0.2490
  336MOL0     H45302   0.952   1.096   1.640 -0.5240  1.9443  0.1735
  336MOL0     H45303   0.961   1.099   1.901  0.8477  1.7405  3.2513
  336MOL0     H45304   1.118   1.165   1.893 -0.9269 -2.1616  2.5949
  336MOL0     H45305   1.002   1.356   1.742 -2.8380  0.9332 -1.4745
  336MOL0     H45306   0.853   1.264   1.767 -1.7548  3.4091  1.0173
  336MOL0     H45307   0.814   1.322   1.973 -0.5079 -0.7062 -2.9380
  336MOL0     H45308   0.989   1.337   2.010 -0.3967 -4.7677 -0.8037
  336MOL0     H45309   0.843   1.553   2.008 -0.2954  0.6082 -0.5426
  336MOL0     H45310   0.829   1.518   1.835 -0.4294  1.0220 -0.0754
  336MOL0     H45311   0.994   1.664   1.704 -1.1600  1.8152 -0.6857
  336MOL0     H45312   1.333   1.802   1.725  1.2248  2.7818  1.3443
  336MOL0     H45313   1.193   1.775   1.631  3.4801 -1.9078  0.0377
  336MOL0     H45314   1.231   2.024   1.681  0.3853  0.7304  0.1351
  336MOL0     H45315   1.240   1.978   1.851  0.6852 -1.4491 -0.4044
  336MOL0     H45316   1.032   2.090   1.817 -2.9677  0.5536 -2.1022
  336MOL0     H45317   1.008   1.928   1.881 -1.2795 -1.4888 -0.1029
  336MOL0     H45318   0.888   1.860   1.688  2.0274  0.1784  2.8218
  336MOL0     H45319   1.009   1.923   1.577 -2.5349  0.0236 -1.8707
  336MOL0     H45320   0.812   2.008   1.888 -1.6638 -1.5893 -0.7197
  336MOL0     H45321   0.680   2.009   2.070 -0.4053  0.1984  0.2942
  336MOL0     H45322   0.535   2.100   2.099  0.4177  0.5483  0.7304
  336MOL0     H45323   0.535   1.940   2.018  3.4085 -1.5811  0.5949
  336MOL0     H45324   0.201   2.411   1.978 -0.5406  1.1678 -0.4900
  336MOL0     H45325  -0.022   2.490   2.038  0.6789 -2.6007  0.7327
  336MOL0     H45326  -0.389   2.430   1.757 -0.7785  2.2127  1.2988
  336MOL0     H45327  -0.320   2.295   1.848 -0.7436  0.8494 -0.3173
  336MOL0     H45328  -0.459   2.545   1.940  1.3875  0.5268 -0.2233
  336MOL0     H45329  -0.551   2.409   1.910 -0.3992  1.2333 -1.6032
  336MOL0     H45330  -0.500   2.419   2.142 -1.4945  0.3616 -1.4287
  336MOL0     H45331  -0.324   2.436   2.124 -0.6595 -0.1189 -0.7890
  336MOL0     H45332  -0.307   2.205   2.036 -0.3275  1.2436 -2.9107
  336MOL0     H45333  -0.386   2.222   2.196  0.0497  0.5031 -0.2640
  336MOL0     H45334  -0.493   2.118   1.945 -1.8709  0.0415 -0.5228
  336MOL0     H45335  -0.603   2.223   2.016  1.1810  2.0575 -1.9460
  336MOL0     H45336  -0.458   1.985   2.145  1.1532  1.6172  2.2346
  336MOL0     H45337  -0.550   2.089   2.242  0.8410  1.9758 -0.5705
  336MOL0     H45338  -0.686   1.892   2.178  2.1428  1.5537  3.2855
  336MOL0     H45339  -0.678   1.936   2.009  0.9379  0.3659  0.4495
  336MOL0     H45340  -0.817   2.140   2.055  2.1780 -1.1300 -0.4484
  336MOL0     H45341  -0.807   2.096   2.228  1.4546 -1.0321  0.0946
  336MOL0     H45342  -0.169   2.336   1.669 -1.4975 -1.2047  2.5567
  336MOL0     H45343   0.070   2.241   1.612 -0.2142  1.7776 -0.4633
  336MOL0     H45344   0.498   2.302   1.648  0.2261  2.8967  3.9201
  336MOL0     H45345   0.713   2.246   1.550  2.8134  0.3536  1.3683
  336MOL0     H45346   1.087   0.704   2.093 -0.5212  1.4229 -0.8862
  336MOL0     H45347   1.108   0.491   2.236 -0.2691  0.0443 -0.2527
  336MOL0     H45348   1.321   0.077   2.259  1.8954 -3.5493 -0.2849
  336MOL0     H45349   1.357  -0.113   2.398 -0.0320 -1.2974 -2.5182
  336MOL0     H45350   1.358  -0.352   2.396  0.5504  0.6428  0.0557
  336MOL0     H45351   1.344  -0.282   2.554  0.8241  2.1473 -2.5357
  336MOL0     H45352   1.222  -0.539   2.443  2.0520  0.0684 -1.1262
  336MOL0     H45353   1.201  -0.488   2.608 -0.7924 -0.9084  1.1801
  336MOL0     H45354   1.493  -0.538   2.476  0.2510 -0.2645 -0.7253
  336MOL0     H45355   1.392  -0.673   2.523 -2.1949  1.0170 -0.7127
  336MOL0     H45356   1.459  -0.438   2.709 -0.2111 -0.3894  1.3553
  336MOL0     H45357   1.572  -0.570   2.700  0.9915  1.7384  3.9412
  336MOL0     H45358   1.259  -0.776   2.893  0.3527  2.5295  2.9578
  336MOL0     H45359   0.931  -0.192   2.376 -1.9757  2.4954 -1.7440
  336MOL0     H45360   0.908  -0.003   2.206  0.3637  1.1725  0.8967
  337MOL0     O45361   2.592   7.649  10.634 -0.1164  0.2855  0.5021
  337MOL0     C45362   2.609   7.722  10.534 -0.4208 -0.1089 -1.0883
  337MOL0     O45363   2.635   7.860  10.543  0.3028  0.0166 -0.1974
  337MOL0     C45364   2.658   7.927  10.666 -0.5900 -0.0600 -0.4209
  337MOL0     C45365   2.702   7.875  10.785 -0.3892  0.2098 -0.6592
  337MOL0     C45366   2.746   7.961  10.888  0.1744 -0.2629 -0.5299
  337MOL0     C45367   2.729   8.092  10.881 -0.7332 -0.3337  0.7938
  337MOL0     O45368   2.772   8.165  10.985 -0.0384  0.1902  0.4056
  337MOL0     C45369   2.855   8.286  10.943  0.1563  0.8849 -0.9068
  337MOL0     C45370   2.950   8.321  11.060 -1.0306 -0.2258  0.2506
  337MOL0     C45371   2.961   8.478  11.071 -0.0550  0.0837  0.5890
  337MOL0     C45372   2.835   8.543  11.104 -0.0474  0.4513 -0.8011
  337MOL0     C45373   2.857   8.670  11.192 -0.2885  0.2467 -0.3727
  337MOL0     C45374   2.897   8.649  11.342  0.3224  0.1969  0.4876
  337MOL0     C45375   2.782   8.572  11.411  0.5710 -0.2439 -0.0934
  337MOL0     C45376   2.808   8.545  11.563  0.7476 -0.4399 -1.0423
  337MOL0     N45377   2.836   8.668  11.640 -0.2035 -0.3904 -0.4664
  337MOL0     C45378   2.739   8.764  11.662  1.0020 -0.8128  0.5914
  337MOL0     C45379   2.804   8.866  11.718 -0.8872  0.1395  1.0297
  337MOL0     C45380   2.742   8.975  11.788 -0.2833  0.2259  0.7177
  337MOL0     C45381   2.846   9.090  11.804 -0.2056  0.6123 -0.3245
  337MOL0     C45382   2.939   9.068  11.922  0.6547  0.1723 -0.5468
  337MOL0     C45383   2.875   9.039  12.059 -0.8967  0.0270 -0.0275
  337MOL0     O45384   2.929   9.124  12.152 -0.3427  0.4728  0.0858
  337MOL0     C45385   2.911   9.109  12.291  0.1092 -0.2575  0.0348
  337MOL0     C45386   2.942   9.216  12.375  0.1676  0.1252  0.7224
  337MOL0     C45387   2.900   9.223  12.511 -0.2901 -0.8038 -0.4137
  337MOL0     C45388   2.960   9.341  12.581 -0.7920  0.4155  0.4648
  337MOL0     C45389   2.805   9.123  12.553 -0.4459 -0.3606 -0.4513
  337MOL0     C45390   2.739   9.135  12.690  0.4141  0.6512 -0.0071
  337MOL0     O45391   2.623   9.056  12.703  0.4767 -0.0104 -0.1179
  337MOL0     C45392   2.594   8.999  12.827 -0.2650 -0.2447  0.3758
  337MOL0     C45393   2.652   8.874  12.858  0.7944 -0.0813 -0.1477
  337MOL0     C45394   2.621   8.810  12.978 -0.7551 -0.2529  1.1726
  337MOL0     C45395   2.518   8.868  13.060  0.3121 -0.2061  0.0694
  337MOL0     O45396   2.486   8.808  13.181 -1.0230 -0.5459  0.6018
  337MOL0     C45397   2.535   8.679  13.228  0.0127  0.2825 -0.5497
  337MOL0     C45398   2.435   8.615  13.330  0.4745  0.5112 -0.6003
  337MOL0     C45399   2.449   8.664  13.474 -0.1442  0.3670  0.0228
  337MOL0     C45400   2.446   8.822  13.487 -0.6243 -0.3026  0.4316
  337MOL0     C45401   2.445   8.874  13.634  0.1046 -0.0095  0.9596
  337MOL0     C45402   2.461   9.022  13.648 -0.8145  0.1694 -0.2702
  337MOL0     C45403   2.357   9.116  13.584 -0.0060  0.3683 -0.0515
  337MOL0     C45404   2.279   9.198  13.691 -0.2311 -0.4417  0.1706
  337MOL0    Cl45405   2.141   9.289  13.617  0.0724 -0.0793  0.3487
  337MOL0     C45406   2.475   8.995  13.029  0.4878 -0.6209 -0.4533
  337MOL0     C45407   2.516   9.066  12.917  0.0348 -0.2466 -1.2574
  337MOL0     O45408   2.781   9.202  12.781 -0.1763 -0.3537 -0.6503
  337MOL0     C45409   2.769   9.024  12.465  0.6230  0.4864  0.2830
  337MOL0     C45410   2.827   9.004  12.341 -0.4184 -0.4017 -0.1214
  337MOL0     N45411   2.940   8.830  11.716  0.5659  1.1903  0.1923
  337MOL0     N45412   2.958   8.708  11.679 -0.5780 -1.5174  0.2187
  337MOL0     C45413   2.664   8.152  10.760 -0.5133  0.3822 -0.2724
  337MOL0     C45414   2.638   8.067  10.658  1.1453 -0.2442 -0.4491
  337MOL0     C45415   2.636   7.653  10.405 -0.6581  0.2223 -0.3786
  337MOL0     C45416   2.638   7.721  10.281 -0.2866  0.3850 -0.6491
  337MOL0     C45417   2.669   7.656  10.159  0.1039  0.3087  0.4475
  337MOL0     C45418   2.678   7.514  10.160  0.2921 -0.4148 -0.0406
  337MOL0     O45419   2.721   7.440  10.055 -0.2736 -0.7322  0.8429
  337MOL0     C45420   2.731   7.507   9.927 -0.2873  0.0406 -0.1989
  337MOL0     C45421   2.789   7.408   9.824  0.3409 -0.0024  0.1903
  337MOL0     C45422   2.682   7.304   9.791  0.6221  0.8656 -0.1093
  337MOL0     C45423   2.734   7.167   9.748 -0.0386  1.0145 -0.6036
  337MOL0     C45424   2.778   7.163   9.608 -0.9021 -0.0129 -0.3631
  337MOL0     C45425   2.818   7.155   9.487  0.4881 -0.9694 -0.6440
  337MOL0     C45426   2.664   7.448  10.288  0.1064 -0.3616 -0.0678
  337MOL0     C45427   2.644   7.519  10.401 -0.8455 -0.2340  1.4158
  337MOL0     H45428   2.715   7.767  10.787 -1.3872  0.0301 -2.3105
  337MOL0     H45429   2.786   7.916  10.979 -1.3934 -1.5688 -0.4379
  337MOL0     H45430   2.920   8.261  10.858  1.0289  1.7354 -0.5094
  337MOL0     H45431   2.786   8.367  10.918  0.2110  1.4964  0.7892
  337MOL0     H45432   2.900   8.286  11.151  0.5661 -1.2148  0.7925
  337MOL0     H45433   3.052   8.282  11.062 -0.1616  1.9228  0.5681
  337MOL0     H45434   3.043   8.494  11.140  0.3163 -0.9766  0.4251
  337MOL0     H45435   2.993   8.525  10.978 -1.3854  0.3317  0.2341
  337MOL0     H45436   2.791   8.575  11.009  1.0429  3.1006 -0.5230
  337MOL0     H45437   2.761   8.489  11.163  0.2810  1.5963  0.7290
  337MOL0     H45438   2.935   8.719  11.133  1.0100 -1.7741 -0.4547
  337MOL0     H45439   2.772   8.738  11.189  0.5683  1.6170  2.7293
  337MOL0     H45440   2.990   8.591  11.349  0.9216  0.5097 -3.1961
  337MOL0     H45441   2.913   8.747  11.387 -0.3502  0.5896 -0.1216
  337MOL0     H45442   2.698   8.640  11.398 -0.3368 -0.8095  2.3429
  337MOL0     H45443   2.764   8.473  11.368 -0.5512 -1.0855  2.1835
  337MOL0     H45444   2.894   8.477  11.569 -1.3256 -3.3349 -1.9591
  337MOL0     H45445   2.725   8.492  11.612  0.0939 -2.1380 -3.7633
  337MOL0     H45446   2.635   8.774  11.632  1.7322  0.2592 -1.8147
  337MOL0     H45447   2.675   9.021  11.714  0.2819  1.1390  0.7706
  337MOL0     H45448   2.694   8.941  11.881  2.4722 -0.5014  1.9546
  337MOL0     H45449   2.795   9.187  11.801 -1.7085 -0.0971  1.2478
  337MOL0     H45450   2.911   9.104  11.717  0.1281 -0.9201 -0.3473
  337MOL0     H45451   2.993   9.162  11.931  0.3048  0.2278  1.5955
  337MOL0     H45452   3.001   8.982  11.894 -1.1777 -0.4452 -3.0006
  337MOL0     H45453   2.911   8.941  12.092  2.6566  1.4232  0.5989
  337MOL0     H45454   2.767   9.055  12.050 -0.8287 -0.6228 -2.7349
  337MOL0     H45455   2.990   9.301  12.328  0.2594  0.6626  1.7801
  337MOL0     H45456   3.053   9.311  12.630 -0.0995 -1.2398 -1.6734
  337MOL0     H45457   2.990   9.422  12.515  0.1436 -0.8683 -0.7405
  337MOL0     H45458   2.893   9.375  12.661 -0.2559 -0.0184  1.1113
  337MOL0     H45459   2.708   8.831  12.775 -0.3743 -2.0029  0.0054
  337MOL0     H45460   2.675   8.717  12.991  2.5525  1.0506 -1.5527
  337MOL0     H45461   2.531   8.617  13.138 -0.2382 -2.7393  1.4222
  337MOL0     H45462   2.639   8.682  13.263 -0.8693 -4.7251  3.8583
  337MOL0     H45463   2.334   8.649  13.302  0.1076 -0.2430 -0.2253
  337MOL0     H45464   2.440   8.506  13.333  1.2450  0.5496 -0.5107
  337MOL0     H45465   2.542   8.628  13.519 -0.8033 -1.5092 -0.0363
  337MOL0     H45466   2.367   8.622  13.532  0.5280  0.8918  1.4026
  337MOL0     H45467   2.527   8.875  13.437 -0.1838  0.0797  1.5194
  337MOL0     H45468   2.352   8.856  13.441 -0.1815  2.7273  1.5356
  337MOL0     H45469   2.523   8.821  13.689  0.0918  1.5860  2.6539
  337MOL0     H45470   2.347   8.845  13.674 -0.4412  1.0033  0.3886
  337MOL0     H45471   2.466   9.045  13.755 -0.8136  2.9625 -0.8068
  337MOL0     H45472   2.558   9.053  13.610 -1.2352  0.1482 -1.3859
  337MOL0     H45473   2.298   9.052  13.518 -0.5258 -2.3351  2.7942
  337MOL0     H45474   2.406   9.194  13.524  1.0465  1.5962  2.2701
  337MOL0     H45475   2.349   9.269  13.736 -2.2622  1.4699  0.4784
  337MOL0     H45476   2.242   9.129  13.767  1.0297 -0.4001  0.8558
  337MOL0     H45477   2.406   9.038  13.100  1.1092  0.5492 -0.5332
  337MOL0     H45478   2.481   9.166  12.891  0.1644 -0.1992 -1.2525
  337MOL0     H45479   2.691   8.953  12.486 -0.1905  0.8296 -1.3680
  337MOL0     H45480   2.789   8.931  12.270  4.0626 -1.2388 -2.0044
  337MOL0     H45481   2.632   8.255  10.747  0.6763  0.6292 -1.3484
  337MOL0     H45482   2.583   8.095  10.568  0.9882 -0.9817 -0.5940
  337MOL0     H45483   2.621   7.828  10.280 -0.6299  0.5482  3.9707
  337MOL0     H45484   2.690   7.717  10.072 -1.3234  0.2718  0.0557
  337MOL0     H45485   2.638   7.553   9.891  0.5117  0.7933 -1.3591
  337MOL0     H45486   2.801   7.590   9.944 -2.4130  2.1488 -1.1142
  337MOL0     H45487   2.886   7.372   9.860  0.6741 -1.0632 -1.6344
  337MOL0     H45488   2.809   7.457   9.729  3.1297 -0.9862  0.1880
  337MOL0     H45489   2.617   7.360   9.723 -1.7102  0.1018  1.3855
  337MOL0     H45490   2.624   7.285   9.882  3.6583 -1.7328  1.5172
  337MOL0     H45491   2.650   7.097   9.750 -0.2697  1.2553  2.6106
  337MOL0     H45492   2.813   7.136   9.817 -0.6504  2.5254  0.8490
  337MOL0     H45493   2.843   7.142   9.384  5.5159 -3.4410  0.5613
  337MOL0     H45494   2.663   7.342  10.313 -2.6068 -0.5350 -0.6588
  337MOL0     H45495   2.645   7.461  10.493  1.0267  1.4016  2.5286
  338MOL0     O45496   9.180   7.029  10.355  0.4346  0.5613  0.4570
  338MOL0     C45497   9.264   6.982  10.430  0.5318  0.7679  0.4244
  338MOL0     O45498   9.306   7.036  10.551  0.6551 -0.5191 -0.1307
  338MOL0     C45499   9.242   7.143  10.605 -0.3614  0.6149  0.0091
  338MOL0     C45500   9.180   7.251  10.537  0.1255 -0.3313 -0.4154
  338MOL0     C45501   9.130   7.362  10.606  0.2371 -0.2082  0.4495
  338MOL0     C45502   9.137   7.372  10.740  0.9186  0.0394 -0.2581
  338MOL0     O45503   9.106   7.480  10.820 -0.3495 -0.1063  0.1192
  338MOL0     C45504   9.005   7.572  10.780 -0.2365  0.0979  0.2064
  338MOL0     C45505   8.975   7.652  10.906  0.4665 -0.2493  0.1964
  338MOL0     C45506   8.855   7.741  10.883  0.7667 -0.0852  0.1948
  338MOL0     C45507   8.796   7.788  11.016  1.7124  0.1432 -0.2625
  338MOL0     C45508   8.672   7.883  10.995  0.2853  0.4261  0.2614
  338MOL0     C45509   8.713   8.035  10.990  0.6084 -0.1700 -0.4068
  338MOL0     C45510   8.585   8.118  11.012  0.1978  0.1918 -0.0227
  338MOL0     C45511   8.618   8.268  10.997 -0.0374  0.9444  0.1644
  338MOL0     N45512   8.682   8.306  10.870 -0.4349 -0.3372  0.2442
  338MOL0     C45513   8.636   8.259  10.750 -0.2513 -0.7081  0.1977
  338MOL0     C45514   8.739   8.254  10.672  0.2511 -0.8951  0.3525
  338MOL0     C45515   8.757   8.184  10.542  0.9226  0.3157 -0.4186
  338MOL0     C45516   8.841   8.054  10.546  0.1628  0.8917 -0.5227
  338MOL0     C45517   8.937   8.025  10.430  0.3702  0.0593  0.8870
  338MOL0     C45518   9.058   8.133  10.414  0.2241 -0.0683 -0.6976
  338MOL0     O45519   9.150   8.085  10.311  0.1051  0.0211 -0.1813
  338MOL0     C45520   9.237   7.981  10.342  0.0724  0.3355 -0.0819
  338MOL0     C45521   9.255   7.907  10.461  0.3068 -0.7045  0.7013
  338MOL0     C45522   9.334   7.795  10.474  0.0860 -1.4624 -0.4629
  338MOL0     C45523   9.350   7.741  10.618  1.0042  0.2025 -1.3150
  338MOL0     C45524   9.397   7.745  10.357  0.3164  0.2754 -0.6138
  338MOL0     C45525   9.464   7.614  10.362 -0.2617 -0.0681 -0.1413
  338MOL0     O45526   9.543   7.578  10.260 -0.0869  0.6549  0.6310
  338MOL0     C45527   9.598   7.455  10.251 -0.3787  0.1006 -0.4658
  338MOL0     C45528   9.735   7.458  10.214 -0.4446  0.5110 -0.2287
  338MOL0     C45529   9.809   7.341  10.180  0.1339  0.1955 -0.7483
  338MOL0     C45530   9.751   7.215  10.202 -0.0925 -0.5337 -0.9528
  338MOL0     O45531   9.829   7.108  10.174  0.6170 -0.3688  0.7119
  338MOL0     C45532   9.775   6.975  10.188  0.6586 -0.8961  0.7032
  338MOL0     C45533   9.871   6.883  10.129 -0.4378  0.2237  0.3834
  338MOL0     C45534   9.962   6.815  10.235  0.0137  0.1708 -0.4944
  338MOL0     C45535  10.052   6.702  10.189 -0.0587  0.8954 -0.3145
  338MOL0     C45536  10.119   6.640  10.310 -0.0715  0.1967  0.3915
  338MOL0     C45537  10.219   6.734  10.377  0.2643 -0.0286 -0.4937
  338MOL0     C45538  10.304   6.664  10.485  1.1905  0.3676  0.6242
  338MOL0     C45539  10.397   6.759  10.563 -0.3743  0.2936  1.3103
  338MOL0    Cl45540  10.483   6.660  10.683  0.3072  0.2035  0.4494
  338MOL0     C45541   9.610   7.208  10.248 -0.5607  0.4251  0.4712
  338MOL0     C45542   9.542   7.330  10.278 -0.7044 -0.0095  0.1030
  338MOL0     O45543   9.428   7.537  10.453 -0.3771 -0.2740  0.1624
  338MOL0     C45544   9.383   7.812  10.242 -0.1403 -0.0417  0.2212
  338MOL0     C45545   9.306   7.926  10.229 -0.0083 -0.5535  0.0877
  338MOL0     N45546   8.848   8.310  10.734 -0.3380 -0.5088 -0.4749
  338MOL0     N45547   8.812   8.339  10.856 -0.1164 -0.3667  0.2775
  338MOL0     C45548   9.197   7.267  10.807 -0.6041  0.6071  0.8099
  338MOL0     C45549   9.250   7.154  10.744 -0.7222 -0.7655  1.4959
  338MOL0     C45550   9.337   6.866  10.391 -0.3904  1.1236  0.1141
  338MOL0     C45551   9.335   6.828  10.261 -0.1188  0.2088  0.9489
  338MOL0     C45552   9.422   6.725  10.220  0.5582  0.4429 -0.2131
  338MOL0     C45553   9.517   6.663  10.306  0.0909  0.0272 -0.3516
  338MOL0     O45554   9.592   6.563  10.246 -0.3951 -1.1211  0.2816
  338MOL0     C45555   9.715   6.515  10.293 -0.8333 -0.6008 -0.1057
  338MOL0     C45556   9.766   6.406  10.211 -0.6211  0.5311 -0.3318
  338MOL0     C45557   9.787   6.428  10.064  0.6797 -0.2989  0.5148
  338MOL0     C45558   9.852   6.299   9.996 -0.6974  0.5201  0.1737
  338MOL0     C45559   9.980   6.346   9.923  0.7241  0.0663  0.1919
  338MOL0     C45560  10.072   6.376   9.860 -0.4820 -0.1134  0.5787
  338MOL0     C45561   9.513   6.704  10.442 -0.0120 -0.0955  0.4025
  338MOL0     C45562   9.420   6.800  10.484 -0.4645 -0.0870 -0.5077
  338MOL0     H45563   9.182   7.246  10.429  3.3991 -1.7759 -0.4035
  338MOL0     H45564   9.089   7.440  10.543  3.3535  1.3473  0.1184
  338MOL0     H45565   9.035   7.631  10.693 -1.0949 -1.3957 -1.1512
  338MOL0     H45566   8.913   7.519  10.754  1.9349 -1.8718 -4.4367
  338MOL0     H45567   8.966   7.581  10.989  1.6577  0.8274  1.3025
  338MOL0     H45568   9.065   7.711  10.925 -0.6296  1.4177  0.3589
  338MOL0     H45569   8.864   7.835  10.827 -1.2997  1.1428  1.8011
  338MOL0     H45570   8.786   7.687  10.817 -0.5085  2.9501 -1.1411
  338MOL0     H45571   8.755   7.704  11.074  0.6477 -1.2641 -2.9145
  338MOL0     H45572   8.868   7.836  11.083 -0.6945  1.7012  1.3791
  338MOL0     H45573   8.622   7.857  10.901 -2.5540 -3.1097  2.4749
  338MOL0     H45574   8.592   7.876  11.069 -1.0756  3.1454 -0.8233
  338MOL0     H45575   8.786   8.050  11.070 -0.4738 -0.2941  0.6457
  338MOL0     H45576   8.745   8.069  10.891  0.2664  2.0236  0.1673
  338MOL0     H45577   8.505   8.085  10.945  0.5017 -0.8939  0.1209
  338MOL0     H45578   8.555   8.101  11.116  1.6637 -2.4905  0.0481
  338MOL0     H45579   8.689   8.314  11.067 -2.0838  2.8193  1.1555
  338MOL0     H45580   8.530   8.330  11.018  0.6888  1.6152  1.3568
  338MOL0     H45581   8.541   8.210  10.734  1.1767 -3.6519  0.0973
  338MOL0     H45582   8.655   8.158  10.512  1.0186 -2.5470  1.3352
  338MOL0     H45583   8.792   8.271  10.486 -0.6611  1.9983  1.0237
  338MOL0     H45584   8.765   7.977  10.556  0.2223  1.0139  1.0008
  338MOL0     H45585   8.890   8.034  10.641 -2.9227 -5.3437  0.2076
  338MOL0     H45586   8.879   8.017  10.338  1.9004  1.3528 -0.2668
  338MOL0     H45587   8.990   7.933  10.455  0.3018 -0.2409 -0.0423
  338MOL0     H45588   9.106   8.141  10.512 -2.1174 -1.2768  0.6530
  338MOL0     H45589   9.022   8.235  10.396 -0.4268 -0.3102 -0.8048
  338MOL0     H45590   9.208   7.938  10.554 -2.3420  0.8669 -1.0623
  338MOL0     H45591   9.453   7.738  10.655  0.8183  1.4947 -0.6336
  338MOL0     H45592   9.290   7.794  10.693 -0.9696 -0.1953 -2.5469
  338MOL0     H45593   9.305   7.642  10.627  1.3665  0.1290 -0.2083
  338MOL0     H45594   9.794   7.542  10.180  1.5483 -0.4105  0.8202
  338MOL0     H45595   9.910   7.342  10.141  0.4565 -0.1692  0.0677
  338MOL0     H45596   9.761   6.954  10.294  0.7078 -0.1275  0.8695
  338MOL0     H45597   9.673   6.962  10.152  1.2696 -0.7003 -1.2404
  338MOL0     H45598   9.802   6.805  10.094 -0.9050  0.1584  1.4170
  338MOL0     H45599   9.934   6.920  10.048 -0.4656 -1.0110 -0.2346
  338MOL0     H45600   9.899   6.780  10.318  0.5598  0.2242 -0.0513
  338MOL0     H45601  10.022   6.896  10.279 -0.1988  0.4023 -0.6323
  338MOL0     H45602   9.990   6.627  10.139  3.0353 -1.2552 -1.1860
  338MOL0     H45603  10.124   6.726  10.110  0.3209 -3.8205 -1.6781
  338MOL0     H45604  10.170   6.549  10.278 -2.4110 -0.1824 -2.5969
  338MOL0     H45605  10.039   6.603  10.375 -1.5543  0.4630 -1.2483
  338MOL0     H45606  10.280   6.768  10.293 -2.0731 -1.6550 -3.0071
  338MOL0     H45607  10.184   6.835  10.400  2.9119  1.3945 -2.1316
  338MOL0     H45608  10.365   6.587  10.436  0.9310 -0.7190  1.9517
  338MOL0     H45609  10.233   6.603  10.542  1.0630 -2.4954 -2.2702
  338MOL0     H45610  10.330   6.828  10.615 -2.7724  0.2664 -1.5302
  338MOL0     H45611  10.463   6.808  10.491 -0.4425 -2.6379 -0.9548
  338MOL0     H45612   9.559   7.114  10.269 -0.0111  0.2616  1.1012
  338MOL0     H45613   9.440   7.326  10.316 -0.5957 -0.0260  0.3957
  338MOL0     H45614   9.431   7.777  10.151 -1.6720 -1.3758 -0.1231
  338MOL0     H45615   9.307   7.984  10.137 -2.2701  2.2290  1.6790
  338MOL0     H45616   9.222   7.283  10.912  1.7249 -1.3126  0.6267
  338MOL0     H45617   9.296   7.080  10.807 -0.5320 -2.5578 -0.6319
  338MOL0     H45618   9.279   6.877  10.183  1.3564  0.0233 -0.2791
  338MOL0     H45619   9.421   6.670  10.126  2.0919 -1.5757  0.8634
  338MOL0     H45620   9.793   6.590  10.306  1.5041 -2.6781 -1.2178
  338MOL0     H45621   9.687   6.465  10.387  1.5995 -2.7139 -0.3652
  338MOL0     H45622   9.697   6.322  10.221  0.5138 -0.4537 -0.4530
  338MOL0     H45623   9.861   6.367  10.250 -0.9993 -1.0783 -0.9673
  338MOL0     H45624   9.840   6.521  10.043  1.0839 -0.6880 -0.2637
  338MOL0     H45625   9.687   6.441  10.023  0.7735 -1.6768 -0.2276
  338MOL0     H45626   9.783   6.247   9.929  0.2669 -2.7657  1.5584
  338MOL0     H45627   9.882   6.224  10.069  1.6700  0.1718 -1.0427
  338MOL0     H45628  10.145   6.417   9.794 -2.1711 -1.4787 -2.3103
  338MOL0     H45629   9.569   6.645  10.514  0.4396 -0.4010 -0.1830
  338MOL0     H45630   9.423   6.829  10.589 -1.9457 -1.4596 -0.0424
  339MOL0     O45631   7.592   7.747   0.841  0.0712 -1.1888  0.6499
  339MOL0     C45632   7.637   7.777   0.724  0.2117  0.0216 -0.1053
  339MOL0     O45633   7.749   7.859   0.701 -0.7241 -0.3588  0.7144
  339MOL0     C45634   7.834   7.913   0.800 -0.5146 -0.4745 -0.2349
  339MOL0     C45635   7.859   7.882   0.939 -0.4880 -0.0816  0.7469
  339MOL0     C45636   7.958   7.942   1.014 -0.2587 -0.2027  0.4030
  339MOL0     C45637   8.049   8.029   0.957  0.2310 -0.0518 -0.0595
  339MOL0     O45638   8.129   8.102   1.040  0.5428 -0.5676 -0.2048
  339MOL0     C45639   8.050   8.182   1.137  0.3942 -0.1095 -0.2340
  339MOL0     C45640   8.106   8.322   1.161  0.0113  0.2259  0.4891
  339MOL0     C45641   8.238   8.325   1.241  0.3444  0.3232 -0.2624
  339MOL0     C45642   8.266   8.458   1.314  0.0883 -0.4924  0.3173
  339MOL0     C45643   8.389   8.463   1.399  0.1585 -0.2279 -0.1785
  339MOL0     C45644   8.421   8.345   1.502 -0.4050 -0.7060 -0.0316
  339MOL0     C45645   8.523   8.387   1.601  0.6625  0.0230 -0.6361
  339MOL0     C45646   8.575   8.263   1.692  0.2700  0.3057 -0.1356
  339MOL0     N45647   8.662   8.316   1.799  0.4996 -0.1280 -0.6227
  339MOL0     C45648   8.799   8.305   1.803  0.2290  0.4907 -0.1695
  339MOL0     C45649   8.837   8.372   1.915 -0.0554 -0.9083 -0.8286
  339MOL0     C45650   8.983   8.390   1.955  0.4025  0.2823  0.3729
  339MOL0     C45651   9.059   8.466   1.850  0.6792  0.4115  0.2086
  339MOL0     C45652   8.988   8.587   1.794  0.0499 -0.0261  0.5515
  339MOL0     C45653   9.078   8.689   1.733  0.8221  0.3739  0.6290
  339MOL0     O45654   9.167   8.735   1.835 -0.0812  0.2163 -0.1589
  339MOL0     C45655   9.282   8.802   1.806 -0.5610 -0.1293  0.3037
  339MOL0     C45656   9.306   8.868   1.683  0.7945  0.7571  0.0185
  339MOL0     C45657   9.428   8.924   1.643  0.2833  1.0068 -0.8095
  339MOL0     C45658   9.445   8.958   1.502  0.0612  0.2431  0.2639
  339MOL0     C45659   9.532   8.934   1.746  0.5067 -0.8156  0.0232
  339MOL0     C45660   9.667   8.999   1.736 -0.2284 -1.0338  0.6256
  339MOL0     O45661   9.713   9.034   1.860 -0.3839 -0.4866  0.0396
  339MOL0     C45662   9.833   9.108   1.866 -0.4376  0.7145  0.2750
  339MOL0     C45663   9.836   9.237   1.924 -0.5649 -0.8523  0.1256
  339MOL0     C45664   9.952   9.313   1.908 -0.1360 -1.2339 -0.0524
  339MOL0     C45665  10.072   9.254   1.883 -0.9530  0.3481 -0.0987
  339MOL0     O45666  10.188   9.320   1.886 -0.4486  0.7018 -0.2688
  339MOL0     C45667  10.230   9.410   1.783 -0.5157 -1.5873 -0.5489
  339MOL0     C45668  10.379   9.411   1.761  0.0961  0.2126  0.2451
  339MOL0     C45669  10.408   9.364   1.614  0.0409  0.0666  0.5093
  339MOL0     C45670  10.345   9.228   1.575 -1.0110  1.2784  0.5896
  339MOL0     C45671  10.417   9.158   1.460  0.2367 -1.0324 -0.3344
  339MOL0     C45672  10.336   9.039   1.415  0.2928  0.1103  0.4926
  339MOL0     C45673  10.388   8.945   1.301 -0.5050 -0.0453  0.3083
  339MOL0     C45674  10.410   8.999   1.160 -0.8786 -0.0881  0.2361
  339MOL0    Cl45675  10.244   9.009   1.087  0.4689  0.1336 -0.4154
  339MOL0     C45676  10.083   9.119   1.852  0.3309  0.1076  0.5953
  339MOL0     C45677   9.961   9.048   1.840 -0.6008 -0.8006  0.1671
  339MOL0     O45678   9.728   9.004   1.627 -0.5636  0.6194 -0.0031
  339MOL0     C45679   9.492   8.889   1.876 -0.3041 -0.3766  0.0184
  339MOL0     C45680   9.374   8.823   1.909  0.5811  0.2398 -0.2920
  339MOL0     N45681   8.718   8.399   1.994 -0.6304  0.1067 -0.4095
  339MOL0     N45682   8.619   8.364   1.915  0.2615 -0.1818  0.1573
  339MOL0     C45683   8.038   8.052   0.820 -0.7283 -1.1525 -0.0933
  339MOL0     C45684   7.936   7.996   0.741 -0.2564 -0.7005 -0.4746
  339MOL0     C45685   7.561   7.742   0.603 -0.1932  0.0685 -1.7048
  339MOL0     C45686   7.465   7.632   0.611 -0.6631  0.0457 -0.0508
  339MOL0     C45687   7.385   7.608   0.503  0.4736 -0.1849  0.3366
  339MOL0     C45688   7.392   7.685   0.390 -1.0918  0.4522  0.0241
  339MOL0     O45689   7.322   7.624   0.282  0.2945  0.0852 -0.0246
  339MOL0     C45690   7.399   7.564   0.171  0.4280 -0.1571 -0.1786
  339MOL0     C45691   7.314   7.535   0.050  0.0166  0.1371  0.1103
  339MOL0     C45692   7.397   7.446  -0.053 -0.3956 -0.7040 -0.2410
  339MOL0     C45693   7.366   7.298  -0.040 -0.1153  0.3036 -0.6556
  339MOL0     C45694   7.229   7.257  -0.022  0.1486 -0.6198  0.1898
  339MOL0     C45695   7.114   7.234  -0.035  0.0276  0.5628  0.0474
  339MOL0     C45696   7.489   7.788   0.376 -0.6557  0.7364 -0.4121
  339MOL0     C45697   7.575   7.811   0.479 -0.4502  0.9399 -0.3359
  339MOL0     H45698   7.805   7.798   0.982  0.7762 -0.1803  2.2422
  339MOL0     H45699   7.978   7.915   1.117 -0.0962  0.7183  0.6241
  339MOL0     H45700   7.949   8.197   1.098 -0.2398 -2.8754  0.1344
  339MOL0     H45701   8.050   8.131   1.234 -2.0412  2.0627  1.0058
  339MOL0     H45702   8.139   8.366   1.066  2.2510  0.4699  1.3203
  339MOL0     H45703   8.033   8.385   1.212  0.9922 -0.4723  2.9000
  339MOL0     H45704   8.231   8.252   1.322  0.7982  0.2242 -0.3048
  339MOL0     H45705   8.327   8.307   1.180  1.4279  2.6082  0.5302
  339MOL0     H45706   8.268   8.542   1.245  3.7110 -1.6079 -1.2108
  339MOL0     H45707   8.190   8.472   1.391 -0.5502 -3.2610  0.3216
  339MOL0     H45708   8.483   8.477   1.345 -0.4006  0.9819 -0.8736
  339MOL0     H45709   8.360   8.553   1.452 -1.3241 -1.0749  0.5192
  339MOL0     H45710   8.332   8.304   1.549 -2.2698  1.0379 -1.8706
  339MOL0     H45711   8.474   8.269   1.444  0.8376 -0.0455  0.1953
  339MOL0     H45712   8.611   8.428   1.550  1.1935  0.6152  0.7026
  339MOL0     H45713   8.486   8.471   1.660  0.4174  1.8536 -3.2298
  339MOL0     H45714   8.632   8.198   1.625  0.8893  0.6146  0.0765
  339MOL0     H45715   8.496   8.209   1.745  0.1571  1.0358  0.4516
  339MOL0     H45716   8.857   8.242   1.737 -2.1220 -0.6852 -1.2655
  339MOL0     H45717   8.995   8.456   2.041  1.3620 -1.3299  1.5118
  339MOL0     H45718   9.026   8.290   1.967 -0.4324 -0.0081  1.0549
  339MOL0     H45719   9.081   8.398   1.767  0.7655  0.2721  0.3449
  339MOL0     H45720   9.154   8.491   1.898  0.7199  2.8585 -0.9860
  339MOL0     H45721   8.938   8.636   1.879 -0.4311  2.2745 -0.9712
  339MOL0     H45722   8.912   8.564   1.719  2.6823 -2.2445 -1.6121
  339MOL0     H45723   9.015   8.769   1.693  0.5471  1.5895  3.2560
  339MOL0     H45724   9.129   8.641   1.650 -1.9867 -2.4099  0.3048
  339MOL0     H45725   9.223   8.855   1.615 -2.2959 -2.4772  3.8979
  339MOL0     H45726   9.359   8.923   1.444  1.8210 -1.9278 -1.2307
  339MOL0     H45727   9.461   9.063   1.476  1.4733 -0.5065 -2.2311
  339MOL0     H45728   9.530   8.897   1.471 -0.4332 -1.3228  1.8562
  339MOL0     H45729   9.746   9.283   1.964 -0.1387  0.1762 -0.0684
  339MOL0     H45730   9.957   9.420   1.927  0.3996 -0.8992 -1.8784
  339MOL0     H45731  10.176   9.384   1.691  1.0185  0.2375 -2.0590
  339MOL0     H45732  10.199   9.513   1.804  1.4606 -1.1050  0.1455
  339MOL0     H45733  10.411   9.515   1.768  0.0202  0.2674 -0.1637
  339MOL0     H45734  10.433   9.351   1.834 -0.1574 -2.5776 -1.7240
  339MOL0     H45735  10.516   9.350   1.603  0.6230  3.3631  0.6977
  339MOL0     H45736  10.395   9.448   1.545  2.4663  0.5025  0.4959
  339MOL0     H45737  10.350   9.155   1.656 -1.0624 -5.7209 -4.7669
  339MOL0     H45738  10.241   9.239   1.542 -0.7563 -3.1938 -2.5568
  339MOL0     H45739  10.514   9.126   1.497  1.9944  4.3702  0.6378
  339MOL0     H45740  10.451   9.224   1.379  3.2563  1.1601  2.4776
  339MOL0     H45741  10.316   8.979   1.504 -0.5389 -0.1503  0.1416
  339MOL0     H45742  10.238   9.077   1.383 -0.2858 -0.0869  1.9454
  339MOL0     H45743  10.319   8.860   1.295 -1.8161  1.0717 -1.1974
  339MOL0     H45744  10.489   8.910   1.324 -0.1833  1.2441  0.9510
  339MOL0     H45745  10.479   8.930   1.112 -1.5673 -1.4459  1.1381
  339MOL0     H45746  10.471   9.090   1.169  2.9279 -2.5506  2.3443
  339MOL0     H45747  10.173   9.070   1.817  1.0041  2.8925 -2.0252
  339MOL0     H45748   9.959   8.948   1.798 -0.7753 -1.5575  1.8979
  339MOL0     H45749   9.559   8.910   1.959 -1.3019 -1.6665  1.1933
  339MOL0     H45750   9.348   8.793   2.011 -0.5156  0.1407 -0.5828
  339MOL0     H45751   8.121   8.111   0.782 -1.4662 -1.0947 -1.7277
  339MOL0     H45752   7.933   8.025   0.636  0.2357 -1.3165 -0.6676
  339MOL0     H45753   7.464   7.564   0.696  0.0100 -0.6624 -0.5912
  339MOL0     H45754   7.323   7.518   0.502 -0.4912  0.4636 -0.1578
  339MOL0     H45755   7.473   7.642   0.153  0.7954  0.5264  3.4056
  339MOL0     H45756   7.457   7.479   0.208 -0.9807 -1.0758 -0.0062
  339MOL0     H45757   7.273   7.627   0.007 -0.8666  0.5247  1.6955
  339MOL0     H45758   7.223   7.486   0.086 -1.8375  3.3111  0.0970
  339MOL0     H45759   7.505   7.460  -0.044 -0.2024 -2.0459 -0.3006
  339MOL0     H45760   7.374   7.469  -0.157 -1.9702  2.0668  0.6015
  339MOL0     H45761   7.413   7.267   0.054  1.2085 -1.7089 -1.9033
  339MOL0     H45762   7.417   7.246  -0.122  0.6334  0.4648 -0.2991
  339MOL0     H45763   7.009   7.212  -0.043 -0.8556  3.0115  3.1267
  339MOL0     H45764   7.504   7.848   0.287  0.9543 -3.1509 -3.0110
  339MOL0     H45765   7.652   7.887   0.475  3.1902 -2.2851  0.8692
  340MOL0     O45766   5.369   5.266   3.735 -0.6125  0.7075 -0.4788
  340MOL0     C45767   5.269   5.331   3.740  0.0289  0.3273  1.7767
  340MOL0     O45768   5.150   5.280   3.788  0.3147  0.1155 -0.4306
  340MOL0     C45769   5.125   5.146   3.785 -0.6783 -0.5732 -0.0948
  340MOL0     C45770   5.187   5.046   3.704 -0.2774 -0.1362  0.2750
  340MOL0     C45771   5.144   4.911   3.713 -0.1556 -0.4098  0.4325
  340MOL0     C45772   5.038   4.876   3.800 -0.1815 -0.2541 -0.1309
  340MOL0     O45773   5.005   4.749   3.799  1.1917  0.2353 -0.8033
  340MOL0     C45774   4.999   4.675   3.921 -0.3746  0.7221  0.0398
  340MOL0     C45775   5.019   4.538   3.870 -0.5730  1.3177 -0.6275
  340MOL0     C45776   4.967   4.441   3.979 -0.1343  1.1855 -0.8649
  340MOL0     C45777   4.944   4.297   3.941  0.0871  0.1343  0.4902
  340MOL0     C45778   5.071   4.218   3.928 -0.0723  1.1261  0.6952
  340MOL0     C45779   5.186   4.226   4.035 -0.7976 -0.9218 -0.1131
  340MOL0     C45780   5.279   4.107   4.030  0.9205  0.3602  0.3139
  340MOL0     C45781   5.429   4.135   4.075 -0.1384 -0.5781  0.6557
  340MOL0     N45782   5.442   4.200   4.208 -0.4819 -0.6729  0.5026
  340MOL0     C45783   5.431   4.137   4.326 -0.2955 -0.2039 -0.9945
  340MOL0     C45784   5.444   4.233   4.422  0.2324  0.2840 -0.6401
  340MOL0     C45785   5.436   4.199   4.573 -0.3747 -0.4730  0.6355
  340MOL0     C45786   5.527   4.293   4.661 -0.2933  1.7100 -0.9135
  340MOL0     C45787   5.673   4.249   4.668  0.0524  0.4673  0.6594
  340MOL0     C45788   5.763   4.356   4.726  0.0178 -0.3547  0.1980
  340MOL0     O45789   5.896   4.319   4.705 -0.5086  0.9720 -0.7387
  340MOL0     C45790   5.949   4.223   4.786 -1.2035  0.6074 -0.3835
  340MOL0     C45791   5.892   4.159   4.894  0.7582  0.3549  1.5562
  340MOL0     C45792   5.965   4.083   4.989 -0.0322 -0.0012 -0.6170
  340MOL0     C45793   5.882   4.007   5.102 -0.0469 -0.3868 -0.3217
  340MOL0     C45794   6.102   4.058   4.957 -0.0221  0.2481 -0.5584
  340MOL0     C45795   6.178   3.938   5.016 -0.3053 -0.4014 -0.0136
  340MOL0     O45796   6.117   3.866   5.109  0.1575  0.9799  0.3032
  340MOL0     C45797   6.173   3.743   5.150 -1.0535 -0.3793  0.2337
  340MOL0     C45798   6.160   3.706   5.286 -0.2932 -0.4698 -0.0143
  340MOL0     C45799   6.206   3.600   5.354 -0.2224  1.0758  0.4515
  340MOL0     C45800   6.275   3.512   5.269  0.3393  0.4888 -0.5658
  340MOL0     O45801   6.340   3.408   5.333 -0.3498 -0.8235  0.6156
  340MOL0     C45802   6.399   3.306   5.258 -0.3154 -0.3964  0.6795
  340MOL0     C45803   6.432   3.190   5.363  0.6172 -0.0133 -0.0306
  340MOL0     C45804   6.322   3.074   5.366 -0.9337 -0.0310 -0.2577
  340MOL0     C45805   6.171   3.117   5.379 -0.2018 -0.3509 -0.3500
  340MOL0     C45806   6.080   3.019   5.445  0.6659  0.6189 -0.0644
  340MOL0     C45807   6.110   2.874   5.410  0.2043  0.7573  0.5554
  340MOL0     C45808   6.005   2.779   5.476 -0.9679 -0.0926  0.5016
  340MOL0     C45809   5.989   2.643   5.400 -0.1599 -0.3542  0.0689
  340MOL0    Cl45810   5.917   2.651   5.236 -0.3785 -0.0707 -0.0246
  340MOL0     C45811   6.270   3.521   5.129  0.2766 -1.1403  0.0079
  340MOL0     C45812   6.230   3.642   5.068 -0.4010 -0.2186 -0.5797
  340MOL0     O45813   6.297   3.915   4.977  0.0469 -0.1455  0.6779
  340MOL0     C45814   6.162   4.121   4.851 -0.6169  0.5594  0.0499
  340MOL0     C45815   6.087   4.208   4.761  0.6968  1.2185  1.4224
  340MOL0     N45816   5.484   4.346   4.358  0.7008  0.4022 -0.5211
  340MOL0     N45817   5.459   4.332   4.237 -0.2585  0.4022  0.2294
  340MOL0     C45818   4.981   4.973   3.878  1.2618 -0.6271 -0.4491
  340MOL0     C45819   5.015   5.114   3.859 -0.1378 -0.4129  0.6928
  340MOL0     C45820   5.277   5.481   3.712 -0.1321  0.5456  0.7880
  340MOL0     C45821   5.166   5.567   3.724  0.3800  0.1961  0.0457
  340MOL0     C45822   5.186   5.704   3.704  0.3831  0.3918  0.3271
  340MOL0     C45823   5.314   5.757   3.672  0.1818 -0.1510 -1.0127
  340MOL0     O45824   5.339   5.887   3.665  0.0019 -0.5342 -0.7946
  340MOL0     C45825   5.241   5.985   3.689 -0.2143  0.6220 -0.7196
  340MOL0     C45826   5.321   6.112   3.714  0.2147  0.5539 -0.6673
  340MOL0     C45827   5.220   6.222   3.739 -0.6159 -0.1624 -0.1186
  340MOL0     C45828   5.311   6.343   3.781 -0.7277 -0.3692 -0.2254
  340MOL0     C45829   5.353   6.434   3.670 -0.7560 -0.8966 -0.0923
  340MOL0     C45830   5.381   6.503   3.578 -0.3621 -1.4230  0.0169
  340MOL0     C45831   5.411   5.666   3.661 -0.5074 -0.4204 -0.2606
  340MOL0     C45832   5.401   5.527   3.678 -0.1889  0.1570  0.2206
  340MOL0     H45833   5.268   5.064   3.634 -0.7951  2.0217  0.1561
  340MOL0     H45834   5.197   4.837   3.653  1.8450  1.5229 -0.3474
  340MOL0     H45835   5.087   4.697   3.982  0.4173 -0.4308 -0.6517
  340MOL0     H45836   4.910   4.698   3.980  0.2092 -0.9951  1.6918
  340MOL0     H45837   4.970   4.507   3.777  0.4677 -1.4607 -0.3565
  340MOL0     H45838   5.124   4.517   3.849 -0.6105 -0.7416  0.8580
  340MOL0     H45839   5.030   4.440   4.068  0.2268  0.0285 -1.1185
  340MOL0     H45840   4.866   4.466   4.010 -0.9107 -3.3025  1.0056
  340MOL0     H45841   4.883   4.246   4.016  2.4264 -1.3665  1.5008
  340MOL0     H45842   4.882   4.305   3.851  0.5936 -1.1270  0.0003
  340MOL0     H45843   5.031   4.117   3.913  1.5152  0.3569  1.4201
  340MOL0     H45844   5.123   4.254   3.838 -2.8361  3.3474 -0.1553
  340MOL0     H45845   5.244   4.313   4.004 -2.2240  0.4645  0.9452
  340MOL0     H45846   5.148   4.262   4.131  1.2959 -2.4490  1.3943
  340MOL0     H45847   5.245   4.021   4.090  0.2866  1.1241  1.0740
  340MOL0     H45848   5.299   4.077   3.927  1.0037 -1.4538  0.8268
  340MOL0     H45849   5.475   4.202   4.003  0.4408  2.2452  3.4461
  340MOL0     H45850   5.488   4.043   4.075  2.1339  0.7990  2.3190
  340MOL0     H45851   5.400   4.034   4.342  0.6319 -0.8277 -2.8954
  340MOL0     H45852   5.328   4.210   4.590 -0.8702  2.3390 -2.9041
  340MOL0     H45853   5.474   4.097   4.587  0.1800 -0.1069  1.8722
  340MOL0     H45854   5.483   4.309   4.760 -0.4726  2.7426 -1.1421
  340MOL0     H45855   5.522   4.391   4.612 -2.0491  3.4800  2.4388
  340MOL0     H45856   5.699   4.230   4.564  0.7060  0.5318  0.8074
  340MOL0     H45857   5.687   4.152   4.717  0.8771 -0.1436 -0.7164
  340MOL0     H45858   5.738   4.359   4.832  2.2253  1.1522  0.7438
  340MOL0     H45859   5.745   4.449   4.671 -1.1157 -1.1925 -0.9200
  340MOL0     H45860   5.785   4.156   4.905  0.3297 -3.6667 -1.3938
  340MOL0     H45861   5.930   4.006   5.200  0.4552 -2.4470 -0.5512
  340MOL0     H45862   5.791   4.067   5.104  1.2745  1.7336 -0.5871
  340MOL0     H45863   5.861   3.904   5.073 -0.3974 -0.7229  1.0463
  340MOL0     H45864   6.111   3.766   5.362  0.1876 -1.2798  0.9686
  340MOL0     H45865   6.189   3.589   5.460  4.8904 -1.4221  1.3132
  340MOL0     H45866   6.347   3.276   5.167 -0.2664  0.3055  0.4056
  340MOL0     H45867   6.498   3.331   5.217 -0.6371 -1.3912 -0.7913
  340MOL0     H45868   6.531   3.146   5.345  1.6104  2.2634 -0.4300
  340MOL0     H45869   6.436   3.236   5.462  0.1838  3.2161 -1.3900
  340MOL0     H45870   6.354   3.007   5.446 -0.0764  0.0141 -0.5510
  340MOL0     H45871   6.339   3.011   5.278 -2.5175 -0.3313 -0.3680
  340MOL0     H45872   6.184   3.204   5.443 -1.5230 -0.9985  0.8519
  340MOL0     H45873   6.124   3.144   5.284 -1.7028 -0.5515  0.3097
  340MOL0     H45874   5.976   3.053   5.436  0.9818  1.8720  0.9346
  340MOL0     H45875   6.098   3.019   5.553  2.1822  1.5871 -0.2897
  340MOL0     H45876   6.102   2.848   5.304 -1.0417 -2.6086  1.3310
  340MOL0     H45877   6.207   2.845   5.453  0.4607 -0.7740 -0.9384
  340MOL0     H45878   5.920   2.848   5.480  2.5577  4.8906 -0.3331
  340MOL0     H45879   6.015   2.750   5.581  1.6357 -0.0368  0.3203
  340MOL0     H45880   5.928   2.573   5.459  4.0523 -3.2161  1.4454
  340MOL0     H45881   6.087   2.599   5.385 -0.1730 -0.8241  1.3070
  340MOL0     H45882   6.306   3.451   5.055 -0.6124 -1.8288  0.2155
  340MOL0     H45883   6.258   3.659   4.964  2.1639  0.1355  0.1016
  340MOL0     H45884   6.261   4.095   4.816 -1.4814  0.9650 -2.9887
  340MOL0     H45885   6.126   4.258   4.673  0.3404 -1.0997 -0.1709
  340MOL0     H45886   4.892   4.940   3.930  1.4098 -0.2115  0.0914
  340MOL0     H45887   4.960   5.203   3.888 -0.1683  1.1423 -3.3957
  340MOL0     H45888   5.069   5.531   3.756 -0.7300 -0.0940 -3.3237
  340MOL0     H45889   5.099   5.768   3.694  0.2505 -0.0082 -1.4854
  340MOL0     H45890   5.175   5.979   3.602  0.0177  2.3096 -1.0562
  340MOL0     H45891   5.181   5.959   3.776  1.1421 -2.7155 -0.6415
  340MOL0     H45892   5.389   6.143   3.635  1.0889 -1.2058 -0.6612
  340MOL0     H45893   5.383   6.089   3.802  0.5840 -4.3871 -1.8839
  340MOL0     H45894   5.158   6.181   3.820  0.5267 -3.0585 -0.5645
  340MOL0     H45895   5.147   6.251   3.664  0.4273  1.1761 -0.6416
  340MOL0     H45896   5.397   6.310   3.840 -2.9752 -2.0257  2.3634
  340MOL0     H45897   5.256   6.407   3.852  2.4618  0.3159  1.8324
  340MOL0     H45898   5.396   6.567   3.493 -2.2363 -0.0036  0.6848
  340MOL0     H45899   5.506   5.718   3.648 -1.0233  0.4953 -0.4695
  340MOL0     H45900   5.484   5.458   3.666  0.3362  0.5348  1.5059
  341MOL0     O45901   5.345   9.226   3.687 -0.1254  0.2557 -0.2682
  341MOL0     C45902   5.275   9.224   3.793 -0.8768  0.9848  0.6008
  341MOL0     O45903   5.153   9.264   3.809  0.4286  0.1851 -0.4724
  341MOL0     C45904   5.084   9.333   3.717  0.1817 -0.8476  1.2177
  341MOL0     C45905   5.118   9.473   3.717  0.7012 -0.3299  0.2036
  341MOL0     C45906   5.054   9.559   3.629  1.6058  0.2406  0.3450
  341MOL0     C45907   4.962   9.511   3.537  0.4261 -0.0488 -0.5616
  341MOL0     O45908   4.884   9.596   3.460 -0.5420 -0.8999 -0.1870
  341MOL0     C45909   4.915   9.739   3.455 -0.2399  0.3509  0.1765
  341MOL0     C45910   4.822   9.822   3.359 -0.2806  0.0982  0.1355
  341MOL0     C45911   4.674   9.803   3.381 -0.0225 -0.2099 -0.3100
  341MOL0     C45912   4.596   9.912   3.307  0.2749  0.4000 -0.0971
  341MOL0     C45913   4.444   9.885   3.309  0.2699 -0.2332  0.6077
  341MOL0     C45914   4.369   9.993   3.229 -0.9569  0.4692 -0.5776
  341MOL0     C45915   4.220   9.945   3.216  0.1156 -0.7808 -0.2253
  341MOL0     C45916   4.144  10.039   3.116 -0.5871  1.0353  0.2920
  341MOL0     N45917   3.997  10.005   3.108 -1.4403  0.3422  0.3045
  341MOL0     C45918   3.925   9.953   3.211 -0.3058  0.4141 -0.5227
  341MOL0     C45919   3.796   9.974   3.184  0.3391 -0.0685  0.8498
  341MOL0     C45920   3.682   9.942   3.278  0.5101 -0.4145  0.7047
  341MOL0     C45921   3.546   9.921   3.219 -0.8079 -0.0496 -0.3558
  341MOL0     C45922   3.489  10.028   3.139  0.1167  0.0763 -0.9548
  341MOL0     C45923   3.343  10.000   3.098 -0.3501  0.3154 -1.0981
  341MOL0     O45924   3.242  10.009   3.199 -1.0329  0.0524  0.1649
  341MOL0     C45925   3.117   9.959   3.164  0.5298 -0.8272 -0.5066
  341MOL0     C45926   3.081   9.930   3.027  0.8683 -0.3481  0.5054
  341MOL0     C45927   2.951   9.890   3.006  0.7382 -0.3869 -0.4531
  341MOL0     C45928   2.918   9.850   2.865 -0.0981 -0.2279  0.3598
  341MOL0     C45929   2.847   9.880   3.104 -1.0136  0.3496 -0.0726
  341MOL0     C45930   2.704   9.836   3.066 -0.6949 -0.1482 -0.6034
  341MOL0     O45931   2.647   9.857   2.946  0.3022 -0.1554 -0.4495
  341MOL0     C45932   2.517   9.835   2.921  0.3431  1.0217  1.1577
  341MOL0     C45933   2.413   9.854   3.001 -0.4744  0.3456 -0.8357
  341MOL0     C45934   2.284   9.835   2.964  0.2767  0.4494 -0.3315
  341MOL0     C45935   2.257   9.820   2.831 -0.8939 -0.1632  0.4022
  341MOL0     O45936   2.135   9.801   2.785  0.5529 -0.1427 -0.7170
  341MOL0     C45937   2.047   9.709   2.856 -0.8731 -0.3355 -1.4269
  341MOL0     C45938   1.915   9.713   2.783  0.3320  1.0513 -0.4893
  341MOL0     C45939   1.825   9.608   2.845 -0.6905 -0.7805 -0.0215
  341MOL0     C45940   1.734   9.665   2.958  0.0196  0.4324 -1.2105
  341MOL0     C45941   1.604   9.708   2.897 -0.1917 -0.0158 -0.4823
  341MOL0     C45942   1.508   9.791   2.978 -0.7742 -0.9667 -0.2868
  341MOL0     C45943   1.376   9.802   2.889 -0.1427 -0.3447 -0.4702
  341MOL0     C45944   1.294   9.923   2.938  0.5681 -0.5635 -0.6537
  341MOL0    Cl45945   1.268   9.911   3.114 -0.4416  0.1980  0.1201
  341MOL0     C45946   2.356   9.818   2.735  0.3422  0.5484  0.4112
  341MOL0     C45947   2.489   9.822   2.785  0.9963  0.1153  0.3083
  341MOL0     O45948   2.644   9.782   3.164 -0.2753 -0.8626 -0.1119
  341MOL0     C45949   2.894   9.907   3.239  0.4501 -0.2990  0.3410
  341MOL0     C45950   3.026   9.948   3.272  0.2319  0.7594 -1.5549
  341MOL0     N45951   3.794  10.043   3.065 -0.7459  0.8160 -0.8388
  341MOL0     N45952   3.913  10.055   3.016  0.4749  0.3557 -1.1367
  341MOL0     C45953   4.957   9.370   3.516  0.0311 -0.5559  0.1239
  341MOL0     C45954   5.009   9.285   3.610 -0.3026 -0.2824 -0.3918
  341MOL0     C45955   5.333   9.162   3.916  0.8457 -0.2179  0.5737
  341MOL0     C45956   5.283   9.186   4.043  0.8901  1.2893  0.3081
  341MOL0     C45957   5.346   9.147   4.157 -0.3936 -0.0956 -0.9546
  341MOL0     C45958   5.471   9.079   4.144 -0.0573 -0.4729 -0.2120
  341MOL0     O45959   5.530   9.023   4.254  0.0247  0.1794 -0.6349
  341MOL0     C45960   5.637   9.102   4.311  0.2449 -0.2882 -0.4007
  341MOL0     C45961   5.766   9.034   4.286  0.3204  0.4447 -0.4989
  341MOL0     C45962   5.843   9.037   4.418  0.2491  0.3737 -0.5459
  341MOL0     C45963   5.973   8.952   4.402 -0.0657  0.8384  0.1338
  341MOL0     C45964   5.944   8.802   4.420 -0.0342 -0.1855 -1.1166
  341MOL0     C45965   5.912   8.686   4.446  0.2055  0.1405 -0.9197
  341MOL0     C45966   5.523   9.052   4.016 -0.8610 -0.5755  0.1671
  341MOL0     C45967   5.445   9.087   3.903 -0.4613 -0.7596 -0.2165
  341MOL0     H45968   5.193   9.510   3.786 -1.8076  0.5521  2.6216
  341MOL0     H45969   5.080   9.664   3.640  2.7983  0.0214 -0.1199
  341MOL0     H45970   4.905   9.788   3.553 -3.2464  0.0040  0.1389
  341MOL0     H45971   5.021   9.749   3.428  0.1492  0.6720  1.7215
  341MOL0     H45972   4.843   9.929   3.375  0.0059 -0.2360  2.2881
  341MOL0     H45973   4.849   9.805   3.255 -0.6141  0.0080  0.0639
  341MOL0     H45974   4.643   9.707   3.339 -0.8074 -0.3726  0.5953
  341MOL0     H45975   4.647   9.799   3.487  2.0781  0.5561  0.2947
  341MOL0     H45976   4.616  10.000   3.369  1.4970  0.7044 -0.8884
  341MOL0     H45977   4.636   9.914   3.206 -3.0269 -3.1426 -1.7524
  341MOL0     H45978   4.427   9.788   3.262  2.2348 -0.7633  0.8941
  341MOL0     H45979   4.411   9.882   3.414  1.1130  0.0413  0.8950
  341MOL0     H45980   4.381  10.081   3.293  0.2740 -0.3726  0.3930
  341MOL0     H45981   4.398  10.003   3.124  1.1373 -1.0520 -0.2146
  341MOL0     H45982   4.206   9.841   3.185 -2.7266  0.3744 -3.5157
  341MOL0     H45983   4.177   9.958   3.316 -0.9240 -0.7775 -0.6523
  341MOL0     H45984   4.185  10.041   3.015  1.7543  2.0214  1.1910
  341MOL0     H45985   4.149  10.138   3.163 -1.7787 -0.0416  2.9212
  341MOL0     H45986   3.978   9.917   3.299  2.3600 -2.7919 -3.2170
  341MOL0     H45987   3.707   9.847   3.325  1.1854 -1.2152 -1.1897
  341MOL0     H45988   3.673  10.025   3.350 -3.2477 -2.9523  3.5438
  341MOL0     H45989   3.482   9.894   3.303  0.1457 -1.4937 -0.0355
  341MOL0     H45990   3.548   9.830   3.157  3.4504 -0.3694 -0.0830
  341MOL0     H45991   3.546  10.033   3.046  4.4800  0.7254  1.4572
  341MOL0     H45992   3.503  10.129   3.178 -0.2959  1.2020 -3.5328
  341MOL0     H45993   3.335   9.899   3.058  2.1851  0.6344 -2.6542
  341MOL0     H45994   3.328  10.058   3.007 -0.2915  2.4841  0.2125
  341MOL0     H45995   3.154   9.930   2.947  0.5425  2.3456  0.1156
  341MOL0     H45996   3.004   9.845   2.798 -0.4059  2.4945 -0.3527
  341MOL0     H45997   2.877   9.749   2.875 -0.4262 -0.0128  1.2746
  341MOL0     H45998   2.853   9.926   2.821  1.1310  0.5569 -0.1669
  341MOL0     H45999   2.446   9.891   3.097 -0.7307  0.6948 -0.8813
  341MOL0     H46000   2.210   9.850   3.043  0.1382 -0.4233 -0.2891
  341MOL0     H46001   2.093   9.610   2.855 -0.0696 -0.0238  0.1308
  341MOL0     H46002   2.031   9.736   2.961  0.4297 -0.9291 -1.0518
  341MOL0     H46003   1.870   9.813   2.781  1.2052  1.6394  2.9355
  341MOL0     H46004   1.941   9.699   2.678  2.6744  0.1491  0.1487
  341MOL0     H46005   1.882   9.526   2.892  0.5036 -0.5205 -0.9774
  341MOL0     H46006   1.761   9.567   2.766 -2.6116  2.6027 -0.3861
  341MOL0     H46007   1.719   9.587   3.033  4.8545  0.2536 -0.0676
  341MOL0     H46008   1.772   9.757   3.005 -2.5207  0.2654  1.4514
  341MOL0     H46009   1.556   9.611   2.880 -0.3172 -0.8772  3.5903
  341MOL0     H46010   1.624   9.757   2.802  2.4703 -0.6005 -0.2991
  341MOL0     H46011   1.500   9.755   3.080 -1.4870 -3.5113 -1.1794
  341MOL0     H46012   1.559   9.888   2.982 -0.1012 -1.2300 -1.7928
  341MOL0     H46013   1.311   9.714   2.901 -0.5624  0.2575  2.6953
  341MOL0     H46014   1.408   9.825   2.787  2.4285  1.1406  0.6021
  341MOL0     H46015   1.194   9.925   2.896 -0.3122  0.5293  1.3538
  341MOL0     H46016   1.352  10.013   2.913 -0.1500  0.0190 -0.2477
  341MOL0     H46017   2.338   9.817   2.628  1.2612 -0.2113  0.2557
  341MOL0     H46018   2.566   9.825   2.710 -0.5020  1.2252 -1.2565
  341MOL0     H46019   2.829   9.896   3.325 -0.0868  0.7452  0.0775
  341MOL0     H46020   3.043   9.967   3.378  0.8243  0.7072 -1.6396
  341MOL0     H46021   4.899   9.319   3.441 -1.7986 -1.0341  1.7790
  341MOL0     H46022   5.012   9.179   3.588  0.0184  0.1223 -2.5224
  341MOL0     H46023   5.199   9.252   4.063 -0.8592 -1.3979  2.5951
  341MOL0     H46024   5.320   9.183   4.256  1.8998 -0.2334 -0.2381
  341MOL0     H46025   5.641   9.204   4.271  0.5255  0.8914  2.4510
  341MOL0     H46026   5.618   9.119   4.417  0.1154 -0.5067 -0.3883
  341MOL0     H46027   5.823   9.072   4.201 -1.6711 -0.5288 -2.3876
  341MOL0     H46028   5.739   8.929   4.274 -3.8859  0.8767  2.8140
  341MOL0     H46029   5.776   8.987   4.489  0.2648  1.2743  0.1232
  341MOL0     H46030   5.864   9.138   4.455 -0.2713 -0.2674  1.6900
  341MOL0     H46031   6.038   8.977   4.486 -1.3841  0.3432  1.3352
  341MOL0     H46032   6.030   8.953   4.309  0.8641 -3.9653  0.3661
  341MOL0     H46033   5.867   8.589   4.454 -0.7787  0.6789  0.6144
  341MOL0     H46034   5.616   8.998   4.000  0.3847  2.0119 -2.1106
  341MOL0     H46035   5.485   9.047   3.810  0.3919  4.7419 -2.5840
  342MOL0     O46036   6.878   6.790   3.672 -0.4399 -0.5927  0.4578
  342MOL0     C46037   6.989   6.763   3.616  0.0638  0.1025 -0.2606
  342MOL0     O46038   7.036   6.813   3.500 -0.9511 -0.5960 -0.1572
  342MOL0     C46039   6.968   6.922   3.449  0.3904 -0.2604 -1.5934
  342MOL0     C46040   6.942   7.038   3.521 -0.5229 -0.3124 -0.6767
  342MOL0     C46041   6.884   7.144   3.457  0.8719 -0.9101  0.2198
  342MOL0     C46042   6.834   7.152   3.327  0.1632  0.0267 -0.0112
  342MOL0     O46043   6.786   7.255   3.256 -0.7365  0.2090 -0.4831
  342MOL0     C46044   6.775   7.381   3.329 -1.2056 -0.4268 -0.4513
  342MOL0     C46045   6.713   7.472   3.225 -0.2527 -0.2077  0.0014
  342MOL0     C46046   6.824   7.505   3.118 -0.2867  0.0131  0.3310
  342MOL0     C46047   6.744   7.575   3.006 -0.1966  0.2201  0.3480
  342MOL0     C46048   6.742   7.727   3.031 -1.2397 -0.8258 -0.0866
  342MOL0     C46049   6.708   7.800   2.895 -1.6491 -0.5915  0.4140
  342MOL0     C46050   6.751   7.947   2.898  0.1324 -0.0057  0.5114
  342MOL0     C46051   6.775   7.994   2.747 -0.4311  0.0715  0.7082
  342MOL0     N46052   6.658   7.974   2.662 -0.1053 -0.0655  0.3361
  342MOL0     C46053   6.534   8.023   2.686  0.5392 -0.4095  0.1705
  342MOL0     C46054   6.461   7.990   2.576 -1.2398 -0.2990 -0.4575
  342MOL0     C46055   6.314   8.004   2.557  0.0835  0.0854 -0.1229
  342MOL0     C46056   6.258   8.141   2.567 -0.0456  0.6233 -0.2670
  342MOL0     C46057   6.237   8.188   2.709  0.3229  0.3780 -0.0626
  342MOL0     C46058   6.238   8.342   2.728 -0.2107  0.5368 -0.5433
  342MOL0     O46059   6.124   8.376   2.643 -0.1359 -0.3537  0.7409
  342MOL0     C46060   6.095   8.500   2.614  0.0748 -0.0141  0.0863
  342MOL0     C46061   5.987   8.529   2.535  0.0872  0.8192 -0.6530
  342MOL0     C46062   5.943   8.654   2.507 -1.3376 -0.1622  1.0542
  342MOL0     C46063   5.810   8.670   2.432 -0.5768  0.2486  0.6602
  342MOL0     C46064   6.021   8.766   2.537  0.1914 -0.7250 -0.0696
  342MOL0     C46065   5.987   8.906   2.513 -0.2713 -0.6775  0.3196
  342MOL0     O46066   5.895   8.946   2.595  0.1477 -0.1684 -0.0248
  342MOL0     C46067   5.808   9.051   2.558  0.8052  0.2061  0.5578
  342MOL0     C46068   5.854   9.179   2.579 -0.3308  0.2264  0.5227
  342MOL0     C46069   5.775   9.290   2.553  0.7217  0.6906 -0.0094
  342MOL0     C46070   5.638   9.274   2.512 -0.2481  0.0664  0.3443
  342MOL0     O46071   5.547   9.382   2.510 -0.8729  0.6013 -0.8113
  342MOL0     C46072   5.598   9.511   2.524 -0.5695 -0.1140 -0.5099
  342MOL0     C46073   5.502   9.610   2.477  0.4678 -1.2134 -0.7617
  342MOL0     C46074   5.574   9.742   2.459  0.0799 -0.4149  0.1813
  342MOL0     C46075   5.477   9.847   2.393  0.0067 -0.5624  0.2278
  342MOL0     C46076   5.551   9.979   2.353 -0.4077  0.6955 -0.6064
  342MOL0     C46077   5.469  10.076   2.255 -0.2184  0.4269 -0.7167
  342MOL0     C46078   5.390  10.183   2.332  0.6047  0.2387  0.3369
  342MOL0     C46079   5.353  10.314   2.252  0.0441  0.3532 -0.3282
  342MOL0    Cl46080   5.326  10.459   2.359  0.2157 -0.2378  0.5248
  342MOL0     C46081   5.596   9.143   2.496  1.0514  0.1862  0.5879
  342MOL0     C46082   5.683   9.035   2.515  0.7545  0.8937 -0.3136
  342MOL0     O46083   6.019   8.948   2.401  0.3578 -0.2788 -0.1505
  342MOL0     C46084   6.148   8.746   2.591  0.4412  1.3254 -0.0180
  342MOL0     C46085   6.178   8.611   2.636 -0.2125 -1.1164 -0.0591
  342MOL0     N46086   6.525   7.896   2.502 -0.0140  0.6782  0.0028
  342MOL0     N46087   6.645   7.897   2.544  0.0399 -0.9976  0.4665
  342MOL0     C46088   6.860   7.028   3.267  0.9645 -0.6363  0.6006
  342MOL0     C46089   6.917   6.913   3.322 -0.2607 -0.2531  0.8404
  342MOL0     C46090   7.070   6.655   3.674  1.0073 -0.6419 -0.6200
  342MOL0     C46091   7.022   6.553   3.764  0.2153  0.4393  1.2597
  342MOL0     C46092   7.102   6.443   3.791  0.3150 -0.1779 -0.0650
  342MOL0     C46093   7.234   6.431   3.737  0.1503  0.4596  0.2746
  342MOL0     O46094   7.321   6.328   3.766  0.2319 -0.1440  0.0881
  342MOL0     C46095   7.255   6.222   3.837  0.0059  0.1457 -0.5044
  342MOL0     C46096   7.192   6.135   3.734  0.3026  0.7116  0.8933
  342MOL0     C46097   7.283   6.085   3.623  0.3453 -0.0287 -1.0562
  342MOL0     C46098   7.405   6.001   3.660  0.0540 -0.3019  0.2407
  342MOL0     C46099   7.356   5.890   3.735 -0.1250  0.0463 -0.3708
  342MOL0     C46100   7.321   5.791   3.791  0.8158  0.0196  0.6531
  342MOL0     C46101   7.286   6.535   3.666  0.5168  0.2309 -0.1722
  342MOL0     C46102   7.206   6.649   3.630  0.4076  1.3405  0.6381
  342MOL0     H46103   6.985   7.050   3.620 -2.5720 -0.5332  0.2763
  342MOL0     H46104   6.864   7.233   3.517 -0.3624 -0.6036 -0.6059
  342MOL0     H46105   6.706   7.375   3.414  0.2324 -1.8954  0.6796
  342MOL0     H46106   6.867   7.424   3.370 -1.1915 -0.0739 -0.8403
  342MOL0     H46107   6.624   7.444   3.169 -0.8473  1.5368 -0.0052
  342MOL0     H46108   6.685   7.568   3.270 -2.3158 -1.1755  0.9034
  342MOL0     H46109   6.904   7.569   3.156  2.2746 -1.0287 -2.8493
  342MOL0     H46110   6.878   7.414   3.092 -4.4054 -2.7000  0.2940
  342MOL0     H46111   6.794   7.554   2.910 -1.7925 -0.0937 -0.4433
  342MOL0     H46112   6.638   7.556   2.987 -0.8065  4.4357 -1.7304
  342MOL0     H46113   6.679   7.759   3.114  2.5932  1.7624  2.1202
  342MOL0     H46114   6.847   7.748   3.051 -1.6474  1.3131 -0.0448
  342MOL0     H46115   6.749   7.745   2.810 -1.1042 -1.4474  1.2048
  342MOL0     H46116   6.601   7.785   2.876 -1.7223 -1.2854  1.2532
  342MOL0     H46117   6.675   8.011   2.943  1.4430  2.3976 -0.4963
  342MOL0     H46118   6.840   7.953   2.961 -0.7183 -0.1445  1.7525
  342MOL0     H46119   6.853   7.948   2.687  0.1039  3.3871 -1.4080
  342MOL0     H46120   6.788   8.103   2.749  0.9929 -0.0531 -0.2366
  342MOL0     H46121   6.503   8.086   2.769 -3.1618 -0.3871 -1.0638
  342MOL0     H46122   6.298   7.973   2.453  3.2212  0.2960 -0.7593
  342MOL0     H46123   6.266   7.929   2.621  3.7725 -2.1268  0.3812
  342MOL0     H46124   6.161   8.149   2.517  0.5991  1.0479 -1.5012
  342MOL0     H46125   6.330   8.209   2.520 -1.7603  1.9856 -1.0297
  342MOL0     H46126   6.307   8.150   2.784 -1.7549 -0.8561  1.3802
  342MOL0     H46127   6.141   8.173   2.759  1.4857 -1.8641  1.7078
  342MOL0     H46128   6.340   8.370   2.699  0.8391 -0.0402  2.2263
  342MOL0     H46129   6.210   8.368   2.831  1.4366  0.6809 -0.1013
  342MOL0     H46130   5.937   8.434   2.520  0.2081  0.6770 -0.1803
  342MOL0     H46131   5.751   8.732   2.501  1.0033  0.1669  2.1497
  342MOL0     H46132   5.835   8.724   2.341  3.3870 -0.5948  1.1051
  342MOL0     H46133   5.767   8.571   2.415  1.2592 -1.0787  3.0773
  342MOL0     H46134   5.954   9.196   2.615 -0.2329 -3.1327  2.1782
  342MOL0     H46135   5.817   9.387   2.577  1.8504  0.5655 -1.3172
  342MOL0     H46136   5.607   9.544   2.628  0.3209  0.8647 -0.8905
  342MOL0     H46137   5.687   9.538   2.468  0.8764 -1.6199  0.9575
  342MOL0     H46138   5.459   9.588   2.379 -2.6564  1.5496 -0.2206
  342MOL0     H46139   5.424   9.619   2.553  0.5364 -1.0009 -0.7159
  342MOL0     H46140   5.654   9.732   2.385 -0.1720 -1.5546  0.0449
  342MOL0     H46141   5.608   9.776   2.557  3.5567 -1.8611 -0.3790
  342MOL0     H46142   5.432   9.810   2.301 -1.5962  0.6964  0.4606
  342MOL0     H46143   5.396   9.868   2.463  0.2880 -0.5529  0.5558
  342MOL0     H46144   5.645   9.953   2.304  0.9128 -0.0849  2.1221
  342MOL0     H46145   5.582  10.037   2.442 -1.9566  0.4991  0.0878
  342MOL0     H46146   5.554  10.126   2.207  1.0014 -3.4710 -3.1136
  342MOL0     H46147   5.400  10.027   2.185 -1.7498  2.5743 -0.8198
  342MOL0     H46148   5.445  10.209   2.423  0.5957  0.8678  0.1698
  342MOL0     H46149   5.299  10.132   2.366 -0.3555  0.6278 -1.5205
  342MOL0     H46150   5.270  10.313   2.181 -1.1387  0.0167  1.0080
  342MOL0     H46151   5.444  10.316   2.191  0.8040 -1.0307  0.6727
  342MOL0     H46152   5.499   9.126   2.452  2.3881 -3.4734 -1.3173
  342MOL0     H46153   5.652   8.933   2.492 -1.0551  0.2712  3.9106
  342MOL0     H46154   6.218   8.829   2.591  1.8727  0.1771  1.3517
  342MOL0     H46155   6.275   8.600   2.681  0.4212  0.5814 -0.9149
  342MOL0     H46156   6.825   7.022   3.164 -2.0706  2.2113  1.2796
  342MOL0     H46157   6.925   6.827   3.255 -3.8444 -0.9713  1.0930
  342MOL0     H46158   6.923   6.543   3.809 -0.6546 -4.6473 -1.0717
  342MOL0     H46159   7.052   6.383   3.865  0.5472  1.2636  1.3080
  342MOL0     H46160   7.340   6.160   3.866 -1.4563 -1.6785  0.0614
  342MOL0     H46161   7.206   6.237   3.933  0.0545 -0.9902 -0.2813
  342MOL0     H46162   7.103   6.182   3.691  0.8102 -0.2101 -1.2394
  342MOL0     H46163   7.156   6.045   3.785 -0.7363  0.6681  0.1020
  342MOL0     H46164   7.317   6.169   3.562 -2.7249  0.6699 -2.0032
  342MOL0     H46165   7.213   6.025   3.564 -0.6301  0.9788 -0.9641
  342MOL0     H46166   7.479   6.059   3.715  0.0893  1.0291 -1.1452
  342MOL0     H46167   7.448   5.954   3.571 -0.6467 -1.7372  0.6321
  342MOL0     H46168   7.280   5.700   3.831 -4.9154  0.5863 -2.7846
  342MOL0     H46169   7.387   6.513   3.631  0.7949 -0.7518  1.1604
  342MOL0     H46170   7.246   6.722   3.560  1.5071  2.2746  2.1843
  343MOL0     O46171   9.677   1.033   5.331  0.4702 -0.1865 -0.3795
  343MOL0     C46172   9.745   0.945   5.280 -0.6114 -0.3396  0.3660
  343MOL0     O46173   9.711   0.889   5.155  0.1534  0.3742 -0.7278
  343MOL0     C46174   9.578   0.895   5.108  0.2660 -0.4496 -0.8114
  343MOL0     C46175   9.519   0.787   5.051 -0.1221  0.4224  0.4070
  343MOL0     C46176   9.400   0.799   4.984 -0.2783 -1.1195 -0.8289
  343MOL0     C46177   9.327   0.920   4.971 -0.4182 -0.0537 -0.2693
  343MOL0     O46178   9.206   0.941   4.918 -0.1851 -0.1357 -0.6118
  343MOL0     C46179   9.127   0.828   4.856 -0.2705  1.2075 -1.0443
  343MOL0     C46180   8.990   0.866   4.800 -0.0607  0.0081  0.2223
  343MOL0     C46181   8.941   0.758   4.706 -0.7187 -0.1230  0.7731
  343MOL0     C46182   8.893   0.640   4.784 -0.1091 -0.1014  0.2425
  343MOL0     C46183   8.848   0.542   4.674 -0.3313 -0.1899 -0.3392
  343MOL0     C46184   8.787   0.412   4.732  0.2372 -0.3144  0.4522
  343MOL0     C46185   8.894   0.335   4.807 -0.0912  0.7190  0.0794
  343MOL0     C46186   8.835   0.196   4.830  0.5505 -0.0883  0.3983
  343MOL0     N46187   8.929   0.107   4.901  0.6730  0.0751  0.5672
  343MOL0     C46188   9.062   0.104   4.871  0.4137  0.8627 -1.0875
  343MOL0     C46189   9.108   0.015   4.973 -0.5272 -0.7390  0.1119
  343MOL0     C46190   9.250  -0.016   4.999 -0.1017  0.0571 -1.0900
  343MOL0     C46191   9.312  -0.079   4.868 -0.5878  0.1340  0.3809
  343MOL0     C46192   9.429  -0.178   4.902  0.4206 -0.2220  0.2294
  343MOL0     C46193   9.532  -0.113   4.993 -1.7009 -0.3594  0.7691
  343MOL0     O46194   9.554   0.030   4.980  0.1494  0.2409  0.1646
  343MOL0     C46195   9.644   0.096   5.064 -0.3725  0.7708  0.2353
  343MOL0     C46196   9.650   0.236   5.040 -0.2452 -0.4155 -0.3223
  343MOL0     C46197   9.729   0.311   5.129  0.6493 -0.9409  0.7461
  343MOL0     C46198   9.729   0.458   5.110  0.3595 -0.8867 -0.1377
  343MOL0     C46199   9.807   0.255   5.229  0.1636 -0.1126  0.8087
  343MOL0     C46200   9.891   0.338   5.319  0.5432  0.4363 -0.0540
  343MOL0     O46201   9.899   0.277   5.437 -0.3821  0.6416  0.2213
  343MOL0     C46202   9.948   0.353   5.539  0.0917 -0.1616 -0.1780
  343MOL0     C46203   9.871   0.418   5.642 -0.0205  0.2396  0.3511
  343MOL0     C46204   9.930   0.485   5.751 -0.7159  0.6129  0.6836
  343MOL0     C46205  10.071   0.502   5.752  0.0467  0.8465  0.1029
  343MOL0     O46206  10.132   0.581   5.839  0.1266 -0.2342  0.6150
  343MOL0     C46207  10.064   0.699   5.885  0.0757  0.0570  0.1073
  343MOL0     C46208  10.165   0.813   5.934 -0.9812 -0.9150 -0.3676
  343MOL0     C46209  10.281   0.763   6.025 -0.1679  0.7733 -0.2405
  343MOL0     C46210  10.386   0.870   6.061  0.6116 -0.4851  0.2724
  343MOL0     C46211  10.490   0.825   6.163 -0.3443  0.1398 -0.9646
  343MOL0     C46212  10.569   0.951   6.212 -0.3738 -0.5880  0.4919
  343MOL0     C46213  10.543   0.957   6.356  0.1516  0.0246 -0.0625
  343MOL0     C46214  10.623   0.851   6.430  0.6891 -0.3232  0.2129
  343MOL0    Cl46215  10.793   0.884   6.434 -0.1717 -0.3882  0.3312
  343MOL0     C46216  10.150   0.448   5.652 -0.6071 -0.1675 -0.5348
  343MOL0     C46217  10.093   0.376   5.542 -0.2093 -0.2513 -0.2528
  343MOL0     O46218   9.952   0.435   5.277  0.2575 -0.6858  0.2454
  343MOL0     C46219   9.800   0.114   5.241  0.2568  0.4453  0.1564
  343MOL0     C46220   9.724   0.034   5.158  0.6779 -0.1774 -0.1502
  343MOL0     N46221   9.003  -0.027   5.053  0.1505  1.2752  0.3038
  343MOL0     N46222   8.899   0.027   5.006  0.3904  0.1130  0.3351
  343MOL0     C46223   9.387   1.033   5.029  0.2348  0.4353 -0.2484
  343MOL0     C46224   9.511   1.025   5.091  0.8647  0.2041 -0.4605
  343MOL0     C46225   9.884   0.918   5.331  0.7757  0.1850  0.5187
  343MOL0     C46226   9.952   0.785   5.304 -0.2913  0.1728  0.8932
  343MOL0     C46227  10.074   0.761   5.369 -0.6416 -0.2970 -0.1551
  343MOL0     C46228  10.140   0.865   5.440 -0.0333 -0.9017  0.3872
  343MOL0     O46229  10.251   0.854   5.513  0.3870  1.4372  0.6386
  343MOL0     C46230  10.331   0.736   5.478  0.0869 -0.8797 -0.4642
  343MOL0     C46231  10.445   0.735   5.582  0.3786 -0.1294 -1.1338
  343MOL0     C46232  10.519   0.602   5.565  0.1835 -0.1157  0.7176
  343MOL0     C46233  10.625   0.596   5.682 -1.0697 -0.2038 -0.1513
  343MOL0     C46234  10.719   0.479   5.667 -0.4272 -0.7368  0.5776
  343MOL0     C46235  10.803   0.399   5.633  0.0316  0.8011 -0.3180
  343MOL0     C46236  10.089   0.993   5.446  0.6614 -0.6273 -0.1846
  343MOL0     C46237   9.956   1.016   5.399 -0.3610 -0.1204  0.4813
  343MOL0     H46238   9.562   0.689   5.066  3.0821  1.4361 -1.1168
  343MOL0     H46239   9.362   0.703   4.952  0.3159 -1.5353 -0.3166
  343MOL0     H46240   9.184   0.791   4.771  2.4786  5.1374 -1.2138
  343MOL0     H46241   9.112   0.758   4.938 -2.0245  1.6784 -0.9174
  343MOL0     H46242   8.920   0.873   4.883 -1.9738 -0.0151 -1.3339
  343MOL0     H46243   9.003   0.956   4.739  1.2477 -1.1858 -1.3777
  343MOL0     H46244   8.866   0.807   4.644 -0.4027  0.5917  0.9368
  343MOL0     H46245   9.025   0.725   4.644 -0.8021 -2.9514  1.9962
  343MOL0     H46246   8.978   0.604   4.842  0.2152  0.6283  0.2309
  343MOL0     H46247   8.812   0.670   4.851  0.7016  1.3844  0.6061
  343MOL0     H46248   8.762   0.579   4.617 -0.3320  2.4296  1.2278
  343MOL0     H46249   8.932   0.518   4.609 -1.3703 -0.7948 -1.5122
  343MOL0     H46250   8.715   0.443   4.809 -0.4691 -3.5090  1.2290
  343MOL0     H46251   8.745   0.350   4.652 -2.9625  4.3703 -2.0328
  343MOL0     H46252   8.980   0.327   4.739 -0.3089  1.5221 -0.3061
  343MOL0     H46253   8.923   0.394   4.894 -0.8588  1.9470 -0.4817
  343MOL0     H46254   8.806   0.143   4.739  0.7680  1.4421 -0.6056
  343MOL0     H46255   8.745   0.212   4.891 -0.5939  3.1967 -1.9097
  343MOL0     H46256   9.123   0.150   4.794  1.7919 -2.3323 -2.0664
  343MOL0     H46257   9.302   0.076   5.026 -0.7104  0.6457 -1.8655
  343MOL0     H46258   9.247  -0.096   5.073  2.0791  1.5775  0.7697
  343MOL0     H46259   9.351  -0.012   4.790  4.0207 -2.7598 -0.2416
  343MOL0     H46260   9.255  -0.152   4.810  1.1506 -2.7918  2.1034
  343MOL0     H46261   9.487  -0.208   4.814  0.3643  0.4722 -0.0517
  343MOL0     H46262   9.384  -0.266   4.948 -2.1396  1.0091  0.2609
  343MOL0     H46263   9.626  -0.165   4.974 -1.6014 -0.2885  1.0583
  343MOL0     H46264   9.501  -0.137   5.095  1.6252 -2.5319  1.4311
  343MOL0     H46265   9.585   0.284   4.968  2.1818 -0.0455 -2.4019
  343MOL0     H46266   9.708   0.515   5.201 -1.5018 -1.2000 -0.3196
  343MOL0     H46267   9.826   0.475   5.062 -0.1518 -1.1663 -1.2947
  343MOL0     H46268   9.636   0.488   5.059 -1.4017  0.6614  3.5958
  343MOL0     H46269   9.764   0.402   5.643 -0.1550  0.9888 -0.8768
  343MOL0     H46270   9.867   0.536   5.824 -1.3102  1.3611 -0.3199
  343MOL0     H46271   9.994   0.746   5.814  0.8242  4.2594  1.8786
  343MOL0     H46272  10.014   0.661   5.974  2.1336 -2.2428  0.3798
  343MOL0     H46273  10.213   0.854   5.845 -0.8069  1.7293  0.8553
  343MOL0     H46274  10.109   0.893   5.983 -0.3799 -1.2803  0.9582
  343MOL0     H46275  10.332   0.683   5.971 -0.2315  0.2320  0.4739
  343MOL0     H46276  10.226   0.733   6.115  0.1177 -1.7153 -0.8195
  343MOL0     H46277  10.435   0.902   5.968  1.6086  0.5187  1.1084
  343MOL0     H46278  10.335   0.959   6.099 -2.8531 -1.4168 -1.7739
  343MOL0     H46279  10.555   0.753   6.113  1.0842  0.1700  0.7719
  343MOL0     H46280  10.449   0.767   6.246 -0.8633  0.2799 -1.1117
  343MOL0     H46281  10.677   0.951   6.195 -0.7445  0.6405 -2.4553
  343MOL0     H46282  10.547   1.045   6.159  3.0301 -0.5092 -1.0186
  343MOL0     H46283  10.434   0.948   6.357  0.0208  1.2705 -0.7272
  343MOL0     H46284  10.576   1.050   6.402  1.6756 -0.3432 -0.3544
  343MOL0     H46285  10.620   0.760   6.370  0.0163 -0.2945  0.1972
  343MOL0     H46286  10.584   0.846   6.532  0.7610 -0.0108  0.2571
  343MOL0     H46287  10.256   0.472   5.654 -0.8900  2.1732 -4.1703
  343MOL0     H46288  10.149   0.339   5.457 -3.2239 -0.7834 -2.1656
  343MOL0     H46289   9.850   0.055   5.318 -0.2935 -1.0326 -0.5744
  343MOL0     H46290   9.715  -0.074   5.162  2.5234 -0.3167  1.0109
  343MOL0     H46291   9.328   1.122   5.046 -1.1538 -0.6000  0.5150
  343MOL0     H46292   9.560   1.112   5.132 -0.9759  0.5180  1.2352
  343MOL0     H46293   9.905   0.706   5.247  0.4598  2.2367 -3.0168
  343MOL0     H46294  10.114   0.661   5.362 -1.8366 -0.6744 -2.4270
  343MOL0     H46295  10.278   0.640   5.491 -0.9806 -0.2987 -0.3921
  343MOL0     H46296  10.369   0.740   5.376  0.3346  2.3190 -0.3431
  343MOL0     H46297  10.389   0.737   5.676 -2.2214 -5.5300 -2.1680
  343MOL0     H46298  10.520   0.814   5.571  2.6237 -2.2222 -1.6741
  343MOL0     H46299  10.566   0.599   5.466 -3.7837 -1.2273 -1.3417
  343MOL0     H46300  10.464   0.508   5.572 -1.9107  1.1616  2.9869
  343MOL0     H46301  10.570   0.569   5.772  0.6992 -1.9728  0.4659
  343MOL0     H46302  10.687   0.686   5.683  0.4009 -1.1631 -0.9989
  343MOL0     H46303  10.877   0.323   5.623 -0.7012  0.1607 -1.0636
  343MOL0     H46304  10.144   1.075   5.491 -2.5632 -0.3913  3.9671
  343MOL0     H46305   9.906   1.109   5.421  2.1750  0.6523  3.9648
  344MOL0     O46306  10.614  10.918   0.607  0.6473 -1.2641  0.0278
  344MOL0     C46307  10.595  10.803   0.641 -0.6433  0.1428 -0.3309
  344MOL0     O46308  10.661  10.689   0.598  0.0092  0.0600  0.2501
  344MOL0     C46309  10.765  10.696   0.501  0.8655  0.5340 -0.0277
  344MOL0     C46310  10.856  10.800   0.486  0.9479 -0.5878 -0.1372
  344MOL0     C46311  10.961  10.780   0.389  0.7607 -0.1943 -0.1247
  344MOL0     C46312  10.978  10.666   0.317 -0.1435  0.7932 -0.8363
  344MOL0     O46313  11.087  10.650   0.239 -0.3919 -0.9645 -0.2814
  344MOL0     C46314  11.059  10.703   0.106 -0.6296  0.9257 -0.2348
  344MOL0     C46315  11.164  10.668   0.003 -0.2692  1.1680 -1.2040
  344MOL0     C46316  11.289  10.759  -0.010  0.1074  0.1005  0.1105
  344MOL0     C46317  11.399  10.749   0.098 -0.8316 -0.0702  0.1948
  344MOL0     C46318  11.495  10.868   0.094 -0.4130  0.1074  0.5391
  344MOL0     C46319  11.571  10.882  -0.038 -1.2308 -0.1089  0.5028
  344MOL0     C46320  11.666  10.759  -0.073  0.0114  0.1613  0.3065
  344MOL0     C46321  11.790  10.779   0.012 -0.0352  0.3670  0.1393
  344MOL0     N46322  11.885  10.665   0.005 -0.3354 -0.2929 -0.5817
  344MOL0     C46323  11.984  10.646  -0.081 -0.6883 -0.3085  0.1155
  344MOL0     C46324  12.059  10.545  -0.024 -0.4530  0.1804 -0.9184
  344MOL0     C46325  12.182  10.489  -0.086  0.6515  0.3428  0.4256
  344MOL0     C46326  12.142  10.383  -0.190  0.6325  0.3647  0.4579
  344MOL0     C46327  12.256  10.342  -0.276  0.1756 -0.0030 -0.6914
  344MOL0     C46328  12.366  10.272  -0.204 -0.2450 -0.5623 -0.5571
  344MOL0     O46329  12.468  10.229  -0.294  0.1040  0.3509 -0.6615
  344MOL0     C46330  12.588  10.294  -0.264  0.4875  0.1691 -0.4392
  344MOL0     C46331  12.675  10.243  -0.170 -0.6894  0.8274  0.2587
  344MOL0     C46332  12.805  10.290  -0.154  0.5149 -0.1400  0.8120
  344MOL0     C46333  12.890  10.221  -0.055 -0.6167  0.0549 -0.9068
  344MOL0     C46334  12.847  10.398  -0.239  0.9715 -0.4336  0.0755
  344MOL0     C46335  12.987  10.451  -0.246 -0.0788 -0.1704  0.0280
  344MOL0     O46336  13.089  10.398  -0.177  0.5687  0.3106 -0.2356
  344MOL0     C46337  13.199  10.475  -0.156 -0.1122 -0.1318  0.8685
  344MOL0     C46338  13.310  10.464  -0.244 -0.3120 -0.4552 -0.3423
  344MOL0     C46339  13.433  10.513  -0.217  0.0417 -0.2594  0.4050
  344MOL0     C46340  13.447  10.606  -0.114 -0.0536 -1.5456 -0.4339
  344MOL0     O46341  13.563  10.691  -0.098  0.1383 -0.6182 -0.0053
  344MOL0     C46342  13.694  10.638  -0.148 -0.7663 -0.0509 -0.5121
  344MOL0     C46343  13.809  10.721  -0.089  0.6793 -0.4117  0.1279
  344MOL0     C46344  13.840  10.696   0.058  0.2418 -0.3539  0.3139
  344MOL0     C46345  13.972  10.760   0.097  0.7382 -0.0198 -0.3602
  344MOL0     C46346  13.971  10.767   0.250 -0.5958  0.0132 -0.5647
  344MOL0     C46347  14.093  10.857   0.295 -0.3377  0.6413 -0.0696
  344MOL0     C46348  14.096  10.888   0.446 -0.0465  0.6340 -0.1291
  344MOL0     C46349  14.144  10.762   0.527 -0.2565  0.5929  0.0655
  344MOL0    Cl46350  14.162  10.814   0.698 -0.5181  0.2964 -0.0014
  344MOL0     C46351  13.341  10.619  -0.025  0.6960 -0.9764 -0.4547
  344MOL0     C46352  13.216  10.549  -0.038 -0.6014  0.7329  0.7203
  344MOL0     O46353  13.005  10.549  -0.318 -0.0405 -0.9404  0.1989
  344MOL0     C46354  12.757  10.448  -0.340 -0.1764  0.0469  0.1302
  344MOL0     C46355  12.629  10.398  -0.342  0.1965 -0.0079 -0.2389
  344MOL0     N46356  11.999  10.500   0.085 -0.2033  0.1613  0.0522
  344MOL0     N46357  11.886  10.565   0.094  0.5479  0.3231  0.3158
  344MOL0     C46358  10.879  10.562   0.327 -0.8974  0.7250  0.5727
  344MOL0     C46359  10.777  10.585   0.414  1.3689 -0.2675  0.1462
  344MOL0     C46360  10.521  10.783   0.769 -0.9158  0.1125 -0.4849
  344MOL0     C46361  10.504  10.656   0.827 -0.0406  0.7591 -0.3882
  344MOL0     C46362  10.439  10.635   0.955 -1.1181  0.6843  0.2752
  344MOL0     C46363  10.387  10.747   1.015 -0.1666 -0.0564 -0.2822
  344MOL0     O46364  10.317  10.742   1.132 -0.9065 -0.0248  0.2895
  344MOL0     C46365  10.204  10.657   1.146  0.3966 -0.6283 -0.4670
  344MOL0     C46366  10.146  10.671   1.284 -0.4046 -0.2959  0.4905
  344MOL0     C46367  10.110  10.818   1.317 -0.7818 -0.7646  0.3080
  344MOL0     C46368  10.079  10.847   1.466  0.4660 -0.2819  1.0598
  344MOL0     C46369  10.141  10.965   1.526  0.4428 -0.0808  0.1696
  344MOL0     C46370  10.181  11.058   1.592  0.3512 -0.7532  0.7998
  344MOL0     C46371  10.414  10.873   0.961 -0.9738 -0.0219 -0.2014
  344MOL0     C46372  10.489  10.889   0.849 -0.7688  0.1240 -1.1453
  344MOL0     H46373  10.839  10.903   0.517 -2.1204  0.8687 -5.3716
  344MOL0     H46374  11.029  10.862   0.366  0.2847  0.0608 -0.6387
  344MOL0     H46375  10.967  10.670   0.058 -0.3646  3.3050 -2.6588
  344MOL0     H46376  11.052  10.812   0.115  0.7847  1.0795 -0.7209
  344MOL0     H46377  11.204  10.567   0.013  0.8567  1.1847 -4.3359
  344MOL0     H46378  11.108  10.672  -0.091 -0.0417 -1.2360 -1.4929
  344MOL0     H46379  11.343  10.736  -0.102  0.0323 -0.9714  0.3151
  344MOL0     H46380  11.238  10.855  -0.017 -2.0649 -1.1158 -2.5954
  344MOL0     H46381  11.352  10.753   0.196 -3.0940  2.0740 -0.8775
  344MOL0     H46382  11.449  10.652   0.094 -0.4205  0.1205  0.6257
  344MOL0     H46383  11.446  10.965   0.105 -1.3002 -0.2248 -0.3202
  344MOL0     H46384  11.567  10.854   0.175 -2.7307 -3.5320  2.2351
  344MOL0     H46385  11.502  10.891  -0.123 -1.5461 -0.2277  0.7434
  344MOL0     H46386  11.627  10.975  -0.028 -0.0598 -0.3930 -2.4022
  344MOL0     H46387  11.623  10.659  -0.061 -2.1823  1.0413  0.2527
  344MOL0     H46388  11.699  10.756  -0.177 -1.0200 -3.2096 -0.0451
  344MOL0     H46389  11.753  10.803   0.113  1.0019  0.5245  0.4971
  344MOL0     H46390  11.837  10.869  -0.029 -0.6854  0.6297 -0.0584
  344MOL0     H46391  11.995  10.696  -0.177 -1.3069  0.7570  0.5904
  344MOL0     H46392  12.238  10.566  -0.140  2.0457 -2.1267 -1.8903
  344MOL0     H46393  12.244  10.451  -0.003  2.4605 -0.3543 -1.1718
  344MOL0     H46394  12.058  10.420  -0.250  0.0670 -0.7813  0.5277
  344MOL0     H46395  12.105  10.292  -0.143  2.6172 -0.5177  0.4049
  344MOL0     H46396  12.308  10.431  -0.311  3.0633 -0.8004  1.2402
  344MOL0     H46397  12.230  10.273  -0.358  0.5579 -0.6230 -0.3003
  344MOL0     H46398  12.329  10.185  -0.149  0.0452  0.1954  0.8796
  344MOL0     H46399  12.399  10.333  -0.120 -2.2168 -1.0862  0.6641
  344MOL0     H46400  12.640  10.159  -0.111  0.4217 -1.4452 -2.1273
  344MOL0     H46401  12.963  10.158  -0.107  0.4170 -2.6125  3.2331
  344MOL0     H46402  12.944  10.297   0.002  0.9878 -0.3676 -1.8069
  344MOL0     H46403  12.830  10.160   0.013  2.1870 -1.2948  0.5435
  344MOL0     H46404  13.294  10.385  -0.317 -3.2647  0.0974 -0.4052
  344MOL0     H46405  13.514  10.495  -0.286 -0.5383 -0.5961 -0.2029
  344MOL0     H46406  13.690  10.540  -0.100 -1.1213  1.0559  1.9062
  344MOL0     H46407  13.704  10.644  -0.257  2.6428  0.6007 -0.2513
  344MOL0     H46408  13.886  10.678  -0.153  1.0211 -0.6465  0.6944
  344MOL0     H46409  13.791  10.828  -0.107 -2.2201 -1.1218 -2.2621
  344MOL0     H46410  13.832  10.589   0.083 -0.8444 -0.3779 -0.0816
  344MOL0     H46411  13.756  10.729   0.119  0.4616 -1.7445  1.4355
  344MOL0     H46412  14.049  10.699   0.048 -1.1926 -3.2233  0.3542
  344MOL0     H46413  13.995  10.854   0.046  0.9130 -0.9013 -1.9755
  344MOL0     H46414  13.997  10.673   0.300 -0.1002 -0.7538 -2.1792
  344MOL0     H46415  13.876  10.808   0.285 -2.1386 -2.1363 -1.9198
  344MOL0     H46416  14.187  10.815   0.257 -1.2796  0.4496 -2.3486
  344MOL0     H46417  14.082  10.953   0.243 -4.9462  0.8028  0.8091
  344MOL0     H46418  14.003  10.904   0.502 -0.1730 -1.2862  0.3110
  344MOL0     H46419  14.161  10.975   0.459 -0.4077  0.7799  0.8001
  344MOL0     H46420  14.235  10.711   0.495 -0.6438 -2.2329  3.0331
  344MOL0     H46421  14.059  10.693   0.526  0.0015  0.2637  0.5855
  344MOL0     H46422  13.355  10.682   0.063  1.5013 -1.9714  0.1477
  344MOL0     H46423  13.135  10.539   0.033 -1.4034  0.6248 -0.1859
  344MOL0     H46424  12.777  10.522  -0.416  0.7439 -0.6251 -0.3031
  344MOL0     H46425  12.556  10.446  -0.406  0.3249  0.4978 -0.0137
  344MOL0     H46426  10.891  10.467   0.276  2.2762 -0.2200  2.8221
  344MOL0     H46427  10.698  10.510   0.412  0.6602  0.4785 -0.2596
  344MOL0     H46428  10.553  10.574   0.775  4.6679  0.6739  3.4409
  344MOL0     H46429  10.428  10.537   1.000 -1.3182  1.4719  2.0185
  344MOL0     H46430  10.128  10.702   1.081  0.6381 -0.5807 -0.7172
  344MOL0     H46431  10.225  10.552   1.123  1.8245 -0.7409  1.1664
  344MOL0     H46432  10.216  10.623   1.353 -0.8123 -1.2034  0.2873
  344MOL0     H46433  10.058  10.606   1.291 -0.1107 -1.0845 -2.2154
  344MOL0     H46434  10.026  10.833   1.249  0.9345 -0.4292 -1.8357
  344MOL0     H46435  10.193  10.881   1.284 -0.5603 -2.1901 -2.1334
  344MOL0     H46436  10.126  10.769   1.527  0.5833 -0.8146  0.2955
  344MOL0     H46437   9.971  10.843   1.481  0.1362 -1.6298 -1.2441
  344MOL0     H46438  10.203  11.147   1.649  1.0132 -0.6596  0.4078
  344MOL0     H46439  10.372  10.955   1.018 -1.8556  0.0510 -0.9262
  344MOL0     H46440  10.519  10.990   0.820 -1.7751  0.5799 -0.6559
  345MOL0     O46441   4.319   5.605   1.901  0.6364  0.4833 -0.0819
  345MOL0     C46442   4.405   5.550   1.973  0.1519  1.2837 -0.2735
  345MOL0     O46443   4.414   5.568   2.111 -0.0304  0.3436  0.0274
  345MOL0     C46444   4.346   5.667   2.171  1.0610 -0.2733  0.1147
  345MOL0     C46445   4.206   5.676   2.165 -0.5387  0.2957 -0.2153
  345MOL0     C46446   4.145   5.786   2.235 -0.1103  0.1171  0.0601
  345MOL0     C46447   4.216   5.885   2.304  0.3369  0.3241  0.2835
  345MOL0     O46448   4.144   5.988   2.361  0.4719 -0.5792 -0.7697
  345MOL0     C46449   4.207   6.064   2.460  0.1809 -0.5436 -1.2400
  345MOL0     C46450   4.151   6.200   2.517  0.4332  0.1862  0.1461
  345MOL0     C46451   4.029   6.177   2.605  0.0048 -0.3860 -0.9586
  345MOL0     C46452   3.901   6.155   2.522  0.1757  0.4868 -0.2275
  345MOL0     C46453   3.781   6.107   2.615  0.1851  0.0457 -0.5283
  345MOL0     C46454   3.690   6.224   2.643  0.8728  1.1169 -0.1147
  345MOL0     C46455   3.579   6.185   2.756  0.6564 -0.3516  1.0407
  345MOL0     C46456   3.507   6.054   2.719  0.2539  0.7088  0.4706
  345MOL0     N46457   3.390   6.019   2.801 -0.7771  0.5945  0.5881
  345MOL0     C46458   3.265   6.082   2.795 -0.1718 -0.4495 -0.8151
  345MOL0     C46459   3.199   6.036   2.908 -0.7274 -0.6225 -0.2276
  345MOL0     C46460   3.058   6.074   2.928  0.2832  0.3155  0.1016
  345MOL0     C46461   3.024   6.133   3.053 -0.4127  0.8889  0.3106
  345MOL0     C46462   3.010   6.038   3.172  0.7823 -0.6397 -0.2343
  345MOL0     C46463   2.964   6.125   3.293  0.2485  0.4086  0.4773
  345MOL0     O46464   2.837   6.182   3.257  0.2969 -0.2482 -0.6982
  345MOL0     C46465   2.730   6.120   3.313 -0.2666 -0.1154 -0.2034
  345MOL0     C46466   2.709   5.982   3.326 -0.1575  0.1135  0.0336
  345MOL0     C46467   2.587   5.933   3.359  0.9958  0.5854 -0.2663
  345MOL0     C46468   2.574   5.771   3.346 -0.4945 -0.3219 -0.2339
  345MOL0     C46469   2.485   6.020   3.413  0.0214 -0.4290 -0.1362
  345MOL0     C46470   2.358   5.978   3.487 -0.0381 -0.9409  0.2750
  345MOL0     O46471   2.293   6.075   3.550  0.3634  0.2589 -0.1397
  345MOL0     C46472   2.172   6.051   3.616  1.3589  1.0823  0.4885
  345MOL0     C46473   2.150   6.084   3.749 -0.2746  0.1125 -0.1854
  345MOL0     C46474   2.043   6.037   3.821  1.0214  0.5596  0.1691
  345MOL0     C46475   1.933   5.977   3.762  0.3584  0.0829  0.1440
  345MOL0     O46476   1.832   5.941   3.843  0.2003 -1.0724  0.9755
  345MOL0     C46477   1.756   5.825   3.796 -1.2766  0.1073 -0.1463
  345MOL0     C46478   1.689   5.755   3.922 -0.1909 -0.3482 -0.0333
  345MOL0     C46479   1.537   5.747   3.914  1.0115 -0.1856  0.2556
  345MOL0     C46480   1.471   5.644   4.001  0.7554  0.4317  0.6002
  345MOL0     C46481   1.320   5.673   4.040 -0.2996  0.3727  0.6010
  345MOL0     C46482   1.275   5.582   4.152  0.0379  0.1143 -0.0167
  345MOL0     C46483   1.130   5.563   4.146  0.1556  0.2438 -0.5353
  345MOL0     C46484   1.056   5.670   4.213  0.5286 -0.5254  0.4651
  345MOL0    Cl46485   1.091   5.848   4.161 -0.5306  0.1098  0.0588
  345MOL0     C46486   1.943   5.943   3.624 -0.6273  0.3904  0.4329
  345MOL0     C46487   2.057   5.984   3.551 -0.3845 -0.2030 -0.0523
  345MOL0     O46488   2.329   5.860   3.497  0.4331  0.0954  0.4226
  345MOL0     C46489   2.511   6.152   3.411  0.3110  0.1068  0.7957
  345MOL0     C46490   2.629   6.206   3.354 -0.0123 -0.3023  0.2695
  345MOL0     N46491   3.281   5.953   2.977 -0.4418  0.5943  0.5513
  345MOL0     N46492   3.395   5.944   2.915 -0.3360  0.4689 -0.7651
  345MOL0     C46493   4.354   5.860   2.317  0.0161  0.7331  0.9613
  345MOL0     C46494   4.415   5.749   2.259  0.1084  0.6584 -0.5104
  345MOL0     C46495   4.505   5.475   1.893  0.3582 -0.6176 -0.0494
  345MOL0     C46496   4.604   5.412   1.959 -0.0041  0.9539 -0.1252
  345MOL0     C46497   4.704   5.340   1.881  0.3358  0.0599 -1.0515
  345MOL0     C46498   4.703   5.337   1.743  1.0437  0.1625  0.4234
  345MOL0     O46499   4.804   5.282   1.664  0.3341  0.8426  0.2122
  345MOL0     C46500   4.775   5.136   1.664 -0.0307 -0.1068  0.4316
  345MOL0     C46501   4.874   5.079   1.573 -0.3938  1.4565 -0.4249
  345MOL0     C46502   4.827   5.080   1.426  0.2202  0.1605 -0.5086
  345MOL0     C46503   4.939   5.026   1.331  0.8864 -0.3614 -0.2445
  345MOL0     C46504   4.902   5.003   1.191  0.5145  0.1424 -0.2407
  345MOL0     C46505   4.871   4.981   1.079 -0.6212  2.0036  0.2876
  345MOL0     C46506   4.594   5.399   1.680 -1.1097 -0.2481  0.5785
  345MOL0     C46507   4.502   5.474   1.752  0.0996  0.4303  0.6153
  345MOL0     H46508   4.146   5.606   2.108  2.8488 -2.1990 -1.0252
  345MOL0     H46509   4.037   5.783   2.234 -0.0959 -0.7768 -0.0083
  345MOL0     H46510   4.230   6.000   2.547  1.9427 -1.2482 -2.1701
  345MOL0     H46511   4.307   6.095   2.428 -0.3520 -0.6466 -3.0995
  345MOL0     H46512   4.225   6.253   2.578  0.3929 -0.2938  0.6148
  345MOL0     H46513   4.124   6.260   2.429 -1.4034  1.0123  1.2126
  345MOL0     H46514   4.044   6.100   2.681  1.3136  1.3838  0.6786
  345MOL0     H46515   4.009   6.263   2.670  0.1991 -0.0369 -1.3557
  345MOL0     H46516   3.880   6.246   2.465  2.4917  1.3735  0.2511
  345MOL0     H46517   3.917   6.074   2.450  0.5749  2.1616 -2.0959
  345MOL0     H46518   3.718   6.031   2.566 -3.0728 -0.2767  3.6188
  345MOL0     H46519   3.822   6.064   2.707  0.6067 -4.2401 -2.4892
  345MOL0     H46520   3.753   6.303   2.685  1.9412  0.6015 -0.7128
  345MOL0     H46521   3.642   6.264   2.553 -0.3176  0.3668  0.1733
  345MOL0     H46522   3.626   6.176   2.854  2.3677 -1.4093  0.1808
  345MOL0     H46523   3.508   6.268   2.762  0.3026 -0.4800 -0.7759
  345MOL0     H46524   3.573   5.969   2.739 -1.3663  0.0789  3.8134
  345MOL0     H46525   3.479   6.056   2.614 -1.0552  0.2573  0.7922
  345MOL0     H46526   3.225   6.145   2.715 -0.1395 -1.3064 -1.5261
  345MOL0     H46527   3.017   6.150   2.861 -1.8514  1.9499  3.0115
  345MOL0     H46528   3.006   5.978   2.925  1.2994 -0.2248 -2.5832
  345MOL0     H46529   2.930   6.184   3.028 -1.3809 -0.7651  0.4537
  345MOL0     H46530   3.104   6.205   3.073  1.2539 -1.4983  3.0086
  345MOL0     H46531   3.109   5.992   3.187  1.6434  0.3329 -2.5386
  345MOL0     H46532   2.938   5.956   3.159 -4.0141  2.7209  2.1777
  345MOL0     H46533   3.021   6.219   3.298 -0.9445  1.4701 -2.9139
  345MOL0     H46534   2.966   6.064   3.383 -0.9077 -0.1049  0.1747
  345MOL0     H46535   2.786   5.911   3.294 -2.2159 -1.4863 -1.6372
  345MOL0     H46536   2.607   5.746   3.245 -0.0363 -1.0623  0.0964
  345MOL0     H46537   2.636   5.710   3.411  2.4217  0.0273 -2.4802
  345MOL0     H46538   2.472   5.733   3.349  0.4337 -2.9129  1.3211
  345MOL0     H46539   2.221   6.146   3.803  2.8489 -3.4415  0.1959
  345MOL0     H46540   2.037   6.068   3.925 -1.2749  3.5286 -0.6985
  345MOL0     H46541   1.691   5.855   3.713 -1.9418  1.5068  0.8250
  345MOL0     H46542   1.829   5.754   3.756  1.3576  0.7507  3.0864
  345MOL0     H46543   1.737   5.657   3.929  1.8588  0.7541  2.9167
  345MOL0     H46544   1.727   5.806   4.011  2.3844  1.2818 -1.9164
  345MOL0     H46545   1.500   5.729   3.813 -2.3680 -2.0692  1.6774
  345MOL0     H46546   1.498   5.848   3.925  1.9072  0.0926  1.0119
  345MOL0     H46547   1.467   5.547   3.951 -0.0980  0.6906  0.1405
  345MOL0     H46548   1.525   5.636   4.095 -1.8232  0.3679  2.1934
  345MOL0     H46549   1.259   5.655   3.951  0.4009 -0.6442  0.3106
  345MOL0     H46550   1.318   5.775   4.078  1.7136  0.6007  0.1906
  345MOL0     H46551   1.327   5.490   4.123  1.0708  0.3291  1.1018
  345MOL0     H46552   1.304   5.614   4.252  0.8507 -0.5379 -0.0284
  345MOL0     H46553   1.115   5.474   4.209  1.4460 -0.9784 -1.8748
  345MOL0     H46554   1.085   5.554   4.046 -0.0160  2.2399 -0.6656
  345MOL0     H46555   1.062   5.666   4.322 -2.5331  0.9083  0.7861
  345MOL0     H46556   0.949   5.656   4.193  0.2293 -1.1880  2.3599
  345MOL0     H46557   1.870   5.885   3.569  2.8730 -4.1644 -0.0280
  345MOL0     H46558   2.053   5.955   3.446 -3.8641 -1.8642  0.3835
  345MOL0     H46559   2.445   6.220   3.463  0.6750  0.2223  1.1160
  345MOL0     H46560   2.643   6.313   3.357  3.4188 -0.5833 -1.4590
  345MOL0     H46561   4.419   5.927   2.374  2.5098 -1.4170  0.8327
  345MOL0     H46562   4.521   5.731   2.273 -0.4294 -0.4720  2.9717
  345MOL0     H46563   4.604   5.406   2.067  0.4400  1.4687 -0.0976
  345MOL0     H46564   4.778   5.274   1.926 -1.1749  1.1781  3.5321
  345MOL0     H46565   4.773   5.096   1.766  2.0164  0.9961  0.9574
  345MOL0     H46566   4.676   5.127   1.618  0.6273  0.0515 -1.0618
  345MOL0     H46567   4.902   4.974   1.583  0.8462  1.2548 -4.2828
  345MOL0     H46568   4.966   5.135   1.589  0.0056  0.1599  2.6120
  345MOL0     H46569   4.800   5.179   1.387  2.0860  1.0625  0.3446
  345MOL0     H46570   4.742   5.012   1.417 -1.4401  1.6594  2.3988
  345MOL0     H46571   4.961   4.927   1.374 -2.7408 -0.4749  1.7618
  345MOL0     H46572   5.029   5.086   1.345 -0.2494  0.7081  4.0830
  345MOL0     H46573   4.842   4.945   0.983 -3.9360  0.7052  1.6315
  345MOL0     H46574   4.576   5.394   1.573  1.3480 -1.5540  0.1457
  345MOL0     H46575   4.408   5.507   1.709 -0.6680  0.9714  2.6009
  346MOL0     O46576   9.322  10.403   0.805 -0.0268  0.2124  0.7444
  346MOL0     C46577   9.327  10.294   0.750  1.3502  1.1249 -0.2842
  346MOL0     O46578   9.370  10.268   0.622 -0.3382  1.3174 -0.1359
  346MOL0     C46579   9.428  10.362   0.536 -0.7008 -0.3756  0.6539
  346MOL0     C46580   9.444  10.328   0.402 -0.5758 -0.4394 -0.8818
  346MOL0     C46581   9.506  10.414   0.310 -0.3270  1.2939  0.2733
  346MOL0     C46582   9.557  10.533   0.346 -0.6797 -0.8413  0.8951
  346MOL0     O46583   9.623  10.616   0.257 -0.4102  0.1271  0.4710
  346MOL0     C46584   9.765  10.584   0.252  0.0907 -0.3686 -0.3335
  346MOL0     C46585   9.862  10.699   0.208  0.5178  0.0904  0.3795
  346MOL0     C46586   9.862  10.827   0.291 -0.0737 -0.4933  0.7893
  346MOL0     C46587   9.904  10.789   0.438 -0.2498 -0.9769 -0.3453
  346MOL0     C46588   9.923  10.910   0.536  0.2274 -0.4320  0.1120
  346MOL0     C46589  10.034  10.997   0.484 -0.0817  0.0385  0.0641
  346MOL0     C46590  10.128  11.081   0.578 -0.5662  0.7481  0.2822
  346MOL0     C46591  10.256  11.118   0.501 -1.3499  0.4676 -0.7515
  346MOL0     N46592  10.325  11.243   0.527  1.0673 -0.4969 -0.7451
  346MOL0     C46593  10.451  11.248   0.590  0.4491  0.7574  0.9148
  346MOL0     C46594  10.477  11.382   0.580 -0.0528  0.7293 -0.4929
  346MOL0     C46595  10.595  11.459   0.635 -0.9136  0.0679 -0.7479
  346MOL0     C46596  10.717  11.430   0.550 -0.1602 -0.3849  0.3952
  346MOL0     C46597  10.775  11.291   0.580 -0.1203 -0.1098  0.1855
  346MOL0     C46598  10.914  11.274   0.522 -0.2002  0.0639  0.0116
  346MOL0     O46599  10.980  11.160   0.584 -0.0101 -0.8793 -0.0554
  346MOL0     C46600  11.098  11.102   0.535  0.6178  0.0938 -1.2510
  346MOL0     C46601  11.127  10.978   0.592 -0.2717 -0.2810  0.0085
  346MOL0     C46602  11.252  10.914   0.572 -0.3468  0.2765 -0.5306
  346MOL0     C46603  11.273  10.784   0.653  0.0263 -0.3075  0.6298
  346MOL0     C46604  11.345  10.976   0.489  0.8718 -0.0480 -1.0056
  346MOL0     C46605  11.486  10.928   0.481 -0.7024  0.2503 -0.7366
  346MOL0     O46606  11.510  10.801   0.505 -0.0859 -0.2509 -0.2924
  346MOL0     C46607  11.635  10.761   0.550  0.1143  0.0026 -0.0254
  346MOL0     C46608  11.659  10.766   0.693 -0.4205 -0.6358  0.2319
  346MOL0     C46609  11.780  10.715   0.743  0.4496  0.4467 -0.1891
  346MOL0     C46610  11.867  10.649   0.656  0.5154  0.9876  0.3115
  346MOL0     O46611  11.986  10.607   0.706 -0.1689 -0.4167 -0.8664
  346MOL0     C46612  12.096  10.582   0.620  0.2866  0.9332 -0.1264
  346MOL0     C46613  12.231  10.582   0.705  0.8442  0.1697 -0.2280
  346MOL0     C46614  12.351  10.602   0.618 -0.9358  0.3917  0.2663
  346MOL0     C46615  12.473  10.590   0.708 -0.3387 -0.1229  0.6726
  346MOL0     C46616  12.598  10.632   0.632  0.6167  0.4692 -0.7657
  346MOL0     C46617  12.719  10.628   0.718  0.7400 -0.3659 -0.5649
  346MOL0     C46618  12.838  10.672   0.631 -0.1039  0.2302 -0.5474
  346MOL0     C46619  12.953  10.719   0.722  0.1005 -0.4394  0.1550
  346MOL0    Cl46620  13.047  10.591   0.800 -0.0289  0.2211  0.3974
  346MOL0     C46621  11.842  10.639   0.522  0.6852  0.1194 -0.0338
  346MOL0     C46622  11.726  10.688   0.466  1.0798 -0.0840  0.4000
  346MOL0     O46623  11.578  11.005   0.454 -0.5139 -0.4601  0.2890
  346MOL0     C46624  11.309  11.100   0.425 -0.6492  0.0434 -0.2447
  346MOL0     C46625  11.186  11.160   0.443 -0.5096 -0.5700 -0.6203
  346MOL0     N46626  10.370  11.457   0.509  0.1193  0.1606  0.3923
  346MOL0     N46627  10.282  11.371   0.486 -0.4444  1.2734  0.1186
  346MOL0     C46628   9.546  10.581   0.476  0.0782 -0.4558  0.2507
  346MOL0     C46629   9.474  10.498   0.571  0.7136  0.6801 -0.0608
  346MOL0     C46630   9.274  10.182   0.824 -0.1597  0.4717  0.5218
  346MOL0     C46631   9.210  10.191   0.942  0.4542 -0.4170 -0.5215
  346MOL0     C46632   9.175  10.084   1.031 -0.1647 -0.2778  0.0699
  346MOL0     C46633   9.210   9.953   0.988  0.0921 -0.6224 -1.3126
  346MOL0     O46634   9.202   9.870   1.095  0.7099  0.4572  0.2257
  346MOL0     C46635   9.223   9.726   1.074 -0.2436  1.1768 -0.5862
  346MOL0     C46636   9.105   9.665   0.981  0.4348 -0.2891 -0.2923
  346MOL0     C46637   9.118   9.514   0.982  0.1513  0.3030 -0.5455
  346MOL0     C46638   9.015   9.462   0.895  0.0775 -0.0193 -0.5533
  346MOL0     C46639   9.022   9.317   0.906  0.8287  0.9750 -0.2489
  346MOL0     C46640   9.025   9.196   0.918 -1.2042  0.2144 -0.2612
  346MOL0     C46641   9.268   9.939   0.861  0.9097  0.1917 -0.2771
  346MOL0     C46642   9.294  10.051   0.780 -0.3663  1.5345  0.2310
  346MOL0     H46643   9.402  10.233   0.372 -0.3285 -0.8511  0.0375
  346MOL0     H46644   9.500  10.386   0.205 -2.2512  1.9133  0.1868
  346MOL0     H46645   9.797  10.555   0.353 -1.7264 -0.2172  0.3250
  346MOL0     H46646   9.789  10.494   0.194 -2.0121 -2.0581  1.2330
  346MOL0     H46647   9.961  10.654   0.199 -0.0448 -0.9899 -0.8450
  346MOL0     H46648   9.824  10.730   0.110  0.0826  0.9051  0.7949
  346MOL0     H46649   9.944  10.891   0.256  0.0811 -0.0248  1.9740
  346MOL0     H46650   9.764  10.873   0.280 -0.0237 -0.5351  0.1341
  346MOL0     H46651   9.818  10.741   0.486 -1.3291  2.6915  1.8062
  346MOL0     H46652   9.988  10.719   0.433  0.3532 -0.2854 -0.0746
  346MOL0     H46653   9.832  10.970   0.543 -0.4354 -1.6006  2.8396
  346MOL0     H46654   9.940  10.858   0.631  1.0591  1.0260  0.7943
  346MOL0     H46655  10.097  10.935   0.420  0.1990 -0.5385  0.8872
  346MOL0     H46656   9.984  11.061   0.410 -1.4716 -1.7641 -0.6327
  346MOL0     H46657  10.074  11.172   0.606  0.6229  1.9014 -1.0540
  346MOL0     H46658  10.142  11.026   0.672 -1.8350  2.2428  1.4098
  346MOL0     H46659  10.229  11.128   0.396  2.0369  0.7046 -1.6977
  346MOL0     H46660  10.334  11.042   0.513  0.5292  2.6792  2.5503
  346MOL0     H46661  10.507  11.179   0.652  0.7286  0.3168  0.1858
  346MOL0     H46662  10.582  11.567   0.650  1.1433 -0.1330  5.9030
  346MOL0     H46663  10.619  11.432   0.738 -0.3492  3.9765  0.3057
  346MOL0     H46664  10.794  11.502   0.577  0.7583 -1.1603 -0.0722
  346MOL0     H46665  10.693  11.448   0.445 -1.2568  0.2403  0.7389
  346MOL0     H46666  10.712  11.215   0.533 -2.1418  2.2078 -1.0763
  346MOL0     H46667  10.776  11.292   0.690 -1.3018  2.0334  0.2331
  346MOL0     H46668  10.978  11.361   0.540 -2.3276  2.1297 -1.7129
  346MOL0     H46669  10.916  11.281   0.412  3.6476  3.1562  0.0762
  346MOL0     H46670  11.068  10.936   0.673 -0.9367  0.0858 -0.2764
  346MOL0     H46671  11.345  10.789   0.735  1.1587  0.0699 -0.3577
  346MOL0     H46672  11.182  10.752   0.705  0.3718 -2.3543  0.0677
  346MOL0     H46673  11.294  10.700   0.587  2.0743 -0.4176  1.3628
  346MOL0     H46674  11.596  10.822   0.762  1.5884  1.8925  0.1799
  346MOL0     H46675  11.800  10.727   0.849 -0.5393  2.3789 -0.1682
  346MOL0     H46676  12.085  10.489   0.563  0.1715  2.2999 -2.5048
  346MOL0     H46677  12.096  10.671   0.556 -1.0504  0.0753 -1.3550
  346MOL0     H46678  12.236  10.667   0.774  2.3731  0.5421 -0.7699
  346MOL0     H46679  12.236  10.498   0.775  0.6843  1.8709  1.9483
  346MOL0     H46680  12.353  10.699   0.566  0.0565 -0.4954 -1.4555
  346MOL0     H46681  12.345  10.529   0.537 -2.5624 -0.5508  1.1879
  346MOL0     H46682  12.446  10.662   0.786 -1.3410  0.0324  0.1986
  346MOL0     H46683  12.493  10.496   0.759  2.7990  1.0605  1.8610
  346MOL0     H46684  12.571  10.731   0.593  0.6066  0.2992 -1.1971
  346MOL0     H46685  12.604  10.564   0.546  0.1502 -0.2260 -0.2577
  346MOL0     H46686  12.725  10.683   0.812  4.1533 -2.5049  0.6435
  346MOL0     H46687  12.745  10.527   0.749  4.2233  0.7456  0.7205
  346MOL0     H46688  12.816  10.756   0.565 -0.0510  1.1976  0.6400
  346MOL0     H46689  12.873  10.595   0.560 -0.3311 -0.0238 -0.3867
  346MOL0     H46690  12.907  10.785   0.796  0.8748  1.3183 -0.8607
  346MOL0     H46691  13.026  10.782   0.669 -0.2696  0.3773  0.6031
  346MOL0     H46692  11.912  10.582   0.461 -1.3329 -0.4937 -1.9005
  346MOL0     H46693  11.703  10.695   0.361 -2.6816  2.8867  1.2077
  346MOL0     H46694  11.370  11.142   0.345 -0.2234 -1.9068 -0.9820
  346MOL0     H46695  11.150  11.235   0.373 -2.3350 -0.9807 -0.1573
  346MOL0     H46696   9.574  10.682   0.503 -0.1225 -0.3099 -0.0885
  346MOL0     H46697   9.459  10.543   0.668 -1.2444  2.3163 -1.0300
  346MOL0     H46698   9.170  10.286   0.974 -0.1774 -0.3364 -1.4843
  346MOL0     H46699   9.137  10.111   1.129  1.5076 -0.7933  0.8881
  346MOL0     H46700   9.326   9.712   1.038  0.2731  0.2502  1.1224
  346MOL0     H46701   9.223   9.668   1.167 -2.6590  0.0932 -1.1925
  346MOL0     H46702   9.131   9.703   0.882  1.9567 -2.9994 -1.0500
  346MOL0     H46703   9.011   9.706   1.018  0.5317 -1.2391  1.1077
  346MOL0     H46704   9.090   9.492   1.085 -0.5326  3.1067 -0.0420
  346MOL0     H46705   9.216   9.481   0.949 -0.5883 -0.9514 -1.5963
  346MOL0     H46706   9.027   9.485   0.788  0.1068  1.2182 -0.2966
  346MOL0     H46707   8.914   9.497   0.915  0.7623  2.0655 -0.5006
  346MOL0     H46708   9.027   9.090   0.932  0.0966  0.3285  0.5313
  346MOL0     H46709   9.290   9.836   0.835 -0.0051 -0.3535  1.0366
  346MOL0     H46710   9.338  10.041   0.681  1.1643 -0.4937  1.0309
  347MOL0     O46711   4.021   8.050   6.203 -0.0481  0.2746 -0.4825
  347MOL0     C46712   3.951   8.128   6.142 -0.6030 -0.4369  0.7549
  347MOL0     O46713   3.998   8.231   6.056 -0.0928  0.2086  0.0321
  347MOL0     C46714   4.128   8.285   6.071 -0.4200  0.0287 -0.3551
  347MOL0     C46715   4.157   8.382   5.973 -0.4701 -0.3633  0.5115
  347MOL0     C46716   4.274   8.458   5.989 -0.3159  1.5393 -0.6182
  347MOL0     C46717   4.360   8.440   6.089 -0.6114 -0.5960 -0.3598
  347MOL0     O46718   4.473   8.522   6.077 -0.0361 -0.4356  0.3024
  347MOL0     C46719   4.582   8.503   6.163  0.7381 -0.3349 -0.7679
  347MOL0     C46720   4.690   8.436   6.082 -0.4237  0.3218  0.2494
  347MOL0     C46721   4.650   8.288   6.047 -0.4500 -0.0902 -0.5278
  347MOL0     C46722   4.670   8.191   6.165  0.5494 -0.2452  0.3572
  347MOL0     C46723   4.611   8.056   6.117  0.2549  0.7344  0.0540
  347MOL0     C46724   4.579   7.958   6.230  1.1746 -0.5758  0.7296
  347MOL0     C46725   4.584   7.801   6.196  0.4898 -0.5854  0.3968
  347MOL0     C46726   4.538   7.717   6.310 -0.5976 -0.5250  0.7560
  347MOL0     N46727   4.581   7.574   6.271  0.0757 -1.2704  0.5151
  347MOL0     C46728   4.550   7.469   6.350  0.0360  0.0010 -0.3672
  347MOL0     C46729   4.572   7.360   6.272 -0.4983 -1.0442  0.0281
  347MOL0     C46730   4.544   7.213   6.323 -0.8132 -1.8190  0.1596
  347MOL0     C46731   4.675   7.133   6.355 -0.7751  0.8135 -0.2704
  347MOL0     C46732   4.649   6.984   6.364 -0.2213 -0.7461  0.4991
  347MOL0     C46733   4.786   6.919   6.397 -0.8916  0.5917  1.0872
  347MOL0     O46734   4.782   6.802   6.481 -0.4853 -0.4627 -0.1388
  347MOL0     C46735   4.886   6.725   6.513  0.3893  0.4970  0.0262
  347MOL0     C46736   4.868   6.619   6.600  0.6603  0.5583  0.3965
  347MOL0     C46737   4.972   6.533   6.645  0.2120  0.8097  0.1980
  347MOL0     C46738   4.922   6.415   6.725  0.1301  0.0047  0.3436
  347MOL0     C46739   5.107   6.563   6.611  0.9538  0.3500  0.6811
  347MOL0     C46740   5.229   6.490   6.664  0.1067  0.5922 -1.0705
  347MOL0     O46741   5.347   6.542   6.625 -0.5971 -0.6037 -0.1994
  347MOL0     C46742   5.456   6.459   6.639  0.9636 -0.2330  0.7188
  347MOL0     C46743   5.573   6.528   6.678 -0.2531  0.2393  0.7006
  347MOL0     C46744   5.693   6.468   6.682  0.2518  0.3818 -0.9438
  347MOL0     C46745   5.700   6.329   6.662 -0.5061 -1.2630  0.5105
  347MOL0     O46746   5.819   6.263   6.649  0.3332 -0.3726  0.3094
  347MOL0     C46747   5.925   6.297   6.738 -0.0644  0.5725 -0.6642
  347MOL0     C46748   6.046   6.209   6.700 -0.4592 -0.3796 -0.2300
  347MOL0     C46749   6.162   6.266   6.772 -0.6018 -0.8850 -0.3186
  347MOL0     C46750   6.279   6.159   6.771 -0.4258 -0.0450 -0.0291
  347MOL0     C46751   6.231   6.029   6.831  0.0550  0.4067 -0.2554
  347MOL0     C46752   6.348   5.951   6.898  0.5366 -0.4628 -0.5551
  347MOL0     C46753   6.327   5.895   7.033 -0.1564 -1.2176 -0.2985
  347MOL0     C46754   6.445   5.813   7.085 -0.1318  0.1811 -0.8880
  347MOL0    Cl46755   6.478   5.679   6.977  0.0625 -0.1740 -0.3395
  347MOL0     C46756   5.581   6.265   6.627 -0.2623  0.3318  0.7415
  347MOL0     C46757   5.460   6.319   6.600  0.6358 -0.3626 -0.1603
  347MOL0     O46758   5.214   6.387   6.741  0.4496  0.1725  0.5849
  347MOL0     C46759   5.128   6.679   6.533  0.3352 -0.3669 -0.7376
  347MOL0     C46760   5.019   6.755   6.482 -0.1528 -0.3872 -0.5680
  347MOL0     N46761   4.608   7.400   6.150  0.6419 -0.6436  0.0805
  347MOL0     N46762   4.598   7.526   6.148 -0.5416 -0.6912 -0.7305
  347MOL0     C46763   4.334   8.343   6.185 -0.4045  0.9161  0.0456
  347MOL0     C46764   4.211   8.274   6.186  0.0661 -0.0060 -0.6852
  347MOL0     C46765   3.806   8.122   6.168 -0.9396  0.8530  0.1626
  347MOL0     C46766   3.750   8.002   6.203  1.2612  0.7719 -1.1292
  347MOL0     C46767   3.608   7.996   6.203 -0.3846 -0.0136  0.0175
  347MOL0     C46768   3.524   8.111   6.188  0.3962  0.5695  0.5087
  347MOL0     O46769   3.388   8.087   6.199  0.5211  0.3512 -0.3926
  347MOL0     C46770   3.298   8.195   6.190 -0.2126 -0.6231 -0.3344
  347MOL0     C46771   3.291   8.287   6.310  0.6193 -0.1575 -0.2356
  347MOL0     C46772   3.151   8.353   6.319  0.4760 -0.0651  0.0793
  347MOL0     C46773   3.157   8.477   6.399  0.2782 -1.1460 -0.4145
  347MOL0     C46774   3.106   8.458   6.540  0.2243 -0.1389 -0.0568
  347MOL0     C46775   3.048   8.450   6.647 -1.0312 -0.1108  0.7370
  347MOL0     C46776   3.582   8.232   6.152  0.1494  0.1079  0.8569
  347MOL0     C46777   3.724   8.233   6.135  0.3103  0.6324  0.6700
  347MOL0     H46778   4.089   8.390   5.888 -0.8580 -1.3647  0.7085
  347MOL0     H46779   4.284   8.539   5.916 -5.4657  0.6633 -2.7068
  347MOL0     H46780   4.618   8.603   6.190  1.1266 -0.3455 -1.2260
  347MOL0     H46781   4.562   8.445   6.253 -0.5776  1.6538  0.3171
  347MOL0     H46782   4.712   8.490   5.990 -0.5864 -1.2942 -0.7600
  347MOL0     H46783   4.781   8.426   6.141  0.3928 -1.7498 -1.2768
  347MOL0     H46784   4.548   8.277   6.008 -0.2173  0.8586 -1.4500
  347MOL0     H46785   4.707   8.239   5.968  1.3744 -0.8000  1.1589
  347MOL0     H46786   4.774   8.182   6.197  0.6197  2.5848  1.1498
  347MOL0     H46787   4.610   8.223   6.251 -1.0533 -0.3142 -0.6736
  347MOL0     H46788   4.515   8.071   6.066  0.5559 -0.3632 -0.8530
  347MOL0     H46789   4.690   8.005   6.063  1.8275 -0.2074  3.0320
  347MOL0     H46790   4.657   7.955   6.307  1.3790 -0.4835  0.5233
  347MOL0     H46791   4.485   7.987   6.278  0.5243  0.2264 -0.9827
  347MOL0     H46792   4.513   7.797   6.113 -0.9529 -1.8816  1.6324
  347MOL0     H46793   4.680   7.768   6.156  0.9614  1.7998 -0.6572
  347MOL0     H46794   4.430   7.729   6.326 -1.3860 -0.1136 -3.4618
  347MOL0     H46795   4.586   7.739   6.405  0.6652 -2.8805  0.7427
  347MOL0     H46796   4.517   7.459   6.453 -1.7299 -0.7252 -0.9698
  347MOL0     H46797   4.484   7.223   6.414  0.6442  0.0926  0.9771
  347MOL0     H46798   4.472   7.162   6.258 -2.3653 -1.0948  1.2576
  347MOL0     H46799   4.721   7.174   6.446 -1.2755  0.0619  0.3293
  347MOL0     H46800   4.747   7.149   6.274 -2.3547  0.8117 -1.7307
  347MOL0     H46801   4.607   6.930   6.279 -1.7878 -5.8362  4.0229
  347MOL0     H46802   4.576   6.976   6.445 -0.0450 -2.5082  0.5200
  347MOL0     H46803   4.838   6.999   6.451  2.5335  0.7422 -2.0346
  347MOL0     H46804   4.849   6.897   6.310 -0.4565  0.1127  1.5173
  347MOL0     H46805   4.770   6.602   6.645 -0.4293  4.2506 -0.3053
  347MOL0     H46806   4.933   6.435   6.832 -0.8532  0.8191  0.3114
  347MOL0     H46807   4.815   6.402   6.708  0.2280  0.4916 -0.8036
  347MOL0     H46808   4.972   6.320   6.703 -0.7417 -0.7807  1.6338
  347MOL0     H46809   5.587   6.634   6.696 -1.1593 -0.1381  4.7875
  347MOL0     H46810   5.783   6.529   6.687  0.2703  0.4798 -2.0886
  347MOL0     H46811   5.942   6.406   6.739 -0.7218  0.6991  1.4312
  347MOL0     H46812   5.895   6.263   6.838 -1.9776  0.1048 -1.3636
  347MOL0     H46813   6.008   6.106   6.704 -0.3815 -0.3839  0.8646
  347MOL0     H46814   6.068   6.217   6.593 -0.2715 -0.1084 -0.1731
  347MOL0     H46815   6.140   6.285   6.878 -0.2331 -3.9872  0.4373
  347MOL0     H46816   6.198   6.359   6.728 -0.0177 -1.3879 -0.9088
  347MOL0     H46817   6.310   6.151   6.667 -1.2093 -2.5230 -0.1538
  347MOL0     H46818   6.354   6.200   6.838 -0.0556  0.7379 -0.9099
  347MOL0     H46819   6.189   5.961   6.756 -3.6096 -0.1665  2.0546
  347MOL0     H46820   6.164   6.052   6.915 -3.2203 -0.0268 -2.5409
  347MOL0     H46821   6.390   5.878   6.828  1.0982 -1.0245  0.3425
  347MOL0     H46822   6.432   6.021   6.911  2.9828 -3.2921 -0.0381
  347MOL0     H46823   6.246   5.821   7.027 -1.3068 -0.2962  2.3416
  347MOL0     H46824   6.304   5.971   7.108  0.8959  0.5370 -1.6777
  347MOL0     H46825   6.429   5.781   7.188 -0.3868 -2.5915 -1.7208
  347MOL0     H46826   6.535   5.875   7.095 -0.0957 -0.2493  2.3925
  347MOL0     H46827   5.594   6.158   6.611 -0.8906  0.5828 -1.8134
  347MOL0     H46828   5.373   6.269   6.558  0.1201 -0.9880  1.5788
  347MOL0     H46829   5.228   6.707   6.501  0.5862  0.0833  0.4184
  347MOL0     H46830   5.047   6.835   6.415  0.3974 -1.9372 -2.2519
  347MOL0     H46831   4.385   8.315   6.277  0.5701 -0.1464 -0.7899
  347MOL0     H46832   4.186   8.208   6.268  1.6170  0.0589 -0.1095
  347MOL0     H46833   3.814   7.916   6.219 -1.5967 -1.4634 -0.9502
  347MOL0     H46834   3.568   7.898   6.228 -2.2822  0.2119 -1.7925
  347MOL0     H46835   3.330   8.254   6.104  1.8041 -1.1367  0.0058
  347MOL0     H46836   3.197   8.157   6.173 -1.1373 -1.4636  5.1030
  347MOL0     H46837   3.358   8.373   6.307 -2.6572  2.7314  1.9104
  347MOL0     H46838   3.301   8.224   6.399  4.2109 -0.6131 -0.8166
  347MOL0     H46839   3.075   8.289   6.365  1.5858 -2.3348 -1.0557
  347MOL0     H46840   3.109   8.371   6.219 -3.9633 -1.3095  1.4709
  347MOL0     H46841   3.103   8.558   6.349 -1.2646 -1.6155  0.4467
  347MOL0     H46842   3.254   8.526   6.416 -0.1813 -0.2034 -0.4460
  347MOL0     H46843   3.007   8.443   6.746 -0.0048  1.1984  1.2860
  347MOL0     H46844   3.518   8.316   6.127 -2.3547 -0.5829  4.1193
  347MOL0     H46845   3.774   8.317   6.089  1.3057 -1.6589 -2.9233
  348MOL0     O46846   9.834   2.492   4.765  0.3620  0.1269 -0.3119
  348MOL0     C46847   9.939   2.445   4.742 -0.6756  0.8907 -1.8600
  348MOL0     O46848   9.975   2.387   4.624 -0.1672  0.3016  0.9979
  348MOL0     C46849   9.885   2.398   4.518  0.2720 -0.6532  0.2533
  348MOL0     C46850   9.923   2.499   4.417 -0.2827  0.4044 -0.0420
  348MOL0     C46851   9.843   2.521   4.307 -1.0284  0.3326  1.4689
  348MOL0     C46852   9.735   2.437   4.291 -0.4758 -0.0541 -0.0612
  348MOL0     O46853   9.646   2.474   4.197  0.2231 -0.2693 -0.4503
  348MOL0     C46854   9.578   2.373   4.124  0.0828 -0.5881  0.1100
  348MOL0     C46855   9.426   2.399   4.154 -0.2154 -0.0273 -0.1432
  348MOL0     C46856   9.331   2.278   4.130 -0.7381  1.0019  0.6380
  348MOL0     C46857   9.327   2.229   3.979  0.3035 -0.1088 -0.9104
  348MOL0     C46858   9.247   2.093   3.952  0.3138  0.1228  0.0675
  348MOL0     C46859   9.219   2.081   3.812  0.8857  0.1766 -0.5066
  348MOL0     C46860   9.079   1.999   3.792 -0.4566  0.4310  0.4516
  348MOL0     C46861   9.065   1.849   3.831  0.0799  1.5578  0.3449
  348MOL0     N46862   9.154   1.759   3.754 -0.1976 -0.0667 -0.3561
  348MOL0     C46863   9.259   1.685   3.807 -0.3403 -0.8781 -0.1489
  348MOL0     C46864   9.327   1.632   3.707  0.9907  0.5699  0.4788
  348MOL0     C46865   9.440   1.534   3.722  0.0175 -0.1275 -0.5365
  348MOL0     C46866   9.513   1.479   3.591 -0.3983 -0.7321  0.7437
  348MOL0     C46867   9.587   1.598   3.520  0.8404 -0.3240 -0.3823
  348MOL0     C46868   9.668   1.700   3.605 -0.3716 -0.7088  1.2411
  348MOL0     O46869   9.766   1.626   3.681  0.1377  0.2668  0.1598
  348MOL0     C46870   9.879   1.701   3.720 -0.1008 -0.2272 -0.0380
  348MOL0     C46871   9.936   1.820   3.677 -0.6992 -0.4840 -0.4601
  348MOL0     C46872  10.052   1.871   3.742  0.1026  0.6405  0.0320
  348MOL0     C46873  10.109   1.988   3.684 -0.8779 -0.8190 -0.0942
  348MOL0     C46874  10.114   1.797   3.853 -0.1882 -0.0843  1.3014
  348MOL0     C46875  10.245   1.826   3.921  1.1621 -0.1867  0.4564
  348MOL0     O46876  10.282   1.735   4.006  0.5231  0.7801 -0.4917
  348MOL0     C46877  10.416   1.752   4.051  0.1875 -0.0556 -0.2944
  348MOL0     C46878  10.492   1.645   4.028 -0.1742 -0.0395  0.0248
  348MOL0     C46879  10.605   1.627   4.113  0.7014 -0.3015 -0.0301
  348MOL0     C46880  10.644   1.702   4.219  0.7948  0.4708  0.1405
  348MOL0     O46881  10.729   1.669   4.317 -0.2168  0.8851  0.1448
  348MOL0     C46882  10.815   1.555   4.307  0.1326 -0.0798  0.2738
  348MOL0     C46883  10.959   1.596   4.306  0.6699 -0.6319  0.3186
  348MOL0     C46884  11.052   1.486   4.368 -0.2162 -1.1479  0.7467
  348MOL0     C46885  11.014   1.345   4.345 -0.4333  0.4055 -0.0167
  348MOL0     C46886  11.128   1.256   4.355 -0.1793  0.1536  0.1753
  348MOL0     C46887  11.106   1.116   4.299  0.1583 -1.0320 -0.2305
  348MOL0     C46888  11.055   1.109   4.152 -0.1173 -0.5345  0.7586
  348MOL0     C46889  11.116   0.993   4.087  0.6630 -0.1770 -0.7468
  348MOL0    Cl46890  11.104   0.849   4.200 -0.0525 -0.3068 -0.1082
  348MOL0     C46891  10.566   1.814   4.231 -0.6960  0.0628  0.3481
  348MOL0     C46892  10.457   1.845   4.149 -0.5565  0.4954  0.3140
  348MOL0     O46893  10.297   1.942   3.912 -0.8039  0.0923  0.6147
  348MOL0     C46894  10.051   1.672   3.888 -1.1083 -0.8083  0.1863
  348MOL0     C46895   9.939   1.633   3.821 -0.7313  0.0701 -0.5205
  348MOL0     N46896   9.253   1.667   3.596 -0.7539  0.9542  0.3626
  348MOL0     N46897   9.159   1.743   3.619 -0.2940 -0.5037 -0.5459
  348MOL0     C46898   9.694   2.346   4.390  0.3160  0.5638  0.3949
  348MOL0     C46899   9.774   2.330   4.498 -0.2822  0.9985  0.6356
  348MOL0     C46900  10.035   2.453   4.855  0.3616 -0.8237  0.2046
  348MOL0     C46901  10.169   2.418   4.843 -0.8958  0.7032 -0.0349
  348MOL0     C46902  10.260   2.418   4.956  0.1714  0.0932 -0.5721
  348MOL0     C46903  10.221   2.464   5.084 -1.3944  1.4531  0.9716
  348MOL0     O46904  10.297   2.478   5.194 -0.5881 -0.2218 -0.0391
  348MOL0     C46905  10.384   2.362   5.220  0.5920 -0.3482 -1.0958
  348MOL0     C46906  10.425   2.346   5.367  0.0360  0.4761  0.2803
  348MOL0     C46907  10.516   2.460   5.401  0.9818 -0.4338 -1.0863
  348MOL0     C46908  10.558   2.465   5.550  0.1250  0.2241  0.1090
  348MOL0     C46909  10.656   2.367   5.575 -0.8420  0.5410 -0.6818
  348MOL0     C46910  10.732   2.279   5.601 -0.2009  0.2726 -0.3839
  348MOL0     C46911  10.087   2.500   5.097  0.4973  0.7512 -0.4459
  348MOL0     C46912   9.996   2.500   4.986 -1.3902 -0.6337  0.0274
  348MOL0     H46913  10.019   2.547   4.430 -0.2540  0.1691  0.6674
  348MOL0     H46914   9.856   2.587   4.221 -2.0905 -2.2068 -0.7699
  348MOL0     H46915   9.582   2.392   4.017  3.0301  0.9016  0.3987
  348MOL0     H46916   9.604   2.268   4.137 -1.3999 -0.7284  2.7009
  348MOL0     H46917   9.421   2.421   4.261  1.0324  1.1276 -0.2926
  348MOL0     H46918   9.386   2.486   4.102  0.5801 -0.1131 -0.9210
  348MOL0     H46919   9.364   2.188   4.184  0.8517 -0.2779 -2.2224
  348MOL0     H46920   9.227   2.297   4.157 -1.1092  1.5335 -1.0323
  348MOL0     H46921   9.295   2.317   3.923  5.4848  2.1125 -0.9809
  348MOL0     H46922   9.428   2.209   3.941 -0.3948  1.2603 -3.7299
  348MOL0     H46923   9.296   2.008   4.001  1.9868  1.2407  0.4057
  348MOL0     H46924   9.156   2.106   4.011 -0.9165  0.2762 -1.7938
  348MOL0     H46925   9.200   2.181   3.773 -2.5236 -0.2986 -0.3745
  348MOL0     H46926   9.286   2.023   3.747  2.3387  0.4626  0.7067
  348MOL0     H46927   9.004   2.057   3.846 -1.8319  1.9391 -2.7835
  348MOL0     H46928   9.061   2.010   3.684  0.7381 -0.9089  0.0802
  348MOL0     H46929   8.962   1.817   3.811  0.7307 -0.3228 -0.1636
  348MOL0     H46930   9.087   1.844   3.938 -2.6075 -0.4734  0.9004
  348MOL0     H46931   9.285   1.678   3.912 -0.3905 -2.4998 -0.2060
  348MOL0     H46932   9.516   1.578   3.787  1.5305  1.0871 -2.9711
  348MOL0     H46933   9.399   1.449   3.777  0.4735 -0.5671 -0.8691
  348MOL0     H46934   9.440   1.438   3.520  2.3923  0.2918 -3.0922
  348MOL0     H46935   9.584   1.401   3.622  3.6154  2.3821  0.3207
  348MOL0     H46936   9.507   1.660   3.480  1.3472  1.7346  1.5960
  348MOL0     H46937   9.642   1.547   3.440  0.3944 -2.3143  0.5317
  348MOL0     H46938   9.610   1.751   3.683  0.2104  0.6472  0.8275
  348MOL0     H46939   9.712   1.768   3.532 -0.2341 -2.3335 -0.2556
  348MOL0     H46940   9.896   1.876   3.594  1.1317  2.1213  0.2698
  348MOL0     H46941  10.085   2.079   3.740 -2.4882 -1.2529 -0.0488
  348MOL0     H46942  10.218   1.986   3.672 -0.8342 -0.3071  0.1738
  348MOL0     H46943  10.068   1.995   3.583  0.0072 -2.6795 -0.6124
  348MOL0     H46944  10.460   1.572   3.953  2.1202 -0.4325 -0.6399
  348MOL0     H46945  10.649   1.530   4.093 -2.9635 -2.4925  1.4949
  348MOL0     H46946  10.815   1.518   4.410 -1.1272 -0.4855  0.1490
  348MOL0     H46947  10.795   1.482   4.229  3.0320 -2.3306  1.4526
  348MOL0     H46948  10.991   1.627   4.206 -0.0373  2.4985  0.9336
  348MOL0     H46949  10.964   1.683   4.372 -1.2915 -0.6801  0.5932
  348MOL0     H46950  11.060   1.487   4.477  0.9782 -3.3430  0.7305
  348MOL0     H46951  11.145   1.519   4.321 -1.3409  1.1307 -0.0363
  348MOL0     H46952  10.943   1.311   4.421 -1.0455  0.0896 -0.7090
  348MOL0     H46953  10.979   1.337   4.241 -0.5784  1.0455 -0.0237
  348MOL0     H46954  11.168   1.247   4.457 -0.6204 -0.5591  0.2941
  348MOL0     H46955  11.209   1.299   4.296  0.0016  0.7411  0.8391
  348MOL0     H46956  11.203   1.065   4.308  0.3114 -0.5801  0.8664
  348MOL0     H46957  11.037   1.067   4.367 -1.4630 -1.0597 -1.8211
  348MOL0     H46958  11.090   1.187   4.083 -4.0518  0.9156  0.1079
  348MOL0     H46959  10.947   1.102   4.136  0.0520 -1.6671 -0.0033
  348MOL0     H46960  11.223   1.014   4.079  0.5008  0.2958 -1.8769
  348MOL0     H46961  11.075   0.964   3.990 -0.5903  1.3981 -0.7279
  348MOL0     H46962  10.589   1.877   4.317  0.3683  0.0394  0.0890
  348MOL0     H46963  10.392   1.930   4.167  2.6757  2.6909  2.4793
  348MOL0     H46964  10.068   1.615   3.979 -1.6487  1.1210  1.5773
  348MOL0     H46965   9.890   1.538   3.840  0.3667 -0.3955  0.0722
  348MOL0     H46966   9.598   2.296   4.385  0.7044 -0.5187  2.3996
  348MOL0     H46967   9.737   2.256   4.568 -0.9463 -1.7335 -2.3677
  348MOL0     H46968  10.214   2.366   4.759 -0.8948  0.6308  0.0106
  348MOL0     H46969  10.356   2.380   4.925  1.5130  1.8349  1.2340
  348MOL0     H46970  10.323   2.278   5.186  0.5992  0.0653 -2.1498
  348MOL0     H46971  10.471   2.360   5.154  0.6383 -0.1481 -1.0426
  348MOL0     H46972  10.470   2.247   5.376  1.8801  1.3716  1.8196
  348MOL0     H46973  10.335   2.356   5.428 -0.1670  1.8034 -0.1970
  348MOL0     H46974  10.460   2.550   5.373 -1.4035 -1.2584  0.6218
  348MOL0     H46975  10.608   2.474   5.345  1.4843  1.5370  0.1267
  348MOL0     H46976  10.472   2.451   5.615  0.3041 -1.5600  0.0044
  348MOL0     H46977  10.598   2.565   5.568  0.8014 -0.0879  0.3773
  348MOL0     H46978  10.808   2.210   5.632 -0.7242  1.0121  2.9243
  348MOL0     H46979  10.054   2.531   5.196 -0.1014  0.1927 -0.4645
  348MOL0     H46980   9.894   2.528   5.009 -1.3196 -1.8664  2.2000
  349MOL0     O46981   5.564   5.098   8.978  0.2123  0.2590 -0.4056
  349MOL0     C46982   5.641   5.160   9.049 -0.6949  1.0543  0.0969
  349MOL0     O46983   5.734   5.099   9.115  0.2366  0.6856 -0.3659
  349MOL0     C46984   5.729   4.960   9.115  0.1706 -0.7336 -0.4260
  349MOL0     C46985   5.818   4.895   9.024  0.2735  0.6497  0.4680
  349MOL0     C46986   5.830   4.756   9.003  0.7162  0.3359 -0.3886
  349MOL0     C46987   5.762   4.672   9.099  0.8340 -0.3466  0.3615
  349MOL0     O46988   5.773   4.534   9.102  0.4417  0.1236  1.0611
  349MOL0     C46989   5.784   4.475   8.969 -0.0080 -0.1749 -1.0760
  349MOL0     C46990   5.697   4.336   8.964 -0.2869 -1.0601  0.0973
  349MOL0     C46991   5.759   4.236   9.050 -0.4945 -0.3972 -0.1361
  349MOL0     C46992   5.662   4.115   9.048  0.0568 -0.5320  0.5483
  349MOL0     C46993   5.712   4.011   9.142  0.4513 -0.9381 -0.3881
  349MOL0     C46994   5.641   3.872   9.130  0.5660  0.2345  0.3581
  349MOL0     C46995   5.680   3.767   9.238 -0.4573  0.5798  0.1649
  349MOL0     C46996   5.603   3.631   9.245  0.5555  0.1215 -0.0672
  349MOL0     N46997   5.460   3.647   9.248  1.0786  0.5565 -0.1951
  349MOL0     C46998   5.376   3.646   9.355  0.9318 -0.0957  0.1565
  349MOL0     C46999   5.252   3.643   9.310  0.9437 -0.2070 -0.2634
  349MOL0     C47000   5.122   3.602   9.383  0.4850 -0.7317 -0.3084
  349MOL0     C47001   5.045   3.730   9.417  0.4243 -0.1140  0.6480
  349MOL0     C47002   4.968   3.708   9.546  0.0702  0.2089 -0.3502
  349MOL0     C47003   4.887   3.826   9.564  0.3715  0.4150 -0.3542
  349MOL0     O47004   4.771   3.807   9.486  0.0850 -0.7845 -0.0546
  349MOL0     C47005   4.668   3.730   9.529  0.3044 -0.6314  0.1258
  349MOL0     C47006   4.539   3.737   9.476 -0.9748 -0.8828  0.9209
  349MOL0     C47007   4.436   3.665   9.527  0.3505 -0.7816  0.8570
  349MOL0     C47008   4.300   3.686   9.464  0.0571 -1.0813  0.8118
  349MOL0     C47009   4.447   3.590   9.644  0.1539  0.5536 -0.9371
  349MOL0     C47010   4.340   3.510   9.705  0.1196  0.5356 -0.0973
  349MOL0     O47011   4.310   3.400   9.625  0.6444  0.1492  0.1399
  349MOL0     C47012   4.203   3.320   9.665  0.0034 -0.2191  0.8035
  349MOL0     C47013   4.075   3.356   9.622  0.3679  0.7326 -0.3344
  349MOL0     C47014   3.961   3.280   9.660  0.3453 -0.1237  0.1094
  349MOL0     C47015   3.978   3.161   9.730  0.5950  0.2931  0.5858
  349MOL0     O47016   3.871   3.079   9.728 -0.3255  0.3888  0.5387
  349MOL0     C47017   3.781   3.113   9.833  1.1552  0.6549 -0.1168
  349MOL0     C47018   3.779   2.996   9.932 -0.1415  1.1148 -0.1430
  349MOL0     C47019   3.633   2.947   9.940 -0.3002  0.4252 -0.4047
  349MOL0     C47020   3.592   2.859  10.058  0.2782  0.2472 -0.2492
  349MOL0     C47021   3.453   2.796  10.044  0.3796  1.1335 -0.5123
  349MOL0     C47022   3.412   2.702   9.932 -0.2123 -0.5176 -0.3182
  349MOL0     C47023   3.275   2.636   9.961 -0.0661 -0.3486  0.3915
  349MOL0     C47024   3.254   2.532   9.851 -0.2677 -0.8552  0.4667
  349MOL0    Cl47025   3.117   2.427   9.878  0.4261 -0.0532 -0.3668
  349MOL0     C47026   4.103   3.116   9.758  0.2894 -0.2325  0.2552
  349MOL0     C47027   4.219   3.203   9.743 -0.0511 -0.2612 -0.5335
  349MOL0     O47028   4.302   3.536   9.823 -0.2515 -0.0860 -0.4076
  349MOL0     C47029   4.569   3.594   9.709  0.5981  0.0568 -0.0729
  349MOL0     C47030   4.676   3.655   9.647 -0.0114 -0.1878  0.2043
  349MOL0     N47031   5.262   3.643   9.164 -0.5790 -0.6836  0.2234
  349MOL0     N47032   5.386   3.632   9.132 -0.6316 -0.0978 -0.1457
  349MOL0     C47033   5.696   4.733   9.205  0.5451  0.0711  0.8294
  349MOL0     C47034   5.666   4.876   9.211 -1.1222  0.4428  0.2433
  349MOL0     C47035   5.636   5.307   9.045 -0.0488  0.2944  0.4657
  349MOL0     C47036   5.667   5.397   9.144 -0.2069  0.1221 -0.7343
  349MOL0     C47037   5.635   5.534   9.132 -0.0313 -0.2978  0.9468
  349MOL0     C47038   5.601   5.587   9.002  0.6324  0.2460 -0.8866
  349MOL0     O47039   5.602   5.726   8.987  0.3343  0.6200 -0.3888
  349MOL0     C47040   5.528   5.783   8.886  0.6559 -0.2562  0.0777
  349MOL0     C47041   5.384   5.791   8.926 -0.1976  0.0372  0.5431
  349MOL0     C47042   5.298   5.853   8.805  0.6289  0.3760 -0.2969
  349MOL0     C47043   5.145   5.841   8.824 -0.0913 -0.5262  0.3346
  349MOL0     C47044   5.097   5.895   8.953 -1.3597  0.2803 -0.0440
  349MOL0     C47045   5.030   5.948   9.039  0.0861  0.4840  0.8126
  349MOL0     C47046   5.572   5.491   8.910 -0.5269 -0.3864 -0.0787
  349MOL0     C47047   5.575   5.354   8.928  0.2456 -0.6278 -1.2074
  349MOL0     H47048   5.877   4.954   8.954  1.6876 -0.8291  0.3598
  349MOL0     H47049   5.891   4.713   8.924  1.9517 -0.2224  0.8318
  349MOL0     H47050   5.752   4.539   8.886 -0.5353 -1.2604 -1.7306
  349MOL0     H47051   5.890   4.454   8.952  0.7739  2.9349 -0.6466
  349MOL0     H47052   5.595   4.358   8.998  0.0618  1.7857 -0.3836
  349MOL0     H47053   5.688   4.311   8.858  1.1943  0.4548 -0.4418
  349MOL0     H47054   5.863   4.213   9.026 -0.9957 -2.4294 -0.5252
  349MOL0     H47055   5.748   4.274   9.153 -4.9080 -0.2867 -0.4531
  349MOL0     H47056   5.568   4.155   9.085  1.0790  1.7613  0.8594
  349MOL0     H47057   5.645   4.075   8.948  2.0022 -0.3773  0.1115
  349MOL0     H47058   5.819   3.997   9.130  1.1233  2.0626  1.2205
  349MOL0     H47059   5.704   4.050   9.244  2.0257  0.6441 -0.8103
  349MOL0     H47060   5.534   3.889   9.143  0.8114  1.3548  1.0396
  349MOL0     H47061   5.657   3.842   9.026 -0.8070 -1.1442  0.5181
  349MOL0     H47062   5.787   3.747   9.225 -0.4622  1.4653 -1.5600
  349MOL0     H47063   5.681   3.821   9.333  1.1235  1.6663 -0.4177
  349MOL0     H47064   5.636   3.587   9.339 -1.8787  1.6722  1.6343
  349MOL0     H47065   5.638   3.556   9.173  0.4841 -1.7219  1.7403
  349MOL0     H47066   5.408   3.640   9.459 -0.6731 -1.4527  0.6230
  349MOL0     H47067   5.057   3.540   9.321 -2.0101  0.2989  1.1273
  349MOL0     H47068   5.145   3.538   9.469  1.5367  1.7553  1.3918
  349MOL0     H47069   4.979   3.764   9.337  0.1507  1.5194  1.5143
  349MOL0     H47070   5.114   3.813   9.435 -0.6616  0.8063  0.7130
  349MOL0     H47071   5.040   3.697   9.628  0.3700 -1.5666 -0.8144
  349MOL0     H47072   4.911   3.615   9.542 -1.8229  1.1876  1.9905
  349MOL0     H47073   4.941   3.917   9.537 -1.3550  0.8875 -2.6193
  349MOL0     H47074   4.868   3.842   9.670 -2.3099 -0.5675 -0.5869
  349MOL0     H47075   4.521   3.804   9.393 -0.9062 -0.1148  1.5018
  349MOL0     H47076   4.313   3.737   9.369  1.4032  2.2172  2.6220
  349MOL0     H47077   4.235   3.598   9.451 -4.4705  1.6046  2.6889
  349MOL0     H47078   4.247   3.747   9.538  1.4124 -2.0089  2.6348
  349MOL0     H47079   4.077   3.445   9.559  2.3187 -0.2947 -1.8721
  349MOL0     H47080   3.862   3.314   9.631  0.2897  1.5191  1.9566
  349MOL0     H47081   3.801   3.206   9.888  0.8031  0.8576 -0.3317
  349MOL0     H47082   3.684   3.127   9.785  1.3613 -0.3825 -0.8621
  349MOL0     H47083   3.845   2.913   9.905 -1.0745 -0.8266  2.9925
  349MOL0     H47084   3.811   3.015  10.034  1.7292 -1.4015 -0.1720
  349MOL0     H47085   3.608   2.901   9.844 -3.0478  0.5302  0.1688
  349MOL0     H47086   3.567   3.034   9.942 -1.7515 -0.5821 -2.1380
  349MOL0     H47087   3.666   2.778  10.066  0.2919  0.4644  3.7469
  349MOL0     H47088   3.603   2.915  10.151 -3.0427 -1.5265  1.4179
  349MOL0     H47089   3.382   2.878  10.054 -2.6161 -1.4226  1.0434
  349MOL0     H47090   3.453   2.741  10.139  3.6939 -0.8903 -1.5469
  349MOL0     H47091   3.397   2.763   9.842 -0.5417  0.0412  0.1049
  349MOL0     H47092   3.490   2.627   9.919  0.0767 -0.1224 -0.8915
  349MOL0     H47093   3.194   2.711   9.961 -0.5578 -0.8026 -1.7091
  349MOL0     H47094   3.267   2.573  10.049  1.4038 -3.0093 -1.2487
  349MOL0     H47095   3.344   2.475   9.827  0.9672  1.5025 -0.8606
  349MOL0     H47096   3.227   2.585   9.760  0.5856 -0.1402  0.6240
  349MOL0     H47097   4.116   3.017   9.800 -1.7712 -0.0623  1.3809
  349MOL0     H47098   4.318   3.178   9.778  2.3151  1.9416 -4.8489
  349MOL0     H47099   4.585   3.543   9.803 -1.9436 -1.2022 -0.2347
  349MOL0     H47100   4.763   3.659   9.712 -1.6143  0.3568  2.4443
  349MOL0     H47101   5.644   4.662   9.269 -1.0258 -1.4750 -1.9757
  349MOL0     H47102   5.596   4.908   9.287 -1.8020  0.4348 -0.3659
  349MOL0     H47103   5.699   5.360   9.241 -3.6163  1.8919  1.2464
  349MOL0     H47104   5.672   5.602   9.207  0.7201 -1.2611  1.4781
  349MOL0     H47105   5.565   5.885   8.874 -1.9645  0.8252  0.5129
  349MOL0     H47106   5.554   5.739   8.790  1.6111 -3.1977  1.5669
  349MOL0     H47107   5.370   5.852   9.015 -3.1903  0.0604  0.1696
  349MOL0     H47108   5.343   5.691   8.944  2.0827 -1.5772 -2.3158
  349MOL0     H47109   5.338   5.817   8.710  0.8745  1.2836 -0.5500
  349MOL0     H47110   5.314   5.961   8.819  1.1091  0.1132  1.4378
  349MOL0     H47111   5.104   5.740   8.833  0.5797 -0.8367 -0.0062
  349MOL0     H47112   5.100   5.882   8.733  1.3735 -2.5353 -1.4119
  349MOL0     H47113   4.978   5.994   9.121 -2.4713  2.9765 -1.9797
  349MOL0     H47114   5.548   5.520   8.808 -0.8141 -0.6414 -0.0850
  349MOL0     H47115   5.547   5.296   8.841 -3.1708  2.3484 -2.3345
  350MOL0     O47116   5.684   3.313  10.762  0.2643 -0.0922  0.8483
  350MOL0     C47117   5.652   3.385  10.665 -0.3044 -0.6025 -0.8886
  350MOL0     O47118   5.533   3.381  10.601  0.2992  0.1069  0.1223
  350MOL0     C47119   5.418   3.318  10.637 -0.4507 -0.2131  0.3071
  350MOL0     C47120   5.320   3.310  10.535 -0.0596  0.2705 -0.1671
  350MOL0     C47121   5.192   3.244  10.559  0.2365 -0.1287  0.5191
  350MOL0     C47122   5.169   3.187  10.680 -0.0246  0.4965  0.6489
  350MOL0     O47123   5.039   3.142  10.697 -0.0907  0.4869 -0.2938
  350MOL0     C47124   5.008   3.039  10.791 -0.0876  0.2051  0.7144
  350MOL0     C47125   4.963   3.084  10.927 -0.3081  0.3936  0.1663
  350MOL0     C47126   4.882   3.218  10.915 -0.3177  0.0237 -0.0667
  350MOL0     C47127   4.732   3.191  10.866 -0.8888  0.0876 -0.2976
  350MOL0     C47128   4.650   3.316  10.849  0.2349 -0.4525  0.4837
  350MOL0     C47129   4.619   3.399  10.980 -0.0234 -0.0501  0.1070
  350MOL0     C47130   4.554   3.541  10.954 -0.0572 -0.3968  0.8428
  350MOL0     C47131   4.649   3.640  10.890  0.0639  0.5154 -0.0837
  350MOL0     N47132   4.611   3.776  10.902  0.3676  0.2338 -0.8752
  350MOL0     C47133   4.626   3.846  11.015  0.3170 -1.4439  1.3765
  350MOL0     C47134   4.609   3.972  10.968 -0.6890 -0.2018 -0.3142
  350MOL0     C47135   4.611   4.093  11.059 -0.1107 -0.5017 -0.0806
  350MOL0     C47136   4.718   4.199  11.016 -0.1837  0.3717  0.3081
  350MOL0     C47137   4.693   4.342  11.088 -0.3441  0.6373 -0.3403
  350MOL0     C47138   4.819   4.387  11.164  0.9130 -0.4241 -0.0423
  350MOL0     O47139   4.935   4.400  11.077 -0.0792 -0.1344  0.3194
  350MOL0     C47140   5.017   4.513  11.077 -0.1303 -0.6329  0.5746
  350MOL0     C47141   5.033   4.605  11.189 -0.1994 -0.2489 -0.0685
  350MOL0     C47142   5.125   4.718  11.176 -0.3188  0.1312  0.1959
  350MOL0     C47143   5.129   4.805  11.310 -0.1577  0.5088  0.2373
  350MOL0     C47144   5.205   4.734  11.057 -0.1199 -0.0966 -0.4831
  350MOL0     C47145   5.308   4.840  11.029  0.3787 -0.2548 -0.2228
  350MOL0     O47146   5.384   4.837  10.913  0.3679 -0.4326  0.4289
  350MOL0     C47147   5.483   4.930  10.887 -0.0444  0.5432  0.3867
  350MOL0     C47148   5.456   5.036  10.800 -0.1552 -0.7198  0.4892
  350MOL0     C47149   5.556   5.122  10.771 -0.8258 -0.5590  1.0411
  350MOL0     C47150   5.674   5.130  10.842  0.8452 -0.0932  0.3089
  350MOL0     O47151   5.780   5.214  10.820 -0.0484  0.6292  0.0029
  350MOL0     C47152   5.824   5.211  10.684 -0.6087  0.4354 -0.4422
  350MOL0     C47153   5.933   5.325  10.668  1.0580  0.7697 -2.2892
  350MOL0     C47154   6.040   5.322  10.774  0.3947 -0.4534  0.5543
  350MOL0     C47155   6.175   5.321  10.703 -0.2657  0.6195  0.5101
  350MOL0     C47156   6.282   5.285  10.801  0.5212 -1.3704 -0.4692
  350MOL0     C47157   6.299   5.394  10.908  0.1436 -0.1014  0.3626
  350MOL0     C47158   6.412   5.362  11.009  0.1865 -1.0432  0.1172
  350MOL0     C47159   6.554   5.366  10.939  0.7247 -0.9298  0.3286
  350MOL0    Cl47160   6.657   5.321  11.071  0.4188 -0.0780  0.5779
  350MOL0     C47161   5.689   5.034  10.936 -0.7836  1.3124 -0.6014
  350MOL0     C47162   5.596   4.934  10.960  0.1909  0.4053  0.0876
  350MOL0     O47163   5.300   4.932  11.105 -0.4204  0.3556  0.3498
  350MOL0     C47164   5.184   4.642  10.945 -0.4092  0.0973 -0.7632
  350MOL0     C47165   5.093   4.537  10.961 -0.0154  0.5270  1.1390
  350MOL0     N47166   4.592   3.985  10.831  0.5472  0.8930 -0.5101
  350MOL0     N47167   4.598   3.861  10.791 -0.2548 -1.0934  0.0589
  350MOL0     C47168   5.269   3.177  10.766  0.1138  0.4634  0.8109
  350MOL0     C47169   5.397   3.240  10.754 -0.2869  0.3621 -0.0648
  350MOL0     C47170   5.743   3.490  10.620  0.0066  0.3054  1.1478
  350MOL0     C47171   5.855   3.512  10.687 -0.6723  0.0817  0.8927
  350MOL0     C47172   5.947   3.617  10.643 -0.4399  0.2782  0.0782
  350MOL0     C47173   5.917   3.688  10.527 -1.0000  0.3815 -0.0211
  350MOL0     O47174   5.983   3.793  10.478  0.1808 -0.0299 -0.0132
  350MOL0     C47175   6.099   3.841  10.550  0.0851 -0.0499 -0.2311
  350MOL0     C47176   6.231   3.762  10.534 -1.4488 -0.8670  1.1997
  350MOL0     C47177   6.353   3.857  10.485  0.2431 -0.5291  0.2948
  350MOL0     C47178   6.369   3.982  10.576 -1.1982 -0.3748 -0.7550
  350MOL0     C47179   6.509   4.030  10.594  0.1248 -1.1938  0.2861
  350MOL0     C47180   6.620   4.077  10.619  0.5093 -0.4314  0.0904
  350MOL0     C47181   5.808   3.657  10.456  0.8620  0.5457 -0.2807
  350MOL0     C47182   5.718   3.566  10.499 -0.6853  0.3786 -0.2905
  350MOL0     H47183   5.341   3.335  10.431 -0.3250  3.1038  0.3727
  350MOL0     H47184   5.117   3.243  10.480  1.1304  1.6274 -0.4389
  350MOL0     H47185   4.934   2.977  10.741  1.8903 -0.1878 -1.9346
  350MOL0     H47186   5.100   2.982  10.804  0.6064  1.3759  1.1730
  350MOL0     H47187   4.897   3.010  10.973 -0.7933  0.0580 -1.0122
  350MOL0     H47188   5.053   3.098  10.987  2.0588 -1.1135 -2.7227
  350MOL0     H47189   4.887   3.264  11.014  0.9229 -2.2325  1.0162
  350MOL0     H47190   4.918   3.290  10.840 -2.1236  0.7714 -0.2578
  350MOL0     H47191   4.735   3.137  10.770  3.4580 -0.6666  0.0465
  350MOL0     H47192   4.675   3.123  10.929 -0.7454 -0.3806 -0.6624
  350MOL0     H47193   4.706   3.369  10.771  1.8083 -0.1724  1.7581
  350MOL0     H47194   4.554   3.287  10.805  1.5499  0.0937 -3.1113
  350MOL0     H47195   4.556   3.337  11.044  0.8998 -4.6308 -2.9618
  350MOL0     H47196   4.720   3.404  11.021  1.9171 -0.5170 -4.0750
  350MOL0     H47197   4.462   3.535  10.895  0.7536 -0.4526 -0.4597
  350MOL0     H47198   4.523   3.577  11.053  0.3565  0.2451  0.7452
  350MOL0     H47199   4.644   3.615  10.783  0.1351 -0.4163  0.1170
  350MOL0     H47200   4.752   3.620  10.921  0.4318  0.9415 -0.9873
  350MOL0     H47201   4.635   3.821  11.121 -1.8395 -1.6492  1.5534
  350MOL0     H47202   4.514   4.143  11.065  0.8876  1.4536  0.6275
  350MOL0     H47203   4.636   4.065  11.162  0.5457  1.4428  0.3277
  350MOL0     H47204   4.705   4.209  10.907 -0.7852  1.0113  0.4352
  350MOL0     H47205   4.826   4.182  11.022  1.5058  7.6602 -0.6685
  350MOL0     H47206   4.609   4.334  11.157 -0.5622  2.0497 -0.4212
  350MOL0     H47207   4.683   4.419  11.010 -0.0811  0.7495 -0.2640
  350MOL0     H47208   4.842   4.305  11.233  1.9233  3.3013  4.5511
  350MOL0     H47209   4.792   4.469  11.230 -1.9235 -0.3767 -1.1076
  350MOL0     H47210   4.991   4.597  11.288  2.3036  0.6889  1.1554
  350MOL0     H47211   5.116   4.906  11.270 -1.1179 -0.2221 -1.3892
  350MOL0     H47212   5.058   4.788  11.391 -0.9336  2.5782  0.0522
  350MOL0     H47213   5.231   4.799  11.350 -0.2708 -0.7296  0.3734
  350MOL0     H47214   5.362   5.035  10.746 -0.8589 -2.7018  1.6411
  350MOL0     H47215   5.536   5.183  10.684  0.5025 -0.5773  0.7054
  350MOL0     H47216   5.875   5.117  10.660 -2.9158 -0.6332 -1.4143
  350MOL0     H47217   5.747   5.224  10.608  0.7005 -0.2207 -1.9411
  350MOL0     H47218   5.973   5.332  10.566  0.8974  1.5738 -2.3054
  350MOL0     H47219   5.872   5.415  10.681 -0.8670 -0.4970 -2.2144
  350MOL0     H47220   6.046   5.227  10.826 -0.8426 -0.9482 -0.1619
  350MOL0     H47221   6.031   5.401  10.850  1.5347 -0.4213  0.6642
  350MOL0     H47222   6.182   5.247  10.622 -2.3778  1.8235 -0.8555
  350MOL0     H47223   6.181   5.423  10.662  0.9787  1.2813  2.2317
  350MOL0     H47224   6.370   5.279  10.736  0.7249  1.1720 -0.5135
  350MOL0     H47225   6.269   5.183  10.840 -1.5719 -0.8167  0.4042
  350MOL0     H47226   6.330   5.478  10.846  0.1428 -2.0319 -2.4745
  350MOL0     H47227   6.200   5.394  10.954  0.7334 -1.4163  1.6885
  350MOL0     H47228   6.398   5.276  11.075  2.4567  1.1175  3.8153
  350MOL0     H47229   6.400   5.449  11.075 -2.3892 -0.9445 -0.3996
  350MOL0     H47230   6.581   5.459  10.888  0.3291 -0.7757  0.3965
  350MOL0     H47231   6.557   5.292  10.859  1.4114 -0.0472 -0.4938
  350MOL0     H47232   5.780   5.033  10.995 -0.2647  0.9496 -1.3989
  350MOL0     H47233   5.622   4.872  11.045 -0.2409  1.4551  1.0122
  350MOL0     H47234   5.255   4.635  10.863  0.2663 -1.1528 -0.0903
  350MOL0     H47235   5.089   4.452  10.893  1.6104 -0.4100  2.1567
  350MOL0     H47236   5.249   3.107  10.846 -1.6519 -0.0107  0.0172
  350MOL0     H47237   5.473   3.235  10.831 -1.6674  0.1478  1.3421
  350MOL0     H47238   5.875   3.447  10.771  2.2776  2.2880  2.1081
  350MOL0     H47239   6.042   3.641  10.688 -0.6887  1.9709 -0.2189
  350MOL0     H47240   6.112   3.940  10.506 -0.4270 -0.6061 -1.7168
  350MOL0     H47241   6.083   3.853  10.657 -2.1113 -0.1636 -0.4916
  350MOL0     H47242   6.223   3.691  10.450  0.9116  1.4036 -1.1411
  350MOL0     H47243   6.251   3.714  10.630  0.7650  0.9723  1.7301
  350MOL0     H47244   6.332   3.902  10.387 -0.1973 -0.6562  0.3317
  350MOL0     H47245   6.447   3.800  10.483  0.7834  0.3489 -1.0492
  350MOL0     H47246   6.329   3.962  10.676 -1.2546  0.2181 -0.6540
  350MOL0     H47247   6.307   4.065  10.540 -0.7509  0.3337  0.0943
  350MOL0     H47248   6.718   4.116  10.634  1.3788 -1.8491 -1.5576
  350MOL0     H47249   5.801   3.695  10.354  0.4539  3.0807  0.6205
  350MOL0     H47250   5.629   3.550  10.438 -0.0804  0.0319 -1.1141
  351MOL0     O47251   3.829   7.985   7.500 -0.4390  0.4917 -0.5199
  351MOL0     C47252   3.712   7.946   7.482  0.1689 -0.4552 -0.8602
  351MOL0     O47253   3.624   7.897   7.588 -0.7880 -0.0215 -0.3979
  351MOL0     C47254   3.640   7.926   7.719  0.2579  0.8712 -0.2317
  351MOL0     C47255   3.716   8.017   7.790  0.1911  1.0501 -0.1922
  351MOL0     C47256   3.703   8.046   7.922  0.0490  0.2308  0.1104
  351MOL0     C47257   3.595   7.987   7.989  0.2794  0.5105  0.0329
  351MOL0     O47258   3.576   8.022   8.120  0.3606 -0.2964  0.9871
  351MOL0     C47259   3.443   8.007   8.173 -1.3296 -0.5161 -0.1220
  351MOL0     C47260   3.407   8.125   8.265  0.5692  0.3087  0.2340
  351MOL0     C47261   3.292   8.073   8.364  0.0350  0.5544  0.4592
  351MOL0     C47262   3.231   8.182   8.452  0.1382 -0.4476  0.2683
  351MOL0     C47263   3.120   8.271   8.391  1.0065 -0.4613  0.0637
  351MOL0     C47264   3.096   8.385   8.489 -0.6113 -0.6309  0.3100
  351MOL0     C47265   3.005   8.356   8.608  0.1964  0.5905 -0.6705
  351MOL0     C47266   2.983   8.482   8.687  0.4656 -0.2327  0.8543
  351MOL0     N47267   2.888   8.454   8.793 -0.3098 -0.2521 -0.6494
  351MOL0     C47268   2.909   8.377   8.909  0.1731 -0.5213  1.0300
  351MOL0     C47269   2.803   8.403   8.991 -0.1670  0.4166 -0.4820
  351MOL0     C47270   2.796   8.331   9.117  0.7960 -0.0999  0.5194
  351MOL0     C47271   2.654   8.288   9.166  0.0463  0.3358 -0.5091
  351MOL0     C47272   2.593   8.398   9.260  0.9372  0.1722 -0.6058
  351MOL0     C47273   2.537   8.343   9.391  0.0083 -1.0625  0.5922
  351MOL0     O47274   2.641   8.302   9.484 -0.0106 -1.1328  0.3711
  351MOL0     C47275   2.608   8.277   9.614  0.4849  0.2507 -0.1104
  351MOL0     C47276   2.714   8.220   9.691  0.1359  0.1016  0.1846
  351MOL0     C47277   2.704   8.173   9.828  0.0750 -0.8090  0.5173
  351MOL0     C47278   2.830   8.121   9.896  0.0638 -0.0046  0.2837
  351MOL0     C47279   2.571   8.178   9.883 -0.1653 -0.2789  0.3948
  351MOL0     C47280   2.532   8.121  10.011  0.1606  0.4331  0.3610
  351MOL0     O47281   2.399   8.125  10.042  0.4597 -0.3399 -1.1748
  351MOL0     C47282   2.360   8.094  10.169 -0.6342  0.6597 -0.3548
  351MOL0     C47283   2.364   7.964  10.212 -0.1702 -0.6089  0.1653
  351MOL0     C47284   2.345   7.928  10.338  0.2496 -0.5136 -0.9259
  351MOL0     C47285   2.300   8.028  10.436 -0.7444 -0.2505 -0.1995
  351MOL0     O47286   2.281   7.999  10.568 -0.2923 -0.6059 -0.4172
  351MOL0     C47287   2.199   7.883  10.586  0.4098 -0.3000  0.0410
  351MOL0     C47288   2.295   7.779  10.635 -0.2927  0.3520 -0.1419
  351MOL0     C47289   2.217   7.656  10.675  0.0380  0.5510  0.3864
  351MOL0     C47290   2.277   7.582  10.794 -0.6683 -0.2194 -1.0009
  351MOL0     C47291   2.207   7.456  10.831 -0.4436  0.0994  0.1176
  351MOL0     C47292   2.074   7.475  10.907 -0.3127  0.2800  0.8857
  351MOL0     C47293   2.095   7.544  11.042  0.1464  0.2862  0.8079
  351MOL0     C47294   2.209   7.482  11.134 -0.0373  0.5981 -0.0306
  351MOL0    Cl47295   2.209   7.302  11.129  0.1889 -0.3248  0.5312
  351MOL0     C47296   2.314   8.161  10.395  0.3653  0.6202  0.0860
  351MOL0     C47297   2.325   8.204  10.259  0.5036 -0.3041 -0.6509
  351MOL0     O47298   2.622   8.081  10.085 -0.1802 -0.6135 -0.2024
  351MOL0     C47299   2.473   8.235   9.800 -0.1000  0.2119 -0.2742
  351MOL0     C47300   2.482   8.283   9.670  0.2398  0.5950  0.0697
  351MOL0     N47301   2.721   8.497   8.935 -0.3938  0.6092  0.2437
  351MOL0     N47302   2.776   8.538   8.830 -0.0146  1.0688  1.0578
  351MOL0     C47303   3.535   7.872   7.935  0.0739 -0.6134  0.1043
  351MOL0     C47304   3.557   7.841   7.800  0.2124 -0.8198 -0.1396
  351MOL0     C47305   3.662   7.932   7.350  0.0272 -0.5513 -0.4454
  351MOL0     C47306   3.752   7.874   7.259  0.9168  0.5017  0.2359
  351MOL0     C47307   3.728   7.862   7.116 -0.0287 -0.4733 -1.2081
  351MOL0     C47308   3.594   7.891   7.070  0.2741  0.9962  0.3773
  351MOL0     O47309   3.553   7.885   6.940 -0.1867 -0.4500 -0.0162
  351MOL0     C47310   3.649   7.896   6.835  0.3193 -0.9436  0.2863
  351MOL0     C47311   3.581   7.878   6.695 -0.0226 -0.9493  0.2329
  351MOL0     C47312   3.520   7.732   6.687 -0.0928 -0.2728 -0.4358
  351MOL0     C47313   3.476   7.702   6.542 -0.0871 -0.0700 -1.2329
  351MOL0     C47314   3.591   7.675   6.463 -0.6517 -0.1325 -0.1693
  351MOL0     C47315   3.685   7.655   6.393  1.1755  0.1933 -0.2552
  351MOL0     C47316   3.501   7.941   7.158 -0.5883 -0.5816  0.0196
  351MOL0     C47317   3.536   7.963   7.297  0.2130 -1.0956  0.3795
  351MOL0     H47318   3.782   8.076   7.726  0.8177  2.7977  1.9518
  351MOL0     H47319   3.759   8.125   7.971 -3.9144  2.9117  0.7809
  351MOL0     H47320   3.358   7.995   8.105 -3.0104  0.9190  1.6002
  351MOL0     H47321   3.455   7.920   8.238  1.5759 -0.5943 -0.6695
  351MOL0     H47322   3.491   8.162   8.325 -0.6170  2.0770  0.8672
  351MOL0     H47323   3.373   8.209   8.203  0.6540  0.1205 -0.0699
  351MOL0     H47324   3.216   8.015   8.311 -0.8942 -0.4890  2.8138
  351MOL0     H47325   3.339   7.994   8.423 -3.5174 -2.1805 -0.0370
  351MOL0     H47326   3.197   8.148   8.551 -0.2090  0.7773  0.5862
  351MOL0     H47327   3.319   8.244   8.472  2.2459 -1.9763 -3.2976
  351MOL0     H47328   3.177   8.309   8.306 -2.2458  1.4918 -1.4119
  351MOL0     H47329   3.036   8.218   8.346  0.6730 -0.2420  0.4236
  351MOL0     H47330   3.188   8.432   8.526 -1.6929  2.6319 -0.7864
  351MOL0     H47331   3.031   8.459   8.443  1.0809  1.2576  0.7974
  351MOL0     H47332   2.908   8.316   8.577 -1.1392  1.0100  2.5567
  351MOL0     H47333   3.050   8.286   8.678  0.0651  3.5128  2.6239
  351MOL0     H47334   2.949   8.568   8.629  0.9691 -1.8211 -2.0163
  351MOL0     H47335   3.077   8.516   8.733  1.1418  1.9997 -1.9005
  351MOL0     H47336   2.992   8.309   8.929 -1.0588 -2.8026 -0.9637
  351MOL0     H47337   2.854   8.239   9.101 -0.4085 -1.2368  2.2924
  351MOL0     H47338   2.850   8.389   9.192  1.2904 -1.1709  1.0263
  351MOL0     H47339   2.669   8.194   9.220  3.8204  0.1977 -1.5237
  351MOL0     H47340   2.590   8.260   9.082  0.2227 -1.9904  0.0616
  351MOL0     H47341   2.512   8.437   9.198 -1.2161 -3.9023 -0.7421
  351MOL0     H47342   2.673   8.471   9.277 -0.7891  1.4186  3.4431
  351MOL0     H47343   2.464   8.263   9.378 -0.4171 -1.5072  4.4921
  351MOL0     H47344   2.479   8.428   9.428  3.4685  2.8953 -2.1771
  351MOL0     H47345   2.811   8.206   9.642 -0.5790 -1.1828 -0.9383
  351MOL0     H47346   2.915   8.106   9.829 -0.7426 -0.4309 -0.6568
  351MOL0     H47347   2.855   8.199   9.970 -1.2626  2.2248 -1.4764
  351MOL0     H47348   2.809   8.025   9.943 -1.1440 -1.0060 -2.1650
  351MOL0     H47349   2.404   7.889  10.144  1.9422 -1.3009  2.0388
  351MOL0     H47350   2.363   7.829  10.377  0.4416  0.2292  1.0106
  351MOL0     H47351   2.134   7.901  10.673 -0.5722  2.4662 -1.1622
  351MOL0     H47352   2.154   7.851  10.492  1.3026  0.5884 -0.7147
  351MOL0     H47353   2.367   7.759  10.555  1.8996  3.3852  0.9067
  351MOL0     H47354   2.350   7.817  10.721  0.2646  1.2298 -0.8690
  351MOL0     H47355   2.219   7.587  10.590 -0.2177  1.9825 -0.8202
  351MOL0     H47356   2.115   7.684  10.703  0.8116  3.7735  0.3750
  351MOL0     H47357   2.382   7.569  10.765 -0.1524 -1.2499  1.1695
  351MOL0     H47358   2.283   7.657  10.873 -0.6680 -0.4010 -0.8277
  351MOL0     H47359   2.281   7.398  10.888  0.2120 -0.5604 -1.3381
  351MOL0     H47360   2.193   7.397  10.740 -2.6472  1.2865 -0.3804
  351MOL0     H47361   2.001   7.523  10.842  0.3402  0.0466 -0.0401
  351MOL0     H47362   2.042   7.371  10.920 -2.0860  0.7549  0.5295
  351MOL0     H47363   2.006   7.535  11.106  0.1225  0.2510  0.7694
  351MOL0     H47364   2.127   7.648  11.039 -0.2904  0.3924 -0.7289
  351MOL0     H47365   2.188   7.531  11.229 -0.1849  2.4711 -0.9725
  351MOL0     H47366   2.308   7.513  11.098 -0.1352 -0.8570 -1.6883
  351MOL0     H47367   2.294   8.229  10.477 -0.2617 -0.2250  0.6458
  351MOL0     H47368   2.315   8.307  10.227 -0.5313 -0.2367 -0.1767
  351MOL0     H47369   2.369   8.228   9.831  0.2202 -1.8488  0.5312
  351MOL0     H47370   2.400   8.328   9.615 -0.9285  0.6223  1.7622
  351MOL0     H47371   3.466   7.811   7.994  0.2087  0.6994  1.6794
  351MOL0     H47372   3.488   7.777   7.745 -1.4779  1.6004 -1.0427
  351MOL0     H47373   3.849   7.838   7.293  0.4195 -0.3485  0.7890
  351MOL0     H47374   3.817   7.832   7.061 -0.3535 -1.3081 -1.2834
  351MOL0     H47375   3.698   7.993   6.840  0.4971 -1.1049  3.4552
  351MOL0     H47376   3.725   7.817   6.842  1.2161 -0.1828 -0.5890
  351MOL0     H47377   3.661   7.891   6.621 -1.1099  0.9027 -0.6524
  351MOL0     H47378   3.498   7.947   6.682  0.2524 -0.7450 -0.4704
  351MOL0     H47379   3.433   7.731   6.754  0.8133 -2.6158  0.8307
  351MOL0     H47380   3.591   7.659   6.726  1.6693  1.3846 -0.3716
  351MOL0     H47381   3.415   7.788   6.513  0.7977  0.3209 -1.9983
  351MOL0     H47382   3.410   7.616   6.530 -1.8810  1.2206 -1.0034
  351MOL0     H47383   3.770   7.655   6.327 -1.2372  2.5101 -3.7380
  351MOL0     H47384   3.399   7.967   7.132  0.0068  1.2190 -0.6711
  351MOL0     H47385   3.459   8.012   7.356  1.2890  2.2311 -0.7900
  352MOL0     O47386   9.717   9.107   4.050 -0.1459 -0.1621 -0.5627
  352MOL0     C47387   9.616   9.160   3.997 -0.0143  1.1465 -0.1231
  352MOL0     O47388   9.535   9.104   3.905  0.1782 -0.8310 -0.8712
  352MOL0     C47389   9.542   8.979   3.858  0.5060  0.1461 -0.3158
  352MOL0     C47390   9.661   8.918   3.841 -0.3653 -0.2056 -0.6738
  352MOL0     C47391   9.669   8.793   3.768  0.3970 -0.1256 -0.7032
  352MOL0     C47392   9.552   8.729   3.720 -0.5945 -0.6235 -0.2401
  352MOL0     O47393   9.572   8.602   3.672 -0.1460  0.0756 -0.1779
  352MOL0     C47394   9.473   8.518   3.715 -0.1992  0.3522 -0.3449
  352MOL0     C47395   9.499   8.375   3.672 -0.5169 -1.2194 -0.3744
  352MOL0     C47396   9.529   8.350   3.515  0.6045  0.0974  1.2874
  352MOL0     C47397   9.516   8.197   3.478  0.3359 -0.2066  0.4465
  352MOL0     C47398   9.365   8.155   3.460 -0.2180 -0.9755 -0.1976
  352MOL0     C47399   9.343   8.031   3.381 -0.5375  0.5570 -0.0894
  352MOL0     C47400   9.202   7.966   3.412  0.7310  0.0521 -0.6500
  352MOL0     C47401   9.191   7.829   3.339 -0.2022 -0.0891 -0.5151
  352MOL0     N47402   9.144   7.842   3.201  0.5601  0.1713 -0.7504
  352MOL0     C47403   9.095   7.955   3.133 -0.2936 -1.0100  0.7743
  352MOL0     C47404   9.075   7.915   3.006 -0.2311  0.4880 -0.0454
  352MOL0     C47405   9.030   8.013   2.902  0.1837 -0.6824  0.5840
  352MOL0     C47406   9.147   8.089   2.840 -0.7953  0.0548  0.1320
  352MOL0     C47407   9.104   8.153   2.699  0.0296 -0.3178 -0.3558
  352MOL0     C47408   9.210   8.245   2.646 -0.2173 -0.1955 -0.1256
  352MOL0     O47409   9.181   8.290   2.512  0.4564 -0.5503 -0.2876
  352MOL0     C47410   9.237   8.404   2.465 -1.0079 -0.6652  0.1687
  352MOL0     C47411   9.160   8.481   2.383 -0.0760 -0.5911 -0.2604
  352MOL0     C47412   9.197   8.592   2.316  0.6429 -0.6649 -0.4357
  352MOL0     C47413   9.094   8.655   2.226  0.5211  0.5665 -0.7656
  352MOL0     C47414   9.333   8.639   2.345  0.2207 -0.3610 -0.2192
  352MOL0     C47415   9.387   8.771   2.292  0.6331  0.1326  0.7521
  352MOL0     O47416   9.523   8.768   2.297  0.0364 -0.4768  1.2729
  352MOL0     C47417   9.604   8.876   2.285 -1.1161 -0.3364 -0.7089
  352MOL0     C47418   9.725   8.868   2.221  0.4384  0.4839 -1.0805
  352MOL0     C47419   9.815   8.970   2.232 -0.1457 -0.6287  0.4200
  352MOL0     C47420   9.786   9.085   2.308 -0.0395 -0.0618 -0.5252
  352MOL0     O47421   9.877   9.183   2.336  0.4136  0.0211 -0.6016
  352MOL0     C47422   9.963   9.237   2.234 -0.3225 -0.7980  0.3608
  352MOL0     C47423  10.046   9.328   2.322  0.4759  0.1537 -1.2651
  352MOL0     C47424  10.176   9.369   2.243  0.4486  0.9482  0.1647
  352MOL0     C47425  10.284   9.399   2.343 -0.4896  0.0186 -0.4471
  352MOL0     C47426  10.412   9.446   2.274  0.6343 -0.2331  0.3041
  352MOL0     C47427  10.535   9.442   2.367 -0.3765 -0.1546  0.0029
  352MOL0     C47428  10.661   9.449   2.276 -0.9073  1.0314  0.1922
  352MOL0     C47429  10.792   9.392   2.352 -0.1302 -0.4023 -0.4505
  352MOL0    Cl47430  10.926   9.448   2.254  0.4633  0.1108  0.1468
  352MOL0     C47431   9.665   9.091   2.387  0.4561 -0.3176  0.1629
  352MOL0     C47432   9.571   8.987   2.370  0.4318  0.3714 -0.0819
  352MOL0     O47433   9.320   8.863   2.239 -0.3332 -0.2125 -0.3468
  352MOL0     C47434   9.413   8.560   2.433 -0.5387 -0.3892  0.0852
  352MOL0     C47435   9.363   8.446   2.498 -0.0894  0.2297  0.6685
  352MOL0     N47436   9.086   7.773   3.001 -0.2291 -0.2734  0.4484
  352MOL0     N47437   9.140   7.732   3.114 -0.0589 -1.3210 -0.1490
  352MOL0     C47438   9.427   8.788   3.750 -0.0837  0.6030 -0.8230
  352MOL0     C47439   9.421   8.911   3.817 -0.0342 -0.2637 -0.4965
  352MOL0     C47440   9.588   9.298   4.039 -0.3780  0.6792  0.1598
  352MOL0     C47441   9.460   9.361   4.020  0.2587 -0.2361 -0.4515
  352MOL0     C47442   9.444   9.500   4.036 -0.4004  0.1027 -0.3271
  352MOL0     C47443   9.554   9.568   4.096 -0.7271  0.2054  0.6484
  352MOL0     O47444   9.537   9.690   4.142 -0.3434  0.2902  0.1472
  352MOL0     C47445   9.419   9.764   4.106 -0.1268  0.4663 -0.3416
  352MOL0     C47446   9.430   9.908   4.151  0.0867 -0.0218  0.4287
  352MOL0     C47447   9.565   9.966   4.109  0.0174 -0.8223 -0.2040
  352MOL0     C47448   9.562  10.117   4.131 -0.7084 -0.3680 -1.1207
  352MOL0     C47449   9.638  10.199   4.039  0.6458  0.3227 -0.5747
  352MOL0     C47450   9.705  10.256   3.965 -0.1564 -0.5765 -0.1723
  352MOL0     C47451   9.673   9.510   4.128  0.0405 -0.1425 -0.4047
  352MOL0     C47452   9.687   9.372   4.105 -0.0888  1.0788  0.3852
  352MOL0     H47453   9.751   8.977   3.851 -0.4218 -0.1836 -0.2824
  352MOL0     H47454   9.768   8.765   3.733  1.6806  2.2564  0.6981
  352MOL0     H47455   9.457   8.519   3.823 -0.4596  0.2152 -0.3825
  352MOL0     H47456   9.381   8.546   3.664 -0.6175  5.6057  2.5741
  352MOL0     H47457   9.572   8.330   3.739 -0.7690 -0.4562  0.4251
  352MOL0     H47458   9.408   8.320   3.700 -0.0762 -0.2273  3.5140
  352MOL0     H47459   9.446   8.396   3.461  2.7626 -0.4588 -2.8738
  352MOL0     H47460   9.617   8.402   3.479 -2.5395  2.9221 -3.3581
  352MOL0     H47461   9.570   8.193   3.382  0.5707 -1.2407  0.6143
  352MOL0     H47462   9.569   8.129   3.544  5.1891 -0.2206 -2.8560
  352MOL0     H47463   9.331   8.136   3.562  2.0871  0.7136  0.9875
  352MOL0     H47464   9.305   8.237   3.420  1.4518 -1.3789 -3.8723
  352MOL0     H47465   9.345   8.060   3.276  1.9083 -0.9881 -0.5577
  352MOL0     H47466   9.421   7.954   3.379 -1.2751 -0.1811 -1.6966
  352MOL0     H47467   9.212   7.943   3.518  3.8652 -1.3836 -1.1381
  352MOL0     H47468   9.121   8.034   3.384  0.2287  0.2577  1.1886
  352MOL0     H47469   9.117   7.767   3.391  0.9276 -0.5499  0.5804
  352MOL0     H47470   9.291   7.788   3.326 -0.7898 -2.0309  0.6135
  352MOL0     H47471   9.079   8.058   3.164  2.4209  0.6141 -2.6462
  352MOL0     H47472   8.981   7.970   2.814  1.1677  3.5956 -2.3866
  352MOL0     H47473   8.957   8.086   2.940  2.9920  3.3946 -1.1214
  352MOL0     H47474   9.231   8.020   2.828 -0.9087  0.2081 -2.0922
  352MOL0     H47475   9.175   8.171   2.907 -3.4251  3.3046 -2.3330
  352MOL0     H47476   9.015   8.217   2.701 -2.4582 -3.6021  0.9690
  352MOL0     H47477   9.062   8.081   2.628 -1.9515  1.0305 -0.6409
  352MOL0     H47478   9.305   8.190   2.640 -0.6996 -1.4494  2.4686
  352MOL0     H47479   9.218   8.332   2.712  1.9319 -0.0604 -0.4709
  352MOL0     H47480   9.070   8.439   2.339 -1.1815 -0.3551  1.6643
  352MOL0     H47481   9.046   8.740   2.276 -1.1673 -0.4976 -0.5081
  352MOL0     H47482   9.146   8.684   2.134 -1.5193 -1.4588 -2.6609
  352MOL0     H47483   9.018   8.583   2.197 -0.3598  0.1886  2.1572
  352MOL0     H47484   9.764   8.782   2.168  0.5233  0.0565 -0.3429
  352MOL0     H47485   9.910   8.967   2.180 -1.2431  1.7860 -1.9726
  352MOL0     H47486  10.005   9.158   2.171 -3.0354 -3.3154  1.4534
  352MOL0     H47487   9.910   9.310   2.174  1.4686  1.2435  1.1303
  352MOL0     H47488   9.987   9.413   2.357 -1.4126 -2.2103  1.9493
  352MOL0     H47489  10.064   9.271   2.414 -0.4918  0.7428 -0.6940
  352MOL0     H47490  10.173   9.458   2.180  0.6165  0.9828  0.2045
  352MOL0     H47491  10.209   9.285   2.181  3.4158  1.5346  0.7746
  352MOL0     H47492  10.250   9.466   2.423  1.5922 -1.8312  2.1389
  352MOL0     H47493  10.301   9.302   2.390 -0.4797 -2.1362 -4.5036
  352MOL0     H47494  10.390   9.544   2.231  1.9323 -1.1225 -2.7199
  352MOL0     H47495  10.438   9.384   2.187  2.1910  1.7189 -0.6999
  352MOL0     H47496  10.536   9.535   2.425  1.4733  0.2328 -0.6104
  352MOL0     H47497  10.535   9.353   2.432 -0.3067 -0.3132 -0.2127
  352MOL0     H47498  10.687   9.552   2.253  0.4491  0.8793  0.9549
  352MOL0     H47499  10.643   9.388   2.187  1.4249  2.1831 -1.1636
  352MOL0     H47500  10.786   9.284   2.370  0.2527 -0.1859  1.1656
  352MOL0     H47501  10.797   9.453   2.443 -1.8854  0.9231 -1.1853
  352MOL0     H47502   9.625   9.169   2.451 -0.5884  1.7541 -2.8013
  352MOL0     H47503   9.475   8.989   2.421 -1.0168  0.1894 -2.6590
  352MOL0     H47504   9.513   8.584   2.469 -0.6894 -1.4929  1.3035
  352MOL0     H47505   9.418   8.400   2.580  0.0901 -1.0797 -0.1489
  352MOL0     H47506   9.329   8.748   3.728 -1.6685  3.8988 -0.3902
  352MOL0     H47507   9.322   8.952   3.834  0.5210  1.8546 -1.9149
  352MOL0     H47508   9.381   9.308   3.967 -1.0838  1.7947 -0.6140
  352MOL0     H47509   9.353   9.556   4.016 -0.1559  1.2189  1.4792
  352MOL0     H47510   9.394   9.755   3.999 -1.4972 -1.2549  0.0654
  352MOL0     H47511   9.335   9.708   4.150  1.0201 -0.9678  0.1082
  352MOL0     H47512   9.414   9.915   4.259  4.1972 -0.2351  1.2016
  352MOL0     H47513   9.350   9.962   4.101  1.7112  0.2472 -2.0490
  352MOL0     H47514   9.588   9.947   4.004 -1.7566  0.3032 -0.8317
  352MOL0     H47515   9.640   9.926   4.178  2.6128  2.8243 -0.5966
  352MOL0     H47516   9.592  10.137   4.234 -0.3890 -2.4617 -0.7692
  352MOL0     H47517   9.457  10.147   4.124 -0.9180  0.8987  3.8856
  352MOL0     H47518   9.765  10.306   3.892 -1.7355 -0.7458 -1.6560
  352MOL0     H47519   9.746   9.574   4.175 -1.2434  0.3738  0.9466
  352MOL0     H47520   9.785   9.329   4.125 -1.3588 -2.1203  0.2883
  353MOL0     O47521   3.665   1.399   3.060 -0.2538 -0.1459  0.3451
  353MOL0     C47522   3.671   1.300   3.127 -0.2239  0.4334 -0.5821
  353MOL0     O47523   3.580   1.258   3.213 -0.8137  0.3491  0.5591
  353MOL0     C47524   3.473   1.334   3.246  0.0950  0.7134 -0.0867
  353MOL0     C47525   3.353   1.265   3.263  0.4284  0.0014  0.2662
  353MOL0     C47526   3.234   1.331   3.305  0.4913 -0.6438 -0.3950
  353MOL0     C47527   3.239   1.470   3.334  1.6089  0.3870 -0.1906
  353MOL0     O47528   3.133   1.554   3.360 -0.1390  0.0675  0.2885
  353MOL0     C47529   2.997   1.495   3.361  0.6793 -0.8804 -0.8341
  353MOL0     C47530   2.897   1.603   3.385 -0.8566  0.2692 -0.2094
  353MOL0     C47531   2.915   1.687   3.519  0.4370 -0.1140  0.6751
  353MOL0     C47532   2.811   1.641   3.630 -0.5082 -0.6135 -0.7466
  353MOL0     C47533   2.846   1.681   3.778  1.0319 -0.4063  0.9489
  353MOL0     C47534   2.742   1.636   3.880 -1.2956 -0.8225  0.4688
  353MOL0     C47535   2.775   1.686   4.026  0.1233 -0.1017  0.3585
  353MOL0     C47536   2.650   1.647   4.115  1.0969 -0.0165 -0.3085
  353MOL0     N47537   2.653   1.509   4.168 -0.3398 -0.4353 -0.6628
  353MOL0     C47538   2.678   1.380   4.108  0.5200 -0.2028 -0.1811
  353MOL0     C47539   2.708   1.290   4.199 -0.2956 -0.3423  0.2665
  353MOL0     C47540   2.744   1.146   4.172 -0.8493  0.0888  0.3929
  353MOL0     C47541   2.642   1.055   4.225  0.2658 -0.9092 -0.3163
  353MOL0     C47542   2.676   0.909   4.196 -0.0181  0.3958  0.6171
  353MOL0     C47543   2.561   0.819   4.233 -0.9541 -0.4474  0.3358
  353MOL0     O47544   2.537   0.819   4.374  0.1232  0.4019 -0.1846
  353MOL0     C47545   2.453   0.719   4.424  0.6274 -0.3203  0.3213
  353MOL0     C47546   2.467   0.704   4.565 -0.3981 -0.0869 -0.0641
  353MOL0     C47547   2.399   0.602   4.636 -0.2618 -0.6731 -0.6194
  353MOL0     C47548   2.402   0.596   4.787 -0.1680 -0.0425 -0.5093
  353MOL0     C47549   2.314   0.510   4.567  0.7029 -0.2588 -0.3146
  353MOL0     C47550   2.244   0.396   4.638  0.3607 -0.0611 -0.0058
  353MOL0     O47551   2.112   0.377   4.605 -0.0414  0.1164  0.3106
  353MOL0     C47552   2.052   0.280   4.675  0.4429 -0.3486  0.5536
  353MOL0     C47553   1.963   0.311   4.778 -0.6234 -0.9691 -0.3371
  353MOL0     C47554   1.903   0.195   4.843  0.1934 -1.2075  0.0262
  353MOL0     C47555   1.930   0.067   4.805 -1.0319  0.2408 -0.0595
  353MOL0     O47556   1.860  -0.040   4.855  0.0387  0.6590 -0.3075
  353MOL0     C47557   1.858  -0.039   5.002 -0.6299  1.0908  0.3627
  353MOL0     C47558   1.709  -0.032   5.058 -0.2411  0.5851 -0.3887
  353MOL0     C47559   1.611  -0.141   5.013  0.3294 -0.3799 -1.2979
  353MOL0     C47560   1.658  -0.289   5.023  1.1034 -0.0846  0.7805
  353MOL0     C47561   1.681  -0.331   5.164  0.5133  0.7438  0.1704
  353MOL0     C47562   1.758  -0.466   5.143  0.3236 -0.3003  1.0139
  353MOL0     C47563   1.661  -0.579   5.092 -0.4861  0.2688  0.0240
  353MOL0     C47564   1.740  -0.707   5.050 -0.8484 -0.6649  0.3391
  353MOL0    Cl47565   1.808  -0.777   5.195 -0.6203  0.2349 -0.2841
  353MOL0     C47566   2.009   0.045   4.698  0.2686 -0.1800  0.7480
  353MOL0     C47567   2.079   0.150   4.639 -0.0592  1.2804  0.3961
  353MOL0     O47568   2.314   0.319   4.710  1.3042  0.3913 -0.2888
  353MOL0     C47569   2.292   0.538   4.433 -1.1356 -0.4429  1.1053
  353MOL0     C47570   2.359   0.642   4.365 -1.8810 -0.0756 -0.4652
  353MOL0     N47571   2.684   1.357   4.320  0.5223  0.5125 -0.0762
  353MOL0     N47572   2.653   1.480   4.302 -0.6859  0.5276 -0.0419
  353MOL0     C47573   3.365   1.532   3.323  0.0732 -0.7000 -0.1226
  353MOL0     C47574   3.478   1.471   3.274 -0.1189 -0.7972 -0.4371
  353MOL0     C47575   3.791   1.213   3.113  0.2280 -1.1404  0.1269
  353MOL0     C47576   3.903   1.265   3.056 -0.9295 -0.2352  0.7273
  353MOL0     C47577   4.014   1.184   3.032  1.0263  0.1032  0.4997
  353MOL0     C47578   4.019   1.051   3.075 -0.2855  0.0373 -0.2557
  353MOL0     O47579   4.142   0.988   3.061  0.3001 -0.1764 -0.6538
  353MOL0     C47580   4.148   0.843   3.019  0.0307 -0.2350  0.1309
  353MOL0     C47581   4.266   0.816   2.916  0.3231  0.4166 -0.5375
  353MOL0     C47582   4.313   0.667   2.926  0.1476  0.2486 -0.0934
  353MOL0     C47583   4.214   0.558   2.872 -1.3966  0.0776  0.0210
  353MOL0     C47584   4.231   0.532   2.728  0.1506  0.5126 -0.3443
  353MOL0     C47585   4.224   0.509   2.604 -0.3904  0.7984 -1.2217
  353MOL0     C47586   3.903   0.995   3.125 -0.5525 -0.3091  0.3713
  353MOL0     C47587   3.791   1.075   3.145 -0.1880  0.4118 -0.3003
  353MOL0     H47588   3.350   1.157   3.252 -1.7947  0.1957 -1.8420
  353MOL0     H47589   3.144   1.272   3.321  0.7052 -1.1802 -1.0949
  353MOL0     H47590   2.984   1.444   3.265  0.2331  0.7507 -1.6889
  353MOL0     H47591   2.991   1.430   3.448  2.0800 -0.1605 -0.1734
  353MOL0     H47592   2.885   1.668   3.297 -1.0943  0.4853 -0.0217
  353MOL0     H47593   2.806   1.542   3.382 -0.5665 -0.1298 -2.5646
  353MOL0     H47594   3.019   1.683   3.554  1.1629  1.6659 -1.0786
  353MOL0     H47595   2.894   1.786   3.479 -0.9536 -0.1840  1.1706
  353MOL0     H47596   2.711   1.675   3.602 -0.5627  2.6735  2.6448
  353MOL0     H47597   2.804   1.532   3.632 -1.9616 -0.5302  0.4697
  353MOL0     H47598   2.938   1.629   3.807 -1.5017 -5.0839  1.6718
  353MOL0     H47599   2.873   1.787   3.772  3.1912 -1.0004 -1.5822
  353MOL0     H47600   2.647   1.680   3.850 -1.4250 -0.2687  1.6179
  353MOL0     H47601   2.729   1.527   3.881  2.6880 -1.4546 -0.4188
  353MOL0     H47602   2.871   1.644   4.058 -0.8006 -0.8804  2.2682
  353MOL0     H47603   2.784   1.795   4.014 -0.9363 -0.1915 -1.6275
  353MOL0     H47604   2.554   1.655   4.063  1.5004 -3.0938 -1.7759
  353MOL0     H47605   2.647   1.724   4.192 -0.1282  1.4689 -1.7541
  353MOL0     H47606   2.668   1.361   4.002  0.3515 -0.4717 -0.1156
  353MOL0     H47607   2.774   1.118   4.070 -1.1205 -1.0086  0.6044
  353MOL0     H47608   2.830   1.114   4.231 -0.7747 -0.3418  0.0538
  353MOL0     H47609   2.548   1.079   4.174 -0.9174  0.3281  2.2583
  353MOL0     H47610   2.635   1.059   4.334  1.4390 -1.4523 -0.2105
  353MOL0     H47611   2.768   0.880   4.248  0.6231  0.9140 -0.1974
  353MOL0     H47612   2.689   0.896   4.088  0.7171 -2.2761  0.9712
  353MOL0     H47613   2.597   0.719   4.208  0.9894  0.3823 -0.4509
  353MOL0     H47614   2.469   0.847   4.180  0.1003  1.8803 -0.4162
  353MOL0     H47615   2.528   0.778   4.616  1.7095 -0.8841 -1.3234
  353MOL0     H47616   2.449   0.683   4.833  0.6949 -0.9954  0.4928
  353MOL0     H47617   2.299   0.584   4.822  0.0185 -2.3417 -0.5475
  353MOL0     H47618   2.454   0.506   4.823 -2.5359 -2.0060 -1.6676
  353MOL0     H47619   1.946   0.410   4.819 -1.8479 -1.2860 -0.0414
  353MOL0     H47620   1.836   0.224   4.924  1.6006  0.2498  0.7116
  353MOL0     H47621   1.906  -0.130   5.039  3.1739  3.0313  0.7024
  353MOL0     H47622   1.919   0.042   5.043 -1.5972  1.2651  1.4890
  353MOL0     H47623   1.730  -0.038   5.166 -0.8881  2.3748 -0.1255
  353MOL0     H47624   1.662   0.067   5.056 -1.1957  0.1591  0.0569
  353MOL0     H47625   1.560  -0.118   4.919  0.0907 -1.5156 -1.4604
  353MOL0     H47626   1.534  -0.125   5.089  3.3704 -0.5285  2.0782
  353MOL0     H47627   1.581  -0.356   4.984  0.2731  0.6107  1.1948
  353MOL0     H47628   1.750  -0.293   4.964 -0.0642  0.6790 -1.1959
  353MOL0     H47629   1.593  -0.346   5.228  0.0134  1.0446 -0.4391
  353MOL0     H47630   1.743  -0.264   5.224  0.7190 -3.1773  4.9853
  353MOL0     H47631   1.834  -0.466   5.065 -0.2575  1.5199  0.4082
  353MOL0     H47632   1.794  -0.507   5.238  2.1033 -0.0662  0.4844
  353MOL0     H47633   1.614  -0.550   4.998 -1.7912  1.5234  1.0258
  353MOL0     H47634   1.582  -0.597   5.165  0.1629 -2.1070  0.2291
  353MOL0     H47635   1.814  -0.685   4.973  1.0663 -0.6899  2.0805
  353MOL0     H47636   1.670  -0.780   5.009  0.2489 -0.8340 -1.3382
  353MOL0     H47637   2.015  -0.053   4.653 -0.5885  0.1900 -0.2154
  353MOL0     H47638   2.151   0.122   4.562  0.1052 -0.3197  1.0828
  353MOL0     H47639   2.228   0.468   4.380 -1.4773  2.2059 -2.3505
  353MOL0     H47640   2.332   0.669   4.263 -4.1158  3.0707  0.8131
  353MOL0     H47641   3.351   1.639   3.341 -1.3005 -0.4045 -2.5565
  353MOL0     H47642   3.572   1.524   3.256 -0.7083  0.0783 -0.9880
  353MOL0     H47643   3.912   1.368   3.024 -1.2863  0.2703  2.1922
  353MOL0     H47644   4.095   1.216   2.968  0.2531  1.1128  0.0126
  353MOL0     H47645   4.168   0.791   3.113  0.8929 -0.1949 -0.0184
  353MOL0     H47646   4.059   0.797   2.975 -0.7196 -0.0069  1.3517
  353MOL0     H47647   4.348   0.883   2.940  2.5339 -1.3762 -2.6289
  353MOL0     H47648   4.245   0.840   2.812  0.1573 -2.8955 -1.3640
  353MOL0     H47649   4.333   0.638   3.030  2.9446 -0.5276 -0.7646
  353MOL0     H47650   4.409   0.657   2.873  0.0770 -2.7481  0.1706
  353MOL0     H47651   4.111   0.590   2.888 -1.1648  0.2879  1.1715
  353MOL0     H47652   4.240   0.468   2.929  2.0891  1.0223  0.2064
  353MOL0     H47653   4.200   0.497   2.500 -0.4586 -0.3866 -1.0916
  353MOL0     H47654   3.896   0.889   3.150 -0.3750 -0.5711 -0.6410
  353MOL0     H47655   3.703   1.027   3.186  1.6326 -1.8119  1.2968
  354MOL0     O47656  10.931   3.051   8.989  0.4093  0.2817  0.3603
  354MOL0     C47657  10.906   2.930   8.992 -1.0053  0.6317  0.2730
  354MOL0     O47658  10.781   2.882   8.993 -0.1763 -0.4656 -0.4934
  354MOL0     C47659  10.688   2.952   8.918  0.5243  0.3823  0.3813
  354MOL0     C47660  10.702   2.974   8.787  0.1445  0.9540  0.1691
  354MOL0     C47661  10.597   3.032   8.708 -0.8859 -0.4870 -0.5290
  354MOL0     C47662  10.474   3.069   8.773 -0.4700 -0.3880  0.2099
  354MOL0     O47663  10.373   3.103   8.689 -0.1241 -0.5685 -0.3024
  354MOL0     C47664  10.273   3.205   8.724  0.9223 -0.0757 -0.0142
  354MOL0     C47665  10.207   3.273   8.605  0.0653  0.1175  0.1632
  354MOL0     C47666  10.307   3.350   8.505  0.6423 -0.3718  0.1772
  354MOL0     C47667  10.232   3.418   8.385 -1.3650  0.6910 -0.4817
  354MOL0     C47668  10.333   3.456   8.277 -0.1295  0.8722  1.3690
  354MOL0     C47669  10.423   3.580   8.318  0.5355 -0.1440  0.0204
  354MOL0     C47670  10.514   3.635   8.213  0.5780 -0.3626  0.2938
  354MOL0     C47671  10.576   3.772   8.251  0.0615  0.4752 -0.7521
  354MOL0     N47672  10.656   3.821   8.139 -0.5648  0.1820 -0.5861
  354MOL0     C47673  10.605   3.909   8.049  0.3519  0.3905 -0.7766
  354MOL0     C47674  10.710   3.934   7.958  0.0543  0.1962 -0.9694
  354MOL0     C47675  10.696   4.028   7.843 -0.8016 -0.2295  0.4664
  354MOL0     C47676  10.581   3.992   7.749 -0.4892  0.7335  0.1349
  354MOL0     C47677  10.576   3.846   7.718 -0.0504 -0.1285  0.2896
  354MOL0     C47678  10.503   3.809   7.590  0.1939 -0.3702 -0.0200
  354MOL0     O47679  10.409   3.913   7.559 -0.1154  1.2535 -0.3612
  354MOL0     C47680  10.382   3.941   7.432 -0.7586  0.5200 -0.0807
  354MOL0     C47681  10.359   4.060   7.379  0.0532  0.0924 -0.6220
  354MOL0     C47682  10.319   4.078   7.247 -0.8963 -0.5603  0.1749
  354MOL0     C47683  10.271   4.214   7.212 -0.4129 -0.2313  1.3605
  354MOL0     C47684  10.328   3.973   7.151 -0.3114 -0.1946 -0.8810
  354MOL0     C47685  10.315   4.005   7.005  0.0632  0.0498 -0.5821
  354MOL0     O47686  10.264   3.903   6.938  0.7854  0.2643 -0.0676
  354MOL0     C47687  10.282   3.905   6.804 -0.1823 -0.0546  1.1661
  354MOL0     C47688  10.237   4.016   6.723 -0.2157  0.1867 -0.8807
  354MOL0     C47689  10.236   4.002   6.588  0.2980 -0.8344 -0.1219
  354MOL0     C47690  10.279   3.880   6.516  0.6845  1.1414 -0.2207
  354MOL0     O47691  10.268   3.845   6.385 -0.2976 -0.6394  0.3617
  354MOL0     C47692  10.262   3.945   6.276 -0.2911  0.1940 -0.4343
  354MOL0     C47693  10.405   3.996   6.237 -0.3544 -0.2233 -0.3530
  354MOL0     C47694  10.489   3.879   6.171 -0.0037  0.3838  1.5700
  354MOL0     C47695  10.635   3.914   6.130 -0.6416  0.0443  0.4985
  354MOL0     C47696  10.695   3.795   6.050 -0.0962 -0.1448  0.3480
  354MOL0     C47697  10.724   3.837   5.902  0.4505  0.3206  0.8256
  354MOL0     C47698  10.722   3.711   5.804 -0.3759  0.6878 -0.3998
  354MOL0     C47699  10.785   3.744   5.659 -0.8880  0.5433 -0.1876
  354MOL0    Cl47700  10.778   3.595   5.545  0.6006  0.5912 -0.4452
  354MOL0     C47701  10.327   3.772   6.591 -0.1811 -1.2868  0.0909
  354MOL0     C47702  10.321   3.786   6.740  1.5647  0.5436  0.7552
  354MOL0     O47703  10.353   4.118   6.966  0.0558 -0.3685 -0.2768
  354MOL0     C47704  10.351   3.843   7.211  0.1047 -0.5988 -0.3120
  354MOL0     C47705  10.383   3.831   7.349  0.0728 -0.9520 -0.0353
  354MOL0     N47706  10.819   3.859   8.005  1.0841 -0.3023  0.4198
  354MOL0     N47707  10.788   3.790   8.104  1.3850 -0.0809 -0.3322
  354MOL0     C47708  10.461   3.055   8.913  0.7077  0.7062 -0.3747
  354MOL0     C47709  10.569   2.993   8.983 -0.4403 -0.8976  0.2959
  354MOL0     C47710  11.019   2.835   9.032 -0.5286  0.1897 -0.0939
  354MOL0     C47711  11.000   2.690   9.048  0.0295 -1.3686 -0.2451
  354MOL0     C47712  11.105   2.610   9.094 -0.6173 -0.1902  0.1416
  354MOL0     C47713  11.234   2.664   9.118 -0.1904  0.0449 -0.1358
  354MOL0     O47714  11.347   2.599   9.160 -0.4666  0.4626 -0.2168
  354MOL0     C47715  11.332   2.461   9.204 -0.8049  1.2309 -0.1461
  354MOL0     C47716  11.456   2.383   9.249 -1.4715  0.0356 -0.2640
  354MOL0     C47717  11.572   2.375   9.151  0.7059 -0.5351 -1.1795
  354MOL0     C47718  11.695   2.333   9.222  0.2520 -0.3631 -0.1609
  354MOL0     C47719  11.719   2.190   9.220  0.6786 -0.6851 -0.2571
  354MOL0     C47720  11.723   2.068   9.233  0.1341  0.3894 -0.6874
  354MOL0     C47721  11.254   2.796   9.105  0.4003  0.5132  0.1375
  354MOL0     C47722  11.145   2.877   9.062 -0.5313 -1.0925  0.1345
  354MOL0     H47723  10.793   2.936   8.741  0.7825  3.0969 -0.4810
  354MOL0     H47724  10.617   3.047   8.602  2.9967  1.6807  0.3227
  354MOL0     H47725  10.192   3.159   8.782  2.7193 -1.8251  1.2241
  354MOL0     H47726  10.311   3.281   8.792 -0.7385  0.9570 -0.1906
  354MOL0     H47727  10.142   3.194   8.567  0.8768 -0.4859  0.0147
  354MOL0     H47728  10.132   3.348   8.634 -0.9631  0.1393 -2.3131
  354MOL0     H47729  10.363   3.428   8.556  1.0529  0.5635 -1.6495
  354MOL0     H47730  10.375   3.275   8.464 -0.1602 -1.5793  0.9642
  354MOL0     H47731  10.164   3.341   8.349 -0.0293 -1.0648  0.6010
  354MOL0     H47732  10.172   3.501   8.423 -2.9273 -1.3899  1.9216
  354MOL0     H47733  10.402   3.375   8.248 -2.2407 -1.5459  2.7050
  354MOL0     H47734  10.276   3.485   8.189 -0.0660  0.5713  1.2272
  354MOL0     H47735  10.356   3.659   8.353 -0.3531 -2.1851  3.3983
  354MOL0     H47736  10.494   3.556   8.398 -0.7119 -4.0078  0.1635
  354MOL0     H47737  10.600   3.570   8.194  0.7459 -0.7366  2.1023
  354MOL0     H47738  10.451   3.655   8.127 -0.7465  1.5718  1.6248
  354MOL0     H47739  10.634   3.748   8.341 -0.1453  0.0312 -0.7368
  354MOL0     H47740  10.501   3.850   8.268 -0.2422  0.4630 -1.9717
  354MOL0     H47741  10.507   3.954   8.047  0.9748  1.9005 -3.6136
  354MOL0     H47742  10.692   4.124   7.896  0.1007  0.9274 -1.4391
  354MOL0     H47743  10.789   4.024   7.786 -1.1352  2.3107 -0.3784
  354MOL0     H47744  10.593   4.054   7.660  2.3379  1.4678  0.9168
  354MOL0     H47745  10.490   4.023   7.802  1.0420  1.6716  2.3519
  354MOL0     H47746  10.510   3.815   7.801 -0.5294  2.1409  0.8206
  354MOL0     H47747  10.671   3.792   7.717 -1.2860 -2.4906 -0.5250
  354MOL0     H47748  10.452   3.715   7.612 -2.0539  1.2982  2.6261
  354MOL0     H47749  10.577   3.805   7.510 -2.5523  2.2943 -2.9593
  354MOL0     H47750  10.345   4.141   7.449 -1.1367  0.3835 -1.1575
  354MOL0     H47751  10.186   4.206   7.143 -0.0082  0.3527  0.7804
  354MOL0     H47752  10.250   4.263   7.308  0.1749  0.5929  1.0806
  354MOL0     H47753  10.353   4.270   7.167 -1.7843  1.0049  0.2833
  354MOL0     H47754  10.198   4.106   6.769 -1.3410 -0.3069 -0.8447
  354MOL0     H47755  10.192   4.086   6.535 -1.6006 -0.1486  2.3812
  354MOL0     H47756  10.219   3.899   6.186 -2.5051  1.5000 -0.0935
  354MOL0     H47757  10.197   4.025   6.310 -1.3754  0.8987 -3.8039
  354MOL0     H47758  10.381   4.076   6.167 -1.5350  1.8821  2.2726
  354MOL0     H47759  10.449   4.042   6.326  3.1370  0.3129 -2.1803
  354MOL0     H47760  10.435   3.837   6.086  2.1691  1.2642 -0.3467
  354MOL0     H47761  10.521   3.799   6.239  4.2756  0.8785  0.4477
  354MOL0     H47762  10.627   4.008   6.075 -2.5147  0.8279  1.9845
  354MOL0     H47763  10.690   3.930   6.223  2.4986 -1.2679 -0.9857
  354MOL0     H47764  10.624   3.712   6.051  0.0793 -0.3208  2.2872
  354MOL0     H47765  10.793   3.771   6.091  1.3633  0.4020 -2.5471
  354MOL0     H47766  10.650   3.911   5.872 -2.5989 -2.6416  0.5170
  354MOL0     H47767  10.823   3.884   5.904  0.9744 -0.7704  1.4330
  354MOL0     H47768  10.616   3.691   5.782  0.1115 -2.6044 -0.2324
  354MOL0     H47769  10.764   3.626   5.858 -0.2671 -0.0935 -1.6814
  354MOL0     H47770  10.882   3.793   5.655 -0.9510  0.8273  1.1215
  354MOL0     H47771  10.722   3.821   5.614 -0.6313 -0.9483 -3.3172
  354MOL0     H47772  10.361   3.679   6.546  2.0871 -1.8323  2.6782
  354MOL0     H47773  10.354   3.694   6.787  3.3595 -0.9619 -3.0468
  354MOL0     H47774  10.351   3.749   7.157  1.6171  0.0092 -1.4594
  354MOL0     H47775  10.394   3.731   7.390 -0.8211  0.1311  3.0721
  354MOL0     H47776  10.375   3.079   8.976  3.9885  1.5636  4.2929
  354MOL0     H47777  10.566   2.968   9.089  1.2573 -0.5543  0.4550
  354MOL0     H47778  10.906   2.638   9.031 -1.4742  1.5039 -1.3895
  354MOL0     H47779  11.082   2.507   9.119 -0.6034 -0.2702 -0.1723
  354MOL0     H47780  11.280   2.462   9.300  1.8343  1.0779  1.3538
  354MOL0     H47781  11.276   2.401   9.132 -0.8976  0.5102  0.5151
  354MOL0     H47782  11.430   2.279   9.270  1.9037 -0.8574  0.0888
  354MOL0     H47783  11.483   2.417   9.349 -0.3759 -2.4000  0.3322
  354MOL0     H47784  11.590   2.475   9.108  0.0552 -0.6086 -1.6215
  354MOL0     H47785  11.557   2.304   9.070 -2.8196 -0.6535 -0.5704
  354MOL0     H47786  11.701   2.372   9.324 -2.1289 -0.5919  0.1100
  354MOL0     H47787  11.783   2.378   9.175 -0.1142 -0.8047 -1.3029
  354MOL0     H47788  11.718   1.962   9.247  1.8557  0.4091  0.3905
  354MOL0     H47789  11.352   2.843   9.106  0.7718 -0.0552  3.7396
  354MOL0     H47790  11.158   2.984   9.051 -2.2727 -1.0671 -2.6099
  355MOL0     O47791   3.026   8.624   8.176  0.3255  0.2068  0.0097
  355MOL0     C47792   3.107   8.618   8.084  1.0170  0.3552 -0.1330
  355MOL0     O47793   3.166   8.729   8.026  0.1865 -0.7975 -0.5712
  355MOL0     C47794   3.118   8.857   8.058  0.1822  0.8914 -0.1072
  355MOL0     C47795   3.197   8.951   8.129 -0.4380 -0.0532 -0.3511
  355MOL0     C47796   3.141   9.080   8.159  0.5560  0.0990 -0.8778
  355MOL0     C47797   3.002   9.107   8.123  0.1206 -0.3640  0.3380
  355MOL0     O47798   2.947   9.239   8.143  0.0150  0.7047 -0.2832
  355MOL0     C47799   3.035   9.353   8.187  0.7301  0.7698 -0.3215
  355MOL0     C47800   2.959   9.495   8.170 -0.2341 -0.2929  0.5512
  355MOL0     C47801   2.948   9.528   8.020 -0.1034  0.5682 -0.6784
  355MOL0     C47802   2.806   9.535   7.977  0.4339 -0.6497 -0.1817
  355MOL0     C47803   2.810   9.558   7.824 -0.3532 -0.6460  0.6038
  355MOL0     C47804   2.691   9.497   7.758  0.0676 -0.5754 -0.8529
  355MOL0     C47805   2.683   9.494   7.605  0.1328 -1.0386 -0.7175
  355MOL0     C47806   2.567   9.406   7.557  0.2700  0.6113 -0.1523
  355MOL0     N47807   2.569   9.369   7.416 -0.4765  0.2593  0.4918
  355MOL0     C47808   2.556   9.452   7.308  0.5568  0.3010  0.5252
  355MOL0     C47809   2.538   9.369   7.201  0.0732  0.1148 -0.0705
  355MOL0     C47810   2.517   9.412   7.064  0.2120 -0.4731 -0.2124
  355MOL0     C47811   2.414   9.331   6.991 -0.0316 -0.3389  0.1858
  355MOL0     C47812   2.271   9.363   7.050  0.5463 -0.3574 -0.4790
  355MOL0     C47813   2.174   9.266   6.981 -0.4567 -0.2673  0.0147
  355MOL0     O47814   2.190   9.278   6.835  0.6504 -0.0281  0.7342
  355MOL0     C47815   2.075   9.279   6.755  1.0023  0.0480  0.3485
  355MOL0     C47816   1.957   9.214   6.800  0.1599  0.0236 -0.1091
  355MOL0     C47817   1.833   9.213   6.736  0.4902 -0.4933  0.1668
  355MOL0     C47818   1.723   9.126   6.793 -0.4628 -0.1744 -1.4911
  355MOL0     C47819   1.825   9.280   6.608 -1.7222  0.1944 -1.2944
  355MOL0     C47820   1.700   9.276   6.525  0.2862 -0.6494  0.5254
  355MOL0     O47821   1.712   9.335   6.398  0.3548 -0.2144  1.2389
  355MOL0     C47822   1.598   9.367   6.317 -0.0996  0.7691  0.4308
  355MOL0     C47823   1.478   9.401   6.360  0.6530 -0.3408  0.4270
  355MOL0     C47824   1.368   9.427   6.285  0.2523 -1.3425 -0.0545
  355MOL0     C47825   1.382   9.399   6.146  0.1349  0.3575  0.3763
  355MOL0     O47826   1.283   9.396   6.059  0.1061 -0.8271  0.1290
  355MOL0     C47827   1.153   9.440   6.104  0.4713  0.1778 -0.3255
  355MOL0     C47828   1.056   9.419   5.979 -0.9030  0.7133  0.1735
  355MOL0     C47829   1.009   9.270   5.960  0.4843 -0.4945 -0.8523
  355MOL0     C47830   0.963   9.252   5.813 -0.2453 -0.3280 -0.1962
  355MOL0     C47831   0.892   9.110   5.801  0.0659  0.1490 -0.8813
  355MOL0     C47832   0.749   9.120   5.868  0.1631 -0.3440  0.8214
  355MOL0     C47833   0.631   9.153   5.773 -0.5135  0.1885  0.1007
  355MOL0     C47834   0.567   9.288   5.786 -0.3439 -0.0451 -0.2181
  355MOL0    Cl47835   0.495   9.325   5.956 -0.1107 -0.1467  0.2912
  355MOL0     C47836   1.508   9.353   6.094  0.0497 -0.5446  0.3955
  355MOL0     C47837   1.614   9.344   6.184 -0.8251 -0.3874 -0.8985
  355MOL0     O47838   1.597   9.228   6.562 -0.1249  0.4037 -1.1393
  355MOL0     C47839   1.945   9.337   6.557 -0.0265  0.7132 -0.0796
  355MOL0     C47840   2.066   9.337   6.630 -0.8668  0.4765 -0.5401
  355MOL0     N47841   2.543   9.234   7.242  0.5557 -1.0665 -0.1505
  355MOL0     N47842   2.569   9.235   7.378 -0.3184 -0.3522  1.0893
  355MOL0     C47843   2.932   9.013   8.049  0.8740  0.4625 -0.6329
  355MOL0     C47844   2.988   8.886   8.017  0.4583 -0.7681  0.3091
  355MOL0     C47845   3.152   8.488   8.034  1.3006 -0.2281 -0.0815
  355MOL0     C47846   3.082   8.372   8.073  0.2104 -0.6450  0.3798
  355MOL0     C47847   3.116   8.245   8.022 -0.5882 -0.8678 -1.4295
  355MOL0     C47848   3.217   8.229   7.932  0.7155  0.6519  0.4953
  355MOL0     O47849   3.239   8.108   7.877  0.1111 -0.3407 -0.0831
  355MOL0     C47850   3.341   8.092   7.780  0.6467  0.7304  0.3127
  355MOL0     C47851   3.311   8.149   7.638 -0.1546 -0.2094 -1.1149
  355MOL0     C47852   3.216   8.063   7.550 -0.0158  1.0754 -0.7405
  355MOL0     C47853   3.170   8.137   7.421  1.0770  0.3476 -0.4435
  355MOL0     C47854   3.127   8.041   7.320  0.8609 -0.2222  0.4241
  355MOL0     C47855   3.083   7.983   7.219 -0.3291 -0.1644 -0.3988
  355MOL0     C47856   3.281   8.347   7.900 -0.1823 -0.3391 -0.0723
  355MOL0     C47857   3.253   8.475   7.948 -1.1139  0.4103  0.9272
  355MOL0     H47858   3.295   8.926   8.169 -0.3675  0.8050  0.0399
  355MOL0     H47859   3.202   9.152   8.214 -0.3774  0.4582 -0.2876
  355MOL0     H47860   3.064   9.336   8.291  0.9491 -1.3392 -0.6774
  355MOL0     H47861   3.130   9.367   8.134  0.4513 -0.7176 -1.2616
  355MOL0     H47862   2.862   9.500   8.221  0.7529  3.6033  2.4584
  355MOL0     H47863   3.035   9.561   8.213  1.1517 -2.3547  1.4587
  355MOL0     H47864   3.008   9.616   7.994  2.9128 -0.1712  2.9585
  355MOL0     H47865   2.996   9.444   7.968 -0.0978 -0.9842  1.6811
  355MOL0     H47866   2.751   9.446   8.007 -2.7731  0.7920 -1.3126
  355MOL0     H47867   2.756   9.612   8.037  2.5443  0.3066  0.4606
  355MOL0     H47868   2.805   9.666   7.808 -1.2965 -0.9064 -1.1070
  355MOL0     H47869   2.902   9.528   7.772 -2.6488 -0.1594 -4.3309
  355MOL0     H47870   2.687   9.393   7.792 -2.2840 -0.1757  0.2827
  355MOL0     H47871   2.598   9.535   7.802  1.0961  0.2265  0.7145
  355MOL0     H47872   2.662   9.590   7.559 -3.3094 -1.7259 -0.8351
  355MOL0     H47873   2.770   9.447   7.559  1.5294 -1.5695  2.2185
  355MOL0     H47874   2.469   9.444   7.588 -0.1626  0.9581 -1.8412
  355MOL0     H47875   2.595   9.313   7.608 -1.9255  1.1546  2.2498
  355MOL0     H47876   2.557   9.560   7.301 -3.3732  0.3944 -0.8649
  355MOL0     H47877   2.487   9.516   7.051 -2.4239 -1.1744 -0.4424
  355MOL0     H47878   2.609   9.400   7.006  0.3029  1.0938 -0.4168
  355MOL0     H47879   2.432   9.228   7.024  1.5724  0.7611  3.1231
  355MOL0     H47880   2.425   9.339   6.883  0.0171 -1.2523  0.1186
  355MOL0     H47881   2.239   9.464   7.022 -3.3071 -1.6484 -1.3140
  355MOL0     H47882   2.261   9.352   7.158  0.5046 -3.6863 -0.7261
  355MOL0     H47883   2.077   9.289   7.027 -0.7897 -4.6270  1.9944
  355MOL0     H47884   2.187   9.162   7.013 -0.8796  0.3222  2.2648
  355MOL0     H47885   1.962   9.148   6.887 -0.1458  1.0846  0.7340
  355MOL0     H47886   1.620   9.163   6.791 -0.0847  0.9047 -1.5441
  355MOL0     H47887   1.730   9.029   6.743 -2.9494 -1.4357  0.3843
  355MOL0     H47888   1.744   9.102   6.898  1.0330  0.6437 -1.5762
  355MOL0     H47889   1.466   9.438   6.461  0.6360  1.0010 -0.0404
  355MOL0     H47890   1.279   9.465   6.333 -0.2740 -2.7011  0.0911
  355MOL0     H47891   1.117   9.378   6.186  2.4896  0.0343  0.5109
  355MOL0     H47892   1.156   9.546   6.133 -1.4270  0.1536  0.0907
  355MOL0     H47893   0.965   9.477   5.997 -0.2170  1.8142  0.1210
  355MOL0     H47894   1.099   9.468   5.892 -1.7594  1.5568  0.2075
  355MOL0     H47895   0.926   9.246   6.027 -0.5959  1.3839 -1.4312
  355MOL0     H47896   1.090   9.198   5.970  2.5503  2.0218  2.5997
  355MOL0     H47897   0.902   9.334   5.776  3.7894  2.2217 -1.9806
  355MOL0     H47898   1.046   9.245   5.741 -1.6438 -1.7087 -1.7526
  355MOL0     H47899   0.962   9.035   5.836  0.2632  0.4090 -0.7150
  355MOL0     H47900   0.876   9.087   5.695  0.7232 -0.7678 -0.7865
  355MOL0     H47901   0.719   9.033   5.928 -0.7333  0.7489  2.0097
  355MOL0     H47902   0.742   9.203   5.939 -1.7794 -2.3587  3.1608
  355MOL0     H47903   0.559   9.072   5.786  1.0140 -1.7839 -2.6246
  355MOL0     H47904   0.658   9.143   5.667 -3.5765 -1.1813 -0.6360
  355MOL0     H47905   0.483   9.294   5.716  1.0372  0.2092 -1.9267
  355MOL0     H47906   0.631   9.373   5.762 -1.4505  1.0003  0.4668
  355MOL0     H47907   1.502   9.332   5.987 -4.3147  1.1516  0.1065
  355MOL0     H47908   1.700   9.303   6.132  0.6720 -0.5358  1.5605
  355MOL0     H47909   1.957   9.366   6.453 -0.7121  1.0726 -0.0622
  355MOL0     H47910   2.147   9.399   6.595 -1.6837  2.7294  1.3219
  355MOL0     H47911   2.830   9.038   8.023 -0.6072 -0.5173  3.4155
  355MOL0     H47912   2.917   8.812   7.983  0.7455 -0.1862 -1.6555
  355MOL0     H47913   3.003   8.387   8.146  1.2885  0.1617  1.4223
  355MOL0     H47914   3.042   8.169   8.046  0.1090 -0.4478  2.7791
  355MOL0     H47915   3.438   8.129   7.813 -0.0424  3.5088 -0.4221
  355MOL0     H47916   3.347   7.984   7.765 -1.2097  0.8012 -1.5395
  355MOL0     H47917   3.405   8.159   7.583  0.2701  0.8042 -0.2311
  355MOL0     H47918   3.268   8.249   7.651  0.6289 -0.0065  0.0843
  355MOL0     H47919   3.128   8.024   7.602  0.2941  2.7071  1.1075
  355MOL0     H47920   3.281   7.980   7.521 -2.5705 -2.3726  2.4244
  355MOL0     H47921   3.246   8.206   7.383 -0.7939  0.7248 -3.8844
  355MOL0     H47922   3.085   8.200   7.449  1.3976  0.4455  0.3508
  355MOL0     H47923   3.048   7.936   7.130  1.6635  2.6452 -2.8689
  355MOL0     H47924   3.367   8.333   7.836 -0.8901 -4.1277 -0.4476
  355MOL0     H47925   3.316   8.554   7.909 -1.5421 -0.9083 -2.9013
  356MOL0     O47926   1.238   3.284   9.712  1.0401  0.4243  0.2254
  356MOL0     C47927   1.346   3.292   9.768 -0.0434 -0.2107  0.9742
  356MOL0     O47928   1.466   3.337   9.709  0.4106 -0.1467 -0.1714
  356MOL0     C47929   1.475   3.332   9.572  0.3790 -0.5362  0.3662
  356MOL0     C47930   1.586   3.271   9.519 -0.5780  0.6430  0.6747
  356MOL0     C47931   1.621   3.265   9.382  0.1314 -0.3048 -0.3276
  356MOL0     C47932   1.527   3.318   9.283  0.4970  0.0375 -0.2894
  356MOL0     O47933   1.546   3.329   9.150  0.1799 -0.0265  0.3359
  356MOL0     C47934   1.592   3.213   9.077  0.1507  0.6551 -0.4639
  356MOL0     C47935   1.546   3.229   8.935  0.7656 -0.0010  0.0357
  356MOL0     C47936   1.395   3.224   8.921  0.2100 -0.4462 -0.0199
  356MOL0     C47937   1.350   3.255   8.775 -0.7663  0.9350 -0.6717
  356MOL0     C47938   1.193   3.267   8.764  0.5001 -0.6389  0.0311
  356MOL0     C47939   1.129   3.127   8.784  0.1112 -0.0993 -0.1062
  356MOL0     C47940   0.980   3.164   8.824  0.5700 -0.5693  0.2165
  356MOL0     C47941   0.923   3.044   8.903 -0.1698 -0.2305  0.3848
  356MOL0     N47942   0.787   3.074   8.959  0.0631 -0.0422 -1.2915
  356MOL0     C47943   0.673   3.104   8.889 -0.4697  0.9272 -0.5541
  356MOL0     C47944   0.575   3.105   8.981  0.2612 -0.3628  0.1747
  356MOL0     C47945   0.432   3.137   8.984  0.2042 -0.0774 -0.2371
  356MOL0     C47946   0.364   3.183   8.856 -0.6623 -0.5885  0.9019
  356MOL0     C47947   0.205   3.201   8.877 -0.1761  0.4749  0.6564
  356MOL0     C47948   0.145   3.240   8.743 -0.3535 -1.1463  0.4734
  356MOL0     O47949   0.172   3.128   8.646 -0.4247 -0.1295 -0.5374
  356MOL0     C47950   0.108   3.134   8.524 -0.4043 -0.1361  0.4812
  356MOL0     C47951   0.089   3.011   8.458  0.7263  0.4014  0.5271
  356MOL0     C47952   0.012   3.020   8.337  0.2766  0.5830 -0.6922
  356MOL0     C47953  -0.011   2.893   8.269  0.3652  0.4963  0.1584
  356MOL0     C47954  -0.024   3.146   8.273 -0.9427 -0.1255  0.5569
  356MOL0     C47955  -0.052   3.162   8.123 -0.5485  1.1307 -0.2784
  356MOL0     O47956  -0.032   3.284   8.067  0.9979 -0.6438 -0.5237
  356MOL0     C47957  -0.038   3.292   7.926 -0.8369 -0.2233 -0.4932
  356MOL0     C47958  -0.108   3.401   7.885 -0.3918 -0.1636 -0.3921
  356MOL0     C47959  -0.103   3.449   7.755  0.1197 -0.3349  0.0717
  356MOL0     C47960  -0.038   3.369   7.657 -0.2311  0.6081 -0.1138
  356MOL0     O47961  -0.030   3.411   7.529  0.0973  0.8552  0.9293
  356MOL0     C47962  -0.152   3.462   7.476  0.3822  0.6740 -1.0048
  356MOL0     C47963  -0.153   3.491   7.326  0.2384 -0.6571  0.1182
  356MOL0     C47964  -0.026   3.560   7.271 -0.3069 -0.6955 -0.3974
  356MOL0     C47965  -0.045   3.590   7.118 -0.5535  0.3753 -0.7627
  356MOL0     C47966   0.051   3.697   7.076 -0.0245  0.0283 -1.0741
  356MOL0     C47967   0.047   3.731   6.921 -0.1560  0.0709  0.6634
  356MOL0     C47968  -0.088   3.770   6.867  0.6745  0.4709  0.3831
  356MOL0     C47969  -0.069   3.809   6.723 -0.5664 -0.5804  0.0318
  356MOL0    Cl47970  -0.209   3.874   6.644  0.3890 -0.0996 -0.0081
  356MOL0     C47971   0.030   3.256   7.692 -0.0577  0.6170 -0.1258
  356MOL0     C47972   0.028   3.214   7.827  0.0737 -0.2669  0.3077
  356MOL0     O47973  -0.104   3.067   8.061  0.3617  0.3682 -0.5914
  356MOL0     C47974   0.008   3.263   8.337 -0.3965  0.2797  0.6107
  356MOL0     C47975   0.063   3.260   8.468 -0.1612 -0.0698 -1.1124
  356MOL0     N47976   0.631   3.062   9.110  0.0782 -0.3850  0.9833
  356MOL0     N47977   0.751   3.033   9.083  0.6798  0.6242 -0.4494
  356MOL0     C47978   1.408   3.375   9.342 -1.0593  0.2450  0.1534
  356MOL0     C47979   1.394   3.387   9.478 -0.7495  0.0011 -0.5103
  356MOL0     C47980   1.358   3.280   9.918 -1.5297  1.1952  0.4925
  356MOL0     C47981   1.478   3.302   9.985  0.5439 -0.1055  0.4841
  356MOL0     C47982   1.505   3.257  10.118  0.5280 -0.4323 -0.6094
  356MOL0     C47983   1.395   3.196  10.190 -0.1694  0.9403  0.2834
  356MOL0     O47984   1.405   3.171  10.325 -0.6730  0.4635 -0.0576
  356MOL0     C47985   1.291   3.174  10.410 -0.5031 -0.3366 -0.2529
  356MOL0     C47986   1.226   3.041  10.435  0.2338 -0.4440 -0.8338
  356MOL0     C47987   1.315   2.931  10.496  0.7420  0.3477 -0.2197
  356MOL0     C47988   1.338   2.953  10.650 -0.2969 -0.3916  1.1545
  356MOL0     C47989   1.295   2.835  10.730  0.1615  1.0367  0.3246
  356MOL0     C47990   1.280   2.746  10.813 -0.7445 -0.2438 -0.7099
  356MOL0     C47991   1.267   3.187  10.123  0.6528  0.0262 -0.4441
  356MOL0     C47992   1.254   3.221   9.988  0.3759  0.4825  0.2322
  356MOL0     H47993   1.646   3.216   9.591  0.5197  2.0024  0.8329
  356MOL0     H47994   1.706   3.207   9.347  1.3146 -0.7455  2.8957
  356MOL0     H47995   1.700   3.201   9.085  0.0325  0.8416  3.9278
  356MOL0     H47996   1.546   3.121   9.115 -0.0800  1.7767  2.1515
  356MOL0     H47997   1.576   3.326   8.893 -2.7834  0.9907 -0.5414
  356MOL0     H47998   1.603   3.157   8.877  1.2423  0.4060 -0.0051
  356MOL0     H47999   1.372   3.119   8.942  3.5771 -1.2805  0.0885
  356MOL0     H48000   1.347   3.294   8.990  1.5348 -1.9226  2.5530
  356MOL0     H48001   1.402   3.336   8.722  0.2327 -0.0742 -1.2887
  356MOL0     H48002   1.388   3.170   8.718 -0.1607  1.8345 -1.6579
  356MOL0     H48003   1.163   3.333   8.845  2.8802 -0.8698  1.2115
  356MOL0     H48004   1.160   3.313   8.671  0.5407  3.4903  1.8290
  356MOL0     H48005   1.131   3.078   8.687 -0.8526 -1.0079  0.3256
  356MOL0     H48006   1.179   3.066   8.860 -1.9255  0.5860  1.9190
  356MOL0     H48007   0.956   3.260   8.870  0.6036 -1.4895  2.3027
  356MOL0     H48008   0.932   3.166   8.726  3.9671 -1.0082 -1.5747
  356MOL0     H48009   0.992   3.029   8.987  1.7349  2.8694 -0.4446
  356MOL0     H48010   0.921   2.951   8.845  2.1100 -0.2739  0.2549
  356MOL0     H48011   0.665   3.129   8.784 -0.0782  1.7196 -0.4085
  356MOL0     H48012   0.387   3.040   9.007 -0.9782  0.5419  0.1431
  356MOL0     H48013   0.408   3.203   9.068  0.3427  0.1157 -0.3508
  356MOL0     H48014   0.380   3.099   8.788  0.6764  0.4473 -0.1235
  356MOL0     H48015   0.409   3.276   8.819  0.7351 -1.5060  0.1922
  356MOL0     H48016   0.199   3.282   8.951  1.4227  0.1609  1.1822
  356MOL0     H48017   0.154   3.110   8.910  0.9994 -1.4224 -2.3643
  356MOL0     H48018   0.199   3.323   8.699  1.8020 -1.9800  1.4412
  356MOL0     H48019   0.038   3.263   8.745 -0.0810  1.9783 -4.3331
  356MOL0     H48020   0.116   2.920   8.510 -1.2381 -0.1440  0.6911
  356MOL0     H48021   0.063   2.886   8.189 -2.9161 -3.0046 -2.9592
  356MOL0     H48022   0.004   2.804   8.331 -2.7605  1.5436  2.7064
  356MOL0     H48023  -0.104   2.885   8.212  2.1467 -2.4505 -2.6775
  356MOL0     H48024  -0.161   3.469   7.952 -0.2916 -0.6383  0.1791
  356MOL0     H48025  -0.150   3.540   7.719  5.6492  3.1571  0.6470
  356MOL0     H48026  -0.229   3.386   7.489  3.2194 -2.1281  1.0738
  356MOL0     H48027  -0.176   3.557   7.526  3.6444 -0.3612  3.1651
  356MOL0     H48028  -0.165   3.395   7.274 -1.6918  0.5493 -1.8296
  356MOL0     H48029  -0.245   3.544   7.301 -1.3165 -3.8234 -1.5074
  356MOL0     H48030   0.064   3.500   7.282  0.0449 -0.1743 -0.4250
  356MOL0     H48031  -0.014   3.654   7.325 -1.3893  0.7345 -2.4966
  356MOL0     H48032  -0.027   3.499   7.061  2.6861 -0.6700  1.6471
  356MOL0     H48033  -0.148   3.624   7.105 -0.4649  0.8183 -0.3673
  356MOL0     H48034   0.149   3.659   7.108  0.7759  1.8603 -1.2110
  356MOL0     H48035   0.022   3.783   7.138  0.7738  0.5967 -1.4652
  356MOL0     H48036   0.110   3.820   6.916 -0.9420  0.6666  1.0169
  356MOL0     H48037   0.088   3.652   6.858  2.3717  1.9333 -0.1571
  356MOL0     H48038  -0.140   3.843   6.928 -1.3510  0.4009 -1.1713
  356MOL0     H48039  -0.141   3.674   6.868 -0.0767  0.8042 -1.8595
  356MOL0     H48040  -0.030   3.724   6.666 -0.7528 -1.0264  0.5632
  356MOL0     H48041   0.003   3.891   6.719 -0.7566 -0.4584 -1.3834
  356MOL0     H48042   0.098   3.205   7.626  1.3556  1.3979  0.6813
  356MOL0     H48043   0.082   3.124   7.857 -1.1009 -1.1814 -0.2232
  356MOL0     H48044   0.001   3.358   8.284 -0.2502  0.3466  0.7091
  356MOL0     H48045   0.068   3.354   8.522  0.7770 -2.6443  3.8589
  356MOL0     H48046   1.349   3.406   9.256  2.0082 -2.5121 -3.2583
  356MOL0     H48047   1.304   3.431   9.520  0.3515 -0.9471  3.1789
  356MOL0     H48048   1.562   3.346   9.933  1.6593 -1.9586  0.6294
  356MOL0     H48049   1.599   3.286  10.164 -0.3164  2.4483 -0.4701
  356MOL0     H48050   1.302   3.220  10.508 -2.6748  3.6345 -1.6331
  356MOL0     H48051   1.211   3.240  10.376  1.2890  3.0026  1.4943
  356MOL0     H48052   1.193   3.003  10.338  0.3341  1.4673 -1.6555
  356MOL0     H48053   1.137   3.059  10.497  1.7010  0.6472  1.0609
  356MOL0     H48054   1.408   2.929  10.437 -1.3846 -2.9480 -3.9875
  356MOL0     H48055   1.269   2.835  10.472 -0.0403  1.0345 -1.6283
  356MOL0     H48056   1.286   3.043  10.681  0.0177  1.2547 -2.5546
  356MOL0     H48057   1.439   2.993  10.663 -0.6061  0.2830  1.5221
  356MOL0     H48058   1.261   2.675  10.890 -1.5859 -1.7099 -2.2045
  356MOL0     H48059   1.182   3.147  10.176  0.0072  0.0750 -1.4088
  356MOL0     H48060   1.154   3.207   9.949  0.0853  1.5408  0.5768
  357MOL0     O48061   4.498   3.153   1.809  0.3210  0.3730  0.6475
  357MOL0     C48062   4.392   3.131   1.745 -0.6545 -0.0755 -0.7818
  357MOL0     O48063   4.380   3.102   1.612  0.7913  0.2969  0.2059
  357MOL0     C48064   4.495   3.071   1.547  0.0940 -0.3695  0.6496
  357MOL0     C48065   4.524   3.147   1.427  1.0279 -0.7019  0.1502
  357MOL0     C48066   4.636   3.123   1.347  0.1053 -0.1992  0.3816
  357MOL0     C48067   4.711   3.010   1.382 -0.0227  0.7652  0.1192
  357MOL0     O48068   4.834   2.990   1.314 -0.3001 -1.1773 -0.2383
  357MOL0     C48069   4.879   3.087   1.225 -0.3624 -0.0746 -0.2941
  357MOL0     C48070   5.011   3.034   1.159  0.2294  0.3576 -0.2504
  357MOL0     C48071   5.064   3.114   1.033 -0.2431  0.2919 -0.7663
  357MOL0     C48072   4.967   3.099   0.918  1.4683  0.7809  0.0591
  357MOL0     C48073   5.008   3.175   0.784 -0.3462 -0.2525 -1.1821
  357MOL0     C48074   4.942   3.088   0.672  0.6543 -0.6242  0.0415
  357MOL0     C48075   4.956   3.158   0.524  0.1474  0.0089 -0.5086
  357MOL0     C48076   4.905   3.086   0.403 -0.4154  0.3800  0.1330
  357MOL0     N48077   5.001   3.006   0.321  0.9808 -1.0843 -0.8466
  357MOL0     C48078   5.042   2.875   0.340 -0.7903  0.4872  0.0307
  357MOL0     C48079   5.138   2.857   0.249 -1.2553  1.0650 -0.0042
  357MOL0     C48080   5.247   2.760   0.246 -0.7057 -0.0561 -0.0948
  357MOL0     C48081   5.187   2.615   0.252 -0.9233 -0.6601 -0.4818
  357MOL0     C48082   5.292   2.504   0.216 -0.5814  0.6401 -0.1911
  357MOL0     C48083   5.313   2.500   0.067 -0.1080  0.5465 -0.0820
  357MOL0     O48084   5.197   2.453  -0.008 -0.3906 -0.0988 -0.0849
  357MOL0     C48085   5.190   2.475  -0.143 -0.8160 -0.1904 -0.5463
  357MOL0     C48086   5.299   2.538  -0.210 -0.2739  0.6672  0.0238
  357MOL0     C48087   5.288   2.578  -0.342 -0.2117  0.4006 -0.1997
  357MOL0     C48088   5.401   2.646  -0.415 -0.8147  0.1007  0.3147
  357MOL0     C48089   5.167   2.558  -0.410  0.2292 -0.4014 -0.0595
  357MOL0     C48090   5.140   2.617  -0.539 -0.4534  0.1592 -0.5895
  357MOL0     O48091   5.060   2.535  -0.619 -0.0062 -0.3809  0.4055
  357MOL0     C48092   5.031   2.573  -0.751  0.1694 -0.0718  1.1012
  357MOL0     C48093   4.952   2.488  -0.817  0.4576 -0.4744 -0.1866
  357MOL0     C48094   4.904   2.522  -0.946  0.2371  0.4146 -0.0456
  357MOL0     C48095   4.961   2.632  -1.013  0.3006  1.1555 -0.4999
  357MOL0     O48096   4.895   2.653  -1.129  0.0028  0.1694 -0.4280
  357MOL0     C48097   4.933   2.759  -1.215  0.3400  0.1190  0.8938
  357MOL0     C48098   4.883   2.738  -1.353  0.0250  1.1146 -0.9623
  357MOL0     C48099   4.974   2.825  -1.448 -0.8276  0.0138  0.5590
  357MOL0     C48100   5.081   2.739  -1.521  0.3658 -0.2426  0.9264
  357MOL0     C48101   5.124   2.816  -1.657  0.7329 -1.0993  0.4085
  357MOL0     C48102   5.223   2.725  -1.728 -0.5502  0.6799  0.3676
  357MOL0     C48103   5.343   2.666  -1.657 -0.4938  0.6103  0.7515
  357MOL0     C48104   5.352   2.515  -1.681 -0.3570  0.0007 -0.7818
  357MOL0    Cl48105   5.511   2.457  -1.610 -0.4468 -0.5479 -0.2511
  357MOL0     C48106   5.055   2.712  -0.955  0.5136 -0.0903 -0.4478
  357MOL0     C48107   5.086   2.685  -0.826  0.6391  0.5017  0.1701
  357MOL0     O48108   5.190   2.723  -0.565  0.2606  0.6212  0.1606
  357MOL0     C48109   5.058   2.496  -0.343 -0.1530  1.0544  0.1696
  357MOL0     C48110   5.063   2.464  -0.210  0.4224 -0.1715  0.3425
  357MOL0     N48111   5.152   2.976   0.176 -0.8198  0.6667 -0.1452
  357MOL0     N48112   5.059   3.064   0.208  0.6084  0.2058 -0.9401
  357MOL0     C48113   4.669   2.923   1.479  0.0423 -0.4481  1.0279
  357MOL0     C48114   4.564   2.951   1.566  0.0862 -0.1295  0.3216
  357MOL0     C48115   4.278   3.104   1.827 -0.2179  0.0511  0.5757
  357MOL0     C48116   4.150   3.109   1.766 -0.0268 -0.4821 -0.7628
  357MOL0     C48117   4.028   3.095   1.835 -0.2550 -1.3862 -0.5714
  357MOL0     C48118   4.041   3.058   1.972  0.7992 -0.0042  0.5184
  357MOL0     O48119   3.934   3.026   2.062  0.9356 -0.3528  0.3669
  357MOL0     C48120   3.804   2.976   2.001 -0.7048 -0.3661 -0.2361
  357MOL0     C48121   3.697   3.090   1.982  0.3611  0.0633  0.3629
  357MOL0     C48122   3.563   3.016   1.950  0.1704  0.6439 -0.1489
  357MOL0     C48123   3.435   3.091   1.968  0.7047 -0.3591 -0.1052
  357MOL0     C48124   3.410   3.153   2.101  0.5271 -0.0613 -0.1016
  357MOL0     C48125   3.410   3.188   2.220 -0.4801 -0.1022 -1.4649
  357MOL0     C48126   4.160   3.063   2.037 -0.9737 -0.6346  1.0043
  357MOL0     C48127   4.280   3.077   1.966 -0.2602  0.8820 -0.4864
  357MOL0     H48128   4.459   3.231   1.401  1.9406 -0.1452 -0.3870
  357MOL0     H48129   4.660   3.192   1.266 -0.6465 -2.5803 -2.0304
  357MOL0     H48130   4.809   3.104   1.143 -0.5732 -0.9904 -0.3074
  357MOL0     H48131   4.896   3.183   1.275  0.2878  0.4530 -1.4812
  357MOL0     H48132   5.093   3.043   1.232 -2.5175  0.1562  3.1349
  357MOL0     H48133   5.013   2.929   1.129  5.0287  0.6667 -1.8799
  357MOL0     H48134   5.079   3.219   1.058  1.3941 -0.5289  2.3535
  357MOL0     H48135   5.165   3.076   1.014  1.1228  1.6054  2.9188
  357MOL0     H48136   4.931   2.997   0.898 -0.7439  1.8310 -1.7597
  357MOL0     H48137   4.875   3.144   0.956  0.4895  0.2999 -1.6331
  357MOL0     H48138   4.972   3.278   0.791  3.1513  1.0767 -0.0855
  357MOL0     H48139   5.116   3.179   0.766  0.3918 -1.4537  2.2478
  357MOL0     H48140   4.988   2.989   0.680  0.0683 -1.1147 -1.9738
  357MOL0     H48141   4.839   3.098   0.705 -0.7865 -1.4215 -3.6901
  357MOL0     H48142   4.921   3.261   0.526  0.1925  0.2071 -3.9000
  357MOL0     H48143   5.065   3.164   0.512  0.0717 -0.2506 -1.4168
  357MOL0     H48144   4.871   3.160   0.330  2.4639 -0.4784 -2.3001
  357MOL0     H48145   4.817   3.031   0.435 -1.0966  0.3715 -1.6182
  357MOL0     H48146   5.012   2.804   0.417  4.3392 -1.3404  0.7352
  357MOL0     H48147   5.300   2.776   0.152  1.3110  1.0175  1.1525
  357MOL0     H48148   5.326   2.767   0.321 -1.4367 -0.1484  0.7011
  357MOL0     H48149   5.097   2.597   0.193 -1.7369 -0.9248  0.8108
  357MOL0     H48150   5.163   2.608   0.359  0.5828 -0.5936 -0.1190
  357MOL0     H48151   5.257   2.411   0.262 -0.2040  2.2416  3.7232
  357MOL0     H48152   5.390   2.534   0.253 -0.0176 -0.2559 -0.9021
  357MOL0     H48153   5.392   2.426   0.051  0.1886  0.7308  0.5005
  357MOL0     H48154   5.346   2.594   0.022 -0.2126 -0.3349 -2.1134
  357MOL0     H48155   5.397   2.545  -0.164 -1.0893  0.2073  1.9196
  357MOL0     H48156   5.428   2.610  -0.515  2.0746  2.3666  0.1319
  357MOL0     H48157   5.381   2.753  -0.428  0.4970  0.0853 -2.8893
  357MOL0     H48158   5.499   2.635  -0.368 -0.6033  4.4059  1.3072
  357MOL0     H48159   4.910   2.408  -0.757 -0.9109  2.6750  3.4753
  357MOL0     H48160   4.830   2.462  -0.998 -0.5926  1.2822  0.0993
  357MOL0     H48161   4.902   2.857  -1.178  0.8186  1.8011 -2.7581
  357MOL0     H48162   5.042   2.755  -1.227  0.3116  1.2929  0.1219
  357MOL0     H48163   4.884   2.630  -1.373  2.3400  1.1632 -1.4571
  357MOL0     H48164   4.784   2.783  -1.346  1.8552  5.3307  0.7830
  357MOL0     H48165   5.014   2.915  -1.402 -0.2501  1.1848 -2.0810
  357MOL0     H48166   4.904   2.861  -1.524 -1.0659 -0.1054  0.7189
  357MOL0     H48167   5.162   2.721  -1.449  0.7444 -2.0164  0.0974
  357MOL0     H48168   5.039   2.639  -1.534  0.6180 -0.3182  0.6881
  357MOL0     H48169   5.176   2.908  -1.629  2.1417 -0.3942 -3.8331
  357MOL0     H48170   5.033   2.837  -1.714  0.2608 -1.7818  0.8958
  357MOL0     H48171   5.148   2.649  -1.752 -0.0865  0.8910 -1.9348
  357MOL0     H48172   5.247   2.777  -1.822  0.0836  0.5866  0.4752
  357MOL0     H48173   5.344   2.675  -1.548  0.3212  0.3581  0.7739
  357MOL0     H48174   5.432   2.713  -1.700  1.3181 -2.3335  0.9752
  357MOL0     H48175   5.356   2.487  -1.787  0.9000 -2.1098 -0.2356
  357MOL0     H48176   5.265   2.465  -1.637  1.0187 -2.1683 -0.3835
  357MOL0     H48177   5.096   2.797  -1.009  1.1808 -1.7327 -2.6801
  357MOL0     H48178   5.166   2.751  -0.794  0.8234  1.4168 -2.0291
  357MOL0     H48179   4.969   2.476  -0.402  0.5781  0.1280 -0.6626
  357MOL0     H48180   4.984   2.403  -0.168 -1.2837  1.6796 -0.0549
  357MOL0     H48181   4.715   2.833   1.517 -1.8899 -2.4068 -1.0272
  357MOL0     H48182   4.536   2.878   1.641  0.2538 -0.9292 -0.3787
  357MOL0     H48183   4.142   3.147   1.665 -1.9136  1.0241 -0.1114
  357MOL0     H48184   3.927   3.085   1.796  0.1670 -3.7754 -1.1788
  357MOL0     H48185   3.819   2.921   1.908  0.6538  0.0732 -0.2928
  357MOL0     H48186   3.771   2.903   2.076  2.5100 -0.0276  1.7101
  357MOL0     H48187   3.732   3.155   1.901 -0.6216  1.9683  1.4056
  357MOL0     H48188   3.696   3.147   2.076 -1.8475 -0.5278  0.7310
  357MOL0     H48189   3.541   2.923   2.002  0.9817  0.3288 -0.3547
  357MOL0     H48190   3.561   2.992   1.843 -0.5759 -1.3865  0.2938
  357MOL0     H48191   3.353   3.021   1.949 -0.2813  0.5110  0.7855
  357MOL0     H48192   3.424   3.174   1.897 -1.9617  0.2874  0.9251
  357MOL0     H48193   3.389   3.223   2.319  0.2559  2.4747 -2.1300
  357MOL0     H48194   4.155   3.073   2.145  0.8413 -0.4869  1.1041
  357MOL0     H48195   4.377   3.061   2.011 -1.4176  0.4329  2.0643
  358MOL0     O48196   2.361   2.306   0.759 -0.5591 -0.2219  0.2453
  358MOL0     C48197   2.402   2.195   0.714  0.6767  0.7614  0.9781
  358MOL0     O48198   2.371   2.069   0.765  0.7130  0.0270 -1.0287
  358MOL0     C48199   2.273   2.076   0.870 -0.0902 -0.0915 -0.4857
  358MOL0     C48200   2.308   2.028   0.999 -0.4553 -0.4075  0.5411
  358MOL0     C48201   2.215   2.031   1.106 -0.1509  0.5850 -0.0783
  358MOL0     C48202   2.085   2.066   1.093  0.0192  0.2454  0.0665
  358MOL0     O48203   1.990   2.070   1.195  0.4135 -0.3024  0.8680
  358MOL0     C48204   2.003   1.980   1.304  0.1577  0.1383  0.0538
  358MOL0     C48205   1.867   1.986   1.372  1.4977  0.6608 -0.5293
  358MOL0     C48206   1.850   1.857   1.450 -0.2280  0.2805  0.4570
  358MOL0     C48207   1.941   1.855   1.578  0.0259  0.2689  0.7886
  358MOL0     C48208   1.930   1.724   1.666  0.7506  0.7168  0.5165
  358MOL0     C48209   2.044   1.718   1.767 -0.2328 -0.0949  0.0703
  358MOL0     C48210   2.017   1.815   1.879  0.9372  1.0016  0.6011
  358MOL0     C48211   2.140   1.837   1.966 -1.0181  0.9885 -0.1427
  358MOL0     N48212   2.186   1.711   2.030 -0.2399 -0.3171 -0.8755
  358MOL0     C48213   2.273   1.619   1.982  0.4597 -0.6199 -0.9400
  358MOL0     C48214   2.264   1.518   2.069 -0.5367  0.8251 -0.5509
  358MOL0     C48215   2.338   1.385   2.044  0.1212  0.2748 -0.1308
  358MOL0     C48216   2.288   1.265   2.129 -0.5870  0.3992  1.1763
  358MOL0     C48217   2.162   1.204   2.065 -0.1665 -0.3445  0.1008
  358MOL0     C48218   2.073   1.107   2.160 -0.7845 -0.9079  0.2032
  358MOL0     O48219   2.055   1.183   2.288  0.4929  0.0543 -0.2319
  358MOL0     C48220   2.003   1.115   2.397 -0.7016 -0.5736  0.7347
  358MOL0     C48221   1.908   1.186   2.469  0.3916 -0.4745  0.0010
  358MOL0     C48222   1.866   1.148   2.599 -0.2052 -0.0252 -0.2107
  358MOL0     C48223   1.776   1.247   2.681 -0.0142 -0.1790  0.3292
  358MOL0     C48224   1.918   1.032   2.655 -0.6908  0.6697  0.0307
  358MOL0     C48225   1.893   0.981   2.789 -0.8008 -0.1030 -0.0193
  358MOL0     O48226   1.817   1.052   2.868 -0.2799 -0.4711 -0.3345
  358MOL0     C48227   1.800   1.026   3.006  1.0378 -0.1849 -0.3895
  358MOL0     C48228   1.911   1.012   3.089  0.8389 -0.2320 -0.5194
  358MOL0     C48229   1.893   0.980   3.224  0.6134  0.3179  1.2725
  358MOL0     C48230   1.767   0.959   3.275 -0.6961  0.0113 -0.0984
  358MOL0     O48231   1.765   0.923   3.411 -0.8207 -0.7918  0.6705
  358MOL0     C48232   1.642   0.870   3.465 -0.1430 -0.0538 -0.4903
  358MOL0     C48233   1.648   0.871   3.611  0.1815  0.0843 -0.0325
  358MOL0     C48234   1.757   0.777   3.675 -0.2800 -0.3574  0.1043
  358MOL0     C48235   1.695   0.685   3.770 -0.3984  0.8306  0.5001
  358MOL0     C48236   1.795   0.573   3.809  0.0630 -0.4439 -0.3933
  358MOL0     C48237   1.737   0.460   3.877  0.0521  0.4324 -0.7895
  358MOL0     C48238   1.618   0.383   3.809  0.1241 -0.7315  0.2019
  358MOL0     C48239   1.660   0.320   3.671 -0.2720 -0.4617 -0.2935
  358MOL0    Cl48240   1.817   0.230   3.699  0.0395  0.7944 -0.2345
  358MOL0     C48241   1.655   0.965   3.197  0.4700 -0.2078  1.2102
  358MOL0     C48242   1.676   0.990   3.060 -0.2412  0.7371 -0.8361
  358MOL0     O48243   1.954   0.879   2.822 -1.2890  0.1588 -0.1244
  358MOL0     C48244   1.987   0.946   2.569 -0.5700  0.1926  0.8364
  358MOL0     C48245   2.026   0.988   2.440 -0.7331  0.1471 -0.7384
  358MOL0     N48246   2.185   1.554   2.176  0.6701 -0.1439 -0.1761
  358MOL0     N48247   2.147   1.671   2.154  0.0033 -0.4615 -0.1375
  358MOL0     C48248   2.056   2.115   0.968  0.4386 -0.8729 -0.1428
  358MOL0     C48249   2.142   2.127   0.858  0.1831  0.4947 -0.1448
  358MOL0     C48250   2.484   2.190   0.586 -0.0188  0.6670 -0.8433
  358MOL0     C48251   2.508   2.070   0.526 -0.2393 -0.8099 -0.3193
  358MOL0     C48252   2.589   2.058   0.414 -0.3908 -0.0564 -0.2263
  358MOL0     C48253   2.649   2.167   0.349 -0.1149 -0.6940  0.0004
  358MOL0     O48254   2.723   2.148   0.238 -0.4726 -0.0607 -0.4112
  358MOL0     C48255   2.757   2.264   0.150 -0.1669 -0.3298  0.6860
  358MOL0     C48256   2.641   2.307   0.048 -0.2818  0.6542 -0.6166
  358MOL0     C48257   2.683   2.432  -0.032 -0.2129 -0.9319  0.7897
  358MOL0     C48258   2.571   2.481  -0.130 -0.5545 -0.0199 -0.1057
  358MOL0     C48259   2.445   2.518  -0.062  0.8702  0.4212  0.0234
  358MOL0     C48260   2.340   2.544   0.007  0.0805 -0.7370 -0.2035
  358MOL0     C48261   2.615   2.291   0.401  0.5346  0.8001 -1.1565
  358MOL0     C48262   2.539   2.304   0.521  0.3919  0.8534 -0.2259
  358MOL0     H48263   2.406   1.993   1.030  1.0320  4.8019  2.9358
  358MOL0     H48264   2.245   1.992   1.202 -1.6669  2.5616  1.2879
  358MOL0     H48265   2.029   1.878   1.274 -0.1841 -0.0824  0.5001
  358MOL0     H48266   2.083   2.019   1.368  1.4967 -0.3636 -1.2726
  358MOL0     H48267   1.846   2.073   1.434 -1.9093 -0.4990  0.1258
  358MOL0     H48268   1.787   1.984   1.297 -0.9740 -3.3492  1.8421
  358MOL0     H48269   1.746   1.852   1.485  0.0156  1.2105  1.3474
  358MOL0     H48270   1.861   1.769   1.385 -3.8665  0.1035 -0.1155
  358MOL0     H48271   2.043   1.861   1.539 -0.6203 -1.2425 -1.3519
  358MOL0     H48272   1.919   1.939   1.644 -1.8027  1.4564 -1.2116
  358MOL0     H48273   1.829   1.725   1.708  0.0420  2.1237 -1.0661
  358MOL0     H48274   1.936   1.630   1.610  2.8699 -0.9693  3.3319
  358MOL0     H48275   2.065   1.621   1.813  3.7142  1.2471  1.5118
  358MOL0     H48276   2.138   1.742   1.717 -0.7567  0.6540 -0.5768
  358MOL0     H48277   1.981   1.911   1.842 -0.0131  0.8967  1.2274
  358MOL0     H48278   1.932   1.768   1.930  0.6561  1.6981  0.7825
  358MOL0     H48279   2.121   1.906   2.048  1.4046  1.6062 -0.0321
  358MOL0     H48280   2.212   1.883   1.898  0.5994 -0.0118  0.8090
  358MOL0     H48281   2.337   1.633   1.895  2.7149  1.4849  0.8932
  358MOL0     H48282   2.318   1.355   1.940 -0.0888 -4.0023  0.9442
  358MOL0     H48283   2.446   1.392   2.053 -0.1331  2.3945  2.1813
  358MOL0     H48284   2.290   1.298   2.233 -1.1603 -1.6663  1.9018
  358MOL0     H48285   2.355   1.179   2.122 -1.2682 -0.0498 -0.0605
  358MOL0     H48286   2.193   1.135   1.986 -0.9651  1.8537 -2.3030
  358MOL0     H48287   2.095   1.276   2.015 -0.8432 -1.8694 -1.2790
  358MOL0     H48288   2.143   1.025   2.180 -0.8937 -0.9944  0.2282
  358MOL0     H48289   1.988   1.070   2.102  2.3467 -4.6707 -2.5114
  358MOL0     H48290   1.876   1.277   2.420  1.5561  0.7784  1.4738
  358MOL0     H48291   1.761   1.337   2.620 -0.0714 -0.1079  0.4475
  358MOL0     H48292   1.682   1.206   2.719  0.7134 -3.9195 -1.3998
  358MOL0     H48293   1.837   1.276   2.766  1.5868 -0.6629 -0.6188
  358MOL0     H48294   2.003   1.024   3.033  0.6201 -2.3803 -1.4157
  358MOL0     H48295   1.986   0.969   3.279  1.1004  2.3849  0.9400
  358MOL0     H48296   1.558   0.939   3.451 -0.6633 -0.1165  1.8568
  358MOL0     H48297   1.619   0.766   3.442 -1.0907 -0.7964  3.1246
  358MOL0     H48298   1.662   0.977   3.635 -3.4657  0.8038 -0.4750
  358MOL0     H48299   1.548   0.840   3.644  0.2427  0.1143  0.1834
  358MOL0     H48300   1.824   0.841   3.733 -0.7486 -0.1393  0.4131
  358MOL0     H48301   1.811   0.722   3.598 -0.9984  1.4823 -1.8404
  358MOL0     H48302   1.650   0.730   3.859 -3.6857 -3.9724  1.6437
  358MOL0     H48303   1.621   0.641   3.702  0.5266 -1.8396  1.1089
  358MOL0     H48304   1.873   0.613   3.875  0.6878 -1.2317 -0.6297
  358MOL0     H48305   1.850   0.549   3.717  2.4518  2.1647  0.2286
  358MOL0     H48306   1.818   0.396   3.913 -0.6259 -0.6244 -1.1000
  358MOL0     H48307   1.688   0.508   3.962 -4.9751 -0.1687 -2.9944
  358MOL0     H48308   1.525   0.438   3.795  0.6329  0.7890  2.2769
  358MOL0     H48309   1.582   0.299   3.870 -0.7778  0.4658  1.3747
  358MOL0     H48310   1.675   0.398   3.596  2.0152  0.3096  0.8778
  358MOL0     H48311   1.584   0.248   3.638 -1.3564  0.7854 -0.6252
  358MOL0     H48312   1.552   0.951   3.229  0.3640 -2.4403  0.0455
  358MOL0     H48313   1.582   1.009   3.010 -2.4813  0.3904  2.9201
  358MOL0     H48314   2.017   0.850   2.608  0.7359 -0.0031 -0.5932
  358MOL0     H48315   2.086   0.920   2.381 -1.0888 -2.6514  1.8458
  358MOL0     H48316   1.954   2.133   0.938  1.0301 -1.4608 -2.8209
  358MOL0     H48317   2.110   2.151   0.757 -2.9115 -1.1487  0.3088
  358MOL0     H48318   2.468   1.974   0.555  1.4291 -1.5911 -0.4526
  358MOL0     H48319   2.605   1.962   0.367 -2.8977 -0.2178 -0.9280
  358MOL0     H48320   2.788   2.355   0.203  0.3282  2.4830 -3.9352
  358MOL0     H48321   2.851   2.244   0.099  0.4400  4.2874 -0.4423
  358MOL0     H48322   2.546   2.330   0.097 -1.6549  0.1606 -2.8897
  358MOL0     H48323   2.614   2.222  -0.016  0.1411 -0.0336  0.0973
  358MOL0     H48324   2.759   2.406  -0.106 -0.9750 -0.7950 -0.0583
  358MOL0     H48325   2.716   2.510   0.038 -1.6881  0.6271 -0.1692
  358MOL0     H48326   2.554   2.394  -0.195  1.9747 -2.5905  2.3876
  358MOL0     H48327   2.605   2.564  -0.192  0.3566 -0.0422  0.3445
  358MOL0     H48328   2.255   2.578   0.063  1.4663  4.0000 -0.5503
  358MOL0     H48329   2.642   2.374   0.336  3.7901  1.0643  0.3521
  358MOL0     H48330   2.526   2.406   0.556 -2.0254  0.3669  0.4768
  359MOL0     O48331   7.540   7.405   1.350 -0.1119 -0.5080  0.2677
  359MOL0     C48332   7.444   7.451   1.410 -0.1316 -0.4645 -0.3484
  359MOL0     O48333   7.437   7.575   1.460 -0.2954 -0.0984 -1.0483
  359MOL0     C48334   7.538   7.661   1.476  0.5519 -0.3224  0.6262
  359MOL0     C48335   7.679   7.655   1.432 -0.0223  0.3851 -0.1094
  359MOL0     C48336   7.771   7.750   1.484 -0.4956  0.0313 -0.7853
  359MOL0     C48337   7.724   7.862   1.562 -0.6818  0.4194 -0.3519
  359MOL0     O48338   7.804   7.968   1.612  0.1926  0.9825  0.5994
  359MOL0     C48339   7.935   7.971   1.564 -0.6420 -0.0864  0.7358
  359MOL0     C48340   8.011   8.089   1.633 -1.1334 -1.0490  0.4734
  359MOL0     C48341   7.927   8.219   1.639  0.4221  0.5280  0.3399
  359MOL0     C48342   8.016   8.346   1.655  0.0205 -0.1437 -1.0908
  359MOL0     C48343   8.127   8.326   1.767  0.5493  1.0601  0.5444
  359MOL0     C48344   8.166   8.472   1.810 -0.5634 -0.1021 -0.8119
  359MOL0     C48345   8.287   8.469   1.904 -1.0109 -0.7279 -0.6001
  359MOL0     C48346   8.325   8.611   1.954  0.1036 -0.3176 -0.6691
  359MOL0     N48347   8.398   8.686   1.858  0.4367 -0.2663  0.0268
  359MOL0     C48348   8.534   8.690   1.831  0.6235  0.6787 -0.4617
  359MOL0     C48349   8.548   8.752   1.712  0.5177 -0.2980  0.7188
  359MOL0     C48350   8.680   8.780   1.637 -0.2452 -0.1266  0.3938
  359MOL0     C48351   8.723   8.925   1.632 -0.2684 -0.0357 -0.4270
  359MOL0     C48352   8.743   8.977   1.780 -0.2083 -0.6649  0.0881
  359MOL0     C48353   8.803   9.122   1.768 -0.3427  0.6471 -0.5891
  359MOL0     O48354   8.939   9.118   1.718  0.1088 -0.1827 -0.5975
  359MOL0     C48355   9.027   9.221   1.748  0.0329 -0.4953 -0.4456
  359MOL0     C48356   9.001   9.315   1.842  0.3142 -0.2584  0.1371
  359MOL0     C48357   9.081   9.429   1.853  0.4323  0.1582 -0.0988
  359MOL0     C48358   9.040   9.534   1.963 -0.4123 -0.1097  0.6390
  359MOL0     C48359   9.194   9.440   1.766 -0.3684  0.4610 -0.2604
  359MOL0     C48360   9.299   9.543   1.784 -0.1836  0.6495  0.6077
  359MOL0     O48361   9.359   9.599   1.667  0.1468 -0.0207 -1.3863
  359MOL0     C48362   9.494   9.614   1.668  0.3135 -0.6885  0.8918
  359MOL0     C48363   9.541   9.733   1.605 -0.0168 -0.0633  0.5418
  359MOL0     C48364   9.679   9.766   1.595 -0.2222  0.0513 -0.3247
  359MOL0     C48365   9.764   9.685   1.663 -0.4748 -0.3918 -0.7264
  359MOL0     O48366   9.903   9.720   1.670 -0.7386  0.2061  0.5108
  359MOL0     C48367   9.963   9.721   1.539 -1.0390 -0.1270 -0.2741
  359MOL0     C48368  10.097   9.793   1.583  1.2567 -0.0616  0.6639
  359MOL0     C48369  10.149   9.864   1.454 -0.6187 -0.1445 -0.3829
  359MOL0     C48370  10.271   9.792   1.387 -0.0721  0.2151  0.2589
  359MOL0     C48371  10.253   9.726   1.246 -0.0066 -0.2556  0.0496
  359MOL0     C48372  10.391   9.640   1.210  1.0444 -0.6178 -0.5431
  359MOL0     C48373  10.362   9.553   1.091  1.0302 -0.2023 -1.0043
  359MOL0     C48374  10.479   9.460   1.047  0.5146  0.9405 -0.0834
  359MOL0    Cl48375  10.418   9.347   0.920  0.1278 -0.0165 -0.0428
  359MOL0     C48376   9.719   9.571   1.727 -0.7007 -0.9601 -0.4639
  359MOL0     C48377   9.584   9.533   1.725 -0.5066  0.5188  0.2248
  359MOL0     O48378   9.334   9.575   1.897 -0.6327  0.0821  0.2514
  359MOL0     C48379   9.222   9.344   1.668 -0.8059 -0.2104  0.6732
  359MOL0     C48380   9.138   9.230   1.658  0.4823  0.4720 -0.2882
  359MOL0     N48381   8.422   8.788   1.677 -0.2378 -0.3565 -0.8566
  359MOL0     N48382   8.333   8.762   1.772  0.4555  0.1542 -0.0100
  359MOL0     C48383   7.594   7.872   1.594 -0.4366 -1.0686  0.5390
  359MOL0     C48384   7.506   7.780   1.541  0.3864  1.1982 -0.4546
  359MOL0     C48385   7.318   7.376   1.420 -0.5076 -0.0633 -0.0277
  359MOL0     C48386   7.307   7.255   1.352  0.2395  0.6026 -0.2077
  359MOL0     C48387   7.182   7.191   1.340  0.2646 -0.5247 -0.2484
  359MOL0     C48388   7.069   7.251   1.396  0.1913  0.2226 -0.7351
  359MOL0     O48389   6.944   7.196   1.392 -0.1442 -0.3607 -0.4714
  359MOL0     C48390   6.936   7.058   1.352  0.3903 -0.3596 -0.0650
  359MOL0     C48391   6.816   6.983   1.391  1.2657 -0.5087 -0.9585
  359MOL0     C48392   6.812   6.848   1.318 -0.5037  0.1854  0.0302
  359MOL0     C48393   6.732   6.734   1.373  0.0894  1.4142 -0.3649
  359MOL0     C48394   6.590   6.773   1.394 -0.3054  0.3488  0.0512
  359MOL0     C48395   6.469   6.782   1.401 -0.9565  0.3751  0.2315
  359MOL0     C48396   7.081   7.369   1.470 -0.4524 -0.7099  0.5463
  359MOL0     C48397   7.209   7.427   1.490  0.4926  0.1706  0.7572
  359MOL0     H48398   7.711   7.569   1.373 -0.9930 -0.9081  1.1548
  359MOL0     H48399   7.874   7.745   1.451 -0.1717  3.1861 -0.6284
  359MOL0     H48400   7.984   7.874   1.580  1.3701  0.6581 -0.4455
  359MOL0     H48401   7.935   7.978   1.454 -0.8485 -4.3213  0.2699
  359MOL0     H48402   8.058   8.065   1.729  0.6920  0.8372  0.1175
  359MOL0     H48403   8.104   8.122   1.585 -2.9048  1.8163 -1.2430
  359MOL0     H48404   7.875   8.232   1.544 -0.5086  2.5879  1.0707
  359MOL0     H48405   7.847   8.214   1.713  0.6769 -0.6250  0.5565
  359MOL0     H48406   8.068   8.381   1.565 -0.7070  1.0932 -1.0565
  359MOL0     H48407   7.953   8.427   1.692  1.8132  0.2692  1.3257
  359MOL0     H48408   8.088   8.272   1.854 -1.9617 -2.1013 -2.3040
  359MOL0     H48409   8.213   8.263   1.744  0.7569  0.6612  2.2819
  359MOL0     H48410   8.197   8.522   1.719  0.4028 -1.1699 -1.0928
  359MOL0     H48411   8.080   8.518   1.859  0.5422  0.6012  0.5330
  359MOL0     H48412   8.255   8.398   1.980 -0.6348 -0.0965  0.1702
  359MOL0     H48413   8.375   8.434   1.849 -0.5765 -1.8993  0.8071
  359MOL0     H48414   8.388   8.607   2.044  1.3089  2.0009 -1.3268
  359MOL0     H48415   8.230   8.660   1.978 -0.3855  0.3348 -3.5868
  359MOL0     H48416   8.610   8.640   1.891 -1.0916 -0.5956  0.7552
  359MOL0     H48417   8.765   8.728   1.682  1.0150  0.4768 -1.1775
  359MOL0     H48418   8.676   8.752   1.532  2.8303  1.0840 -0.1719
  359MOL0     H48419   8.642   8.970   1.573  1.2092  0.1932 -2.3779
  359MOL0     H48420   8.820   8.929   1.584  0.8305 -1.0159  1.5642
  359MOL0     H48421   8.806   8.909   1.838 -0.4929 -2.3192 -1.4412
  359MOL0     H48422   8.642   8.988   1.822 -0.4469  0.8856 -0.8119
  359MOL0     H48423   8.808   9.153   1.873  1.0924  2.2162 -1.0616
  359MOL0     H48424   8.745   9.195   1.711 -0.3404 -0.2679 -1.8005
  359MOL0     H48425   8.924   9.316   1.918 -0.2049 -1.5584 -0.3518
  359MOL0     H48426   8.931   9.540   1.975 -0.5822  0.7440 -0.9683
  359MOL0     H48427   9.076   9.510   2.063 -1.8906 -2.7199  0.6225
  359MOL0     H48428   9.093   9.629   1.951  0.0140 -0.6204 -2.2225
  359MOL0     H48429   9.466   9.809   1.585 -1.9697 -2.5397 -2.5807
  359MOL0     H48430   9.710   9.860   1.550 -0.0476 -0.5532 -1.4875
  359MOL0     H48431   9.985   9.625   1.492  2.0178 -0.3334  1.2953
  359MOL0     H48432   9.908   9.783   1.469  2.2504  0.6855 -2.3643
  359MOL0     H48433  10.067   9.872   1.653 -3.4758 -0.1027 -0.9579
  359MOL0     H48434  10.169   9.724   1.627 -0.6368 -0.7386  2.9328
  359MOL0     H48435  10.181   9.957   1.503  1.0936 -1.8455  1.9855
  359MOL0     H48436  10.076   9.880   1.375 -0.6399  1.2113 -0.1198
  359MOL0     H48437  10.347   9.870   1.384 -2.0505  2.4124  2.3123
  359MOL0     H48438  10.312   9.719   1.458  3.2579  3.5066  2.0667
  359MOL0     H48439  10.238   9.810   1.178  0.1378 -2.5459 -3.0796
  359MOL0     H48440  10.161   9.668   1.232  1.2837 -2.5672  0.6392
  359MOL0     H48441  10.464   9.718   1.186  0.7946  0.0465  0.7674
  359MOL0     H48442  10.436   9.594   1.299 -2.3624 -0.0567  1.6870
  359MOL0     H48443  10.350   9.619   1.005  1.3359  3.2966  1.4052
  359MOL0     H48444  10.278   9.484   1.093 -0.2150  1.2497 -1.5801
  359MOL0     H48445  10.508   9.399   1.133  0.7629  0.0228 -0.8087
  359MOL0     H48446  10.565   9.510   1.002  2.2306 -0.6205  1.3179
  359MOL0     H48447   9.797   9.502   1.756 -0.7874 -0.3978  1.2096
  359MOL0     H48448   9.548   9.440   1.768 -0.2281  1.3259  2.3648
  359MOL0     H48449   9.300   9.343   1.593 -1.2555  2.8428  0.0462
  359MOL0     H48450   9.149   9.159   1.577  2.2259 -0.6470  0.8631
  359MOL0     H48451   7.557   7.952   1.657  1.7731  0.9980 -0.6426
  359MOL0     H48452   7.399   7.790   1.559 -0.2026 -0.5392 -2.5391
  359MOL0     H48453   7.396   7.203   1.320 -1.0039 -2.6431  1.1832
  359MOL0     H48454   7.171   7.107   1.273 -0.2779 -0.6780  0.0238
  359MOL0     H48455   6.924   7.053   1.243 -0.3829 -0.8419  0.0367
  359MOL0     H48456   7.027   7.004   1.381  1.0279  1.3509  1.2736
  359MOL0     H48457   6.729   7.043   1.361  2.7669  3.2253  1.3270
  359MOL0     H48458   6.811   6.956   1.497 -1.2991 -0.1368 -0.9297
  359MOL0     H48459   6.914   6.809   1.315 -1.5298 -3.2298  2.7888
  359MOL0     H48460   6.778   6.877   1.219  0.0135  1.0606  0.0947
  359MOL0     H48461   6.783   6.684   1.456  2.5602 -0.9947 -3.1116
  359MOL0     H48462   6.723   6.657   1.296 -2.8193  2.1505 -0.8785
  359MOL0     H48463   6.364   6.766   1.410 -1.0639  1.3562  0.8380
  359MOL0     H48464   6.995   7.411   1.521 -1.4849 -0.9751 -0.9331
  359MOL0     H48465   7.204   7.525   1.535  1.5484  1.2415 -1.2935
  360MOL0     O48466   5.185   4.116  10.258  0.9913 -0.5236  0.0170
  360MOL0     C48467   5.111   4.213  10.244  0.4392  1.7593 -0.6302
  360MOL0     O48468   5.148   4.330  10.180  1.1687 -0.5027 -0.7392
  360MOL0     C48469   5.273   4.356  10.136  0.1192 -0.2856  0.1280
  360MOL0     C48470   5.299   4.350   9.997 -0.0745  0.3301 -0.0722
  360MOL0     C48471   5.426   4.372   9.947  0.0965 -0.5568 -0.0383
  360MOL0     C48472   5.525   4.419  10.028 -0.1940  0.4087  0.7786
  360MOL0     O48473   5.631   4.461   9.957 -0.7573  0.3439  0.0025
  360MOL0     C48474   5.758   4.474  10.031 -0.0816 -0.2879 -0.3467
  360MOL0     C48475   5.852   4.525   9.920 -0.7294  0.2213 -0.1883
  360MOL0     C48476   5.883   4.411   9.830  0.3052 -0.9630  1.0513
  360MOL0     C48477   5.996   4.444   9.729 -0.0138 -0.5452 -0.3481
  360MOL0     C48478   5.996   4.584   9.665  0.2470 -0.4481  0.6732
  360MOL0     C48479   5.872   4.620   9.576 -0.0109  0.7962  0.1321
  360MOL0     C48480   5.845   4.770   9.572  0.0482  0.6692 -0.1316
  360MOL0     C48481   5.968   4.837   9.496  0.5983 -0.6344 -0.8046
  360MOL0     N48482   5.963   4.979   9.522  0.2892 -0.0161  0.1735
  360MOL0     C48483   5.910   5.082   9.442  0.9266  0.9614 -0.4184
  360MOL0     C48484   5.949   5.202   9.501  0.4487  1.2488  0.2341
  360MOL0     C48485   5.887   5.333   9.461 -0.5926 -0.2012  0.0591
  360MOL0     C48486   5.954   5.441   9.550  0.1671  0.3732 -0.3138
  360MOL0     C48487   5.937   5.589   9.514 -0.4069 -0.1249 -0.1187
  360MOL0     C48488   5.967   5.619   9.367 -0.5143 -0.2379 -0.5681
  360MOL0     O48489   5.871   5.706   9.302 -0.1587 -0.4198 -0.0136
  360MOL0     C48490   5.844   5.835   9.362 -0.0493 -0.6933 -0.0247
  360MOL0     C48491   5.923   5.946   9.341 -0.4105 -1.3910  0.1728
  360MOL0     C48492   5.896   6.077   9.390 -0.1447  0.5479  0.7203
  360MOL0     C48493   5.984   6.198   9.330  0.1487  0.1267 -0.4393
  360MOL0     C48494   5.785   6.092   9.476 -0.0051  0.5398 -0.8596
  360MOL0     C48495   5.739   6.225   9.532 -0.6275 -0.4532 -0.0454
  360MOL0     O48496   5.824   6.334   9.534  0.0167  1.1070  0.2013
  360MOL0     C48497   5.787   6.454   9.597 -0.2342  0.2589  0.1231
  360MOL0     C48498   5.848   6.573   9.555 -0.8661 -0.2609  0.3485
  360MOL0     C48499   5.818   6.691   9.615 -0.2349  0.0650  0.3868
  360MOL0     C48500   5.735   6.701   9.730  0.1395 -0.1335  0.1325
  360MOL0     O48501   5.731   6.816   9.794  0.1307 -1.4494 -0.2409
  360MOL0     C48502   5.648   6.827   9.920 -0.3323 -0.5901 -0.2726
  360MOL0     C48503   5.674   6.966   9.961 -0.2491  0.1456 -0.5210
  360MOL0     C48504   5.811   6.994  10.013  0.3454 -0.1269  0.2208
  360MOL0     C48505   5.834   7.125  10.081 -0.4495 -0.2902 -0.1744
  360MOL0     C48506   5.985   7.176  10.094  0.5281  0.0273  0.3972
  360MOL0     C48507   5.982   7.296  10.177 -0.3480 -0.1625  0.0247
  360MOL0     C48508   6.131   7.320  10.227 -0.1740  0.6059 -0.6708
  360MOL0     C48509   6.218   7.365  10.111  0.2379 -0.2873  0.4811
  360MOL0    Cl48510   6.396   7.356  10.144  0.0045  0.1381 -0.0520
  360MOL0     C48511   5.668   6.583   9.768 -1.4054  0.6213 -0.2951
  360MOL0     C48512   5.708   6.461   9.711 -0.5618  0.0866 -0.2003
  360MOL0     O48513   5.621   6.237   9.557 -0.1642  0.5615  0.3914
  360MOL0     C48514   5.697   5.976   9.493  0.7216  0.5459 -0.1139
  360MOL0     C48515   5.726   5.854   9.424  1.3866 -0.2239 -0.3623
  360MOL0     N48516   6.015   5.168   9.612  0.3161 -0.3554 -0.2955
  360MOL0     N48517   6.029   5.039   9.626  0.4409 -0.8655  0.1476
  360MOL0     C48518   5.506   4.417  10.165  0.2412 -0.7454 -0.0539
  360MOL0     C48519   5.382   4.376  10.215 -0.3126 -0.0222 -0.4239
  360MOL0     C48520   4.977   4.207  10.285  0.1867  0.8125 -0.2597
  360MOL0     C48521   4.922   4.084  10.330 -0.0226 -0.1160  0.4464
  360MOL0     C48522   4.782   4.069  10.358 -0.5583 -0.3579  0.1740
  360MOL0     C48523   4.693   4.171  10.334  0.4683 -0.1381 -0.2211
  360MOL0     O48524   4.559   4.177  10.378 -0.8904 -0.8727  0.2706
  360MOL0     C48525   4.537   4.145  10.512 -0.3290  0.3459 -1.9289
  360MOL0     C48526   4.390   4.139  10.563  0.2841  0.9102  0.1020
  360MOL0     C48527   4.318   4.276  10.559  0.3596  0.8338  0.6955
  360MOL0     C48528   4.332   4.335  10.700 -0.5691  0.4267 -0.6390
  360MOL0     C48529   4.229   4.295  10.796 -0.0423  0.5030 -0.1790
  360MOL0     C48530   4.147   4.253  10.873 -0.0810 -0.2264 -0.6385
  360MOL0     C48531   4.745   4.291  10.286 -1.0254  0.3882 -0.0925
  360MOL0     C48532   4.882   4.313  10.263  0.6227  0.5311  0.9863
  360MOL0     H48533   5.226   4.317   9.923  3.0043 -0.8690 -2.7971
  360MOL0     H48534   5.444   4.376   9.840 -1.9079 -2.5461 -0.5156
  360MOL0     H48535   5.754   4.541  10.117  0.6481 -0.6380 -0.0340
  360MOL0     H48536   5.793   4.375  10.063 -1.8989 -1.9275 -2.9600
  360MOL0     H48537   5.815   4.616   9.872  0.7825  2.2450  2.2782
  360MOL0     H48538   5.943   4.555   9.971 -0.6066 -1.7210  0.8507
  360MOL0     H48539   5.920   4.323   9.883  3.6732  0.0316  0.5863
  360MOL0     H48540   5.789   4.398   9.775  2.1819  1.3858 -3.2065
  360MOL0     H48541   6.096   4.438   9.772  0.3441  2.7319 -0.4908
  360MOL0     H48542   5.976   4.370   9.651  0.1794  1.1904 -2.1063
  360MOL0     H48543   6.004   4.655   9.748 -0.3442 -1.3094  1.4932
  360MOL0     H48544   6.086   4.595   9.604 -2.0361  1.0477 -2.7560
  360MOL0     H48545   5.889   4.581   9.475 -1.4783  0.0239  0.1595
  360MOL0     H48546   5.781   4.565   9.600 -0.1780 -1.4111 -4.4074
  360MOL0     H48547   5.751   4.799   9.524  0.0546  0.7690 -0.0840
  360MOL0     H48548   5.843   4.801   9.677  0.1763  0.2490 -0.0010
  360MOL0     H48549   5.950   4.817   9.390 -4.2973  2.6743 -0.9275
  360MOL0     H48550   6.063   4.791   9.525  0.0089 -4.3968 -4.0024
  360MOL0     H48551   5.865   5.074   9.344 -0.6279  2.2532  0.1503
  360MOL0     H48552   5.901   5.355   9.355  1.8499 -2.0756 -0.1015
  360MOL0     H48553   5.779   5.327   9.472 -0.5105 -2.1401  0.1440
  360MOL0     H48554   6.060   5.415   9.550 -0.4931 -2.9633 -1.9195
  360MOL0     H48555   5.923   5.435   9.655  0.3691 -1.7305 -0.3358
  360MOL0     H48556   5.993   5.652   9.583 -0.6130  1.3636 -1.2621
  360MOL0     H48557   5.836   5.619   9.543  0.0399  1.0150  0.2828
  360MOL0     H48558   5.972   5.530   9.304  2.0930 -0.7971  0.2889
  360MOL0     H48559   6.071   5.652   9.372  0.0423 -2.1113  2.6156
  360MOL0     H48560   6.012   5.935   9.281 -1.1929  0.0052 -1.3272
  360MOL0     H48561   6.070   6.155   9.277  1.1840  0.8850  0.5567
  360MOL0     H48562   5.918   6.254   9.264 -0.4454  0.6948  0.6123
  360MOL0     H48563   6.018   6.266   9.408 -3.7948  3.9262 -1.6712
  360MOL0     H48564   5.924   6.585   9.478 -1.4785  1.5880 -0.0073
  360MOL0     H48565   5.861   6.786   9.584  0.1549 -1.4587 -4.5343
  360MOL0     H48566   5.544   6.804   9.897 -0.8183 -0.5019  1.6274
  360MOL0     H48567   5.683   6.765  10.003  2.5770 -0.8532 -1.5592
  360MOL0     H48568   5.658   7.025   9.870 -1.3322  0.9011  0.1334
  360MOL0     H48569   5.595   7.002  10.028  0.4290  2.3758 -0.8685
  360MOL0     H48570   5.858   7.010   9.916 -0.5364 -0.3711 -0.2518
  360MOL0     H48571   5.862   6.906  10.053  3.8044  0.3233 -2.6866
  360MOL0     H48572   5.773   7.204  10.036 -1.0716 -0.8474 -0.3165
  360MOL0     H48573   5.795   7.104  10.181 -0.0687  0.9968  0.2587
  360MOL0     H48574   6.032   7.187   9.996 -0.4849  0.3076 -0.0649
  360MOL0     H48575   6.046   7.102  10.146  1.4743  0.6111  0.1482
  360MOL0     H48576   5.951   7.382  10.117 -3.4842 -1.4560 -0.4290
  360MOL0     H48577   5.925   7.285  10.269  1.2547  2.0014  1.3837
  360MOL0     H48578   6.186   7.238  10.275  0.7613  2.9329  2.5605
  360MOL0     H48579   6.129   7.395  10.307 -2.8612 -0.8125  0.7653
  360MOL0     H48580   6.192   7.466  10.078  1.3788 -1.1334 -3.5972
  360MOL0     H48581   6.200   7.323  10.011 -2.3451  3.7192 -1.0220
  360MOL0     H48582   5.614   6.584   9.862  1.8461 -1.3232  1.7704
  360MOL0     H48583   5.671   6.371   9.761  1.8111 -0.6234  0.4086
  360MOL0     H48584   5.601   5.977   9.543  1.8462 -3.0808  2.5453
  360MOL0     H48585   5.655   5.773   9.410 -1.1372  1.9674 -1.2251
  360MOL0     H48586   5.580   4.463  10.229 -1.5864  0.0960  1.5926
  360MOL0     H48587   5.352   4.368  10.319 -1.7029 -1.7125 -0.8963
  360MOL0     H48588   4.982   3.993  10.335 -1.9772 -1.3821  2.0965
  360MOL0     H48589   4.751   3.970  10.390 -2.9391  0.4924  0.6616
  360MOL0     H48590   4.571   4.043  10.532 -0.0579  0.5937 -1.0876
  360MOL0     H48591   4.596   4.209  10.578 -1.4682 -0.5089 -0.0158
  360MOL0     H48592   4.387   4.106  10.667 -1.7663  0.8903  0.0884
  360MOL0     H48593   4.345   4.062  10.498  0.2371  0.4135  0.7114
  360MOL0     H48594   4.212   4.264  10.536  0.4861 -1.4643  1.0083
  360MOL0     H48595   4.369   4.338  10.485 -0.7138  3.2597  1.8790
  360MOL0     H48596   4.349   4.443  10.694 -0.4942  0.3679 -1.6184
  360MOL0     H48597   4.428   4.310  10.746  0.0208  4.8398  0.9775
  360MOL0     H48598   4.082   4.214  10.949  1.0239 -2.2433 -0.6615
  360MOL0     H48599   4.663   4.362  10.279 -0.7516  0.8220  0.9082
  360MOL0     H48600   4.912   4.408  10.220  2.8104  0.2237  1.6870
  361MOL0     O48601   2.707   3.388   5.563  0.3261 -0.2319 -0.3876
  361MOL0     C48602   2.649   3.379   5.671 -0.3776 -0.0689 -0.1397
  361MOL0     O48603   2.610   3.253   5.722 -0.1151 -0.3951 -0.2392
  361MOL0     C48604   2.611   3.137   5.655 -0.1882  0.1274 -0.6518
  361MOL0     C48605   2.640   3.110   5.513  0.2296 -0.4711 -0.0924
  361MOL0     C48606   2.667   2.977   5.480  0.1568  0.5495  0.6665
  361MOL0     C48607   2.665   2.871   5.570 -0.5524 -0.8522 -0.0691
  361MOL0     O48608   2.696   2.748   5.516  0.6199 -0.2066  0.0312
  361MOL0     C48609   2.665   2.631   5.592 -0.3186  0.5927  0.2798
  361MOL0     C48610   2.729   2.508   5.514 -0.0749 -0.4140 -0.5293
  361MOL0     C48611   2.664   2.493   5.380  0.0428 -1.1904  0.4687
  361MOL0     C48612   2.715   2.374   5.302  0.9322  0.5321 -0.6177
  361MOL0     C48613   2.659   2.366   5.155 -0.0116 -0.9044 -0.2178
  361MOL0     C48614   2.714   2.477   5.062  0.0907  0.5132 -0.4390
  361MOL0     C48615   2.691   2.443   4.916 -0.5950  0.4935  0.1286
  361MOL0     C48616   2.770   2.535   4.819  0.4521  0.3741 -0.4634
  361MOL0     N48617   2.709   2.674   4.806 -0.9299 -0.1032  0.0496
  361MOL0     C48618   2.631   2.722   4.700 -0.5283  0.5095 -0.2424
  361MOL0     C48619   2.579   2.835   4.742 -0.0002 -1.7631 -0.1368
  361MOL0     C48620   2.488   2.931   4.667 -0.8912 -0.2178 -0.5516
  361MOL0     C48621   2.566   3.026   4.576  0.1086 -0.4592  0.3670
  361MOL0     C48622   2.667   3.110   4.654 -0.5513 -0.1217  0.8016
  361MOL0     C48623   2.747   3.217   4.569  0.9123  0.9430 -0.1958
  361MOL0     O48624   2.671   3.297   4.480  0.1779 -0.5956 -0.3500
  361MOL0     C48625   2.584   3.393   4.532 -0.4688 -0.1460 -0.3897
  361MOL0     C48626   2.599   3.459   4.659  0.2463 -0.7188  0.6157
  361MOL0     C48627   2.502   3.552   4.714  0.0410 -0.8913  0.2919
  361MOL0     C48628   2.531   3.615   4.847  0.3437  0.2570 -0.3843
  361MOL0     C48629   2.396   3.585   4.624 -0.0385  0.8911  0.7339
  361MOL0     C48630   2.277   3.669   4.654  0.1925  0.2244  0.9285
  361MOL0     O48631   2.233   3.747   4.554  0.6028 -0.1953  0.0784
  361MOL0     C48632   2.109   3.806   4.576 -0.2398  0.8891  0.2565
  361MOL0     C48633   1.995   3.726   4.554 -0.2146 -0.4497  0.0327
  361MOL0     C48634   1.871   3.780   4.558  0.3430 -0.5405  1.1829
  361MOL0     C48635   1.846   3.916   4.580 -0.3269  0.2075 -0.4239
  361MOL0     O48636   1.720   3.980   4.581 -0.4793 -0.5825 -0.8195
  361MOL0     C48637   1.616   3.938   4.491 -0.2824 -0.0358 -0.8516
  361MOL0     C48638   1.623   3.997   4.354  0.2810 -0.1199 -0.9247
  361MOL0     C48639   1.600   4.155   4.360 -0.4741  0.5200 -1.5778
  361MOL0     C48640   1.497   4.197   4.255  0.1433  0.5442 -1.7279
  361MOL0     C48641   1.454   4.338   4.293  0.2830  0.0515 -0.5277
  361MOL0     C48642   1.380   4.414   4.179  0.3206  0.1816 -0.7431
  361MOL0     C48643   1.351   4.557   4.227  0.0381 -1.3850 -0.7179
  361MOL0     C48644   1.474   4.652   4.189  0.6276 -0.3417 -0.3573
  361MOL0    Cl48645   1.407   4.819   4.212  0.1820 -0.5896 -0.4036
  361MOL0     C48646   1.963   4.003   4.588 -0.1576  0.6980  0.2865
  361MOL0     C48647   2.096   3.947   4.589  0.3438  0.1508  0.2142
  361MOL0     O48648   2.239   3.666   4.769  0.9428  0.2072 -0.0539
  361MOL0     C48649   2.394   3.544   4.490 -1.0754  0.1737  1.7193
  361MOL0     C48650   2.479   3.445   4.449  0.1420 -0.5102 -0.2266
  361MOL0     N48651   2.623   2.847   4.878 -0.9303  0.0435  0.4537
  361MOL0     N48652   2.716   2.766   4.909 -0.0956 -0.5034  0.3946
  361MOL0     C48653   2.623   2.895   5.707 -0.4933  0.0901  1.0888
  361MOL0     C48654   2.604   3.031   5.741 -0.6057 -0.4927 -0.3321
  361MOL0     C48655   2.645   3.502   5.741  0.5544  0.2549  0.2124
  361MOL0     C48656   2.668   3.625   5.685  0.0415 -0.1378  0.0955
  361MOL0     C48657   2.663   3.739   5.761  0.8173 -1.0352 -0.0156
  361MOL0     C48658   2.649   3.739   5.900 -0.3225  0.8724  0.4026
  361MOL0     O48659   2.650   3.869   5.956 -1.1253 -0.0613  0.4392
  361MOL0     C48660   2.563   3.880   6.078 -0.5016  0.8942  0.1554
  361MOL0     C48661   2.544   4.027   6.108  0.0851  0.2082 -0.4563
  361MOL0     C48662   2.407   4.088   6.056 -0.5003  0.0778  0.0673
  361MOL0     C48663   2.374   4.220   6.129 -0.1254  0.2011 -0.3603
  361MOL0     C48664   2.338   4.182   6.270 -0.7325 -0.8799 -0.4988
  361MOL0     C48665   2.311   4.170   6.387  0.1550 -0.5125  0.9306
  361MOL0     C48666   2.615   3.612   5.953  0.1272 -0.4670 -0.6078
  361MOL0     C48667   2.621   3.496   5.873  0.4333 -0.7213 -0.3023
  361MOL0     H48668   2.649   3.180   5.430  3.3218 -0.9803 -0.3210
  361MOL0     H48669   2.691   2.965   5.375 -1.0051  1.4634  0.2698
  361MOL0     H48670   2.709   2.639   5.692 -2.1725  1.3005  1.0783
  361MOL0     H48671   2.559   2.614   5.611  0.1141 -0.5528  1.8999
  361MOL0     H48672   2.836   2.527   5.501  0.1849  0.0572  1.8925
  361MOL0     H48673   2.715   2.407   5.554  0.1474 -2.0256 -4.0980
  361MOL0     H48674   2.557   2.496   5.400 -0.3516  1.1277 -1.5270
  361MOL0     H48675   2.687   2.578   5.315  2.5157 -2.0340  0.1289
  361MOL0     H48676   2.821   2.351   5.289  0.5621 -1.2635 -0.8021
  361MOL0     H48677   2.684   2.292   5.367 -1.0196  3.2532  2.2036
  361MOL0     H48678   2.673   2.266   5.115  0.5420 -2.1916  2.9093
  361MOL0     H48679   2.550   2.380   5.158  0.2525  1.4758  0.1661
  361MOL0     H48680   2.673   2.575   5.086  2.1780  1.2573  0.3015
  361MOL0     H48681   2.821   2.490   5.084  0.1808 -1.5358  0.6985
  361MOL0     H48682   2.727   2.342   4.893 -1.0484  0.7766 -2.0452
  361MOL0     H48683   2.582   2.442   4.905 -0.8005  0.7939  1.8350
  361MOL0     H48684   2.759   2.488   4.720  0.3871  2.1231 -1.3238
  361MOL0     H48685   2.869   2.552   4.861  0.0072  3.1517 -0.3635
  361MOL0     H48686   2.623   2.687   4.597 -0.9808  1.9746 -0.7285
  361MOL0     H48687   2.422   2.872   4.604  0.9617 -0.6644 -2.1779
  361MOL0     H48688   2.433   3.000   4.732 -0.8568  0.1848 -0.9441
  361MOL0     H48689   2.492   3.083   4.520 -0.0473  2.6541  3.4169
  361MOL0     H48690   2.620   2.978   4.493 -0.5734  0.7751 -0.8413
  361MOL0     H48691   2.746   3.047   4.696  1.5786 -0.7668 -3.5562
  361MOL0     H48692   2.619   3.174   4.728  0.9832  1.2052  0.7096
  361MOL0     H48693   2.815   3.161   4.506  0.7848  0.8565 -0.2578
  361MOL0     H48694   2.807   3.280   4.636  0.4722  1.7306 -0.5251
  361MOL0     H48695   2.674   3.428   4.730  0.8844  1.6923  1.0678
  361MOL0     H48696   2.513   3.723   4.845  2.4951  0.6529 -1.0444
  361MOL0     H48697   2.477   3.562   4.925  0.7268  0.0783 -0.2378
  361MOL0     H48698   2.639   3.608   4.865  0.4917  0.9389 -0.9483
  361MOL0     H48699   2.004   3.626   4.514 -1.2535 -0.5633  0.0619
  361MOL0     H48700   1.796   3.703   4.567  1.2454 -1.2252  4.3010
  361MOL0     H48701   1.622   3.832   4.464  2.3832 -0.5855  1.4491
  361MOL0     H48702   1.519   3.951   4.540  1.1061 -0.7360  2.3169
  361MOL0     H48703   1.719   3.976   4.304 -0.7442  2.0416 -4.1583
  361MOL0     H48704   1.545   3.951   4.293  0.4726 -2.6391  0.6192
  361MOL0     H48705   1.697   4.198   4.337  0.4742 -0.8754 -0.3886
  361MOL0     H48706   1.563   4.194   4.455  0.0589  0.8270 -1.4928
  361MOL0     H48707   1.539   4.181   4.155  1.1994 -0.4877 -1.1437
  361MOL0     H48708   1.408   4.136   4.272  0.1800  1.0662  0.6628
  361MOL0     H48709   1.543   4.396   4.319  0.4058  0.0514 -0.9451
  361MOL0     H48710   1.398   4.350   4.387 -1.3547  2.0714 -1.6760
  361MOL0     H48711   1.422   4.410   4.078 -1.4791  2.2404 -1.6608
  361MOL0     H48712   1.281   4.368   4.171  0.2334  0.0778  0.6050
  361MOL0     H48713   1.323   4.573   4.331 -2.1904  2.3331 -1.7141
  361MOL0     H48714   1.264   4.584   4.167  1.8690 -1.3287 -3.5391
  361MOL0     H48715   1.496   4.632   4.084 -0.8907 -5.5620  0.0095
  361MOL0     H48716   1.563   4.630   4.249  0.5700 -1.3909 -0.6261
  361MOL0     H48717   1.953   4.110   4.576  0.1768  0.5804 -1.1837
  361MOL0     H48718   2.180   4.013   4.611  0.2571  0.0842  0.7773
  361MOL0     H48719   2.345   3.594   4.407  1.1518  4.3802  2.6520
  361MOL0     H48720   2.476   3.422   4.343  0.6347 -0.3111 -0.2901
  361MOL0     H48721   2.608   2.818   5.782 -1.2384 -0.8660 -0.0086
  361MOL0     H48722   2.578   3.051   5.844 -2.5549  2.3283 -1.2484
  361MOL0     H48723   2.685   3.639   5.579  0.8149  3.1095  0.5370
  361MOL0     H48724   2.652   3.834   5.710 -2.1539 -0.7571  0.9410
  361MOL0     H48725   2.468   3.828   6.066  0.9467 -2.2084  0.8729
  361MOL0     H48726   2.611   3.822   6.159  0.6143  2.3744  0.5940
  361MOL0     H48727   2.633   4.086   6.083 -0.1547  0.7632 -0.0238
  361MOL0     H48728   2.541   4.038   6.216 -1.7182  0.3325 -0.5024
  361MOL0     H48729   2.330   4.012   6.076  0.8232 -1.0564  1.1047
  361MOL0     H48730   2.409   4.104   5.948 -1.2934 -3.3946 -0.6085
  361MOL0     H48731   2.288   4.274   6.087 -0.6066  0.1563  0.5392
  361MOL0     H48732   2.454   4.294   6.139 -0.1719  0.0386  1.7328
  361MOL0     H48733   2.260   4.163   6.481 -0.5965 -2.6509  0.4070
  361MOL0     H48734   2.570   3.596   6.050 -2.2747  0.0068 -1.5687
  361MOL0     H48735   2.608   3.402   5.925 -0.5120 -0.9716 -0.9440
  362MOL0     O48736   4.234   9.239   9.849 -0.5368 -0.0967  0.4405
  362MOL0     C48737   4.198   9.136   9.794 -0.0051 -0.0296 -0.3897
  362MOL0     O48738   4.072   9.091   9.781 -0.6278  0.0013 -0.6422
  362MOL0     C48739   3.977   9.143   9.868 -0.4858  0.0450  1.2952
  362MOL0     C48740   3.965   9.100  10.003  0.4605 -0.2895  0.2936
  362MOL0     C48741   3.862   9.142  10.078 -0.0439  0.2060  0.2620
  362MOL0     C48742   3.763   9.229  10.035 -0.5317 -0.0409  0.0657
  362MOL0     O48743   3.660   9.253  10.117  0.0228  0.3569 -0.4637
  362MOL0     C48744   3.563   9.358  10.068 -0.4150  0.4960 -0.2584
  362MOL0     C48745   3.457   9.392  10.165 -0.3906 -0.7341 -0.8780
  362MOL0     C48746   3.371   9.276  10.227 -0.1130 -0.2829  0.0899
  362MOL0     C48747   3.307   9.308  10.365 -0.0506 -0.5948  0.3019
  362MOL0     C48748   3.226   9.182  10.419  0.2452  0.7878  0.1016
  362MOL0     C48749   3.189   9.225  10.557 -0.0313  0.0530  0.1162
  362MOL0     C48750   3.095   9.133  10.627  0.0361  0.2156  0.3041
  362MOL0     C48751   3.027   9.191  10.740  0.0982  0.8780 -0.0283
  362MOL0     N48752   3.128   9.235  10.848 -0.3627  0.3165  0.3935
  362MOL0     C48753   3.235   9.166  10.887 -0.0635 -0.2831  0.2164
  362MOL0     C48754   3.305   9.260  10.962 -0.7421 -0.4393  0.4520
  362MOL0     C48755   3.434   9.215  11.020  0.4422 -0.3330  0.4114
  362MOL0     C48756   3.417   9.099  11.115 -0.3673 -0.0170 -0.4230
  362MOL0     C48757   3.564   9.097  11.179  0.2035  0.5338 -0.1457
  362MOL0     C48758   3.583   8.980  11.271  0.6228  0.5891 -0.8974
  362MOL0     O48759   3.719   8.949  11.313 -0.5606  0.2282 -0.4788
  362MOL0     C48760   3.779   9.032  11.405 -0.1295 -0.0418  0.4805
  362MOL0     C48761   3.725   9.124  11.494  0.2648  1.0328 -0.4254
  362MOL0     C48762   3.807   9.202  11.583  1.7114 -0.1255 -0.0089
  362MOL0     C48763   3.733   9.281  11.681  0.3157 -0.4149  0.5835
  362MOL0     C48764   3.947   9.201  11.567  0.6316  0.6697  0.0420
  362MOL0     C48765   4.041   9.292  11.639 -0.3255  0.2693  0.2983
  362MOL0     O48766   4.173   9.249  11.650 -0.0689  0.7292 -0.3863
  362MOL0     C48767   4.274   9.340  11.681  0.0791  0.6825  0.1380
  362MOL0     C48768   4.344   9.404  11.580 -0.0352  0.1650  0.2019
  362MOL0     C48769   4.457   9.478  11.611  0.6872 -0.7229  0.3970
  362MOL0     C48770   4.494   9.506  11.744  0.9658  0.7748 -0.2212
  362MOL0     O48771   4.599   9.587  11.779 -0.8960 -0.3011  0.3169
  362MOL0     C48772   4.624   9.684  11.681  0.5331  0.4463 -0.1884
  362MOL0     C48773   4.734   9.774  11.733  0.3074 -0.7595  0.1364
  362MOL0     C48774   4.845   9.700  11.805 -0.2608 -0.3775  0.4500
  362MOL0     C48775   4.978   9.773  11.795  0.2983  0.1937 -0.3154
  362MOL0     C48776   5.087   9.691  11.855 -0.5133 -0.0431  0.0043
  362MOL0     C48777   5.163   9.620  11.744  1.2354 -0.0321  0.0894
  362MOL0     C48778   5.270   9.542  11.815 -0.0871  0.0690  0.1736
  362MOL0     C48779   5.223   9.424  11.901 -0.8177 -0.1155 -0.0518
  362MOL0    Cl48780   5.353   9.300  11.944 -0.3292  0.0854  0.4641
  362MOL0     C48781   4.421   9.440  11.846  0.1881  0.5095  0.5964
  362MOL0     C48782   4.312   9.362  11.814  0.5904  0.5103  1.1450
  362MOL0     O48783   3.993   9.394  11.671 -0.5649 -0.1399 -0.4129
  362MOL0     C48784   3.994   9.100  11.483 -0.0992 -0.0834 -0.6230
  362MOL0     C48785   3.921   9.022  11.407 -0.9435 -0.2405 -1.0847
  362MOL0     N48786   3.244   9.381  10.975  1.1792  0.3138  0.5844
  362MOL0     N48787   3.124   9.361  10.912 -0.8518  0.2029 -0.2984
  362MOL0     C48788   3.771   9.264   9.895 -0.8742  0.5830 -0.6501
  362MOL0     C48789   3.882   9.228   9.811 -0.9041  0.0140  0.1206
  362MOL0     C48790   4.312   9.056   9.739  0.4914 -0.6358  0.4594
  362MOL0     C48791   4.290   8.968   9.633  0.2698 -0.2682  0.5233
  362MOL0     C48792   4.392   8.878   9.591  0.2538 -0.9211 -0.1612
  362MOL0     C48793   4.522   8.895   9.627  0.7512  1.1131 -0.1327
  362MOL0     O48794   4.617   8.805   9.583  0.0041  0.2940  0.9296
  362MOL0     C48795   4.760   8.823   9.603 -0.1342 -0.2271  1.0214
  362MOL0     C48796   4.799   8.756   9.731  0.3798  0.4306 -0.1935
  362MOL0     C48797   4.782   8.608   9.731  0.8128  0.3318  0.6172
  362MOL0     C48798   4.838   8.556   9.865  0.4147  0.3583  0.4013
  362MOL0     C48799   4.815   8.411   9.871  0.4991 -0.0280  0.4038
  362MOL0     C48800   4.806   8.292   9.871 -0.3089  0.2197 -0.6793
  362MOL0     C48801   4.545   8.984   9.731 -0.9353 -0.2073 -0.1209
  362MOL0     C48802   4.446   9.064   9.795  0.2217  0.2096 -0.3185
  362MOL0     H48803   4.037   9.024  10.031 -1.9904 -4.0349 -2.5329
  362MOL0     H48804   3.850   9.107  10.179  0.4768  1.2478  0.7026
  362MOL0     H48805   3.604   9.457  10.046 -3.8290  2.2491  0.6214
  362MOL0     H48806   3.534   9.321   9.970  0.5163  0.3532 -0.4881
  362MOL0     H48807   3.497   9.433  10.258  0.0007  0.6839 -1.6485
  362MOL0     H48808   3.391   9.470  10.125  0.6781  1.6555  1.6631
  362MOL0     H48809   3.291   9.259  10.155 -2.7591 -0.6789  2.9263
  362MOL0     H48810   3.440   9.191  10.235  0.1089  0.0340  1.8539
  362MOL0     H48811   3.387   9.340  10.432 -1.0494  1.2830  0.6577
  362MOL0     H48812   3.237   9.391  10.374 -1.9938 -2.4016  3.6745
  362MOL0     H48813   3.139   9.171  10.355 -0.0341  3.1254 -0.0011
  362MOL0     H48814   3.282   9.088  10.409 -2.0384 -0.7596  0.9829
  362MOL0     H48815   3.283   9.235  10.612  0.1987 -0.2570 -0.2161
  362MOL0     H48816   3.139   9.322  10.543 -1.8570 -0.7109  1.0214
  362MOL0     H48817   3.024   9.096  10.553 -1.2103  0.0781  1.5369
  362MOL0     H48818   3.139   9.044  10.674 -1.3468  1.8528  5.3340
  362MOL0     H48819   2.955   9.115  10.773  1.3479  0.4585  1.8871
  362MOL0     H48820   2.965   9.277  10.713  0.6820  0.5792 -2.4989
  362MOL0     H48821   3.266   9.068  10.851  2.4945 -0.1461  1.8393
  362MOL0     H48822   3.501   9.202  10.935 -1.1144 -1.0724 -0.7578
  362MOL0     H48823   3.474   9.303  11.071  0.5892  0.4369 -0.9677
  362MOL0     H48824   3.391   9.003  11.070  2.0753 -1.6008  1.3300
  362MOL0     H48825   3.342   9.115  11.193 -0.8572  3.3289 -1.4187
  362MOL0     H48826   3.578   9.192  11.232 -1.2120  0.3153  0.6778
  362MOL0     H48827   3.636   9.091  11.097  0.1701  0.1832 -0.1517
  362MOL0     H48828   3.537   8.897  11.216  1.5295 -0.5754  0.0553
  362MOL0     H48829   3.522   9.002  11.359  1.7984 -1.8834  0.6327
  362MOL0     H48830   3.619   9.130  11.516  0.5367  0.4475  1.2707
  362MOL0     H48831   3.701   9.375  11.633  1.4147  0.4074  1.4024
  362MOL0     H48832   3.645   9.223  11.710  0.2356 -0.7380 -0.2574
  362MOL0     H48833   3.790   9.286  11.774  1.7671 -1.9715 -0.1616
  362MOL0     H48834   4.319   9.398  11.474  1.2531  5.5222 -0.7259
  362MOL0     H48835   4.515   9.509  11.524 -1.9349 -0.0608 -1.2394
  362MOL0     H48836   4.638   9.652  11.577  1.4073  2.0149 -0.5865
  362MOL0     H48837   4.537   9.747  11.660 -0.6596 -0.3756  1.9677
  362MOL0     H48838   4.775   9.833  11.651 -1.4087 -2.0903 -1.7897
  362MOL0     H48839   4.686   9.843  11.802 -1.0550  0.0872 -1.5975
  362MOL0     H48840   4.866   9.598  11.771  1.4496 -1.2260  3.6885
  362MOL0     H48841   4.818   9.683  11.909  1.4052 -0.0616  0.9715
  362MOL0     H48842   4.994   9.795  11.689  0.3341  1.2006 -0.1132
  362MOL0     H48843   4.960   9.870  11.842 -0.1184 -0.4698  0.9332
  362MOL0     H48844   5.033   9.621  11.920  1.8355 -2.3755 -0.3754
  362MOL0     H48845   5.159   9.746  11.916 -0.9772  2.0929 -1.2883
  362MOL0     H48846   5.109   9.558  11.672  0.4265 -1.7532  2.0519
  362MOL0     H48847   5.220   9.700  11.697  3.0452 -1.8289 -0.9496
  362MOL0     H48848   5.327   9.599  11.889  3.8250 -2.0751 -0.8738
  362MOL0     H48849   5.354   9.521  11.748  0.0070 -1.7497  0.7952
  362MOL0     H48850   5.153   9.369  11.838 -1.0046 -0.2953  0.3108
  362MOL0     H48851   5.176   9.475  11.986 -0.6777  4.3372 -2.3559
  362MOL0     H48852   4.452   9.438  11.950 -1.7604  0.6605  1.2257
  362MOL0     H48853   4.237   9.324  11.882 -2.8192  1.9251 -1.5078
  362MOL0     H48854   4.096   9.065  11.466  0.1030  0.5972 -0.8713
  362MOL0     H48855   3.955   8.939  11.345  3.0965 -0.8977  1.6378
  362MOL0     H48856   3.694   9.319   9.842 -2.1578 -1.1961 -0.7129
  362MOL0     H48857   3.905   9.262   9.711 -1.1082 -0.8881 -0.2363
  362MOL0     H48858   4.189   8.966   9.593  1.4584 -0.7950 -2.7406
  362MOL0     H48859   4.370   8.805   9.515  0.1112 -2.7185  1.5341
  362MOL0     H48860   4.821   8.777   9.524  1.7710 -1.6377  3.1583
  362MOL0     H48861   4.771   8.932   9.606 -1.7866 -0.0657  2.7289
  362MOL0     H48862   4.730   8.790   9.809 -1.3447  1.0429 -1.8990
  362MOL0     H48863   4.904   8.782   9.746  0.9570 -0.4828 -2.2208
  362MOL0     H48864   4.843   8.564   9.652  1.4329 -0.3410  1.4654
  362MOL0     H48865   4.680   8.578   9.703  1.0520 -0.4202  0.5306
  362MOL0     H48866   4.785   8.600   9.950  0.4816 -0.1377  0.7048
  362MOL0     H48867   4.947   8.567   9.875  0.1009  3.9764  1.4752
  362MOL0     H48868   4.798   8.185   9.867 -0.5088  0.1400  0.9854
  362MOL0     H48869   4.647   8.985   9.767 -1.2354 -0.7843  0.7648
  362MOL0     H48870   4.471   9.135   9.874  0.7619 -0.6994  0.3494
  363MOL0     O48871   7.304   0.886   8.977  0.4843 -0.4952 -0.3996
  363MOL0     C48872   7.216   0.822   9.035 -0.1893  0.6398 -0.4589
  363MOL0     O48873   7.233   0.713   9.120  0.5556  0.1080 -0.2463
  363MOL0     C48874   7.319   0.625   9.082 -0.0771 -0.4938 -0.6620
  363MOL0     C48875   7.326   0.554   8.960  0.1499 -0.5185  0.2112
  363MOL0     C48876   7.422   0.458   8.943  0.1033 -0.1680  0.0968
  363MOL0     C48877   7.521   0.437   9.042  0.5609  0.9862  0.0868
  363MOL0     O48878   7.624   0.351   9.001  0.4416  0.0633 -0.5859
  363MOL0     C48879   7.741   0.358   9.090  0.1764 -0.4652 -0.0180
  363MOL0     C48880   7.857   0.274   9.028 -0.5026 -1.2541 -0.6024
  363MOL0     C48881   7.826   0.138   8.990  0.3575 -0.2519  0.7518
  363MOL0     C48882   7.758   0.042   9.096 -0.6336 -0.6729 -0.5299
  363MOL0     C48883   7.757  -0.099   9.038 -0.1663 -0.7020  0.1715
  363MOL0     C48884   7.678  -0.195   9.128 -0.0736 -0.0694 -0.0774
  363MOL0     C48885   7.744  -0.333   9.103 -0.6658  0.1480 -1.0464
  363MOL0     C48886   7.872  -0.352   9.190 -1.1831  0.5309  0.0580
  363MOL0     N48887   7.825  -0.385   9.326  0.1989 -0.7744  0.0853
  363MOL0     C48888   7.830  -0.517   9.355  0.4674 -0.0513 -0.9652
  363MOL0     C48889   7.817  -0.530   9.487 -0.0212  0.1345 -0.0976
  363MOL0     C48890   7.808  -0.654   9.558 -0.8264  0.6742  0.5064
  363MOL0     C48891   7.670  -0.707   9.579  1.0965 -0.6613 -0.3056
  363MOL0     C48892   7.575  -0.605   9.652 -0.5872 -0.3933 -0.0167
  363MOL0     C48893   7.622  -0.550   9.783 -0.3021 -0.1008 -0.5684
  363MOL0     O48894   7.522  -0.468   9.840 -0.3250  0.0661  0.4250
  363MOL0     C48895   7.489  -0.342   9.799  0.7484 -0.0332  0.3299
  363MOL0     C48896   7.353  -0.317   9.829  1.1944  0.9263 -0.3115
  363MOL0     C48897   7.290  -0.199   9.788  0.3404  0.4678  0.3891
  363MOL0     C48898   7.144  -0.183   9.829  0.1341 -0.1018  0.3563
  363MOL0     C48899   7.370  -0.092   9.742 -0.4352  0.3050  0.8512
  363MOL0     C48900   7.317   0.049   9.729 -0.2040 -0.4863  0.8914
  363MOL0     O48901   7.372   0.129   9.630  0.3374 -0.5129  0.3097
  363MOL0     C48902   7.357   0.261   9.626  0.6684 -0.3154  0.6080
  363MOL0     C48903   7.273   0.320   9.535 -0.1324 -0.6825  0.3546
  363MOL0     C48904   7.292   0.457   9.505 -0.0963 -0.6176 -0.3863
  363MOL0     C48905   7.392   0.535   9.568 -0.3110  0.3056  1.2040
  363MOL0     O48906   7.404   0.669   9.534  0.4668 -0.0936 -0.3409
  363MOL0     C48907   7.503   0.750   9.597  0.0662 -0.0281  0.2471
  363MOL0     C48908   7.505   0.889   9.539  0.0150  0.4729  0.4633
  363MOL0     C48909   7.606   0.973   9.601 -0.1308  1.1300 -0.0772
  363MOL0     C48910   7.615   1.100   9.522  0.4879 -0.0244 -0.5890
  363MOL0     C48911   7.714   1.191   9.598 -0.1993  0.2859 -0.9796
  363MOL0     C48912   7.707   1.332   9.529  0.2481  0.1538 -0.2997
  363MOL0     C48913   7.578   1.392   9.510  1.0654  0.6398  0.1342
  363MOL0     C48914   7.597   1.540   9.485 -0.6477 -0.1121  0.0921
  363MOL0    Cl48915   7.443   1.599   9.417  0.0240  0.5459  0.0441
  363MOL0     C48916   7.479   0.475   9.660 -1.0649  0.4159 -1.4908
  363MOL0     C48917   7.460   0.339   9.684  0.2802  0.5253 -1.2300
  363MOL0     O48918   7.245   0.092   9.820  0.7283 -0.0884  0.5272
  363MOL0     C48919   7.510  -0.108   9.709 -0.5814 -0.2485 -0.1483
  363MOL0     C48920   7.569  -0.238   9.746 -0.3388  0.2559 -0.7400
  363MOL0     N48921   7.824  -0.402   9.547 -0.7926  0.2771 -0.2378
  363MOL0     N48922   7.825  -0.318   9.442  0.4146  0.2696  0.8612
  363MOL0     C48923   7.507   0.504   9.162 -0.6042  0.4989 -0.6309
  363MOL0     C48924   7.409   0.598   9.187 -0.0009 -0.0224 -0.2377
  363MOL0     C48925   7.093   0.899   9.054 -0.8194 -0.0939 -0.4449
  363MOL0     C48926   7.006   0.862   9.160  0.9668 -0.2145 -0.8386
  363MOL0     C48927   6.871   0.922   9.167  0.3998  0.0054  0.1804
  363MOL0     C48928   6.831   1.030   9.087  0.4992 -0.1658 -0.0234
  363MOL0     O48929   6.706   1.082   9.099 -1.0566 -0.2918 -0.2665
  363MOL0     C48930   6.676   1.202   9.032 -0.6656  0.9244  0.6009
  363MOL0     C48931   6.727   1.327   9.089 -0.4734  0.1129 -1.1167
  363MOL0     C48932   6.641   1.360   9.217  0.7874  0.5063  0.8041
  363MOL0     C48933   6.648   1.508   9.254  0.1177  0.4147 -0.9358
  363MOL0     C48934   6.567   1.602   9.176 -0.2266  0.0984 -1.0951
  363MOL0     C48935   6.485   1.673   9.112 -0.2879  0.2361 -0.2443
  363MOL0     C48936   6.925   1.077   8.996  0.0419  0.8628 -0.2928
  363MOL0     C48937   7.051   1.007   8.974  1.1297 -0.4300  0.1907
  363MOL0     H48938   7.246   0.592   8.897  0.1972  2.7439  1.9445
  363MOL0     H48939   7.419   0.405   8.849 -0.4037  0.2982 -0.1589
  363MOL0     H48940   7.781   0.460   9.085 -0.9356 -0.0069  0.0820
  363MOL0     H48941   7.718   0.319   9.189  1.7554 -3.2747 -0.6586
  363MOL0     H48942   7.891   0.325   8.937 -0.0673  0.8721  0.6972
  363MOL0     H48943   7.943   0.274   9.095  0.7065  0.9243 -2.0439
  363MOL0     H48944   7.756   0.150   8.906  0.2258  0.1998  0.9236
  363MOL0     H48945   7.914   0.089   8.946 -2.0548 -1.4651 -3.2924
  363MOL0     H48946   7.811   0.056   9.191 -1.8027  1.8560 -0.1936
  363MOL0     H48947   7.654   0.070   9.111 -0.1566  1.2208 -0.5007
  363MOL0     H48948   7.711  -0.092   8.939 -1.4751 -0.3480  0.7748
  363MOL0     H48949   7.857  -0.143   9.031 -0.1290 -0.3703 -2.3600
  363MOL0     H48950   7.683  -0.165   9.233  0.8280  4.7437 -1.2592
  363MOL0     H48951   7.573  -0.204   9.098 -0.7549  2.6125  1.1958
  363MOL0     H48952   7.679  -0.413   9.140 -2.4349  1.5395 -1.0216
  363MOL0     H48953   7.765  -0.344   8.996 -0.5221  1.3548 -1.1608
  363MOL0     H48954   7.937  -0.264   9.196 -0.8344  0.4232 -1.6615
  363MOL0     H48955   7.924  -0.439   9.150 -0.9558 -0.4616  2.3560
  363MOL0     H48956   7.833  -0.592   9.277  2.0357  0.9466 -1.9153
  363MOL0     H48957   7.858  -0.733   9.503 -1.7175  0.6634 -0.3131
  363MOL0     H48958   7.857  -0.640   9.655  2.5767  1.1766 -1.1625
  363MOL0     H48959   7.669  -0.805   9.628 -0.0173 -1.1546 -1.2828
  363MOL0     H48960   7.624  -0.741   9.486  0.1381  1.6948 -0.7653
  363MOL0     H48961   7.480  -0.655   9.672 -0.3251  0.0626  2.7606
  363MOL0     H48962   7.558  -0.523   9.582 -0.7782 -0.3289  0.1051
  363MOL0     H48963   7.721  -0.504   9.773  0.3438 -0.3733  3.0396
  363MOL0     H48964   7.642  -0.633   9.852  1.1621  0.3411 -0.4190
  363MOL0     H48965   7.295  -0.391   9.884  0.8993  0.8466 -0.7249
  363MOL0     H48966   7.142  -0.136   9.928  1.0304 -1.6237  1.1269
  363MOL0     H48967   7.095  -0.126   9.749  1.7290  2.2239  0.8989
  363MOL0     H48968   7.094  -0.279   9.836  1.8512 -0.9210  2.3857
  363MOL0     H48969   7.206   0.267   9.468  0.0085 -0.1916 -0.1748
  363MOL0     H48970   7.232   0.508   9.431 -0.7914 -0.3783  0.3218
  363MOL0     H48971   7.478   0.751   9.704 -2.8669 -3.0340 -0.2325
  363MOL0     H48972   7.600   0.700   9.592 -0.7253 -1.9203  2.0965
  363MOL0     H48973   7.509   0.883   9.430 -6.3181  3.6084 -0.3494
  363MOL0     H48974   7.410   0.940   9.549 -2.5710 -3.2146 -2.3392
  363MOL0     H48975   7.704   0.926   9.590 -1.0607 -0.6480 -1.0477
  363MOL0     H48976   7.589   0.981   9.709  1.3605  0.1991  0.2550
  363MOL0     H48977   7.654   1.085   9.421 -2.0013 -1.2738 -1.4412
  363MOL0     H48978   7.517   1.148   9.516  0.6282  1.0690  2.9889
  363MOL0     H48979   7.812   1.145   9.584  1.0779  0.9988  3.8724
  363MOL0     H48980   7.691   1.205   9.704 -1.4220  2.3732 -1.4721
  363MOL0     H48981   7.760   1.381   9.611 -0.1868 -1.4171  0.9664
  363MOL0     H48982   7.780   1.341   9.447 -1.5343  1.2751 -1.8531
  363MOL0     H48983   7.520   1.385   9.602 -0.6020 -0.6725 -0.9628
  363MOL0     H48984   7.506   1.345   9.443  3.0876 -1.0127 -1.0052
  363MOL0     H48985   7.670   1.569   9.409  1.7716 -0.3590  2.1868
  363MOL0     H48986   7.634   1.593   9.573 -0.4141 -1.4195  0.8053
  363MOL0     H48987   7.561   0.529   9.707 -2.0081 -0.7156  1.7600
  363MOL0     H48988   7.529   0.282   9.746 -2.3627  0.7157  2.1674
  363MOL0     H48989   7.572  -0.028   9.670  1.6942  0.4170  4.1649
  363MOL0     H48990   7.675  -0.258   9.735 -0.2497  0.6257 -0.5599
  363MOL0     H48991   7.568   0.478   9.248 -1.2159 -1.0470 -0.6260
  363MOL0     H48992   7.405   0.647   9.284 -2.3481  0.0666 -0.3401
  363MOL0     H48993   7.023   0.786   9.235  0.8408 -2.8477 -3.2999
  363MOL0     H48994   6.801   0.889   9.242 -3.5245  1.6420 -2.4407
  363MOL0     H48995   6.698   1.193   8.926  0.8782 -0.9808  1.0152
  363MOL0     H48996   6.567   1.210   9.038 -0.9641 -1.3162 -0.8221
  363MOL0     H48997   6.726   1.403   9.011  1.4179  0.1128 -1.1808
  363MOL0     H48998   6.834   1.314   9.106 -1.0154 -1.4505  1.8110
  363MOL0     H48999   6.657   1.293   9.302  2.4538 -0.3565 -0.1552
  363MOL0     H49000   6.536   1.349   9.188  1.1205  1.4523 -0.8676
  363MOL0     H49001   6.754   1.533   9.259 -0.1451  1.4418 -0.1478
  363MOL0     H49002   6.612   1.513   9.357  1.6972  1.5126 -0.3939
  363MOL0     H49003   6.419   1.747   9.071  1.2907  3.2331  2.2018
  363MOL0     H49004   6.904   1.165   8.937 -2.5606  0.8771  0.5001
  363MOL0     H49005   7.109   1.043   8.889 -0.1668 -0.7505 -0.8596
  364MOL0     O49006   7.326   5.627   6.924 -0.2107  0.2493  1.1340
  364MOL0     C49007   7.365   5.669   7.034 -0.0190 -0.2861 -0.5822
  364MOL0     O49008   7.432   5.785   7.057  0.4524 -0.5755 -0.1544
  364MOL0     C49009   7.479   5.882   6.966 -0.1920 -0.2595 -0.4852
  364MOL0     C49010   7.521   5.997   7.032 -0.5250 -0.9229  0.2085
  364MOL0     C49011   7.571   6.110   6.960 -0.6804 -0.0461  0.4806
  364MOL0     C49012   7.551   6.111   6.822  0.7417  0.4082  0.5905
  364MOL0     O49013   7.575   6.233   6.760 -0.6709  0.4055  0.5845
  364MOL0     C49014   7.513   6.261   6.630 -0.8156  0.5122 -0.6251
  364MOL0     C49015   7.479   6.412   6.627 -0.2747  0.5353  0.4135
  364MOL0     C49016   7.344   6.453   6.684  0.1944  0.5067 -0.5190
  364MOL0     C49017   7.324   6.605   6.683 -0.4432 -1.0598 -1.1349
  364MOL0     C49018   7.239   6.661   6.555  0.2855 -0.3786 -1.2125
  364MOL0     C49019   7.243   6.821   6.557 -0.1018  0.3826 -0.3860
  364MOL0     C49020   7.233   6.900   6.420 -0.3919  0.0343 -0.1415
  364MOL0     C49021   7.302   6.827   6.296 -1.1114  0.4155 -0.2235
  364MOL0     N49022   7.292   6.884   6.157  0.5576 -0.0086  0.2824
  364MOL0     C49023   7.184   6.936   6.099  0.2253 -0.4673  0.1204
  364MOL0     C49024   7.219   6.955   5.966  0.2505 -0.3194 -0.2193
  364MOL0     C49025   7.133   7.021   5.858  0.5950  1.0558 -0.8013
  364MOL0     C49026   7.033   6.914   5.818  0.4163  0.0801  0.1697
  364MOL0     C49027   6.913   6.966   5.734  0.4036 -0.0113  0.0117
  364MOL0     C49028   6.949   6.976   5.587  0.3716 -0.0429 -0.6294
  364MOL0     O49029   6.984   6.843   5.543  0.3309  0.0034 -1.1781
  364MOL0     C49030   7.019   6.829   5.410  0.0332 -0.2285  0.1801
  364MOL0     C49031   6.932   6.758   5.322  0.9032 -0.1169  0.1916
  364MOL0     C49032   6.947   6.768   5.182 -0.3233  0.5043  1.0435
  364MOL0     C49033   6.844   6.695   5.094 -0.8520 -0.1731  0.6208
  364MOL0     C49034   7.046   6.856   5.129 -1.0414  0.6325  0.1175
  364MOL0     C49035   7.064   6.891   4.990 -0.2025  0.4521  0.6646
  364MOL0     O49036   7.193   6.931   4.949 -0.3139 -0.1746  0.4841
  364MOL0     C49037   7.221   6.967   4.824  0.2502 -0.0561  0.2062
  364MOL0     C49038   7.182   6.894   4.719 -0.1728  0.2961 -0.0802
  364MOL0     C49039   7.226   6.941   4.592  0.7025  0.1327  0.1101
  364MOL0     C49040   7.307   7.055   4.569  0.0067 -0.3288  0.8709
  364MOL0     O49041   7.340   7.106   4.440  1.4789  0.2340  0.1443
  364MOL0     C49042   7.311   7.020   4.325  0.2007 -0.1883 -0.4410
  364MOL0     C49043   7.347   7.109   4.205  0.4153  0.9449 -0.8091
  364MOL0     C49044   7.305   7.051   4.080  1.2035 -0.2102  0.0631
  364MOL0     C49045   7.376   7.124   3.963 -0.2717 -0.0237  0.7490
  364MOL0     C49046   7.311   7.098   3.832  0.3111  0.3006  0.2895
  364MOL0     C49047   7.386   7.155   3.712  0.1682 -0.6293 -0.3332
  364MOL0     C49048   7.509   7.066   3.668  0.0580  0.8255  0.4722
  364MOL0     C49049   7.463   6.924   3.603 -0.1591 -0.4071 -0.2784
  364MOL0    Cl49050   7.610   6.851   3.537  0.4822  0.4967  0.1244
  364MOL0     C49051   7.361   7.115   4.682  0.6490 -0.3930 -0.2623
  364MOL0     C49052   7.315   7.074   4.805 -0.5802  0.2060 -0.2730
  364MOL0     O49053   6.965   6.895   4.920  0.4224 -0.3335  0.1237
  364MOL0     C49054   7.142   6.904   5.219  1.1109 -0.6189  0.0425
  364MOL0     C49055   7.127   6.895   5.362  0.0501  0.4761  0.8584
  364MOL0     N49056   7.343   6.918   5.948 -0.6692 -0.0236  0.1404
  364MOL0     N49057   7.396   6.874   6.064  0.3900  0.5007  0.3741
  364MOL0     C49058   7.512   5.991   6.759  0.0826 -0.2195 -0.2215
  364MOL0     C49059   7.470   5.882   6.828 -0.2896  0.0860  0.5732
  364MOL0     C49060   7.345   5.579   7.141  0.4438  0.3176 -0.0655
  364MOL0     C49061   7.402   5.607   7.270  0.3297  0.4462 -0.0612
  364MOL0     C49062   7.388   5.519   7.377  0.0126  0.0813  0.1828
  364MOL0     C49063   7.296   5.417   7.359 -0.0137  0.1671 -1.3406
  364MOL0     O49064   7.243   5.336   7.458 -0.0289 -0.5196 -1.0211
  364MOL0     C49065   7.283   5.357   7.592 -0.3680 -0.5768  0.3351
  364MOL0     C49066   7.413   5.292   7.621 -0.7434  0.7035  0.2698
  364MOL0     C49067   7.433   5.266   7.773 -0.4435  0.4655  0.0490
  364MOL0     C49068   7.517   5.145   7.803  0.2063  0.5413  0.2262
  364MOL0     C49069   7.537   5.118   7.943  0.7724  0.7894  0.0985
  364MOL0     C49070   7.533   5.111   8.054  0.0271 -0.0466  0.2925
  364MOL0     C49071   7.240   5.391   7.237 -0.9058  0.8386  0.6003
  364MOL0     C49072   7.268   5.466   7.130  0.4469 -0.8273  0.5371
  364MOL0     H49073   7.518   6.001   7.141  1.3130 -2.3456  0.3594
  364MOL0     H49074   7.623   6.198   6.997  2.5744 -0.3746 -2.8243
  364MOL0     H49075   7.586   6.229   6.555  0.0346  1.6684 -0.2944
  364MOL0     H49076   7.429   6.194   6.608  1.1223 -2.0342 -0.6975
  364MOL0     H49077   7.550   6.485   6.668 -0.9405  2.0939 -1.1007
  364MOL0     H49078   7.484   6.440   6.521  2.2155 -1.8414 -0.2180
  364MOL0     H49079   7.265   6.395   6.636  1.1722 -3.3820  2.1589
  364MOL0     H49080   7.356   6.422   6.788 -0.7430  2.8125  0.3395
  364MOL0     H49081   7.282   6.647   6.775 -1.6557  0.1344 -2.2037
  364MOL0     H49082   7.424   6.649   6.679  0.1993 -2.1060  1.2762
  364MOL0     H49083   7.292   6.635   6.463 -0.3805 -5.0415 -0.4935
  364MOL0     H49084   7.138   6.621   6.546  0.9115 -1.7744 -2.5082
  364MOL0     H49085   7.154   6.860   6.608  0.6966  1.3781  0.2996
  364MOL0     H49086   7.330   6.851   6.616 -0.6087 -0.3490  0.7638
  364MOL0     H49087   7.126   6.911   6.401 -0.9275 -0.3998  2.3425
  364MOL0     H49088   7.269   7.002   6.434 -0.7674  0.1117  0.2893
  364MOL0     H49089   7.245   6.735   6.278 -0.1909 -0.0181 -1.0310
  364MOL0     H49090   7.405   6.805   6.323 -1.4278  0.7638  1.3958
  364MOL0     H49091   7.082   6.955   6.131 -0.1930 -2.5843  0.1752
  364MOL0     H49092   7.077   7.105   5.901  1.4595  1.0976  0.2942
  364MOL0     H49093   7.187   7.047   5.767 -0.4349 -1.2293 -2.1505
  364MOL0     H49094   6.981   6.866   5.902 -1.4475  0.8934 -0.4629
  364MOL0     H49095   7.086   6.842   5.755 -1.2627 -0.1248 -1.0894
  364MOL0     H49096   6.874   7.061   5.771 -2.0332 -0.3890 -1.3736
  364MOL0     H49097   6.833   6.892   5.736  0.5627 -0.2501 -1.3741
  364MOL0     H49098   7.027   7.050   5.565 -1.2039  1.5739 -0.9676
  364MOL0     H49099   6.867   7.010   5.524  0.1730 -1.0253 -0.9105
  364MOL0     H49100   6.851   6.703   5.367 -0.9920  2.4236  0.0544
  364MOL0     H49101   6.766   6.764   5.061  0.4342 -0.0895 -2.6475
  364MOL0     H49102   6.898   6.660   5.005  1.9621  1.3374  1.6115
  364MOL0     H49103   6.805   6.608   5.148  1.4875 -0.6534  1.6821
  364MOL0     H49104   7.129   6.806   4.753 -0.1925  1.9145  4.8237
  364MOL0     H49105   7.180   6.885   4.511  1.3674 -0.6246  0.2407
  364MOL0     H49106   7.375   6.931   4.325  0.5331  0.0454 -0.4026
  364MOL0     H49107   7.206   6.993   4.314  0.1828 -0.5092  0.4356
  364MOL0     H49108   7.293   7.201   4.231 -3.0122 -1.5345  1.9302
  364MOL0     H49109   7.452   7.139   4.207  0.6858  0.0461 -0.9620
  364MOL0     H49110   7.199   7.078   4.079  0.1230 -3.8651  0.1578
  364MOL0     H49111   7.313   6.942   4.071  3.0093 -0.2737  1.8700
  364MOL0     H49112   7.373   7.231   3.983  2.6651  0.1295  0.8137
  364MOL0     H49113   7.483   7.104   3.956 -0.1954  0.2804  1.0258
  364MOL0     H49114   7.214   7.146   3.846  0.5451  0.4778  1.3913
  364MOL0     H49115   7.281   6.994   3.815 -4.3660  1.6785 -1.2574
  364MOL0     H49116   7.324   7.184   3.627 -0.6774 -1.8730 -0.1716
  364MOL0     H49117   7.435   7.249   3.737 -1.4807  0.3273 -0.5375
  364MOL0     H49118   7.567   7.035   3.755  0.8984 -1.0100 -0.6844
  364MOL0     H49119   7.571   7.124   3.600 -1.4537  2.6489  0.5688
  364MOL0     H49120   7.404   6.940   3.513  0.2129 -1.5777 -0.7549
  364MOL0     H49121   7.410   6.863   3.677 -1.5349 -0.6002 -1.3791
  364MOL0     H49122   7.441   7.188   4.671  1.1566 -0.3957  2.6280
  364MOL0     H49123   7.349   7.121   4.897  3.1984  1.2028 -1.9982
  364MOL0     H49124   7.228   6.965   5.191 -0.4726  3.5350  3.1164
  364MOL0     H49125   7.191   6.957   5.423  0.3489  2.9322 -1.7330
  364MOL0     H49126   7.511   5.987   6.650 -0.0080  1.2186 -0.3001
  364MOL0     H49127   7.460   5.791   6.769  2.7175  0.0278  0.0051
  364MOL0     H49128   7.465   5.694   7.279  1.9838 -0.5324 -1.6960
  364MOL0     H49129   7.433   5.532   7.475 -0.9094 -2.7956  1.0919
  364MOL0     H49130   7.297   5.465   7.606  0.1422 -0.4465 -0.9845
  364MOL0     H49131   7.203   5.334   7.662  0.1480  1.1459  1.5401
  364MOL0     H49132   7.500   5.343   7.578  0.0762 -2.3122 -1.9548
  364MOL0     H49133   7.396   5.194   7.575 -2.0577  1.2139 -0.3645
  364MOL0     H49134   7.334   5.241   7.813 -0.8355  0.8429 -0.6633
  364MOL0     H49135   7.482   5.356   7.810  0.3842 -0.1965  0.6083
  364MOL0     H49136   7.618   5.170   7.767  0.5937 -1.7715 -0.4222
  364MOL0     H49137   7.476   5.053   7.761  1.3104 -0.2754  0.8825
  364MOL0     H49138   7.529   5.102   8.161  0.2791 -0.0378  0.3012
  364MOL0     H49139   7.169   5.310   7.225 -1.0664  0.7508  2.0398
  364MOL0     H49140   7.235   5.431   7.033  1.6334  1.8122 -0.9470
  365MOL0     O49141   4.402   8.163   0.413 -0.9690  0.2935  0.2700
  365MOL0     C49142   4.285   8.150   0.456  0.3629 -0.5723 -0.9488
  365MOL0     O49143   4.170   8.182   0.394 -0.5409  0.5720  0.5035
  365MOL0     C49144   4.164   8.245   0.277 -0.6271  0.0892 -0.5270
  365MOL0     C49145   4.092   8.184   0.173  0.5444 -0.1921 -0.3385
  365MOL0     C49146   4.106   8.243   0.040 -0.3475 -0.2158 -0.4027
  365MOL0     C49147   4.173   8.368   0.024  0.4539  0.2676  0.1091
  365MOL0     O49148   4.177   8.452  -0.085  0.2368  0.5366 -0.3166
  365MOL0     C49149   4.163   8.389  -0.214 -0.1496 -0.4376 -0.3992
  365MOL0     C49150   4.167   8.492  -0.324  0.2725 -0.2251  0.2080
  365MOL0     C49151   4.214   8.433  -0.456  0.4870  0.5225 -0.1094
  365MOL0     C49152   4.193   8.536  -0.559  0.4702 -0.6652  0.6795
  365MOL0     C49153   4.244   8.508  -0.700  0.7200  0.4587  0.0304
  365MOL0     C49154   4.128   8.468  -0.789  0.3769 -0.2188  0.1830
  365MOL0     C49155   4.157   8.440  -0.942  0.9500 -0.8929 -0.5256
  365MOL0     C49156   4.168   8.572  -1.025 -0.1464 -0.4940 -1.2250
  365MOL0     N49157   4.035   8.639  -1.031  0.0991  0.9420  0.0132
  365MOL0     C49158   3.923   8.582  -1.097 -0.7593  0.3816  0.1266
  365MOL0     C49159   3.846   8.680  -1.135  0.2343 -1.0038 -0.3560
  365MOL0     C49160   3.717   8.660  -1.206  0.6739  0.6780 -0.6726
  365MOL0     C49161   3.619   8.772  -1.203 -0.4785  0.3174  0.1511
  365MOL0     C49162   3.471   8.740  -1.235 -0.5072  0.0882 -0.0846
  365MOL0     C49163   3.376   8.853  -1.212  0.2402 -0.2390  0.4938
  365MOL0     O49164   3.238   8.827  -1.218  0.4348  0.1365  0.5237
  365MOL0     C49165   3.160   8.820  -1.108 -0.5018  0.7162  0.8472
  365MOL0     C49166   3.202   8.803  -0.971 -0.6759  0.9442  0.3527
  365MOL0     C49167   3.114   8.782  -0.862 -0.4542  0.1687 -0.1474
  365MOL0     C49168   3.174   8.784  -0.721 -0.0273  0.0965  0.1089
  365MOL0     C49169   2.977   8.784  -0.889  0.1439 -0.0511 -0.3906
  365MOL0     C49170   2.876   8.753  -0.793 -0.0514 -1.0720  0.3690
  365MOL0     O49171   2.795   8.640  -0.807 -0.2361 -0.3009  0.5490
  365MOL0     C49172   2.838   8.529  -0.871 -0.2744 -0.4626 -0.4303
  365MOL0     C49173   2.739   8.464  -0.943  0.7461  0.2932 -0.4892
  365MOL0     C49174   2.772   8.342  -0.999 -0.0020  0.4535 -0.0068
  365MOL0     C49175   2.901   8.297  -1.008  0.6762 -0.2647  0.6482
  365MOL0     O49176   2.953   8.202  -1.088  0.6308  0.9073  0.3959
  365MOL0     C49177   2.857   8.118  -1.161 -0.4471 -0.1740  0.5631
  365MOL0     C49178   2.933   7.993  -1.213  0.8592 -0.4315  0.0618
  365MOL0     C49179   3.069   8.027  -1.283 -0.0480 -0.2351 -0.0518
  365MOL0     C49180   3.104   7.922  -1.390  0.8361  0.5892 -0.8748
  365MOL0     C49181   3.253   7.908  -1.427  0.3418  0.4193  0.7461
  365MOL0     C49182   3.289   8.014  -1.544 -0.1283  0.2284  0.2220
  365MOL0     C49183   3.426   8.005  -1.598 -0.4641  0.3420 -0.4949
  365MOL0     C49184   3.452   7.898  -1.707  0.5075 -1.0993 -0.6577
  365MOL0    Cl49185   3.477   7.743  -1.637 -0.0173 -0.0737  0.2290
  365MOL0     C49186   2.997   8.360  -0.923  0.4471  1.8693  0.1360
  365MOL0     C49187   2.960   8.472  -0.849 -0.3257 -0.0139  0.1068
  365MOL0     O49188   2.866   8.843  -0.705  0.8695 -0.0999 -0.0961
  365MOL0     C49189   2.934   8.797  -1.018 -0.4506  0.1789 -0.5929
  365MOL0     C49190   3.023   8.813  -1.130 -0.8983 -0.1567  0.8198
  365MOL0     N49191   3.924   8.802  -1.121 -0.7942  0.7058  1.0900
  365MOL0     N49192   4.032   8.771  -1.057  0.4049 -0.3444  0.0894
  365MOL0     C49193   4.235   8.425   0.134 -0.1636  0.0854 -0.1013
  365MOL0     C49194   4.240   8.365   0.250 -0.2856  0.1726 -1.0543
  365MOL0     C49195   4.278   8.087   0.596 -1.0094  0.2582 -0.4157
  365MOL0     C49196   4.154   8.031   0.637 -0.1043  0.5827  0.1113
  365MOL0     C49197   4.140   7.956   0.756 -0.3250  0.2111 -0.1283
  365MOL0     C49198   4.248   7.935   0.838 -0.2764  0.9602 -0.7054
  365MOL0     O49199   4.241   7.845   0.952 -0.7298 -0.8634  0.4023
  365MOL0     C49200   4.319   7.887   1.063 -0.4247  0.0840 -0.8241
  365MOL0     C49201   4.272   7.851   1.201 -0.5083 -0.4278  0.9633
  365MOL0     C49202   4.346   7.898   1.324  0.3997 -0.5280 -0.0293
  365MOL0     C49203   4.411   8.032   1.317  0.0913 -0.9983  0.3149
  365MOL0     C49204   4.473   8.070   1.447 -0.3901  1.2679  0.2464
  365MOL0     C49205   4.526   8.080   1.552 -0.2843  0.0167 -0.2444
  365MOL0     C49206   4.374   7.987   0.795 -0.1936  0.1418  0.2661
  365MOL0     C49207   4.391   8.064   0.675 -0.6371  0.2153  0.6778
  365MOL0     H49208   4.036   8.094   0.196  0.7499 -0.2979 -0.2422
  365MOL0     H49209   4.048   8.190  -0.035 -1.8949 -0.7158  1.0969
  365MOL0     H49210   4.251   8.326  -0.232  0.8834  0.3773  1.4958
  365MOL0     H49211   4.065   8.340  -0.214 -0.8256  0.8279 -2.2283
  365MOL0     H49212   4.061   8.511  -0.342  0.1458  1.6727  2.4120
  365MOL0     H49213   4.212   8.586  -0.292 -1.8249  2.1967 -3.3241
  365MOL0     H49214   4.320   8.404  -0.454  0.2264 -0.8446 -2.5718
  365MOL0     H49215   4.163   8.337  -0.467  2.3804 -0.4788 -0.6206
  365MOL0     H49216   4.086   8.559  -0.554  0.4579 -0.4268 -0.4420
  365MOL0     H49217   4.246   8.625  -0.524  0.1694 -0.7241  1.3074
  365MOL0     H49218   4.290   8.599  -0.740  1.4399 -0.1082 -0.4460
  365MOL0     H49219   4.318   8.428  -0.700 -0.7963 -1.0427  1.4639
  365MOL0     H49220   4.085   8.374  -0.752 -0.2831  0.7731  2.0849
  365MOL0     H49221   4.051   8.543  -0.769  1.1335 -0.0170  2.7680
  365MOL0     H49222   4.246   8.380  -0.964  1.3381 -0.1888 -0.9262
  365MOL0     H49223   4.080   8.386  -0.997 -1.8482  1.4598  0.8202
  365MOL0     H49224   4.199   8.544  -1.126 -0.9775 -2.3663 -0.9970
  365MOL0     H49225   4.236   8.643  -0.976 -0.5737 -1.8573  1.5560
  365MOL0     H49226   3.907   8.474  -1.098  0.1232  0.2479  0.1470
  365MOL0     H49227   3.741   8.639  -1.311  1.1808  2.4939 -0.9558
  365MOL0     H49228   3.673   8.581  -1.144 -1.0637  1.4142 -0.9195
  365MOL0     H49229   3.645   8.854  -1.270 -2.1123  0.0253 -0.9153
  365MOL0     H49230   3.612   8.809  -1.100  1.7072  0.6069  0.2381
  365MOL0     H49231   3.439   8.648  -1.185 -2.1859  0.0573 -1.1554
  365MOL0     H49232   3.469   8.713  -1.341  1.9623  1.0146 -0.4445
  365MOL0     H49233   3.399   8.928  -1.288 -1.0690  0.1434  0.4503
  365MOL0     H49234   3.401   8.898  -1.115  1.5700  0.0234  0.0495
  365MOL0     H49235   3.307   8.803  -0.945 -0.1969 -2.1963 -1.2065
  365MOL0     H49236   3.200   8.685  -0.683 -2.1367  0.4058  2.5859
  365MOL0     H49237   3.269   8.839  -0.727 -0.3694  0.6550 -0.2644
  365MOL0     H49238   3.105   8.826  -0.647 -1.2647  1.6386 -1.8078
  365MOL0     H49239   2.638   8.506  -0.939 -0.3898 -2.3511  0.5702
  365MOL0     H49240   2.690   8.297  -1.053 -0.3644  1.6380 -0.4751
  365MOL0     H49241   2.772   8.096  -1.096 -0.3808  2.0501  1.4781
  365MOL0     H49242   2.825   8.170  -1.252 -1.2088  2.5350  2.2680
  365MOL0     H49243   2.946   7.931  -1.123 -0.8606 -0.4016  0.3654
  365MOL0     H49244   2.869   7.927  -1.271 -0.3871 -0.9759  1.9601
  365MOL0     H49245   3.151   8.036  -1.210 -0.0814  1.3626 -0.1851
  365MOL0     H49246   3.062   8.127  -1.325  1.8140  1.1451  2.6159
  365MOL0     H49247   3.082   7.824  -1.346  2.8867  0.9816  1.2456
  365MOL0     H49248   3.026   7.929  -1.467 -1.4739 -1.5726  1.0607
  365MOL0     H49249   3.259   7.808  -1.470  1.3123  0.2674  1.2077
  365MOL0     H49250   3.318   7.906  -1.339  1.6463 -4.3213 -0.0307
  365MOL0     H49251   3.217   8.000  -1.625  0.7533  2.7283 -1.0918
  365MOL0     H49252   3.277   8.113  -1.499  0.4699  0.2871  0.2617
  365MOL0     H49253   3.492   7.988  -1.512  0.9861  2.8071 -1.0415
  365MOL0     H49254   3.460   8.101  -1.637  1.6395  0.9140  2.4151
  365MOL0     H49255   3.540   7.932  -1.762 -1.3419  3.5505 -1.2443
  365MOL0     H49256   3.366   7.895  -1.774  0.2202  0.4554 -0.4050
  365MOL0     H49257   3.099   8.321  -0.916 -0.2918  0.1764  2.9227
  365MOL0     H49258   3.024   8.520  -0.776  0.2499  1.5312 -1.3521
  365MOL0     H49259   2.827   8.797  -1.039 -0.4206 -2.5535 -1.1699
  365MOL0     H49260   2.992   8.830  -1.232  0.1021 -3.1816 -0.1155
  365MOL0     H49261   4.279   8.524   0.127 -1.6209  0.8125  0.6465
  365MOL0     H49262   4.301   8.407   0.330  3.9545 -0.2314 -3.7731
  365MOL0     H49263   4.060   8.054   0.587 -0.4972  0.6263  0.8527
  365MOL0     H49264   4.042   7.914   0.776 -1.5600  1.5968 -2.7951
  365MOL0     H49265   4.419   7.845   1.048  0.3551  1.5028  0.1271
  365MOL0     H49266   4.346   7.993   1.052 -1.6928  0.3979 -1.0643
  365MOL0     H49267   4.259   7.742   1.203  0.6655 -0.6196 -0.3285
  365MOL0     H49268   4.178   7.907   1.210 -1.1601 -1.0212 -1.2929
  365MOL0     H49269   4.425   7.825   1.343  2.0563  1.5774  1.6495
  365MOL0     H49270   4.275   7.905   1.408  0.3809 -0.2413 -0.0684
  365MOL0     H49271   4.322   8.091   1.295  0.3433 -1.3269 -1.7792
  365MOL0     H49272   4.491   8.022   1.242  1.5442  0.9131  1.4900
  365MOL0     H49273   4.576   8.096   1.645  2.6548 -1.0687 -1.5130
  365MOL0     H49274   4.460   7.987   0.861  1.2954  0.3333 -1.5800
  365MOL0     H49275   4.484   8.116   0.655 -0.8626  0.1759 -0.5557
  366MOL0     O49276   1.882   5.199   3.717  0.0843 -0.0013 -0.9190
  366MOL0     C49277   1.840   5.302   3.777  0.1153  1.1716  0.8046
  366MOL0     O49278   1.879   5.431   3.768  0.3001  0.7646  0.2840
  366MOL0     C49279   1.957   5.457   3.661 -0.4525 -0.7418 -0.0586
  366MOL0     C49280   1.895   5.522   3.550  0.2032  0.2159  0.6125
  366MOL0     C49281   1.975   5.542   3.437  0.6127 -0.1950  0.0719
  366MOL0     C49282   2.113   5.502   3.429 -0.0082  0.4079 -0.3494
  366MOL0     O49283   2.192   5.529   3.315  0.1230 -0.1108  0.3125
  366MOL0     C49284   2.332   5.488   3.318  0.5483 -0.1680 -1.0166
  366MOL0     C49285   2.406   5.492   3.177  0.0348  0.3664 -0.1027
  366MOL0     C49286   2.386   5.362   3.102 -0.0795 -0.7596 -0.7162
  366MOL0     C49287   2.453   5.392   2.970 -0.4649 -0.2901  0.2339
  366MOL0     C49288   2.423   5.281   2.868  0.8207  0.0072  0.6948
  366MOL0     C49289   2.526   5.292   2.752  0.7365  0.4162 -0.0871
  366MOL0     C49290   2.483   5.189   2.641 -0.6863 -0.2060  0.6555
  366MOL0     C49291   2.604   5.176   2.550  0.9587  0.1552 -1.0400
  366MOL0     N49292   2.608   5.040   2.498 -0.1034  0.8888  1.3547
  366MOL0     C49293   2.657   4.931   2.563 -0.3609  0.3278 -0.5459
  366MOL0     C49294   2.633   4.827   2.474  0.7597  0.2355 -0.4274
  366MOL0     C49295   2.662   4.674   2.494 -0.0463  0.1294  0.0058
  366MOL0     C49296   2.805   4.656   2.502 -0.9416  1.2423 -0.6512
  366MOL0     C49297   2.874   4.651   2.368 -0.3180 -0.4307 -0.5751
  366MOL0     C49298   2.836   4.528   2.292 -0.9306  1.1835 -0.4386
  366MOL0     O49299   2.924   4.492   2.184  0.1589 -0.2670  0.6961
  366MOL0     C49300   3.048   4.441   2.221 -0.1349  0.4740  0.5607
  366MOL0     C49301   3.142   4.424   2.117 -0.6691  0.3779 -1.2394
  366MOL0     C49302   3.270   4.370   2.137  1.0626  1.1226 -0.0752
  366MOL0     C49303   3.354   4.344   2.013 -0.7085 -0.2079 -0.3423
  366MOL0     C49304   3.314   4.340   2.273 -0.1562 -0.4476  0.6196
  366MOL0     C49305   3.459   4.298   2.308  0.2573  1.3029 -1.2095
  366MOL0     O49306   3.513   4.211   2.211  0.2943 -0.4938  0.0742
  366MOL0     C49307   3.641   4.175   2.215  0.4007 -0.3856  1.1652
  366MOL0     C49308   3.722   4.156   2.326 -0.7701  0.8658  0.4086
  366MOL0     C49309   3.861   4.110   2.303  0.2770  0.0535 -0.2519
  366MOL0     C49310   3.911   4.081   2.176  0.3420  0.7573  0.5775
  366MOL0     O49311   4.032   4.031   2.142  1.1018  0.0448  0.0093
  366MOL0     C49312   4.133   4.020   2.248  0.6306 -0.4955 -0.2042
  366MOL0     C49313   4.255   3.998   2.183 -0.2049 -0.4775  0.4334
  366MOL0     C49314   4.317   4.115   2.098  1.0632  0.4762  0.1793
  366MOL0     C49315   4.329   4.081   1.949 -0.1006 -0.6263  0.8639
  366MOL0     C49316   4.387   4.197   1.867  0.5140  0.1869 -0.9482
  366MOL0     C49317   4.424   4.159   1.727  0.5290  0.8881  0.6223
  366MOL0     C49318   4.526   4.243   1.643  0.9125  0.5376  0.2145
  366MOL0     C49319   4.466   4.385   1.615 -0.6920  0.9955 -0.7768
  366MOL0    Cl49320   4.328   4.381   1.501  0.1188 -0.6397 -0.0746
  366MOL0     C49321   3.820   4.098   2.071 -0.5398 -0.6432  0.2085
  366MOL0     C49322   3.688   4.137   2.086  0.5175  0.1759  0.6104
  366MOL0     O49323   3.501   4.318   2.426  0.0197  0.0668  0.1733
  366MOL0     C49324   3.212   4.355   2.380 -0.2944  0.0230 -0.3690
  366MOL0     C49325   3.085   4.413   2.353 -0.2988  0.9594 -0.4042
  366MOL0     N49326   2.584   4.881   2.357 -0.3342 -0.9252  0.5063
  366MOL0     N49327   2.552   5.006   2.372 -0.3746 -0.7038 -0.4537
  366MOL0     C49328   2.169   5.447   3.548 -0.5683 -0.1929  0.5998
  366MOL0     C49329   2.094   5.436   3.667 -0.2270  1.2409  1.0846
  366MOL0     C49330   1.732   5.270   3.871 -0.2132 -0.2027 -0.5779
  366MOL0     C49331   1.707   5.363   3.976 -0.3426 -0.4361  1.1932
  366MOL0     C49332   1.605   5.338   4.072 -0.1900 -0.0851  0.5455
  366MOL0     C49333   1.538   5.209   4.076 -0.2197 -0.1073 -0.1652
  366MOL0     O49334   1.440   5.187   4.169  0.0822 -0.2490 -0.1454
  366MOL0     C49335   1.456   5.242   4.307  0.1292  0.3335  1.4018
  366MOL0     C49336   1.356   5.171   4.395  0.5000 -0.5444 -0.1097
  366MOL0     C49337   1.203   5.223   4.369 -0.0782 -0.3192 -0.4643
  366MOL0     C49338   1.127   5.174   4.249  0.3356 -0.2180 -0.4048
  366MOL0     C49339   0.997   5.238   4.238 -0.1937 -0.0528  0.0716
  366MOL0     C49340   0.890   5.292   4.218 -0.3210 -0.5348 -0.1055
  366MOL0     C49341   1.571   5.120   3.979 -0.0723  0.1629 -0.0705
  366MOL0     C49342   1.664   5.145   3.867  0.1151 -0.7522  0.4186
  366MOL0     H49343   1.795   5.562   3.546 -0.3385 -1.0650  0.6902
  366MOL0     H49344   1.927   5.603   3.361  1.0475 -0.7965 -0.7009
  366MOL0     H49345   2.386   5.556   3.384  2.4979 -1.0709 -1.6055
  366MOL0     H49346   2.335   5.386   3.357 -0.2764  0.5735  1.1244
  366MOL0     H49347   2.363   5.572   3.116  1.9794  1.1413 -0.5560
  366MOL0     H49348   2.510   5.521   3.195  0.0127  1.5564 -1.6363
  366MOL0     H49349   2.428   5.271   3.147 -2.0885 -1.0895  0.6314
  366MOL0     H49350   2.279   5.344   3.089 -0.9935  0.7396  3.1744
  366MOL0     H49351   2.413   5.486   2.930 -1.6507 -0.6862  0.4535
  366MOL0     H49352   2.562   5.400   2.984 -0.6465 -0.0692  1.5889
  366MOL0     H49353   2.415   5.177   2.898 -3.8859  0.3285  1.2351
  366MOL0     H49354   2.325   5.305   2.824 -0.5762 -1.7041  2.7241
  366MOL0     H49355   2.519   5.389   2.703  0.7518  0.2453 -0.4312
  366MOL0     H49356   2.623   5.271   2.800 -0.2712  2.4116  3.1748
  366MOL0     H49357   2.460   5.090   2.682  0.6708 -0.8974 -0.2015
  366MOL0     H49358   2.396   5.230   2.588 -2.0435 -0.0016  2.8859
  366MOL0     H49359   2.693   5.195   2.611 -0.7836 -0.6383  1.9383
  366MOL0     H49360   2.604   5.244   2.465  4.4270  3.6801  1.3832
  366MOL0     H49361   2.700   4.927   2.663  1.2731  1.1715 -1.1670
  366MOL0     H49362   2.608   4.657   2.587  0.3487  2.0956  0.6588
  366MOL0     H49363   2.623   4.606   2.418 -0.1612  1.0973 -0.8403
  366MOL0     H49364   2.837   4.566   2.556  1.3601  2.8238  0.8324
  366MOL0     H49365   2.848   4.734   2.565 -0.8332  1.5801 -1.1407
  366MOL0     H49366   2.983   4.658   2.371 -0.2175 -0.4645 -2.7757
  366MOL0     H49367   2.836   4.742   2.321 -0.5687  0.7959  1.8253
  366MOL0     H49368   2.737   4.534   2.247 -2.3555 -1.0627  2.1475
  366MOL0     H49369   2.828   4.439   2.354 -2.6721  0.6779 -1.3465
  366MOL0     H49370   3.109   4.448   2.017  0.6031 -0.7631 -1.9819
  366MOL0     H49371   3.459   4.367   2.035 -0.4412  2.8258 -3.7358
  366MOL0     H49372   3.345   4.239   1.987  4.3959 -1.2900  1.0807
  366MOL0     H49373   3.334   4.383   1.912  1.1563 -3.1291 -1.9799
  366MOL0     H49374   3.692   4.175   2.429  0.8506 -2.4816  1.6465
  366MOL0     H49375   3.931   4.104   2.386  2.1421 -2.7215 -1.8747
  366MOL0     H49376   4.136   4.114   2.303  0.3057  0.5736 -1.9397
  366MOL0     H49377   4.114   3.930   2.307 -3.0802  1.1439  1.4657
  366MOL0     H49378   4.325   3.981   2.265  1.4728  5.0046  0.5367
  366MOL0     H49379   4.241   3.909   2.121 -0.8808  2.1375 -3.6070
  366MOL0     H49380   4.423   4.135   2.118  0.9760  2.2393 -0.9665
  366MOL0     H49381   4.255   4.204   2.109  1.0328  0.5302 -0.4176
  366MOL0     H49382   4.390   3.990   1.938  1.0762  0.4535 -2.6076
  366MOL0     H49383   4.232   4.056   1.905  0.0630  0.4882 -0.1829
  366MOL0     H49384   4.481   4.221   1.918 -1.1843 -2.3735  4.0884
  366MOL0     H49385   4.328   4.288   1.876  0.3194 -0.1191  2.0278
  366MOL0     H49386   4.472   4.062   1.742 -0.1597  0.4519  0.1107
  366MOL0     H49387   4.334   4.140   1.668  1.4563  0.0374 -0.5708
  366MOL0     H49388   4.553   4.193   1.549  0.6630 -2.5871  1.6633
  366MOL0     H49389   4.622   4.239   1.697  0.2416  0.0661  1.4235
  366MOL0     H49390   4.540   4.458   1.581  1.2895  0.3560  1.8346
  366MOL0     H49391   4.430   4.407   1.716  1.8176 -2.6548  1.1623
  366MOL0     H49392   3.836   4.074   1.967 -3.2140  0.9773 -0.6799
  366MOL0     H49393   3.627   4.146   1.996  2.2709  2.8674 -0.4400
  366MOL0     H49394   3.233   4.328   2.483  2.5082  0.5664 -0.7175
  366MOL0     H49395   3.035   4.431   2.448  1.7095  2.2190  0.4898
  366MOL0     H49396   2.275   5.435   3.570  0.2664  2.0567 -1.6984
  366MOL0     H49397   2.149   5.405   3.755  1.5587 -0.3780 -0.5042
  366MOL0     H49398   1.767   5.453   3.977 -1.5184  0.3713  0.7357
  366MOL0     H49399   1.568   5.409   4.145 -1.6588 -1.8935  1.6702
  366MOL0     H49400   1.559   5.216   4.333  1.4562  2.2052 -1.5275
  366MOL0     H49401   1.448   5.351   4.306 -0.7778  0.2860 -0.1762
  366MOL0     H49402   1.385   5.207   4.494 -2.7149 -0.0417  0.7618
  366MOL0     H49403   1.366   5.062   4.392  0.3668 -0.5740  0.3643
  366MOL0     H49404   1.203   5.333   4.372  0.8446 -0.3278  0.8297
  366MOL0     H49405   1.157   5.206   4.467 -1.6124 -1.4718 -1.3432
  366MOL0     H49406   1.100   5.068   4.261 -2.8046  0.6152  0.7350
  366MOL0     H49407   1.196   5.178   4.164 -1.3495 -1.6897 -1.9251
  366MOL0     H49408   0.789   5.325   4.203 -0.3499 -0.3374  0.4948
  366MOL0     H49409   1.521   5.023   3.979 -2.1606  1.1850 -0.6881
  366MOL0     H49410   1.683   5.067   3.795 -5.0473 -2.4021  0.4281
  367MOL0     O49411   1.393   5.668   7.214 -0.0155 -0.1959 -0.1749
  367MOL0     C49412   1.411   5.556   7.187  0.4127 -0.6199  1.0839
  367MOL0     O49413   1.419   5.456   7.281 -0.1514  0.1361 -0.3383
  367MOL0     C49414   1.378   5.466   7.409 -0.5316 -0.5593  0.5014
  367MOL0     C49415   1.302   5.568   7.476  0.0382 -0.0116 -0.7499
  367MOL0     C49416   1.281   5.567   7.616  0.7670 -0.2468  1.2312
  367MOL0     C49417   1.340   5.464   7.688 -0.8208 -0.7414 -0.0161
  367MOL0     O49418   1.321   5.472   7.824 -0.0390  0.1173  1.0425
  367MOL0     C49419   1.296   5.352   7.898 -0.2171  0.4190  0.3176
  367MOL0     C49420   1.223   5.387   8.030 -0.3455  0.2583  0.1149
  367MOL0     C49421   1.081   5.418   8.029 -0.7972  0.3136 -1.2145
  367MOL0     C49422   1.000   5.331   7.932  0.3745  0.8584  0.1177
  367MOL0     C49423   0.847   5.365   7.934 -0.2746 -0.5052  0.0316
  367MOL0     C49424   0.756   5.275   7.849  0.5292 -0.5608  0.4417
  367MOL0     C49425   0.609   5.300   7.836 -0.1729  1.3025 -0.0067
  367MOL0     C49426   0.567   5.215   7.714  1.1512 -0.1839 -0.0113
  367MOL0     N49427   0.423   5.167   7.726  0.2215 -1.8581 -0.0954
  367MOL0     C49428   0.373   5.039   7.745  0.8148 -0.8193  0.1852
  367MOL0     C49429   0.234   5.048   7.740 -0.2893 -0.6931 -0.4581
  367MOL0     C49430   0.142   4.941   7.766 -0.2612 -0.0407 -0.2885
  367MOL0     C49431   0.039   4.935   7.647 -0.8722  0.5232  0.8534
  367MOL0     C49432  -0.059   4.837   7.694 -0.9185  0.9802 -0.5676
  367MOL0     C49433  -0.171   4.801   7.596 -0.2076 -0.5272  0.6480
  367MOL0     O49434  -0.124   4.748   7.476 -0.0401 -0.7179 -0.2670
  367MOL0     C49435  -0.171   4.801   7.362 -0.0846 -0.4119 -0.3947
  367MOL0     C49436  -0.244   4.718   7.273 -0.3697 -0.6690  0.1902
  367MOL0     C49437  -0.284   4.759   7.140 -0.3134 -0.3370  0.8560
  367MOL0     C49438  -0.364   4.657   7.062  0.3116 -0.2720  0.4854
  367MOL0     C49439  -0.265   4.893   7.105 -0.6565 -0.3145  1.0135
  367MOL0     C49440  -0.309   4.952   6.973 -0.8653 -0.7123 -0.0046
  367MOL0     O49441  -0.295   5.087   6.968  0.3971 -0.3217  0.0154
  367MOL0     C49442  -0.324   5.141   6.841 -0.6986  0.8727 -0.4773
  367MOL0     C49443  -0.449   5.196   6.812  0.6681  0.4818 -0.2509
  367MOL0     C49444  -0.478   5.253   6.686 -0.0302  0.3402  0.6913
  367MOL0     C49445  -0.371   5.262   6.599  1.0262 -0.2207 -0.4341
  367MOL0     O49446  -0.367   5.302   6.467  0.2436  0.0809  0.4410
  367MOL0     C49447  -0.486   5.266   6.387  0.6639  0.3620  0.2424
  367MOL0     C49448  -0.452   5.286   6.234 -0.5699  0.4704 -0.8081
  367MOL0     C49449  -0.407   5.422   6.195 -0.9221 -0.1982 -0.4272
  367MOL0     C49450  -0.533   5.497   6.143  0.7929  0.5242  0.6311
  367MOL0     C49451  -0.508   5.644   6.128  0.7069  0.2402 -0.2097
  367MOL0     C49452  -0.426   5.660   5.999  0.2943  0.3412 -0.9666
  367MOL0     C49453  -0.420   5.788   5.922 -0.2564 -0.3300  0.3986
  367MOL0     C49454  -0.411   5.922   6.012  0.8996  0.5406 -0.7435
  367MOL0    Cl49455  -0.236   5.916   6.078  0.0877 -0.2286 -0.0506
  367MOL0     C49456  -0.249   5.215   6.631 -0.7054  0.4545 -0.8429
  367MOL0     C49457  -0.226   5.153   6.748  0.0338  0.5260 -0.8776
  367MOL0     O49458  -0.336   4.879   6.876 -0.3921 -0.1446 -0.5695
  367MOL0     C49459  -0.215   4.981   7.201  0.7016  0.8787 -0.5060
  367MOL0     C49460  -0.167   4.938   7.329 -0.8945  0.9937 -1.0569
  367MOL0     N49461   0.205   5.185   7.724 -0.8417 -0.1025  0.2718
  367MOL0     N49462   0.318   5.254   7.704  0.7069  1.1726  0.0646
  367MOL0     C49463   1.420   5.367   7.631  0.8278  0.7710  0.5343
  367MOL0     C49464   1.430   5.367   7.487 -0.5386 -0.4995 -0.3741
  367MOL0     C49465   1.428   5.519   7.040 -0.4613  0.5531 -0.2489
  367MOL0     C49466   1.433   5.389   6.990 -0.2959 -0.0465  0.5968
  367MOL0     C49467   1.437   5.358   6.850 -0.0938 -0.4399 -0.6836
  367MOL0     C49468   1.439   5.467   6.763 -0.2681  0.2593 -0.0772
  367MOL0     O49469   1.474   5.444   6.637  0.0088  0.4001  0.1303
  367MOL0     C49470   1.380   5.450   6.536 -0.2111  0.0281 -0.3080
  367MOL0     C49471   1.261   5.355   6.560  0.2839 -0.2833  0.4190
  367MOL0     C49472   1.284   5.202   6.564  0.5105  0.7123 -0.4935
  367MOL0     C49473   1.288   5.146   6.423 -0.3396 -0.3445 -0.7691
  367MOL0     C49474   1.419   5.165   6.357  0.5502  0.5119  0.4902
  367MOL0     C49475   1.524   5.190   6.305 -0.6822 -0.7008  0.4706
  367MOL0     C49476   1.435   5.591   6.810 -0.2426 -0.2752  0.0380
  367MOL0     C49477   1.415   5.618   6.944  0.6490 -0.2117 -0.3423
  367MOL0     H49478   1.247   5.646   7.424 -0.6472 -0.4369 -0.6671
  367MOL0     H49479   1.224   5.643   7.669 -0.3602 -1.2914  1.5535
  367MOL0     H49480   1.246   5.272   7.842  2.4574 -0.5204 -0.9457
  367MOL0     H49481   1.395   5.316   7.929  0.3767  0.4255 -1.4464
  367MOL0     H49482   1.224   5.293   8.087 -1.0828 -1.5501 -2.6756
  367MOL0     H49483   1.285   5.464   8.078 -0.8850  2.8637 -3.0189
  367MOL0     H49484   1.040   5.416   8.131  1.0885  1.3815 -0.3824
  367MOL0     H49485   1.072   5.519   7.988 -2.6375  1.7897  2.3460
  367MOL0     H49486   1.044   5.336   7.832 -2.3210  0.5878 -1.1546
  367MOL0     H49487   1.017   5.227   7.960  2.0967  1.2600  0.6862
  367MOL0     H49488   0.817   5.368   8.040  0.3600  1.0266  0.1979
  367MOL0     H49489   0.826   5.467   7.900 -3.7622 -1.7565 -2.1235
  367MOL0     H49490   0.795   5.276   7.747 -0.0135  2.8255  0.1796
  367MOL0     H49491   0.770   5.172   7.883 -0.7949 -0.2774  1.9654
  367MOL0     H49492   0.563   5.271   7.931  0.7131 -0.2574 -0.0235
  367MOL0     H49493   0.586   5.405   7.818  0.1095  1.6232  1.3627
  367MOL0     H49494   0.628   5.124   7.712  0.4180 -0.6786 -1.6743
  367MOL0     H49495   0.585   5.265   7.618 -1.1830 -0.8164 -0.8261
  367MOL0     H49496   0.426   4.947   7.767 -0.2351 -1.6742 -0.6986
  367MOL0     H49497   0.201   4.850   7.766  1.1355  0.6885  3.1267
  367MOL0     H49498   0.102   4.949   7.868  2.1985  1.5317  0.6619
  367MOL0     H49499   0.090   4.909   7.554 -0.0679 -1.6916  1.8388
  367MOL0     H49500  -0.005   5.030   7.616 -2.5051 -0.8584 -1.3714
  367MOL0     H49501  -0.099   4.870   7.790  0.8705  0.9119  0.2335
  367MOL0     H49502  -0.011   4.741   7.717 -1.0321  0.9069 -0.6339
  367MOL0     H49503  -0.223   4.895   7.574  1.7367  0.2007 -1.2624
  367MOL0     H49504  -0.238   4.725   7.635 -1.6164  0.9184  1.1545
  367MOL0     H49505  -0.280   4.619   7.300 -1.3977 -1.1188 -2.5396
  367MOL0     H49506  -0.312   4.618   6.974 -2.8121  1.8342 -2.5489
  367MOL0     H49507  -0.386   4.572   7.127  1.0311  0.2473  1.4339
  367MOL0     H49508  -0.464   4.682   7.023  0.6233  0.2196 -0.0158
  367MOL0     H49509  -0.529   5.192   6.886  0.5875  2.9701 -0.1414
  367MOL0     H49510  -0.574   5.299   6.667 -0.3634 -1.0426 -1.4249
  367MOL0     H49511  -0.506   5.160   6.404  2.7009 -0.3582 -1.3592
  367MOL0     H49512  -0.568   5.328   6.424  0.9390  0.3646  0.8719
  367MOL0     H49513  -0.368   5.218   6.218 -0.5044  0.1563  0.6805
  367MOL0     H49514  -0.532   5.254   6.167 -0.6302  1.2524 -1.1270
  367MOL0     H49515  -0.332   5.411   6.116  1.5661 -3.1945  2.1165
  367MOL0     H49516  -0.366   5.475   6.281 -0.0041 -0.9864 -0.3570
  367MOL0     H49517  -0.585   5.452   6.057  2.0836  1.4146 -0.6610
  367MOL0     H49518  -0.609   5.490   6.222 -2.0441  3.6968 -1.4946
  367MOL0     H49519  -0.460   5.689   6.215  0.5193  0.3341 -0.1524
  367MOL0     H49520  -0.604   5.697   6.119  0.9197  0.8492  0.9144
  367MOL0     H49521  -0.325   5.627   6.023 -0.3412 -0.0494  1.3446
  367MOL0     H49522  -0.470   5.592   5.925  1.7723 -1.7189 -0.0287
  367MOL0     H49523  -0.505   5.796   5.855 -0.6428 -1.9619  0.6606
  367MOL0     H49524  -0.333   5.784   5.855 -0.9125  0.5441 -0.5406
  367MOL0     H49525  -0.469   5.919   6.104 -0.0005 -0.4379 -1.3259
  367MOL0     H49526  -0.430   6.014   5.957 -0.1338  0.5103 -0.4600
  367MOL0     H49527  -0.173   5.208   6.554 -0.8824  1.2130 -1.0972
  367MOL0     H49528  -0.129   5.109   6.770 -0.5546 -1.5451 -2.1132
  367MOL0     H49529  -0.197   5.086   7.183  0.4521  0.9518 -0.3351
  367MOL0     H49530  -0.115   5.010   7.392 -0.4723 -1.4999  1.7278
  367MOL0     H49531   1.476   5.288   7.679  1.5634 -0.3557 -2.0151
  367MOL0     H49532   1.484   5.295   7.427  3.0524  2.9689 -1.7889
  367MOL0     H49533   1.442   5.303   7.055 -0.1159 -0.2845  0.2639
  367MOL0     H49534   1.442   5.262   6.798  2.0684 -0.6757 -0.1330
  367MOL0     H49535   1.329   5.546   6.544  0.1285  0.2387 -0.6116
  367MOL0     H49536   1.430   5.438   6.439  0.1162  0.8184 -0.2439
  367MOL0     H49537   1.190   5.379   6.481  2.0097  3.2428 -0.2394
  367MOL0     H49538   1.221   5.377   6.660  0.2208 -0.9733  0.5489
  367MOL0     H49539   1.201   5.157   6.619  1.9021  1.0236  1.9885
  367MOL0     H49540   1.372   5.174   6.622  2.2438  2.1067 -2.3266
  367MOL0     H49541   1.220   5.196   6.353  1.1390  4.8344  0.9778
  367MOL0     H49542   1.286   5.038   6.413  1.7803 -0.6389  1.0235
  367MOL0     H49543   1.621   5.228   6.283 -1.9520  2.3060 -0.4386
  367MOL0     H49544   1.434   5.669   6.735  2.2733 -1.0873 -0.9219
  367MOL0     H49545   1.393   5.718   6.982 -0.0923  0.4876 -2.4938
  368MOL0     O49546  10.670   5.191   8.001 -0.4560  0.2983  0.5133
  368MOL0     C49547  10.636   5.267   8.086  0.0080 -0.7147  1.0483
  368MOL0     O49548  10.603   5.406   8.067  0.3670  0.3523 -0.1302
  368MOL0     C49549  10.659   5.467   7.958 -0.6318 -0.3355 -0.5636
  368MOL0     C49550  10.600   5.598   7.932 -0.1655  1.0026  1.7451
  368MOL0     C49551  10.648   5.681   7.824  0.4774  0.5151 -0.6133
  368MOL0     C49552  10.757   5.648   7.748 -0.4235  0.9359 -0.2972
  368MOL0     O49553  10.796   5.712   7.641 -0.2307  0.1374  0.1348
  368MOL0     C49554  10.843   5.637   7.528  0.7369  0.0660 -0.4028
  368MOL0     C49555  10.833   5.739   7.417  0.4495 -0.3477  0.1334
  368MOL0     C49556  10.901   5.700   7.283 -0.6611 -0.1674  0.7237
  368MOL0     C49557  10.813   5.610   7.205 -0.1325  0.5311  0.3372
  368MOL0     C49558  10.898   5.524   7.098  0.4868  0.2239 -0.4535
  368MOL0     C49559  10.939   5.599   6.970 -0.6140 -0.2946 -0.5728
  368MOL0     C49560  11.036   5.527   6.888  0.1970 -1.2737 -0.4840
  368MOL0     C49561  11.105   5.616   6.782 -0.6854 -0.1199 -0.3654
  368MOL0     N49562  11.024   5.666   6.672  0.7848  0.2355  0.5554
  368MOL0     C49563  10.916   5.752   6.683 -1.1633 -0.2160  0.6082
  368MOL0     C49564  10.872   5.779   6.556 -0.1884 -0.3048 -0.1980
  368MOL0     C49565  10.763   5.865   6.504  0.7388 -0.6277 -0.7250
  368MOL0     C49566  10.646   5.855   6.596  0.8318 -0.5373 -0.4719
  368MOL0     C49567  10.527   5.951   6.551 -0.6159  0.5448  0.1463
  368MOL0     C49568  10.400   5.930   6.638  0.3172 -0.3547 -1.2782
  368MOL0     O49569  10.423   5.966   6.781  0.5407 -0.0411 -0.4725
  368MOL0     C49570  10.312   6.032   6.833  0.2527 -0.3569  0.1490
  368MOL0     C49571  10.243   5.958   6.926  0.7734 -0.6630 -0.1110
  368MOL0     C49572  10.124   6.003   6.979  0.3097  0.0457 -0.0537
  368MOL0     C49573  10.034   5.903   7.048 -0.3759 -0.0871 -1.1528
  368MOL0     C49574  10.082   6.139   6.950 -0.0707 -0.0111 -0.0042
  368MOL0     C49575   9.959   6.212   6.999 -0.5223 -0.0615  0.0860
  368MOL0     O49576   9.965   6.342   7.022  0.1572 -0.9410  0.0750
  368MOL0     C49577   9.902   6.399   7.131  0.3044 -0.5147  0.0885
  368MOL0     C49578   9.829   6.340   7.225  0.3625  0.2593 -0.1634
  368MOL0     C49579   9.754   6.407   7.321 -0.4310  0.8256 -0.4976
  368MOL0     C49580   9.751   6.539   7.326 -0.1824 -0.1292 -0.6623
  368MOL0     O49581   9.679   6.603   7.422  0.1141 -0.2352  0.0811
  368MOL0     C49582   9.714   6.741   7.464 -0.1697  0.5143  0.8546
  368MOL0     C49583   9.661   6.764   7.599  1.0652  0.3001  0.0601
  368MOL0     C49584   9.633   6.913   7.617  0.1387 -0.7113 -0.3467
  368MOL0     C49585   9.571   6.943   7.746  0.2857  0.5105 -1.1573
  368MOL0     C49586   9.646   6.915   7.878  0.2575  0.5456 -0.4180
  368MOL0     C49587   9.552   6.927   7.994  0.0960  0.4994  0.9020
  368MOL0     C49588   9.464   7.055   7.993  0.4611  0.2728 -0.5700
  368MOL0     C49589   9.402   7.083   8.133 -0.1144  0.4086 -0.6182
  368MOL0    Cl49590   9.265   7.192   8.112 -0.0475 -0.1292  0.2894
  368MOL0     C49591   9.825   6.604   7.225  0.3952 -0.7380 -1.0047
  368MOL0     C49592   9.896   6.539   7.129 -0.2633 -0.3604 -1.2196
  368MOL0     O49593   9.856   6.148   6.992 -0.0736 -0.4605  0.2792
  368MOL0     C49594  10.158   6.214   6.858  0.0990 -1.1304  0.3098
  368MOL0     C49595  10.267   6.159   6.797 -0.6352  0.7757  0.0885
  368MOL0     N49596  10.953   5.713   6.468 -0.3084  0.3223 -0.3593
  368MOL0     N49597  11.044   5.643   6.536  0.4124  0.3166 -0.4588
  368MOL0     C49598  10.813   5.518   7.783 -0.2033  0.2514 -0.0026
  368MOL0     C49599  10.764   5.433   7.878 -0.2921  0.2030 -0.7720
  368MOL0     C49600  10.624   5.199   8.215 -0.9153 -0.6395  0.5980
  368MOL0     C49601  10.547   5.266   8.313 -0.4658  0.8093  0.7288
  368MOL0     C49602  10.542   5.213   8.437  0.1628  0.8083 -0.7170
  368MOL0     C49603  10.598   5.086   8.464  0.4413 -0.6700 -0.0894
  368MOL0     O49604  10.594   5.037   8.589  0.4098 -0.7427 -0.0859
  368MOL0     C49605  10.512   4.914   8.605  0.7411 -0.0897 -0.3538
  368MOL0     C49606  10.383   4.958   8.665 -0.1776  0.4603 -0.4098
  368MOL0     C49607  10.394   5.036   8.798  0.9171 -0.0080 -0.0110
  368MOL0     C49608  10.245   5.039   8.849 -0.4105  0.9732 -0.3429
  368MOL0     C49609  10.195   4.903   8.884  0.4431  0.0694  0.0101
  368MOL0     C49610  10.134   4.796   8.898  0.6701 -0.2497  1.5860
  368MOL0     C49611  10.677   5.015   8.367  0.2374  0.9786  0.0910
  368MOL0     C49612  10.684   5.071   8.238 -0.2406 -0.6450  0.0887
  368MOL0     H49613  10.524   5.630   8.003 -1.6335  1.2858  0.1088
  368MOL0     H49614  10.600   5.778   7.815 -1.1989 -0.3255 -1.0246
  368MOL0     H49615  10.951   5.624   7.546  0.9210  2.5038  0.5891
  368MOL0     H49616  10.795   5.539   7.513  0.4459 -0.5290  3.4198
  368MOL0     H49617  10.729   5.763   7.392  0.8133  2.4870  0.9479
  368MOL0     H49618  10.866   5.833   7.463  0.5406  0.2297 -1.0716
  368MOL0     H49619  10.925   5.790   7.225 -1.0839 -0.4308  0.1378
  368MOL0     H49620  10.997   5.652   7.307 -1.5928 -2.0768  0.7845
  368MOL0     H49621  10.760   5.542   7.273  0.8596 -2.0585 -1.3237
  368MOL0     H49622  10.736   5.665   7.150 -1.1326 -1.6556 -0.5985
  368MOL0     H49623  10.977   5.468   7.148  2.2105  3.1609  0.3987
  368MOL0     H49624  10.836   5.445   7.056 -4.9237  2.3517  2.6088
  368MOL0     H49625  10.854   5.620   6.905 -0.9318  6.6047  1.2304
  368MOL0     H49626  10.984   5.690   7.011  0.2107 -1.5344  1.4487
  368MOL0     H49627  11.121   5.499   6.951  1.0368  0.5084 -0.7383
  368MOL0     H49628  10.988   5.444   6.837  0.8770 -1.4259 -0.8799
  368MOL0     H49629  11.193   5.573   6.733 -0.2569  2.5566 -2.1776
  368MOL0     H49630  11.149   5.703   6.832  1.4357 -0.7160 -1.0886
  368MOL0     H49631  10.875   5.789   6.777 -3.0005 -3.1432  1.0669
  368MOL0     H49632  10.799   5.969   6.506 -1.2093  0.1303  2.4460
  368MOL0     H49633  10.724   5.834   6.406 -1.8188  1.1124 -0.3548
  368MOL0     H49634  10.669   5.890   6.697 -2.1186  2.2056 -0.5937
  368MOL0     H49635  10.614   5.750   6.599 -4.0636  0.7124  1.0343
  368MOL0     H49636  10.510   5.936   6.444  1.0976 -1.3363  0.0883
  368MOL0     H49637  10.568   6.051   6.571 -0.8936  0.4186  1.4445
  368MOL0     H49638  10.351   5.832   6.635 -0.2759 -0.0782 -0.9650
  368MOL0     H49639  10.314   5.985   6.599 -1.7649 -2.3748  0.1327
  368MOL0     H49640  10.282   5.864   6.963 -0.9339 -1.6645 -0.7364
  368MOL0     H49641   9.982   5.967   7.119  0.2501 -0.2351 -0.5547
  368MOL0     H49642   9.966   5.850   6.980 -1.2702  1.5728 -1.5947
  368MOL0     H49643  10.091   5.825   7.100 -1.2246 -1.9499 -2.8697
  368MOL0     H49644   9.828   6.233   7.240  0.9837  0.3915  0.9438
  368MOL0     H49645   9.698   6.348   7.393  2.0033  0.1840  0.9694
  368MOL0     H49646   9.822   6.753   7.468  0.3477 -1.4150 -2.9969
  368MOL0     H49647   9.675   6.818   7.397  1.9631  0.3448 -0.6931
  368MOL0     H49648   9.568   6.707   7.600  1.8444 -1.0369 -0.9166
  368MOL0     H49649   9.721   6.713   7.675 -0.7812 -1.1284  0.6361
  368MOL0     H49650   9.561   6.934   7.537 -1.3119 -1.8195  0.6201
  368MOL0     H49651   9.737   6.946   7.612  0.4656 -1.7323 -0.5073
  368MOL0     H49652   9.537   7.047   7.741  2.9575  1.5659  0.4277
  368MOL0     H49653   9.481   6.882   7.745  0.0237  0.8965 -1.6505
  368MOL0     H49654   9.728   6.987   7.889  1.1152 -0.6070  1.2505
  368MOL0     H49655   9.688   6.814   7.883  0.7209  0.7991  1.7118
  368MOL0     H49656   9.482   6.843   7.992  1.1824 -0.4339 -2.0335
  368MOL0     H49657   9.613   6.914   8.084  2.1735 -0.4152 -0.5840
  368MOL0     H49658   9.371   7.045   7.936 -2.2371  1.0817  3.2922
  368MOL0     H49659   9.512   7.150   7.963 -0.4158  1.0530  0.4333
  368MOL0     H49660   9.464   7.130   8.210 -4.0364  1.2610  2.3637
  368MOL0     H49661   9.369   6.993   8.186  0.0423  0.2967 -0.7089
  368MOL0     H49662   9.825   6.713   7.224 -1.1738 -0.7144 -2.0659
  368MOL0     H49663   9.949   6.594   7.051  2.0209 -0.5783  0.0703
  368MOL0     H49664  10.147   6.322   6.849 -1.7379 -1.2751  0.3900
  368MOL0     H49665  10.335   6.216   6.734  0.1593 -0.0492  0.1673
  368MOL0     H49666  10.891   5.478   7.720 -0.5002 -0.8261  0.2939
  368MOL0     H49667  10.811   5.337   7.894 -3.6869 -1.5462 -0.3246
  368MOL0     H49668  10.508   5.361   8.277 -1.3350 -0.1689 -1.0652
  368MOL0     H49669  10.488   5.268   8.513 -1.3373 -2.7324  1.0074
  368MOL0     H49670  10.484   4.865   8.511 -2.2154  1.2401 -0.2768
  368MOL0     H49671  10.555   4.833   8.664 -1.1942 -1.7892 -1.1789
  368MOL0     H49672  10.323   4.867   8.674  1.3462 -0.4097  2.2182
  368MOL0     H49673  10.322   5.011   8.592 -0.5009  1.8622  0.8178
  368MOL0     H49674  10.430   5.139   8.799  0.5382  0.1292  0.8720
  368MOL0     H49675  10.456   4.988   8.874 -0.6038 -0.3916  1.0365
  368MOL0     H49676  10.184   5.094   8.777  1.0611 -0.6614 -2.9948
  368MOL0     H49677  10.250   5.098   8.942 -2.3394 -1.3695  1.3747
  368MOL0     H49678  10.077   4.707   8.887  1.2266 -0.2479 -3.7074
  368MOL0     H49679  10.723   4.917   8.381  0.0358  0.8335 -0.2500
  368MOL0     H49680  10.754   5.031   8.165 -0.0680 -1.4937  0.6966
  369MOL0     O49681   5.902   8.265   3.567 -0.3328  0.8301  0.4853
  369MOL0     C49682   5.940   8.319   3.668  0.4227  0.2903  0.1576
  369MOL0     O49683   6.021   8.430   3.673  0.1041  0.3926 -0.1821
  369MOL0     C49684   6.059   8.472   3.554 -0.8333  0.3544 -0.8762
  369MOL0     C49685   6.176   8.433   3.491  0.0034 -0.5773  1.3258
  369MOL0     C49686   6.222   8.496   3.366 -0.4459 -0.0497 -1.2183
  369MOL0     C49687   6.152   8.607   3.309 -0.7862  0.3843  0.4118
  369MOL0     O49688   6.211   8.671   3.199  0.2410  0.3606 -0.8831
  369MOL0     C49689   6.141   8.779   3.142 -0.2998  0.3638 -0.2882
  369MOL0     C49690   6.223   8.830   3.015 -0.6283 -0.4579 -0.9183
  369MOL0     C49691   6.146   8.957   2.957  0.0867  0.3812  0.5064
  369MOL0     C49692   6.237   9.036   2.855  1.0226  0.2937 -0.0702
  369MOL0     C49693   6.312   9.147   2.935  0.6545  0.3432 -0.9001
  369MOL0     C49694   6.233   9.269   2.961  0.8380 -0.9471 -0.4379
  369MOL0     C49695   6.212   9.359   2.837 -1.3934 -1.5127  0.7184
  369MOL0     C49696   6.124   9.480   2.883  0.8161  0.2144  0.1375
  369MOL0     N49697   6.112   9.566   2.768 -0.4002 -0.1583 -0.3660
  369MOL0     C49698   6.182   9.680   2.758 -0.0501  0.6780 -0.4377
  369MOL0     C49699   6.115   9.760   2.664 -0.5065  0.3163 -0.1953
  369MOL0     C49700   6.160   9.895   2.620  0.7438 -0.0611 -0.1361
  369MOL0     C49701   6.054  10.001   2.637  0.3630  0.2932 -0.3966
  369MOL0     C49702   6.095  10.136   2.581  0.1171  0.2007 -0.1246
  369MOL0     C49703   5.991  10.249   2.604  0.6670 -0.9732 -0.4669
  369MOL0     O49704   6.018  10.365   2.523  0.6976  0.2435  0.1929
  369MOL0     C49705   5.917  10.456   2.494  0.8626  0.0566 -0.6918
  369MOL0     C49706   5.969  10.562   2.433  0.2788 -0.3117 -0.8609
  369MOL0     C49707   5.884  10.672   2.395 -0.2473 -0.1814 -0.7837
  369MOL0     C49708   5.949  10.790   2.322 -0.1261 -0.7155 -0.3463
  369MOL0     C49709   5.751  10.669   2.414  0.5883 -0.0652 -0.3049
  369MOL0     C49710   5.651  10.779   2.377  0.1514  0.1313  0.7503
  369MOL0     O49711   5.522  10.749   2.393  0.4167 -0.3405 -0.8343
  369MOL0     C49712   5.432  10.845   2.353 -0.8288 -0.0944 -0.6453
  369MOL0     C49713   5.426  10.975   2.406  0.3457 -0.7645 -0.1176
  369MOL0     C49714   5.308  11.050   2.401 -0.6935 -0.1089  1.4187
  369MOL0     C49715   5.213  11.022   2.299 -0.7889  0.0855  0.5471
  369MOL0     O49716   5.096  11.092   2.300 -0.2940 -0.3632  0.6336
  369MOL0     C49717   5.011  11.091   2.186 -0.5109 -0.0072  1.0326
  369MOL0     C49718   5.065  11.167   2.059  0.7226 -0.8057 -0.0323
  369MOL0     C49719   5.085  11.317   2.099 -0.1947  1.1342 -0.6698
  369MOL0     C49720   5.110  11.389   1.970  0.0374  0.2186 -0.2798
  369MOL0     C49721   5.151  11.536   1.982  0.3888  1.0947  0.0002
  369MOL0     C49722   5.055  11.604   2.077 -0.1432 -0.0451 -0.0599
  369MOL0     C49723   5.086  11.751   2.095  0.3595 -0.0938  0.3841
  369MOL0     C49724   5.157  11.784   2.226  0.4046  0.9510 -0.3733
  369MOL0    Cl49725   5.226  11.957   2.207  0.0038  0.0350  0.5054
  369MOL0     C49726   5.232  10.903   2.227  0.4824 -0.0072 -0.4324
  369MOL0     C49727   5.340  10.816   2.252  0.5099  0.1041  0.6308
  369MOL0     O49728   5.683  10.887   2.335  0.6002  0.6975 -0.3281
  369MOL0     C49729   5.697  10.563   2.492  0.4170  1.3584  0.6589
  369MOL0     C49730   5.776  10.458   2.533  0.1005  0.2513 -0.6927
  369MOL0     N49731   5.997   9.692   2.626 -0.1042  0.6554  0.1160
  369MOL0     N49732   6.012   9.571   2.670 -0.4534  0.1598  1.7075
  369MOL0     C49733   6.027   8.635   3.368  0.6632  0.0404 -0.1802
  369MOL0     C49734   5.981   8.568   3.481  0.4197  0.2727 -0.3072
  369MOL0     C49735   5.890   8.268   3.791  0.6702  0.1552  0.0701
  369MOL0     C49736   5.792   8.166   3.800 -0.4838  0.1724  1.2348
  369MOL0     C49737   5.753   8.124   3.934  0.3436  0.4677 -1.4679
  369MOL0     C49738   5.805   8.188   4.053  0.5886  0.5469 -0.2102
  369MOL0     O49739   5.772   8.131   4.171  0.0848 -0.6890  0.3705
  369MOL0     C49740   5.635   8.153   4.210  1.1307 -0.1837  0.0761
  369MOL0     C49741   5.594   8.017   4.275  0.6520 -0.1976 -0.2622
  369MOL0     C49742   5.562   7.900   4.172 -0.2822 -0.0429  0.2002
  369MOL0     C49743   5.522   7.772   4.254 -0.3673 -0.2886 -0.2271
  369MOL0     C49744   5.403   7.785   4.337  0.4029 -0.5558 -0.0244
  369MOL0     C49745   5.306   7.823   4.403 -0.0983 -0.4914  0.1489
  369MOL0     C49746   5.902   8.278   4.035  0.7978  0.0656 -0.0256
  369MOL0     C49747   5.932   8.326   3.911 -0.2355  0.9632 -0.0868
  369MOL0     H49748   6.230   8.359   3.549  2.1568 -0.6083 -0.5990
  369MOL0     H49749   6.313   8.463   3.317 -0.6743  0.8472 -2.3009
  369MOL0     H49750   6.054   8.726   3.103  1.6623 -4.1078  0.7829
  369MOL0     H49751   6.116   8.860   3.211 -2.3581  0.5597 -1.2150
  369MOL0     H49752   6.324   8.857   3.047 -0.7380  0.9748 -1.6661
  369MOL0     H49753   6.238   8.762   2.931  2.2978  1.4028 -2.0823
  369MOL0     H49754   6.061   8.913   2.904  2.0998  1.1767 -3.7534
  369MOL0     H49755   6.120   9.023   3.040 -1.9423  0.2281  0.0431
  369MOL0     H49756   6.307   8.967   2.807  0.2032  0.3307 -1.3759
  369MOL0     H49757   6.172   9.079   2.778 -0.0444  0.4461  0.8801
  369MOL0     H49758   6.357   9.105   3.026  1.5219 -0.8278 -1.8410
  369MOL0     H49759   6.400   9.181   2.880  1.6184 -2.8536 -1.5135
  369MOL0     H49760   6.134   9.242   2.999  1.2549 -1.3543  0.3793
  369MOL0     H49761   6.282   9.321   3.044 -0.8854  1.4808 -0.8108
  369MOL0     H49762   6.313   9.390   2.808 -0.9382 -2.6534  1.0449
  369MOL0     H49763   6.179   9.310   2.745 -1.7410 -2.3113  1.2572
  369MOL0     H49764   6.159   9.524   2.976 -0.6316 -0.9710  1.2922
  369MOL0     H49765   6.020   9.451   2.900  0.2358  2.1032  0.1180
  369MOL0     H49766   6.269   9.711   2.815  1.4795 -2.6601 -0.7527
  369MOL0     H49767   6.251   9.923   2.675  1.3059 -5.6673  2.4782
  369MOL0     H49768   6.199   9.889   2.518  0.0240  4.4235 -0.8645
  369MOL0     H49769   6.034  10.015   2.744 -1.5153  1.1789 -0.8253
  369MOL0     H49770   5.962   9.963   2.591 -0.0569  1.0183 -0.1632
  369MOL0     H49771   6.126  10.135   2.476 -0.4983 -0.9193 -0.3198
  369MOL0     H49772   6.186  10.161   2.636 -1.0298  0.2355  1.8666
  369MOL0     H49773   6.002  10.280   2.708  0.4290 -3.1426  0.2520
  369MOL0     H49774   5.889  10.215   2.584 -0.8371  2.3693  0.7952
  369MOL0     H49775   6.073  10.545   2.406  0.3423  0.1728 -0.9372
  369MOL0     H49776   5.917  10.882   2.372  0.2609 -0.7587 -0.0129
  369MOL0     H49777   6.057  10.777   2.319  0.0395  0.6776 -0.9784
  369MOL0     H49778   5.909  10.787   2.221  0.2955 -0.9133 -0.5092
  369MOL0     H49779   5.493  11.005   2.486  1.0863 -1.4313 -0.4761
  369MOL0     H49780   5.314  11.139   2.463 -0.5083  1.2679 -0.4893
  369MOL0     H49781   4.986  10.986   2.168  2.7473 -1.0593  1.8606
  369MOL0     H49782   4.922  11.150   2.207 -0.4527  0.7238 -0.6195
  369MOL0     H49783   5.157  11.125   2.018  0.0035 -0.5922 -1.9214
  369MOL0     H49784   4.991  11.157   1.980  2.6839 -1.7241 -1.8317
  369MOL0     H49785   5.176  11.322   2.159 -0.0107  1.0684 -0.9417
  369MOL0     H49786   5.004  11.362   2.155 -0.5049  0.8889 -0.9134
  369MOL0     H49787   5.181  11.327   1.915  0.1473  1.0480 -1.0834
  369MOL0     H49788   5.013  11.398   1.922 -1.8737  2.0058  3.4442
  369MOL0     H49789   5.160  11.568   1.878  0.2366 -0.7366 -0.6248
  369MOL0     H49790   5.252  11.539   2.024 -0.5417 -0.0936  2.5465
  369MOL0     H49791   4.955  11.593   2.033  0.4995 -0.8996 -1.3812
  369MOL0     H49792   5.037  11.560   2.175 -1.2172  1.9541  0.6918
  369MOL0     H49793   4.994  11.808   2.078 -0.5578 -2.4651 -4.8778
  369MOL0     H49794   5.151  11.781   2.012 -1.3609 -1.7046 -1.6531
  369MOL0     H49795   5.232  11.707   2.246 -0.4700  0.4264  1.0292
  369MOL0     H49796   5.082  11.779   2.305 -1.4475 -0.6159 -2.0814
  369MOL0     H49797   5.157  10.874   2.154  0.0652 -0.7095  0.2527
  369MOL0     H49798   5.344  10.719   2.202 -0.2328  0.6245 -0.4760
  369MOL0     H49799   5.592  10.557   2.518  0.3639 -3.3317  0.2833
  369MOL0     H49800   5.722  10.382   2.588 -0.0613 -1.0076 -2.4902
  369MOL0     H49801   5.955   8.698   3.317  1.5898 -0.5031 -2.3048
  369MOL0     H49802   5.885   8.594   3.526  2.4030  4.6722  2.0991
  369MOL0     H49803   5.756   8.132   3.704 -0.6597  1.4421  0.8356
  369MOL0     H49804   5.689   8.037   3.948  1.7592 -0.3010  0.6960
  369MOL0     H49805   5.624   8.240   4.275 -3.3594 -0.6730  0.2879
  369MOL0     H49806   5.567   8.156   4.124  0.4037 -0.8662  0.6143
  369MOL0     H49807   5.509   8.034   4.341  0.3077 -0.2941 -0.6712
  369MOL0     H49808   5.674   7.991   4.345 -0.2618 -1.0837  0.4597
  369MOL0     H49809   5.654   7.887   4.116 -0.9991  3.8747 -2.2918
  369MOL0     H49810   5.482   7.932   4.104  0.2696  0.8731 -0.0327
  369MOL0     H49811   5.603   7.748   4.324 -0.0672  1.7475  0.1754
  369MOL0     H49812   5.518   7.697   4.174  2.3959 -1.4655  0.5895
  369MOL0     H49813   5.226   7.839   4.473  0.1655  2.2345 -0.0756
  369MOL0     H49814   5.966   8.317   4.115  0.7428  2.9170 -1.2557
  369MOL0     H49815   6.006   8.405   3.907 -0.4199  1.2198  1.1144
  370MOL0     O49816   3.835  10.220   9.269 -0.4238 -0.4566 -0.1073
  370MOL0     C49817   3.933  10.242   9.342  0.2370  0.5957  0.0806
  370MOL0     O49818   4.038  10.151   9.361  0.3991 -0.1560  0.0949
  370MOL0     C49819   4.032  10.038   9.283 -1.0415 -0.4279  0.0046
  370MOL0     C49820   4.016   9.924   9.357 -0.0865  0.2052  0.7253
  370MOL0     C49821   4.013   9.801   9.291  0.3129 -0.1489  0.0659
  370MOL0     C49822   4.052   9.785   9.157  0.1975  0.1992 -0.2654
  370MOL0     O49823   4.055   9.656   9.115  0.3276 -0.8114 -0.0663
  370MOL0     C49824   4.131   9.622   8.999  0.8655 -0.1483  0.5291
  370MOL0     C49825   4.152   9.467   8.986  1.2313  0.4065  0.6142
  370MOL0     C49826   4.026   9.398   8.948  0.6908  1.0976  0.4043
  370MOL0     C49827   3.940   9.349   9.068 -0.4761 -0.7626  0.3682
  370MOL0     C49828   3.818   9.258   9.038  0.0107  0.6801 -0.5909
  370MOL0     C49829   3.859   9.117   8.976 -1.3274  0.5159 -0.2953
  370MOL0     C49830   3.816   9.088   8.833  0.4416  0.0903  0.3132
  370MOL0     C49831   3.699   8.993   8.809 -0.4469 -0.2458 -0.4687
  370MOL0     N49832   3.594   9.007   8.906 -0.3382  0.1495 -0.3091
  370MOL0     C49833   3.484   9.080   8.890  0.8068 -1.1297  0.0704
  370MOL0     C49834   3.410   9.061   8.999  0.0920 -0.4468  0.2652
  370MOL0     C49835   3.278   9.123   9.030  0.0126  0.1521  0.5557
  370MOL0     C49836   3.155   9.048   8.975  0.4006 -0.5677 -0.0660
  370MOL0     C49837   3.163   8.900   8.993  0.4559  0.1089 -0.3932
  370MOL0     C49838   3.055   8.820   8.912 -1.0260  0.3414 -0.1476
  370MOL0     O49839   3.060   8.840   8.769 -0.0766  0.2567  0.7432
  370MOL0     C49840   3.153   8.782   8.691 -0.0980  0.5078 -0.2783
  370MOL0     C49841   3.251   8.695   8.746 -0.2311 -0.0166  0.0963
  370MOL0     C49842   3.354   8.633   8.667  0.1655  0.0492 -0.0770
  370MOL0     C49843   3.457   8.546   8.741 -0.1261 -0.6020 -0.5808
  370MOL0     C49844   3.356   8.671   8.528 -0.1517 -0.2182  1.0726
  370MOL0     C49845   3.468   8.637   8.430 -0.2837  0.4238 -0.5407
  370MOL0     O49846   3.454   8.671   8.303  0.1167 -0.7037  0.4054
  370MOL0     C49847   3.569   8.644   8.213 -0.1109 -0.4576  0.5018
  370MOL0     C49848   3.619   8.509   8.198 -0.0764  0.3368  0.2268
  370MOL0     C49849   3.711   8.482   8.104  0.4101  0.8863  0.7186
  370MOL0     C49850   3.766   8.584   8.024 -0.0903  0.2444 -0.3490
  370MOL0     O49851   3.859   8.564   7.918 -0.0463  0.1859 -0.0688
  370MOL0     C49852   3.909   8.430   7.893  0.7380  0.9346 -0.3623
  370MOL0     C49853   4.040   8.422   7.806  0.1039 -0.2170 -0.1595
  370MOL0     C49854   4.010   8.444   7.656  0.3071 -0.2758  0.2460
  370MOL0     C49855   4.124   8.388   7.565 -0.0504  0.2296 -0.1640
  370MOL0     C49856   4.122   8.232   7.559 -0.0741  0.5701 -0.1793
  370MOL0     C49857   4.221   8.174   7.456 -0.2677  0.0108 -0.3601
  370MOL0     C49858   4.194   8.029   7.424  0.1677 -0.3605  0.3902
  370MOL0     C49859   4.281   7.986   7.310 -0.1734 -0.1678  0.3689
  370MOL0    Cl49860   4.450   7.978   7.343 -0.0479 -0.1256 -0.1576
  370MOL0     C49861   3.712   8.714   8.038  0.7828 -0.1243 -0.5302
  370MOL0     C49862   3.613   8.747   8.130 -0.0172 -0.6715 -0.2867
  370MOL0     O49863   3.575   8.601   8.476  0.7485 -0.7785  0.2680
  370MOL0     C49864   3.249   8.755   8.483 -0.4056  0.4437 -0.2059
  370MOL0     C49865   3.155   8.810   8.558 -0.5591 -0.9177  0.2891
  370MOL0     N49866   3.481   8.981   9.082  1.3801  0.4952  0.1358
  370MOL0     N49867   3.600   8.948   9.028  0.0244  0.3449 -0.9269
  370MOL0     C49868   4.090   9.901   9.084  0.0291 -0.2578 -0.1382
  370MOL0     C49869   4.074  10.031   9.146  0.4790 -0.5457  0.8618
  370MOL0     C49870   3.916  10.347   9.449 -1.2287  0.2837  0.0698
  370MOL0     C49871   4.024  10.371   9.542 -0.3158  0.3983 -0.5608
  370MOL0     C49872   4.014  10.482   9.634 -0.2465  0.0744  0.1904
  370MOL0     C49873   3.903  10.561   9.636  0.0561 -0.5994 -0.6046
  370MOL0     O49874   3.865  10.653   9.727 -0.2328 -0.0716 -0.7504
  370MOL0     C49875   3.955  10.693   9.829  0.0875 -0.9205  0.0778
  370MOL0     C49876   3.979  10.591   9.943  0.0327 -0.4837 -0.8496
  370MOL0     C49877   3.880  10.620  10.064  0.7424 -0.7556  0.5286
  370MOL0     C49878   3.729  10.571  10.035 -0.3317  0.0732  0.2056
  370MOL0     C49879   3.673  10.545  10.170  0.0847 -0.8202 -0.7357
  370MOL0     C49880   3.625  10.522  10.285  0.2689  0.1878  0.8231
  370MOL0     C49881   3.797  10.528   9.550  0.1784  0.6142 -0.4344
  370MOL0     C49882   3.802  10.421   9.461  0.0159 -0.0402  0.2770
  370MOL0     H49883   4.014   9.920   9.465  1.0733 -1.4894  0.7307
  370MOL0     H49884   3.983   9.708   9.338  3.5356 -1.4733 -0.2835
  370MOL0     H49885   4.089   9.644   8.900 -1.2014 -3.3443  0.5878
  370MOL0     H49886   4.218   9.688   9.014  0.1214  1.4544 -1.6167
  370MOL0     H49887   4.226   9.447   8.908 -0.7723  1.0232 -1.5490
  370MOL0     H49888   4.190   9.428   9.081 -0.1082 -2.5483  0.0487
  370MOL0     H49889   3.971   9.467   8.884  1.5426  1.7384  0.3520
  370MOL0     H49890   4.054   9.311   8.889  1.9237  1.4290  0.4792
  370MOL0     H49891   4.007   9.322   9.150  2.7957  3.0081 -0.7213
  370MOL0     H49892   3.893   9.437   9.113  3.2364  0.4492  2.2524
  370MOL0     H49893   3.757   9.259   9.129  2.8244  1.1464  1.4280
  370MOL0     H49894   3.759   9.319   8.969 -1.1897  4.1295  3.1291
  370MOL0     H49895   3.968   9.119   8.983 -1.2125 -1.8603 -0.7105
  370MOL0     H49896   3.822   9.042   9.047 -2.0985 -0.0599 -1.2818
  370MOL0     H49897   3.792   9.180   8.779  2.5259  0.1515 -0.5893
  370MOL0     H49898   3.899   9.042   8.778 -1.6575 -0.8318 -2.3084
  370MOL0     H49899   3.744   8.894   8.817  2.8729  0.9615 -2.1453
  370MOL0     H49900   3.665   9.010   8.706 -0.1497  2.6252 -0.1731
  370MOL0     H49901   3.461   9.139   8.802  2.6962 -1.6739 -0.8195
  370MOL0     H49902   3.265   9.150   9.135 -0.3678  4.4551 -0.3939
  370MOL0     H49903   3.273   9.222   8.983 -1.5586 -1.6912 -3.7837
  370MOL0     H49904   3.136   9.075   8.871 -2.0294 -0.5506  0.3154
  370MOL0     H49905   3.068   9.083   9.031 -1.6654 -1.9054 -2.2660
  370MOL0     H49906   3.155   8.898   9.102  5.1607  0.6092  0.1798
  370MOL0     H49907   3.260   8.857   8.966  1.1626  1.4227 -0.0074
  370MOL0     H49908   2.954   8.853   8.937 -0.6664  2.2248 -0.9826
  370MOL0     H49909   3.070   8.712   8.925  3.2843  0.2733 -3.3535
  370MOL0     H49910   3.263   8.681   8.853 -0.4382  0.4403  0.1823
  370MOL0     H49911   3.426   8.521   8.843 -0.7343  2.0485 -0.0396
  370MOL0     H49912   3.472   8.453   8.685 -0.7216 -1.3234  0.4260
  370MOL0     H49913   3.551   8.601   8.752 -0.2306 -0.5883  0.3657
  370MOL0     H49914   3.577   8.425   8.252  2.8485 -0.4132  1.5224
  370MOL0     H49915   3.746   8.381   8.090 -1.7133  0.1577  0.2862
  370MOL0     H49916   3.928   8.366   7.980 -1.0154 -0.0434 -0.6466
  370MOL0     H49917   3.836   8.372   7.837 -1.1095  2.0934  0.7029
  370MOL0     H49918   4.112   8.498   7.839  1.0349  0.4386 -3.3495
  370MOL0     H49919   4.087   8.328   7.838  0.0289  0.5347  2.4164
  370MOL0     H49920   3.991   8.549   7.632 -0.2148 -0.3961  0.1297
  370MOL0     H49921   3.919   8.392   7.623 -0.6195  2.2015 -1.3958
  370MOL0     H49922   4.112   8.421   7.462  1.3420 -2.3134 -1.2563
  370MOL0     H49923   4.226   8.422   7.589  1.6845 -2.7807 -2.4952
  370MOL0     H49924   4.019   8.211   7.527 -1.0942  0.2962  2.9747
  370MOL0     H49925   4.143   8.189   7.657 -0.0532  0.1769 -0.3576
  370MOL0     H49926   4.225   8.238   7.367  1.1696  0.9450  0.3287
  370MOL0     H49927   4.317   8.186   7.506 -0.9590 -0.4140  1.1155
  370MOL0     H49928   4.088   8.026   7.397  0.1400 -1.9475  0.6006
  370MOL0     H49929   4.209   7.955   7.503  2.4079 -3.6606 -2.7738
  370MOL0     H49930   4.277   8.059   7.229  5.5446 -0.2232 -0.4125
  370MOL0     H49931   4.232   7.897   7.271 -2.3526  1.9716 -2.2646
  370MOL0     H49932   3.752   8.800   7.985  1.3058  0.6038  0.9839
  370MOL0     H49933   3.590   8.852   8.144  2.9805 -0.2595  3.2622
  370MOL0     H49934   3.254   8.801   8.385 -2.0525 -1.6183 -1.3436
  370MOL0     H49935   3.090   8.871   8.496  1.5140  1.2044  0.0617
  370MOL0     H49936   4.082   9.904   8.975 -2.9388  3.0336 -0.0160
  370MOL0     H49937   4.107  10.108   9.076  0.6491 -0.7103  0.7591
  370MOL0     H49938   4.121  10.323   9.538  0.1408  1.3507 -1.4334
  370MOL0     H49939   4.101  10.507   9.693 -1.5206  2.3200  1.2450
  370MOL0     H49940   4.050  10.725   9.785 -0.6443  3.2668  1.0955
  370MOL0     H49941   3.918  10.786   9.873 -0.2286 -1.0890  0.1689
  370MOL0     H49942   4.084  10.602   9.974  0.0448  0.0197 -1.0744
  370MOL0     H49943   3.953  10.488   9.915 -2.1850 -0.9964  2.4802
  370MOL0     H49944   3.868  10.725  10.091  0.9153 -0.4749 -0.4416
  370MOL0     H49945   3.912  10.566  10.154 -0.2596 -1.4288  0.4987
  370MOL0     H49946   3.724  10.483   9.971 -0.6223 -0.3762  0.8352
  370MOL0     H49947   3.678  10.661   9.999 -1.1509  1.2770  3.9076
  370MOL0     H49948   3.563  10.487  10.366 -0.6690  0.6992  0.3504
  370MOL0     H49949   3.697  10.568   9.563 -2.1026 -4.2764 -0.4559
  370MOL0     H49950   3.717  10.389   9.403  1.1693 -1.7279 -0.5532
  371MOL0     O49951   6.437   6.824   9.453  0.2863  0.3964  0.7320
  371MOL0     C49952   6.558   6.810   9.432  0.5983  0.7850 -0.7636
  371MOL0     O49953   6.629   6.870   9.329 -0.4771 -0.5628 -0.7353
  371MOL0     C49954   6.560   6.945   9.233  0.1197  0.0894 -1.2351
  371MOL0     C49955   6.597   6.933   9.100 -0.0154  0.5917  0.0314
  371MOL0     C49956   6.537   7.015   9.005 -0.0029  0.3474  0.4426
  371MOL0     C49957   6.453   7.112   9.038 -0.0764 -0.0478 -0.2183
  371MOL0     O49958   6.381   7.198   8.954 -0.7628  0.2471  0.6096
  371MOL0     C49959   6.390   7.187   8.811 -0.2072 -0.8744 -0.1174
  371MOL0     C49960   6.333   7.312   8.750 -0.4749 -0.0121  0.6267
  371MOL0     C49961   6.189   7.335   8.795  0.3289  0.3614  0.6138
  371MOL0     C49962   6.117   7.410   8.680 -0.6539 -0.5306 -0.2988
  371MOL0     C49963   5.976   7.433   8.737 -0.4211 -0.5150 -0.2683
  371MOL0     C49964   5.867   7.467   8.633  0.5293 -0.3730  0.3375
  371MOL0     C49965   5.881   7.612   8.575  0.5228  0.1415  0.5536
  371MOL0     C49966   5.794   7.644   8.451 -1.3177 -0.0972  0.2923
  371MOL0     N49967   5.652   7.635   8.482  0.0840  0.2619  0.6890
  371MOL0     C49968   5.588   7.696   8.583  0.4269  0.0751  0.0507
  371MOL0     C49969   5.476   7.621   8.603  0.7775  0.6132 -0.2557
  371MOL0     C49970   5.372   7.627   8.705  0.1384  0.1062 -0.1422
  371MOL0     C49971   5.424   7.717   8.827 -0.4626  0.4640 -0.0331
  371MOL0     C49972   5.326   7.672   8.942 -0.1425  0.1209  0.3947
  371MOL0     C49973   5.346   7.767   9.060 -0.4229 -1.1686 -0.4681
  371MOL0     O49974   5.304   7.902   9.027 -0.7338 -0.7469 -0.5864
  371MOL0     C49975   5.309   7.998   9.128 -0.0507  0.0764  1.0889
  371MOL0     C49976   5.394   7.988   9.239 -0.6114 -0.1396  1.2193
  371MOL0     C49977   5.395   8.092   9.331  0.4670 -0.7060  0.3225
  371MOL0     C49978   5.480   8.068   9.448 -1.1744  0.1838 -0.6746
  371MOL0     C49979   5.327   8.218   9.296 -0.8825  1.2810  0.2737
  371MOL0     C49980   5.326   8.329   9.388 -0.5791 -0.1059 -0.9520
  371MOL0     O49981   5.248   8.432   9.337 -0.2506 -0.4681 -0.4490
  371MOL0     C49982   5.219   8.547   9.411  0.7633 -0.7285 -0.0628
  371MOL0     C49983   5.205   8.664   9.342 -0.8060 -0.7891 -0.5289
  371MOL0     C49984   5.181   8.787   9.407  0.4446  0.3723 -0.0165
  371MOL0     C49985   5.151   8.788   9.543 -1.1741 -0.0317 -0.4416
  371MOL0     O49986   5.095   8.896   9.610  0.0828 -0.0632 -0.7028
  371MOL0     C49987   5.181   9.000   9.639 -1.0530 -0.4068 -0.1234
  371MOL0     C49988   5.116   9.112   9.718  0.0163 -0.7606  0.1967
  371MOL0     C49989   4.993   9.183   9.632 -0.3377 -0.9754  0.0206
  371MOL0     C49990   4.908   9.272   9.728  0.0993  0.1462 -0.0530
  371MOL0     C49991   4.837   9.376   9.652 -0.2454  0.4055 -0.1977
  371MOL0     C49992   4.757   9.474   9.730 -0.4697 -0.9529 -0.7131
  371MOL0     C49993   4.710   9.594   9.641 -0.3803  0.1258 -1.1687
  371MOL0     C49994   4.826   9.694   9.622  0.6763  0.1457 -0.4543
  371MOL0    Cl49995   4.750   9.832   9.552 -0.0352  0.0118  0.1688
  371MOL0     C49996   5.181   8.669   9.617  0.0243  0.1468 -0.5758
  371MOL0     C49997   5.216   8.551   9.553  0.8248 -1.1877  0.1657
  371MOL0     O49998   5.402   8.337   9.490  0.7293  0.2726  0.9087
  371MOL0     C49999   5.247   8.223   9.175 -0.0080 -1.0601 -0.2298
  371MOL0     C50000   5.233   8.110   9.098 -0.2458 -0.7705 -0.0632
  371MOL0     N50001   5.474   7.521   8.509  0.0946  0.0039  0.7934
  371MOL0     N50002   5.578   7.528   8.443 -0.8029  0.2510 -0.1494
  371MOL0     C50003   6.418   7.133   9.174 -1.0084 -0.9849 -0.0860
  371MOL0     C50004   6.469   7.051   9.271  0.3112 -0.1810  0.3166
  371MOL0     C50005   6.632   6.712   9.516  0.2418 -0.1746  0.0194
  371MOL0     C50006   6.765   6.687   9.495  0.3798 -0.5873  0.3618
  371MOL0     C50007   6.843   6.613   9.579 -0.2546  0.5796 -0.6218
  371MOL0     C50008   6.784   6.524   9.678 -1.5235 -0.4438 -0.6379
  371MOL0     O50009   6.863   6.455   9.763 -0.6634 -0.2222 -0.0606
  371MOL0     C50010   6.817   6.392   9.887  0.2850  0.3692  0.1470
  371MOL0     C50011   6.822   6.232   9.886 -0.1359 -0.3274 -0.0924
  371MOL0     C50012   6.717   6.176   9.982  0.4162  0.1445 -0.7295
  371MOL0     C50013   6.728   6.203  10.137  0.4975 -0.3379 -0.5878
  371MOL0     C50014   6.838   6.119  10.196  0.3588  0.4031  0.0022
  371MOL0     C50015   6.925   6.060  10.254 -1.0312 -0.7305  0.3092
  371MOL0     C50016   6.642   6.535   9.687 -0.5513 -0.2147 -1.0906
  371MOL0     C50017   6.572   6.633   9.610  1.0147 -0.2869 -0.0145
  371MOL0     H50018   6.664   6.856   9.064 -1.5739 -0.6698 -0.2940
  371MOL0     H50019   6.542   7.001   8.898 -0.8235 -3.1642  0.7420
  371MOL0     H50020   6.494   7.184   8.780 -0.0505  2.6830 -0.3190
  371MOL0     H50021   6.339   7.104   8.762 -0.2213 -0.2178 -1.2390
  371MOL0     H50022   6.392   7.399   8.780 -0.5602  1.3447 -2.7103
  371MOL0     H50023   6.342   7.311   8.641 -1.4296  0.4983  0.5338
  371MOL0     H50024   6.138   7.241   8.815  0.3665  0.9677  4.3055
  371MOL0     H50025   6.185   7.394   8.888  1.3346  3.3965 -1.1111
  371MOL0     H50026   6.163   7.507   8.658  1.0413 -1.5767 -1.6003
  371MOL0     H50027   6.118   7.343   8.594  3.0090 -1.7513  0.5011
  371MOL0     H50028   5.947   7.342   8.791  1.5604  0.1924  2.2000
  371MOL0     H50029   5.977   7.508   8.817 -2.3714 -0.7881  0.0564
  371MOL0     H50030   5.874   7.403   8.545  0.7242 -0.0742  0.1349
  371MOL0     H50031   5.765   7.460   8.672  0.6303 -0.1993  0.6361
  371MOL0     H50032   5.842   7.680   8.651  2.9176  0.9799  1.1053
  371MOL0     H50033   5.986   7.635   8.555  0.6449 -0.8124  0.0203
  371MOL0     H50034   5.821   7.578   8.368 -3.1525 -1.8305  0.9848
  371MOL0     H50035   5.817   7.749   8.426 -0.6952 -0.0685  0.9510
  371MOL0     H50036   5.619   7.789   8.631 -4.1550  0.6537  2.4387
  371MOL0     H50037   5.272   7.649   8.666  1.3879  0.9266 -3.1414
  371MOL0     H50038   5.362   7.524   8.739 -0.7654 -0.2166 -1.3154
  371MOL0     H50039   5.421   7.822   8.796 -0.0231 -0.1656 -2.4307
  371MOL0     H50040   5.526   7.692   8.859 -1.2886 -0.8377  1.6889
  371MOL0     H50041   5.337   7.568   8.975 -2.1741 -0.5313 -0.7874
  371MOL0     H50042   5.221   7.677   8.911 -0.0884 -0.8893 -0.0181
  371MOL0     H50043   5.450   7.756   9.091 -0.0004 -2.3862 -2.1289
  371MOL0     H50044   5.283   7.733   9.143  2.3015 -2.1262  1.3359
  371MOL0     H50045   5.459   7.901   9.246  1.4720  1.4421  2.5453
  371MOL0     H50046   5.508   7.962   9.455  0.5143  0.6495  0.1219
  371MOL0     H50047   5.573   8.126   9.442 -3.0120  3.1547 -3.6610
  371MOL0     H50048   5.419   8.089   9.536  0.5179  0.0825  0.5829
  371MOL0     H50049   5.217   8.669   9.234 -6.0991 -0.8161 -1.3840
  371MOL0     H50050   5.177   8.870   9.337  0.1916 -0.4300 -0.9845
  371MOL0     H50051   5.256   8.966   9.711 -3.1695  1.0307  2.9934
  371MOL0     H50052   5.233   9.038   9.550  3.1840 -1.4298  1.6582
  371MOL0     H50053   5.070   9.068   9.807 -0.0101  1.7580  1.5231
  371MOL0     H50054   5.183   9.193   9.750 -1.0156  0.2766 -0.1928
  371MOL0     H50055   4.927   9.109   9.587 -2.0231  0.4777 -0.0129
  371MOL0     H50056   5.034   9.239   9.547  1.7434 -3.1618 -0.5338
  371MOL0     H50057   4.851   9.204   9.791 -0.6713  0.3652 -0.5005
  371MOL0     H50058   4.980   9.323   9.794 -0.8359  3.5707 -1.4527
  371MOL0     H50059   4.767   9.325   9.584  1.3660 -1.2210 -0.7112
  371MOL0     H50060   4.911   9.429   9.592 -2.4494 -0.0836 -3.6328
  371MOL0     H50061   4.664   9.427   9.764 -0.0263 -1.4910 -0.2303
  371MOL0     H50062   4.794   9.528   9.818 -0.5596 -1.8504 -0.1082
  371MOL0     H50063   4.643   9.646   9.710  2.4240 -1.4161  3.1107
  371MOL0     H50064   4.664   9.574   9.544  1.6602  2.6767 -2.8159
  371MOL0     H50065   4.906   9.644   9.567  0.5731 -0.8051  0.2263
  371MOL0     H50066   4.873   9.722   9.717  0.7132 -0.2979 -0.3414
  371MOL0     H50067   5.156   8.667   9.722  1.5475 -2.0770 -0.1884
  371MOL0     H50068   5.210   8.466   9.620 -0.1887 -0.3543  1.1899
  371MOL0     H50069   5.167   8.295   9.160 -2.0791 -2.2192  3.8333
  371MOL0     H50070   5.156   8.108   9.021 -1.8536  2.7789  1.2553
  371MOL0     H50071   6.350   7.208   9.213 -3.4810 -3.4799  0.7685
  371MOL0     H50072   6.454   7.070   9.377 -0.0180  3.1464 -0.2192
  371MOL0     H50073   6.813   6.743   9.415 -0.8548 -0.7974 -0.5697
  371MOL0     H50074   6.949   6.595   9.573 -0.0917  1.0343  0.6788
  371MOL0     H50075   6.883   6.422   9.969  2.5735 -0.3231 -1.3416
  371MOL0     H50076   6.718   6.431   9.914 -1.1685 -0.8307 -2.9255
  371MOL0     H50077   6.919   6.186   9.903  0.2129 -0.3026 -1.8310
  371MOL0     H50078   6.791   6.203   9.786 -2.4950  0.1805  0.4343
  371MOL0     H50079   6.711   6.067   9.974 -0.9028  0.0712  0.8331
  371MOL0     H50080   6.618   6.202   9.944  0.2753  0.3997 -0.1889
  371MOL0     H50081   6.638   6.173  10.192  0.3975 -0.3471 -0.7570
  371MOL0     H50082   6.744   6.311  10.145 -2.0365  0.2364 -2.2423
  371MOL0     H50083   7.004   6.014  10.311 -0.2923  2.5618  2.2661
  371MOL0     H50084   6.573   6.475   9.745 -1.7950 -0.6063 -2.8788
  371MOL0     H50085   6.465   6.644   9.616  1.2432  2.0066  1.1188
  372MOL0     O50086  10.943   6.085   7.108 -1.1795 -0.3618  0.4466
  372MOL0     C50087  10.968   6.070   6.983 -0.1474  0.7386 -0.6347
  372MOL0     O50088  10.906   6.131   6.878  0.6552  0.0875 -0.0317
  372MOL0     C50089  10.803   6.217   6.908  0.1436 -0.2434 -0.1911
  372MOL0     C50090  10.835   6.350   6.934  0.0035 -1.3648  0.7641
  372MOL0     C50091  10.735   6.431   6.991  0.3955 -0.0648 -0.6570
  372MOL0     C50092  10.608   6.386   7.006  1.3409  0.1246  0.2806
  372MOL0     O50093  10.525   6.478   7.060 -0.7678  0.0793 -0.0954
  372MOL0     C50094  10.380   6.467   7.048  0.6132  0.1596 -0.4895
  372MOL0     C50095  10.313   6.381   7.159  0.2490 -0.0853  0.7584
  372MOL0     C50096  10.344   6.435   7.295 -0.8190  0.4292  0.3358
  372MOL0     C50097  10.265   6.558   7.328  0.1533 -0.2546  0.3831
  372MOL0     C50098  10.260   6.576   7.481 -0.4596 -1.0892  0.0923
  372MOL0     C50099  10.201   6.712   7.523  0.6475  0.8289 -0.6461
  372MOL0     C50100  10.316   6.811   7.529 -0.0651  0.3085 -0.6295
  372MOL0     C50101  10.253   6.949   7.528 -0.1140 -0.5244  0.5864
  372MOL0     N50102  10.176   6.977   7.645  0.5664  0.1125  0.7001
  372MOL0     C50103  10.210   6.980   7.777  0.0134 -0.2276  0.8647
  372MOL0     C50104  10.092   6.983   7.848 -0.1094  0.1037  0.6507
  372MOL0     C50105  10.076   6.996   7.997  0.9273 -0.2960 -0.5560
  372MOL0     C50106  10.066   7.141   8.035  0.5306  1.0722 -1.2503
  372MOL0     C50107  10.002   7.148   8.181 -0.5087  0.0672  1.0438
  372MOL0     C50108   9.847   7.192   8.181 -1.2088 -0.7011 -0.0690
  372MOL0     O50109   9.794   7.266   8.062 -1.0353 -0.1507 -0.1677
  372MOL0     C50110   9.842   7.385   8.027 -0.4493 -0.6149 -0.2611
  372MOL0     C50111   9.913   7.475   8.115 -1.0210 -0.0038  0.4388
  372MOL0     C50112   9.990   7.584   8.074  0.4383  0.0429  0.0458
  372MOL0     C50113  10.071   7.658   8.173  0.6353  0.4910  0.2730
  372MOL0     C50114   9.977   7.620   7.937  0.2671 -0.6419  0.8315
  372MOL0     C50115  10.053   7.730   7.863 -0.2103 -0.4689 -0.4930
  372MOL0     O50116   9.992   7.791   7.763 -0.4009  0.1677  0.2213
  372MOL0     C50117   9.984   7.929   7.753 -1.0283  0.8301  0.9043
  372MOL0     C50118  10.028   8.033   7.838  0.7471  1.1163 -1.1406
  372MOL0     C50119   9.989   8.160   7.808  0.4134  0.2043  1.2054
  372MOL0     C50120   9.913   8.193   7.694 -0.3421 -0.0105 -0.7313
  372MOL0     O50121   9.877   8.321   7.675  0.3970 -0.6194 -1.4594
  372MOL0     C50122   9.767   8.346   7.583 -0.0334 -0.3002 -1.1628
  372MOL0     C50123   9.714   8.490   7.589 -0.2868 -0.9438 -0.2226
  372MOL0     C50124   9.578   8.507   7.523 -0.3018  0.7434 -0.9046
  372MOL0     C50125   9.527   8.649   7.540 -0.2579 -0.2603 -0.4887
  372MOL0     C50126   9.398   8.674   7.467  0.7958  0.5116 -0.1280
  372MOL0     C50127   9.332   8.809   7.486 -0.6339 -0.3640  0.4970
  372MOL0     C50128   9.191   8.817   7.433 -0.3119  0.6072  0.1583
  372MOL0     C50129   9.111   8.927   7.504  0.0153 -0.1706 -0.2088
  372MOL0    Cl50130   9.186   9.082   7.496  0.0072  0.0826  0.0246
  372MOL0     C50131   9.881   8.092   7.602 -0.3336  0.1356  0.7428
  372MOL0     C50132   9.918   7.960   7.635 -0.1624  1.0592  0.1075
  372MOL0     O50133  10.155   7.768   7.911  0.4037  0.2023  0.3129
  372MOL0     C50134   9.908   7.533   7.847 -0.3062 -0.7406 -0.8312
  372MOL0     C50135   9.838   7.423   7.890  0.3642 -0.5477 -0.2009
  372MOL0     N50136   9.983   6.974   7.765  0.0592  1.2759  0.1405
  372MOL0     N50137  10.039   6.972   7.645  0.0117  0.2709  0.2899
  372MOL0     C50138  10.574   6.250   6.973 -0.6176 -0.1325  0.8023
  372MOL0     C50139  10.679   6.168   6.932  0.8342 -0.4894 -0.5026
  372MOL0     C50140  11.090   5.990   6.947 -0.2711 -0.0452 -0.2544
  372MOL0     C50141  11.150   5.913   7.046 -1.1636  1.6247 -0.6793
  372MOL0     C50142  11.268   5.829   7.015 -1.2349 -0.6975 -0.5678
  372MOL0     C50143  11.335   5.847   6.898  0.1297 -0.6900 -0.4391
  372MOL0     O50144  11.449   5.782   6.865 -0.6840  0.1137  0.3704
  372MOL0     C50145  11.569   5.817   6.932 -0.6359  0.9724  0.4500
  372MOL0     C50146  11.618   5.961   6.898  0.4905 -0.1348  0.9470
  372MOL0     C50147  11.745   5.989   6.972  0.1969 -0.3327  1.0156
  372MOL0     C50148  11.811   6.128   6.944 -0.2012  0.1067 -0.9814
  372MOL0     C50149  11.886   6.113   6.825 -0.3094  0.6878 -0.1687
  372MOL0     C50150  11.940   6.108   6.719 -0.1975 -1.5540  0.0708
  372MOL0     C50151  11.273   5.929   6.797 -0.8044 -0.3672  0.3697
  372MOL0     C50152  11.151   5.992   6.824 -0.1561 -0.1391  0.1047
  372MOL0     H50153  10.934   6.390   6.916  1.1456 -3.8627  1.1246
  372MOL0     H50154  10.753   6.527   7.037  3.1070 -1.4120  1.3852
  372MOL0     H50155  10.339   6.568   7.048  1.3034  0.4699 -2.2220
  372MOL0     H50156  10.351   6.424   6.952 -1.3701  0.4181 -0.0458
  372MOL0     H50157  10.206   6.374   7.139  0.8874 -0.0435 -3.8454
  372MOL0     H50158  10.348   6.278   7.148  0.6196  0.1901 -0.8948
  372MOL0     H50159  10.317   6.359   7.368 -0.0358 -0.6528 -0.4769
  372MOL0     H50160  10.450   6.460   7.295 -0.6749 -0.1689  0.1152
  372MOL0     H50161  10.307   6.649   7.283 -1.6629  1.5721  2.1518
  372MOL0     H50162  10.164   6.558   7.289  0.2778  1.6289 -0.0337
  372MOL0     H50163  10.204   6.499   7.534 -3.9343  2.0897  1.4489
  372MOL0     H50164  10.361   6.576   7.523 -2.0835  0.1277  4.4903
  372MOL0     H50165  10.133   6.743   7.443 -0.2297 -2.7630 -1.4800
  372MOL0     H50166  10.148   6.693   7.617 -0.2272 -1.5562 -1.5466
  372MOL0     H50167  10.375   6.786   7.617 -0.6982  2.2351  0.4050
  372MOL0     H50168  10.380   6.796   7.442 -2.1050 -2.6431 -1.7712
  372MOL0     H50169  10.208   6.977   7.433 -0.4870  0.3324  1.0012
  372MOL0     H50170  10.340   7.015   7.537 -1.5447  1.2682  2.2710
  372MOL0     H50171  10.314   6.963   7.806  1.2005 -0.4012 -2.9461
  372MOL0     H50172   9.992   6.936   8.033  1.1936 -0.5567 -0.3510
  372MOL0     H50173  10.163   6.943   8.039  0.4353 -0.9845 -0.3905
  372MOL0     H50174  10.002   7.194   7.964 -2.2539 -2.3090 -1.5097
  372MOL0     H50175  10.169   7.180   8.035  0.1251  2.1915 -1.1053
  372MOL0     H50176  10.052   7.224   8.242 -0.7677  0.1053  1.2124
  372MOL0     H50177  10.022   7.054   8.232  1.7695 -1.0227 -1.6190
  372MOL0     H50178   9.813   7.244   8.270  3.8038  2.2817  0.4887
  372MOL0     H50179   9.788   7.100   8.182 -0.8704 -0.9162  0.4905
  372MOL0     H50180   9.920   7.446   8.220  0.5672  1.9006  0.9276
  372MOL0     H50181  10.027   7.653   8.273 -0.5816  0.7184 -0.2400
  372MOL0     H50182  10.170   7.613   8.161  0.5256  0.7723 -2.0439
  372MOL0     H50183  10.097   7.756   8.133 -0.2985  0.1401 -1.2750
  372MOL0     H50184  10.087   8.008   7.926  2.3747  3.3254 -1.5274
  372MOL0     H50185  10.015   8.242   7.875 -0.8087  2.6234 -1.0643
  372MOL0     H50186   9.808   8.319   7.485 -0.4707 -0.3838 -1.3256
  372MOL0     H50187   9.690   8.275   7.615 -2.2010  1.8175 -1.4708
  372MOL0     H50188   9.714   8.519   7.695  0.4977 -0.1943 -0.4177
  372MOL0     H50189   9.786   8.562   7.550  0.1724 -0.8337  0.7718
  372MOL0     H50190   9.497   8.445   7.563  0.0595  1.3396  0.8432
  372MOL0     H50191   9.594   8.484   7.417  2.7730  2.9658 -1.0597
  372MOL0     H50192   9.504   8.661   7.646 -0.4834 -1.1075 -0.4395
  372MOL0     H50193   9.596   8.732   7.522  0.2744 -0.8709 -1.3171
  372MOL0     H50194   9.333   8.589   7.488  3.6824 -2.1427 -1.1000
  372MOL0     H50195   9.404   8.667   7.358 -1.7284  2.7052 -0.5369
  372MOL0     H50196   9.335   8.818   7.595 -0.2877 -2.2394  0.6791
  372MOL0     H50197   9.397   8.882   7.436 -3.5727  2.0229 -0.0928
  372MOL0     H50198   9.154   8.716   7.452 -0.8341  0.5736 -0.9128
  372MOL0     H50199   9.185   8.830   7.324 -1.8245 -1.2341 -0.0393
  372MOL0     H50200   9.099   8.903   7.610 -2.6199  0.7805 -0.2003
  372MOL0     H50201   9.005   8.933   7.478 -0.4046 -1.9650  0.9263
  372MOL0     H50202   9.835   8.114   7.506  1.9726  0.7664 -0.2895
  372MOL0     H50203   9.878   7.881   7.571 -2.1537  1.6602  0.5420
  372MOL0     H50204   9.905   7.562   7.743  4.7324  1.3788 -0.6482
  372MOL0     H50205   9.780   7.355   7.830  0.3917 -0.3574 -0.4446
  372MOL0     H50206  10.478   6.201   6.984  0.5786 -2.2039  2.9670
  372MOL0     H50207  10.655   6.064   6.912 -1.2884  0.2677 -2.1288
  372MOL0     H50208  11.119   5.914   7.150 -1.1171  0.5879 -0.6383
  372MOL0     H50209  11.314   5.753   7.078  0.2665 -0.3009 -1.1427
  372MOL0     H50210  11.557   5.814   7.041 -0.7047 -0.8462  0.4152
  372MOL0     H50211  11.640   5.742   6.899  1.1134  1.0777  3.5561
  372MOL0     H50212  11.542   6.031   6.933 -1.5511 -1.1820 -1.1698
  372MOL0     H50213  11.630   5.972   6.790 -0.2876  0.1115  0.8833
  372MOL0     H50214  11.820   5.910   6.967 -2.2260 -2.6653 -1.7118
  372MOL0     H50215  11.723   5.980   7.079  0.3135 -1.0208  0.9858
  372MOL0     H50216  11.879   6.163   7.022  1.3099 -3.1357 -0.6862
  372MOL0     H50217  11.738   6.210   6.937  0.1588  0.8895  2.5149
  372MOL0     H50218  11.982   6.097   6.621 -0.4298 -1.5217 -0.0332
  372MOL0     H50219  11.330   5.943   6.706 -1.5699 -4.1950 -0.8621
  372MOL0     H50220  11.099   6.055   6.753 -1.7324 -1.0377  0.4350
  373MOL0     O50221   9.690   1.300   3.934  0.5630  0.5805 -0.9040
  373MOL0     C50222   9.715   1.183   3.928  0.3516 -0.2582  0.0813
  373MOL0     O50223   9.820   1.122   3.995  0.0777 -0.0317 -0.5783
  373MOL0     C50224   9.912   1.197   4.061 -0.2220 -0.8092  0.0774
  373MOL0     C50225   9.877   1.234   4.196 -0.3107  0.9197  0.1539
  373MOL0     C50226   9.957   1.323   4.266  0.1143 -0.8600  0.4732
  373MOL0     C50227  10.089   1.358   4.215  0.2666  0.6976 -0.1538
  373MOL0     O50228  10.179   1.443   4.276  0.7880 -0.6344 -1.1301
  373MOL0     C50229  10.164   1.480   4.415 -0.3553 -0.1929  0.6222
  373MOL0     C50230  10.297   1.538   4.466  0.6932  0.1026 -0.3759
  373MOL0     C50231  10.292   1.603   4.609  1.0193  0.0953  0.8737
  373MOL0     C50232  10.427   1.670   4.638 -0.6287  0.0922  0.1597
  373MOL0     C50233  10.507   1.619   4.760 -0.4288  0.6297  0.1787
  373MOL0     C50234  10.430   1.626   4.899 -0.5392 -0.6628  0.8677
  373MOL0     C50235  10.517   1.625   5.027 -0.5719 -0.0951 -0.1352
  373MOL0     C50236  10.606   1.494   5.057  0.0542  0.7008 -0.3290
  373MOL0     N50237  10.670   1.498   5.194 -0.1085 -0.3963  0.4347
  373MOL0     C50238  10.599   1.493   5.314  0.1348  1.3215 -0.2015
  373MOL0     C50239  10.696   1.508   5.404  0.5121  0.4473  0.5354
  373MOL0     C50240  10.665   1.521   5.556 -0.3760 -0.1480  0.2218
  373MOL0     C50241  10.762   1.459   5.648  0.1003  1.1069  0.5252
  373MOL0     C50242  10.884   1.543   5.657 -0.4221  0.4589 -0.9628
  373MOL0     C50243  10.972   1.497   5.779  0.0382 -0.4046 -0.5539
  373MOL0     O50244  11.107   1.547   5.769  0.0500  0.1372  0.2554
  373MOL0     C50245  11.208   1.455   5.728  0.8859  0.0808  0.1156
  373MOL0     C50246  11.324   1.436   5.799  0.8380  0.1967  0.5587
  373MOL0     C50247  11.406   1.324   5.779  0.6106 -0.0886  0.2825
  373MOL0     C50248  11.530   1.307   5.866 -0.5267 -0.1268 -0.3293
  373MOL0     C50249  11.374   1.236   5.676 -1.2836 -0.1636 -1.4605
  373MOL0     C50250  11.442   1.102   5.662  0.1305  0.5912 -0.1103
  373MOL0     O50251  11.479   1.041   5.780 -0.7762 -0.5297 -1.0303
  373MOL0     C50252  11.565   0.935   5.776 -0.5946  0.0609 -0.6298
  373MOL0     C50253  11.613   0.894   5.906  0.4318  0.0439 -0.5022
  373MOL0     C50254  11.717   0.801   5.916 -0.0213 -0.2130 -0.1778
  373MOL0     C50255  11.779   0.740   5.808 -1.5645 -0.4547 -0.4922
  373MOL0     O50256  11.879   0.650   5.828  1.0711 -0.0901  0.5507
  373MOL0     C50257  11.904   0.561   5.716 -0.4911  0.1561 -0.0925
  373MOL0     C50258  12.030   0.489   5.746 -0.1697  0.6533 -1.1055
  373MOL0     C50259  12.152   0.585   5.753  0.1133 -0.0318  0.5406
  373MOL0     C50260  12.286   0.516   5.776  0.1968  0.2729  0.7077
  373MOL0     C50261  12.355   0.490   5.641 -0.1445  0.5208  0.7251
  373MOL0     C50262  12.500   0.434   5.645 -0.0907 -0.0293 -1.0205
  373MOL0     C50263  12.557   0.440   5.508 -0.2725  0.2913  1.0841
  373MOL0     C50264  12.705   0.396   5.492 -0.3657 -0.6165 -0.8448
  373MOL0    Cl50265  12.812   0.507   5.591  0.1998 -0.4561  0.5815
  373MOL0     C50266  11.715   0.772   5.690  0.6256 -0.9344  0.2083
  373MOL0     C50267  11.622   0.870   5.670 -0.3425  0.6266  0.3016
  373MOL0     O50268  11.422   1.045   5.551 -0.3281 -0.2713 -0.9411
  373MOL0     C50269  11.256   1.251   5.612  1.3242 -0.1783  0.2321
  373MOL0     C50270  11.170   1.361   5.635  0.5187 -0.0639 -0.0734
  373MOL0     N50271  10.816   1.519   5.336  0.0742 -0.8029 -0.3342
  373MOL0     N50272  10.801   1.505   5.213 -1.0113  0.6339 -0.3405
  373MOL0     C50273  10.123   1.316   4.087 -0.7642  0.1168  0.1441
  373MOL0     C50274  10.037   1.241   4.011  2.0736 -0.5322  0.5975
  373MOL0     C50275   9.628   1.094   3.847 -0.7090  0.7656  0.5764
  373MOL0     C50276   9.490   1.120   3.817  0.2418  0.3723 -0.9203
  373MOL0     C50277   9.411   1.034   3.742 -0.4123 -0.7693 -0.3477
  373MOL0     C50278   9.467   0.913   3.699  0.6217 -0.1470 -0.1095
  373MOL0     O50279   9.382   0.827   3.631 -1.0074 -0.4036 -0.6848
  373MOL0     C50280   9.328   0.867   3.512  0.3561  0.4783 -0.1087
  373MOL0     C50281   9.431   0.946   3.420  0.1691 -0.0937 -0.6526
  373MOL0     C50282   9.361   0.979   3.284 -0.3833 -0.2693 -1.1024
  373MOL0     C50283   9.322   1.130   3.262 -0.3065 -0.1578  0.4300
  373MOL0     C50284   9.262   1.192   3.376  0.3027  0.0785 -1.5341
  373MOL0     C50285   9.216   1.243   3.485  0.8167  1.0593  0.1221
  373MOL0     C50286   9.598   0.872   3.738  0.6209  0.1737 -0.2141
  373MOL0     C50287   9.681   0.963   3.810 -0.0538 -0.0719  1.2746
  373MOL0     H50288   9.787   1.199   4.244  0.2877 -0.1991  0.4915
  373MOL0     H50289   9.930   1.352   4.367 -1.6338  0.4386 -0.3226
  373MOL0     H50290  10.084   1.554   4.423  0.7581  1.1689 -0.3699
  373MOL0     H50291  10.131   1.396   4.478 -2.6245  1.2891  1.5465
  373MOL0     H50292  10.369   1.456   4.471 -0.3842 -0.7841  2.2072
  373MOL0     H50293  10.332   1.606   4.387  2.2461 -2.7442 -2.3171
  373MOL0     H50294  10.211   1.677   4.603  1.1802  0.1567 -1.1015
  373MOL0     H50295  10.260   1.534   4.687 -1.5969  0.8268  0.5643
  373MOL0     H50296  10.492   1.657   4.551  0.5621 -0.8216  1.1579
  373MOL0     H50297  10.407   1.778   4.638  1.6088  0.5535 -0.6123
  373MOL0     H50298  10.512   1.511   4.746 -1.7829  0.6066 -0.3021
  373MOL0     H50299  10.609   1.659   4.755  0.7125 -1.9983  0.9470
  373MOL0     H50300  10.387   1.726   4.894  2.2641  0.5522 -2.1778
  373MOL0     H50301  10.357   1.544   4.900  1.0681 -2.1552  2.2273
  373MOL0     H50302  10.585   1.710   5.021 -1.7820  1.0531  1.4732
  373MOL0     H50303  10.448   1.644   5.110 -0.6028  0.7897 -0.3600
  373MOL0     H50304  10.669   1.474   4.970 -0.6796 -2.0304 -0.3195
  373MOL0     H50305  10.540   1.407   5.057  0.9347 -0.1419  3.4835
  373MOL0     H50306  10.493   1.496   5.338  0.0693 -0.6986 -0.0369
  373MOL0     H50307  10.654   1.629   5.568 -2.2397 -0.3554  0.6417
  373MOL0     H50308  10.567   1.483   5.585 -0.7384  0.4817 -0.1792
  373MOL0     H50309  10.794   1.367   5.599 -0.3772 -0.3098  2.7231
  373MOL0     H50310  10.704   1.446   5.740  0.1692 -2.0116  0.2579
  373MOL0     H50311  10.855   1.647   5.674  0.3802  0.8342 -1.8416
  373MOL0     H50312  10.942   1.526   5.566  0.2152 -4.0410  0.0491
  373MOL0     H50313  10.976   1.389   5.796 -0.3031 -0.0794  1.9804
  373MOL0     H50314  10.924   1.536   5.870  2.4885  0.6430  0.3619
  373MOL0     H50315  11.348   1.509   5.876  2.4551  1.3404 -0.9495
  373MOL0     H50316  11.500   1.268   5.964  3.2542 -1.5602  0.4318
  373MOL0     H50317  11.602   1.231   5.833 -1.0028 -1.5063  1.6277
  373MOL0     H50318  11.588   1.399   5.873 -0.7068 -0.0005 -0.5010
  373MOL0     H50319  11.569   0.942   5.993  0.8218  0.3718 -0.4841
  373MOL0     H50320  11.766   0.775   6.009  2.6430 -1.1557 -1.7252
  373MOL0     H50321  11.827   0.484   5.708  1.3558 -1.6993 -0.7573
  373MOL0     H50322  11.932   0.603   5.619  1.5069 -3.6320 -1.3434
  373MOL0     H50323  12.016   0.452   5.848 -1.9624  1.4165 -1.0480
  373MOL0     H50324  12.052   0.409   5.675  0.5186  0.9638 -1.2583
  373MOL0     H50325  12.136   0.654   5.836 -3.0831 -0.9284  0.8402
  373MOL0     H50326  12.153   0.656   5.670  1.3265  0.4412  0.9427
  373MOL0     H50327  12.343   0.580   5.844  0.3912  1.8971 -0.8990
  373MOL0     H50328  12.258   0.419   5.819  1.7502 -1.7913 -2.5208
  373MOL0     H50329  12.354   0.580   5.580 -2.0443  1.3097  1.8353
  373MOL0     H50330  12.287   0.419   5.592  0.8667 -2.7578  3.7157
  373MOL0     H50331  12.561   0.485   5.720  0.5340  1.2457 -2.3416
  373MOL0     H50332  12.496   0.327   5.668 -1.8779  0.2161 -0.0379
  373MOL0     H50333  12.540   0.540   5.468 -0.9159  0.1738  1.0465
  373MOL0     H50334  12.507   0.370   5.439  1.2308 -1.3229  1.5448
  373MOL0     H50335  12.724   0.402   5.384  1.2183 -2.2619 -0.7083
  373MOL0     H50336  12.717   0.291   5.521 -0.1134 -1.5155 -3.8457
  373MOL0     H50337  11.738   0.732   5.591 -0.7397 -1.4625  0.0790
  373MOL0     H50338  11.587   0.888   5.569  0.9790  0.8924 -0.1216
  373MOL0     H50339  11.236   1.184   5.529  0.4402 -0.5192  0.7118
  373MOL0     H50340  11.072   1.364   5.587 -0.6232 -4.8491  1.4407
  373MOL0     H50341  10.219   1.352   4.050 -0.9784  0.3496 -0.1901
  373MOL0     H50342  10.074   1.211   3.914 -1.1405  2.4547 -1.7993
  373MOL0     H50343   9.432   1.207   3.846 -4.1689 -2.4702 -0.3592
  373MOL0     H50344   9.306   1.060   3.728 -0.6655 -1.9491 -0.7933
  373MOL0     H50345   9.274   0.781   3.472 -0.7051  0.0561  2.0758
  373MOL0     H50346   9.248   0.939   3.532  0.2778 -0.3503  3.0346
  373MOL0     H50347   9.517   0.883   3.395  1.4417  1.4753 -0.4431
  373MOL0     H50348   9.458   1.041   3.469 -0.3449  0.1048 -0.7507
  373MOL0     H50349   9.287   0.903   3.258 -0.1765  0.3671 -3.8332
  373MOL0     H50350   9.427   0.960   3.199  2.0333  0.3849  0.5118
  373MOL0     H50351   9.240   1.126   3.190 -1.7827  0.8643  1.9922
  373MOL0     H50352   9.410   1.174   3.215 -0.3103 -1.3483 -0.7565
  373MOL0     H50353   9.167   1.287   3.570  0.9404  3.9111 -1.1398
  373MOL0     H50354   9.648   0.782   3.704  3.3727  1.3096  0.4893
  373MOL0     H50355   9.784   0.932   3.825  1.0439  2.1464 -0.9070
  374MOL0     O50356   3.177   3.471   6.781 -0.8773 -0.3425 -0.3977
  374MOL0     C50357   3.230   3.444   6.884  0.5364  0.1051  1.2137
  374MOL0     O50358   3.251   3.525   6.985  0.5645 -0.7079 -1.4563
  374MOL0     C50359   3.219   3.654   6.994  0.4523 -0.0401 -0.0759
  374MOL0     C50360   3.084   3.691   7.003  0.2292 -0.3780  0.1216
  374MOL0     C50361   3.054   3.824   7.040  0.0583 -0.3282 -0.2074
  374MOL0     C50362   3.152   3.920   7.060 -0.3768 -0.5354 -0.9709
  374MOL0     O50363   3.123   4.045   7.114  0.3506 -0.7167  0.4059
  374MOL0     C50364   2.991   4.100   7.100  1.3925  0.1210 -0.4528
  374MOL0     C50365   3.000   4.253   7.117  0.5612  0.0363 -0.5250
  374MOL0     C50366   2.897   4.330   7.037  0.7240 -0.4151  0.0148
  374MOL0     C50367   2.934   4.476   7.016 -1.9773 -0.6406  1.0810
  374MOL0     C50368   2.820   4.573   7.039 -0.4562  0.2269 -0.7839
  374MOL0     C50369   2.817   4.621   7.188  0.2471  0.0617 -0.2850
  374MOL0     C50370   2.687   4.697   7.225  0.1230 -0.3165 -0.7200
  374MOL0     C50371   2.714   4.850   7.256 -0.8666 -0.2692  0.1354
  374MOL0     N50372   2.603   4.939   7.258 -0.1905  0.3170 -0.0551
  374MOL0     C50373   2.484   4.899   7.311  0.1952  0.0633  1.0129
  374MOL0     C50374   2.416   5.009   7.320  0.0916 -0.1563 -0.3969
  374MOL0     C50375   2.281   5.007   7.382  0.2736  0.5560 -0.7262
  374MOL0     C50376   2.168   4.961   7.286 -0.4590 -0.5578  0.1060
  374MOL0     C50377   2.207   4.883   7.159  0.1212  0.5617  0.0173
  374MOL0     C50378   2.230   4.735   7.184 -0.2655  0.8257 -0.0153
  374MOL0     O50379   2.309   4.681   7.071  0.5312 -0.4892 -0.1514
  374MOL0     C50380   2.363   4.556   7.084 -0.8536  0.1953  0.8922
  374MOL0     C50381   2.368   4.471   7.193 -0.3266 -0.7143 -0.2937
  374MOL0     C50382   2.426   4.342   7.187 -0.2762  0.3404  0.2733
  374MOL0     C50383   2.412   4.241   7.301 -0.1092 -0.1203  0.9963
  374MOL0     C50384   2.488   4.308   7.058 -0.5463 -0.3919 -0.9359
  374MOL0     C50385   2.570   4.183   7.037 -0.5448 -0.6203  1.2156
  374MOL0     O50386   2.579   4.142   6.900  0.0135 -0.1368  0.6735
  374MOL0     C50387   2.608   4.010   6.885 -0.3499  0.1502 -0.7662
  374MOL0     C50388   2.727   3.985   6.815  0.6538 -0.7967  0.6845
  374MOL0     C50389   2.758   3.860   6.786  0.0496  0.0147 -0.3208
  374MOL0     C50390   2.689   3.747   6.842 -0.3587  0.6296  0.5002
  374MOL0     O50391   2.713   3.614   6.829 -0.4125 -0.3421 -0.5582
  374MOL0     C50392   2.803   3.561   6.720 -0.1758 -0.0783 -0.2391
  374MOL0     C50393   2.825   3.415   6.755 -0.4874 -0.6978 -0.6082
  374MOL0     C50394   2.828   3.314   6.643  0.2293  0.3080  0.3227
  374MOL0     C50395   2.869   3.181   6.696  0.0317  0.2237  0.3834
  374MOL0     C50396   2.884   3.081   6.582 -0.8276  1.0688  0.6455
  374MOL0     C50397   2.928   2.935   6.633 -0.4106  0.3999 -0.7939
  374MOL0     C50398   2.907   2.905   6.782 -0.1872 -0.1135 -0.6093
  374MOL0     C50399   3.014   2.799   6.822 -0.3251 -0.5521  0.2167
  374MOL0    Cl50400   3.004   2.622   6.761  0.6137 -0.2898 -0.2769
  374MOL0     C50401   2.578   3.771   6.920 -0.2863 -0.2472 -0.2802
  374MOL0     C50402   2.538   3.901   6.943  0.0938 -0.2606 -0.9659
  374MOL0     O50403   2.625   4.123   7.134 -0.6524 -0.2610 -0.3792
  374MOL0     C50404   2.487   4.399   6.958 -0.1935  0.4159  0.8447
  374MOL0     C50405   2.422   4.521   6.965  0.4621  0.9769  0.1709
  374MOL0     N50406   2.480   5.115   7.261 -0.5579 -0.2332  0.2808
  374MOL0     N50407   2.593   5.072   7.205 -0.3000 -0.4995  0.5000
  374MOL0     C50408   3.285   3.884   7.050 -0.0269  0.6501  1.0321
  374MOL0     C50409   3.318   3.747   7.015  0.9995 -0.4906 -0.9900
  374MOL0     C50410   3.254   3.300   6.892 -0.9097 -0.6139  0.0558
  374MOL0     C50411   3.269   3.245   7.020  0.6779 -0.3202 -0.6088
  374MOL0     C50412   3.301   3.108   7.032 -0.2008 -0.1061  0.0215
  374MOL0     C50413   3.315   3.031   6.916  0.5614 -0.1115  0.0334
  374MOL0     O50414   3.345   2.901   6.909 -0.3686  0.6187  1.6001
  374MOL0     C50415   3.391   2.830   7.029  0.8389 -0.4425  0.8280
  374MOL0     C50416   3.432   2.691   6.985 -0.3582 -0.0075  0.2756
  374MOL0     C50417   3.329   2.585   6.927 -0.6277  0.0643 -0.4873
  374MOL0     C50418   3.392   2.461   6.868  0.4521  0.4238 -0.1156
  374MOL0     C50419   3.473   2.495   6.739  0.2932 -0.3223 -0.4341
  374MOL0     C50420   3.548   2.537   6.653 -0.1148  0.7753 -0.1588
  374MOL0     C50421   3.294   3.082   6.789  0.0709  0.3394 -0.4237
  374MOL0     C50422   3.266   3.216   6.774  0.2055  0.4718  1.2300
  374MOL0     H50423   2.995   3.628   6.998 -0.4080  0.1404  2.8952
  374MOL0     H50424   2.964   3.842   7.099  1.9625 -3.2367  4.0632
  374MOL0     H50425   2.961   4.055   7.005 -0.5842 -4.3161  1.9887
  374MOL0     H50426   2.929   4.066   7.182  1.1138  0.4115 -0.5411
  374MOL0     H50427   2.992   4.272   7.224 -0.5170  1.0044 -0.7538
  374MOL0     H50428   3.093   4.278   7.066  0.7978 -1.5094 -0.8999
  374MOL0     H50429   2.873   4.281   6.942  0.8805 -0.0618 -0.2072
  374MOL0     H50430   2.810   4.324   7.103  0.3851 -1.9844 -0.5356
  374MOL0     H50431   3.025   4.498   7.073 -1.0289 -3.7877  0.9716
  374MOL0     H50432   2.960   4.485   6.910 -2.4701  0.2223  1.0238
  374MOL0     H50433   2.833   4.654   6.967 -1.2139  0.2575 -0.8942
  374MOL0     H50434   2.726   4.527   7.009 -2.0957  1.1274  2.4961
  374MOL0     H50435   2.823   4.540   7.260 -0.3805  0.1096 -0.1693
  374MOL0     H50436   2.908   4.681   7.204  2.4218 -2.5817 -1.8810
  374MOL0     H50437   2.609   4.690   7.149  0.1267  2.1487 -1.0336
  374MOL0     H50438   2.629   4.641   7.298  0.8326 -3.0330 -2.1352
  374MOL0     H50439   2.789   4.884   7.183 -2.8318  0.1760 -1.7893
  374MOL0     H50440   2.757   4.859   7.357 -2.5881 -2.3182  1.1115
  374MOL0     H50441   2.455   4.803   7.353 -2.9218  0.1534 -0.6777
  374MOL0     H50442   2.288   4.936   7.464 -0.5281  1.9689  0.6229
  374MOL0     H50443   2.257   5.106   7.424  2.7185  1.2101 -0.7061
  374MOL0     H50444   2.127   5.053   7.244 -0.1971 -0.1758  0.6740
  374MOL0     H50445   2.083   4.908   7.331 -0.9959 -0.7092 -1.0395
  374MOL0     H50446   2.298   4.923   7.114  0.6983 -0.1712  0.5161
  374MOL0     H50447   2.127   4.905   7.087  0.9244  2.8534 -0.2668
  374MOL0     H50448   2.133   4.684   7.180  0.6800 -1.0380 -2.3727
  374MOL0     H50449   2.281   4.718   7.279  3.0759  3.8279 -1.0361
  374MOL0     H50450   2.317   4.501   7.285 -0.2017 -2.4812  0.3999
  374MOL0     H50451   2.379   4.145   7.260 -3.0428 -0.1393  3.1029
  374MOL0     H50452   2.508   4.236   7.353  1.6807  2.8294 -1.6679
  374MOL0     H50453   2.334   4.273   7.370 -0.2467  0.2003  0.6937
  374MOL0     H50454   2.782   4.068   6.774  0.3990  0.0867  2.0667
  374MOL0     H50455   2.843   3.844   6.720  0.6371 -1.0293  0.6657
  374MOL0     H50456   2.762   3.578   6.620  1.6363  1.3985 -0.7762
  374MOL0     H50457   2.902   3.605   6.732  0.2290 -1.3154  1.4153
  374MOL0     H50458   2.919   3.418   6.810 -0.2981 -0.1587 -0.9532
  374MOL0     H50459   2.741   3.397   6.824 -0.8489  4.2745  0.6075
  374MOL0     H50460   2.898   3.339   6.563  0.3526 -0.2305  0.2567
  374MOL0     H50461   2.728   3.307   6.599  0.6471 -2.7239 -0.3520
  374MOL0     H50462   2.967   3.195   6.744 -0.0794 -0.8195  0.9361
  374MOL0     H50463   2.793   3.142   6.765 -2.6272  0.5440 -2.1808
  374MOL0     H50464   2.946   3.120   6.501 -0.5840 -1.6430 -0.5639
  374MOL0     H50465   2.790   3.060   6.529  0.4460 -1.7132 -0.7297
  374MOL0     H50466   2.873   2.859   6.575  1.7586 -0.6109 -1.6563
  374MOL0     H50467   3.037   2.936   6.620 -0.1054  3.7783  0.9758
  374MOL0     H50468   2.802   2.875   6.794  0.5425 -1.9466  2.1751
  374MOL0     H50469   2.916   2.984   6.856 -2.1321 -0.6902  0.3059
  374MOL0     H50470   3.027   2.787   6.930 -1.2330  3.5808  0.9490
  374MOL0     H50471   3.112   2.841   6.795  0.7305 -1.7671  1.9627
  374MOL0     H50472   2.520   3.691   6.964 -0.1591  0.8406  2.0127
  374MOL0     H50473   2.449   3.921   7.002 -0.4873 -4.2957 -0.1458
  374MOL0     H50474   2.555   4.397   6.874  0.4932 -1.4539  1.4013
  374MOL0     H50475   2.429   4.585   6.877  1.4237 -1.7011 -1.8233
  374MOL0     H50476   3.370   3.951   7.053  0.5773  0.0142 -0.9329
  374MOL0     H50477   3.425   3.730   7.006  0.9662  0.1449 -2.9323
  374MOL0     H50478   3.268   3.308   7.109 -2.3274 -0.7403 -0.2584
  374MOL0     H50479   3.312   3.056   7.127 -0.4983 -1.5854 -0.7291
  374MOL0     H50480   3.469   2.895   7.069  0.7822  0.1541 -0.0238
  374MOL0     H50481   3.303   2.815   7.092 -0.6167  2.2883 -0.4107
  374MOL0     H50482   3.491   2.664   7.074  2.0653  1.2440 -0.8416
  374MOL0     H50483   3.508   2.699   6.907 -0.2575 -1.1262  0.2317
  374MOL0     H50484   3.267   2.626   6.847 -0.1469  1.8101 -0.0020
  374MOL0     H50485   3.269   2.549   7.012  0.7976  0.5254  0.7622
  374MOL0     H50486   3.320   2.382   6.847  0.7169  0.2899 -0.5353
  374MOL0     H50487   3.445   2.424   6.956 -2.9508 -2.2245  1.0465
  374MOL0     H50488   3.619   2.580   6.585  2.3564 -1.1375  1.0371
  374MOL0     H50489   3.303   3.016   6.703 -2.8916  0.1997 -0.7262
  374MOL0     H50490   3.242   3.264   6.680 -0.1592  1.4676  1.8191
  375MOL0     O50491   1.916   2.868   6.182 -0.5335  0.1308  0.1299
  375MOL0     C50492   2.013   2.791   6.195  0.1128  0.6663  0.6746
  375MOL0     O50493   2.121   2.818   6.285 -0.3374  0.7205  0.3372
  375MOL0     C50494   2.091   2.927   6.364 -0.0064  0.8014 -0.5705
  375MOL0     C50495   2.165   3.042   6.357 -0.6618 -0.2906  0.9260
  375MOL0     C50496   2.161   3.155   6.445  0.0713  0.1224  0.4836
  375MOL0     C50497   2.059   3.156   6.540  0.0205  0.2054 -0.3182
  375MOL0     O50498   2.041   3.273   6.599  0.4796 -0.4398  0.1366
  375MOL0     C50499   2.036   3.267   6.750  1.2059 -0.1991 -0.1773
  375MOL0     C50500   2.043   3.400   6.833  0.8515 -0.3056 -0.0829
  375MOL0     C50501   2.192   3.443   6.840  0.3773 -0.1282  0.5794
  375MOL0     C50502   2.241   3.493   6.712  0.8503  0.5398  0.3693
  375MOL0     C50503   2.373   3.560   6.725 -0.2960 -0.3112 -0.3661
  375MOL0     C50504   2.419   3.618   6.596  0.1609 -0.2826  0.9480
  375MOL0     C50505   2.482   3.512   6.512 -0.4747  0.0392 -0.2451
  375MOL0     C50506   2.476   3.556   6.370  1.0417 -0.1744 -0.0731
  375MOL0     N50507   2.502   3.438   6.287 -1.1609 -0.5200  0.1530
  375MOL0     C50508   2.623   3.374   6.302 -0.9967  0.3977 -0.3064
  375MOL0     C50509   2.614   3.275   6.212 -0.6853 -0.2206  0.2843
  375MOL0     C50510   2.709   3.168   6.189  0.0030 -0.3657  0.2210
  375MOL0     C50511   2.815   3.189   6.079  0.4613 -0.0911 -0.6862
  375MOL0     C50512   2.952   3.132   6.105  0.8181 -0.4134  0.9621
  375MOL0     C50513   2.972   3.013   6.186  0.0730 -0.2930 -0.3281
  375MOL0     O50514   2.878   2.922   6.131  0.9004  0.3144 -0.1130
  375MOL0     C50515   2.846   2.804   6.199 -0.0289 -0.8352  0.4939
  375MOL0     C50516   2.723   2.741   6.163 -0.6505 -0.3521  0.0624
  375MOL0     C50517   2.681   2.629   6.241 -0.1483  0.4416  0.6925
  375MOL0     C50518   2.543   2.576   6.202 -0.1995 -1.2446 -0.1433
  375MOL0     C50519   2.757   2.576   6.355  0.4880  0.6454  0.3787
  375MOL0     C50520   2.724   2.449   6.430  0.3362  0.0668 -0.2227
  375MOL0     O50521   2.785   2.429   6.551  0.0934 -0.6054 -0.1689
  375MOL0     C50522   2.732   2.337   6.635  0.0111  0.0288  0.4278
  375MOL0     C50523   2.599   2.300   6.635 -0.4790  0.0886  0.2222
  375MOL0     C50524   2.568   2.191   6.719 -0.3033 -0.8234 -0.0002
  375MOL0     C50525   2.668   2.126   6.801 -0.1479 -0.6835 -0.3256
  375MOL0     O50526   2.642   2.006   6.857  0.6849  0.3421 -0.1243
  375MOL0     C50527   2.533   1.921   6.810 -0.1185 -1.3684 -0.2580
  375MOL0     C50528   2.534   1.782   6.871  0.3583  0.5955 -0.0771
  375MOL0     C50529   2.469   1.778   7.016  0.8130  0.8784  0.2847
  375MOL0     C50530   2.569   1.826   7.131  0.4117  0.2727  0.4755
  375MOL0     C50531   2.492   1.799   7.259 -0.7732 -0.1999 -0.0976
  375MOL0     C50532   2.554   1.831   7.395  0.2592 -0.8755  0.4561
  375MOL0     C50533   2.670   1.728   7.434  0.2650  0.0699  0.0905
  375MOL0     C50534   2.751   1.782   7.545  0.0101 -0.2199  0.1485
  375MOL0    Cl50535   2.879   1.665   7.593 -0.2244 -0.2264 -0.0924
  375MOL0     C50536   2.796   2.173   6.809  0.3959 -0.2900  0.5234
  375MOL0     C50537   2.826   2.276   6.721 -0.1842 -0.4727 -0.0291
  375MOL0     O50538   2.661   2.363   6.367 -0.3295 -0.4805  0.0153
  375MOL0     C50539   2.881   2.635   6.370  0.1000 -0.4847 -0.1367
  375MOL0     C50540   2.923   2.750   6.304 -0.0063 -1.2498  0.1231
  375MOL0     N50541   2.495   3.286   6.148  0.8424  0.1211  1.1702
  375MOL0     N50542   2.422   3.387   6.190 -0.7232 -0.3437 -0.7278
  375MOL0     C50543   1.975   3.046   6.550 -1.0108 -0.0596 -0.6846
  375MOL0     C50544   1.991   2.935   6.460 -0.6940 -0.3679  0.0418
  375MOL0     C50545   2.004   2.664   6.112  0.2437 -0.1349  0.6413
  375MOL0     C50546   1.888   2.589   6.093 -1.2101 -0.6199 -0.3151
  375MOL0     C50547   1.887   2.456   6.034  0.2490  0.2373 -0.2786
  375MOL0     C50548   2.010   2.415   5.971 -0.2403 -0.2030 -1.0087
  375MOL0     O50549   2.037   2.296   5.902  0.1602 -0.6840 -0.6184
  375MOL0     C50550   1.934   2.200   5.888 -0.9655 -0.6605  1.0725
  375MOL0     C50551   1.989   2.102   5.784 -0.8845  0.2718  0.2884
  375MOL0     C50552   1.895   1.983   5.786  0.7351 -1.0370  1.1138
  375MOL0     C50553   1.918   1.884   5.667 -0.4705  0.5983  0.0232
  375MOL0     C50554   1.844   1.924   5.554 -0.6237 -0.0732  0.6634
  375MOL0     C50555   1.753   1.950   5.469 -1.1090  0.5162 -0.2114
  375MOL0     C50556   2.129   2.501   5.995 -0.7741 -0.1812 -0.2108
  375MOL0     C50557   2.121   2.626   6.057 -0.0457  0.4406 -0.0105
  375MOL0     H50558   2.250   3.038   6.290 -1.6313 -0.1513 -0.3376
  375MOL0     H50559   2.230   3.238   6.435 -0.7924  1.0301  1.7007
  375MOL0     H50560   1.939   3.223   6.775 -1.0221  4.3454  0.3470
  375MOL0     H50561   2.117   3.199   6.778 -0.8641 -2.3129  1.0057
  375MOL0     H50562   1.982   3.477   6.785 -0.4553  0.2811  2.3290
  375MOL0     H50563   2.000   3.381   6.932  1.1197  0.3935  0.1748
  375MOL0     H50564   2.201   3.523   6.915  2.4654 -0.4237  0.7115
  375MOL0     H50565   2.252   3.361   6.882 -3.9014 -2.3399  3.0989
  375MOL0     H50566   2.253   3.407   6.646  1.0319 -0.0394  1.1455
  375MOL0     H50567   2.168   3.554   6.658 -0.4507 -2.4564 -1.5408
  375MOL0     H50568   2.356   3.636   6.802 -2.3942 -0.2086 -0.8911
  375MOL0     H50569   2.433   3.483   6.776  0.7527  2.2054  2.4917
  375MOL0     H50570   2.331   3.667   6.554 -0.1808  0.2985  2.2748
  375MOL0     H50571   2.494   3.694   6.622 -1.0747  1.1040  0.6057
  375MOL0     H50572   2.588   3.497   6.531 -0.0369  1.2925 -1.5756
  375MOL0     H50573   2.426   3.418   6.517 -2.5828  1.1503 -1.5492
  375MOL0     H50574   2.541   3.640   6.345  1.1087 -0.0354  0.5362
  375MOL0     H50575   2.374   3.594   6.356  0.3506 -0.9076  2.3899
  375MOL0     H50576   2.711   3.407   6.357 -1.3855  0.0944  0.5199
  375MOL0     H50577   2.761   3.170   6.285  0.6241 -0.9259 -0.0970
  375MOL0     H50578   2.652   3.076   6.175 -1.8135  0.6380  0.6641
  375MOL0     H50579   2.828   3.294   6.051  0.1700  0.3568  0.7758
  375MOL0     H50580   2.766   3.136   5.997 -1.7694  0.6346  0.0978
  375MOL0     H50581   3.010   3.215   6.147  2.1840 -0.7759 -0.1222
  375MOL0     H50582   2.989   3.117   6.004 -1.0523  4.9514 -0.9147
  375MOL0     H50583   2.953   3.030   6.292  1.8112 -3.7804  0.6982
  375MOL0     H50584   3.077   2.982   6.192  0.0823  0.0566  3.6383
  375MOL0     H50585   2.674   2.792   6.080 -0.5941 -0.8628 -0.2928
  375MOL0     H50586   2.522   2.475   6.239  1.8157 -1.6473  0.0444
  375MOL0     H50587   2.463   2.643   6.236  0.7523 -0.9795  1.7114
  375MOL0     H50588   2.531   2.580   6.094  0.2816  1.7718 -0.1826
  375MOL0     H50589   2.526   2.342   6.566  1.3645 -0.6524 -2.3211
  375MOL0     H50590   2.463   2.164   6.725 -0.5701 -0.1518 -1.3173
  375MOL0     H50591   2.441   1.970   6.842 -0.0475 -0.3371 -1.5292
  375MOL0     H50592   2.532   1.913   6.701  0.9119  1.8664 -0.5927
  375MOL0     H50593   2.474   1.721   6.803  0.4903  3.2674 -2.7733
  375MOL0     H50594   2.634   1.737   6.882 -0.8666 -2.0582  1.0093
  375MOL0     H50595   2.453   1.677   7.053  1.8703  0.4332 -0.4124
  375MOL0     H50596   2.373   1.829   7.024 -1.4307 -2.9791  0.3560
  375MOL0     H50597   2.672   1.789   7.137 -0.3500 -1.8244  1.6699
  375MOL0     H50598   2.587   1.933   7.125 -2.7932  0.8127 -2.3802
  375MOL0     H50599   2.473   1.692   7.276  0.2046 -0.6580 -1.7178
  375MOL0     H50600   2.394   1.848   7.255 -2.5985 -3.5358 -0.8265
  375MOL0     H50601   2.592   1.933   7.402  0.8288 -0.8494 -1.9339
  375MOL0     H50602   2.482   1.828   7.477  0.1811  1.8505  0.5532
  375MOL0     H50603   2.735   1.705   7.349  0.0432 -2.0187  0.4198
  375MOL0     H50604   2.624   1.632   7.460 -1.2280 -0.6144 -4.1732
  375MOL0     H50605   2.690   1.815   7.629 -2.3112  2.6751 -2.4199
  375MOL0     H50606   2.805   1.872   7.514 -1.2257 -0.0348 -1.6075
  375MOL0     H50607   2.879   2.128   6.863 -1.3862 -0.0369  3.6839
  375MOL0     H50608   2.929   2.311   6.719 -0.3331 -0.0334 -0.0986
  375MOL0     H50609   2.946   2.617   6.455 -0.0174 -0.6876 -0.0914
  375MOL0     H50610   3.018   2.795   6.335 -0.2542  1.0018 -2.1047
  375MOL0     H50611   1.880   3.032   6.600  1.1471 -2.6682  3.2320
  375MOL0     H50612   1.926   2.849   6.472  0.0516 -1.6956 -3.9773
  375MOL0     H50613   1.805   2.645   6.133 -0.3929 -1.4231  2.7162
  375MOL0     H50614   1.813   2.377   6.023  1.0273 -1.6838  5.0559
  375MOL0     H50615   1.898   2.161   5.984 -2.2716  0.9825  1.3029
  375MOL0     H50616   1.851   2.254   5.842  0.9641  0.7594 -0.9536
  375MOL0     H50617   2.092   2.077   5.814 -0.1592 -1.4428 -3.1345
  375MOL0     H50618   1.983   2.167   5.696 -0.8244 -0.1761 -0.0491
  375MOL0     H50619   1.791   2.018   5.786  0.5874 -1.1632 -2.1673
  375MOL0     H50620   1.901   1.939   5.886 -1.2892 -0.5493  1.4985
  375MOL0     H50621   1.885   1.782   5.690 -0.2715 -0.1254 -2.5692
  375MOL0     H50622   2.025   1.881   5.644 -0.4489  1.4897 -0.0252
  375MOL0     H50623   1.669   1.943   5.403  0.1750  0.2332 -1.9012
  375MOL0     H50624   2.229   2.475   5.961  0.8267  0.8859  3.2375
  375MOL0     H50625   2.210   2.688   6.060  2.0258 -1.9405 -3.9254
  376MOL0     O50626  10.744   6.108   6.282 -0.2895  0.3527  0.5541
  376MOL0     C50627  10.840   6.151   6.214  0.4350 -0.8915  0.1333
  376MOL0     O50628  10.836   6.221   6.094  0.8832  0.1831  0.1542
  376MOL0     C50629  10.712   6.252   6.048  0.0551  0.2648  0.6236
  376MOL0     C50630  10.625   6.347   6.106  0.3037 -0.4525 -0.3552
  376MOL0     C50631  10.518   6.394   6.036  1.0973 -0.5325  0.3691
  376MOL0     C50632  10.497   6.362   5.906  0.0547 -0.6720  0.4021
  376MOL0     O50633  10.383   6.382   5.836 -0.3221 -0.7950  0.2506
  376MOL0     C50634  10.260   6.328   5.897  0.1543 -0.5149 -1.0587
  376MOL0     C50635  10.164   6.434   5.960 -0.4661 -0.3191 -0.4042
  376MOL0     C50636  10.031   6.363   5.995  0.9887 -0.7103  1.2444
  376MOL0     C50637   9.927   6.439   6.058 -0.0258  0.6022 -0.0979
  376MOL0     C50638   9.812   6.356   6.111  1.3632  0.3436 -0.1757
  376MOL0     C50639   9.689   6.446   6.157 -0.6343  0.0536 -0.0334
  376MOL0     C50640   9.576   6.354   6.199 -0.5939  0.7255  0.2285
  376MOL0     C50641   9.439   6.417   6.220  0.2671 -0.1856 -0.4790
  376MOL0     N50642   9.390   6.503   6.113  0.2558  0.6876  0.2727
  376MOL0     C50643   9.350   6.446   5.996  0.0138 -0.0623  0.9818
  376MOL0     C50644   9.361   6.556   5.905 -0.4744 -0.5976  0.6387
  376MOL0     C50645   9.314   6.547   5.762 -0.0008  0.3797 -0.4021
  376MOL0     C50646   9.422   6.521   5.655 -0.5933  0.2944 -0.1053
  376MOL0     C50647   9.369   6.558   5.512 -0.2385  0.0833  0.5051
  376MOL0     C50648   9.489   6.591   5.426  0.5025 -0.0236 -0.1536
  376MOL0     O50649   9.450   6.653   5.304 -0.9628 -0.7715 -0.1108
  376MOL0     C50650   9.446   6.582   5.197 -0.4368 -0.3002  1.0577
  376MOL0     C50651   9.494   6.640   5.073 -0.1503  0.3280 -0.0547
  376MOL0     C50652   9.459   6.578   4.950 -0.5132 -0.2309 -0.0865
  376MOL0     C50653   9.497   6.654   4.834 -0.0456 -0.8366  0.5217
  376MOL0     C50654   9.397   6.449   4.950 -1.0554 -0.1756 -0.4859
  376MOL0     C50655   9.349   6.382   4.831 -0.9063 -0.1993  0.2070
  376MOL0     O50656   9.221   6.404   4.786  0.4530  0.3530 -0.0439
  376MOL0     C50657   9.168   6.350   4.666  0.9656 -0.6947  0.2300
  376MOL0     C50658   9.243   6.351   4.546  0.0775 -0.8512  0.0486
  376MOL0     C50659   9.193   6.300   4.425 -0.1419 -0.3830 -0.4488
  376MOL0     C50660   9.061   6.245   4.425  0.1353 -0.5723  0.2708
  376MOL0     O50661   9.024   6.181   4.314  0.3629 -0.0926 -0.0834
  376MOL0     C50662   8.904   6.239   4.262  0.4820  0.2197 -0.5013
  376MOL0     C50663   8.920   6.300   4.120  1.0041  0.9345 -0.3569
  376MOL0     C50664   8.834   6.227   4.010 -0.7887 -0.5804  0.2768
  376MOL0     C50665   8.890   6.277   3.878  0.0372  0.5042 -0.4644
  376MOL0     C50666   8.785   6.250   3.769 -0.4552  0.4550  0.1776
  376MOL0     C50667   8.821   6.317   3.640 -0.6346  0.4231  0.4401
  376MOL0     C50668   8.804   6.219   3.523  0.5624 -0.1519 -0.5203
  376MOL0     C50669   8.883   6.260   3.403  0.3175 -0.1952 -0.4265
  376MOL0    Cl50670   8.809   6.426   3.336 -0.3275 -0.4023  0.2432
  376MOL0     C50671   8.984   6.240   4.545  0.4845 -0.5616 -1.5938
  376MOL0     C50672   9.039   6.297   4.664  0.1261 -0.3117  0.4983
  376MOL0     O50673   9.431   6.321   4.765 -0.7661 -0.2610  0.7943
  376MOL0     C50674   9.363   6.395   5.068 -0.5549 -0.0176 -0.6692
  376MOL0     C50675   9.380   6.461   5.188 -0.1271 -0.0539 -0.8007
  376MOL0     N50676   9.408   6.664   5.969  1.4137 -0.1549  0.7827
  376MOL0     N50677   9.414   6.634   6.096 -0.3601  0.3843  0.0297
  376MOL0     C50678  10.587   6.280   5.837  0.3992  0.1047  0.3162
  376MOL0     C50679  10.695   6.225   5.907 -0.6837  0.1893 -0.3051
  376MOL0     C50680  10.975   6.138   6.278  0.0292 -0.3481  1.0388
  376MOL0     C50681  11.006   6.018   6.337 -0.4758  0.5484  0.7065
  376MOL0     C50682  11.136   5.989   6.372 -0.4454 -0.1012 -1.0400
  376MOL0     C50683  11.229   6.096   6.366  0.6371  0.8236  0.1800
  376MOL0     O50684  11.366   6.090   6.393  0.3713 -0.2086 -0.0142
  376MOL0     C50685  11.431   5.963   6.413  0.2715 -0.3318  0.1049
  376MOL0     C50686  11.580   5.993   6.419  0.1286 -0.1039  0.0634
  376MOL0     C50687  11.638   6.076   6.301  0.3806  0.4683  0.1219
  376MOL0     C50688  11.761   6.149   6.338 -0.5534 -0.4923  0.2457
  376MOL0     C50689  11.734   6.278   6.404  0.4758 -0.6516 -0.5600
  376MOL0     C50690  11.702   6.387   6.464  0.4500  0.1823 -0.6273
  376MOL0     C50691  11.192   6.215   6.305 -0.1270  0.5531 -0.0448
  376MOL0     C50692  11.069   6.236   6.256 -0.6024  0.3405 -0.5157
  376MOL0     H50693  10.640   6.372   6.211  2.2644 -2.1927 -0.1443
  376MOL0     H50694  10.456   6.454   6.101  5.1511  1.4541  2.8128
  376MOL0     H50695  10.200   6.271   5.825 -2.9215  2.5515 -1.2317
  376MOL0     H50696  10.286   6.260   5.978  0.3689  0.7045 -0.0796
  376MOL0     H50697  10.217   6.481   6.044  0.2396  1.0680 -1.5818
  376MOL0     H50698  10.158   6.524   5.898  0.3092 -0.0134 -0.0532
  376MOL0     H50699   9.991   6.322   5.902  1.7582 -0.4343  0.7865
  376MOL0     H50700  10.050   6.271   6.049 -1.3567  0.0705  3.6397
  376MOL0     H50701   9.961   6.505   6.139 -3.0778  1.8533  0.3046
  376MOL0     H50702   9.885   6.502   5.980 -1.5278 -0.7583 -0.4462
  376MOL0     H50703   9.775   6.299   6.024  0.3321 -1.9478  1.6468
  376MOL0     H50704   9.846   6.296   6.196 -0.3108 -1.3698 -0.6393
  376MOL0     H50705   9.712   6.520   6.234 -2.1854 -0.6406  1.1507
  376MOL0     H50706   9.657   6.504   6.070 -0.7904  1.2875  0.8234
  376MOL0     H50707   9.564   6.289   6.112 -4.9455  0.7521  0.5841
  376MOL0     H50708   9.605   6.299   6.290 -1.3827  2.2375  1.4471
  376MOL0     H50709   9.447   6.469   6.316  0.2153 -1.1559  0.0634
  376MOL0     H50710   9.362   6.339   6.231  0.4019 -0.0108  2.5020
  376MOL0     H50711   9.329   6.342   5.974  1.2319  0.0150 -0.7645
  376MOL0     H50712   9.239   6.468   5.749 -1.8713  1.6346  2.0222
  376MOL0     H50713   9.260   6.641   5.748 -1.0865  0.0481  1.3950
  376MOL0     H50714   9.432   6.412   5.653  0.2175  0.3728 -0.5405
  376MOL0     H50715   9.518   6.567   5.676  0.1127 -0.6467 -1.1583
  376MOL0     H50716   9.312   6.651   5.523  3.0061  2.1595  1.3253
  376MOL0     H50717   9.310   6.471   5.483  1.2182 -0.1488 -2.0673
  376MOL0     H50718   9.554   6.507   5.402  0.6394 -0.0696  0.3615
  376MOL0     H50719   9.546   6.664   5.485  0.3666 -0.6067  0.7145
  376MOL0     H50720   9.560   6.726   5.063  3.4556 -2.1028  0.9219
  376MOL0     H50721   9.501   6.761   4.859 -1.9624 -1.1903  2.7494
  376MOL0     H50722   9.590   6.617   4.791  1.6848  1.5660  1.9036
  376MOL0     H50723   9.414   6.638   4.764 -0.3529 -1.5756  1.0447
  376MOL0     H50724   9.345   6.386   4.557  0.8403 -1.3810 -3.7827
  376MOL0     H50725   9.259   6.300   4.339 -0.3216 -1.6246 -0.6053
  376MOL0     H50726   8.823   6.165   4.259 -1.6307  2.1485  2.8506
  376MOL0     H50727   8.854   6.311   4.328  0.6194  1.6901 -1.9344
  376MOL0     H50728   8.895   6.407   4.123  3.7993  1.6674  0.1656
  376MOL0     H50729   9.025   6.289   4.089  0.6626 -0.4603 -1.0870
  376MOL0     H50730   8.730   6.260   4.014  0.0385  3.3215 -3.1434
  376MOL0     H50731   8.846   6.119   4.001  2.4581 -0.1705 -2.0872
  376MOL0     H50732   8.886   6.386   3.870 -3.5412  0.4129 -2.5511
  376MOL0     H50733   8.992   6.242   3.863 -0.3766 -2.4647  2.5050
  376MOL0     H50734   8.685   6.279   3.800 -0.7666  1.9158 -1.9765
  376MOL0     H50735   8.779   6.141   3.757  2.9538  0.3243 -1.7539
  376MOL0     H50736   8.769   6.412   3.631 -2.0613 -0.2383  1.3522
  376MOL0     H50737   8.928   6.338   3.654 -0.5331 -0.4736  1.2019
  376MOL0     H50738   8.698   6.222   3.498 -0.6276  2.4406  3.7926
  376MOL0     H50739   8.839   6.117   3.538  1.1951 -0.1604 -1.9201
  376MOL0     H50740   8.888   6.184   3.324  3.1060 -0.6194  0.0613
  376MOL0     H50741   8.984   6.275   3.442 -0.5818  1.6034  1.4015
  376MOL0     H50742   8.885   6.196   4.549  0.5947 -0.7100  0.5400
  376MOL0     H50743   8.975   6.273   4.748 -3.5002 -5.5553 -3.1239
  376MOL0     H50744   9.300   6.308   5.053 -1.5618  0.5210  0.2965
  376MOL0     H50745   9.352   6.412   5.281 -0.0806 -0.1121 -0.8175
  376MOL0     H50746  10.579   6.232   5.739 -2.1299 -0.7669  0.8829
  376MOL0     H50747  10.764   6.159   5.856  0.4855  0.2498  1.1249
  376MOL0     H50748  10.942   5.931   6.336  2.9159 -2.2267  3.4006
  376MOL0     H50749  11.163   5.889   6.405 -0.6022  1.0973  3.4584
  376MOL0     H50750  11.393   5.911   6.501 -0.1260  0.3223  0.3305
  376MOL0     H50751  11.418   5.887   6.336 -3.1050  0.1260  0.0327
  376MOL0     H50752  11.633   5.897   6.410 -0.6530 -0.4891 -0.4911
  376MOL0     H50753  11.595   6.039   6.517 -0.1646 -3.0330  1.6165
  376MOL0     H50754  11.561   6.144   6.262 -1.4519 -2.8260 -2.5893
  376MOL0     H50755  11.656   5.997   6.228 -0.4406  0.0590  0.3427
  376MOL0     H50756  11.827   6.166   6.253  0.4005  1.1238  1.2660
  376MOL0     H50757  11.820   6.086   6.406  0.7088  1.7173  1.3082
  376MOL0     H50758  11.673   6.481   6.506  0.8539  2.5485 -5.0223
  376MOL0     H50759  11.279   6.281   6.299  2.8229 -2.8663  1.3050
  376MOL0     H50760  11.051   6.320   6.189 -0.8138 -0.2268 -1.1862
  377MOL0     O50761   7.172  10.080   4.556  0.4734 -0.2501 -0.0322
  377MOL0     C50762   7.171   9.960   4.585 -0.6740  0.0839 -0.0250
  377MOL0     O50763   7.116   9.861   4.512  0.2274 -0.3314 -0.8563
  377MOL0     C50764   7.033   9.892   4.414 -0.2385  0.0794  0.6211
  377MOL0     C50765   7.033   9.798   4.304 -0.3893  0.1348  0.5507
  377MOL0     C50766   6.938   9.821   4.207 -0.2901  0.3533 -0.1561
  377MOL0     C50767   6.853   9.929   4.202 -0.4491 -0.7023  0.1156
  377MOL0     O50768   6.769   9.928   4.101  0.6785 -0.4624  0.5509
  377MOL0     C50769   6.666  10.023   4.094 -0.2553 -0.4106  0.0952
  377MOL0     C50770   6.578   9.975   3.983  0.4204  0.6466  0.2850
  377MOL0     C50771   6.443  10.053   4.001  1.2221 -1.0415 -0.2778
  377MOL0     C50772   6.444  10.205   3.975 -0.0766  0.1147  0.0279
  377MOL0     C50773   6.461  10.249   3.826 -0.3552 -0.1114 -1.0712
  377MOL0     C50774   6.500  10.404   3.832  0.1639 -0.9475  0.6263
  377MOL0     C50775   6.385  10.507   3.852 -0.4621  1.0999 -0.0571
  377MOL0     C50776   6.316  10.522   3.717 -0.3403 -0.1979  0.0716
  377MOL0     N50777   6.404  10.586   3.616  0.4101  0.1359  0.0456
  377MOL0     C50778   6.455  10.708   3.626  0.1521 -0.6065  0.9556
  377MOL0     C50779   6.536  10.719   3.511 -0.1293 -0.6844 -0.0627
  377MOL0     C50780   6.620  10.830   3.474 -0.0156 -0.3101  0.1606
  377MOL0     C50781   6.757  10.803   3.540  0.1678 -0.1103 -0.5527
  377MOL0     C50782   6.839  10.674   3.506 -0.5700 -0.5903  0.8291
  377MOL0     C50783   6.835  10.641   3.358  0.8016 -0.0518  0.9982
  377MOL0     O50784   6.949  10.555   3.336  0.3280 -0.3610 -0.6375
  377MOL0     C50785   6.944  10.421   3.376 -0.1422 -0.6604  0.6301
  377MOL0     C50786   6.834  10.359   3.420 -0.7313  0.3800  0.0441
  377MOL0     C50787   6.840  10.228   3.468 -0.8020 -0.9455  0.5364
  377MOL0     C50788   6.704  10.161   3.497 -0.7888 -0.3362  0.1988
  377MOL0     C50789   6.959  10.147   3.449  0.3292  0.7026  0.8538
  377MOL0     C50790   6.951   9.996   3.474  0.4876  0.0797 -0.0348
  377MOL0     O50791   6.866   9.947   3.564  0.0011  0.4808 -0.2268
  377MOL0     C50792   6.900   9.835   3.637 -0.4302 -0.1372 -0.5775
  377MOL0     C50793   6.989   9.728   3.617  0.0501  0.2554  0.4183
  377MOL0     C50794   7.007   9.630   3.713 -0.1024 -0.5960 -0.2224
  377MOL0     C50795   6.929   9.634   3.829  0.2244 -0.7692  0.2527
  377MOL0     O50796   6.953   9.547   3.924  0.2805 -0.2321  0.9310
  377MOL0     C50797   6.844   9.449   3.962  0.0225 -0.0737  0.5187
  377MOL0     C50798   6.789   9.508   4.097 -0.0676  0.5898  0.9157
  377MOL0     C50799   6.729   9.381   4.177 -0.6413 -0.2460  0.2206
  377MOL0     C50800   6.838   9.280   4.224 -0.0463  0.7712  0.8768
  377MOL0     C50801   6.788   9.180   4.324 -0.1427  1.2030 -0.2675
  377MOL0     C50802   6.679   9.094   4.290  0.3936  0.5384  0.3322
  377MOL0     C50803   6.655   8.966   4.385  0.5460  0.5921  0.7863
  377MOL0     C50804   6.573   8.998   4.514  0.1257  0.0004  1.2278
  377MOL0    Cl50805   6.627   8.866   4.628 -0.0091  0.0340 -0.0294
  377MOL0     C50806   6.832   9.731   3.843 -0.5607  0.3674  0.3946
  377MOL0     C50807   6.830   9.832   3.749 -0.0281 -0.1609  0.4275
  377MOL0     O50808   7.038   9.931   3.419  0.2151  0.4046 -0.2842
  377MOL0     C50809   7.062  10.208   3.381  0.3777  0.5603  0.7308
  377MOL0     C50810   7.059  10.344   3.356  0.3050  0.0630  0.0529
  377MOL0     N50811   6.535  10.599   3.450  0.1615  0.1929 -0.4383
  377MOL0     N50812   6.454  10.517   3.515 -0.1153 -0.5162 -0.1460
  377MOL0     C50813   6.854  10.022   4.303  0.1167  0.0504 -0.4635
  377MOL0     C50814   6.941   9.999   4.412  0.9251 -0.0523 -0.0492
  377MOL0     C50815   7.246   9.912   4.704 -0.1059 -0.4764  0.2690
  377MOL0     C50816   7.326   9.999   4.780  0.6026 -1.3518  0.0426
  377MOL0     C50817   7.394   9.957   4.900 -0.6980  0.4195  0.5516
  377MOL0     C50818   7.396   9.824   4.936  0.7908 -0.5932  0.7303
  377MOL0     O50819   7.475   9.800   5.053  0.0294  0.5371  0.3143
  377MOL0     C50820   7.504   9.662   5.084 -0.2644 -0.1830 -0.5499
  377MOL0     C50821   7.615   9.671   5.188  0.1926 -0.1938 -0.2033
  377MOL0     C50822   7.680   9.528   5.225 -0.2579  0.8615 -0.1664
  377MOL0     C50823   7.788   9.562   5.329  0.8157  0.9167 -0.1934
  377MOL0     C50824   7.918   9.606   5.285  0.4581 -0.7309  0.1156
  377MOL0     C50825   8.041   9.608   5.276  1.1681 -0.9837  0.2676
  377MOL0     C50826   7.307   9.738   4.865 -0.3576 -0.2329  0.0624
  377MOL0     C50827   7.231   9.788   4.755 -0.6055  0.5443  0.7759
  377MOL0     H50828   7.095   9.711   4.324  1.9891  1.5466 -0.3278
  377MOL0     H50829   6.931   9.745   4.130 -2.3428  0.1623  0.1693
  377MOL0     H50830   6.608  10.019   4.186  2.9459 -3.5590  2.1994
  377MOL0     H50831   6.698  10.125   4.068 -2.5503  0.5206  0.6610
  377MOL0     H50832   6.615   9.981   3.880 -0.3647 -1.3126 -0.1667
  377MOL0     H50833   6.550   9.872   4.006  0.6294  0.9108  1.7794
  377MOL0     H50834   6.374  10.006   3.930 -0.1067  1.6426 -0.8859
  377MOL0     H50835   6.401  10.035   4.100  4.7652 -0.8275  1.4174
  377MOL0     H50836   6.348  10.250   4.001 -0.3514  0.9359 -2.1882
  377MOL0     H50837   6.529  10.242   4.033  1.1067  0.3989 -1.7909
  377MOL0     H50838   6.554  10.212   3.781  0.6150 -1.7865  1.9874
  377MOL0     H50839   6.366  10.233   3.774 -0.8685  2.7154 -1.1592
  377MOL0     H50840   6.579  10.417   3.907  0.4216  2.6476 -0.1087
  377MOL0     H50841   6.551  10.425   3.737 -1.5281  2.3479  0.3275
  377MOL0     H50842   6.333  10.478   3.944 -0.8134  3.0061  0.3811
  377MOL0     H50843   6.417  10.608   3.879  1.4378 -0.1410  2.8328
  377MOL0     H50844   6.217  10.567   3.730  0.0646  0.4939  0.8205
  377MOL0     H50845   6.293  10.421   3.681 -0.5528 -0.5123  1.0546
  377MOL0     H50846   6.431  10.776   3.707 -1.2149 -1.8827  1.6945
  377MOL0     H50847   6.635  10.851   3.368  3.7165 -0.7289  0.4820
  377MOL0     H50848   6.588  10.924   3.519  1.0222 -1.0628  2.6753
  377MOL0     H50849   6.744  10.795   3.648 -2.3586 -2.4567 -0.9320
  377MOL0     H50850   6.805  10.902   3.535 -2.1147  1.3760  2.9220
  377MOL0     H50851   6.797  10.589   3.560 -4.5936 -1.6852 -3.3715
  377MOL0     H50852   6.941  10.701   3.535 -0.3151 -2.4902  1.8471
  377MOL0     H50853   6.845  10.738   3.309  0.2320 -0.5892 -0.2409
  377MOL0     H50854   6.748  10.589   3.316  1.2384  0.6447 -0.8732
  377MOL0     H50855   6.733  10.399   3.429 -1.3643 -1.0257 -0.4607
  377MOL0     H50856   6.695  10.085   3.419 -0.0923  2.3137 -2.6726
  377MOL0     H50857   6.706  10.106   3.591  0.2127  0.5985  0.7437
  377MOL0     H50858   6.613  10.222   3.493 -0.9520 -0.5385 -3.9240
  377MOL0     H50859   7.049   9.707   3.530  1.5721 -0.8271  1.6891
  377MOL0     H50860   7.065   9.541   3.689 -0.0969 -0.4022 -0.9518
  377MOL0     H50861   6.768   9.432   3.886  1.9844 -0.4090 -1.4739
  377MOL0     H50862   6.898   9.359   3.995 -0.9705  0.9446  5.8746
  377MOL0     H50863   6.868   9.546   4.162  0.3298  0.0949  0.7326
  377MOL0     H50864   6.718   9.590   4.083 -0.0525  0.5655  0.6805
  377MOL0     H50865   6.664   9.321   4.112  0.3389 -2.5756  1.2843
  377MOL0     H50866   6.668   9.416   4.260 -2.6252  0.0236 -1.2684
  377MOL0     H50867   6.884   9.215   4.149  0.2302 -0.9458  2.4528
  377MOL0     H50868   6.913   9.335   4.282 -0.6926  0.1843  2.3267
  377MOL0     H50869   6.757   9.233   4.415  1.4308  1.6617  0.0351
  377MOL0     H50870   6.872   9.118   4.357 -1.9461  0.1306  2.6826
  377MOL0     H50871   6.584   9.148   4.294 -0.0592 -0.1513 -0.5793
  377MOL0     H50872   6.690   9.069   4.184 -0.7016  2.6434 -0.3211
  377MOL0     H50873   6.752   8.933   4.422  1.6872 -0.3241 -2.6361
  377MOL0     H50874   6.606   8.879   4.340 -1.0930  1.3550  0.9943
  377MOL0     H50875   6.466   8.984   4.496  0.5693 -0.5399 -1.6162
  377MOL0     H50876   6.592   9.100   4.549  2.8952  0.1871 -0.5256
  377MOL0     H50877   6.766   9.733   3.929 -1.3021  0.9582 -0.1615
  377MOL0     H50878   6.765   9.918   3.763  0.0458  0.5535 -2.8832
  377MOL0     H50879   7.138  10.146   3.334  2.5356  1.9137  2.2153
  377MOL0     H50880   7.149  10.396   3.324  0.2419  1.4383  1.9497
  377MOL0     H50881   6.798  10.114   4.312  0.6622  0.2198  1.5513
  377MOL0     H50882   6.947  10.064   4.499 -0.6986 -1.6307  1.3201
  377MOL0     H50883   7.343  10.100   4.744  0.7862 -0.9125  1.3156
  377MOL0     H50884   7.462  10.026   4.949  0.0893  0.1700 -0.1645
  377MOL0     H50885   7.411   9.608   5.104 -1.2997  1.1451 -1.5383
  377MOL0     H50886   7.557   9.616   5.000  2.0692 -0.0941  0.7917
  377MOL0     H50887   7.559   9.703   5.276 -0.7597 -1.2257 -0.4125
  377MOL0     H50888   7.695   9.743   5.165 -0.0157  0.5943  1.4187
  377MOL0     H50889   7.721   9.484   5.134 -1.9885 -0.0733 -0.5252
  377MOL0     H50890   7.607   9.457   5.264  0.9969  0.8211  2.3057
  377MOL0     H50891   7.794   9.471   5.389 -2.6946 -1.0573 -2.5016
  377MOL0     H50892   7.756   9.641   5.398  2.8728  0.8965  0.8623
  377MOL0     H50893   8.146   9.586   5.286  1.0118 -2.6466 -1.3181
  377MOL0     H50894   7.303   9.632   4.889  0.5058 -0.5748 -1.1893
  377MOL0     H50895   7.157   9.718   4.718 -2.8458  1.8081  2.5700
  378MOL0     O50896  11.354   2.005   8.463 -0.4070 -0.3142  0.2883
  378MOL0     C50897  11.467   2.006   8.513 -0.3472  0.6848 -0.0451
  378MOL0     O50898  11.514   1.914   8.604 -0.0378  0.4863  0.0199
  378MOL0     C50899  11.440   1.823   8.674  0.2028 -0.3308 -0.1304
  378MOL0     C50900  11.310   1.779   8.652  0.0580  0.1824 -0.0512
  378MOL0     C50901  11.248   1.693   8.747  0.2832  0.1292  0.1048
  378MOL0     C50902  11.316   1.639   8.856  0.8252  0.0330  0.5156
  378MOL0     O50903  11.254   1.574   8.963  1.3099  0.3385  0.1701
  378MOL0     C50904  11.108   1.577   8.967 -0.6210  0.1958  0.4658
  378MOL0     C50905  11.061   1.487   9.086 -0.2885  0.4168 -0.8236
  378MOL0     C50906  11.115   1.538   9.224  0.6505  1.3892 -1.5738
  378MOL0     C50907  11.097   1.443   9.343 -0.4282 -0.2291 -1.4801
  378MOL0     C50908  11.100   1.519   9.475  0.1719  0.6097 -0.4071
  378MOL0     C50909  11.025   1.436   9.574  0.3883 -0.2080  0.9416
  378MOL0     C50910  11.010   1.502   9.707  1.3398 -0.9551 -0.6921
  378MOL0     C50911  11.152   1.517   9.776 -0.7580  0.0967  0.7053
  378MOL0     N50912  11.233   1.394   9.784  0.1519  1.1749  0.4011
  378MOL0     C50913  11.187   1.267   9.812  0.5261  0.0801  0.6043
  378MOL0     C50914  11.289   1.190   9.776 -0.3964  0.1566 -0.2227
  378MOL0     C50915  11.293   1.046   9.815 -0.0470  1.5353  0.0966
  378MOL0     C50916  11.305   0.956   9.684  0.2961  0.6196  0.3042
  378MOL0     C50917  11.328   0.809   9.712 -0.1992  0.6185  0.7419
  378MOL0     C50918  11.229   0.745   9.804  0.5803  0.6307  0.1527
  378MOL0     O50919  11.243   0.605   9.789  0.3092 -0.9241 -0.5396
  378MOL0     C50920  11.145   0.535   9.844  1.0662  0.3826  1.0273
  378MOL0     C50921  11.021   0.522   9.779 -0.7418 -1.0053 -1.0058
  378MOL0     C50922  10.925   0.441   9.837  0.4166  0.2114  0.7544
  378MOL0     C50923  10.788   0.438   9.773  0.6986 -0.8705 -1.5351
  378MOL0     C50924  10.957   0.371   9.953  0.2368 -0.5240 -0.8733
  378MOL0     C50925  10.863   0.277  10.028 -0.0410  0.6345 -0.2508
  378MOL0     O50926  10.879   0.270  10.155 -0.0613  0.8129  0.8623
  378MOL0     C50927  10.827   0.161  10.217  0.3632 -0.2019  0.4021
  378MOL0     C50928  10.714   0.182  10.301 -0.8416  0.7515 -0.7772
  378MOL0     C50929  10.648   0.068  10.362 -0.0589 -0.4822  0.3792
  378MOL0     C50930  10.693  -0.059  10.339 -0.3505 -0.1019 -0.3240
  378MOL0     O50931  10.620  -0.164  10.373  0.5952 -0.2142  0.2894
  378MOL0     C50932  10.690  -0.291  10.404 -0.1586  0.8605  0.0840
  378MOL0     C50933  10.600  -0.385  10.468 -0.3456  1.3936 -0.0025
  378MOL0     C50934  10.649  -0.526  10.435  0.7991  0.6822 -0.2593
  378MOL0     C50935  10.772  -0.576  10.510  0.1627 -0.0215  0.4757
  378MOL0     C50936  10.819  -0.714  10.468 -0.5592 -0.2661 -0.5783
  378MOL0     C50937  10.932  -0.772  10.551 -0.0076 -0.8243  0.5364
  378MOL0     C50938  10.972  -0.908  10.516  0.5330 -0.4811 -0.5652
  378MOL0     C50939  11.074  -0.971  10.619  0.9099 -0.2880  0.4244
  378MOL0    Cl50940  11.065  -1.148  10.620 -0.4270 -0.0793  0.0538
  378MOL0     C50941  10.819  -0.074  10.269 -0.1036  0.2703  0.0857
  378MOL0     C50942  10.874   0.031  10.208  0.0916 -0.2670 -0.1969
  378MOL0     O50943  10.779   0.213   9.961 -0.3244  0.3341 -0.5884
  378MOL0     C50944  11.078   0.390  10.017  0.0192 -0.1474  0.1587
  378MOL0     C50945  11.173   0.463   9.961  0.2381  0.5471  0.1997
  378MOL0     N50946  11.389   1.258   9.710  0.1279 -0.3562 -0.0659
  378MOL0     N50947  11.352   1.378   9.720 -1.0230 -0.5210  0.9144
  378MOL0     C50948  11.448   1.674   8.867 -0.2729 -0.5218 -0.0041
  378MOL0     C50949  11.511   1.749   8.773 -0.0310 -0.7330  1.0045
  378MOL0     C50950  11.560   2.101   8.463  0.1909 -0.1746 -0.1906
  378MOL0     C50951  11.533   2.186   8.357  0.2506 -0.9523  1.3356
  378MOL0     C50952  11.640   2.286   8.320  0.5586 -0.3930  0.9894
  378MOL0     C50953  11.767   2.286   8.383  0.6515  0.2363  0.4428
  378MOL0     O50954  11.866   2.376   8.339  1.0680 -0.2488 -0.3323
  378MOL0     C50955  11.846   2.515   8.383  1.4109 -0.6315 -0.3916
  378MOL0     C50956  11.931   2.618   8.313 -0.0917  0.0321  0.0948
  378MOL0     C50957  11.912   2.597   8.165  0.3931  0.5444  0.7580
  378MOL0     C50958  11.994   2.702   8.091  0.4770 -0.0208  0.0626
  378MOL0     C50959  11.921   2.829   8.077 -0.5524  0.2541  0.8876
  378MOL0     C50960  11.873   2.931   8.053 -0.2181  0.2622  0.4376
  378MOL0     C50961  11.784   2.186   8.477 -1.3467 -0.5722 -0.7768
  378MOL0     C50962  11.686   2.100   8.515  0.3360  0.2371 -0.9726
  378MOL0     H50963  11.260   1.827   8.568  1.5612  2.1500  0.1201
  378MOL0     H50964  11.141   1.680   8.732  0.4676  1.0730 -2.3936
  378MOL0     H50965  11.070   1.679   8.979 -1.7973 -0.0535 -0.7878
  378MOL0     H50966  11.055   1.530   8.883 -0.8721 -0.0787  0.7758
  378MOL0     H50967  10.953   1.473   9.093 -0.1189 -0.2311  2.2071
  378MOL0     H50968  11.096   1.385   9.068 -2.8097 -0.7593  0.3907
  378MOL0     H50969  11.220   1.569   9.226  1.2375 -0.5307 -0.3720
  378MOL0     H50970  11.060   1.630   9.246  0.0180  0.6316  0.1780
  378MOL0     H50971  11.003   1.387   9.339 -2.6268  2.6536  2.2802
  378MOL0     H50972  11.185   1.378   9.342  1.7266  2.5161 -0.9263
  378MOL0     H50973  11.201   1.536   9.513 -0.6729  1.2114  1.7203
  378MOL0     H50974  11.049   1.616   9.466 -3.2306 -1.0985 -1.5653
  378MOL0     H50975  10.923   1.408   9.548 -0.1349  0.3499  2.3023
  378MOL0     H50976  11.074   1.338   9.578 -0.0600 -0.4693  0.2263
  378MOL0     H50977  10.957   1.597   9.693 -2.0603 -1.8208  4.0564
  378MOL0     H50978  10.928   1.458   9.764 -0.6008  2.7105 -0.3492
  378MOL0     H50979  11.128   1.552   9.877 -0.2360  1.4851  0.3687
  378MOL0     H50980  11.210   1.593   9.723  0.7752  0.1026  2.2921
  378MOL0     H50981  11.088   1.232   9.840  1.2060 -3.5600 -0.9685
  378MOL0     H50982  11.374   1.034   9.889  1.5894 -3.9408 -2.1301
  378MOL0     H50983  11.200   1.016   9.864  1.2102 -2.0729  0.5393
  378MOL0     H50984  11.397   0.995   9.639  0.1894  2.7851  1.8166
  378MOL0     H50985  11.215   0.963   9.622 -1.0864  1.1987  2.2958
  378MOL0     H50986  11.429   0.796   9.751  1.7100  0.2454 -3.7662
  378MOL0     H50987  11.339   0.765   9.613  2.1296  2.0885  0.2955
  378MOL0     H50988  11.128   0.777   9.773  0.6066  1.5237  0.9488
  378MOL0     H50989  11.234   0.774   9.909 -2.8770 -0.6477  0.8155
  378MOL0     H50990  10.998   0.568   9.683  0.9504 -2.9273 -2.4189
  378MOL0     H50991  10.773   0.344   9.718  2.5978 -0.8333 -2.1946
  378MOL0     H50992  10.706   0.454   9.844 -1.0699 -1.2378 -3.3884
  378MOL0     H50993  10.777   0.525   9.708 -0.4610  0.4624  0.3569
  378MOL0     H50994  10.678   0.284  10.301 -0.4844  0.8840 -0.1914
  378MOL0     H50995  10.559   0.083  10.422  1.2634 -0.3391  2.3779
  378MOL0     H50996  10.708  -0.329  10.304 -2.9578  2.7209 -1.2741
  378MOL0     H50997  10.784  -0.269  10.455  0.8267  0.1416 -1.3732
  378MOL0     H50998  10.599  -0.375  10.577 -1.1758 -2.3441  0.4458
  378MOL0     H50999  10.497  -0.372  10.433 -1.0089 -0.0632  1.3006
  378MOL0     H51000  10.661  -0.532  10.327  2.7007 -0.8960 -0.0168
  378MOL0     H51001  10.566  -0.591  10.465 -2.6872  1.8158 -5.8862
  378MOL0     H51002  10.848  -0.498  10.497 -1.4987  1.3787 -1.5361
  378MOL0     H51003  10.746  -0.591  10.615  0.4286 -0.5200  0.4706
  378MOL0     H51004  10.864  -0.702  10.369  3.2252 -0.6926  0.9213
  378MOL0     H51005  10.734  -0.782  10.454 -0.4247 -0.1097 -2.4592
  378MOL0     H51006  11.010  -0.698  10.532 -1.9211  0.9531 -0.8216
  378MOL0     H51007  10.910  -0.767  10.658  1.1551  2.5629  0.7037
  378MOL0     H51008  11.009  -0.917  10.414  2.1649  2.4507 -0.3604
  378MOL0     H51009  10.878  -0.962  10.527  0.7595 -0.4270  2.7206
  378MOL0     H51010  11.062  -0.922  10.716  0.8017  0.7332 -0.0945
  378MOL0     H51011  11.170  -0.933  10.582  0.0833  2.3400  0.7272
  378MOL0     H51012  10.866  -0.171  10.257 -4.0035 -1.7051 -0.9385
  378MOL0     H51013  10.963   0.027  10.145 -1.7035 -1.3170 -2.8258
  378MOL0     H51014  11.093   0.336  10.109 -2.3346 -0.3013  0.5028
  378MOL0     H51015  11.268   0.471  10.013  1.4221 -1.5566 -1.4721
  378MOL0     H51016  11.508   1.626   8.943 -2.6114 -2.9643  0.4824
  378MOL0     H51017  11.615   1.775   8.790  0.0967  0.2564 -1.0293
  378MOL0     H51018  11.443   2.195   8.297  1.8828  2.5474 -0.9459
  378MOL0     H51019  11.619   2.371   8.256 -0.7147  2.3094  4.6583
  378MOL0     H51020  11.746   2.555   8.366  2.2472  1.4808 -0.6131
  378MOL0     H51021  11.867   2.522   8.490 -5.3359 -1.5980  1.4256
  378MOL0     H51022  12.037   2.601   8.333 -0.0860  1.5554  1.6221
  378MOL0     H51023  11.907   2.723   8.336  2.4459  0.6069  0.3546
  378MOL0     H51024  11.805   2.607   8.144  0.8645  3.4041 -0.9737
  378MOL0     H51025  11.937   2.499   8.124 -1.9128 -0.6636  2.0751
  378MOL0     H51026  12.022   2.671   7.990 -0.3092  0.6932 -0.3888
  378MOL0     H51027  12.087   2.709   8.148  1.2644 -4.3770 -0.3315
  378MOL0     H51028  11.836   3.025   8.018 -3.7026 -0.3647  1.9763
  378MOL0     H51029  11.886   2.171   8.512 -1.5508  0.7010  0.4474
  378MOL0     H51030  11.731   2.028   8.583 -0.0382 -0.8902 -1.8883
  379MOL0     O51031  10.586   7.242   2.166  0.9978  0.7107 -0.0518
  379MOL0     C51032  10.677   7.280   2.242 -0.2030  0.0431 -1.0404
  379MOL0     O51033  10.802   7.223   2.251 -0.0356 -0.3762 -0.5887
  379MOL0     C51034  10.843   7.130   2.154  0.6933  0.1456  0.2940
  379MOL0     C51035  10.853   7.158   2.012 -0.1257 -0.1637 -0.1255
  379MOL0     C51036  10.884   7.049   1.930 -0.3603 -0.0945  0.0687
  379MOL0     C51037  10.925   6.917   1.971  0.1550  0.0512  0.1702
  379MOL0     O51038  10.949   6.824   1.869  0.2472  0.1148  0.0799
  379MOL0     C51039  10.982   6.699   1.923 -0.6578 -0.5411 -0.2655
  379MOL0     C51040  11.059   6.619   1.817 -0.6396  0.8604 -0.1020
  379MOL0     C51041  11.207   6.658   1.799  0.0014  0.0670 -0.2394
  379MOL0     C51042  11.305   6.539   1.764  0.5209  0.4340 -0.6633
  379MOL0     C51043  11.436   6.586   1.700  0.7566  0.2228  0.8818
  379MOL0     C51044  11.557   6.491   1.708 -0.3907 -0.0928 -0.2852
  379MOL0     C51045  11.515   6.368   1.627 -0.3469  0.9380  0.1712
  379MOL0     C51046  11.616   6.258   1.633 -0.5310 -0.9987 -0.5437
  379MOL0     N51047  11.732   6.292   1.553 -0.0944 -0.5691 -0.4230
  379MOL0     C51048  11.747   6.295   1.417  0.0629  0.1525 -0.0514
  379MOL0     C51049  11.855   6.375   1.405 -0.2055  0.2763 -0.0044
  379MOL0     C51050  11.903   6.407   1.269 -1.3588 -1.1466  0.6939
  379MOL0     C51051  11.811   6.421   1.161 -0.6160 -0.5951 -0.0030
  379MOL0     C51052  11.695   6.522   1.195 -0.1371  0.6150  0.0209
  379MOL0     C51053  11.576   6.505   1.105  1.1672  0.3272 -0.3524
  379MOL0     O51054  11.600   6.482   0.965 -0.0547 -0.3084 -0.2094
  379MOL0     C51055  11.601   6.597   0.892 -0.3392  0.2774 -0.3326
  379MOL0     C51056  11.726   6.661   0.860  0.0370  0.2255  0.9250
  379MOL0     C51057  11.732   6.785   0.789  0.1572  0.1228  0.5748
  379MOL0     C51058  11.862   6.831   0.740  0.0905 -0.1756 -0.2755
  379MOL0     C51059  11.607   6.842   0.743 -0.2630 -0.2511 -0.1515
  379MOL0     C51060  11.601   6.977   0.668  1.0122 -0.0620 -0.0984
  379MOL0     O51061  11.476   7.040   0.667 -0.3254 -0.3001 -1.1322
  379MOL0     C51062  11.491   7.181   0.651  0.8631  0.5521 -0.3783
  379MOL0     C51063  11.540   7.263   0.749 -0.0300 -0.2520 -0.0992
  379MOL0     C51064  11.558   7.395   0.726 -1.1674 -0.0870 -0.4531
  379MOL0     C51065  11.534   7.450   0.600 -0.1777 -0.2676  0.0777
  379MOL0     O51066  11.584   7.576   0.586  0.6785  0.1754  0.5647
  379MOL0     C51067  11.655   7.613   0.468  0.1150 -0.2943  0.4388
  379MOL0     C51068  11.739   7.738   0.485  0.1830 -0.1448 -0.1006
  379MOL0     C51069  11.644   7.859   0.478  0.2483 -0.8578  0.1872
  379MOL0     C51070  11.701   7.974   0.395  0.4466 -0.9163  0.3543
  379MOL0     C51071  11.591   8.090   0.373  0.3131  0.4218  0.1350
  379MOL0     C51072  11.525   8.132   0.504  0.5351  0.8224  0.0240
  379MOL0     C51073  11.437   8.252   0.488 -0.4264 -0.4138 -0.4522
  379MOL0     C51074  11.314   8.259   0.584 -0.4580 -0.0743  0.2227
  379MOL0    Cl51075  11.227   8.409   0.541  0.0297 -0.0927 -0.0160
  379MOL0     C51076  11.492   7.369   0.496  0.0654  0.0294 -0.5509
  379MOL0     C51077  11.461   7.239   0.527  0.3187 -0.2114  0.6628
  379MOL0     O51078  11.701   7.035   0.635  0.1967 -0.0200 -0.0524
  379MOL0     C51079  11.476   6.775   0.779  0.0188  0.1503  0.9090
  379MOL0     C51080  11.477   6.654   0.858 -0.6301 -0.1489  0.0138
  379MOL0     N51081  11.901   6.406   1.534 -0.7601  0.0252  0.4682
  379MOL0     N51082  11.833   6.353   1.622  0.2260 -0.3270 -0.4133
  379MOL0     C51083  10.915   6.894   2.106 -0.2005  0.8708 -0.2184
  379MOL0     C51084  10.880   6.999   2.194 -0.1959 -0.7343 -0.9667
  379MOL0     C51085  10.644   7.395   2.334 -0.0017 -1.2438  0.4462
  379MOL0     C51086  10.734   7.447   2.424  0.0063  0.6667 -0.8275
  379MOL0     C51087  10.705   7.551   2.505 -0.2928  0.3589 -0.0330
  379MOL0     C51088  10.578   7.619   2.502 -0.1385 -0.6859  0.5422
  379MOL0     O51089  10.556   7.731   2.576  0.2242 -0.0503  0.0526
  379MOL0     C51090  10.660   7.798   2.649 -0.4737  0.0854 -0.2734
  379MOL0     C51091  10.679   7.758   2.788 -0.7741  0.0111 -0.0695
  379MOL0     C51092  10.548   7.778   2.868  0.5117 -0.1507 -0.0481
  379MOL0     C51093  10.565   7.765   3.019  0.9424  0.7955 -1.0504
  379MOL0     C51094  10.457   7.680   3.073  0.4047  0.3325 -0.6630
  379MOL0     C51095  10.389   7.606   3.137  0.3510  0.7696  0.1785
  379MOL0     C51096  10.484   7.571   2.412  0.5124 -0.2379  0.2091
  379MOL0     C51097  10.516   7.462   2.328 -0.3843  0.2906  0.2946
  379MOL0     H51098  10.816   7.248   1.964 -0.2506  0.1115  0.4803
  379MOL0     H51099  10.894   7.047   1.822  4.1891 -2.7941  0.2849
  379MOL0     H51100  11.055   6.708   2.004  1.2694 -1.3413 -1.8099
  379MOL0     H51101  10.891   6.644   1.947 -1.0690  0.1321 -0.2586
  379MOL0     H51102  11.059   6.514   1.850  0.7189  0.7616 -0.3551
  379MOL0     H51103  11.011   6.622   1.719  0.0600 -0.4781 -0.5241
  379MOL0     H51104  11.220   6.729   1.716  0.9724  0.6163  0.3553
  379MOL0     H51105  11.246   6.703   1.891  1.3985  0.9397 -1.2056
  379MOL0     H51106  11.339   6.487   1.854  0.6304  0.4304 -0.7069
  379MOL0     H51107  11.261   6.468   1.693 -0.9348  0.7763 -0.1359
  379MOL0     H51108  11.409   6.596   1.594  0.4564  0.5876  0.9924
  379MOL0     H51109  11.466   6.683   1.739  1.3193  0.0866  0.7984
  379MOL0     H51110  11.647   6.537   1.666 -1.1414  0.1743 -1.6516
  379MOL0     H51111  11.572   6.470   1.814  2.8196  1.8866 -0.2030
  379MOL0     H51112  11.421   6.332   1.670 -0.2272 -2.9787 -2.3638
  379MOL0     H51113  11.507   6.395   1.521  1.4816  0.9442  0.0106
  379MOL0     H51114  11.559   6.170   1.602 -2.3237 -0.2940  0.5471
  379MOL0     H51115  11.639   6.238   1.738  0.0974  2.4854  0.0857
  379MOL0     H51116  11.677   6.252   1.345 -2.5318 -1.1889  2.9930
  379MOL0     H51117  11.954   6.504   1.267 -1.0881 -1.2992  0.1816
  379MOL0     H51118  11.962   6.318   1.246  1.3055  0.3994  1.1720
  379MOL0     H51119  11.760   6.325   1.146 -1.6148 -0.8049  3.7103
  379MOL0     H51120  11.859   6.451   1.068 -0.8988 -1.2593 -0.3702
  379MOL0     H51121  11.741   6.622   1.189 -0.2644  0.5775 -3.3333
  379MOL0     H51122  11.662   6.510   1.299 -2.9308 -1.9449 -1.0282
  379MOL0     H51123  11.505   6.587   1.118  0.3970 -0.1573 -1.3825
  379MOL0     H51124  11.528   6.411   1.135 -1.8542  2.7751  3.3496
  379MOL0     H51125  11.813   6.602   0.887  1.6803  1.7977 -0.6207
  379MOL0     H51126  11.874   6.812   0.633  0.3110  3.4621 -1.0433
  379MOL0     H51127  11.878   6.937   0.764 -1.9111 -0.0007  0.5074
  379MOL0     H51128  11.944   6.781   0.793 -0.2701  0.5655  1.0413
  379MOL0     H51129  11.574   7.206   0.835  2.5797  1.5935  0.2190
  379MOL0     H51130  11.629   7.446   0.791  1.3896 -3.3418 -0.4173
  379MOL0     H51131  11.736   7.542   0.447  0.0582 -0.0437 -0.7293
  379MOL0     H51132  11.586   7.633   0.385 -0.5551 -1.2739  0.7406
  379MOL0     H51133  11.789   7.746   0.582 -0.0438  4.3521 -0.1600
  379MOL0     H51134  11.822   7.743   0.415  0.9390  1.7765  0.8676
  379MOL0     H51135  11.637   7.878   0.586 -1.9229 -1.9195  0.2740
  379MOL0     H51136  11.549   7.827   0.436  0.1376 -2.6169  1.6550
  379MOL0     H51137  11.786   8.010   0.454  0.5586 -1.2399  0.3866
  379MOL0     H51138  11.729   7.928   0.300  1.5615 -0.7029  0.5701
  379MOL0     H51139  11.519   8.045   0.304  1.8562 -2.1936  0.1018
  379MOL0     H51140  11.631   8.179   0.324  0.3794  0.1954 -0.2329
  379MOL0     H51141  11.466   8.047   0.539  1.4147  0.1088 -0.1657
  379MOL0     H51142  11.599   8.156   0.581 -1.3379  1.7709  1.5826
  379MOL0     H51143  11.391   8.253   0.389 -1.1566  0.3337 -0.1216
  379MOL0     H51144  11.497   8.343   0.503 -1.2781  0.1422 -0.3614
  379MOL0     H51145  11.345   8.251   0.689  1.6872 -5.0540 -0.4961
  379MOL0     H51146  11.251   8.170   0.577  1.1941 -1.4524  1.9725
  379MOL0     H51147  11.478   7.404   0.394 -0.3440  1.1493 -0.1329
  379MOL0     H51148  11.431   7.187   0.436  1.4201  0.1241  0.0817
  379MOL0     H51149  11.383   6.820   0.745 -0.6710 -1.3997  0.6911
  379MOL0     H51150  11.392   6.599   0.897  0.5689 -0.9343  1.6082
  379MOL0     H51151  10.943   6.798   2.145  1.8956  1.8503  0.8137
  379MOL0     H51152  10.874   6.964   2.296 -2.3502 -2.1090 -1.4942
  379MOL0     H51153  10.840   7.421   2.420 -0.0779  0.1553  0.0442
  379MOL0     H51154  10.789   7.584   2.564  0.3065 -1.4903  0.1912
  379MOL0     H51155  10.763   7.800   2.611 -0.2988 -2.4620 -0.0872
  379MOL0     H51156  10.625   7.902   2.652 -0.9403 -0.0817  0.7441
  379MOL0     H51157  10.762   7.814   2.832  1.2865 -1.9767 -1.2237
  379MOL0     H51158  10.710   7.653   2.780  1.2364  0.6760 -1.9144
  379MOL0     H51159  10.478   7.706   2.823 -1.5137  1.0647  1.0054
  379MOL0     H51160  10.510   7.873   2.830  0.8928 -0.5479 -1.4761
  379MOL0     H51161  10.560   7.858   3.076  4.0093  0.6222 -0.3391
  379MOL0     H51162  10.662   7.716   3.033  1.3261  1.3425 -1.7202
  379MOL0     H51163  10.334   7.535   3.194  0.1847 -1.5377 -2.6016
  379MOL0     H51164  10.390   7.622   2.393 -0.8030 -2.6734 -0.1861
  379MOL0     H51165  10.442   7.418   2.261  0.6020  0.9446 -1.2750
  380MOL0     O51166   4.902   7.184   0.853  0.8369  0.3555  0.6258
  380MOL0     C51167   4.962   7.106   0.780 -1.4651 -0.3342 -0.9454
  380MOL0     O51168   4.931   6.978   0.746 -0.3139  0.4312  0.6502
  380MOL0     C51169   4.800   6.933   0.774 -1.0908  0.3978 -0.2062
  380MOL0     C51170   4.729   6.861   0.678  0.3199 -0.1654  0.3060
  380MOL0     C51171   4.600   6.813   0.701  0.2882 -0.3167 -0.8228
  380MOL0     C51172   4.543   6.841   0.827 -0.0718 -0.7068  0.0768
  380MOL0     O51173   4.417   6.795   0.858 -0.1334 -0.0489  0.2983
  380MOL0     C51174   4.406   6.686   0.952 -0.4779  0.4625 -0.1755
  380MOL0     C51175   4.268   6.647   0.975  0.9277 -0.5418 -0.4816
  380MOL0     C51176   4.194   6.747   1.067 -0.9367 -0.1844 -0.0514
  380MOL0     C51177   4.048   6.697   1.080 -0.1921 -0.5897  0.2152
  380MOL0     C51178   3.963   6.769   1.192  0.5380  0.5797 -0.7843
  380MOL0     C51179   3.974   6.920   1.204 -0.8594  0.0875 -0.5554
  380MOL0     C51180   3.949   6.999   1.070 -0.8855  0.0584  0.5556
  380MOL0     C51181   3.883   7.151   1.087  0.7157  0.0661  1.0438
  380MOL0     N51182   3.841   7.217   0.961  1.1707 -0.2189 -0.1770
  380MOL0     C51183   3.870   7.175   0.831  0.0389  0.1805  0.1998
  380MOL0     C51184   3.804   7.255   0.745 -1.4011  0.9346  0.5042
  380MOL0     C51185   3.815   7.255   0.595 -0.1354 -1.0852  0.2015
  380MOL0     C51186   3.706   7.324   0.518  0.2126 -0.2693  0.0758
  380MOL0     C51187   3.744   7.333   0.366 -0.7964 -0.0282  0.0677
  380MOL0     C51188   3.834   7.458   0.347 -0.2693  0.4282  0.1059
  380MOL0     O51189   3.884   7.497   0.222  0.3132 -0.0013  0.6065
  380MOL0     C51190   3.806   7.464   0.110  0.9040  0.0994 -1.1202
  380MOL0     C51191   3.731   7.562   0.063 -0.4759 -1.4000  0.1840
  380MOL0     C51192   3.634   7.534  -0.036 -0.4260 -0.3278 -0.4222
  380MOL0     C51193   3.563   7.665  -0.095 -1.0499  0.3040  0.1954
  380MOL0     C51194   3.617   7.402  -0.086 -0.5158  0.2344 -0.5706
  380MOL0     C51195   3.509   7.366  -0.172  0.0666 -0.2933 -0.2305
  380MOL0     O51196   3.515   7.239  -0.210  0.9930  0.3614  0.0102
  380MOL0     C51197   3.415   7.166  -0.284  0.4026  0.8384 -0.4328
  380MOL0     C51198   3.278   7.190  -0.285  0.4180 -0.6103  0.2489
  380MOL0     C51199   3.198   7.122  -0.376 -0.3110  0.3587 -0.2704
  380MOL0     C51200   3.248   7.016  -0.465  0.1584 -0.5686  1.1028
  380MOL0     O51201   3.168   6.947  -0.556  0.4567  0.1007  0.6459
  380MOL0     C51202   3.056   7.022  -0.608  0.6794  1.0910  0.6135
  380MOL0     C51203   2.994   6.925  -0.707 -0.5319  0.7951  0.0201
  380MOL0     C51204   2.932   6.802  -0.651 -0.2653 -1.3467  0.1759
  380MOL0     C51205   2.904   6.700  -0.761  0.5456  0.3949 -0.0585
  380MOL0     C51206   2.794   6.602  -0.701 -0.0467  0.1740 -0.2451
  380MOL0     C51207   2.758   6.491  -0.791  0.2242  0.1433 -0.5520
  380MOL0     C51208   2.616   6.441  -0.748 -0.4051  0.0447 -0.3684
  380MOL0     C51209   2.591   6.310  -0.824  0.4357  0.7535 -0.2919
  380MOL0    Cl51210   2.614   6.335  -0.997 -0.2628 -0.3655  0.2155
  380MOL0     C51211   3.384   6.986  -0.457  0.8379  1.0523  0.7697
  380MOL0     C51212   3.467   7.056  -0.364  0.3325  0.0597 -0.4571
  380MOL0     O51213   3.424   7.447  -0.214 -0.1903  0.4750 -0.1465
  380MOL0     C51214   3.704   7.298  -0.033 -0.1766 -0.2507  0.1628
  380MOL0     C51215   3.806   7.335   0.058 -0.1635 -0.2188 -0.3651
  380MOL0     N51216   3.734   7.346   0.819 -0.2106 -0.2318  0.0975
  380MOL0     N51217   3.746   7.318   0.950 -1.0572 -0.5538  0.1337
  380MOL0     C51218   4.616   6.913   0.925  0.0158  0.3768  0.4620
  380MOL0     C51219   4.735   6.956   0.894  0.0989 -0.2900 -0.4887
  380MOL0     C51220   5.091   7.159   0.730 -0.2367 -1.0271 -0.5862
  380MOL0     C51221   5.149   7.095   0.621  0.1195  0.9007  0.4724
  380MOL0     C51222   5.279   7.128   0.571 -0.2885 -0.0719 -0.1694
  380MOL0     C51223   5.357   7.226   0.642  0.3596  0.6150  1.2881
  380MOL0     O51224   5.489   7.237   0.608 -0.0459  0.3351  0.1113
  380MOL0     C51225   5.572   7.315   0.690 -0.3052 -0.6343  0.2800
  380MOL0     C51226   5.711   7.294   0.624  0.7852  0.3355 -0.1181
  380MOL0     C51227   5.812   7.371   0.699 -0.0030 -0.1678  0.1746
  380MOL0     C51228   5.943   7.382   0.614 -0.0465  0.2316  0.3885
  380MOL0     C51229   6.063   7.409   0.701 -0.1629 -0.1086  0.4985
  380MOL0     C51230   6.155   7.428   0.775  0.6435  0.4540  0.3417
  380MOL0     C51231   5.297   7.294   0.749 -0.2857 -0.9565 -0.0903
  380MOL0     C51232   5.167   7.262   0.795  0.1456  0.5738 -0.2232
  380MOL0     H51233   4.779   6.846   0.583  1.2553 -1.4333  0.9670
  380MOL0     H51234   4.562   6.750   0.622  2.4439 -1.6328 -0.8916
  380MOL0     H51235   4.469   6.601   0.922  0.8175  0.8598  1.2931
  380MOL0     H51236   4.447   6.727   1.044  1.6164  0.5629 -1.0948
  380MOL0     H51237   4.213   6.646   0.880 -3.5313  1.3451  1.7849
  380MOL0     H51238   4.257   6.544   1.008 -2.3217 -0.1770 -0.0502
  380MOL0     H51239   4.246   6.758   1.163  1.4920  3.5722 -1.5640
  380MOL0     H51240   4.188   6.844   1.016 -0.2935 -1.3388 -2.4507
  380MOL0     H51241   3.999   6.712   0.983  0.7302 -2.3791 -0.5846
  380MOL0     H51242   4.052   6.589   1.097 -2.7510 -0.9840 -1.1702
  380MOL0     H51243   3.857   6.748   1.177 -0.0896  1.2819  2.1791
  380MOL0     H51244   3.989   6.735   1.292 -0.1867  0.5288 -0.6107
  380MOL0     H51245   3.911   6.962   1.284  0.1041  0.0650  0.2318
  380MOL0     H51246   4.074   6.944   1.240 -0.5980  1.8918 -2.3115
  380MOL0     H51247   4.050   7.005   1.028 -2.0765  2.1257 -2.2854
  380MOL0     H51248   3.887   6.937   1.005 -2.2698  0.8347  1.0957
  380MOL0     H51249   3.947   7.219   1.144  2.1387 -0.3081 -0.0614
  380MOL0     H51250   3.790   7.150   1.144 -0.8477 -0.4248 -1.3925
  380MOL0     H51251   3.947   7.101   0.813  2.5471  2.7185 -0.1359
  380MOL0     H51252   3.908   7.308   0.574 -1.1521  0.9442  0.5670
  380MOL0     H51253   3.817   7.152   0.558 -0.8443 -1.1346  0.2878
  380MOL0     H51254   3.694   7.427   0.553  1.0616  0.3032 -1.2537
  380MOL0     H51255   3.604   7.284   0.527 -0.3087  1.3548  2.5713
  380MOL0     H51256   3.655   7.331   0.304  0.7986  2.2724 -2.5232
  380MOL0     H51257   3.808   7.250   0.335 -2.2917 -0.4942 -1.9557
  380MOL0     H51258   3.925   7.444   0.407 -0.3158 -0.4235 -0.0026
  380MOL0     H51259   3.772   7.537   0.390 -1.0965 -0.8129  1.2932
  380MOL0     H51260   3.744   7.665   0.094 -0.8714 -1.7569  1.5714
  380MOL0     H51261   3.616   7.755  -0.063  0.3894 -0.6432  0.5564
  380MOL0     H51262   3.564   7.658  -0.204 -0.9707  1.6969  0.0838
  380MOL0     H51263   3.460   7.679  -0.061 -0.8904 -1.9938  1.7928
  380MOL0     H51264   3.243   7.250  -0.201 -0.2048  0.4923 -0.7762
  380MOL0     H51265   3.091   7.139  -0.370 -0.2109  0.9987 -0.2999
  380MOL0     H51266   2.986   7.049  -0.527 -0.2778  0.3028  0.0716
  380MOL0     H51267   3.080   7.110  -0.668 -1.0784  1.0107 -0.2887
  380MOL0     H51268   2.918   6.987  -0.756  0.4682 -0.6442 -3.6822
  380MOL0     H51269   3.064   6.905  -0.788 -0.1625  2.7341 -0.1809
  380MOL0     H51270   2.849   6.843  -0.593  0.6919  2.1220 -0.6274
  380MOL0     H51271   3.003   6.762  -0.577  1.2758  0.7660 -0.0640
  380MOL0     H51272   2.860   6.747  -0.850 -1.5821 -0.0670  0.6921
  380MOL0     H51273   2.985   6.632  -0.789  0.3016 -0.8708  2.0708
  380MOL0     H51274   2.712   6.671  -0.679 -0.9827 -0.5035 -1.4715
  380MOL0     H51275   2.841   6.563  -0.611  3.1821 -0.3046 -1.9801
  380MOL0     H51276   2.761   6.537  -0.890  1.7787  1.1457 -0.0813
  380MOL0     H51277   2.837   6.415  -0.791 -1.2696 -1.5081 -1.9393
  380MOL0     H51278   2.541   6.521  -0.759 -1.8386 -1.2987 -0.7804
  380MOL0     H51279   2.616   6.398  -0.648  2.2245  0.3381 -0.1867
  380MOL0     H51280   2.492   6.265  -0.806  1.1875 -1.7938 -2.0045
  380MOL0     H51281   2.657   6.230  -0.789 -0.8685 -1.1016 -1.8163
  380MOL0     H51282   3.433   6.908  -0.514  0.2699  0.4954  1.0271
  380MOL0     H51283   3.574   7.043  -0.347 -0.4940 -2.0401  5.6778
  380MOL0     H51284   3.713   7.197  -0.071  1.9181 -0.4699  1.1065
  380MOL0     H51285   3.879   7.267   0.101 -0.5228 -0.0840  0.4718
  380MOL0     H51286   4.570   6.934   1.021  2.2730 -3.0158  2.4949
  380MOL0     H51287   4.781   7.008   0.977  1.9210  1.3524 -2.4188
  380MOL0     H51288   5.100   7.010   0.576  1.5934 -0.8164  1.9739
  380MOL0     H51289   5.330   7.063   0.500 -0.0927 -0.6533  0.4963
  380MOL0     H51290   5.540   7.419   0.678 -2.0610 -1.2438 -0.6621
  380MOL0     H51291   5.575   7.281   0.794 -2.6673 -1.9006 -0.0038
  380MOL0     H51292   5.691   7.318   0.519 -0.9452  2.9482  0.7103
  380MOL0     H51293   5.748   7.191   0.629  1.4110  0.4183 -2.0976
  380MOL0     H51294   5.829   7.316   0.792 -1.0888  3.6117  2.8584
  380MOL0     H51295   5.789   7.476   0.722  0.6708  0.9144 -3.3826
  380MOL0     H51296   5.931   7.458   0.537 -1.0321 -0.2606  0.0377
  380MOL0     H51297   5.959   7.288   0.561 -2.5027  0.1769 -0.3985
  380MOL0     H51298   6.242   7.448   0.833  1.9688 -3.5820  0.1134
  380MOL0     H51299   5.348   7.365   0.814 -3.9850  1.2856  0.6822
  380MOL0     H51300   5.133   7.288   0.895 -1.3273 -2.4752  0.1713
  381MOL0     O51301   5.592   4.197   3.678  1.1951 -0.3429 -0.6773
  381MOL0     C51302   5.497   4.273   3.658 -0.4352 -0.6009  0.9552
  381MOL0     O51303   5.399   4.260   3.560  0.1606 -0.2836  0.5992
  381MOL0     C51304   5.389   4.147   3.476  0.7276 -0.5088 -0.6862
  381MOL0     C51305   5.318   4.165   3.350 -0.1689 -0.0649 -0.1751
  381MOL0     C51306   5.288   4.053   3.263  0.3281 -0.2500  0.0265
  381MOL0     C51307   5.351   3.928   3.285 -0.8904 -0.6353 -0.2724
  381MOL0     O51308   5.292   3.826   3.218 -0.2503  0.7562  0.9796
  381MOL0     C51309   5.375   3.747   3.139  0.9007 -0.7288 -0.5489
  381MOL0     C51310   5.418   3.830   3.019 -0.6171 -0.0771  0.2205
  381MOL0     C51311   5.311   3.858   2.925  0.4825  0.7647  0.3787
  381MOL0     C51312   5.365   3.952   2.811 -0.2114  0.1421  0.9559
  381MOL0     C51313   5.466   3.875   2.721  0.7149  0.6273 -0.1425
  381MOL0     C51314   5.537   3.949   2.599  0.2858 -0.5280  0.7113
  381MOL0     C51315   5.639   4.057   2.641 -0.0214 -0.5293  0.5582
  381MOL0     C51316   5.734   4.111   2.538  0.0365 -1.0185  0.4640
  381MOL0     N51317   5.695   4.113   2.398 -0.6370 -0.0018  0.1378
  381MOL0     C51318   5.585   4.176   2.348 -1.2869 -0.9703 -0.2183
  381MOL0     C51319   5.562   4.132   2.227 -0.2813  0.4431 -1.6189
  381MOL0     C51320   5.446   4.187   2.148  0.4784  0.3538  0.8421
  381MOL0     C51321   5.369   4.089   2.060  0.4689  0.6625 -0.4872
  381MOL0     C51322   5.263   4.014   2.139 -0.6240  0.1159  0.8869
  381MOL0     C51323   5.199   3.902   2.044 -0.1694  0.6341 -0.2854
  381MOL0     O51324   5.117   3.963   1.942  0.6031  0.0887 -0.5990
  381MOL0     C51325   5.075   3.884   1.840  1.2931 -0.6526  0.1266
  381MOL0     C51326   5.093   3.748   1.832 -0.1830  1.2244  0.0544
  381MOL0     C51327   5.086   3.679   1.709 -0.1657  0.1127  0.4191
  381MOL0     C51328   5.131   3.532   1.698  0.8241 -0.1265  0.3900
  381MOL0     C51329   5.043   3.746   1.588 -0.5517 -0.7792 -0.2334
  381MOL0     C51330   5.040   3.687   1.448 -1.0975 -0.4301 -0.9036
  381MOL0     O51331   5.027   3.774   1.355 -1.1031 -0.0901 -0.0195
  381MOL0     C51332   5.012   3.747   1.225  0.1615  0.3628 -0.1816
  381MOL0     C51333   4.982   3.851   1.135 -0.0680  0.1641  0.4714
  381MOL0     C51334   4.968   3.832   0.992  0.5671  0.0289 -0.3928
  381MOL0     C51335   4.976   3.704   0.945 -0.1469  1.1476 -0.4519
  381MOL0     O51336   4.963   3.673   0.810 -0.3382  0.4506 -0.2374
  381MOL0     C51337   5.013   3.767   0.711  0.5797  0.1178  1.1436
  381MOL0     C51338   5.018   3.695   0.568  0.1389 -1.2802  0.1836
  381MOL0     C51339   5.022   3.801   0.447  0.7707 -0.3905 -0.2725
  381MOL0     C51340   5.168   3.836   0.403 -0.2644 -0.6609 -0.6713
  381MOL0     C51341   5.170   3.857   0.252 -0.4271  0.2562  0.7292
  381MOL0     C51342   5.303   3.904   0.193 -0.0065 -0.2723 -0.1298
  381MOL0     C51343   5.292   3.924   0.039  1.1748 -1.2660  0.7618
  381MOL0     C51344   5.405   4.008  -0.020  0.6694  0.0593  0.3534
  381MOL0    Cl51345   5.570   3.918  -0.007  0.3852 -0.0499 -0.0201
  381MOL0     C51346   5.011   3.598   1.029  0.8584 -0.4395  0.3901
  381MOL0     C51347   5.031   3.618   1.167 -0.0513 -0.3091  0.0321
  381MOL0     O51348   5.061   3.570   1.433 -0.1833 -0.3234 -1.0188
  381MOL0     C51349   5.010   3.883   1.605 -0.2066 -0.4030  0.6114
  381MOL0     C51350   5.025   3.954   1.731  0.6282 -0.7355  0.2688
  381MOL0     N51351   5.659   4.043   2.190  0.3475 -0.0692 -0.0568
  381MOL0     N51352   5.741   4.031   2.298 -0.0020  0.0398  0.8880
  381MOL0     C51353   5.438   3.911   3.396 -0.4234 -0.6352  1.0071
  381MOL0     C51354   5.456   4.024   3.480  0.3570 -0.6275  0.1362
  381MOL0     C51355   5.502   4.392   3.748  1.2210 -0.0803  0.0695
  381MOL0     C51356   5.424   4.501   3.712  0.4554 -0.1734 -0.3459
  381MOL0     C51357   5.429   4.626   3.779  0.9600 -0.6168  0.8778
  381MOL0     C51358   5.504   4.638   3.895 -0.4130  1.0507 -0.0599
  381MOL0     O51359   5.510   4.751   3.965 -0.4738 -0.0827 -0.7247
  381MOL0     C51360   5.380   4.792   3.995  0.6816 -0.7452 -0.8169
  381MOL0     C51361   5.388   4.903   4.098 -0.7641  0.5579  0.5276
  381MOL0     C51362   5.253   4.923   4.163  0.0616 -0.3859  0.1039
  381MOL0     C51363   5.228   5.061   4.224  0.2661 -0.7462 -0.2473
  381MOL0     C51364   5.351   5.120   4.277  0.5368  0.4814 -0.0964
  381MOL0     C51365   5.456   5.167   4.319  0.1816 -0.4264  0.5588
  381MOL0     C51366   5.583   4.531   3.930 -0.4109 -0.0012  0.5332
  381MOL0     C51367   5.584   4.413   3.860 -0.2431  0.3462 -1.1073
  381MOL0     H51368   5.272   4.260   3.324 -2.0973 -1.1381 -0.9355
  381MOL0     H51369   5.220   4.066   3.179 -2.2251 -3.8796  1.2729
  381MOL0     H51370   5.461   3.711   3.195  1.6898 -0.9195 -1.8359
  381MOL0     H51371   5.319   3.659   3.106 -1.2184  0.4398 -0.2041
  381MOL0     H51372   5.457   3.926   3.055  1.3283 -0.8183  0.2536
  381MOL0     H51373   5.500   3.766   2.983 -0.9182 -0.6822  0.6135
  381MOL0     H51374   5.289   3.762   2.876 -1.9502  0.8769  1.0944
  381MOL0     H51375   5.228   3.903   2.981 -2.2455  0.7443 -3.2504
  381MOL0     H51376   5.288   3.988   2.741  0.4725 -1.7846 -0.8890
  381MOL0     H51377   5.421   4.040   2.843  0.6305  0.2348 -0.6862
  381MOL0     H51378   5.546   3.835   2.784  1.7817  4.0428  0.9095
  381MOL0     H51379   5.412   3.785   2.690 -0.5909  1.2400  0.2950
  381MOL0     H51380   5.573   3.873   2.529  2.8946  3.1780 -2.4162
  381MOL0     H51381   5.464   3.992   2.529  0.1268  0.7067  1.6000
  381MOL0     H51382   5.590   4.144   2.685  1.2667 -0.9319  2.9764
  381MOL0     H51383   5.692   4.016   2.728 -0.3032  4.2679  3.3187
  381MOL0     H51384   5.820   4.043   2.542  0.0538 -0.9343  2.4869
  381MOL0     H51385   5.768   4.211   2.566  0.4036 -0.6017 -1.3575
  381MOL0     H51386   5.524   4.253   2.394  1.3498 -0.3268  2.5578
  381MOL0     H51387   5.375   4.244   2.207 -0.9015  1.5283 -1.7992
  381MOL0     H51388   5.496   4.262   2.086  3.4756 -2.1698 -0.1272
  381MOL0     H51389   5.439   4.018   2.015  5.3946  1.6688  4.5079
  381MOL0     H51390   5.325   4.145   1.976  0.8180  0.2177 -0.9746
  381MOL0     H51391   5.177   4.080   2.154  2.8753  5.3208  0.8641
  381MOL0     H51392   5.295   3.983   2.239  0.9926  0.6963  0.5819
  381MOL0     H51393   5.143   3.832   2.107 -0.9217 -0.1077 -1.7402
  381MOL0     H51394   5.280   3.849   1.994 -0.4276  0.0021 -0.0420
  381MOL0     H51395   5.128   3.688   1.916  1.4140  4.0643  1.5592
  381MOL0     H51396   5.159   3.503   1.799 -2.6970  1.9142  2.1426
  381MOL0     H51397   5.060   3.474   1.639  1.1239 -0.6513  0.5458
  381MOL0     H51398   5.223   3.537   1.639  0.9092 -3.9122 -0.0292
  381MOL0     H51399   4.962   3.951   1.175 -0.8418  0.4484 -0.5689
  381MOL0     H51400   4.943   3.919   0.933 -3.9879 -0.6743  0.0980
  381MOL0     H51401   4.945   3.852   0.705 -0.2317 -0.5023  1.4144
  381MOL0     H51402   5.110   3.806   0.742  0.9609 -0.6921  1.0105
  381MOL0     H51403   5.105   3.629   0.568  1.1271 -0.0165  0.8440
  381MOL0     H51404   4.929   3.631   0.561  0.2228 -1.3614 -0.1067
  381MOL0     H51405   4.966   3.890   0.477  2.5537  0.5816  0.3267
  381MOL0     H51406   4.965   3.758   0.364 -0.2534 -1.0920  0.7543
  381MOL0     H51407   5.202   3.923   0.461  2.1329 -0.1560 -2.6921
  381MOL0     H51408   5.223   3.748   0.437 -2.4959 -0.6582  3.7233
  381MOL0     H51409   5.096   3.935   0.229 -2.1358 -1.1486  1.2584
  381MOL0     H51410   5.131   3.771   0.197  1.8651 -1.9894  2.4113
  381MOL0     H51411   5.338   4.003   0.226  0.4711 -0.5363  0.1731
  381MOL0     H51412   5.379   3.830   0.220  0.4306  0.2209  0.0277
  381MOL0     H51413   5.197   3.973   0.015 -0.0004 -2.7110  2.1913
  381MOL0     H51414   5.289   3.825  -0.007 -0.0133 -0.1457 -1.7219
  381MOL0     H51415   5.411   4.102   0.037  0.4520  0.3598 -0.1196
  381MOL0     H51416   5.389   4.023  -0.127 -0.6573 -1.8333  0.2477
  381MOL0     H51417   5.033   3.498   0.992  2.1831 -1.0323  2.5591
  381MOL0     H51418   5.055   3.528   1.223  1.7110 -0.2459 -0.5515
  381MOL0     H51419   4.985   3.954   1.526  1.3096  1.8822  2.0556
  381MOL0     H51420   5.006   4.058   1.753  2.1601 -0.8407  2.4465
  381MOL0     H51421   5.486   3.817   3.416  0.3855 -0.1181  1.5472
  381MOL0     H51422   5.513   4.005   3.570 -0.9083  0.1186  1.1091
  381MOL0     H51423   5.360   4.497   3.624 -0.1966 -0.7815  0.1376
  381MOL0     H51424   5.369   4.704   3.733 -1.2029 -4.5219 -3.9486
  381MOL0     H51425   5.335   4.830   3.903  0.0508 -1.7078 -0.9116
  381MOL0     H51426   5.318   4.708   4.026  0.5560  0.0441  1.2455
  381MOL0     H51427   5.428   4.997   4.058  2.4454 -1.3677 -1.1500
  381MOL0     H51428   5.460   4.864   4.170  1.5051  0.3975 -1.6785
  381MOL0     H51429   5.228   4.837   4.226 -1.3856  1.2398  1.8733
  381MOL0     H51430   5.184   4.920   4.078  0.6676  0.2262 -0.4211
  381MOL0     H51431   5.150   5.056   4.301  1.3703 -0.5787  0.9059
  381MOL0     H51432   5.187   5.125   4.145  0.8624  2.3362  1.7588
  381MOL0     H51433   5.549   5.211   4.348 -0.5129  2.1246 -0.7260
  381MOL0     H51434   5.647   4.542   4.018  2.4468  3.0064 -1.6644
  381MOL0     H51435   5.652   4.339   3.901  0.6393  1.1042 -1.1577
  382MOL0     O51436  11.353   6.046   5.132 -0.0303  0.5683 -0.4721
  382MOL0     C51437  11.310   6.147   5.193  0.1470 -0.1966  0.0383
  382MOL0     O51438  11.187   6.192   5.186  0.1940  0.1742 -0.0949
  382MOL0     C51439  11.096   6.156   5.087 -0.0311 -0.0149  0.1942
  382MOL0     C51440  11.132   6.134   4.953 -0.2153 -0.0654 -0.0432
  382MOL0     C51441  11.046   6.116   4.841  0.0046 -0.3386 -0.5230
  382MOL0     C51442  10.913   6.108   4.864 -0.5642 -0.2143 -0.5174
  382MOL0     O51443  10.830   6.093   4.765 -0.2721  0.6105 -0.2601
  382MOL0     C51444  10.733   5.999   4.780 -0.8303  0.7434  0.2104
  382MOL0     C51445  10.582   6.053   4.762 -0.6073  0.0491 -0.2543
  382MOL0     C51446  10.564   6.149   4.642  0.7966  0.1975  0.2650
  382MOL0     C51447  10.595   6.086   4.503  0.8101 -0.0688  0.0722
  382MOL0     C51448  10.510   5.970   4.462  0.8297 -0.0690 -0.1351
  382MOL0     C51449  10.560   5.927   4.325 -0.1924  0.2486 -0.3402
  382MOL0     C51450  10.462   5.838   4.244 -0.4761  0.4001 -0.1539
  382MOL0     C51451  10.347   5.910   4.174  0.1494  0.0416 -0.0656
  382MOL0     N51452  10.235   5.826   4.138  0.5741  0.5806 -0.2618
  382MOL0     C51453  10.211   5.779   4.016 -0.2221 -0.6089  0.9010
  382MOL0     C51454  10.116   5.681   4.036 -0.0952  0.1019 -0.1848
  382MOL0     C51455  10.065   5.589   3.932 -0.6188 -0.3464  0.7422
  382MOL0     C51456   9.946   5.495   3.966  0.0404  0.1216  0.5585
  382MOL0     C51457   9.922   5.384   3.857  0.3256  0.7536  0.1705
  382MOL0     C51458   9.962   5.237   3.881 -0.5923  0.2853 -0.8787
  382MOL0     O51459   9.957   5.208   4.017 -0.7727  0.2702 -0.5872
  382MOL0     C51460   9.840   5.173   4.082  0.2980 -0.1405 -0.4750
  382MOL0     C51461   9.829   5.191   4.222 -0.1441  0.5769 -1.1370
  382MOL0     C51462   9.724   5.146   4.310 -1.0646  0.1622  1.2088
  382MOL0     C51463   9.737   5.165   4.461 -0.8268 -0.0297 -0.0007
  382MOL0     C51464   9.612   5.105   4.240 -0.1535 -0.7036 -0.0017
  382MOL0     C51465   9.490   5.071   4.309  0.4960  0.3077  0.0329
  382MOL0     O51466   9.512   4.980   4.408  0.7578  0.1521  0.4057
  382MOL0     C51467   9.402   4.919   4.466 -0.0472  0.5246  0.4712
  382MOL0     C51468   9.288   4.861   4.395  0.6955 -0.2615 -0.2540
  382MOL0     C51469   9.179   4.808   4.466  0.2122 -0.2332  0.7794
  382MOL0     C51470   9.176   4.832   4.602 -0.5876 -0.2020 -0.5054
  382MOL0     O51471   9.078   4.796   4.688  0.0423 -0.5266  0.5840
  382MOL0     C51472   9.024   4.670   4.676 -0.3163  0.1400 -0.3418
  382MOL0     C51473   8.919   4.650   4.778  0.6997 -0.3563 -0.4689
  382MOL0     C51474   8.875   4.500   4.795 -0.5055 -0.7796 -0.4998
  382MOL0     C51475   8.741   4.465   4.724  0.4355  0.3307  0.1837
  382MOL0     C51476   8.656   4.370   4.806  0.9525 -0.2206  0.3210
  382MOL0     C51477   8.522   4.337   4.740 -1.0829 -0.3691 -0.4230
  382MOL0     C51478   8.451   4.241   4.842 -0.0385 -0.5052  0.7794
  382MOL0     C51479   8.373   4.130   4.766 -0.0444  0.5739 -0.0580
  382MOL0    Cl51480   8.452   4.042   4.632 -0.1101  0.4058  0.1719
  382MOL0     C51481   9.285   4.870   4.675 -0.8991  0.9861  0.1937
  382MOL0     C51482   9.396   4.918   4.609 -0.0966 -0.4327 -0.2000
  382MOL0     O51483   9.380   5.115   4.275 -0.0198  0.2082  0.4892
  382MOL0     C51484   9.612   5.092   4.101  0.6045  0.0435 -0.2002
  382MOL0     C51485   9.725   5.114   4.022  0.8419 -0.4864 -0.4825
  382MOL0     N51486  10.088   5.675   4.177  0.5094  0.0731 -0.2956
  382MOL0     N51487  10.144   5.772   4.235 -0.9318  0.4805  0.6002
  382MOL0     C51488  10.870   6.115   5.002 -0.5333 -1.1739 -0.0678
  382MOL0     C51489  10.963   6.141   5.109 -0.2596 -0.2362  0.1180
  382MOL0     C51490  11.397   6.229   5.273 -0.3155  0.3109 -0.1457
  382MOL0     C51491  11.360   6.275   5.399  0.1152  0.0226 -0.0262
  382MOL0     C51492  11.431   6.374   5.458  0.0006  0.1478 -0.7114
  382MOL0     C51493  11.554   6.426   5.406  0.1870  0.8329 -0.4595
  382MOL0     O51494  11.608   6.533   5.476 -0.0411 -0.1379 -0.1262
  382MOL0     C51495  11.744   6.553   5.488 -0.2543  0.9613  0.1241
  382MOL0     C51496  11.796   6.631   5.370  0.6985  0.1403  0.6500
  382MOL0     C51497  11.951   6.662   5.372  0.7173  0.5663  0.3700
  382MOL0     C51498  11.994   6.709   5.504 -0.6094  0.2483 -0.3442
  382MOL0     C51499  12.134   6.757   5.487  0.2548 -0.3059 -0.5492
  382MOL0     C51500  12.248   6.791   5.478  0.1759  0.2411 -0.0846
  382MOL0     C51501  11.617   6.357   5.299  0.2537  0.2340  0.3755
  382MOL0     C51502  11.535   6.264   5.236 -0.2835  0.1237  0.4149
  382MOL0     H51503  11.234   6.147   4.919 -0.5656  2.7366 -0.2459
  382MOL0     H51504  11.084   6.093   4.742  4.1204  0.3744  0.7021
  382MOL0     H51505  10.745   5.929   4.697 -2.0763 -0.3722  0.9098
  382MOL0     H51506  10.733   5.954   4.880  0.3150  2.1244  0.8686
  382MOL0     H51507  10.506   5.974   4.757 -2.2958  1.5871 -0.3098
  382MOL0     H51508  10.569   6.115   4.852 -1.7073  0.0950 -0.4288
  382MOL0     H51509  10.457   6.175   4.644 -0.4635 -4.2637  0.1815
  382MOL0     H51510  10.626   6.239   4.643 -0.6047  1.2247 -0.4654
  382MOL0     H51511  10.562   6.165   4.435 -2.1107 -0.1975  1.2213
  382MOL0     H51512  10.704   6.075   4.491  1.1113  2.3177  0.2766
  382MOL0     H51513  10.519   5.884   4.529  0.8267  0.5906  0.7241
  382MOL0     H51514  10.405   6.002   4.468  1.0504  0.9341 -1.2101
  382MOL0     H51515  10.574   6.014   4.261 -2.4008 -0.0799 -1.3317
  382MOL0     H51516  10.659   5.880   4.334 -0.5688 -0.6505 -0.7664
  382MOL0     H51517  10.513   5.770   4.175 -2.0180 -0.4748 -0.4897
  382MOL0     H51518  10.435   5.763   4.319  3.1333  0.2224  1.1311
  382MOL0     H51519  10.377   5.957   4.080 -0.7010 -2.4598 -1.7116
  382MOL0     H51520  10.302   5.983   4.242 -5.9287 -5.1612  2.5542
  382MOL0     H51521  10.257   5.815   3.925  0.3782 -3.0849  0.1445
  382MOL0     H51522  10.008   5.652   3.863 -0.9232 -0.2981  1.0408
  382MOL0     H51523  10.145   5.540   3.876 -1.5045 -1.7914  0.6917
  382MOL0     H51524   9.859   5.562   3.970  0.1556  0.6850 -3.0031
  382MOL0     H51525   9.954   5.449   4.065 -0.9023  0.0024  0.5901
  382MOL0     H51526   9.977   5.404   3.765  0.5229  1.3082  0.4039
  382MOL0     H51527   9.817   5.395   3.827  0.5581 -0.3001 -1.1169
  382MOL0     H51528  10.069   5.239   3.859 -0.3595 -0.7917  0.1026
  382MOL0     H51529   9.904   5.176   3.811  2.8159 -0.3834 -3.3670
  382MOL0     H51530   9.922   5.233   4.259  0.5938 -0.7126 -1.4739
  382MOL0     H51531   9.804   5.246   4.489 -1.3063 -0.1214  1.4693
  382MOL0     H51532   9.638   5.178   4.504 -0.6372 -2.9484  1.5721
  382MOL0     H51533   9.780   5.075   4.506  1.5457 -0.7550 -3.3179
  382MOL0     H51534   9.305   4.854   4.288 -1.8258 -0.3122 -0.7228
  382MOL0     H51535   9.109   4.741   4.419 -3.0972  2.0559  2.0977
  382MOL0     H51536   8.968   4.668   4.583 -0.4587  0.5891 -0.2681
  382MOL0     H51537   9.105   4.597   4.675  1.0012  1.5295 -2.2189
  382MOL0     H51538   8.975   4.672   4.869  2.0041 -1.6515 -0.9199
  382MOL0     H51539   8.837   4.722   4.766 -0.2399 -1.4115 -0.5495
  382MOL0     H51540   8.866   4.485   4.903 -0.6301 -0.8850 -0.5245
  382MOL0     H51541   8.956   4.433   4.764 -0.1160  1.1194 -4.1541
  382MOL0     H51542   8.685   4.550   4.686 -0.1573  0.9130  2.2597
  382MOL0     H51543   8.776   4.409   4.636  2.7661 -0.9350  1.8027
  382MOL0     H51544   8.627   4.427   4.895  0.1773  0.9027 -0.6149
  382MOL0     H51545   8.705   4.281   4.844  1.1888 -1.3366 -2.3647
  382MOL0     H51546   8.459   4.426   4.727  2.4727  2.4348 -0.0500
  382MOL0     H51547   8.541   4.300   4.638  0.6850  1.5177 -0.8536
  382MOL0     H51548   8.384   4.298   4.907  2.2085  1.3293  1.6402
  382MOL0     H51549   8.530   4.191   4.899 -0.2245 -1.7666 -0.0304
  382MOL0     H51550   8.276   4.165   4.729  0.1253  0.7167 -0.3583
  382MOL0     H51551   8.340   4.057   4.841 -1.3509  1.7486  0.5516
  382MOL0     H51552   9.290   4.852   4.782 -0.7516 -1.9735 -0.2329
  382MOL0     H51553   9.478   4.950   4.672 -1.8971 -2.0885  3.2354
  382MOL0     H51554   9.520   5.049   4.063  0.8588 -2.9374  2.2469
  382MOL0     H51555   9.726   5.104   3.914  0.3212  1.7077 -0.7451
  382MOL0     H51556  10.765   6.095   5.024  0.1372 -3.0125  1.7271
  382MOL0     H51557  10.923   6.155   5.209 -0.2987 -3.4252  0.6461
  382MOL0     H51558  11.263   6.245   5.438 -1.4989 -0.9084 -4.1926
  382MOL0     H51559  11.403   6.414   5.555 -0.5124 -0.4147 -0.6197
  382MOL0     H51560  11.753   6.608   5.582 -2.6673 -2.8107  2.8926
  382MOL0     H51561  11.799   6.459   5.499 -0.8916  0.7391  1.7582
  382MOL0     H51562  11.732   6.720   5.367  0.2776 -0.0693  2.2216
  382MOL0     H51563  11.779   6.572   5.280 -0.9501  2.1372 -0.4276
  382MOL0     H51564  11.972   6.732   5.291 -0.4537 -2.1913 -2.5471
  382MOL0     H51565  11.995   6.565   5.348 -2.6334 -0.3922 -2.8869
  382MOL0     H51566  11.979   6.631   5.580 -1.7503 -0.8625 -1.6643
  382MOL0     H51567  11.924   6.790   5.528  1.5818  1.8715  0.9966
  382MOL0     H51568  12.353   6.807   5.476  0.1848  1.4448  3.4232
  382MOL0     H51569  11.714   6.377   5.255  0.3328  0.8901  0.8242
  382MOL0     H51570  11.587   6.219   5.152 -0.9996 -2.0281  1.0796
  383MOL0     O51571   2.750   0.847   2.297  0.2522 -0.1461 -0.1704
  383MOL0     C51572   2.729   0.797   2.179 -0.3495 -1.4442 -0.7571
  383MOL0     O51573   2.695   0.872   2.074 -0.5250 -0.5250  0.6361
  383MOL0     C51574   2.694   1.009   2.075  0.5670  0.8284 -0.0077
  383MOL0     C51575   2.627   1.076   2.175 -0.2013 -0.7009  0.3914
  383MOL0     C51576   2.637   1.218   2.177 -0.4468  0.3191 -0.1468
  383MOL0     C51577   2.727   1.284   2.090  0.1043 -0.7589 -0.6527
  383MOL0     O51578   2.738   1.417   2.091  0.5628  0.6508 -0.0925
  383MOL0     C51579   2.858   1.470   2.140 -0.4670 -0.7092 -0.3626
  383MOL0     C51580   2.856   1.505   2.291 -0.0355  0.1073 -0.8456
  383MOL0     C51581   2.791   1.406   2.386 -0.0295 -0.7523 -0.8172
  383MOL0     C51582   2.823   1.433   2.539 -0.2343  0.4121  0.7811
  383MOL0     C51583   2.756   1.324   2.636  0.5944 -0.4171  0.4442
  383MOL0     C51584   2.770   1.382   2.775  0.1056 -0.3746 -0.6183
  383MOL0     C51585   2.915   1.391   2.831 -0.4471 -0.2380  0.2139
  383MOL0     C51586   2.931   1.414   2.984 -0.1377 -0.1837  0.2618
  383MOL0     N51587   2.946   1.561   3.017 -0.4259  0.4885  0.2851
  383MOL0     C51588   3.076   1.625   2.992  0.2867 -0.0406 -0.3468
  383MOL0     C51589   3.039   1.753   2.990  0.0222 -0.5248 -0.0544
  383MOL0     C51590   3.121   1.874   2.975  0.2088  0.3568 -0.1767
  383MOL0     C51591   3.267   1.862   3.006 -0.1702  0.2508  0.4343
  383MOL0     C51592   3.336   2.001   2.974 -0.9178  0.3736 -0.4492
  383MOL0     C51593   3.488   1.993   2.940 -0.4395  0.4500 -0.2678
  383MOL0     O51594   3.568   1.965   3.058  0.2944  0.0934 -0.0704
  383MOL0     C51595   3.678   1.885   3.050  0.1450  0.3263  0.2272
  383MOL0     C51596   3.785   1.912   2.957  0.6916  0.8337  0.7449
  383MOL0     C51597   3.906   1.849   2.959  0.6790 -0.3093 -0.5779
  383MOL0     C51598   3.999   1.885   2.842  0.4088 -0.4963 -1.5884
  383MOL0     C51599   3.942   1.752   3.061  0.0507 -1.0875  1.2327
  383MOL0     C51600   4.073   1.701   3.092  0.2914  0.4000 -0.9195
  383MOL0     O51601   4.091   1.686   3.229 -0.3794 -0.3501  0.8927
  383MOL0     C51602   4.223   1.675   3.271 -0.1795 -0.5646 -0.1971
  383MOL0     C51603   4.285   1.549   3.278 -0.0915  0.3328 -0.8139
  383MOL0     C51604   4.420   1.539   3.327  0.6674  0.1820 -0.8730
  383MOL0     C51605   4.489   1.648   3.367 -0.7129 -0.5396 -0.2743
  383MOL0     O51606   4.619   1.642   3.418 -0.1940 -0.8904 -0.5338
  383MOL0     C51607   4.717   1.591   3.327 -0.6716  0.5110  0.1797
  383MOL0     C51608   4.849   1.662   3.338 -0.4096 -1.0208  0.7162
  383MOL0     C51609   4.824   1.808   3.311 -0.8168  0.0848 -0.0149
  383MOL0     C51610   4.951   1.891   3.323 -0.0240 -0.1514 -0.5525
  383MOL0     C51611   4.934   2.038   3.317 -0.4590 -0.8082 -0.1351
  383MOL0     C51612   5.066   2.093   3.374 -0.9940  0.2890 -0.7449
  383MOL0     C51613   5.049   2.245   3.387  0.0007 -0.0072 -0.0937
  383MOL0     C51614   5.185   2.322   3.423  0.3530 -0.5920 -0.3465
  383MOL0    Cl51615   5.135   2.493   3.408 -0.4769  0.1032 -0.7071
  383MOL0     C51616   4.437   1.776   3.345  0.3201 -1.1211 -0.3926
  383MOL0     C51617   4.299   1.793   3.305 -1.3397 -0.3008 -0.0532
  383MOL0     O51618   4.149   1.686   3.002 -0.8221 -0.4897 -0.1230
  383MOL0     C51619   3.836   1.717   3.145 -0.1165  0.5279  0.5814
  383MOL0     C51620   3.697   1.777   3.141 -0.1776  0.3155 -0.5112
  383MOL0     N51621   2.897   1.763   2.995  0.2539 -0.5866 -0.0657
  383MOL0     N51622   2.851   1.647   3.012  0.0746  0.5270  0.6787
  383MOL0     C51623   2.804   1.206   2.009  0.0039  0.7369 -0.1592
  383MOL0     C51624   2.780   1.071   1.997 -0.3181  0.8383 -0.6638
  383MOL0     C51625   2.736   0.655   2.152  0.0309 -0.4784 -0.2106
  383MOL0     C51626   2.678   0.609   2.032 -0.1422 -0.2962  0.2908
  383MOL0     C51627   2.676   0.478   1.993 -0.2104  1.4302 -0.4927
  383MOL0     C51628   2.689   0.380   2.095  0.0491  0.2547  1.0476
  383MOL0     O51629   2.686   0.244   2.067 -0.5527  0.2067  0.7761
  383MOL0     C51630   2.651   0.149   2.171  0.4030 -0.1016  0.0120
  383MOL0     C51631   2.523   0.065   2.145 -0.5829  0.9868  0.2643
  383MOL0     C51632   2.402   0.142   2.077 -0.2928 -0.2151 -0.6422
  383MOL0     C51633   2.404   0.114   1.923  0.4974 -0.2128 -0.2554
  383MOL0     C51634   2.286   0.181   1.867  0.6191 -0.2623 -0.1207
  383MOL0     C51635   2.195   0.237   1.817 -0.2111  0.6624  0.0646
  383MOL0     C51636   2.747   0.429   2.213  0.3573  0.3708 -0.4204
  383MOL0     C51637   2.768   0.558   2.249 -0.5442 -0.1943 -0.3234
  383MOL0     H51638   2.570   1.021   2.249 -1.1824  1.4997  1.3466
  383MOL0     H51639   2.561   1.259   2.242  0.6213  1.7079  0.2788
  383MOL0     H51640   2.948   1.415   2.108  0.0979  1.6802 -3.2882
  383MOL0     H51641   2.876   1.565   2.089 -0.6825  0.2826  1.3365
  383MOL0     H51642   2.959   1.519   2.325 -0.8415  0.4363  1.6784
  383MOL0     H51643   2.814   1.606   2.300 -2.6633 -0.6526 -3.0871
  383MOL0     H51644   2.682   1.410   2.380 -0.3868 -0.5941  3.2922
  383MOL0     H51645   2.825   1.304   2.369  0.0066 -0.7082 -1.0163
  383MOL0     H51646   2.930   1.441   2.561 -0.3874  2.8875  0.9159
  383MOL0     H51647   2.778   1.526   2.576 -3.7855 -1.3197  1.1737
  383MOL0     H51648   2.652   1.296   2.617  0.2340 -0.3656  2.1809
  383MOL0     H51649   2.814   1.231   2.645  1.8450  0.5072  3.0480
  383MOL0     H51650   2.725   1.482   2.774  1.3115  0.1980  0.0866
  383MOL0     H51651   2.713   1.309   2.833  1.4108 -1.3123 -0.4737
  383MOL0     H51652   2.965   1.297   2.805  0.9000 -0.1686  2.2740
  383MOL0     H51653   2.971   1.467   2.777  2.3917 -0.8927  2.0242
  383MOL0     H51654   3.025   1.368   3.016  0.6783  2.9327  2.9412
  383MOL0     H51655   2.844   1.367   3.031  0.2164 -2.0756 -0.8514
  383MOL0     H51656   3.177   1.586   2.993 -0.2329 -2.1464  5.3082
  383MOL0     H51657   3.089   1.911   2.877 -5.7994 -1.4400  0.6982
  383MOL0     H51658   3.082   1.952   3.041 -0.8401 -1.0131  0.8688
  383MOL0     H51659   3.306   1.788   2.936  2.2574  2.2312 -0.4540
  383MOL0     H51660   3.267   1.825   3.109 -0.1587 -2.8241 -0.5675
  383MOL0     H51661   3.321   2.060   3.064 -1.5600 -0.1353 -0.2185
  383MOL0     H51662   3.284   2.033   2.883  0.5735  0.1305 -1.4319
  383MOL0     H51663   3.522   2.089   2.901 -0.6485 -0.1709 -2.0856
  383MOL0     H51664   3.505   1.911   2.870  0.6021 -1.1832  1.7656
  383MOL0     H51665   3.760   1.983   2.879 -1.2162 -0.3859  0.1565
  383MOL0     H51666   3.926   1.897   2.761 -1.1225 -0.8197 -0.3062
  383MOL0     H51667   4.069   1.969   2.853  3.5979 -3.1291 -0.2655
  383MOL0     H51668   4.067   1.809   2.804  2.4929  1.1947 -1.4461
  383MOL0     H51669   4.222   1.468   3.242 -0.4716  1.3541 -2.5358
  383MOL0     H51670   4.464   1.441   3.340 -0.1372 -0.0682  0.1404
  383MOL0     H51671   4.734   1.487   3.358  1.1335  1.3450  2.3100
  383MOL0     H51672   4.691   1.593   3.221  1.3768  1.9688 -0.3657
  383MOL0     H51673   4.888   1.649   3.440 -2.1094 -1.9814  1.2994
  383MOL0     H51674   4.919   1.617   3.267 -0.6640  0.5168 -0.5516
  383MOL0     H51675   4.746   1.850   3.375 -4.0616 -1.3365 -2.6894
  383MOL0     H51676   4.771   1.823   3.216 -2.0305 -0.3533  0.5640
  383MOL0     H51677   5.006   1.869   3.414  0.5045  0.4187 -0.7259
  383MOL0     H51678   5.011   1.857   3.238  0.4479  2.3821 -1.3378
  383MOL0     H51679   4.873   2.073   3.401  3.5540  1.5509  2.1421
  383MOL0     H51680   4.910   2.073   3.216  2.3305 -2.4840 -1.4946
  383MOL0     H51681   5.090   2.055   3.474 -1.9095 -0.3877 -0.7745
  383MOL0     H51682   5.154   2.075   3.311  0.4430  0.9018  0.9837
  383MOL0     H51683   4.972   2.268   3.461 -0.1672 -2.1631  0.4870
  383MOL0     H51684   5.009   2.283   3.293  2.4015  1.6032 -0.5517
  383MOL0     H51685   5.268   2.295   3.358  0.6474 -0.3558 -0.0703
  383MOL0     H51686   5.224   2.292   3.521  1.2995  0.2290 -0.4576
  383MOL0     H51687   4.504   1.860   3.352  3.8273 -3.7794  0.5647
  383MOL0     H51688   4.260   1.894   3.313  1.5063  0.9916 -0.9575
  383MOL0     H51689   3.859   1.644   3.222 -1.1260 -0.1045  0.2921
  383MOL0     H51690   3.622   1.742   3.211  2.2572 -4.9273 -0.0168
  383MOL0     H51691   2.876   1.260   1.947 -2.0695  0.5242 -2.9704
  383MOL0     H51692   2.831   1.011   1.923 -0.8487 -0.6906  0.1631
  383MOL0     H51693   2.654   0.680   1.954 -0.0869 -2.2087 -1.5471
  383MOL0     H51694   2.648   0.434   1.898 -0.5071  1.0965 -0.2535
  383MOL0     H51695   2.738   0.087   2.189  1.4569 -0.0777 -4.0561
  383MOL0     H51696   2.632   0.206   2.262 -1.4790 -1.8939  0.8158
  383MOL0     H51697   2.482   0.031   2.241 -0.1424  0.9330  0.4340
  383MOL0     H51698   2.554  -0.012   2.075  0.7993  2.5094 -0.8873
  383MOL0     H51699   2.421   0.244   2.111 -0.2343  0.5409 -2.7880
  383MOL0     H51700   2.308   0.105   2.117  1.2258 -2.9562  0.6664
  383MOL0     H51701   2.375   0.010   1.908 -2.4113  0.3889  0.3792
  383MOL0     H51702   2.499   0.137   1.874  1.2386  3.4690  2.4519
  383MOL0     H51703   2.111   0.271   1.760  0.3894  4.6056  1.1915
  383MOL0     H51704   2.764   0.360   2.296 -0.4459  0.8957  0.1925
  383MOL0     H51705   2.803   0.586   2.347  1.0936  2.8481 -1.6403
  384MOL0     O51706   4.326   2.526   4.189 -0.3061  0.2388  0.8999
  384MOL0     C51707   4.335   2.506   4.308 -0.2871  0.4749  0.1662
  384MOL0     O51708   4.328   2.597   4.408  0.6929 -0.2931  0.3650
  384MOL0     C51709   4.277   2.721   4.384 -0.6077  0.2300  0.4976
  384MOL0     C51710   4.326   2.823   4.459  0.7296 -0.9284 -0.3616
  384MOL0     C51711   4.272   2.948   4.461 -0.0675  0.1295 -0.4286
  384MOL0     C51712   4.157   2.973   4.381 -0.3373  0.1181 -0.0699
  384MOL0     O51713   4.108   3.097   4.374 -0.1452  1.3690  0.0496
  384MOL0     C51714   3.980   3.110   4.434 -0.7136  0.6404 -0.9646
  384MOL0     C51715   3.935   3.256   4.448  0.9432  0.3720  0.5006
  384MOL0     C51716   4.019   3.340   4.518 -0.6946  0.6748 -0.1142
  384MOL0     C51717   3.941   3.460   4.581 -1.7818 -0.0787 -0.2877
  384MOL0     C51718   4.035   3.553   4.644 -0.1582 -0.4626 -0.5765
  384MOL0     C51719   3.982   3.697   4.655  0.7206 -0.2380 -0.2683
  384MOL0     C51720   4.085   3.779   4.731  0.2645 -0.7414 -0.9592
  384MOL0     C51721   4.033   3.914   4.781 -0.4215  0.2493 -0.7213
  384MOL0     N51722   3.912   3.962   4.714 -0.0216  0.1864 -0.8905
  384MOL0     C51723   3.905   4.033   4.598 -0.3216  0.9023 -0.5811
  384MOL0     C51724   3.770   4.052   4.580 -0.4190  0.1341  0.2465
  384MOL0     C51725   3.707   4.129   4.465  1.0105 -0.1816 -0.3906
  384MOL0     C51726   3.617   4.038   4.368  0.2936 -0.5734 -0.1072
  384MOL0     C51727   3.688   3.928   4.302  0.0224  0.2816  0.0056
  384MOL0     C51728   3.805   3.967   4.214 -1.7048 -0.0960  0.1604
  384MOL0     O51729   3.747   4.060   4.120  0.1406 -0.1641  0.1763
  384MOL0     C51730   3.824   4.159   4.064  0.1162  1.1194 -0.7358
  384MOL0     C51731   3.956   4.193   4.106  0.0184 -0.0627  1.4652
  384MOL0     C51732   4.031   4.277   4.020 -0.4652 -0.3243  0.3762
  384MOL0     C51733   4.174   4.289   4.059 -0.8727  0.3044 -0.9067
  384MOL0     C51734   3.973   4.343   3.916 -0.2039  0.1072  0.7007
  384MOL0     C51735   4.042   4.452   3.833 -0.4412  0.1180  0.3784
  384MOL0     O51736   3.956   4.500   3.739 -0.7634 -0.2965  0.8018
  384MOL0     C51737   3.999   4.587   3.644 -0.7177 -0.2817  0.0641
  384MOL0     C51738   3.959   4.581   3.504  0.3093  0.0914 -1.0720
  384MOL0     C51739   4.008   4.677   3.404  0.4456 -0.0572  0.0400
  384MOL0     C51740   4.090   4.782   3.443 -0.8146  1.1498  0.1779
  384MOL0     O51741   4.135   4.867   3.348 -0.3217  0.7126 -0.4946
  384MOL0     C51742   4.222   4.965   3.364 -0.2464 -1.1720  0.5512
  384MOL0     C51743   4.255   5.028   3.222  0.3529  0.6628  0.5679
  384MOL0     C51744   4.373   5.130   3.227 -0.6098  0.0539 -0.1012
  384MOL0     C51745   4.395   5.197   3.090  0.1340  0.1200 -0.8479
  384MOL0     C51746   4.535   5.262   3.083  0.4781  0.6424 -0.0543
  384MOL0     C51747   4.546   5.381   3.187  0.2912 -0.9695  0.8391
  384MOL0     C51748   4.661   5.475   3.144  0.3099 -0.1419  0.4841
  384MOL0     C51749   4.797   5.403   3.141  0.1126 -0.0424  0.2443
  384MOL0    Cl51750   4.933   5.529   3.114 -0.3005 -0.1207  0.3527
  384MOL0     C51751   4.147   4.779   3.569  0.5149  0.2480  0.5909
  384MOL0     C51752   4.088   4.696   3.672 -0.4783 -0.4097 -0.8402
  384MOL0     O51753   4.157   4.489   3.847 -0.5944 -0.1344 -0.1471
  384MOL0     C51754   3.837   4.321   3.893  0.6069  0.0577 -0.3372
  384MOL0     C51755   3.766   4.236   3.972 -0.6591 -0.9289  0.6993
  384MOL0     N51756   3.704   3.991   4.687  0.3820  0.0231  0.0495
  384MOL0     N51757   3.795   3.941   4.772 -0.1415 -0.3843 -0.2350
  384MOL0     C51758   4.103   2.876   4.296 -1.0739  0.0600  0.8961
  384MOL0     C51759   4.166   2.751   4.300 -0.5211  0.3737  0.0197
  384MOL0     C51760   4.356   2.361   4.337 -0.4453 -0.7652  0.7494
  384MOL0     C51761   4.352   2.259   4.237  0.4249 -1.1392 -0.5778
  384MOL0     C51762   4.360   2.119   4.263  0.2617 -0.6204 -0.5693
  384MOL0     C51763   4.407   2.085   4.387 -0.2337  0.2989 -1.1426
  384MOL0     O51764   4.431   1.956   4.433  0.0948 -0.1913 -0.3398
  384MOL0     C51765   4.411   1.858   4.330  0.1190  0.6908 -0.1429
  384MOL0     C51766   4.461   1.722   4.382 -0.7422  0.6036  0.4667
  384MOL0     C51767   4.615   1.723   4.385 -0.2082  0.3756 -0.5474
  384MOL0     C51768   4.699   1.616   4.473 -0.5860 -0.6537  0.1067
  384MOL0     C51769   4.640   1.587   4.605  0.1134 -0.3588  1.0133
  384MOL0     C51770   4.582   1.582   4.718  0.1629  0.3564  0.3221
  384MOL0     C51771   4.428   2.186   4.487  0.1901 -0.2440  0.4715
  384MOL0     C51772   4.403   2.321   4.465  0.7956 -1.1473 -0.0170
  384MOL0     H51773   4.417   2.804   4.517  0.6033  0.4504  0.3340
  384MOL0     H51774   4.305   3.029   4.525 -0.5423  1.7828 -2.1903
  384MOL0     H51775   3.912   3.043   4.380  1.9673 -3.1205 -0.0806
  384MOL0     H51776   3.985   3.061   4.532  2.1852  0.7690 -0.9711
  384MOL0     H51777   3.918   3.295   4.347 -0.5778  0.8067  0.8898
  384MOL0     H51778   3.839   3.245   4.501 -0.3646  2.8262 -1.1615
  384MOL0     H51779   4.069   3.278   4.593 -0.7226 -0.3026 -0.8783
  384MOL0     H51780   4.098   3.369   4.449 -0.9347 -0.3197 -0.8322
  384MOL0     H51781   3.892   3.511   4.498  0.3644  2.2200 -0.2389
  384MOL0     H51782   3.868   3.430   4.657 -0.0461 -1.4728  0.9216
  384MOL0     H51783   4.084   3.510   4.732  0.0676  1.3007  0.1934
  384MOL0     H51784   4.119   3.561   4.574  0.7990  1.5489  0.6972
  384MOL0     H51785   3.970   3.740   4.555 -3.7055 -1.3258 -0.3930
  384MOL0     H51786   3.886   3.695   4.707  2.3648  2.1533  3.2038
  384MOL0     H51787   4.138   3.719   4.805 -1.3470 -0.9791  0.0519
  384MOL0     H51788   4.164   3.790   4.656  2.1570 -2.0059  0.7580
  384MOL0     H51789   4.111   3.989   4.795 -2.1863  1.7173  2.1977
  384MOL0     H51790   4.002   3.899   4.884  2.6703  0.0410  0.2869
  384MOL0     H51791   3.987   4.063   4.533  1.7060  2.5020  2.5006
  384MOL0     H51792   3.643   4.209   4.503  0.2699 -1.3463  0.9176
  384MOL0     H51793   3.790   4.172   4.408  1.7965 -2.0683 -0.7526
  384MOL0     H51794   3.579   4.100   4.286  2.4188 -0.0323 -0.7402
  384MOL0     H51795   3.525   4.010   4.421 -0.2668  1.8289  0.2881
  384MOL0     H51796   3.616   3.863   4.252 -2.8597  3.1735  0.0820
  384MOL0     H51797   3.736   3.871   4.382  0.9663  1.3476  0.2231
  384MOL0     H51798   3.845   3.879   4.163 -3.7367 -0.9151 -0.1505
  384MOL0     H51799   3.882   4.009   4.278 -0.5234 -1.4297 -0.3396
  384MOL0     H51800   4.003   4.133   4.184  1.6232 -0.1926  0.4649
  384MOL0     H51801   4.190   4.351   4.147 -0.9840  3.8463 -3.1780
  384MOL0     H51802   4.212   4.191   4.088  0.1428 -0.0423 -3.1664
  384MOL0     H51803   4.232   4.331   3.976 -0.2144  0.0376 -0.5849
  384MOL0     H51804   3.888   4.501   3.489  3.2281 -2.7474 -0.6832
  384MOL0     H51805   3.954   4.677   3.310 -2.5925  0.3836  1.6464
  384MOL0     H51806   4.174   5.051   3.411  0.1926  0.6414 -2.1414
  384MOL0     H51807   4.316   4.935   3.413  0.7081  0.2440 -0.3548
  384MOL0     H51808   4.290   4.942   3.165 -1.0367 -0.5144  1.4013
  384MOL0     H51809   4.172   5.072   3.166 -1.7844 -3.1753  0.3600
  384MOL0     H51810   4.460   5.074   3.261 -0.7529  1.5165  2.9755
  384MOL0     H51811   4.361   5.208   3.302  1.3122  1.3326 -1.0358
  384MOL0     H51812   4.388   5.120   3.013  1.5689  0.8450 -1.7409
  384MOL0     H51813   4.315   5.266   3.061  1.7666  0.9563 -3.6958
  384MOL0     H51814   4.558   5.290   2.980 -0.3914 -1.1526 -0.7938
  384MOL0     H51815   4.613   5.187   3.099 -1.6761 -2.8326 -3.7882
  384MOL0     H51816   4.451   5.435   3.188  0.8604  0.4275 -3.0623
  384MOL0     H51817   4.562   5.338   3.286  1.2308 -3.2330 -0.2288
  384MOL0     H51818   4.665   5.558   3.215  2.4809  1.4813 -1.3768
  384MOL0     H51819   4.628   5.522   3.051  0.1246  1.8060  1.4621
  384MOL0     H51820   4.809   5.323   3.068 -1.0130  0.3699 -0.4150
  384MOL0     H51821   4.811   5.357   3.239 -3.9812 -1.8703  0.1492
  384MOL0     H51822   4.217   4.860   3.588  0.2682  0.2037  1.7829
  384MOL0     H51823   4.122   4.719   3.772 -4.3421 -1.2977  0.8653
  384MOL0     H51824   3.779   4.388   3.830  0.1989 -0.9862 -1.1006
  384MOL0     H51825   3.663   4.222   3.941 -0.2668  0.7368 -1.6286
  384MOL0     H51826   4.015   2.893   4.236  1.5815  1.8803 -2.9401
  384MOL0     H51827   4.119   2.671   4.243 -5.1115  3.4060 -0.9968
  384MOL0     H51828   4.330   2.283   4.134  2.2368  0.3206 -0.6822
  384MOL0     H51829   4.336   2.050   4.183 -0.1532 -2.2893  0.9206
  384MOL0     H51830   4.309   1.852   4.290  0.0703  2.2258 -0.2947
  384MOL0     H51831   4.471   1.882   4.242  1.6676  1.3311  1.0384
  384MOL0     H51832   4.424   1.646   4.313 -1.0326  1.0308  0.1450
  384MOL0     H51833   4.417   1.691   4.477 -1.3292  0.3326  0.1122
  384MOL0     H51834   4.652   1.819   4.423 -0.8015 -0.7859  3.4611
  384MOL0     H51835   4.641   1.703   4.281  2.3912 -1.9873  0.4141
  384MOL0     H51836   4.797   1.663   4.482 -1.6537  1.6142  0.5044
  384MOL0     H51837   4.729   1.519   4.432  1.7927 -1.2159  2.8000
  384MOL0     H51838   4.545   1.558   4.815 -0.4122  2.4102  0.6673
  384MOL0     H51839   4.459   2.157   4.587 -3.0723  0.1400  1.7106
  384MOL0     H51840   4.413   2.382   4.555 -3.5326  0.8803 -0.6433
  385MOL0     O51841  10.691   9.203   4.998 -0.7184  0.2772 -0.1528
  385MOL0     C51842  10.644   9.297   5.063 -0.2870 -0.1949  0.5037
  385MOL0     O51843  10.707   9.392   5.120 -0.5874 -0.2097  0.3571
  385MOL0     C51844  10.839   9.401   5.078 -0.0035 -1.7733  0.2518
  385MOL0     C51845  10.938   9.331   5.154 -0.2940 -0.5254  0.5876
  385MOL0     C51846  11.071   9.337   5.115 -0.4327 -0.8385  0.0421
  385MOL0     C51847  11.106   9.413   4.999 -0.9634  0.2998 -0.3355
  385MOL0     O51848  11.234   9.430   4.964  0.2353  0.7818 -0.2902
  385MOL0     C51849  11.348   9.388   5.045 -0.1796 -0.2294  0.0215
  385MOL0     C51850  11.477   9.461   4.999  0.9596 -1.1604 -0.4151
  385MOL0     C51851  11.593   9.372   5.008  0.6715 -0.5291  0.9248
  385MOL0     C51852  11.715   9.466   4.980 -1.0928  0.2340 -0.3950
  385MOL0     C51853  11.847   9.381   4.960 -0.2215 -0.8392 -0.7484
  385MOL0     C51854  11.970   9.472   4.940 -0.1455 -0.5370 -0.8220
  385MOL0     C51855  12.049   9.515   5.068  0.7392  0.1793  1.0943
  385MOL0     C51856  12.162   9.612   5.039 -0.0168 -0.4410  0.0057
  385MOL0     N51857  12.273   9.535   4.980 -0.6221  0.6486  0.1366
  385MOL0     C51858  12.362   9.447   5.043  0.4826 -0.3378 -0.1189
  385MOL0     C51859  12.432   9.381   4.948  0.5085 -0.1759 -0.8871
  385MOL0     C51860  12.538   9.274   4.967  0.9043 -0.5160  1.1344
  385MOL0     C51861  12.465   9.158   5.037  0.4421 -0.8670 -0.1022
  385MOL0     C51862  12.570   9.047   5.048 -0.8163 -0.3132 -0.1502
  385MOL0     C51863  12.691   9.073   5.135 -0.3137 -0.8317 -0.6434
  385MOL0     O51864  12.647   9.082   5.276 -0.0315 -0.4595  0.0785
  385MOL0     C51865  12.748   9.084   5.377  0.0867  0.3456  0.5037
  385MOL0     C51866  12.718   9.049   5.508  0.6550  0.7918 -0.0298
  385MOL0     C51867  12.824   9.057   5.603  0.5347  0.6065 -1.1009
  385MOL0     C51868  12.791   9.001   5.738  0.2807  0.0037 -0.0559
  385MOL0     C51869  12.957   9.107   5.561 -0.2010  0.2127 -1.0607
  385MOL0     C51870  13.076   9.127   5.649 -0.5528  0.1918  0.0061
  385MOL0     O51871  13.210   9.140   5.599 -0.1817 -0.0706  0.1279
  385MOL0     C51872  13.309   9.160   5.683 -0.3496  0.0901 -0.1189
  385MOL0     C51873  13.296   9.259   5.785  0.0603  0.2987  0.4027
  385MOL0     C51874  13.399   9.271   5.884  0.4744  0.7211 -0.4019
  385MOL0     C51875  13.509   9.191   5.878 -0.1048  0.1180 -0.4266
  385MOL0     O51876  13.604   9.205   5.976 -0.0039  0.3471 -0.1881
  385MOL0     C51877  13.583   9.285   6.095  1.0581  0.8995  0.9485
  385MOL0     C51878  13.692   9.265   6.196  0.1323  0.1087  0.2561
  385MOL0     C51879  13.721   9.127   6.247  0.4350 -0.4538 -0.4365
  385MOL0     C51880  13.859   9.101   6.324 -0.5334 -0.5825 -0.4958
  385MOL0     C51881  13.866   9.196   6.440 -0.7044 -0.4898  0.3504
  385MOL0     C51882  13.983   9.162   6.541 -0.8069 -0.7300 -0.2893
  385MOL0     C51883  13.990   9.035   6.617 -0.4944  0.4346 -0.2917
  385MOL0     C51884  14.009   9.045   6.760 -0.1740 -0.1581 -0.9158
  385MOL0    Cl51885  14.007   8.884   6.834  0.0884  0.0456  0.1116
  385MOL0     C51886  13.528   9.099   5.774 -0.7836 -0.0401 -0.8058
  385MOL0     C51887  13.425   9.082   5.680 -0.1560 -0.6883 -0.4424
  385MOL0     O51888  13.050   9.132   5.770  0.7069  0.0285  0.1408
  385MOL0     C51889  12.980   9.128   5.424  0.4020  0.1035 -0.1505
  385MOL0     C51890  12.872   9.118   5.337  0.1031 -0.5781 -0.4264
  385MOL0     N51891  12.395   9.443   4.828 -0.1713 -0.0014  0.3810
  385MOL0     N51892  12.305   9.534   4.852 -0.4446 -0.0548  0.4104
  385MOL0     C51893  11.021   9.476   4.929  0.6303 -0.4788 -0.4846
  385MOL0     C51894  10.883   9.472   4.970  0.0172  0.7785  0.4704
  385MOL0     C51895  10.493   9.313   5.049 -0.2629 -0.5142  0.3740
  385MOL0     C51896  10.424   9.279   4.935 -0.0107  0.3532 -0.0285
  385MOL0     C51897  10.286   9.306   4.925  0.4724 -0.1680 -0.0806
  385MOL0     C51898  10.221   9.385   5.024 -0.3374  0.0044  0.1920
  385MOL0     O51899  10.089   9.410   5.026  0.8685  0.2930  0.0822
  385MOL0     C51900  10.043   9.548   5.030 -0.1969  0.1903 -0.6756
  385MOL0     C51901   9.965   9.567   4.907  0.0583 -0.1057  0.6483
  385MOL0     C51902   9.870   9.692   4.914 -0.4371 -0.2783 -0.1023
  385MOL0     C51903   9.744   9.686   4.825 -0.3757 -0.2607 -0.7353
  385MOL0     C51904   9.657   9.578   4.859  0.6337  0.0236 -0.2329
  385MOL0     C51905   9.605   9.476   4.892  0.7282  0.0339  0.3619
  385MOL0     C51906  10.297   9.417   5.137 -0.1185  1.2015 -0.2677
  385MOL0     C51907  10.436   9.384   5.147  2.0597 -0.1850  0.0288
  385MOL0     H51908  10.911   9.277   5.244 -2.6510 -1.0467 -0.3628
  385MOL0     H51909  11.146   9.282   5.171  2.2075  2.6508  0.2770
  385MOL0     H51910  11.329   9.435   5.141 -0.0789 -0.2523  0.0532
  385MOL0     H51911  11.370   9.281   5.049 -1.5678 -0.5143  0.4351
  385MOL0     H51912  11.473   9.479   4.891 -1.4718 -0.6972 -0.3092
  385MOL0     H51913  11.488   9.552   5.059  1.9161 -1.7195  0.2788
  385MOL0     H51914  11.607   9.334   5.110  0.5215  1.9906  1.9681
  385MOL0     H51915  11.583   9.295   4.931  0.9598  0.6981 -0.3791
  385MOL0     H51916  11.687   9.540   4.904  0.8255  1.2755 -0.1352
  385MOL0     H51917  11.721   9.526   5.071 -1.2424  4.4005 -2.8782
  385MOL0     H51918  11.872   9.312   5.040  3.2173 -0.0900 -1.0335
  385MOL0     H51919  11.836   9.332   4.863  1.6805  0.1728 -1.5412
  385MOL0     H51920  12.047   9.432   4.872  0.9754 -1.8612  1.1433
  385MOL0     H51921  11.936   9.563   4.889  0.1694  1.2794  1.9967
  385MOL0     H51922  11.984   9.570   5.137 -2.1947 -2.7728  0.9719
  385MOL0     H51923  12.073   9.417   5.112  0.3553 -0.6616 -0.5111
  385MOL0     H51924  12.202   9.663   5.128 -0.2645 -0.9849  0.4333
  385MOL0     H51925  12.116   9.690   4.979 -0.4651 -0.9145 -0.2753
  385MOL0     H51926  12.368   9.423   5.149 -0.4596 -0.0479  0.0092
  385MOL0     H51927  12.568   9.250   4.865  0.1330  2.3123  0.1443
  385MOL0     H51928  12.615   9.322   5.028  1.3421  2.7400 -1.7302
  385MOL0     H51929  12.377   9.129   4.979  0.0599  0.1669 -0.0672
  385MOL0     H51930  12.423   9.182   5.135 -0.9023  3.1121 -1.4755
  385MOL0     H51931  12.613   9.024   4.951  2.9098  4.3129  0.0316
  385MOL0     H51932  12.525   8.960   5.097 -0.2764 -1.0591 -0.9584
  385MOL0     H51933  12.742   9.165   5.106 -0.5407  0.0173  1.4802
  385MOL0     H51934  12.753   8.984   5.118 -1.6339 -1.8027 -0.5778
  385MOL0     H51935  12.621   9.008   5.532  0.0259  0.1570 -3.1661
  385MOL0     H51936  12.868   8.927   5.760 -0.6570 -2.0417 -3.0264
  385MOL0     H51937  12.803   9.084   5.809  1.3925  0.0929 -0.3333
  385MOL0     H51938  12.692   8.957   5.754  1.0755 -1.9537 -0.2663
  385MOL0     H51939  13.210   9.326   5.792  0.4519  1.1613 -2.0443
  385MOL0     H51940  13.383   9.347   5.960 -4.0625  1.0949 -1.4218
  385MOL0     H51941  13.579   9.391   6.070 -0.2873  0.2912 -1.8510
  385MOL0     H51942  13.487   9.266   6.144  1.6926  2.3047  2.8298
  385MOL0     H51943  13.785   9.307   6.157  1.1826  0.4047  2.9082
  385MOL0     H51944  13.661   9.324   6.283 -2.1757  3.4564 -2.5742
  385MOL0     H51945  13.705   9.047   6.174 -0.4220  1.1168 -2.0428
  385MOL0     H51946  13.646   9.114   6.325  0.3173  0.4452 -0.3888
  385MOL0     H51947  13.876   9.006   6.376 -0.1022 -0.3905 -0.2832
  385MOL0     H51948  13.934   9.128   6.249  1.3583  1.6459  2.0044
  385MOL0     H51949  13.772   9.193   6.495 -0.9503  1.1853  0.0778
  385MOL0     H51950  13.874   9.296   6.395  0.4468 -0.1943  1.1801
  385MOL0     H51951  14.074   9.155   6.481 -0.4944 -2.4431  0.3399
  385MOL0     H51952  13.991   9.248   6.609  2.4272 -0.8507 -0.3700
  385MOL0     H51953  14.079   8.981   6.584  2.1267  3.1008  1.7978
  385MOL0     H51954  13.893   8.986   6.607 -0.4870 -0.0938  1.7569
  385MOL0     H51955  13.929   9.104   6.806  1.6430 -0.1686  2.6763
  385MOL0     H51956  14.103   9.100   6.775  1.7251 -2.1247 -4.3946
  385MOL0     H51957  13.625   9.050   5.779 -0.2041  1.1711  0.1293
  385MOL0     H51958  13.438   9.002   5.607 -1.1562 -2.7986  1.5489
  385MOL0     H51959  13.073   9.169   5.387  1.6847 -0.6985  1.9541
  385MOL0     H51960  12.895   9.133   5.232 -0.1267 -1.9445 -0.6983
  385MOL0     H51961  11.047   9.524   4.835 -1.7931 -2.8814 -2.5583
  385MOL0     H51962  10.811   9.525   4.909 -0.5455 -1.3721 -0.8243
  385MOL0     H51963  10.465   9.214   4.858  0.0896  1.4941 -0.9714
  385MOL0     H51964  10.228   9.262   4.845 -0.9913 -1.6148  1.6870
  385MOL0     H51965   9.987   9.571   5.121  3.1411  2.7633  0.9623
  385MOL0     H51966  10.126   9.619   5.023 -0.1170  0.3071  0.9926
  385MOL0     H51967   9.915   9.472   4.886 -2.4895  0.6865  2.6070
  385MOL0     H51968  10.022   9.578   4.814  1.6119 -1.6166  1.3676
  385MOL0     H51969   9.920   9.783   4.881  0.1156 -0.5624 -0.0660
  385MOL0     H51970   9.840   9.720   5.016  0.3296  0.9104 -0.1827
  385MOL0     H51971   9.782   9.671   4.723  4.0587 -0.0860  0.6834
  385MOL0     H51972   9.693   9.783   4.824 -2.1004 -1.1289 -0.4588
  385MOL0     H51973   9.557   9.382   4.913 -1.9917  1.1127 -0.4955
  385MOL0     H51974  10.262   9.483   5.216 -0.1833  1.7426 -0.7410
  385MOL0     H51975  10.490   9.419   5.234  2.0553 -0.3334  0.0905
  386MOL0     O51976  10.996   0.943   7.999  0.6943  0.5149  0.0345
  386MOL0     C51977  10.980   0.983   7.885 -0.0230  1.1651 -0.6209
  386MOL0     O51978  10.928   1.108   7.846  0.3106 -0.0745 -0.7560
  386MOL0     C51979  10.857   1.176   7.937 -0.3267 -1.3681  0.0150
  386MOL0     C51980  10.895   1.213   8.062  0.1860 -0.8002 -1.1332
  386MOL0     C51981  10.812   1.288   8.148 -0.1025  0.0351 -0.7478
  386MOL0     C51982  10.681   1.321   8.120  0.2323  0.2003 -0.7750
  386MOL0     O51983  10.586   1.400   8.189  0.8375  1.1094  0.3648
  386MOL0     C51984  10.611   1.477   8.306 -0.4830 -0.8324 -0.1290
  386MOL0     C51985  10.694   1.599   8.291  0.1470 -0.6723 -0.4419
  386MOL0     C51986  10.712   1.663   8.433 -0.2400  0.1800  0.4212
  386MOL0     C51987  10.810   1.790   8.434 -0.2761 -0.4647 -0.0336
  386MOL0     C51988  10.812   1.868   8.568 -0.6489 -0.5163 -0.8161
  386MOL0     C51989  10.908   2.001   8.584 -0.0989  0.1564  0.4368
  386MOL0     C51990  10.866   2.095   8.465  0.4496  0.0534 -0.5581
  386MOL0     C51991  10.934   2.232   8.481  0.1507  0.3166 -0.6316
  386MOL0     N51992  10.887   2.320   8.590 -0.2081 -0.5300 -0.1107
  386MOL0     C51993  10.786   2.418   8.580  0.0591 -0.2108  0.2148
  386MOL0     C51994  10.792   2.479   8.703  0.2863 -0.2111  0.7401
  386MOL0     C51995  10.713   2.596   8.739  0.2613 -0.8688 -0.2722
  386MOL0     C51996  10.563   2.610   8.701 -0.0260 -0.7131  0.4523
  386MOL0     C51997  10.548   2.663   8.555 -0.0369  0.2207 -0.5681
  386MOL0     C51998  10.400   2.666   8.518 -0.4412 -0.3275 -0.4663
  386MOL0     O51999  10.330   2.542   8.538 -0.1486 -0.3216  0.4684
  386MOL0     C52000  10.370   2.428   8.464  0.3394 -0.4584 -0.5511
  386MOL0     C52001  10.392   2.312   8.540 -0.7199 -0.1628 -0.9898
  386MOL0     C52002  10.420   2.184   8.483 -0.1407 -0.3332 -0.2121
  386MOL0     C52003  10.423   2.061   8.567 -0.4799  0.7497 -0.5531
  386MOL0     C52004  10.438   2.177   8.341  0.5825 -0.2417 -0.3398
  386MOL0     C52005  10.468   2.059   8.250  0.1934  0.8517 -0.6537
  386MOL0     O52006  10.506   2.088   8.126 -0.0223  0.2860  0.1160
  386MOL0     C52007  10.532   1.974   8.062 -0.0903 -0.4697  0.9827
  386MOL0     C52008  10.665   1.915   8.059  0.6871 -0.0205  0.5522
  386MOL0     C52009  10.679   1.805   7.977  0.3252 -0.6258  1.1280
  386MOL0     C52010  10.580   1.756   7.893 -0.2235 -1.0217 -0.6731
  386MOL0     O52011  10.593   1.665   7.791 -0.2684  0.8666 -0.4123
  386MOL0     C52012  10.721   1.613   7.755 -1.1486  0.1085  0.9464
  386MOL0     C52013  10.702   1.495   7.663  0.5245 -0.0627  0.5164
  386MOL0     C52014  10.824   1.408   7.642  0.1519  0.5237  0.4315
  386MOL0     C52015  10.794   1.308   7.533 -0.7493  0.5561 -1.5342
  386MOL0     C52016  10.918   1.255   7.454 -0.6507  0.1939 -0.7751
  386MOL0     C52017  10.891   1.145   7.357  0.0888  0.0035  0.3173
  386MOL0     C52018  11.035   1.101   7.307 -0.5096 -0.8058 -0.1121
  386MOL0     C52019  11.030   1.030   7.178  0.0221 -0.1734  0.1930
  386MOL0    Cl52020  11.119   0.874   7.176  0.2344 -0.1295 -0.6413
  386MOL0     C52021  10.457   1.818   7.907  0.0612  0.0258 -0.1000
  386MOL0     C52022  10.431   1.927   7.976  0.0500 -0.3067  0.0481
  386MOL0     O52023  10.460   1.947   8.303 -0.1041 -0.0379  0.3901
  386MOL0     C52024  10.427   2.301   8.271  0.7690  0.6698  0.1675
  386MOL0     C52025  10.391   2.417   8.339  0.1421  1.0484 -0.2798
  386MOL0     N52026  10.887   2.417   8.781  0.4146 -0.7679 -0.4959
  386MOL0     N52027  10.943   2.323   8.712  0.3406 -0.0201  0.0169
  386MOL0     C52028  10.640   1.281   7.993  0.0777  1.5055  0.1518
  386MOL0     C52029  10.729   1.216   7.905  0.5562  0.2377  0.1860
  386MOL0     C52030  11.018   0.898   7.765 -0.3717 -0.7730  0.4776
  386MOL0     C52031  11.106   0.794   7.781 -0.3207  0.3306  1.2305
  386MOL0     C52032  11.139   0.711   7.673 -0.9136  0.2032  0.5522
  386MOL0     C52033  11.085   0.726   7.545 -0.5775  0.6289 -0.8004
  386MOL0     O52034  11.105   0.640   7.442  0.2980  0.7430 -0.1822
  386MOL0     C52035  11.225   0.565   7.431 -0.0076 -0.3709 -0.4270
  386MOL0     C52036  11.300   0.575   7.300 -0.3452 -0.0654 -0.8810
  386MOL0     C52037  11.239   0.520   7.172 -0.7310 -0.2859  0.4191
  386MOL0     C52038  11.341   0.559   7.057  0.3595 -0.0843 -0.0972
  386MOL0     C52039  11.329   0.478   6.939 -0.7186  0.3688  0.2469
  386MOL0     C52040  11.310   0.442   6.828  0.2027  0.0840  0.3765
  386MOL0     C52041  11.004   0.834   7.528 -0.5364  0.8930  0.7137
  386MOL0     C52042  10.966   0.924   7.633 -0.0748  0.2586  0.8250
  386MOL0     H52043  10.991   1.180   8.100 -1.7547 -0.8920  4.7605
  386MOL0     H52044  10.854   1.309   8.246  3.2336 -0.5144 -1.9494
  386MOL0     H52045  10.524   1.504   8.366  1.2723  0.3489  2.0207
  386MOL0     H52046  10.658   1.406   8.374 -0.5828 -1.0898 -0.3268
  386MOL0     H52047  10.792   1.565   8.255  0.2938 -1.9504  1.0578
  386MOL0     H52048  10.644   1.671   8.226 -1.5590 -1.0454  0.4002
  386MOL0     H52049  10.610   1.688   8.464 -1.0101 -0.6984 -1.2938
  386MOL0     H52050  10.758   1.582   8.490  0.3543 -0.0610 -0.3806
  386MOL0     H52051  10.908   1.750   8.407 -1.9049 -4.9879 -0.0618
  386MOL0     H52052  10.771   1.856   8.356 -0.7638  1.5328  1.8010
  386MOL0     H52053  10.709   1.897   8.589 -0.0709  0.3818  0.8863
  386MOL0     H52054  10.843   1.797   8.646 -1.4957 -3.6840 -3.1351
  386MOL0     H52055  10.885   2.038   8.685  3.0505 -0.5175  1.5174
  386MOL0     H52056  11.011   1.966   8.570 -0.3350  0.2672 -1.9041
  386MOL0     H52057  10.873   2.042   8.370  0.4682  2.8924 -2.2694
  386MOL0     H52058  10.759   2.103   8.485  0.6336 -3.2771  2.8299
  386MOL0     H52059  10.911   2.293   8.393  0.1665 -0.9890 -1.5685
  386MOL0     H52060  11.043   2.220   8.490  0.1656  1.1156  0.4336
  386MOL0     H52061  10.724   2.441   8.494  1.8156 -2.3530 -1.7719
  386MOL0     H52062  10.713   2.586   8.848 -0.9337 -2.5687 -0.4004
  386MOL0     H52063  10.768   2.683   8.702 -3.9086  1.5636 -1.4313
  386MOL0     H52064  10.509   2.685   8.760  0.9158  0.0529  0.3636
  386MOL0     H52065  10.514   2.513   8.708 -1.0722 -0.4099 -1.6908
  386MOL0     H52066  10.616   2.598   8.499  1.4597  0.4698  0.8622
  386MOL0     H52067  10.591   2.763   8.548  1.9876 -0.3333  2.2902
  386MOL0     H52068  10.384   2.703   8.417 -0.6702  1.5388  0.2191
  386MOL0     H52069  10.351   2.736   8.586 -0.8277  0.1696 -1.2396
  386MOL0     H52070  10.387   2.317   8.648  3.6545  0.0662 -0.5944
  386MOL0     H52071  10.369   1.979   8.518 -2.0802  1.8374 -0.7015
  386MOL0     H52072  10.526   2.031   8.586  0.2643  2.6572 -1.3532
  386MOL0     H52073  10.379   2.081   8.666 -0.5359 -2.8259  0.3003
  386MOL0     H52074  10.749   1.942   8.123  0.1870  1.4568  0.6263
  386MOL0     H52075  10.777   1.757   7.983  1.2598  0.9473 -0.4360
  386MOL0     H52076  10.792   1.687   7.717  0.9866 -0.2202  3.8937
  386MOL0     H52077  10.775   1.575   7.842 -0.7282  1.6982  1.4081
  386MOL0     H52078  10.617   1.434   7.697  0.1597  0.6471  0.8848
  386MOL0     H52079  10.665   1.525   7.564 -2.6325  0.0202  1.6051
  386MOL0     H52080  10.853   1.357   7.734  1.0837  1.6506  0.7962
  386MOL0     H52081  10.915   1.462   7.611 -0.0702 -0.5938 -2.4754
  386MOL0     H52082  10.743   1.222   7.577  0.3660  1.2285  1.3318
  386MOL0     H52083  10.733   1.354   7.454  0.6843  0.8246 -2.5272
  386MOL0     H52084  11.005   1.230   7.517  1.4519  0.0138 -3.5696
  386MOL0     H52085  10.970   1.338   7.406  0.4732  0.7443  1.2619
  386MOL0     H52086  10.847   1.057   7.405  0.6675 -0.9421 -0.8311
  386MOL0     H52087  10.834   1.192   7.275  1.0435  1.5783  0.5260
  386MOL0     H52088  11.092   1.047   7.383 -0.8570  0.0128  0.7393
  386MOL0     H52089  11.093   1.188   7.278 -1.2767 -0.5286 -0.8784
  386MOL0     H52090  11.062   1.096   7.097 -2.7400 -2.5179 -3.0855
  386MOL0     H52091  10.922   1.012   7.169 -0.4306  0.6480  2.9818
  386MOL0     H52092  10.375   1.794   7.839  0.7934  0.7496 -1.2820
  386MOL0     H52093  10.333   1.975   7.979  0.4574  0.6619 -1.1907
  386MOL0     H52094  10.419   2.319   8.164 -2.8633  4.5743  0.8263
  386MOL0     H52095  10.352   2.496   8.276 -0.3424 -0.3424 -1.8111
  386MOL0     H52096  10.541   1.311   7.960 -0.2630 -0.2338 -0.4999
  386MOL0     H52097  10.693   1.198   7.804  0.6598 -2.0710  0.5116
  386MOL0     H52098  11.145   0.779   7.881  0.3499  2.8794  1.4049
  386MOL0     H52099  11.199   0.623   7.694 -0.9039  0.3423  1.1186
  386MOL0     H52100  11.308   0.598   7.494  2.2750 -1.9810 -2.4061
  386MOL0     H52101  11.196   0.460   7.441 -1.2258 -0.0108  0.0254
  386MOL0     H52102  11.398   0.527   7.312  0.3036  0.8302 -2.3815
  386MOL0     H52103  11.332   0.679   7.287  5.7916 -1.0821  2.2944
  386MOL0     H52104  11.146   0.570   7.146 -1.0496 -1.3853 -0.6934
  386MOL0     H52105  11.225   0.411   7.172  3.8183 -1.0758 -0.1460
  386MOL0     H52106  11.445   0.554   7.090 -0.0590 -2.5310  1.0728
  386MOL0     H52107  11.331   0.665   7.032  1.6749  0.8048  2.6809
  386MOL0     H52108  11.291   0.414   6.726 -2.2263 -0.2780  0.8849
  386MOL0     H52109  10.968   0.850   7.427 -1.3213 -0.6408  0.7178
  386MOL0     H52110  10.918   1.019   7.613 -0.6164  0.0589  1.1371
  387MOL0     O52111   6.657   6.451   2.955 -0.7798  0.3473 -0.2681
  387MOL0     C52112   6.685   6.366   3.040  0.8639  0.0536 -0.3518
  387MOL0     O52113   6.801   6.353   3.114 -0.1185 -0.6779 -0.6147
  387MOL0     C52114   6.896   6.449   3.126 -0.9484 -0.0518  0.1556
  387MOL0     C52115   6.987   6.418   3.222 -0.0070  0.2758 -0.9245
  387MOL0     C52116   7.092   6.504   3.247 -0.9768  0.1372  0.8782
  387MOL0     C52117   7.103   6.622   3.174 -0.9937 -0.4335  0.6451
  387MOL0     O52118   7.215   6.711   3.183  0.4870 -0.6244  0.6262
  387MOL0     C52119   7.345   6.649   3.200 -0.2137  0.6565  0.9341
  387MOL0     C52120   7.464   6.746   3.157  0.3951  1.2077  0.8628
  387MOL0     C52121   7.520   6.701   3.017  1.0700 -0.2370  0.1986
  387MOL0     C52122   7.428   6.767   2.906 -0.5125 -0.6935  0.0890
  387MOL0     C52123   7.464   6.709   2.770  0.9579 -0.9657 -0.7318
  387MOL0     C52124   7.379   6.766   2.642 -0.0658 -0.7774 -0.0179
  387MOL0     C52125   7.244   6.700   2.613  0.5730 -0.4727  0.8861
  387MOL0     C52126   7.222   6.715   2.468 -0.3464 -0.3491  0.8301
  387MOL0     N52127   7.080   6.719   2.428 -0.6777  0.0125  0.4092
  387MOL0     C52128   6.983   6.816   2.457 -0.6339 -0.4514  0.3699
  387MOL0     C52129   6.866   6.758   2.402 -1.7016  0.8599 -0.4985
  387MOL0     C52130   6.730   6.800   2.421 -0.1799 -0.0728 -0.4804
  387MOL0     C52131   6.647   6.752   2.541 -0.5506 -0.6936 -0.9809
  387MOL0     C52132   6.617   6.593   2.525 -0.3121  0.2678  0.2029
  387MOL0     C52133   6.555   6.532   2.651  0.7153 -0.0756 -0.1336
  387MOL0     O52134   6.430   6.602   2.685 -0.7027 -0.7484  0.0420
  387MOL0     C52135   6.311   6.580   2.622 -0.0238 -0.4678  0.1596
  387MOL0     C52136   6.295   6.515   2.499 -0.8340 -0.7253 -1.0106
  387MOL0     C52137   6.171   6.482   2.450 -0.1826  0.6511 -0.8285
  387MOL0     C52138   6.182   6.394   2.325 -0.2812 -0.3881  0.9259
  387MOL0     C52139   6.054   6.524   2.524 -0.6703  0.8783 -0.3441
  387MOL0     C52140   5.917   6.502   2.482 -0.5947  0.4010 -0.0758
  387MOL0     O52141   5.887   6.511   2.344 -0.0595 -0.2455 -0.5345
  387MOL0     C52142   5.761   6.477   2.308 -0.0451 -0.5021 -0.5387
  387MOL0     C52143   5.712   6.348   2.318  0.5694 -0.2682  1.1141
  387MOL0     C52144   5.586   6.317   2.264 -0.4123  0.4606  0.1139
  387MOL0     C52145   5.509   6.412   2.195 -0.6008 -0.5502  0.4068
  387MOL0     O52146   5.391   6.391   2.127 -0.4940  0.9471  0.2708
  387MOL0     C52147   5.288   6.320   2.202  0.4281 -0.2691  0.0520
  387MOL0     C52148   5.161   6.312   2.122 -0.0878  0.0401 -0.1763
  387MOL0     C52149   5.113   6.449   2.073 -0.8701 -0.1263 -0.1487
  387MOL0     C52150   4.966   6.460   2.030  0.2985 -0.0735 -0.2760
  387MOL0     C52151   4.893   6.592   2.071 -0.4068  0.0951  0.5718
  387MOL0     C52152   4.956   6.721   2.008  0.9644  0.4562  0.1109
  387MOL0     C52153   4.853   6.825   1.982 -0.4188  0.1226 -0.4717
  387MOL0     C52154   4.918   6.929   1.886  0.4078  0.2849  0.3739
  387MOL0    Cl52155   4.809   7.063   1.855 -0.4035  0.2532  0.2241
  387MOL0     C52156   5.574   6.537   2.168 -0.1279 -0.6325  0.5213
  387MOL0     C52157   5.696   6.572   2.233  0.7000 -0.9014 -0.0568
  387MOL0     O52158   5.844   6.453   2.562  0.2518  0.7205 -0.0722
  387MOL0     C52159   6.072   6.597   2.644  0.0476 -0.5117 -0.0142
  387MOL0     C52160   6.195   6.635   2.681 -0.5832 -0.8425  0.6661
  387MOL0     N52161   6.911   6.649   2.338  0.0983  0.3171 -0.6675
  387MOL0     N52162   7.034   6.628   2.337 -1.0712 -0.4918 -0.3776
  387MOL0     C52163   7.016   6.655   3.076 -0.6145  0.0515 -0.1709
  387MOL0     C52164   6.918   6.564   3.045 -0.4174 -0.3354 -0.7381
  387MOL0     C52165   6.584   6.248   3.048 -1.4547  0.4883 -0.1461
  387MOL0     C52166   6.466   6.243   2.973 -0.0684 -0.0908 -0.3923
  387MOL0     C52167   6.375   6.141   2.996 -0.2996  0.0542 -0.2315
  387MOL0     C52168   6.393   6.045   3.093  0.5060  1.7485  0.4466
  387MOL0     O52169   6.302   5.946   3.086 -0.3616  0.1732 -0.1886
  387MOL0     C52170   6.335   5.825   3.152 -0.2000  0.1289 -0.3073
  387MOL0     C52171   6.234   5.725   3.108  0.2406 -0.1452  0.6012
  387MOL0     C52172   6.194   5.730   2.955  0.1601 -0.0015 -0.4089
  387MOL0     C52173   6.317   5.714   2.865 -0.9691  0.4381 -0.1944
  387MOL0     C52174   6.350   5.572   2.847 -0.0104 -0.0787  0.4068
  387MOL0     C52175   6.376   5.455   2.841 -0.8049 -0.3009 -0.4849
  387MOL0     C52176   6.506   6.054   3.172 -0.4137 -0.3447  0.1310
  387MOL0     C52177   6.599   6.157   3.161 -0.2280 -0.4441 -0.1465
  387MOL0     H52178   6.981   6.320   3.268 -0.8871 -0.3537 -2.3185
  387MOL0     H52179   7.165   6.481   3.324 -0.1862  0.3188  0.2056
  387MOL0     H52180   7.366   6.611   3.300  1.8930 -1.5254 -0.2306
  387MOL0     H52181   7.343   6.560   3.136 -1.3926 -0.0479  1.9029
  387MOL0     H52182   7.428   6.849   3.149 -3.2206  0.1994  2.2702
  387MOL0     H52183   7.544   6.750   3.231 -0.5348  1.8543  1.8663
  387MOL0     H52184   7.623   6.737   3.024  0.0200  2.7557  2.7101
  387MOL0     H52185   7.515   6.593   3.006 -3.6414 -0.1168 -0.9598
  387MOL0     H52186   7.322   6.748   2.924 -0.5751 -1.0016 -0.5680
  387MOL0     H52187   7.446   6.875   2.908 -1.5814 -0.5035 -0.1410
  387MOL0     H52188   7.570   6.734   2.764  0.3962  1.9827  0.0011
  387MOL0     H52189   7.452   6.600   2.766  0.5669 -1.0380  1.2835
  387MOL0     H52190   7.365   6.873   2.659 -2.2971 -0.8934 -0.8223
  387MOL0     H52191   7.439   6.753   2.552  1.6503 -3.3184  1.3507
  387MOL0     H52192   7.235   6.595   2.642 -1.9244  0.3541  3.5582
  387MOL0     H52193   7.165   6.761   2.657  1.3796  0.5445  0.9593
  387MOL0     H52194   7.272   6.634   2.414  1.3644  0.8441  0.5444
  387MOL0     H52195   7.267   6.809   2.435 -1.4781  0.1151  0.5622
  387MOL0     H52196   6.990   6.909   2.514 -1.2614  2.5506 -3.9428
  387MOL0     H52197   6.716   6.908   2.411 -1.9523  0.0049  1.8267
  387MOL0     H52198   6.688   6.750   2.333  1.6693 -0.9657 -0.8995
  387MOL0     H52199   6.567   6.824   2.555  0.0231 -0.5055  1.9807
  387MOL0     H52200   6.707   6.774   2.630 -3.1753 -1.1138  0.9996
  387MOL0     H52201   6.705   6.529   2.513  0.4589  0.7828  2.6152
  387MOL0     H52202   6.550   6.576   2.440  3.2366  0.0898 -2.8075
  387MOL0     H52203   6.634   6.542   2.725 -0.8881 -1.5971  1.8801
  387MOL0     H52204   6.539   6.425   2.638 -1.1110  0.0132  0.9612
  387MOL0     H52205   6.382   6.475   2.447  1.7775  2.8011  0.2274
  387MOL0     H52206   6.216   6.455   2.241  1.3405 -0.9349  1.1466
  387MOL0     H52207   6.255   6.313   2.331  0.2356 -0.5615 -3.9229
  387MOL0     H52208   6.086   6.353   2.291 -0.8333  3.1179 -2.3631
  387MOL0     H52209   5.761   6.266   2.370 -2.7226 -0.0377  5.0356
  387MOL0     H52210   5.551   6.214   2.272  0.1320  0.1244 -1.3679
  387MOL0     H52211   5.331   6.221   2.219 -1.6614 -1.4461 -1.1575
  387MOL0     H52212   5.274   6.363   2.301  0.1167  1.5735 -0.7586
  387MOL0     H52213   5.174   6.252   2.031 -3.1893 -0.6948 -0.2403
  387MOL0     H52214   5.081   6.271   2.185  0.9412  0.2709  1.3276
  387MOL0     H52215   5.177   6.495   1.996 -0.3448  1.9864  1.4509
  387MOL0     H52216   5.136   6.516   2.157 -1.0573 -2.1557  1.5899
  387MOL0     H52217   4.946   6.448   1.923 -3.0033  1.9405 -0.0130
  387MOL0     H52218   4.907   6.382   2.078 -0.7639 -0.0218 -1.4594
  387MOL0     H52219   4.912   6.614   2.177  2.0623  0.1596  0.1957
  387MOL0     H52220   4.786   6.588   2.051 -0.7551 -0.4253  2.3603
  387MOL0     H52221   5.029   6.754   2.083  0.7786 -2.0770  1.5237
  387MOL0     H52222   5.017   6.704   1.919  2.5906  1.5677  0.9560
  387MOL0     H52223   4.815   6.872   2.073  0.6259  3.0330 -1.4270
  387MOL0     H52224   4.761   6.785   1.940 -2.1671  0.4371  2.7083
  387MOL0     H52225   4.945   6.877   1.793  2.3094  2.7087 -0.5468
  387MOL0     H52226   5.011   6.962   1.933  0.0149  1.2478  0.4854
  387MOL0     H52227   5.530   6.614   2.106  1.8968  0.9423  0.9461
  387MOL0     H52228   5.737   6.664   2.192  0.2908 -1.9108 -2.9599
  387MOL0     H52229   5.983   6.640   2.687  0.1396  2.5623 -2.5272
  387MOL0     H52230   6.202   6.686   2.777  1.2367 -0.3129  0.2841
  387MOL0     H52231   7.036   6.744   3.018  0.1004  1.7847  2.5319
  387MOL0     H52232   6.847   6.585   2.965 -1.6479  1.4476  0.7240
  387MOL0     H52233   6.433   6.298   2.886  0.2850 -0.0911 -0.5273
  387MOL0     H52234   6.289   6.132   2.930  1.2704  1.5108 -2.6500
  387MOL0     H52235   6.430   5.789   3.112 -0.2435  1.1350 -1.3747
  387MOL0     H52236   6.329   5.836   3.261 -3.9174 -1.1725 -0.2266
  387MOL0     H52237   6.155   5.747   3.180  1.7274  2.0276  1.6889
  387MOL0     H52238   6.279   5.628   3.131  0.7707  0.0379  0.3724
  387MOL0     H52239   6.141   5.824   2.939 -1.3779 -0.4763  1.5377
  387MOL0     H52240   6.122   5.651   2.935  1.6212 -1.9021  1.3539
  387MOL0     H52241   6.404   5.764   2.910 -1.3385  1.2959 -0.4036
  387MOL0     H52242   6.305   5.744   2.761  0.5443 -0.9337 -0.7912
  387MOL0     H52243   6.414   5.356   2.826  0.2610  0.2443 -1.5657
  387MOL0     H52244   6.514   5.978   3.250 -2.0166 -0.7552 -0.0669
  387MOL0     H52245   6.677   6.174   3.233  0.3572  0.8159 -1.0396
  388MOL0     O52246   9.269   5.585   5.552  0.0534 -0.4237  0.5280
  388MOL0     C52247   9.207   5.680   5.504 -0.1942 -0.4758 -0.2851
  388MOL0     O52248   9.197   5.709   5.362 -0.2235  0.6454 -0.2652
  388MOL0     C52249   9.284   5.640   5.282  0.4710 -0.5616  0.2600
  388MOL0     C52250   9.389   5.702   5.213  0.2109  0.0145 -0.2438
  388MOL0     C52251   9.471   5.625   5.127  0.2873 -0.0591  0.3024
  388MOL0     C52252   9.439   5.493   5.090  0.3109  0.1117 -0.5775
  388MOL0     O52253   9.540   5.439   5.011 -0.3516  0.0995  0.0901
  388MOL0     C52254   9.516   5.311   4.948  0.0443 -0.1005  0.9992
  388MOL0     C52255   9.410   5.316   4.836 -0.8448  0.3311  0.7394
  388MOL0     C52256   9.462   5.426   4.735  0.2010  0.4126  0.1044
  388MOL0     C52257   9.353   5.453   4.639 -0.3777 -0.3071  0.6500
  388MOL0     C52258   9.397   5.572   4.551 -0.8780 -0.1835 -0.0786
  388MOL0     C52259   9.359   5.708   4.608  0.0089 -0.0094  0.6039
  388MOL0     C52260   9.238   5.760   4.530 -1.0613  0.5401  0.2851
  388MOL0     C52261   9.200   5.916   4.559 -0.0424  0.3913 -0.0776
  388MOL0     N52262   9.163   5.953   4.696  0.4872  0.4667 -0.6600
  388MOL0     C52263   9.253   5.992   4.790  0.1248 -0.2281 -0.6291
  388MOL0     C52264   9.186   5.964   4.905  0.7495  1.0997  0.0507
  388MOL0     C52265   9.216   6.006   5.048 -0.1103 -0.6050  0.2845
  388MOL0     C52266   9.086   6.041   5.122 -0.2430 -0.3055  1.2233
  388MOL0     C52267   9.108   6.085   5.259 -0.2708 -0.4062 -0.4147
  388MOL0     C52268   9.183   6.215   5.284  0.2394  0.3111 -0.8117
  388MOL0     O52269   9.175   6.240   5.426 -0.1677 -0.9037  1.1290
  388MOL0     C52270   9.252   6.170   5.521 -0.7146 -1.0512 -0.4182
  388MOL0     C52271   9.348   6.067   5.498  0.3989 -0.0333  0.2676
  388MOL0     C52272   9.419   6.004   5.606 -0.5098  0.6367  0.0128
  388MOL0     C52273   9.535   5.920   5.559 -0.3736 -0.1351 -0.6517
  388MOL0     C52274   9.383   6.040   5.746  0.2919  0.2344  1.5023
  388MOL0     C52275   9.445   5.984   5.860  0.4389  0.1585 -0.3539
  388MOL0     O52276   9.424   6.061   5.979 -0.4005  1.2135 -0.2157
  388MOL0     C52277   9.455   5.998   6.102 -0.6012  0.3438  0.8545
  388MOL0     C52278   9.350   5.988   6.186  0.3202  0.6382 -0.6008
  388MOL0     C52279   9.366   5.944   6.314  0.2948 -0.2769 -0.2825
  388MOL0     C52280   9.494   5.901   6.351 -0.0171 -0.3912 -0.3660
  388MOL0     O52281   9.511   5.875   6.480 -0.1059  0.1149  0.4915
  388MOL0     C52282   9.510   5.980   6.570 -0.1293 -0.0115  0.0046
  388MOL0     C52283   9.650   6.040   6.603 -0.3716 -1.2397 -0.5372
  388MOL0     C52284   9.705   6.013   6.744  0.2552 -0.2973  0.4697
  388MOL0     C52285   9.716   5.868   6.790  0.2756  0.2026  0.8966
  388MOL0     C52286   9.615   5.832   6.911  0.0241  0.2065  0.2481
  388MOL0     C52287   9.503   5.739   6.869 -0.4517  0.5477  0.3698
  388MOL0     C52288   9.402   5.737   6.989  1.0030 -0.0553 -0.3442
  388MOL0     C52289   9.282   5.647   6.973  0.6305  0.5249  0.3707
  388MOL0    Cl52290   9.147   5.731   7.053  0.3814 -0.5045  0.1933
  388MOL0     C52291   9.598   5.899   6.261  0.3340 -0.4162  0.2147
  388MOL0     C52292   9.581   5.951   6.136 -1.0543  0.7803  0.4470
  388MOL0     O52293   9.508   5.876   5.855  0.6522 -0.0944  0.5061
  388MOL0     C52294   9.270   6.125   5.769 -0.3006 -0.4796  0.5516
  388MOL0     C52295   9.220   6.194   5.659  0.0309 -0.7744  0.0664
  388MOL0     N52296   9.067   5.889   4.879 -0.0424  0.3725  0.1762
  388MOL0     N52297   9.050   5.889   4.759 -0.3442 -0.0754  0.8960
  388MOL0     C52298   9.315   5.439   5.145  0.1480  0.2606 -0.0315
  388MOL0     C52299   9.245   5.513   5.242 -0.5561 -0.1619 -0.9685
  388MOL0     C52300   9.121   5.769   5.596 -0.6871 -0.1291  0.4931
  388MOL0     C52301   9.138   5.743   5.739  0.0153  0.0587  0.2621
  388MOL0     C52302   9.058   5.814   5.825  0.5081 -0.1299 -0.1847
  388MOL0     C52303   8.964   5.904   5.773 -0.7999 -0.3166 -0.5353
  388MOL0     O52304   8.869   5.978   5.849 -0.1926  1.0757  0.2692
  388MOL0     C52305   8.861   5.966   5.991 -0.5188  0.7092 -0.8863
  388MOL0     C52306   8.760   6.072   6.047 -1.1838  0.0901  0.0613
  388MOL0     C52307   8.777   6.207   5.973 -0.3211 -0.1874 -0.8408
  388MOL0     C52308   8.918   6.270   5.972 -0.2626  0.8499 -0.1611
  388MOL0     C52309   8.973   6.273   6.111 -0.3115 -0.6249  0.1409
  388MOL0     C52310   9.007   6.284   6.224  0.3767 -0.3494  0.1005
  388MOL0     C52311   8.951   5.931   5.637  0.6860 -0.6282  0.7962
  388MOL0     C52312   9.033   5.859   5.544  1.4082 -0.1828  0.1838
  388MOL0     H52313   9.411   5.802   5.249 -0.0731  0.0248 -0.1001
  388MOL0     H52314   9.554   5.665   5.070 -1.3249  3.3918  0.1402
  388MOL0     H52315   9.609   5.269   4.908  0.9752 -0.0227  2.9493
  388MOL0     H52316   9.474   5.253   5.030  0.2899  0.8510  1.8200
  388MOL0     H52317   9.407   5.215   4.796  1.9835  0.4259  0.0841
  388MOL0     H52318   9.317   5.350   4.881  0.6153  2.6258  2.2808
  388MOL0     H52319   9.473   5.521   4.788 -1.4220  1.2504 -0.9522
  388MOL0     H52320   9.553   5.403   4.679 -2.5300 -1.1260 -4.2628
  388MOL0     H52321   9.335   5.363   4.579  1.8018  0.0436 -0.6796
  388MOL0     H52322   9.256   5.474   4.685 -1.4047  3.2203 -2.6060
  388MOL0     H52323   9.507   5.569   4.548 -0.8889  0.3571 -1.2247
  388MOL0     H52324   9.369   5.553   4.447 -0.0806  1.0602 -0.5405
  388MOL0     H52325   9.329   5.694   4.712 -2.3003  0.0783 -0.0176
  388MOL0     H52326   9.439   5.784   4.612 -0.0024 -0.0390  1.5955
  388MOL0     H52327   9.261   5.754   4.423  0.5230 -1.1062  0.6700
  388MOL0     H52328   9.151   5.699   4.558 -0.5627 -1.0900 -1.5041
  388MOL0     H52329   9.109   5.926   4.499 -0.2856  1.1986  0.4061
  388MOL0     H52330   9.275   5.981   4.512 -0.0670 -1.5386 -3.0517
  388MOL0     H52331   9.350   6.041   4.777  0.7497 -1.1747  0.3318
  388MOL0     H52332   9.265   5.926   5.104 -1.0777  0.2247  2.4455
  388MOL0     H52333   9.280   6.094   5.060 -2.9847  1.3710  2.6462
  388MOL0     H52334   9.014   5.959   5.126  1.3985 -1.8504  0.4888
  388MOL0     H52335   9.035   6.126   5.074 -1.6592 -0.4525  2.4061
  388MOL0     H52336   9.167   6.005   5.304 -3.2812 -0.4463  4.0779
  388MOL0     H52337   9.012   6.093   5.310  0.6315  0.6578  1.2438
  388MOL0     H52338   9.137   6.297   5.228 -0.8316  0.3825  0.1147
  388MOL0     H52339   9.284   6.195   5.247  0.9522 -1.3072  1.7740
  388MOL0     H52340   9.383   6.067   5.395 -0.4133 -2.4299 -0.0784
  388MOL0     H52341   9.555   5.836   5.626 -1.1745  0.7247  0.7043
  388MOL0     H52342   9.524   5.881   5.457 -1.9584  1.6005 -1.2113
  388MOL0     H52343   9.618   5.990   5.544  1.6427 -2.4212 -0.9072
  388MOL0     H52344   9.254   6.029   6.156 -1.7402 -1.4221  2.5881
  388MOL0     H52345   9.280   5.922   6.377  0.4565 -1.9564 -0.5971
  388MOL0     H52346   9.456   6.064   6.524 -1.5314 -0.7371  0.2871
  388MOL0     H52347   9.465   5.939   6.661  2.6929 -2.6549  0.3750
  388MOL0     H52348   9.727   5.996   6.539  0.6993 -0.6300  0.2934
  388MOL0     H52349   9.642   6.148   6.586  0.8600 -0.8933  0.8096
  388MOL0     H52350   9.651   6.074   6.816 -1.8679 -2.6650  0.9985
  388MOL0     H52351   9.809   6.048   6.752 -0.6435  2.2391  2.2543
  388MOL0     H52352   9.706   5.801   6.704 -0.8528  3.6956 -1.9605
  388MOL0     H52353   9.819   5.856   6.823 -0.2157 -3.2806  1.6097
  388MOL0     H52354   9.579   5.926   6.952  2.4199  1.9234 -1.3147
  388MOL0     H52355   9.675   5.776   6.983  2.4789  0.6164 -1.3755
  388MOL0     H52356   9.461   5.779   6.777 -0.0283  0.7126  0.2474
  388MOL0     H52357   9.539   5.637   6.850 -0.6909  0.3434  0.9829
  388MOL0     H52358   9.371   5.841   7.005 -2.5064 -1.1666  1.2671
  388MOL0     H52359   9.441   5.695   7.082 -1.8677  0.0795  1.0505
  388MOL0     H52360   9.296   5.551   7.024 -0.1937 -0.6937 -1.5801
  388MOL0     H52361   9.257   5.626   6.868  0.6137 -0.0364  0.4842
  388MOL0     H52362   9.696   5.864   6.293  0.3357 -0.1973  0.4516
  388MOL0     H52363   9.663   5.953   6.065  0.0017 -1.1774  1.5287
  388MOL0     H52364   9.224   6.146   5.865 -0.2502 -0.4904  0.5780
  388MOL0     H52365   9.137   6.263   5.671  0.9485  0.6598 -1.4039
  388MOL0     H52366   9.276   5.339   5.136  0.2135  0.2454 -0.1511
  388MOL0     H52367   9.152   5.483   5.291  0.4361 -0.4171  0.8549
  388MOL0     H52368   9.213   5.674   5.777  2.6104  0.0692 -4.1409
  388MOL0     H52369   9.083   5.811   5.930  3.3773 -1.8992 -0.8190
  388MOL0     H52370   8.824   5.869   6.025  0.4203  1.0472  1.2854
  388MOL0     H52371   8.960   5.968   6.037  0.4151  1.6000 -2.8118
  388MOL0     H52372   8.766   6.082   6.155 -2.2337  0.6982  0.0748
  388MOL0     H52373   8.659   6.035   6.023 -1.6694 -0.5155  2.7058
  388MOL0     H52374   8.713   6.281   6.022  1.7068  1.1622 -0.0988
  388MOL0     H52375   8.734   6.199   5.873 -2.9482  3.5826 -0.2247
  388MOL0     H52376   8.900   6.369   5.930  1.5748  0.4351 -2.1089
  388MOL0     H52377   8.984   6.210   5.908 -0.2657 -0.4397  1.0031
  388MOL0     H52378   9.031   6.292   6.328  2.3040  1.5554 -0.4333
  388MOL0     H52379   8.875   5.999   5.599 -0.1051 -2.7937 -1.8319
  388MOL0     H52380   9.012   5.876   5.439 -2.7230 -1.1111  0.6820
  389MOL0     O52381   2.153   1.757   4.088  0.8371 -0.8719  0.3375
  389MOL0     C52382   2.235   1.678   4.138  0.2213 -0.8902  0.0425
  389MOL0     O52383   2.300   1.584   4.071  0.2708  0.6244 -0.0254
  389MOL0     C52384   2.278   1.561   3.934 -0.1419  0.6205 -0.0353
  389MOL0     C52385   2.179   1.610   3.850  0.4034  0.8616  0.0682
  389MOL0     C52386   2.179   1.578   3.717 -0.2000 -0.2443 -0.3544
  389MOL0     C52387   2.276   1.493   3.656 -0.7169 -0.4378 -0.6146
  389MOL0     O52388   2.282   1.456   3.522 -0.2003 -0.1227  0.7440
  389MOL0     C52389   2.187   1.498   3.425 -0.3292  0.4554  0.0810
  389MOL0     C52390   2.140   1.380   3.342 -1.6420  0.0293  0.6148
  389MOL0     C52391   2.130   1.440   3.194 -0.3722 -0.5063  0.5707
  389MOL0     C52392   2.057   1.339   3.095 -0.5069  1.0333  0.1705
  389MOL0     C52393   2.082   1.361   2.941 -0.3951  0.1062  0.0768
  389MOL0     C52394   2.065   1.501   2.903 -1.2811  0.7924  0.9807
  389MOL0     C52395   2.091   1.529   2.758 -0.2059  1.0005 -0.2098
  389MOL0     C52396   2.061   1.672   2.725  0.3736 -0.9069  0.0719
  389MOL0     N52397   2.158   1.741   2.640 -0.9672 -0.2677  0.8343
  389MOL0     C52398   2.193   1.730   2.505  0.4092  0.3884  0.6688
  389MOL0     C52399   2.302   1.805   2.489 -0.3605 -0.0535 -0.4239
  389MOL0     C52400   2.374   1.806   2.355  1.6087 -0.4238 -0.8399
  389MOL0     C52401   2.526   1.836   2.367  0.1276 -0.0404 -0.5802
  389MOL0     C52402   2.605   1.851   2.230 -0.4649  0.4670 -0.2031
  389MOL0     C52403   2.595   1.739   2.137 -0.2621  0.0672  0.1032
  389MOL0     O52404   2.710   1.745   2.056 -0.2142 -0.0183 -0.8805
  389MOL0     C52405   2.727   1.827   1.951  0.3379 -0.4605 -0.7825
  389MOL0     C52406   2.858   1.822   1.892  0.9167 -0.4083 -0.3725
  389MOL0     C52407   2.889   1.881   1.766  0.0910  0.1412 -0.6236
  389MOL0     C52408   3.029   1.859   1.715  0.7997  0.1524 -0.6111
  389MOL0     C52409   2.781   1.959   1.711 -0.9454 -0.1772  0.2884
  389MOL0     C52410   2.796   2.018   1.571  0.8320 -0.2748  0.2750
  389MOL0     O52411   2.912   2.085   1.546 -0.5221 -1.0760 -0.5299
  389MOL0     C52412   2.937   2.151   1.428 -0.6563  1.2290  0.1860
  389MOL0     C52413   3.074   2.175   1.423 -0.0679 -0.5646 -0.1742
  389MOL0     C52414   3.130   2.243   1.311  0.2963 -0.6319  0.1101
  389MOL0     C52415   3.050   2.283   1.202  0.2021 -0.1879 -0.9241
  389MOL0     O52416   3.096   2.344   1.093  0.3421  0.2550  0.2583
  389MOL0     C52417   3.219   2.423   1.097 -0.1276  0.1311  1.2331
  389MOL0     C52418   3.238   2.492   0.961  1.1725 -1.1131  0.6129
  389MOL0     C52419   3.375   2.553   0.966  0.4761 -0.4118 -0.0787
  389MOL0     C52420   3.419   2.591   0.821 -0.1589  0.4276  0.0006
  389MOL0     C52421   3.430   2.483   0.718 -0.8646 -0.0840  0.6454
  389MOL0     C52422   3.534   2.517   0.621 -1.4719 -0.1152  0.3100
  389MOL0     C52423   3.528   2.446   0.478 -0.6142  0.3631 -0.7344
  389MOL0     C52424   3.661   2.427   0.399  0.2833  0.4478  0.7292
  389MOL0    Cl52425   3.781   2.356   0.517  0.3018  0.0780 -0.0391
  389MOL0     C52426   2.913   2.264   1.219  0.1249  0.4793  0.1869
  389MOL0     C52427   2.853   2.205   1.331  0.0557 -0.5364 -0.4174
  389MOL0     O52428   2.706   2.010   1.486 -0.3740  1.2375  0.2535
  389MOL0     C52429   2.662   1.973   1.769  0.6531  0.4272 -0.0882
  389MOL0     C52430   2.632   1.906   1.891 -0.6221 -0.0857  0.4666
  389MOL0     N52431   2.330   1.861   2.612 -0.3141 -0.6165 -0.1980
  389MOL0     N52432   2.246   1.825   2.705  0.6138 -0.2435 -0.5018
  389MOL0     C52433   2.368   1.434   3.738  0.1013 -0.1050 -0.6732
  389MOL0     C52434   2.372   1.467   3.876  0.8018  0.0862 -0.8830
  389MOL0     C52435   2.284   1.710   4.276 -0.4275  0.2720  0.3639
  389MOL0     C52436   2.361   1.617   4.345 -0.5473  0.5591 -0.7148
  389MOL0     C52437   2.410   1.640   4.464  0.0587  1.1481  0.1197
  389MOL0     C52438   2.378   1.751   4.534  0.0595 -0.0506  0.5143
  389MOL0     O52439   2.442   1.773   4.651 -0.6821  0.5178  0.8878
  389MOL0     C52440   2.376   1.875   4.734 -1.5281  0.6328 -0.7642
  389MOL0     C52441   2.416   1.867   4.877  0.8244 -0.3736 -0.3286
  389MOL0     C52442   2.565   1.860   4.914 -0.7901 -0.8256 -0.3529
  389MOL0     C52443   2.626   1.999   4.940 -0.1235 -0.0831  0.5612
  389MOL0     C52444   2.593   2.092   4.832  0.8345 -0.2671 -0.9062
  389MOL0     C52445   2.557   2.187   4.766 -0.0713 -0.5368  0.1894
  389MOL0     C52446   2.301   1.850   4.474  0.4995  0.0360 -0.0870
  389MOL0     C52447   2.248   1.832   4.344  0.0597  1.3980  0.2175
  389MOL0     H52448   2.101   1.679   3.882  0.1474  0.2673  0.7612
  389MOL0     H52449   2.099   1.613   3.652 -1.1012  1.7832  1.6885
  389MOL0     H52450   2.096   1.543   3.464 -0.1611  0.5318  0.3902
  389MOL0     H52451   2.242   1.568   3.361  1.2005  1.3926  2.2876
  389MOL0     H52452   2.211   1.298   3.337 -0.4422  1.1009 -1.6077
  389MOL0     H52453   2.035   1.355   3.364 -1.5557 -1.2895 -0.3853
  389MOL0     H52454   2.077   1.536   3.187 -2.7658 -1.8759 -1.4654
  389MOL0     H52455   2.236   1.457   3.171 -0.5313  0.4658  0.5334
  389MOL0     H52456   2.108   1.244   3.114 -1.1295  1.0497  2.2621
  389MOL0     H52457   1.952   1.323   3.120 -0.3362 -3.9409 -1.3042
  389MOL0     H52458   2.186   1.332   2.920 -0.4999 -0.6667  0.5714
  389MOL0     H52459   2.007   1.299   2.892  2.0925 -3.5857  0.5096
  389MOL0     H52460   1.965   1.538   2.929 -0.4231  2.4248  2.1528
  389MOL0     H52461   2.138   1.563   2.957  2.4417 -4.0197  2.2390
  389MOL0     H52462   2.194   1.503   2.734 -0.3884  2.0822 -2.3890
  389MOL0     H52463   2.028   1.466   2.694  1.6085  2.0444 -3.2281
  389MOL0     H52464   2.066   1.730   2.817  2.0955 -1.7646  0.5653
  389MOL0     H52465   1.965   1.696   2.679  0.2480 -2.0110 -0.2708
  389MOL0     H52466   2.129   1.669   2.441 -4.7764  1.4723  4.1467
  389MOL0     H52467   2.375   1.705   2.313  1.2884 -1.3668  1.2543
  389MOL0     H52468   2.320   1.879   2.294 -0.4026 -0.5992  0.6066
  389MOL0     H52469   2.572   1.763   2.435 -2.4126 -0.0168  1.3453
  389MOL0     H52470   2.522   1.928   2.426 -8.0566 -0.1950  0.3495
  389MOL0     H52471   2.708   1.853   2.265  0.0474  1.0128 -1.6696
  389MOL0     H52472   2.587   1.951   2.190  0.3228  0.9487  0.6121
  389MOL0     H52473   2.498   1.754   2.088 -0.6716  0.4100  0.9981
  389MOL0     H52474   2.596   1.647   2.196 -0.9599  0.3175  0.5244
  389MOL0     H52475   2.941   1.774   1.943 -0.4021 -0.7202  1.6341
  389MOL0     H52476   3.100   1.809   1.782  0.6719 -0.7051 -1.0960
  389MOL0     H52477   3.003   1.819   1.616  1.2195  1.2664 -1.1834
  389MOL0     H52478   3.088   1.949   1.694 -0.2882  0.5456 -2.1385
  389MOL0     H52479   3.136   2.132   1.501 -0.4762 -0.2839  0.3034
  389MOL0     H52480   3.236   2.262   1.309 -0.0564  1.6174 -0.6745
  389MOL0     H52481   3.221   2.507   1.168  1.9887  1.3408 -0.1359
  389MOL0     H52482   3.303   2.355   1.114 -0.8043 -1.7104 -1.9405
  389MOL0     H52483   3.242   2.415   0.884 -1.8258 -0.6788 -0.1072
  389MOL0     H52484   3.166   2.568   0.928  2.9298 -0.5889 -2.3374
  389MOL0     H52485   3.447   2.478   1.001  0.5775  0.6617  2.2119
  389MOL0     H52486   3.384   2.634   1.039  0.5815 -1.0118  0.5933
  389MOL0     H52487   3.346   2.666   0.791 -0.2840  1.0162  1.6652
  389MOL0     H52488   3.515   2.638   0.846  2.7172 -4.3482 -0.7859
  389MOL0     H52489   3.336   2.490   0.663  0.1291 -0.1141 -1.0996
  389MOL0     H52490   3.446   2.388   0.770 -2.4483 -2.7545 -3.2826
  389MOL0     H52491   3.531   2.625   0.606 -3.7608 -0.2701 -0.7088
  389MOL0     H52492   3.631   2.511   0.671 -1.6997 -3.7150  0.5598
  389MOL0     H52493   3.452   2.495   0.417 -1.9779  0.6312  1.0893
  389MOL0     H52494   3.500   2.342   0.497  1.4120 -0.4878 -2.0465
  389MOL0     H52495   3.696   2.517   0.347 -0.9030  0.9203  0.7103
  389MOL0     H52496   3.644   2.355   0.318  0.9052 -1.1957  1.9999
  389MOL0     H52497   2.846   2.296   1.139 -0.2441 -0.0030  0.2975
  389MOL0     H52498   2.746   2.208   1.348  0.2073 -0.4960  0.6185
  389MOL0     H52499   2.589   2.035   1.720 -1.8720 -2.9732 -0.9671
  389MOL0     H52500   2.528   1.917   1.923 -1.9947 -2.3577 -2.6885
  389MOL0     H52501   2.452   1.384   3.691  1.3400  0.5684  0.7212
  389MOL0     H52502   2.460   1.431   3.928  0.4120  3.1228  2.2823
  389MOL0     H52503   2.389   1.524   4.295 -3.5652 -1.2751  0.7072
  389MOL0     H52504   2.476   1.577   4.524 -2.1738 -1.6217 -0.1145
  389MOL0     H52505   2.399   1.972   4.688 -1.0678  0.1464 -1.5872
  389MOL0     H52506   2.271   1.847   4.729 -0.5527 -3.4717 -4.3848
  389MOL0     H52507   2.364   1.783   4.923 -3.2531  2.5613  1.0467
  389MOL0     H52508   2.369   1.948   4.935 -0.8525 -1.0102 -0.7407
  389MOL0     H52509   2.619   1.801   4.840  0.0095  0.8620 -1.1777
  389MOL0     H52510   2.565   1.804   5.008  1.4442  1.7523  1.3143
  389MOL0     H52511   2.732   1.999   4.968  0.1526  1.8506 -0.2682
  389MOL0     H52512   2.590   2.045   5.032 -2.1307  0.0051 -0.2214
  389MOL0     H52513   2.524   2.274   4.713  1.0998  0.7857  1.5421
  389MOL0     H52514   2.291   1.951   4.514  0.4499  0.4700 -1.1692
  389MOL0     H52515   2.181   1.900   4.292  1.2453  2.1114 -0.3930
  390MOL0     O52516   7.402   8.315   2.867 -0.9795 -0.4678  0.0135
  390MOL0     C52517   7.417   8.197   2.870 -0.1754 -0.0371 -0.0485
  390MOL0     O52518   7.337   8.104   2.814 -0.0483 -0.2368  0.3864
  390MOL0     C52519   7.234   8.142   2.730  0.1141 -0.8436 -0.7921
  390MOL0     C52520   7.199   8.062   2.618 -0.4788 -0.4914  0.1576
  390MOL0     C52521   7.083   8.102   2.540 -0.3283  0.4227  0.1012
  390MOL0     C52522   7.002   8.194   2.577 -0.2285 -0.1782  0.0360
  390MOL0     O52523   6.889   8.232   2.504 -0.9453  0.1637  0.8254
  390MOL0     C52524   6.841   8.137   2.398 -0.2064  0.1829  0.0784
  390MOL0     C52525   6.709   8.196   2.342 -1.2291  0.0497 -0.5317
  390MOL0     C52526   6.740   8.322   2.257  0.8712  0.2527 -0.1546
  390MOL0     C52527   6.607   8.393   2.200  1.1197 -0.9320  0.6938
  390MOL0     C52528   6.517   8.466   2.309  0.7067  0.0791 -0.8138
  390MOL0     C52529   6.411   8.553   2.239  0.5816  0.0119 -0.0398
  390MOL0     C52530   6.356   8.679   2.305  0.5798  0.0943  0.3724
  390MOL0     C52531   6.295   8.787   2.213 -0.2545  0.9775  0.1106
  390MOL0     N52532   6.188   8.725   2.131 -0.0907  0.7208  0.6177
  390MOL0     C52533   6.078   8.652   2.177  0.5221  0.2173 -0.0865
  390MOL0     C52534   6.040   8.571   2.076 -0.4436  0.5558  0.5394
  390MOL0     C52535   5.927   8.476   2.065 -0.1363  1.1554  0.2350
  390MOL0     C52536   5.795   8.552   2.036 -0.1996 -0.0198  0.5813
  390MOL0     C52537   5.779   8.608   1.888 -0.7818 -0.6387 -0.4546
  390MOL0     C52538   5.752   8.490   1.792  0.0875 -1.4830  0.6062
  390MOL0     O52539   5.627   8.433   1.818  0.6276 -0.3335 -0.6743
  390MOL0     C52540   5.511   8.457   1.748  0.1282  0.3351  0.7498
  390MOL0     C52541   5.395   8.412   1.804 -0.4817  0.2084 -0.3131
  390MOL0     C52542   5.277   8.420   1.734  0.4502  0.7012 -0.1309
  390MOL0     C52543   5.162   8.354   1.818 -0.0097 -0.5280  0.1003
  390MOL0     C52544   5.265   8.484   1.610  0.2060 -0.4962  0.9600
  390MOL0     C52545   5.132   8.523   1.560 -0.4930 -0.0699 -0.5204
  390MOL0     O52546   5.139   8.590   1.444 -1.0365  1.5757  0.1355
  390MOL0     C52547   5.022   8.583   1.379  0.6800  1.2381  0.0053
  390MOL0     C52548   4.988   8.466   1.318 -0.2204 -0.3935  0.1340
  390MOL0     C52549   4.863   8.457   1.253  0.8156  0.2931 -0.4757
  390MOL0     C52550   4.765   8.557   1.263 -0.1914 -0.9565 -0.3834
  390MOL0     O52551   4.639   8.546   1.209 -0.6098  0.9467 -0.2325
  390MOL0     C52552   4.551   8.430   1.225 -0.5504  0.1764  0.0277
  390MOL0     C52553   4.417   8.495   1.178 -0.9068  0.9226 -0.4222
  390MOL0     C52554   4.396   8.502   1.026  0.2166 -0.7937  0.5313
  390MOL0     C52555   4.327   8.379   0.967 -0.3567 -0.3622 -0.6609
  390MOL0     C52556   4.345   8.361   0.815  0.7721 -0.0520 -0.3110
  390MOL0     C52557   4.337   8.489   0.739 -0.1086  0.3977  0.0898
  390MOL0     C52558   4.185   8.535   0.723 -0.4931  0.0963  0.3667
  390MOL0     C52559   4.171   8.654   0.646  0.3002  0.7992  0.0199
  390MOL0    Cl52560   4.226   8.813   0.711  0.0587  0.1815  0.3217
  390MOL0     C52561   4.821   8.680   1.303  0.4514  0.0958 -1.0707
  390MOL0     C52562   4.941   8.694   1.371 -0.1438  0.6493  0.9057
  390MOL0     O52563   5.032   8.514   1.633 -1.1301 -0.9313  0.0848
  390MOL0     C52564   5.383   8.541   1.563 -0.6780  0.4373  1.0317
  390MOL0     C52565   5.505   8.526   1.628 -0.6145  0.4689 -0.4051
  390MOL0     N52566   6.132   8.590   1.975  0.9954 -0.3221  1.1647
  390MOL0     N52567   6.218   8.676   2.008 -0.9828 -0.5991  0.1204
  390MOL0     C52568   7.026   8.269   2.693  0.2130  0.1093  0.7597
  390MOL0     C52569   7.141   8.237   2.771 -0.5974  0.2018 -0.7289
  390MOL0     C52570   7.532   8.151   2.943 -0.1012 -0.1444  0.0204
  390MOL0     C52571   7.565   8.012   2.956 -0.3958  0.1229  0.6074
  390MOL0     C52572   7.676   7.976   3.023 -0.1193  0.3203  0.2270
  390MOL0     C52573   7.774   8.071   3.070 -0.8467  0.1482 -0.7861
  390MOL0     O52574   7.884   8.026   3.145  0.2671 -0.6324  0.7549
  390MOL0     C52575   7.990   7.997   3.064 -1.0414  0.6687  0.5400
  390MOL0     C52576   8.110   7.929   3.137  0.8360 -0.4410  0.7153
  390MOL0     C52577   8.152   8.000   3.261  0.1057 -0.7323 -1.1785
  390MOL0     C52578   8.258   7.936   3.347  0.7167 -1.1960 -1.0829
  390MOL0     C52579   8.247   8.011   3.480  0.2348 -0.5146  0.8730
  390MOL0     C52580   8.234   8.081   3.581 -0.2380 -0.1678  0.0029
  390MOL0     C52581   7.754   8.202   3.044 -0.2670  0.0750  0.3036
  390MOL0     C52582   7.630   8.244   2.978 -0.2647 -0.4912 -0.9467
  390MOL0     H52583   7.268   7.988   2.579 -0.0160  0.5757 -1.1173
  390MOL0     H52584   7.079   8.042   2.449  0.9644  2.9404 -1.7195
  390MOL0     H52585   6.915   8.157   2.320 -1.4559  0.3823 -1.0834
  390MOL0     H52586   6.845   8.030   2.420 -0.1648 -0.2792 -1.9686
  390MOL0     H52587   6.663   8.134   2.265 -3.8821  1.5583 -0.2768
  390MOL0     H52588   6.648   8.211   2.431  3.6190 -1.5830  3.5796
  390MOL0     H52589   6.801   8.389   2.319  4.1664 -1.7137 -1.0345
  390MOL0     H52590   6.799   8.297   2.169 -0.2766  0.7179 -1.0797
  390MOL0     H52591   6.628   8.460   2.117  0.6431 -0.7738  0.6975
  390MOL0     H52592   6.552   8.307   2.161 -1.5881  0.1441  1.8164
  390MOL0     H52593   6.470   8.395   2.378  2.6268 -0.9250 -0.4779
  390MOL0     H52594   6.575   8.540   2.365 -0.0395  0.3845 -0.4131
  390MOL0     H52595   6.455   8.591   2.146 -3.0756  0.3117 -1.8071
  390MOL0     H52596   6.333   8.486   2.203  0.9451 -0.0534 -0.7302
  390MOL0     H52597   6.276   8.643   2.370  2.1477  0.5145  2.6488
  390MOL0     H52598   6.422   8.720   2.382 -0.7576 -0.3416  1.8035
  390MOL0     H52599   6.372   8.842   2.158  1.7896  0.8464  2.6985
  390MOL0     H52600   6.237   8.861   2.269 -1.7507 -0.5485  0.6722
  390MOL0     H52601   6.038   8.637   2.277 -0.0502 -2.4689 -0.6319
  390MOL0     H52602   5.945   8.405   1.983  2.0988 -0.6310  2.1300
  390MOL0     H52603   5.913   8.414   2.154 -0.5202 -0.5206 -0.9286
  390MOL0     H52604   5.790   8.639   2.101  0.6555 -0.4754  1.2822
  390MOL0     H52605   5.712   8.485   2.058 -1.5800  0.5057 -2.4177
  390MOL0     H52606   5.875   8.647   1.855 -0.1582 -1.5895  0.1885
  390MOL0     H52607   5.688   8.669   1.881 -0.0404  0.3270 -3.0214
  390MOL0     H52608   5.835   8.419   1.795 -0.3443 -1.9777  2.7454
  390MOL0     H52609   5.750   8.539   1.695 -0.5000  0.1763  1.4238
  390MOL0     H52610   5.398   8.368   1.903 -2.5371  0.5137 -0.0783
  390MOL0     H52611   5.122   8.435   1.881 -0.2658  0.7893 -1.6897
  390MOL0     H52612   5.079   8.315   1.758  0.6770 -3.7451  1.0447
  390MOL0     H52613   5.194   8.271   1.882 -0.2788 -0.5906  0.1567
  390MOL0     H52614   5.049   8.377   1.318 -1.0432 -0.9758 -0.6994
  390MOL0     H52615   4.844   8.359   1.210 -2.7679  0.4959  0.2948
  390MOL0     H52616   4.580   8.341   1.167 -0.4110  0.6406 -0.6273
  390MOL0     H52617   4.555   8.400   1.330  2.4946  1.2726  0.3140
  390MOL0     H52618   4.332   8.449   1.231  0.3877  1.1570  2.0310
  390MOL0     H52619   4.411   8.602   1.201 -0.1792  1.6102 -3.1165
  390MOL0     H52620   4.485   8.524   0.966 -0.7873 -1.1597 -1.1727
  390MOL0     H52621   4.332   8.589   1.019 -4.0405 -3.7040 -0.5664
  390MOL0     H52622   4.376   8.300   1.025 -1.0308  0.9704  1.9020
  390MOL0     H52623   4.222   8.377   0.997 -1.0785 -1.4940 -3.0521
  390MOL0     H52624   4.261   8.298   0.784  1.1428 -0.7713  0.1138
  390MOL0     H52625   4.440   8.309   0.798 -0.4778 -2.8541  0.6155
  390MOL0     H52626   4.407   8.562   0.780  1.9123 -1.3774  0.0015
  390MOL0     H52627   4.373   8.469   0.638  0.1914 -4.0286  0.8678
  390MOL0     H52628   4.130   8.537   0.817  1.2624  3.0104  1.4900
  390MOL0     H52629   4.137   8.458   0.662 -2.6026 -0.4457  2.5667
  390MOL0     H52630   4.064   8.665   0.624 -0.4987 -2.9392  1.2606
  390MOL0     H52631   4.219   8.642   0.549 -1.2352 -1.5838 -0.5333
  390MOL0     H52632   4.750   8.761   1.293 -0.8280 -0.9473 -0.7435
  390MOL0     H52633   4.978   8.792   1.402 -2.8112  2.0804 -0.1544
  390MOL0     H52634   5.375   8.612   1.482 -2.7657  0.6113  1.3370
  390MOL0     H52635   5.590   8.587   1.599  0.0702 -0.2159  0.1362
  390MOL0     H52636   6.946   8.340   2.713 -2.8027 -1.9688 -2.6310
  390MOL0     H52637   7.167   8.278   2.868  0.2026  0.6310 -1.1201
  390MOL0     H52638   7.498   7.938   2.915 -1.7961  1.9024 -0.4903
  390MOL0     H52639   7.692   7.869   3.030  1.5298  0.1131 -3.8711
  390MOL0     H52640   7.962   7.940   2.975 -0.4562  1.9080 -0.4718
  390MOL0     H52641   8.028   8.091   3.025  0.5836 -1.4419 -3.5747
  390MOL0     H52642   8.208   7.918   3.088  1.4238  1.6783  1.3041
  390MOL0     H52643   8.087   7.826   3.162  1.5535 -0.3039  2.0124
  390MOL0     H52644   8.064   8.025   3.322 -1.1168 -2.1851 -2.2560
  390MOL0     H52645   8.202   8.095   3.238  0.8274  0.8156  4.9848
  390MOL0     H52646   8.359   7.940   3.306  1.7219  4.8464  0.9667
  390MOL0     H52647   8.233   7.830   3.363  0.6653 -1.4299 -2.6242
  390MOL0     H52648   8.216   8.100   3.685 -1.8455  0.1523 -0.3005
  390MOL0     H52649   7.835   8.269   3.068  0.6976  0.9324 -4.3793
  390MOL0     H52650   7.626   8.352   2.963  0.3912 -0.3442 -0.1124
  391MOL0     O52651  10.856   2.305   6.053  0.1611 -0.0600 -0.1578
  391MOL0     C52652  10.815   2.404   5.990 -0.2964  0.8172 -0.4735
  391MOL0     O52653  10.884   2.514   5.958  1.7419  0.1009  0.7486
  391MOL0     C52654  11.011   2.526   5.986 -0.6254  0.7027  0.4195
  391MOL0     C52655  11.111   2.492   5.901  0.0973 -0.4307  1.0055
  391MOL0     C52656  11.246   2.514   5.924 -0.0817 -0.4123  0.2710
  391MOL0     C52657  11.284   2.562   6.054  0.3106  1.0509  0.0987
  391MOL0     O52658  11.411   2.578   6.098  0.2635  0.3615 -0.2183
  391MOL0     C52659  11.516   2.513   6.039 -0.4753  0.7619 -0.2992
  391MOL0     C52660  11.567   2.603   5.922 -0.2088 -0.4318 -0.8848
  391MOL0     C52661  11.714   2.647   5.938  0.6677 -0.3778 -0.6977
  391MOL0     C52662  11.786   2.718   5.818  0.1020  0.1107  0.2811
  391MOL0     C52663  11.941   2.709   5.833  0.9845 -0.5342  0.1309
  391MOL0     C52664  12.007   2.774   5.955  0.0672 -0.0094 -0.5223
  391MOL0     C52665  11.989   2.926   5.960 -0.1967  0.7870 -0.4624
  391MOL0     C52666  12.055   2.990   6.083 -0.0771  0.2601 -0.0335
  391MOL0     N52667  12.167   3.087   6.052 -0.1402 -0.5332  0.2361
  391MOL0     C52668  12.159   3.198   5.976 -2.3391 -0.2775 -0.2986
  391MOL0     C52669  12.278   3.255   6.007 -0.5837  1.1192 -0.4059
  391MOL0     C52670  12.325   3.400   5.964  0.3519  0.3838 -0.6928
  391MOL0     C52671  12.347   3.509   6.070 -0.0647 -0.2842  0.3660
  391MOL0     C52672  12.211   3.523   6.133 -0.2640  0.0258 -0.5482
  391MOL0     C52673  12.197   3.650   6.223 -0.5006 -1.1746  0.7236
  391MOL0     O52674  12.067   3.670   6.270 -0.5948  0.1895 -0.3676
  391MOL0     C52675  12.034   3.773   6.351  0.2198 -0.1609 -0.4716
  391MOL0     C52676  11.898   3.768   6.392 -0.6021 -0.7421  0.1602
  391MOL0     C52677  11.848   3.875   6.467  0.2588  1.0016  0.2778
  391MOL0     C52678  11.701   3.867   6.507 -0.2012  0.0302 -0.3059
  391MOL0     C52679  11.925   3.985   6.504  0.3290  0.4172 -0.3462
  391MOL0     C52680  11.872   4.108   6.587  0.2272 -0.4675  0.9411
  391MOL0     O52681  11.767   4.083   6.680 -0.0992  1.1378 -0.6816
  391MOL0     C52682  11.771   4.179   6.782 -0.6188  0.1347 -0.0392
  391MOL0     C52683  11.638   4.225   6.808  0.2794 -0.3796 -0.7110
  391MOL0     C52684  11.623   4.325   6.898 -0.1842  0.5479 -1.1308
  391MOL0     C52685  11.736   4.385   6.963 -0.1142  0.5273  0.2733
  391MOL0     O52686  11.728   4.487   7.054 -0.0543 -1.0817  0.5085
  391MOL0     C52687  11.608   4.573   7.050  0.4341  0.4910  0.7947
  391MOL0     C52688  11.604   4.719   7.104 -0.1925  0.4591  0.1046
  391MOL0     C52689  11.682   4.822   7.015 -0.0579 -0.0525  0.2711
  391MOL0     C52690  11.585   4.896   6.913  0.3415  0.5392 -1.1074
  391MOL0     C52691  11.652   5.009   6.839  0.1751 -0.2695 -0.7252
  391MOL0     C52692  11.709   4.976   6.704 -0.0340  0.1653  0.0483
  391MOL0     C52693  11.739   5.118   6.633  1.3503  0.2052  0.9624
  391MOL0     C52694  11.766   5.098   6.484  0.1098  0.4095  0.2780
  391MOL0    Cl52695  11.902   4.986   6.475  0.2600 -0.0513 -0.0855
  391MOL0     C52696  11.864   4.332   6.945 -0.4294 -0.8391 -0.3025
  391MOL0     C52697  11.883   4.233   6.855  0.4627 -0.1454 -0.0397
  391MOL0     O52698  11.922   4.215   6.563  0.6955 -0.3256  0.1722
  391MOL0     C52699  12.063   3.980   6.476 -0.2046  0.3860 -0.0477
  391MOL0     C52700  12.111   3.880   6.393 -0.7605  0.6694  0.0234
  391MOL0     N52701  12.356   3.169   6.093  0.1271 -0.6497 -0.8705
  391MOL0     N52702  12.294   3.071   6.113 -0.3101  0.0065  0.3833
  391MOL0     C52703  11.183   2.609   6.146 -0.2611  0.3795  0.5522
  391MOL0     C52704  11.044   2.599   6.102  0.7563  0.6424 -0.2049
  391MOL0     C52705  10.672   2.418   5.957  0.0183  1.6488 -0.5000
  391MOL0     C52706  10.590   2.317   5.921 -0.2291 -0.1514  0.6896
  391MOL0     C52707  10.458   2.343   5.876  0.0720  0.2770  0.2067
  391MOL0     C52708  10.420   2.472   5.847 -0.6740  1.0118  0.0555
  391MOL0     O52709  10.292   2.492   5.796 -0.0225  0.3148  0.0787
  391MOL0     C52710  10.249   2.633   5.777  0.5511  0.3876  0.1032
  391MOL0     C52711  10.114   2.613   5.700 -0.0602  0.9783 -0.1220
  391MOL0     C52712  10.010   2.524   5.781  0.1860 -0.4915  0.1299
  391MOL0     C52713   9.870   2.535   5.707 -0.5271 -0.6805  1.5162
  391MOL0     C52714   9.779   2.632   5.769  0.9636 -0.1496 -0.1107
  391MOL0     C52715   9.690   2.706   5.813  0.1365  0.1010 -0.3901
  391MOL0     C52716  10.511   2.570   5.882  0.2007 -0.2269 -0.1469
  391MOL0     C52717  10.626   2.545   5.947 -0.4571  0.6706  0.7988
  391MOL0     H52718  11.088   2.451   5.804  2.4311 -1.8116  0.9612
  391MOL0     H52719  11.316   2.488   5.846  0.7251  0.3422  0.7248
  391MOL0     H52720  11.589   2.495   6.119 -1.3719 -1.9379  0.0342
  391MOL0     H52721  11.483   2.415   6.003  0.7051  0.3752 -0.3909
  391MOL0     H52722  11.564   2.553   5.825  1.2816 -3.7638  0.6047
  391MOL0     H52723  11.498   2.688   5.921 -1.3305 -1.2703  0.3648
  391MOL0     H52724  11.710   2.714   6.024 -1.2898  0.1063 -1.1219
  391MOL0     H52725  11.774   2.564   5.978  0.3825 -0.6442 -0.8148
  391MOL0     H52726  11.753   2.666   5.728 -1.4186  0.2435  0.7417
  391MOL0     H52727  11.737   2.816   5.810 -3.0853 -1.1752  2.2813
  391MOL0     H52728  11.967   2.602   5.833 -0.7843 -0.9947  0.2166
  391MOL0     H52729  11.995   2.742   5.744 -1.0955  0.9535 -0.6315
  391MOL0     H52730  11.974   2.715   6.042  1.6500 -0.6529 -0.3187
  391MOL0     H52731  12.110   2.741   5.937  0.9431  1.4928  1.2987
  391MOL0     H52732  12.039   2.963   5.871  3.3690  1.7408  1.7330
  391MOL0     H52733  11.882   2.947   5.966 -0.4760 -0.7494  0.6752
  391MOL0     H52734  12.100   2.923   6.157 -0.3145  0.7054  0.5194
  391MOL0     H52735  11.970   3.040   6.131  0.7414  0.4577  1.2537
  391MOL0     H52736  12.077   3.261   5.942 -1.4948 -0.2674 -2.4643
  391MOL0     H52737  12.419   3.384   5.911  0.5996  1.3615 -0.5689
  391MOL0     H52738  12.243   3.427   5.897  1.0369  0.2055 -1.6257
  391MOL0     H52739  12.400   3.591   6.020  0.8731 -2.8147 -3.1814
  391MOL0     H52740  12.419   3.474   6.146  0.5813  2.5234  1.1726
  391MOL0     H52741  12.211   3.438   6.203  0.7182  0.4175 -0.0582
  391MOL0     H52742  12.132   3.514   6.057  0.1706 -0.7521 -0.9172
  391MOL0     H52743  12.229   3.739   6.169  0.8993 -1.6846  0.6472
  391MOL0     H52744  12.257   3.634   6.313 -1.2366 -4.1352  0.7974
  391MOL0     H52745  11.831   3.691   6.355 -2.8159  1.3430 -0.3945
  391MOL0     H52746  11.657   3.784   6.450  1.2888  0.4582 -2.1916
  391MOL0     H52747  11.685   3.835   6.610 -3.4961 -2.1362 -1.3195
  391MOL0     H52748  11.646   3.962   6.502  0.2732  0.4718  1.8220
  391MOL0     H52749  11.563   4.161   6.764  2.1290 -2.3034 -1.2062
  391MOL0     H52750  11.522   4.360   6.919 -0.5489 -1.6268  1.1724
  391MOL0     H52751  11.586   4.590   6.945  1.5696  1.3054  0.6665
  391MOL0     H52752  11.526   4.509   7.082 -0.1128 -0.6477 -2.5023
  391MOL0     H52753  11.501   4.755   7.096  0.0655  0.8674 -2.2475
  391MOL0     H52754  11.636   4.713   7.208  1.3333 -1.8362 -0.4300
  391MOL0     H52755  11.764   4.775   6.958  2.3335  1.1275  2.5068
  391MOL0     H52756  11.730   4.886   7.089  1.0162 -3.5969  2.9545
  391MOL0     H52757  11.548   4.826   6.838  1.5256  1.2411 -2.3873
  391MOL0     H52758  11.492   4.929   6.961 -0.0098 -1.1192 -0.5834
  391MOL0     H52759  11.735   5.048   6.900  0.7042 -0.2994 -1.4140
  391MOL0     H52760  11.582   5.093   6.843  0.7271  0.1734  1.5498
  391MOL0     H52761  11.800   4.917   6.717  1.5783  2.3440 -0.8067
  391MOL0     H52762  11.634   4.930   6.640 -0.2986  2.8716 -1.7279
  391MOL0     H52763  11.824   5.169   6.679  0.8578  3.8514 -1.7987
  391MOL0     H52764  11.656   5.187   6.648  1.6932  1.5040 -2.4741
  391MOL0     H52765  11.793   5.196   6.444 -0.1184 -0.4573 -2.1862
  391MOL0     H52766  11.679   5.066   6.425  1.3234 -1.4074 -0.6524
  391MOL0     H52767  11.942   4.379   7.004 -1.0308  1.4327 -1.1901
  391MOL0     H52768  11.986   4.201   6.842  0.2566 -1.9849  2.1383
  391MOL0     H52769  12.139   4.055   6.492  1.9787 -1.3899 -1.4025
  391MOL0     H52770  12.218   3.878   6.378 -0.7586 -1.7098 -0.1404
  391MOL0     H52771  11.214   2.665   6.234  2.4222  1.6127 -1.0616
  391MOL0     H52772  10.957   2.631   6.158  0.6601 -0.0779  0.0700
  391MOL0     H52773  10.622   2.214   5.937 -0.5149  0.0058  2.4379
  391MOL0     H52774  10.387   2.262   5.861  1.1096 -0.4029 -1.3268
  391MOL0     H52775  10.223   2.687   5.869  0.5950 -0.4345  0.6088
  391MOL0     H52776  10.319   2.684   5.710  1.1228 -2.5630 -1.7298
  391MOL0     H52777  10.140   2.574   5.601  0.8762  0.1358  0.4383
  391MOL0     H52778  10.071   2.714   5.693 -2.1954  0.2912  1.7115
  391MOL0     H52779  10.010   2.568   5.881 -2.9699  0.3876 -0.1413
  391MOL0     H52780  10.042   2.420   5.791 -1.7546 -1.6800 -3.9266
  391MOL0     H52781   9.829   2.434   5.700 -0.2454 -0.8279  1.8867
  391MOL0     H52782   9.881   2.566   5.603  1.5991  2.1519  2.4623
  391MOL0     H52783   9.625   2.784   5.848 -0.7991 -1.6837  2.0617
  391MOL0     H52784  10.492   2.676   5.866  0.6301  0.0578  1.0790
  391MOL0     H52785  10.674   2.633   5.989 -0.8992 -0.3255  3.5975
  392MOL0     O52786   0.294   8.046   9.410  0.0784  0.3226  0.1680
  392MOL0     C52787   0.198   8.117   9.429  0.9815  0.6903  0.5499
  392MOL0     O52788   0.083   8.072   9.486 -0.3873  0.3419  0.8256
  392MOL0     C52789   0.077   7.939   9.519  0.2707  1.3977 -0.0974
  392MOL0     C52790   0.132   7.888   9.635  0.6096  0.2267 -0.3908
  392MOL0     C52791   0.132   7.750   9.671 -0.0209  0.0587 -0.0726
  392MOL0     C52792   0.078   7.659   9.579  0.1596 -0.0483  1.2731
  392MOL0     O52793   0.089   7.523   9.605  0.2817 -0.2077  0.3651
  392MOL0     C52794   0.141   7.453   9.492  0.0547  0.3104 -0.2810
  392MOL0     C52795   0.166   7.302   9.517  0.3326  0.1163  0.6767
  392MOL0     C52796   0.054   7.246   9.603  0.2876  0.4002 -0.0432
  392MOL0     C52797   0.073   7.102   9.605  0.1767 -0.0133 -0.3872
  392MOL0     C52798  -0.017   7.044   9.714  0.3408 -0.6650  0.3242
  392MOL0     C52799   0.006   6.890   9.731 -0.7065 -0.6826  0.4373
  392MOL0     C52800  -0.090   6.826   9.840 -0.6086  0.5422  0.2227
  392MOL0     C52801  -0.146   6.920   9.954  0.0570 -0.5385  0.1701
  392MOL0     N52802  -0.206   6.844  10.063 -0.4312 -0.2464 -0.4427
  392MOL0     C52803  -0.164   6.733  10.129 -0.5071  0.7015 -0.1810
  392MOL0     C52804  -0.236   6.729  10.240 -0.3371  0.3450  0.2608
  392MOL0     C52805  -0.236   6.642  10.358 -0.7452  0.2846 -0.5465
  392MOL0     C52806  -0.176   6.724  10.486  0.8024 -0.0214  0.2747
  392MOL0     C52807  -0.159   6.638  10.608  0.3218 -0.1509  0.4602
  392MOL0     C52808  -0.072   6.514  10.590  0.8180 -0.3311 -1.0023
  392MOL0     O52809   0.052   6.556  10.538 -0.3014  0.2123  0.3081
  392MOL0     C52810   0.148   6.627  10.607 -0.5130 -0.5372  0.0599
  392MOL0     C52811   0.180   6.601  10.737 -0.1076  0.1318 -1.3024
  392MOL0     C52812   0.306   6.651  10.796  0.8538 -0.4968 -0.2943
  392MOL0     C52813   0.329   6.600  10.940 -0.6238 -0.0807 -0.5837
  392MOL0     C52814   0.395   6.732  10.721 -0.6694  0.3509 -0.0888
  392MOL0     C52815   0.526   6.779  10.774 -0.1556  0.7157  0.3679
  392MOL0     O52816   0.583   6.712  10.881 -1.1935 -0.3921 -0.3736
  392MOL0     C52817   0.676   6.772  10.954 -0.2946  0.4222  0.2175
  392MOL0     C52818   0.793   6.819  10.902 -0.3308  0.0470  0.2441
  392MOL0     C52819   0.888   6.873  10.988 -0.0529 -0.2974 -0.9863
  392MOL0     C52820   0.860   6.900  11.121  0.8775  0.4610 -0.0104
  392MOL0     O52821   0.954   6.969  11.203 -0.3041 -0.6247 -0.5639
  392MOL0     C52822   0.915   7.099  11.258 -0.3807  0.0975  0.4404
  392MOL0     C52823   1.051   7.169  11.304  0.2172  0.4871  0.5338
  392MOL0     C52824   1.093   7.109  11.434 -0.0301 -0.0153 -0.9552
  392MOL0     C52825   1.180   7.204  11.513 -0.1972 -0.2777 -0.1227
  392MOL0     C52826   1.297   7.258  11.434  0.6156  0.5385  0.1821
  392MOL0     C52827   1.280   7.411  11.400  0.9091  0.8469 -0.3265
  392MOL0     C52828   1.274   7.515  11.520 -0.4901  0.5748  0.0069
  392MOL0     C52829   1.276   7.666  11.495  0.4682  0.6814  0.0099
  392MOL0    Cl52830   1.432   7.727  11.434 -0.0509 -0.5523 -0.5692
  392MOL0     C52831   0.733   6.852  11.170 -0.0245 -0.3431 -0.1254
  392MOL0     C52832   0.643   6.793  11.090 -0.5391  0.0428  0.0691
  392MOL0     O52833   0.576   6.877  10.716  0.3546  0.6570 -0.7297
  392MOL0     C52834   0.356   6.765  10.587 -1.0883  0.4981 -1.1223
  392MOL0     C52835   0.232   6.713  10.536  0.6665 -0.8280 -0.2018
  392MOL0     N52836  -0.323   6.829  10.239 -0.0875  0.4582  0.2257
  392MOL0     N52837  -0.314   6.894  10.137 -0.5350  0.3104 -0.2135
  392MOL0     C52838   0.014   7.713   9.463 -0.4106 -0.5519  0.9165
  392MOL0     C52839   0.015   7.849   9.431 -1.2898 -0.0295 -0.0316
  392MOL0     C52840   0.225   8.259   9.421  0.5863 -0.2976 -1.0028
  392MOL0     C52841   0.158   8.361   9.504  0.3330  1.1329 -0.3418
  392MOL0     C52842   0.200   8.489   9.507 -0.6577 -1.5423  0.0607
  392MOL0     C52843   0.281   8.546   9.419 -0.2337 -0.2614 -0.4508
  392MOL0     O52844   0.303   8.678   9.398  0.4883  0.2396 -0.2678
  392MOL0     C52845   0.219   8.778   9.452  0.6619 -0.0616  0.0806
  392MOL0     C52846   0.279   8.919   9.447 -0.7019  0.1848  0.1346
  392MOL0     C52847   0.156   9.013   9.467  1.1424  0.3696 -0.2453
  392MOL0     C52848   0.205   9.155   9.472  0.5697  0.4005 -0.0660
  392MOL0     C52849   0.089   9.244   9.480 -0.6406  0.4084 -0.0832
  392MOL0     C52850  -0.017   9.301   9.500 -0.7462  0.3426  0.4041
  392MOL0     C52851   0.339   8.456   9.327  0.1883  0.4406 -0.2400
  392MOL0     C52852   0.319   8.316   9.326 -0.1645 -0.0814  0.2640
  392MOL0     H52853   0.179   7.965   9.697 -1.2797  0.1179  1.2796
  392MOL0     H52854   0.184   7.721   9.762  1.0738  1.5454 -0.1822
  392MOL0     H52855   0.064   7.455   9.413  2.4862  1.5453 -2.8016
  392MOL0     H52856   0.226   7.504   9.445 -1.1252  0.1049 -2.8241
  392MOL0     H52857   0.172   7.244   9.424  4.4787 -0.0424  0.8605
  392MOL0     H52858   0.254   7.288   9.580  1.0053  0.2064 -0.2125
  392MOL0     H52859   0.067   7.286   9.704  0.3897  0.2722 -0.0049
  392MOL0     H52860  -0.047   7.261   9.565 -0.0122 -2.5396 -0.6327
  392MOL0     H52861   0.057   7.060   9.505 -2.4236  1.9503 -0.9205
  392MOL0     H52862   0.171   7.078   9.645 -0.3508  0.4342  1.2581
  392MOL0     H52863   0.008   7.092   9.809  0.4749  1.3398 -0.6851
  392MOL0     H52864  -0.120   7.068   9.685  0.2260 -0.9841  0.4538
  392MOL0     H52865  -0.002   6.831   9.639  0.4590  2.6764 -1.9944
  392MOL0     H52866   0.105   6.868   9.771 -1.8773 -1.3330  3.2410
  392MOL0     H52867  -0.180   6.782   9.796 -0.2779  1.3851 -1.3693
  392MOL0     H52868  -0.033   6.738   9.872 -0.1235 -0.5509 -3.1819
  392MOL0     H52869  -0.207   6.999   9.911  1.7511  0.1384 -1.1062
  392MOL0     H52870  -0.057   6.962  10.004 -0.1141 -0.1564  0.1504
  392MOL0     H52871  -0.079   6.675  10.094 -1.5586 -1.5424  0.8577
  392MOL0     H52872  -0.337   6.611  10.385 -0.2625 -0.7903  0.0772
  392MOL0     H52873  -0.183   6.548  10.339 -2.7539 -0.3880 -3.5393
  392MOL0     H52874  -0.247   6.806  10.498 -1.4287 -1.7900 -0.1036
  392MOL0     H52875  -0.078   6.765  10.461 -0.3426  4.9350  2.6390
  392MOL0     H52876  -0.261   6.611  10.636 -0.5505  3.5936  1.5300
  392MOL0     H52877  -0.125   6.699  10.692  1.5400  0.8299 -0.6949
  392MOL0     H52878  -0.112   6.446  10.514 -0.2627  0.8029 -1.4790
  392MOL0     H52879  -0.057   6.448  10.675 -0.7243  0.1161 -0.3499
  392MOL0     H52880   0.129   6.546  10.815  1.9560  1.3590  1.0608
  392MOL0     H52881   0.256   6.523  10.968 -2.9396  2.1135 -0.1952
  392MOL0     H52882   0.429   6.557  10.950 -0.9094 -0.4859  0.8001
  392MOL0     H52883   0.321   6.678  11.016  0.2039 -2.7707  2.5127
  392MOL0     H52884   0.821   6.796  10.800  2.0039 -2.6924  1.3419
  392MOL0     H52885   0.983   6.911  10.949  0.4623 -1.4081 -0.8624
  392MOL0     H52886   0.871   7.165  11.184 -0.0738 -1.2210 -0.9787
  392MOL0     H52887   0.837   7.100  11.335 -1.1097 -0.3354 -0.2668
  392MOL0     H52888   1.119   7.149  11.221 -1.0756 -0.4051 -0.3350
  392MOL0     H52889   1.039   7.276  11.323  1.2091  0.6383  0.3786
  392MOL0     H52890   1.148   7.015  11.420 -0.9961 -0.6224 -0.7644
  392MOL0     H52891   1.007   7.071  11.491 -2.5784  0.4556 -4.1475
  392MOL0     H52892   1.117   7.286  11.547 -0.7159 -1.8578  3.1866
  392MOL0     H52893   1.208   7.166  11.612 -2.6903  0.5179  0.9718
  392MOL0     H52894   1.301   7.190  11.348 -0.4203 -1.6441  1.7458
  392MOL0     H52895   1.385   7.235  11.494  1.3088 -0.6488 -1.2160
  392MOL0     H52896   1.364   7.446  11.339  1.5818  1.6203  1.0077
  392MOL0     H52897   1.197   7.421  11.329  0.1894 -1.5927  0.0627
  392MOL0     H52898   1.360   7.479  11.577 -0.4816 -1.5983 -1.2875
  392MOL0     H52899   1.190   7.497  11.588  0.5040  2.9602  2.0209
  392MOL0     H52900   1.233   7.715  11.582 -5.5056  3.1761 -3.7165
  392MOL0     H52901   1.206   7.691  11.414  2.1173  1.1552 -1.3231
  392MOL0     H52902   0.708   6.864  11.275 -0.8326 -2.9127  0.0468
  392MOL0     H52903   0.547   6.757  11.125 -2.2958 -1.0540 -4.9782
  392MOL0     H52904   0.415   6.835  10.529 -0.8416  1.6691  0.4806
  392MOL0     H52905   0.216   6.738  10.431  0.1369  3.3960  0.7094
  392MOL0     H52906  -0.039   7.641   9.401  0.5116 -0.1781 -0.3457
  392MOL0     H52907  -0.037   7.885   9.342 -3.0192 -3.4690 -0.6054
  392MOL0     H52908   0.094   8.324   9.583 -1.3884 -2.0622 -2.9496
  392MOL0     H52909   0.134   8.538   9.579  0.2379 -1.8784  1.1427
  392MOL0     H52910   0.125   8.782   9.395 -0.1381  1.7314  1.4116
  392MOL0     H52911   0.198   8.749   9.556 -3.8311 -0.8871 -0.8223
  392MOL0     H52912   0.341   8.949   9.362 -0.0942 -2.6581 -0.5532
  392MOL0     H52913   0.336   8.916   9.540 -2.3414 -0.2580  1.1687
  392MOL0     H52914   0.119   9.004   9.569  0.9565  1.0738 -0.2425
  392MOL0     H52915   0.078   8.992   9.393  0.2323  2.1570  0.1565
  392MOL0     H52916   0.270   9.176   9.386 -0.1480  3.3055  0.0084
  392MOL0     H52917   0.265   9.156   9.564  1.4931  0.4152 -0.6542
  392MOL0     H52918  -0.108   9.353   9.522 -0.0448  0.9899  1.9175
  392MOL0     H52919   0.399   8.503   9.250  4.0347  0.7898  2.6787
  392MOL0     H52920   0.373   8.262   9.249 -1.5610  1.2638 -1.7712
  393MOL0     O52921   4.501   7.147   2.215  0.0211 -0.3767 -0.6103
  393MOL0     C52922   4.619   7.158   2.192 -0.3285  0.1696 -0.9264
  393MOL0     O52923   4.673   7.232   2.095 -0.4515  0.4701 -0.5640
  393MOL0     C52924   4.607   7.334   2.044  0.3793 -0.4672 -0.5391
  393MOL0     C52925   4.575   7.337   1.908  1.1516 -0.1768  0.3758
  393MOL0     C52926   4.522   7.450   1.851  0.0283 -0.4657 -0.1345
  393MOL0     C52927   4.495   7.561   1.928  0.1723 -0.1802 -0.0312
  393MOL0     O52928   4.461   7.680   1.864  0.0244 -0.3259  0.0819
  393MOL0     C52929   4.384   7.778   1.936  0.4794  0.4482  0.0016
  393MOL0     C52930   4.313   7.870   1.830 -0.5041  0.4150  0.1259
  393MOL0     C52931   4.331   8.023   1.852 -0.8744 -0.3241  0.9486
  393MOL0     C52932   4.215   8.106   1.788 -0.0185  0.3996  0.3249
  393MOL0     C52933   4.261   8.240   1.726  0.1307 -0.0004  0.8286
  393MOL0     C52934   4.144   8.331   1.685  0.3501  0.2120 -0.1229
  393MOL0     C52935   4.148   8.368   1.539 -0.3456 -0.6139  0.0042
  393MOL0     C52936   4.052   8.483   1.518  0.5403  0.9842 -0.2311
  393MOL0     N52937   4.071   8.546   1.384  0.7021  0.7654  0.3674
  393MOL0     C52938   3.986   8.533   1.281  0.2630 -1.1764  1.2825
  393MOL0     C52939   4.025   8.621   1.187  1.0130  0.1012  0.3357
  393MOL0     C52940   3.962   8.662   1.057  0.0814  0.6377 -0.2635
  393MOL0     C52941   3.837   8.744   1.083  0.1085  1.1346 -0.3792
  393MOL0     C52942   3.713   8.650   1.068  0.9041 -0.4214  0.2570
  393MOL0     C52943   3.579   8.720   1.097 -0.6875  0.5281  0.6330
  393MOL0     O52944   3.487   8.611   1.116  0.2687  0.4778 -0.3567
  393MOL0     C52945   3.462   8.557   1.238  0.0710 -0.4323  0.2481
  393MOL0     C52946   3.535   8.580   1.356  0.5844  0.1826 -0.0532
  393MOL0     C52947   3.504   8.521   1.479 -0.2502 -0.3020  0.1835
  393MOL0     C52948   3.602   8.569   1.584  0.1102 -0.3801  0.1594
  393MOL0     C52949   3.407   8.417   1.480  0.3036  0.2792  0.3327
  393MOL0     C52950   3.370   8.319   1.593 -0.6324  0.0688  0.5830
  393MOL0     O52951   3.231   8.284   1.594 -0.3684 -0.4122 -0.1312
  393MOL0     C52952   3.185   8.201   1.697 -0.2069 -0.5428  0.0378
  393MOL0     C52953   3.057   8.216   1.752 -0.2823 -0.0363 -0.1893
  393MOL0     C52954   3.004   8.141   1.852  0.0729  1.7206 -0.0419
  393MOL0     C52955   3.068   8.030   1.906 -0.7067 -0.1693  0.7930
  393MOL0     O52956   3.004   7.963   2.015  0.3860 -0.4040  1.1154
  393MOL0     C52957   3.084   7.857   2.083  0.2931  0.4026  0.4074
  393MOL0     C52958   3.013   7.784   2.193 -0.1648 -0.1114  0.5220
  393MOL0     C52959   3.021   7.877   2.319  0.3165 -0.4288  0.1375
  393MOL0     C52960   2.912   7.867   2.425  0.2739  0.8762 -0.2044
  393MOL0     C52961   2.935   7.966   2.535 -0.3391 -1.3595 -0.9700
  393MOL0     C52962   2.846   7.937   2.653 -0.0898  0.6086  0.0520
  393MOL0     C52963   2.923   7.837   2.750  0.7385  0.1154  1.2348
  393MOL0     C52964   2.832   7.818   2.872 -0.5760  0.6572 -0.1729
  393MOL0    Cl52965   2.866   7.929   3.008 -0.0372  0.1492  0.3627
  393MOL0     C52966   3.200   8.012   1.856 -0.9091  0.0187 -0.4644
  393MOL0     C52967   3.253   8.092   1.754  0.6430 -0.0848  0.6982
  393MOL0     O52968   3.459   8.283   1.667 -0.0661  0.5402  0.2304
  393MOL0     C52969   3.331   8.407   1.365 -0.0619 -0.0683  0.2577
  393MOL0     C52970   3.354   8.474   1.243 -0.1833  0.2107 -0.6657
  393MOL0     N52971   4.142   8.680   1.230 -1.1522  0.0396  0.2390
  393MOL0     N52972   4.168   8.633   1.352  1.1356 -0.2821  0.8315
  393MOL0     C52973   4.513   7.552   2.068 -0.6244  1.6250 -0.3263
  393MOL0     C52974   4.572   7.439   2.122 -1.3806  0.0646 -1.2292
  393MOL0     C52975   4.703   7.066   2.268  0.5240  0.1822 -0.0907
  393MOL0     C52976   4.657   6.986   2.372 -0.0967  0.4021 -0.2766
  393MOL0     C52977   4.731   6.881   2.424 -0.9111  0.3081  0.8213
  393MOL0     C52978   4.870   6.866   2.391  0.8045  0.7958  0.4962
  393MOL0     O52979   4.931   6.772   2.467 -0.1377  0.3879  0.0274
  393MOL0     C52980   5.075   6.777   2.446 -0.5865 -0.3104 -0.0610
  393MOL0     C52981   5.145   6.678   2.553 -0.7146  1.0273  0.4974
  393MOL0     C52982   5.131   6.718   2.703 -0.3168 -0.5385  0.5375
  393MOL0     C52983   4.990   6.677   2.763  0.1323 -0.1500 -0.5723
  393MOL0     C52984   4.962   6.537   2.818 -0.2845  0.0425 -0.4035
  393MOL0     C52985   4.931   6.423   2.858 -1.1347 -0.1830 -0.3059
  393MOL0     C52986   4.930   6.959   2.298  0.3905 -0.7037  0.0575
  393MOL0     C52987   4.843   7.055   2.246 -0.0935  0.9794  0.6231
  393MOL0     H52988   4.615   7.260   1.843  1.7635  1.1899 -0.9521
  393MOL0     H52989   4.523   7.462   1.743  2.4186 -0.3976 -0.1513
  393MOL0     H52990   4.300   7.736   1.993  0.6158 -2.9905 -2.0556
  393MOL0     H52991   4.453   7.836   1.999  1.4346  0.3400 -0.9208
  393MOL0     H52992   4.346   7.841   1.730 -0.5565 -1.1751  0.5435
  393MOL0     H52993   4.206   7.850   1.833 -0.5482 -0.1724 -2.4918
  393MOL0     H52994   4.322   8.043   1.960 -0.8840 -1.2284  1.1213
  393MOL0     H52995   4.430   8.053   1.817 -0.4816 -1.0185  1.4465
  393MOL0     H52996   4.178   8.037   1.712  0.9333 -2.3795  2.2227
  393MOL0     H52997   4.132   8.116   1.858 -0.7845 -1.6148 -0.2314
  393MOL0     H52998   4.331   8.288   1.796  1.4894 -1.2993  0.4119
  393MOL0     H52999   4.306   8.203   1.634 -1.6703 -3.3900  1.1434
  393MOL0     H53000   4.050   8.276   1.701 -0.2841  1.3048  0.0143
  393MOL0     H53001   4.140   8.420   1.749  1.2438 -0.2584  0.6212
  393MOL0     H53002   4.247   8.408   1.516 -1.0809  0.7347 -1.0149
  393MOL0     H53003   4.123   8.278   1.481  2.2032 -0.4438 -1.5187
  393MOL0     H53004   4.058   8.563   1.593  0.4951  2.9950 -2.2801
  393MOL0     H53005   3.949   8.447   1.519  0.4323  1.1966  1.8678
  393MOL0     H53006   3.886   8.489   1.279 -0.6613  0.4881 -3.1581
  393MOL0     H53007   4.025   8.723   0.992  1.9884 -1.0164 -0.0638
  393MOL0     H53008   3.943   8.576   0.992  2.4240 -0.1364 -0.0176
  393MOL0     H53009   3.825   8.827   1.013 -2.2390  1.8773  0.7843
  393MOL0     H53010   3.841   8.795   1.180 -1.4428  1.1720 -0.3006
  393MOL0     H53011   3.721   8.576   1.148 -0.3063  0.3044  1.0732
  393MOL0     H53012   3.715   8.612   0.965 -3.2112 -0.3940  0.0066
  393MOL0     H53013   3.548   8.764   1.002  3.1342 -0.2056 -1.1471
  393MOL0     H53014   3.582   8.790   1.181  3.8285  1.5403 -0.1085
  393MOL0     H53015   3.620   8.647   1.361  0.9663 -0.3907  1.6373
  393MOL0     H53016   3.691   8.510   1.562 -0.0097  0.2267 -2.3060
  393MOL0     H53017   3.616   8.677   1.571  1.6967 -0.7280 -1.4616
  393MOL0     H53018   3.566   8.553   1.686 -1.9623 -3.6638 -0.9031
  393MOL0     H53019   2.982   8.282   1.709  1.6216 -0.1932 -4.2130
  393MOL0     H53020   2.905   8.166   1.889 -0.7776  0.8260 -1.6131
  393MOL0     H53021   3.099   7.785   2.002 -1.0343  2.2528 -1.5863
  393MOL0     H53022   3.181   7.885   2.124  0.9532 -3.0491  1.5590
  393MOL0     H53023   2.912   7.760   2.161  0.5440 -1.3823 -0.9039
  393MOL0     H53024   3.070   7.691   2.208 -0.4887 -0.2826  0.7051
  393MOL0     H53025   3.021   7.979   2.281  3.7334 -0.9310 -1.6591
  393MOL0     H53026   3.117   7.852   2.366  0.9186  2.3650  0.5681
  393MOL0     H53027   2.808   7.883   2.395  0.9889  0.3531 -3.3815
  393MOL0     H53028   2.904   7.765   2.464  0.8195  1.7028  2.2583
  393MOL0     H53029   2.930   8.069   2.498  0.4027 -0.9933 -0.0797
  393MOL0     H53030   3.038   7.966   2.572 -0.6019  0.2938 -0.1384
  393MOL0     H53031   2.840   8.030   2.711  0.6171 -0.6561  2.2710
  393MOL0     H53032   2.748   7.897   2.626  0.0770  1.4993 -2.0541
  393MOL0     H53033   3.021   7.881   2.766  0.1750  2.0382 -0.1613
  393MOL0     H53034   2.931   7.740   2.701 -0.8536  0.0569  1.0262
  393MOL0     H53035   2.860   7.720   2.911  1.4451  1.1625 -0.2620
  393MOL0     H53036   2.726   7.832   2.848  0.0310  1.2983 -2.8729
  393MOL0     H53037   3.264   7.932   1.893 -2.1678  0.1856  2.3612
  393MOL0     H53038   3.347   8.078   1.701  0.6622  3.0650 -0.3158
  393MOL0     H53039   3.256   8.328   1.370  0.3547 -0.5357 -0.6040
  393MOL0     H53040   3.299   8.432   1.159 -0.9448 -2.1955  0.9331
  393MOL0     H53041   4.523   7.639   2.131  0.1390  1.5827 -0.3808
  393MOL0     H53042   4.601   7.437   2.227  0.8065 -1.5800 -1.7959
  393MOL0     H53043   4.553   7.003   2.400 -0.2315  1.4523 -1.3250
  393MOL0     H53044   4.688   6.813   2.497 -2.6114  2.3696  1.8410
  393MOL0     H53045   5.112   6.744   2.349 -0.6425  0.0781 -0.2159
  393MOL0     H53046   5.116   6.877   2.463  1.2374 -0.8239 -1.2561
  393MOL0     H53047   5.250   6.680   2.523 -0.4816 -0.2669  1.1652
  393MOL0     H53048   5.107   6.579   2.525  3.2184 -0.3714 -0.6003
  393MOL0     H53049   5.161   6.823   2.715 -1.8342 -0.4364  5.4519
  393MOL0     H53050   5.206   6.659   2.756  0.5830 -0.9720 -1.1661
  393MOL0     H53051   4.912   6.683   2.686  0.8247 -2.1174 -1.4954
  393MOL0     H53052   4.982   6.763   2.831  2.1920  1.1848 -1.9025
  393MOL0     H53053   4.902   6.337   2.915  1.0878 -1.5593 -1.1257
  393MOL0     H53054   5.033   6.954   2.267  0.9170  0.3365  1.5310
  393MOL0     H53055   4.889   7.119   2.173 -1.8450 -1.4866 -2.9394
  394MOL0     O53056   8.003   4.683   9.623  0.5340 -0.2273  0.1375
  394MOL0     C53057   7.897   4.684   9.679 -0.1635  0.5329 -0.3878
  394MOL0     O53058   7.843   4.788   9.753 -0.4011  0.0245  0.2866
  394MOL0     C53059   7.921   4.886   9.803 -0.6582  0.6135  0.9287
  394MOL0     C53060   7.860   5.008   9.789 -0.0188  0.4108  0.2773
  394MOL0     C53061   7.924   5.128   9.826  0.1519  0.6226 -0.0315
  394MOL0     C53062   8.055   5.132   9.883  0.4290  0.8514  0.5483
  394MOL0     O53063   8.127   5.252   9.899  0.1449 -0.5137  0.1305
  394MOL0     C53064   8.048   5.379   9.892  0.2705 -0.2681 -0.1660
  394MOL0     C53065   8.133   5.498   9.928  0.2580 -0.0069 -0.1017
  394MOL0     C53066   8.045   5.634   9.905 -0.5664  1.0386  0.3939
  394MOL0     C53067   7.947   5.694  10.005 -0.2031 -0.4227 -0.7474
  394MOL0     C53068   7.896   5.834   9.961 -0.4616  0.2504  0.6206
  394MOL0     C53069   7.839   5.910  10.080 -0.2421  1.2487  0.0016
  394MOL0     C53070   7.771   6.041  10.039  0.4118 -0.9053 -0.0452
  394MOL0     C53071   7.859   6.160  10.018 -0.5614 -0.5642 -0.8641
  394MOL0     N53072   7.779   6.283  10.005  0.3318 -0.7973 -0.7367
  394MOL0     C53073   7.828   6.402  10.052  0.5538  0.6701  0.4507
  394MOL0     C53074   7.737   6.495  10.006 -0.4114 -0.1720  0.2420
  394MOL0     C53075   7.735   6.648  10.033  0.8927  0.0345 -0.6676
  394MOL0     C53076   7.618   6.676  10.138 -0.8955  1.2109  0.2114
  394MOL0     C53077   7.644   6.595  10.267 -0.6754 -0.5085  0.0149
  394MOL0     C53078   7.537   6.628  10.366 -0.2110 -0.6217  0.9838
  394MOL0     O53079   7.558   6.554  10.488  0.2191 -0.5964 -0.7322
  394MOL0     C53080   7.489   6.584  10.602 -0.2030  0.6702 -0.0005
  394MOL0     C53081   7.363   6.628  10.611  0.0462 -0.4547 -0.0526
  394MOL0     C53082   7.298   6.649  10.732 -0.1941 -0.2726  0.2920
  394MOL0     C53083   7.155   6.695  10.726 -0.2066 -0.1167 -0.0284
  394MOL0     C53084   7.369   6.628  10.849 -0.2619  0.0937  0.2330
  394MOL0     C53085   7.317   6.658  10.987 -0.0561 -0.0186  0.4190
  394MOL0     O53086   7.405   6.696  11.072 -0.6177  0.7842 -0.6912
  394MOL0     C53087   7.370   6.704  11.209  0.1487 -0.6443  0.3153
  394MOL0     C53088   7.313   6.824  11.269 -0.8193  0.7265  0.7705
  394MOL0     C53089   7.253   6.806  11.397 -0.5441 -0.6491  0.4459
  394MOL0     C53090   7.262   6.678  11.462  0.6643  0.7641 -0.7200
  394MOL0     O53091   7.189   6.674  11.581 -0.6996 -0.5404  0.4092
  394MOL0     C53092   7.155   6.551  11.621  0.4861 -0.3986 -0.4258
  394MOL0     C53093   7.089   6.566  11.759  0.6718 -0.3505  0.0329
  394MOL0     C53094   7.175   6.621  11.873 -0.6401  0.1708  0.7103
  394MOL0     C53095   7.112   6.601  12.012 -0.1095  0.0293 -0.7698
  394MOL0     C53096   7.091   6.459  12.074  0.3754 -1.7387 -0.3152
  394MOL0     C53097   7.208   6.374  12.093 -0.4394  0.2314  0.1667
  394MOL0     C53098   7.180   6.228  12.136  1.0173 -0.1607  0.7449
  394MOL0     C53099   7.110   6.203  12.268 -0.3194  0.6366  0.3905
  394MOL0    Cl53100   6.934   6.241  12.258  0.2132 -0.2748  0.2253
  394MOL0     C53101   7.335   6.582  11.395  0.8512  0.0373 -0.1625
  394MOL0     C53102   7.387   6.586  11.273  0.4663  0.2895  0.1527
  394MOL0     O53103   7.199   6.648  11.014  0.3506 -0.1265 -0.3720
  394MOL0     C53104   7.504   6.576  10.841  0.8950  0.0171  0.3081
  394MOL0     C53105   7.560   6.548  10.712 -0.2191  0.6128 -0.3772
  394MOL0     N53106   7.637   6.433   9.941 -0.6346  0.1260  0.8501
  394MOL0     N53107   7.677   6.307   9.931  0.2447 -1.5532 -0.0442
  394MOL0     C53108   8.110   5.007   9.892 -0.3285 -1.9730 -1.3654
  394MOL0     C53109   8.051   4.886   9.857 -0.6052  1.0203  0.6820
  394MOL0     C53110   7.827   4.556   9.673  0.4866 -0.2076 -0.7851
  394MOL0     C53111   7.883   4.432   9.648  0.4755  0.1735  0.4623
  394MOL0     C53112   7.809   4.320   9.619  0.3963 -0.9850 -0.4576
  394MOL0     C53113   7.670   4.325   9.619 -0.1279  0.6791  0.2247
  394MOL0     O53114   7.587   4.221   9.582  0.2938 -0.3268  0.1018
  394MOL0     C53115   7.602   4.196   9.435  1.0408 -0.8204 -0.2144
  394MOL0     C53116   7.683   4.069   9.409  0.4907  0.4366 -0.0049
  394MOL0     C53117   7.626   3.933   9.481  0.5880 -1.2066 -0.3963
  394MOL0     C53118   7.672   3.815   9.407 -0.7632  1.3523  0.9267
  394MOL0     C53119   7.612   3.780   9.277 -0.3430 -0.8490  0.1949
  394MOL0     C53120   7.552   3.773   9.170 -0.4276  0.2018 -0.2498
  394MOL0     C53121   7.613   4.444   9.667  0.1657  0.1240 -0.2967
  394MOL0     C53122   7.688   4.563   9.688 -0.8229  0.4134 -0.2376
  394MOL0     H53123   7.756   5.001   9.761 -0.1022 -1.1332  0.8829
  394MOL0     H53124   7.870   5.221   9.811  2.2997  1.8085 -0.6882
  394MOL0     H53125   8.008   5.384   9.790  0.0875 -0.4616 -0.1061
  394MOL0     H53126   7.958   5.390   9.954 -0.4564  1.9472 -1.4952
  394MOL0     H53127   8.158   5.491  10.034 -1.6708 -1.1443  0.3213
  394MOL0     H53128   8.223   5.495   9.866  2.0746  1.2386  2.2812
  394MOL0     H53129   8.126   5.706   9.898  0.9005 -0.6733 -1.7394
  394MOL0     H53130   7.991   5.626   9.810 -0.2435 -4.3954  0.3561
  394MOL0     H53131   7.859   5.635  10.035 -1.3357  1.6293  0.1651
  394MOL0     H53132   8.006   5.709  10.096 -4.1445 -0.3402  2.0774
  394MOL0     H53133   7.978   5.896   9.923  0.0853 -2.0352 -2.2658
  394MOL0     H53134   7.819   5.843   9.884 -0.4349  1.4241  0.7020
  394MOL0     H53135   7.775   5.853  10.147 -1.0809  1.6215 -0.4712
  394MOL0     H53136   7.918   5.918  10.155  0.5734  1.7780 -0.8822
  394MOL0     H53137   7.705   6.027   9.953 -1.7968  0.8042  1.2445
  394MOL0     H53138   7.700   6.067  10.118 -0.5818  2.1910 -1.7984
  394MOL0     H53139   7.926   6.144   9.934 -0.0158 -2.3519 -0.1423
  394MOL0     H53140   7.927   6.162  10.104  2.3561 -1.8851 -2.9823
  394MOL0     H53141   7.918   6.406  10.113  2.4838 -2.0025 -1.9358
  394MOL0     H53142   7.829   6.697  10.062 -0.7383  1.8132  2.1448
  394MOL0     H53143   7.704   6.695   9.939  0.4870  1.3525  0.0930
  394MOL0     H53144   7.535   6.633  10.082 -1.9604  0.6920  2.1199
  394MOL0     H53145   7.617   6.785  10.149  2.8690  1.5526 -1.1072
  394MOL0     H53146   7.742   6.621  10.307  2.9194 -4.7714 -4.7824
  394MOL0     H53147   7.638   6.489  10.244 -3.1471 -0.9712  2.3383
  394MOL0     H53148   7.453   6.578  10.316  0.8061  0.1568 -1.7230
  394MOL0     H53149   7.531   6.736  10.383  1.9109  0.4170 -3.2696
  394MOL0     H53150   7.303   6.653  10.524 -0.5985  1.8383  0.9634
  394MOL0     H53151   7.158   6.764  10.641 -0.7586  3.2418  2.4420
  394MOL0     H53152   7.078   6.625  10.693 -3.8747  4.0214 -1.3157
  394MOL0     H53153   7.123   6.764  10.805 -1.7256 -1.8520  0.9474
  394MOL0     H53154   7.302   6.918  11.216  3.3161 -0.6429 -3.0791
  394MOL0     H53155   7.207   6.888  11.450  0.2710  0.1803 -0.1029
  394MOL0     H53156   7.101   6.494  11.545  1.3861 -1.2547 -0.4518
  394MOL0     H53157   7.246   6.490  11.634  0.3518 -0.5480 -0.1602
  394MOL0     H53158   6.998   6.624  11.744  0.1109 -1.0153  0.7889
  394MOL0     H53159   7.071   6.459  11.776 -2.4231 -0.2942 -2.0704
  394MOL0     H53160   7.193   6.726  11.852 -2.5515  1.1145  3.3743
  394MOL0     H53161   7.263   6.555  11.867  0.0625  1.1426 -0.0345
  394MOL0     H53162   7.183   6.658  12.072  1.1920 -3.2907  1.1292
  394MOL0     H53163   7.021   6.659  12.029  0.6997  0.2788  3.8747
  394MOL0     H53164   7.025   6.409  12.001  2.6473 -3.4901 -1.3193
  394MOL0     H53165   7.026   6.474  12.160 -1.7244  1.8307 -2.3106
  394MOL0     H53166   7.264   6.369  11.999  0.7916  1.6749  0.7766
  394MOL0     H53167   7.277   6.415  12.167  0.8404 -2.0153  0.3098
  394MOL0     H53168   7.277   6.177  12.143  0.8300 -0.5341  0.6415
  394MOL0     H53169   7.134   6.176  12.052 -0.7884  1.7753  0.4564
  394MOL0     H53170   7.161   6.263  12.344  0.1252  1.1118 -0.2652
  394MOL0     H53171   7.133   6.097  12.286  1.4665  0.2002 -3.4623
  394MOL0     H53172   7.346   6.484  11.439  1.1795  1.0431  2.1661
  394MOL0     H53173   7.437   6.500  11.228  1.7806  0.6129  0.9626
  394MOL0     H53174   7.558   6.560  10.933 -0.8481 -1.8598  1.0901
  394MOL0     H53175   7.660   6.508  10.696 -0.3158  0.6548 -1.1158
  394MOL0     H53176   8.208   5.011   9.940 -0.3378  1.2666 -1.4006
  394MOL0     H53177   8.102   4.790   9.863 -3.1316 -0.3994  1.0400
  394MOL0     H53178   7.988   4.436   9.622  0.4568  3.1612  0.4493
  394MOL0     H53179   7.856   4.224   9.601 -1.0833 -1.2779 -3.2207
  394MOL0     H53180   7.504   4.194   9.387 -1.4152  0.4123  4.1275
  394MOL0     H53181   7.660   4.281   9.399 -2.7263  2.9340  1.6796
  394MOL0     H53182   7.790   4.085   9.424  0.3912  1.0630  0.0281
  394MOL0     H53183   7.669   4.057   9.301  3.3514  1.1560 -0.5453
  394MOL0     H53184   7.518   3.930   9.501  0.7614 -1.6742  0.5115
  394MOL0     H53185   7.669   3.939   9.581 -3.0974 -1.1317  1.3481
  394MOL0     H53186   7.660   3.736   9.481 -1.2189  0.4939 -0.0484
  394MOL0     H53187   7.781   3.821   9.400 -0.6810  0.7298  1.5498
  394MOL0     H53188   7.519   3.769   9.068 -2.3723 -1.9876  0.3761
  394MOL0     H53189   7.505   4.459   9.669 -0.1781 -2.0255  0.5977
  394MOL0     H53190   7.627   4.653   9.697 -3.7490 -1.3051 -1.5316
  395MOL0     O53191   6.912   0.106   0.094 -0.0613  0.3594 -0.6445
  395MOL0     C53192   6.800   0.115   0.155  0.3785 -0.3898 -1.1595
  395MOL0     O53193   6.742   0.238   0.184 -1.0615 -0.3117  0.1235
  395MOL0     C53194   6.808   0.358   0.187  0.2792  0.0865 -0.1053
  395MOL0     C53195   6.946   0.381   0.212 -0.0900  0.6730  0.0046
  395MOL0     C53196   6.997   0.508   0.242  0.0271 -0.5963 -0.7178
  395MOL0     C53197   6.910   0.619   0.239 -0.6954 -0.0031  0.2093
  395MOL0     O53198   6.942   0.751   0.267  1.3295 -0.3228 -0.2510
  395MOL0     C53199   7.078   0.778   0.303  0.1912 -1.0894 -0.6204
  395MOL0     C53200   7.089   0.937   0.322  0.5162  0.4375 -0.3117
  395MOL0     C53201   7.129   0.966   0.464 -0.0577  0.3082 -0.6930
  395MOL0     C53202   7.124   1.113   0.499  0.1916 -0.0705 -0.5029
  395MOL0     C53203   7.259   1.184   0.472  0.7140  0.2613 -0.1268
  395MOL0     C53204   7.268   1.331   0.508 -0.0409  0.8305  0.1410
  395MOL0     C53205   7.282   1.338   0.657  0.5325  0.2401 -2.2829
  395MOL0     C53206   7.311   1.482   0.700 -0.6926  0.6748 -0.2016
  395MOL0     N53207   7.371   1.485   0.840 -0.3874  0.4105 -0.4784
  395MOL0     C53208   7.482   1.557   0.883  0.2209  0.7449 -0.0320
  395MOL0     C53209   7.488   1.547   1.016 -0.5598  0.0334 -0.2031
  395MOL0     C53210   7.582   1.613   1.109  0.3704  0.8208  0.1151
  395MOL0     C53211   7.594   1.540   1.246  0.1068  0.1202  0.6234
  395MOL0     C53212   7.638   1.629   1.364  0.9558  0.0085  0.2237
  395MOL0     C53213   7.673   1.547   1.492  0.2764 -0.0505  0.1662
  395MOL0     O53214   7.750   1.433   1.471 -0.2068 -0.1410  0.1519
  395MOL0     C53215   7.777   1.352   1.579 -0.1822  0.8929  0.4367
  395MOL0     C53216   7.712   1.364   1.702 -0.4526  0.3172  0.1839
  395MOL0     C53217   7.746   1.280   1.807  0.1860  1.0214 -0.4581
  395MOL0     C53218   7.653   1.293   1.924  0.0574 -0.4547 -0.4594
  395MOL0     C53219   7.846   1.178   1.790  0.2536 -0.1879  0.2160
  395MOL0     C53220   7.885   1.082   1.898 -0.0393 -0.5350 -1.2081
  395MOL0     O53221   7.946   0.961   1.850  0.3328  0.5255 -0.4141
  395MOL0     C53222   8.033   0.889   1.924  0.9301  0.0794 -0.2615
  395MOL0     C53223   8.031   0.873   2.064  0.0587 -0.8055 -0.0463
  395MOL0     C53224   8.144   0.814   2.124  0.5426  0.1403 -0.0516
  395MOL0     C53225   8.251   0.758   2.054  0.8782 -1.0056 -0.7158
  395MOL0     O53226   8.352   0.703   2.124  0.2673 -0.4441  0.1030
  395MOL0     C53227   8.321   0.564   2.163  0.2289 -1.0941  0.0659
  395MOL0     C53228   8.357   0.567   2.313  0.5807 -0.0238 -0.3550
  395MOL0     C53229   8.405   0.425   2.361 -0.2901  0.3532 -0.9102
  395MOL0     C53230   8.410   0.439   2.514 -0.4411  0.7472 -0.0104
  395MOL0     C53231   8.469   0.309   2.582  0.2285 -0.6314 -0.0900
  395MOL0     C53232   8.493   0.335   2.725 -1.6993  0.4518 -0.4656
  395MOL0     C53233   8.557   0.220   2.809 -0.2551 -0.8677 -0.1988
  395MOL0     C53234   8.654   0.292   2.905 -0.3176 -0.0818  0.0779
  395MOL0    Cl53235   8.585   0.421   3.008  0.0205  0.0996  0.2083
  395MOL0     C53236   8.245   0.763   1.916  0.5418  1.3934 -1.0397
  395MOL0     C53237   8.145   0.839   1.852 -0.4944  1.0250 -0.4213
  395MOL0     O53238   7.869   1.113   2.015 -0.6794  0.5195  0.3183
  395MOL0     C53239   7.911   1.175   1.667  0.5428  0.4755 -0.1082
  395MOL0     C53240   7.871   1.258   1.560 -0.3164  0.5377  0.6908
  395MOL0     N53241   7.376   1.473   1.058  0.1899 -0.1330  0.7584
  395MOL0     N53242   7.301   1.445   0.950  0.5505 -0.0849 -0.9190
  395MOL0     C53243   6.773   0.599   0.209  0.7336 -0.1626  0.3148
  395MOL0     C53244   6.727   0.468   0.191  0.4259 -0.3401  0.2725
  395MOL0     C53245   6.712  -0.006   0.172 -0.0144  0.0667  0.4563
  395MOL0     C53246   6.577   0.006   0.221  0.9852 -0.4276 -1.0415
  395MOL0     C53247   6.497  -0.108   0.258  0.5564 -0.1583 -0.0587
  395MOL0     C53248   6.547  -0.234   0.227  1.8720 -0.1379 -0.2075
  395MOL0     O53249   6.474  -0.343   0.270  0.6698 -0.1536  0.0269
  395MOL0     C53250   6.547  -0.456   0.324  0.2046  0.1170  0.1829
  395MOL0     C53251   6.464  -0.573   0.278 -0.0589  0.3119 -0.9065
  395MOL0     C53252   6.516  -0.709   0.329  0.3866 -0.5030  0.4354
  395MOL0     C53253   6.634  -0.749   0.252 -0.3065  0.3102  0.5161
  395MOL0     C53254   6.677  -0.888   0.253  0.2893 -1.3336  0.5943
  395MOL0     C53255   6.704  -1.004   0.255  0.4279  0.6685  0.1271
  395MOL0     C53256   6.663  -0.247   0.154 -0.2682  0.4402  0.1497
  395MOL0     C53257   6.754  -0.139   0.138  0.0640 -0.7130  0.2667
  395MOL0     H53258   7.025   0.308   0.195  1.1452  0.9595  3.6361
  395MOL0     H53259   7.103   0.523   0.259 -0.0553  1.3887 -1.5829
  395MOL0     H53260   7.107   0.722   0.392 -3.1666  1.3791  2.2725
  395MOL0     H53261   7.143   0.753   0.218  0.4028 -2.1284 -0.1636
  395MOL0     H53262   7.170   0.974   0.260 -0.9472  1.3410 -1.7620
  395MOL0     H53263   6.987   0.972   0.301  0.0252 -1.2353 -0.9399
  395MOL0     H53264   7.056   0.910   0.523 -1.7951  1.0444 -2.0672
  395MOL0     H53265   7.231   0.929   0.480  0.5055  1.8410 -0.5484
  395MOL0     H53266   7.040   1.167   0.455  3.0419  3.1344 -2.4335
  395MOL0     H53267   7.106   1.121   0.607 -1.1599  3.1849 -0.8705
  395MOL0     H53268   7.336   1.123   0.521  2.1068  0.7375 -1.6398
  395MOL0     H53269   7.270   1.171   0.364 -2.3547  0.7628 -0.5755
  395MOL0     H53270   7.359   1.371   0.463  2.0283 -2.5632  0.9698
  395MOL0     H53271   7.179   1.381   0.469 -0.7754 -1.0946 -0.7814
  395MOL0     H53272   7.203   1.292   0.718  1.4446 -0.3477 -1.5259
  395MOL0     H53273   7.363   1.268   0.679 -0.0764 -0.0502 -0.8037
  395MOL0     H53274   7.225   1.549   0.698 -0.3829  1.0562 -1.6642
  395MOL0     H53275   7.382   1.521   0.627  0.0147 -2.0290 -1.0920
  395MOL0     H53276   7.548   1.616   0.820 -1.8355  1.5819 -1.5234
  395MOL0     H53277   7.681   1.612   1.063 -0.5870  1.9596 -2.1529
  395MOL0     H53278   7.549   1.716   1.123 -3.4716 -0.2399 -0.0865
  395MOL0     H53279   7.661   1.453   1.240  0.0509  0.0310  1.1817
  395MOL0     H53280   7.490   1.510   1.259 -0.7514  0.5392 -3.9046
  395MOL0     H53281   7.558   1.702   1.379  3.1221  2.4903  0.5194
  395MOL0     H53282   7.725   1.692   1.341 -0.1894  1.4649 -0.2920
  395MOL0     H53283   7.576   1.515   1.531 -0.9652  0.6435 -2.1317
  395MOL0     H53284   7.729   1.610   1.562  1.2043 -0.7432  0.0699
  395MOL0     H53285   7.631   1.435   1.713 -0.9945 -0.4406  1.3519
  395MOL0     H53286   7.697   1.326   2.018 -1.3929 -0.6059  0.2988
  395MOL0     H53287   7.570   1.354   1.888 -1.0466 -1.8154 -0.3044
  395MOL0     H53288   7.600   1.200   1.950 -1.9134  0.9128  0.6433
  395MOL0     H53289   7.940   0.918   2.102 -0.8459 -0.1008 -2.7849
  395MOL0     H53290   8.170   0.809   2.230 -0.3436  3.5812  0.4474
  395MOL0     H53291   8.219   0.532   2.139  0.4218 -2.6279  1.1733
  395MOL0     H53292   8.394   0.501   2.111  3.1738  2.4498 -0.4651
  395MOL0     H53293   8.432   0.645   2.329 -2.2610  4.0237 -4.1726
  395MOL0     H53294   8.265   0.596   2.365  0.7414  0.1276 -0.1565
  395MOL0     H53295   8.499   0.403   2.310  1.8952  2.3554  1.9641
  395MOL0     H53296   8.328   0.348   2.347 -0.3640  0.0034  1.1306
  395MOL0     H53297   8.462   0.527   2.554  1.7200 -0.5193  0.1132
  395MOL0     H53298   8.310   0.450   2.556  0.5630  2.6198  2.1139
  395MOL0     H53299   8.567   0.286   2.539  0.3875  3.8281 -2.7684
  395MOL0     H53300   8.399   0.225   2.575  1.8315 -1.9962 -0.1517
  395MOL0     H53301   8.575   0.407   2.721 -0.0889 -1.2341  0.5352
  395MOL0     H53302   8.412   0.383   2.781  0.6328  0.8642  2.8363
  395MOL0     H53303   8.609   0.150   2.743 -1.8867  0.0485 -2.5854
  395MOL0     H53304   8.480   0.171   2.870 -0.5325 -1.4739 -1.0184
  395MOL0     H53305   8.739   0.338   2.853 -2.9436  2.0345 -2.6670
  395MOL0     H53306   8.706   0.221   2.971  0.9981  0.4374 -0.3705
  395MOL0     H53307   8.327   0.715   1.864 -0.5634 -0.6813 -0.9663
  395MOL0     H53308   8.146   0.847   1.744 -1.7014  0.2177 -0.5159
  395MOL0     H53309   7.984   1.098   1.643  0.6785  0.9944 -1.4221
  395MOL0     H53310   7.931   1.255   1.469  0.0742  3.9991  0.7143
  395MOL0     H53311   6.701   0.680   0.206  0.3553 -0.4039  2.0010
  395MOL0     H53312   6.621   0.454   0.173  0.6181  0.6821 -2.0215
  395MOL0     H53313   6.528   0.100   0.246  0.8825 -1.5056  3.4978
  395MOL0     H53314   6.421  -0.083   0.331  0.8223  0.3794  0.0338
  395MOL0     H53315   6.650  -0.462   0.288  0.5370  1.3188  0.8851
  395MOL0     H53316   6.557  -0.464   0.433  1.0683 -1.0542  0.0338
  395MOL0     H53317   6.453  -0.567   0.170 -4.7086  1.0431 -0.5703
  395MOL0     H53318   6.363  -0.563   0.318 -0.3691  0.0371 -1.6094
  395MOL0     H53319   6.440  -0.786   0.315 -0.8942  0.9821 -1.4277
  395MOL0     H53320   6.543  -0.712   0.435 -3.1215 -0.3143  1.4607
  395MOL0     H53321   6.720  -0.689   0.281 -0.6139  0.3327  1.3936
  395MOL0     H53322   6.624  -0.729   0.145 -3.8017  2.8760  1.1603
  395MOL0     H53323   6.732  -1.108   0.253  1.0476  0.7467  2.3446
  395MOL0     H53324   6.703  -0.346   0.135  1.3285  1.4653 -2.3590
  395MOL0     H53325   6.854  -0.158   0.099 -0.5314  0.5113 -2.0231
  396MOL0     O53326  10.861   6.266  11.458 -0.0283  0.5873 -0.4355
  396MOL0     C53327  10.863   6.194  11.354  0.2011 -0.5005  0.2720
  396MOL0     O53328  10.771   6.104  11.318 -0.1896  0.5545  0.5286
  396MOL0     C53329  10.681   6.066  11.420 -0.8035 -0.7991 -0.3102
  396MOL0     C53330  10.563   6.132  11.449 -0.7746 -0.7626  0.2621
  396MOL0     C53331  10.467   6.087  11.548 -0.2485  0.6945  0.8000
  396MOL0     C53332  10.493   5.975  11.615 -0.1811  0.5282 -0.8162
  396MOL0     O53333  10.402   5.952  11.717 -0.4959  0.4718  0.3257
  396MOL0     C53334  10.406   5.842  11.809  0.1007  0.0623 -0.3965
  396MOL0     C53335  10.271   5.848  11.882  0.7798 -0.7300 -0.1212
  396MOL0     C53336  10.238   5.973  11.965 -0.1035 -0.0993 -0.9899
  396MOL0     C53337  10.081   5.989  11.947 -0.3380 -0.5704  0.8921
  396MOL0     C53338  10.035   6.111  12.031 -0.2113  0.6989 -0.1968
  396MOL0     C53339  10.082   6.245  11.989  0.0761 -0.2470  0.6169
  396MOL0     C53340  10.002   6.364  12.055  1.5812  0.0840 -1.0125
  396MOL0     C53341  10.020   6.481  11.956 -0.1095 -0.6531 -0.1607
  396MOL0     N53342   9.941   6.593  12.018 -0.7476 -0.6416  1.2005
  396MOL0     C53343   9.989   6.655  12.136  0.5981 -0.7521 -0.5794
  396MOL0     C53344   9.877   6.733  12.177 -0.9417 -0.3977  0.0257
  396MOL0     C53345   9.871   6.818  12.301  0.4259 -1.4245  0.3420
  396MOL0     C53346   9.819   6.752  12.432  0.0068 -0.6987 -0.1495
  396MOL0     C53347   9.807   6.866  12.544 -0.7902  0.5898 -1.2817
  396MOL0     C53348   9.960   6.901  12.588  0.6330 -0.6689  0.6862
  396MOL0     O53349  10.019   7.008  12.511 -0.5245 -0.4743 -0.4405
  396MOL0     C53350  10.153   7.035  12.517 -0.0804 -0.7114 -0.2350
  396MOL0     C53351  10.215   7.093  12.406 -0.2254 -0.2148  0.6116
  396MOL0     C53352  10.349   7.134  12.401 -0.3792  0.9215 -0.8496
  396MOL0     C53353  10.394   7.201  12.272 -0.4545  0.1979 -0.3953
  396MOL0     C53354  10.427   7.110  12.519  0.2798 -0.0160 -0.1551
  396MOL0     C53355  10.572   7.148  12.536  0.0290  0.5052 -0.7094
  396MOL0     O53356  10.654   7.082  12.614  0.5953  0.4368  0.9796
  396MOL0     C53357  10.783   7.126  12.635  0.2447 -0.5205  0.5518
  396MOL0     C53358  10.834   7.175  12.753 -0.1999 -0.5954 -0.0380
  396MOL0     C53359  10.973   7.214  12.763 -0.5584  0.5955 -0.1406
  396MOL0     C53360  11.060   7.214  12.648  0.0476 -0.8056 -0.2325
  396MOL0     O53361  11.178   7.266  12.640 -1.1356 -0.8843 -0.3180
  396MOL0     C53362  11.208   7.366  12.735 -0.5204 -1.8026  0.1911
  396MOL0     C53363  11.326   7.459  12.696  0.0754 -0.5674  0.3482
  396MOL0     C53364  11.308   7.504  12.548 -0.3750 -0.3056  0.4306
  396MOL0     C53365  11.401   7.623  12.515  0.2877  0.5318 -0.4780
  396MOL0     C53366  11.369   7.678  12.374 -1.2572 -0.7011 -0.2672
  396MOL0     C53367  11.349   7.832  12.375 -0.2518  0.6944  0.2881
  396MOL0     C53368  11.472   7.922  12.387  0.2837  0.6204 -0.3970
  396MOL0     C53369  11.420   8.064  12.402 -0.0740 -0.4645 -0.4502
  396MOL0    Cl53370  11.563   8.176  12.389  0.5741 -0.0899  0.3195
  396MOL0     C53371  10.996   7.176  12.531 -0.4483 -0.5075  0.4165
  396MOL0     C53372  10.867   7.127  12.520  0.3920  0.1615 -0.5614
  396MOL0     O53373  10.601   7.245  12.467 -0.5570  0.0348  0.1387
  396MOL0     C53374  10.365   7.045  12.635 -0.1649 -1.3049 -0.6462
  396MOL0     C53375  10.237   6.999  12.635 -0.1605  0.8711  0.0062
  396MOL0     N53376   9.789   6.734  12.069  0.3479 -0.9447 -0.8381
  396MOL0     N53377   9.832   6.654  11.977 -0.1556 -1.6036 -0.6903
  396MOL0     C53378  10.600   5.892  11.571 -0.3241 -0.8673  0.2771
  396MOL0     C53379  10.695   5.937  11.479  0.1351  0.0281  0.4264
  396MOL0     C53380  10.972   6.226  11.258 -0.9704 -0.2436 -1.3036
  396MOL0     C53381  11.088   6.301  11.301  0.4394  0.7101  0.0042
  396MOL0     C53382  11.184   6.335  11.209  0.1023 -0.5313 -0.6677
  396MOL0     C53383  11.186   6.297  11.076  0.3614  0.6962 -0.4309
  396MOL0     O53384  11.278   6.340  10.984 -0.5100  0.1172 -0.3987
  396MOL0     C53385  11.368   6.455  11.018 -0.2192 -0.5696  0.0831
  396MOL0     C53386  11.274   6.587  11.015  0.3433 -0.2127  0.0155
  396MOL0     C53387  11.339   6.712  11.078  0.4514 -0.0209 -0.4672
  396MOL0     C53388  11.291   6.719  11.221  0.7533  0.2724  0.6274
  396MOL0     C53389  11.375   6.823  11.287  0.7637  0.5667 -0.3555
  396MOL0     C53390  11.426   6.918  11.347 -0.6738 -1.3227  0.1331
  396MOL0     C53391  11.067   6.225  11.034 -0.0088 -0.3338  0.2877
  396MOL0     C53392  10.966   6.191  11.121  0.7940  0.3422 -0.1784
  396MOL0     H53393  10.555   6.224  11.391 -1.9603  1.2894  3.4355
  396MOL0     H53394  10.380   6.147  11.572 -1.6315  0.5221 -3.0853
  396MOL0     H53395  10.415   5.749  11.753  0.4771 -0.3281  0.3013
  396MOL0     H53396  10.493   5.854  11.874 -0.0564  3.5306 -0.5920
  396MOL0     H53397  10.195   5.835  11.804 -0.7948  0.7063  1.0914
  396MOL0     H53398  10.264   5.761  11.948 -2.6593  0.9735  2.1111
  396MOL0     H53399  10.265   5.957  12.070 -0.8314 -1.6806 -1.0036
  396MOL0     H53400  10.284   6.064  11.927 -1.4277  0.6250 -0.9263
  396MOL0     H53401  10.048   5.994  11.843 -0.5050  0.7906  0.9863
  396MOL0     H53402  10.032   5.898  11.981 -3.3003  0.0716 -1.2723
  396MOL0     H53403   9.926   6.106  12.017 -0.1060 -2.0663 -0.6243
  396MOL0     H53404  10.050   6.093  12.138 -2.0836 -0.4976 -0.0894
  396MOL0     H53405  10.185   6.254  12.023 -0.3181  1.2295  1.5112
  396MOL0     H53406  10.081   6.241  11.880  0.5862  0.2343  0.5899
  396MOL0     H53407   9.899   6.348  12.088  2.1025 -0.8088  0.2261
  396MOL0     H53408  10.034   6.389  12.156 -1.3518  4.1374 -0.8315
  396MOL0     H53409   9.972   6.451  11.863 -2.1934  0.8351  0.3500
  396MOL0     H53410  10.124   6.505  11.932 -0.8907  0.1530 -3.1024
  396MOL0     H53411  10.088   6.668  12.179  1.4203 -0.4407 -2.4615
  396MOL0     H53412   9.972   6.851  12.327 -0.2608 -0.6850  2.1938
  396MOL0     H53413   9.817   6.913  12.294  2.0792 -0.2805  2.0815
  396MOL0     H53414   9.891   6.678  12.468  3.1629  2.1612 -0.0866
  396MOL0     H53415   9.723   6.708  12.403  0.5382 -0.8925 -1.6748
  396MOL0     H53416   9.752   6.825  12.629  1.7798  1.7806  1.1025
  396MOL0     H53417   9.765   6.961  12.508  1.4747  2.8530  1.6136
  396MOL0     H53418  10.021   6.812  12.569  2.2856  0.4997  0.2200
  396MOL0     H53419   9.970   6.934  12.692  0.7207  0.1374  0.4299
  396MOL0     H53420  10.146   7.128  12.330 -0.7281  1.5048  1.7991
  396MOL0     H53421  10.426   7.304  12.290 -1.0866  0.2063  0.7768
  396MOL0     H53422  10.473   7.141  12.226  1.0046  1.3968  0.4655
  396MOL0     H53423  10.316   7.214  12.197  1.3828 -3.3439 -3.2610
  396MOL0     H53424  10.777   7.194  12.844  0.1227 -2.1817  0.5330
  396MOL0     H53425  11.014   7.246  12.859 -1.0100 -0.4922  0.4303
  396MOL0     H53426  11.127   7.438  12.752  2.6129  1.5044  2.6827
  396MOL0     H53427  11.229   7.316  12.830  0.0369 -0.6342  0.7098
  396MOL0     H53428  11.338   7.545  12.763  0.6551  0.3212 -0.8688
  396MOL0     H53429  11.412   7.393  12.705 -1.0488 -2.2295 -0.6037
  396MOL0     H53430  11.205   7.536  12.534 -1.1313 -3.2692 -1.6473
  396MOL0     H53431  11.330   7.416  12.486  0.1459 -2.0914  2.9851
  396MOL0     H53432  11.385   7.691  12.598  1.1431 -2.6577  2.5642
  396MOL0     H53433  11.504   7.586  12.520 -0.2035 -2.0985 -4.7627
  396MOL0     H53434  11.272   7.633  12.351 -1.2482 -0.0995 -1.5474
  396MOL0     H53435  11.444   7.642  12.304 -0.4133  1.2073 -0.3822
  396MOL0     H53436  11.286   7.859  12.289 -2.6609 -2.5246  0.8498
  396MOL0     H53437  11.285   7.840  12.464 -0.1175  2.0039  0.2940
  396MOL0     H53438  11.528   7.913  12.294  1.2056 -0.7119  0.2527
  396MOL0     H53439  11.537   7.885  12.467 -1.5857 -0.8718  0.5250
  396MOL0     H53440  11.382   8.067  12.504  2.4078 -1.9980  0.6070
  396MOL0     H53441  11.343   8.097  12.331  0.6760 -0.3343 -1.2172
  396MOL0     H53442  11.064   7.169  12.447 -2.6892 -0.2510 -1.4939
  396MOL0     H53443  10.819   7.101  12.426 -1.4543 -1.0011  0.6279
  396MOL0     H53444  10.426   7.036  12.723 -2.9524  1.0959  1.7720
  396MOL0     H53445  10.198   6.947  12.721 -1.1974  0.2836 -0.7983
  396MOL0     H53446  10.605   5.786  11.594 -2.0012 -1.2297 -0.8677
  396MOL0     H53447  10.765   5.861  11.447 -0.9268 -1.3011  1.1667
  396MOL0     H53448  11.113   6.328  11.403 -2.4176  3.3023  0.1576
  396MOL0     H53449  11.267   6.392  11.249 -2.2649  1.4480  1.7798
  396MOL0     H53450  11.411   6.443  11.118  0.1004  1.6138  0.2562
  396MOL0     H53451  11.449   6.469  10.945  1.1211 -0.7924  1.4767
  396MOL0     H53452  11.179   6.571  11.066  2.3827 -0.3154  4.1712
  396MOL0     H53453  11.255   6.623  10.913  1.7442  3.4736  0.9206
  396MOL0     H53454  11.318   6.808  11.030 -0.0913 -0.3297 -0.8555
  396MOL0     H53455  11.448   6.700  11.076  0.1742 -5.0439  0.5830
  396MOL0     H53456  11.302   6.627  11.278  1.4522  0.5628  0.9749
  396MOL0     H53457  11.189   6.757  11.209  1.1179  0.6307 -1.8820
  396MOL0     H53458  11.485   6.994  11.393 -2.0576 -1.8148  2.8868
  396MOL0     H53459  11.047   6.191  10.933  1.1838 -2.5470  0.7481
  396MOL0     H53460  10.872   6.147  11.088  1.3003 -1.5412  0.7532
  397MOL0     O53461   5.727   6.668   7.676 -0.1088  0.2821  0.6899
  397MOL0     C53462   5.818   6.731   7.629 -0.1453 -0.1897 -1.1518
  397MOL0     O53463   5.953   6.683   7.619  0.4882 -0.5506 -0.0086
  397MOL0     C53464   5.975   6.567   7.678  0.5043 -0.3695  0.7239
  397MOL0     C53465   6.050   6.561   7.792 -0.3929  0.2683 -1.6425
  397MOL0     C53466   6.073   6.440   7.851 -0.0032  0.3264 -0.5926
  397MOL0     C53467   6.032   6.319   7.804 -0.3571 -0.3595 -0.4332
  397MOL0     O53468   6.054   6.211   7.883  0.3676  0.4544  1.0648
  397MOL0     C53469   6.040   6.079   7.822  0.2670 -0.5846 -1.0792
  397MOL0     C53470   5.899   6.023   7.798  0.2867 -0.2803 -1.0169
  397MOL0     C53471   5.882   5.900   7.882 -0.6074  0.7630  0.6631
  397MOL0     C53472   5.745   5.833   7.894  1.3106  0.7945 -0.7842
  397MOL0     C53473   5.753   5.698   7.965 -0.5008 -0.7371  0.2574
  397MOL0     C53474   5.807   5.581   7.884  0.2112 -0.1596 -0.0404
  397MOL0     C53475   5.794   5.443   7.952  0.6666 -0.3426 -0.6032
  397MOL0     C53476   5.854   5.332   7.868 -0.2974  0.2073  0.2789
  397MOL0     N53477   5.831   5.195   7.920  0.2157  0.5446  0.0386
  397MOL0     C53478   5.706   5.142   7.908  0.1962  0.4008 -0.2644
  397MOL0     C53479   5.710   5.030   7.979  0.5576 -0.3393 -0.4059
  397MOL0     C53480   5.594   4.941   7.999  0.2307  0.1520  0.1875
  397MOL0     C53481   5.544   4.949   8.144 -0.1883  0.4952 -0.1114
  397MOL0     C53482   5.450   4.833   8.161  0.1860 -0.3981 -0.3125
  397MOL0     C53483   5.361   4.873   8.281  0.1421 -0.3093 -0.2334
  397MOL0     O53484   5.278   4.759   8.291 -0.1141  0.5112 -0.2684
  397MOL0     C53485   5.169   4.776   8.362  1.1278  1.4798 -0.5153
  397MOL0     C53486   5.050   4.725   8.318 -0.1268 -0.2245  0.0059
  397MOL0     C53487   4.929   4.745   8.387  0.8742 -0.2621 -0.4226
  397MOL0     C53488   4.811   4.682   8.326 -0.3942 -0.7548  0.0142
  397MOL0     C53489   4.922   4.801   8.520  0.2776  0.0642  0.0703
  397MOL0     C53490   4.795   4.832   8.594  0.7503  0.4153 -0.2839
  397MOL0     O53491   4.804   4.922   8.699 -0.9267  0.1880  0.1773
  397MOL0     C53492   4.710   4.927   8.794 -0.4421  0.4602  0.6522
  397MOL0     C53493   4.611   5.025   8.786  0.1511 -0.8134 -0.2516
  397MOL0     C53494   4.513   5.035   8.891 -0.3650 -0.4100  0.0957
  397MOL0     C53495   4.521   4.952   9.006  0.3176  0.2059  0.3672
  397MOL0     O53496   4.426   4.951   9.107  0.2087  0.1440 -0.1595
  397MOL0     C53497   4.403   5.080   9.171 -0.4973  0.7621 -0.3520
  397MOL0     C53498   4.482   5.079   9.296  0.2266 -0.0176 -0.7685
  397MOL0     C53499   4.478   5.216   9.360  0.9001  0.2911 -0.0408
  397MOL0     C53500   4.553   5.224   9.492 -0.0741 -0.2360 -0.9121
  397MOL0     C53501   4.635   5.350   9.490  1.0355  0.1363 -0.4426
  397MOL0     C53502   4.694   5.384   9.635 -0.5693  0.5916 -0.0746
  397MOL0     C53503   4.588   5.424   9.741  0.1404 -0.1362  0.0801
  397MOL0     C53504   4.528   5.551   9.689  0.1789 -0.5992  0.2552
  397MOL0    Cl53505   4.422   5.609   9.822 -0.0973  0.2169 -0.2103
  397MOL0     C53506   4.620   4.851   9.010  0.5320  0.0654  0.3299
  397MOL0     C53507   4.714   4.839   8.905 -0.5851 -0.4824  0.1663
  397MOL0     O53508   4.695   4.774   8.563  0.3383  0.6894  0.8983
  397MOL0     C53509   5.046   4.838   8.571  0.0529 -0.5120 -0.5015
  397MOL0     C53510   5.167   4.830   8.494 -0.1068  0.4202 -0.8214
  397MOL0     N53511   5.836   4.998   8.005 -0.9914  1.0876  0.5439
  397MOL0     N53512   5.919   5.101   7.973 -0.4376  0.5588  0.3619
  397MOL0     C53513   5.951   6.319   7.690  0.7707 -0.6049 -0.3076
  397MOL0     C53514   5.920   6.446   7.628  0.5161 -0.0514  0.3623
  397MOL0     C53515   5.791   6.861   7.563 -0.3314  1.0791  0.4439
  397MOL0     C53516   5.855   6.893   7.442  0.3151  0.1730 -0.3481
  397MOL0     C53517   5.814   7.003   7.367  0.4556 -0.2319  0.2527
  397MOL0     C53518   5.719   7.098   7.414 -1.2539 -0.4474 -0.5488
  397MOL0     O53519   5.703   7.210   7.341 -0.5160  1.0925 -0.0196
  397MOL0     C53520   5.608   7.303   7.392 -0.5353 -0.2304  0.6273
  397MOL0     C53521   5.611   7.419   7.283 -1.0983  0.1557 -0.4264
  397MOL0     C53522   5.722   7.523   7.301 -0.2361 -0.2603  0.2594
  397MOL0     C53523   5.804   7.548   7.170  0.3428 -0.9619 -0.2537
  397MOL0     C53524   5.912   7.459   7.139  0.7484  1.0060 -0.4976
  397MOL0     C53525   5.991   7.369   7.136 -0.6908  0.6354 -0.9253
  397MOL0     C53526   5.668   7.069   7.544 -0.2363 -0.0906  0.1002
  397MOL0     C53527   5.702   6.950   7.618 -0.0152 -0.1979 -1.3373
  397MOL0     H53528   6.093   6.648   7.843  0.4939 -1.4506  0.7142
  397MOL0     H53529   6.136   6.431   7.938  1.4137 -1.0218 -1.6911
  397MOL0     H53530   6.080   6.081   7.721  0.7847 -1.0011 -0.8901
  397MOL0     H53531   6.107   6.017   7.883  3.1456  0.7956 -2.6528
  397MOL0     H53532   5.824   6.097   7.826  1.5340  0.5840  0.1549
  397MOL0     H53533   5.881   6.010   7.691 -3.9276  1.0141 -0.6362
  397MOL0     H53534   5.951   5.823   7.848 -0.4112  0.5938  1.4370
  397MOL0     H53535   5.904   5.933   7.984 -0.0069  1.0706  0.4348
  397MOL0     H53536   5.677   5.887   7.959  0.0380  1.6908 -2.7571
  397MOL0     H53537   5.700   5.821   7.795  0.0143 -1.5557  0.0186
  397MOL0     H53538   5.815   5.705   8.056 -0.3384 -1.3834  0.2008
  397MOL0     H53539   5.657   5.670   8.008 -0.8118  1.0975  0.8332
  397MOL0     H53540   5.763   5.586   7.784  0.2756  2.4979 -0.0150
  397MOL0     H53541   5.915   5.593   7.876  0.0686 -0.2244 -3.3542
  397MOL0     H53542   5.823   5.444   8.058 -0.7436 -0.8499 -0.1906
  397MOL0     H53543   5.690   5.419   7.974  0.1535  2.4977  0.5875
  397MOL0     H53544   5.962   5.347   7.876 -0.2089 -0.6351  0.8558
  397MOL0     H53545   5.824   5.325   7.763 -0.6243 -0.8662  0.4259
  397MOL0     H53546   5.615   5.182   7.866  1.1716  3.5720  0.3484
  397MOL0     H53547   5.520   4.965   7.921 -0.3243  0.5387  0.8209
  397MOL0     H53548   5.625   4.837   7.990 -2.0418 -0.4908 -1.0326
  397MOL0     H53549   5.487   5.043   8.151 -0.0948  0.6526 -1.2435
  397MOL0     H53550   5.626   4.930   8.213 -0.3621  1.6972  0.4594
  397MOL0     H53551   5.492   4.735   8.186 -0.1367 -0.3155  0.5838
  397MOL0     H53552   5.386   4.826   8.073 -1.0667 -1.9047  0.6615
  397MOL0     H53553   5.306   4.966   8.262  3.4491  1.8258 -0.1944
  397MOL0     H53554   5.417   4.885   8.374 -1.4814  1.0136  0.6426
  397MOL0     H53555   5.056   4.680   8.219 -0.3386 -2.3339  0.8865
  397MOL0     H53556   4.724   4.746   8.345  1.1808  1.9039 -1.0177
  397MOL0     H53557   4.818   4.664   8.218 -2.6968 -0.7416 -0.1932
  397MOL0     H53558   4.790   4.584   8.369 -1.5154 -0.7206 -0.4235
  397MOL0     H53559   4.619   5.099   8.707  1.1947  0.2625  0.8230
  397MOL0     H53560   4.439   5.114   8.885  0.4831  0.2888 -1.8929
  397MOL0     H53561   4.426   5.164   9.104  1.2290  1.5761  1.2074
  397MOL0     H53562   4.296   5.080   9.195 -0.6644  2.0569 -0.9967
  397MOL0     H53563   4.440   5.007   9.366  0.6870  0.4743  0.0365
  397MOL0     H53564   4.584   5.062   9.260 -0.3094 -1.0505 -1.8399
  397MOL0     H53565   4.374   5.234   9.390  0.2886 -2.5625 -0.1314
  397MOL0     H53566   4.513   5.284   9.283  2.5988 -0.1240  0.3374
  397MOL0     H53567   4.481   5.212   9.573  0.5119  1.3563 -0.1167
  397MOL0     H53568   4.617   5.135   9.491 -1.2042 -1.0700 -2.0331
  397MOL0     H53569   4.577   5.433   9.448 -2.6897 -0.7084  2.4860
  397MOL0     H53570   4.718   5.330   9.421  1.8610 -1.4203  0.9090
  397MOL0     H53571   4.752   5.300   9.675 -0.2453  0.6659 -0.3876
  397MOL0     H53572   4.752   5.476   9.625 -1.1004  0.6970 -3.1951
  397MOL0     H53573   4.622   5.450   9.842  1.2038  3.6448 -1.1044
  397MOL0     H53574   4.510   5.349   9.760 -2.5721  2.0256 -1.8105
  397MOL0     H53575   4.467   5.535   9.599  0.0296 -0.1248  0.2683
  397MOL0     H53576   4.599   5.627   9.656  0.0258 -1.2775 -1.7262
  397MOL0     H53577   4.607   4.776   9.087 -4.1458 -1.2016 -1.3525
  397MOL0     H53578   4.800   4.774   8.915  1.2039  1.8412  0.8214
  397MOL0     H53579   5.036   4.891   8.665  1.5101 -0.1323 -0.5456
  397MOL0     H53580   5.257   4.874   8.537  0.9019 -0.1696 -2.2217
  397MOL0     H53581   5.894   6.233   7.657 -2.0075  0.4851  1.3418
  397MOL0     H53582   5.873   6.448   7.530  1.1966 -5.0590 -0.3273
  397MOL0     H53583   5.930   6.822   7.406 -1.6206 -2.1981  0.0259
  397MOL0     H53584   5.859   7.021   7.270 -2.0833 -0.0073 -0.9766
  397MOL0     H53585   5.513   7.249   7.389  0.1288 -1.3982 -0.9365
  397MOL0     H53586   5.624   7.350   7.489  0.8185  4.6058 -1.6178
  397MOL0     H53587   5.512   7.465   7.290  0.1110  2.6820  2.2309
  397MOL0     H53588   5.623   7.366   7.188 -0.9761 -0.5685 -0.0134
  397MOL0     H53589   5.798   7.506   7.378  1.6713  2.1557 -0.9571
  397MOL0     H53590   5.677   7.622   7.313  1.2177  0.2612  1.8269
  397MOL0     H53591   5.852   7.645   7.189 -3.5472  1.2315 -0.5600
  397MOL0     H53592   5.738   7.556   7.083 -2.0966  1.5714  1.6473
  397MOL0     H53593   6.056   7.284   7.148 -1.7908  0.0031  1.0421
  397MOL0     H53594   5.595   7.143   7.576  0.0079  1.0885 -1.8843
  397MOL0     H53595   5.641   6.918   7.702  0.0853  1.8538 -0.4521
  398MOL0     O53596   1.110   0.438   8.753 -0.7361 -0.5338  0.4531
  398MOL0     C53597   1.164   0.390   8.657  0.0281 -0.5412 -0.0486
  398MOL0     O53598   1.097   0.359   8.544  0.7141  0.2652 -0.4369
  398MOL0     C53599   0.990   0.445   8.513  0.2344 -0.8865  0.2408
  398MOL0     C53600   0.998   0.542   8.409 -0.3605  0.6438  0.0776
  398MOL0     C53601   0.889   0.616   8.376 -0.1314 -0.7342  1.3279
  398MOL0     C53602   0.770   0.615   8.448  0.1110 -0.8158 -0.9930
  398MOL0     O53603   0.665   0.684   8.405 -0.1951 -0.1084  0.1290
  398MOL0     C53604   0.560   0.742   8.479 -0.3912  0.1166 -1.7143
  398MOL0     C53605   0.592   0.816   8.615 -0.3978  0.3325 -0.4695
  398MOL0     C53606   0.681   0.942   8.602 -0.8379  0.0128 -0.0424
  398MOL0     C53607   0.728   0.983   8.745  0.6095 -0.1803  0.8584
  398MOL0     C53608   0.781   1.122   8.757  0.3788 -0.3485  0.6609
  398MOL0     C53609   0.825   1.149   8.902 -0.6369 -0.4992 -0.6005
  398MOL0     C53610   0.894   1.287   8.913  0.8022  0.3875 -0.1664
  398MOL0     C53611   0.793   1.407   8.887 -0.1023 -0.0897  0.1003
  398MOL0     N53612   0.864   1.530   8.920 -0.6356  0.7217  0.9681
  398MOL0     C53613   0.882   1.592   9.043 -0.7424  0.1546  0.1299
  398MOL0     C53614   0.957   1.701   9.025  0.4057 -0.3331 -0.0769
  398MOL0     C53615   0.972   1.806   9.134  0.4244 -0.1361 -0.6247
  398MOL0     C53616   1.115   1.835   9.180  0.4422 -0.1915 -0.9175
  398MOL0     C53617   1.155   1.877   9.322  0.6511  1.0271  0.3289
  398MOL0     C53618   1.043   1.957   9.379  0.2129 -0.5857 -0.0557
  398MOL0     O53619   1.049   2.077   9.304 -0.2708  0.2316  0.0641
  398MOL0     C53620   0.950   2.164   9.308 -0.3202 -0.5788 -0.6555
  398MOL0     C53621   0.871   2.185   9.202 -0.1122  0.0057  0.2175
  398MOL0     C53622   0.760   2.269   9.205  0.5058 -0.5255  1.1845
  398MOL0     C53623   0.677   2.277   9.080  0.5468 -0.0691 -0.0845
  398MOL0     C53624   0.742   2.348   9.321 -0.4952  0.1008  1.2164
  398MOL0     C53625   0.630   2.451   9.339  0.3982  0.5198 -0.5401
  398MOL0     O53626   0.647   2.521   9.455 -0.1033 -0.3923 -0.6314
  398MOL0     C53627   0.580   2.644   9.452  0.7921  0.3873  0.4614
  398MOL0     C53628   0.625   2.753   9.373  1.1535  0.6402 -1.9748
  398MOL0     C53629   0.579   2.886   9.396  1.1366 -0.2478 -0.0361
  398MOL0     C53630   0.470   2.908   9.474 -1.0016 -0.3865  0.4969
  398MOL0     O53631   0.397   3.022   9.480 -0.6384  0.1198  0.9721
  398MOL0     C53632   0.446   3.142   9.409 -0.1747  0.1962  1.3908
  398MOL0     C53633   0.383   3.276   9.467  0.0977  0.7266 -0.3079
  398MOL0     C53634   0.480   3.389   9.454 -0.7082  0.5137  0.1500
  398MOL0     C53635   0.578   3.389   9.578 -0.3042  0.5680  0.0587
  398MOL0     C53636   0.654   3.515   9.596  0.2248  0.3004  0.4143
  398MOL0     C53637   0.748   3.487   9.717  0.8828  0.7992  1.1041
  398MOL0     C53638   0.830   3.615   9.734 -0.2055 -1.1235 -0.5154
  398MOL0     C53639   0.949   3.583   9.828  0.4291  0.4170 -0.7459
  398MOL0    Cl53640   1.055   3.726   9.851 -0.0381 -0.1635  0.4046
  398MOL0     C53641   0.435   2.801   9.563  1.4630  0.0562  0.6882
  398MOL0     C53642   0.495   2.673   9.557 -0.2952 -1.0453 -0.5816
  398MOL0     O53643   0.530   2.460   9.259  0.1740  0.1716  0.0053
  398MOL0     C53644   0.820   2.320   9.439  0.1988  0.2763  0.5006
  398MOL0     C53645   0.932   2.236   9.425  0.9577  0.5265  0.1272
  398MOL0     N53646   0.977   1.713   8.882  0.2455  0.0081 -0.8036
  398MOL0     N53647   0.921   1.611   8.829 -0.0498 -1.1628  0.6288
  398MOL0     C53648   0.766   0.518   8.549 -0.3713 -0.2929 -0.6022
  398MOL0     C53649   0.865   0.433   8.579 -0.6282 -0.7901 -1.0439
  398MOL0     C53650   1.307   0.353   8.679 -0.2773 -0.1948  1.7260
  398MOL0     C53651   1.378   0.295   8.577  0.0490 -0.0554 -0.2192
  398MOL0     C53652   1.509   0.250   8.594  0.1171  0.0360  0.6845
  398MOL0     C53653   1.574   0.258   8.718  0.7191  1.1015  1.0858
  398MOL0     O53654   1.697   0.199   8.731  0.3153 -0.6976  0.2300
  398MOL0     C53655   1.766   0.207   8.860 -0.4608 -0.4791 -0.3025
  398MOL0     C53656   1.721   0.108   8.968 -0.8794 -0.8967  0.1675
  398MOL0     C53657   1.746  -0.032   8.926  0.3559  0.0768 -0.7172
  398MOL0     C53658   1.892  -0.069   8.938  0.8237 -0.0215 -0.2095
  398MOL0     C53659   1.923  -0.088   9.084  0.7886 -0.7890 -0.4308
  398MOL0     C53660   1.957  -0.105   9.193  1.1062  0.6645 -0.2297
  398MOL0     C53661   1.518   0.343   8.812  1.0299 -0.1488 -0.0186
  398MOL0     C53662   1.381   0.383   8.795 -0.8312 -0.0239 -0.9988
  398MOL0     H53663   1.091   0.555   8.353 -0.4601  0.9919 -0.0089
  398MOL0     H53664   0.897   0.691   8.297 -1.6228  0.4263  2.2008
  398MOL0     H53665   0.509   0.803   8.404 -0.5924 -1.4056 -2.8519
  398MOL0     H53666   0.496   0.657   8.505 -0.3360  0.4723 -0.3190
  398MOL0     H53667   0.502   0.834   8.675 -0.3815 -0.8128 -0.0748
  398MOL0     H53668   0.640   0.740   8.677 -0.8005  1.8333  1.7979
  398MOL0     H53669   0.762   0.907   8.538 -2.2515  1.0273 -2.5722
  398MOL0     H53670   0.651   1.032   8.547  1.7645 -0.4753 -2.5278
  398MOL0     H53671   0.647   0.978   8.819 -0.0495 -2.6224  0.0518
  398MOL0     H53672   0.807   0.914   8.776 -1.2053 -0.7749  4.9204
  398MOL0     H53673   0.869   1.116   8.693  0.1961  0.1574  0.3604
  398MOL0     H53674   0.707   1.200   8.736 -2.8846 -3.1121  1.0316
  398MOL0     H53675   0.736   1.159   8.966  1.3754  1.7597  2.0989
  398MOL0     H53676   0.884   1.069   8.947 -1.0252 -0.8740 -0.7553
  398MOL0     H53677   0.928   1.302   9.016  0.4674  2.5847 -0.3284
  398MOL0     H53678   0.984   1.298   8.852  0.9809 -2.2531 -0.4542
  398MOL0     H53679   0.699   1.402   8.944  0.4130 -0.2181  0.9550
  398MOL0     H53680   0.770   1.407   8.780  0.7348  0.6066 -0.0843
  398MOL0     H53681   0.848   1.553   9.138  0.5654 -0.7079  0.2663
  398MOL0     H53682   0.926   1.900   9.101  0.2782  0.6045  1.5378
  398MOL0     H53683   0.907   1.769   9.214 -0.6341  0.3514 -1.2367
  398MOL0     H53684   1.166   1.909   9.118  1.6422 -0.7940 -0.6881
  398MOL0     H53685   1.177   1.748   9.154 -0.2647 -1.6678  1.8965
  398MOL0     H53686   1.253   1.924   9.316  0.9732  0.6172  1.8670
  398MOL0     H53687   1.165   1.787   9.384  1.0385  0.6104 -0.3264
  398MOL0     H53688   1.053   1.988   9.483 -0.2811  1.3753 -0.5618
  398MOL0     H53689   0.944   1.911   9.378 -1.3076  2.4547 -1.0093
  398MOL0     H53690   0.910   2.127   9.119 -1.1462  0.0011 -0.2809
  398MOL0     H53691   0.589   2.215   9.099  1.7993 -2.4308 -1.5071
  398MOL0     H53692   0.650   2.381   9.063  1.9589  0.0859 -1.6288
  398MOL0     H53693   0.728   2.251   8.986  0.7297  3.5533 -1.1267
  398MOL0     H53694   0.710   2.736   9.307  3.1781  1.3671  0.3235
  398MOL0     H53695   0.627   2.958   9.329  1.0713 -1.9255 -1.9822
  398MOL0     H53696   0.555   3.151   9.422 -0.1124 -0.3174  1.2570
  398MOL0     H53697   0.427   3.138   9.302 -1.4250  0.9175  1.5660
  398MOL0     H53698   0.284   3.289   9.421  0.3249  1.1754 -0.6905
  398MOL0     H53699   0.375   3.247   9.572  3.4445 -4.4347 -1.1127
  398MOL0     H53700   0.428   3.481   9.428 -0.1963 -0.0656 -3.5501
  398MOL0     H53701   0.550   3.362   9.374  0.6363 -1.7103  1.9277
  398MOL0     H53702   0.519   3.364   9.667 -0.2861 -0.6000 -0.2424
  398MOL0     H53703   0.652   3.309   9.567 -0.8246  0.4279 -3.4179
  398MOL0     H53704   0.586   3.599   9.614 -0.4743 -0.4002  1.1677
  398MOL0     H53705   0.707   3.545   9.506 -1.4789  1.8883 -0.1168
  398MOL0     H53706   0.693   3.454   9.805 -2.2421  0.9015 -0.6588
  398MOL0     H53707   0.806   3.401   9.681 -4.7169 -3.0395 -0.1012
  398MOL0     H53708   0.763   3.692   9.772 -0.6535 -1.0190 -1.4901
  398MOL0     H53709   0.871   3.663   9.645  1.8710 -1.6016  0.1127
  398MOL0     H53710   0.999   3.502   9.775 -3.0358 -1.7145 -1.0183
  398MOL0     H53711   0.904   3.535   9.915 -2.8860 -0.7761 -2.9377
  398MOL0     H53712   0.366   2.820   9.644 -2.4280  1.3090 -2.5919
  398MOL0     H53713   0.462   2.606   9.636 -1.8084  2.5151  2.0648
  398MOL0     H53714   0.809   2.366   9.537 -1.6706  0.7510  0.1121
  398MOL0     H53715   1.003   2.225   9.506  1.3321 -1.2365 -0.3909
  398MOL0     H53716   0.670   0.508   8.598  0.0269  2.6257  0.9348
  398MOL0     H53717   0.868   0.374   8.670  1.4676  0.4336 -0.2415
  398MOL0     H53718   1.323   0.284   8.484 -0.7896  1.9050 -0.0197
  398MOL0     H53719   1.549   0.190   8.513 -1.7675  2.2770 -2.0944
  398MOL0     H53720   1.872   0.200   8.834 -0.6827 -0.8135 -1.1364
  398MOL0     H53721   1.757   0.295   8.925 -3.3193  0.0359 -1.2461
  398MOL0     H53722   1.615   0.116   8.994 -0.6377 -1.3491  1.3387
  398MOL0     H53723   1.767   0.117   9.067  3.3368 -2.0444 -1.4445
  398MOL0     H53724   1.712  -0.054   8.824 -1.0225  1.7494 -0.6478
  398MOL0     H53725   1.684  -0.099   8.986  0.3128  0.1850 -0.6417
  398MOL0     H53726   1.956   0.004   8.887  1.0244 -0.6084 -0.8193
  398MOL0     H53727   1.903  -0.162   8.882 -3.2876 -0.8980  0.1139
  398MOL0     H53728   1.962  -0.119   9.299 -1.7951  1.8436  0.1750
  398MOL0     H53729   1.568   0.371   8.903  0.6921 -0.8757  0.3983
  398MOL0     H53730   1.335   0.436   8.878 -0.9346  0.7068 -1.5096
  399MOL0     O53731   8.197   5.034   0.508 -1.1038 -1.2502 -0.0582
  399MOL0     C53732   8.163   5.093   0.406  0.1597  0.1056  0.1722
  399MOL0     O53733   8.112   5.023   0.297  0.5271  0.5837  0.8835
  399MOL0     C53734   8.108   4.883   0.293  0.2985 -0.4127  0.5140
  399MOL0     C53735   8.166   4.811   0.182  0.5434  0.3151 -0.6699
  399MOL0     C53736   8.171   4.675   0.193 -0.3855  0.0837 -0.3872
  399MOL0     C53737   8.119   4.603   0.305  0.2966  0.5837  0.9693
  399MOL0     O53738   8.132   4.466   0.300 -0.2356  0.5370  0.2427
  399MOL0     C53739   8.257   4.400   0.261  0.7347  0.0727 -0.0337
  399MOL0     C53740   8.210   4.284   0.176  0.3167  0.7194  0.0121
  399MOL0     C53741   8.190   4.321   0.032 -0.0835  0.3090  1.0726
  399MOL0     C53742   8.144   4.204  -0.059  0.5144 -0.2921 -0.4592
  399MOL0     C53743   8.243   4.090  -0.092  0.3683 -0.5320 -0.5663
  399MOL0     C53744   8.370   4.138  -0.166  0.6408 -0.2250 -0.2072
  399MOL0     C53745   8.448   4.011  -0.202 -0.2217  0.1316 -0.4501
  399MOL0     C53746   8.509   3.960  -0.079  0.2949  0.1351 -0.3009
  399MOL0     N53747   8.628   4.031  -0.044 -0.8293 -0.0522  0.1493
  399MOL0     C53748   8.757   3.981  -0.075 -0.1302 -0.5249 -0.0510
  399MOL0     C53749   8.847   4.049  -0.002 -0.7896  1.0175 -0.1328
  399MOL0     C53750   8.991   4.011  -0.007  0.3701 -0.0148  0.6714
  399MOL0     C53751   9.047   4.073  -0.141  0.9081 -0.6247 -0.4691
  399MOL0     C53752   9.191   4.123  -0.121 -0.1481 -0.3882  0.3269
  399MOL0     C53753   9.307   4.031  -0.090 -0.0551 -0.2935 -0.0356
  399MOL0     O53754   9.289   3.982   0.037  0.5224 -0.8651  0.0784
  399MOL0     C53755   9.402   3.912   0.081  0.4356  0.1919 -0.5112
  399MOL0     C53756   9.523   3.890   0.011  0.2223  0.2310  0.4996
  399MOL0     C53757   9.629   3.815   0.057  0.0585 -0.3520  0.9937
  399MOL0     C53758   9.763   3.837  -0.022  0.4510  0.1890  0.3305
  399MOL0     C53759   9.619   3.757   0.187  0.0560 -0.2457 -0.8696
  399MOL0     C53760   9.719   3.662   0.252  0.6400 -0.5552 -0.5792
  399MOL0     O53761   9.756   3.561   0.161 -0.8140  0.0336 -0.0059
  399MOL0     C53762   9.864   3.469   0.184  0.3324  0.2913  0.3087
  399MOL0     C53763   9.848   3.338   0.136 -0.1635  0.7435  0.5130
  399MOL0     C53764   9.957   3.245   0.159  1.3649 -0.5067 -0.3671
  399MOL0     C53765  10.075   3.269   0.245 -0.0085 -0.1048  0.0706
  399MOL0     O53766  10.158   3.167   0.275  0.2495  0.8078  0.4894
  399MOL0     C53767  10.276   3.193   0.350  0.0132 -0.0315  1.1692
  399MOL0     C53768  10.378   3.250   0.246  0.0682  0.1451 -0.6876
  399MOL0     C53769  10.521   3.254   0.314  0.0161 -0.3116  0.1940
  399MOL0     C53770  10.635   3.268   0.204 -0.2288  0.4001 -0.4874
  399MOL0     C53771  10.755   3.323   0.281  0.0306  0.9292 -0.4062
  399MOL0     C53772  10.882   3.331   0.189  0.1009  0.2634 -0.0744
  399MOL0     C53773  10.875   3.459   0.109  0.1716 -0.1469  0.5650
  399MOL0     C53774  10.896   3.582   0.200 -0.1811 -0.1313 -0.0011
  399MOL0    Cl53775  10.875   3.732   0.107  0.5290  0.1963  0.4490
  399MOL0     C53776  10.081   3.406   0.292  0.0963 -0.0396 -0.0268
  399MOL0     C53777   9.986   3.508   0.258 -0.0645  0.5051  0.2316
  399MOL0     O53778   9.746   3.668   0.374  0.4540 -0.0888 -0.1431
  399MOL0     C53779   9.492   3.763   0.256 -0.5831  0.8454  0.1303
  399MOL0     C53780   9.387   3.836   0.198  0.6813 -0.2598  0.1716
  399MOL0     N53781   8.776   4.153   0.069 -0.8898 -0.0975 -0.3773
  399MOL0     N53782   8.643   4.138   0.046 -0.7514  0.6542  0.3262
  399MOL0     C53783   8.071   4.676   0.406  0.3603  0.4013  0.5065
  399MOL0     C53784   8.058   4.811   0.401 -0.3791 -0.5917  0.1918
  399MOL0     C53785   8.130   5.238   0.401  1.0600  0.0601  0.1932
  399MOL0     C53786   8.110   5.306   0.276 -0.5193 -0.7866 -0.0246
  399MOL0     C53787   8.098   5.451   0.272 -0.4036 -0.4631 -0.1908
  399MOL0     C53788   8.099   5.523   0.394  0.7200 -0.1420  0.2998
  399MOL0     O53789   8.072   5.660   0.413 -0.0234  0.1283 -0.8105
  399MOL0     C53790   8.083   5.758   0.298  0.2933  0.4134  0.6343
  399MOL0     C53791   8.222   5.759   0.225  0.4665 -0.1863  1.1761
  399MOL0     C53792   8.229   5.864   0.118  0.2780 -0.3003  0.4374
  399MOL0     C53793   8.239   6.014   0.167  0.7801  0.0100 -1.4884
  399MOL0     C53794   8.104   6.070   0.184 -0.8566 -1.2576  0.5635
  399MOL0     C53795   8.005   6.128   0.214 -0.0948  0.5662 -0.4430
  399MOL0     C53796   8.121   5.451   0.511  1.0798 -0.2897 -0.1548
  399MOL0     C53797   8.135   5.314   0.515  0.9188 -0.1312  0.5581
  399MOL0     H53798   8.189   4.869   0.094 -1.9792  2.2119 -0.2108
  399MOL0     H53799   8.224   4.626   0.112  1.1840  2.0321 -0.6096
  399MOL0     H53800   8.319   4.468   0.202 -0.7246  0.5943 -1.0415
  399MOL0     H53801   8.310   4.362   0.349 -0.0541  0.9510  0.8454
  399MOL0     H53802   8.296   4.216   0.183  0.2636  0.7572  1.1866
  399MOL0     H53803   8.123   4.242   0.227 -1.0216  0.4368 -2.3318
  399MOL0     H53804   8.116   4.399   0.011  1.1775  1.3969  0.5539
  399MOL0     H53805   8.290   4.348  -0.002 -0.2506  0.3042  0.5629
  399MOL0     H53806   8.048   4.154  -0.037  1.6724 -3.0629 -1.2235
  399MOL0     H53807   8.133   4.251  -0.157  1.0713 -0.6106 -0.6791
  399MOL0     H53808   8.256   4.041   0.004  2.2070 -0.0778 -0.5464
  399MOL0     H53809   8.193   4.014  -0.153  1.1401 -0.5178 -1.2321
  399MOL0     H53810   8.340   4.170  -0.265 -1.2732 -1.9979 -0.2608
  399MOL0     H53811   8.436   4.214  -0.123  2.1980 -1.8506  0.4591
  399MOL0     H53812   8.394   3.928  -0.250  1.8249 -1.1717 -0.6121
  399MOL0     H53813   8.523   4.019  -0.281 -1.6611 -2.1241 -2.1646
  399MOL0     H53814   8.532   3.854  -0.095 -0.8293  0.0157 -1.1974
  399MOL0     H53815   8.460   3.971   0.018  3.7186  1.2064  1.4991
  399MOL0     H53816   8.774   3.894  -0.137 -0.1869 -2.1754  2.1415
  399MOL0     H53817   9.043   4.059   0.077  2.1277  2.1484 -1.5275
  399MOL0     H53818   9.003   3.902  -0.003 -2.1727 -0.4369 -0.8533
  399MOL0     H53819   8.986   4.159  -0.169  2.8665  0.3870 -1.9123
  399MOL0     H53820   9.052   3.988  -0.211 -2.7977 -1.0459 -0.4276
  399MOL0     H53821   9.182   4.199  -0.043 -0.4968  0.6148 -0.6759
  399MOL0     H53822   9.206   4.157  -0.224 -2.0557 -0.4364  0.0034
  399MOL0     H53823   9.400   4.088  -0.098  0.4464 -1.2844 -1.8588
  399MOL0     H53824   9.307   3.949  -0.163  3.7465 -0.9211  0.4694
  399MOL0     H53825   9.535   3.938  -0.086  1.4426  0.1713  0.6144
  399MOL0     H53826   9.799   3.938   0.002 -1.9784  0.7828  1.8079
  399MOL0     H53827   9.835   3.765   0.018 -0.7736 -0.0691  2.1865
  399MOL0     H53828   9.753   3.820  -0.130  2.5347 -2.5573  0.4533
  399MOL0     H53829   9.763   3.310   0.074  0.0978  1.5029 -0.2040
  399MOL0     H53830   9.958   3.145   0.117 -1.6724  0.5776 -3.4994
  399MOL0     H53831  10.265   3.265   0.432 -0.6681 -0.5133  1.5086
  399MOL0     H53832  10.313   3.093   0.372 -1.1196 -0.5365  0.8575
  399MOL0     H53833  10.374   3.182   0.160 -0.9653  1.7310 -1.9493
  399MOL0     H53834  10.355   3.351   0.211 -0.2126 -0.2261 -1.6101
  399MOL0     H53835  10.522   3.159   0.369 -6.6918 -0.0845  1.5829
  399MOL0     H53836  10.515   3.337   0.386 -2.5404 -0.2525  0.0220
  399MOL0     H53837  10.652   3.174   0.151 -1.1012 -0.4957  0.7706
  399MOL0     H53838  10.612   3.340   0.125 -1.1925  0.4255 -0.1964
  399MOL0     H53839  10.771   3.243   0.354 -2.5662  0.5278 -0.1700
  399MOL0     H53840  10.730   3.411   0.341  0.2279  0.1845  0.8226
  399MOL0     H53841  10.973   3.328   0.251 -0.2118 -2.5322  0.3860
  399MOL0     H53842  10.893   3.235   0.138  3.5737 -0.2682  1.3333
  399MOL0     H53843  10.783   3.475   0.052  0.8724 -1.1174 -0.9234
  399MOL0     H53844  10.954   3.459   0.033  2.2838  0.9892  2.6234
  399MOL0     H53845  10.997   3.575   0.242 -0.3347 -1.3152  0.2070
  399MOL0     H53846  10.841   3.591   0.295  0.9121 -3.0733  1.0123
  399MOL0     H53847  10.172   3.439   0.341 -0.1699 -0.0282  0.4750
  399MOL0     H53848  10.017   3.604   0.297 -0.8532  1.0530 -0.4476
  399MOL0     H53849   9.481   3.707   0.349 -0.6588  0.0400 -0.3578
  399MOL0     H53850   9.291   3.844   0.248  2.6787  1.6068  4.1381
  399MOL0     H53851   8.042   4.617   0.492 -0.4189 -1.0294 -0.6847
  399MOL0     H53852   8.026   4.875   0.483  2.1035  1.8661 -0.6077
  399MOL0     H53853   8.105   5.262   0.176  0.7649 -0.2143 -0.3563
  399MOL0     H53854   8.086   5.509   0.181 -0.3983 -1.0797 -0.5982
  399MOL0     H53855   8.014   5.736   0.216  1.7034 -0.1774 -0.4350
  399MOL0     H53856   8.067   5.857   0.342 -0.2213 -0.2647  2.0440
  399MOL0     H53857   8.234   5.668   0.166 -0.8006  0.6638 -0.4689
  399MOL0     H53858   8.304   5.769   0.297 -0.0996 -0.1794  1.8377
  399MOL0     H53859   8.143   5.854   0.051  0.6236 -1.3141  0.1409
  399MOL0     H53860   8.317   5.853   0.054 -0.2266  3.3088 -1.1156
  399MOL0     H53861   8.297   6.074   0.096 -0.5049  0.4982 -2.1568
  399MOL0     H53862   8.272   6.024   0.271 -0.4533 -0.3331 -1.0530
  399MOL0     H53863   7.917   6.182   0.243 -0.2614 -0.1637  0.4478
  399MOL0     H53864   8.111   5.491   0.611 -0.1907 -1.0458  0.0445
  399MOL0     H53865   8.156   5.253   0.603  0.4809  0.0957  0.8205
  400MOL0     O53866   9.265   1.578   3.179  0.3401 -0.6707  0.0173
  400MOL0     C53867   9.243   1.652   3.092 -0.3768 -0.0213  0.2694
  400MOL0     O53868   9.255   1.616   2.968  0.1090 -0.0083 -0.7550
  400MOL0     C53869   9.221   1.491   2.927  0.2812 -0.1983  0.7391
  400MOL0     C53870   9.121   1.410   2.978 -0.4986  0.0413  0.1687
  400MOL0     C53871   9.080   1.290   2.911 -0.2916  0.2648 -0.5626
  400MOL0     C53872   9.144   1.256   2.789  1.1851 -0.0575 -0.7475
  400MOL0     O53873   9.121   1.147   2.705 -0.9265  0.4236 -0.2665
  400MOL0     C53874   9.017   1.054   2.727 -0.6554  0.9858 -0.0455
  400MOL0     C53875   8.882   1.115   2.704 -0.4116  0.4227  0.8321
  400MOL0     C53876   8.838   1.133   2.552 -0.1797 -0.0124 -0.2279
  400MOL0     C53877   8.801   1.278   2.538  0.3994 -1.3745  0.1567
  400MOL0     C53878   8.920   1.373   2.535  0.3977  0.4270 -0.3209
  400MOL0     C53879   9.020   1.336   2.418  0.3084 -0.0330 -0.3334
  400MOL0     C53880   9.056   1.459   2.328  0.4408  0.3971  0.1580
  400MOL0     C53881   9.175   1.411   2.236 -0.6565 -0.7846 -0.3102
  400MOL0     N53882   9.127   1.337   2.124 -0.6773  0.2034 -0.5335
  400MOL0     C53883   9.030   1.378   2.037 -0.3138  0.2444  0.2779
  400MOL0     C53884   9.004   1.282   1.956  0.6415 -0.3737  0.2604
  400MOL0     C53885   8.907   1.284   1.842 -0.6160  0.0432  0.3776
  400MOL0     C53886   8.911   1.420   1.773 -0.2875 -0.6047  0.7934
  400MOL0     C53887   8.892   1.417   1.626 -0.0961  0.2670 -0.1398
  400MOL0     C53888   8.875   1.564   1.572 -0.2949  0.2477  0.0534
  400MOL0     O53889   8.868   1.555   1.424  0.7833 -0.0737 -0.5724
  400MOL0     C53890   8.827   1.663   1.350  0.9517  0.1682 -0.0232
  400MOL0     C53891   8.921   1.740   1.284 -0.0916  0.6284 -0.1875
  400MOL0     C53892   8.894   1.852   1.206 -0.0956 -0.5045  0.5604
  400MOL0     C53893   9.007   1.947   1.170 -0.5506 -0.4705 -0.3277
  400MOL0     C53894   8.762   1.873   1.171  0.1868 -0.0350 -0.3180
  400MOL0     C53895   8.719   1.984   1.079  0.3621 -1.4153  0.6344
  400MOL0     O53896   8.580   2.009   1.079 -1.0816  0.3520  0.1706
  400MOL0     C53897   8.538   2.110   0.994 -0.3848 -0.4489  0.4319
  400MOL0     C53898   8.478   2.088   0.865 -0.6047  0.0549 -0.2125
  400MOL0     C53899   8.453   2.191   0.782  0.5787 -0.2537 -0.2899
  400MOL0     C53900   8.449   2.318   0.829  1.1093 -0.1803 -0.5375
  400MOL0     O53901   8.409   2.426   0.754  0.4531  0.8776  0.1236
  400MOL0     C53902   8.290   2.420   0.661  0.1645  0.7675 -0.4686
  400MOL0     C53903   8.260   2.559   0.611 -0.0474 -0.1246  0.1284
  400MOL0     C53904   8.241   2.663   0.734  0.1142 -0.0639 -0.2128
  400MOL0     C53905   8.367   2.744   0.779 -0.5369  1.1645 -0.2745
  400MOL0     C53906   8.343   2.818   0.905  0.3453 -0.5685 -0.8195
  400MOL0     C53907   8.450   2.885   0.986  0.8578  0.2520 -0.3929
  400MOL0     C53908   8.591   2.829   0.977 -0.1823 -0.1863  0.8032
  400MOL0     C53909   8.678   2.868   1.090 -0.1772  0.1847 -0.6913
  400MOL0    Cl53910   8.735   3.041   1.065 -0.4274 -0.0944  0.5106
  400MOL0     C53911   8.503   2.342   0.957  0.4808  0.2702  0.7140
  400MOL0     C53912   8.551   2.241   1.034 -0.1376 -0.2615  0.9008
  400MOL0     O53913   8.794   2.037   1.005 -0.2454  0.2116  0.5786
  400MOL0     C53914   8.666   1.786   1.230  0.1478  0.5086  0.2217
  400MOL0     C53915   8.700   1.687   1.319  0.4040 -0.1788  0.3749
  400MOL0     N53916   9.087   1.171   1.990 -0.5987 -0.2188 -0.4911
  400MOL0     N53917   9.162   1.208   2.090 -0.1405 -0.5945 -0.4360
  400MOL0     C53918   9.239   1.345   2.736  0.6378  1.1483 -0.5720
  400MOL0     C53919   9.284   1.453   2.806  0.4952 -0.1327 -0.0188
  400MOL0     C53920   9.196   1.781   3.130  0.2046  0.2318  0.6138
  400MOL0     C53921   9.219   1.836   3.256 -0.1696 -0.6031 -1.0608
  400MOL0     C53922   9.154   1.961   3.287 -0.9298 -0.2042 -0.2875
  400MOL0     C53923   9.071   2.032   3.202 -0.1384  0.3693 -0.1001
  400MOL0     O53924   9.029   2.160   3.244  0.3049  0.5521  1.1045
  400MOL0     C53925   8.927   2.220   3.150  0.0273 -0.3209 -0.1299
  400MOL0     C53926   8.787   2.153   3.139 -0.4137  0.4001  0.1119
  400MOL0     C53927   8.714   2.182   3.003  0.2933 -0.0374 -0.1323
  400MOL0     C53928   8.647   2.321   2.997  0.6868  0.5277 -0.3280
  400MOL0     C53929   8.733   2.439   3.011  0.5241  0.7765  0.0278
  400MOL0     C53930   8.805   2.532   3.000 -0.1795 -0.8636  0.2618
  400MOL0     C53931   9.065   1.985   3.070  0.1150 -0.5485 -0.5526
  400MOL0     C53932   9.121   1.863   3.037  0.0473  0.2093  0.4211
  400MOL0     H53933   9.064   1.449   3.062  1.2067 -2.0471  2.4661
  400MOL0     H53934   9.007   1.226   2.959  1.5696 -2.6638 -1.3486
  400MOL0     H53935   9.041   0.967   2.664  0.0180  1.0711  0.0852
  400MOL0     H53936   9.007   1.021   2.830 -1.9807 -0.5143 -0.6016
  400MOL0     H53937   8.808   1.041   2.736  0.4151 -0.4797  0.7045
  400MOL0     H53938   8.863   1.208   2.758 -1.3424  1.3280 -0.9690
  400MOL0     H53939   8.904   1.106   2.469 -0.0221 -1.3604  0.3172
  400MOL0     H53940   8.746   1.076   2.536  1.2845 -1.9599 -2.4024
  400MOL0     H53941   8.747   1.297   2.445  1.0056  2.3701  0.3924
  400MOL0     H53942   8.735   1.313   2.618 -1.6690  1.8503 -2.6975
  400MOL0     H53943   8.889   1.477   2.521  2.8152  1.3634  0.7537
  400MOL0     H53944   8.969   1.362   2.632 -0.1411 -0.4368 -0.1334
  400MOL0     H53945   9.105   1.301   2.478  0.3437  2.3727  1.1473
  400MOL0     H53946   8.987   1.262   2.344  1.4446  1.9707 -3.0369
  400MOL0     H53947   8.964   1.483   2.275  0.7817 -1.3711 -1.3332
  400MOL0     H53948   9.094   1.542   2.389  0.3607  1.2989 -0.9871
  400MOL0     H53949   9.239   1.343   2.293 -3.6806 -2.0382  1.8344
  400MOL0     H53950   9.222   1.498   2.191 -0.3110 -0.1379  1.2296
  400MOL0     H53951   8.994   1.479   2.023  1.9435  0.9697 -0.8296
  400MOL0     H53952   8.946   1.217   1.765  0.8799  0.8943  0.3586
  400MOL0     H53953   8.807   1.260   1.879 -0.4894 -0.2176  0.5531
  400MOL0     H53954   9.004   1.475   1.790 -1.3222  1.3612  0.3879
  400MOL0     H53955   8.832   1.484   1.815 -1.4604 -1.3371 -0.2370
  400MOL0     H53956   8.801   1.362   1.600 -0.1466  1.1493 -1.9791
  400MOL0     H53957   8.978   1.380   1.569 -0.1794  4.1838 -3.2673
  400MOL0     H53958   8.962   1.622   1.601  1.1230 -2.3553  1.3608
  400MOL0     H53959   8.779   1.592   1.617 -1.2039 -1.5877 -0.6100
  400MOL0     H53960   9.024   1.713   1.302 -0.0269  1.2996  0.5196
  400MOL0     H53961   8.986   2.052   1.194  2.0126  0.1776 -0.6321
  400MOL0     H53962   9.094   1.933   1.234 -1.7885  0.9196  1.7615
  400MOL0     H53963   9.028   1.951   1.063  1.7484 -3.0118 -0.0615
  400MOL0     H53964   8.468   1.987   0.827 -2.9997 -0.3623  1.3334
  400MOL0     H53965   8.413   2.163   0.685  1.8205  1.4433 -1.3455
  400MOL0     H53966   8.300   2.356   0.573 -2.2406  2.3690 -2.0485
  400MOL0     H53967   8.205   2.379   0.717  0.2255  0.7225 -0.4094
  400MOL0     H53968   8.345   2.596   0.554 -0.2954 -1.6627 -1.3136
  400MOL0     H53969   8.169   2.553   0.552  0.3763 -0.4643 -0.5003
  400MOL0     H53970   8.194   2.612   0.818 -0.8964 -2.4340 -2.0775
  400MOL0     H53971   8.160   2.725   0.693 -1.7353 -2.1649  0.0898
  400MOL0     H53972   8.446   2.673   0.806  0.7314  2.8710  0.6714
  400MOL0     H53973   8.395   2.817   0.702 -0.2534  0.2860 -1.0243
  400MOL0     H53974   8.293   2.754   0.978  1.2994 -1.2105 -0.7197
  400MOL0     H53975   8.274   2.896   0.869  0.7262 -0.0602 -0.4538
  400MOL0     H53976   8.455   2.992   0.962  2.0503 -0.0809 -1.7475
  400MOL0     H53977   8.426   2.872   1.092  2.7465  1.0808  0.1950
  400MOL0     H53978   8.633   2.858   0.880 -1.9492  0.0846  0.0683
  400MOL0     H53979   8.585   2.720   0.981 -1.7754 -0.1640  0.0111
  400MOL0     H53980   8.766   2.804   1.094  0.6403  1.2377 -1.2107
  400MOL0     H53981   8.626   2.853   1.185  0.2890  0.0417 -0.4598
  400MOL0     H53982   8.510   2.445   0.991 -1.5343  0.8204 -0.4318
  400MOL0     H53983   8.602   2.259   1.128 -0.6654  3.6965  0.5679
  400MOL0     H53984   8.563   1.803   1.202  0.6398  0.4807 -1.7839
  400MOL0     H53985   8.627   1.618   1.361 -0.3506  0.9585  1.0101
  400MOL0     H53986   9.267   1.336   2.632 -0.2942  2.8294 -1.0007
  400MOL0     H53987   9.355   1.522   2.763 -1.6559  2.5768  0.4671
  400MOL0     H53988   9.280   1.768   3.315 -1.7267 -0.5919  0.6325
  400MOL0     H53989   9.181   2.005   3.383  0.2222  1.8327 -1.4844
  400MOL0     H53990   8.910   2.317   3.197  2.1911 -0.8090  1.8076
  400MOL0     H53991   8.965   2.226   3.047 -1.5148  0.2249 -0.6889
  400MOL0     H53992   8.726   2.184   3.224  1.4444 -0.6741  1.9349
  400MOL0     H53993   8.814   2.048   3.134  0.3743  0.6245 -0.6644
  400MOL0     H53994   8.632   2.114   2.980  0.0415 -0.2692  1.3972
  400MOL0     H53995   8.786   2.159   2.924  0.6544  1.3426 -0.2334
  400MOL0     H53996   8.570   2.325   3.074  0.9900  1.0891 -0.0492
  400MOL0     H53997   8.581   2.341   2.912  0.6221 -0.0685 -0.4176
  400MOL0     H53998   8.867   2.615   2.976  1.4032 -1.9325  0.4716
  400MOL0     H53999   9.018   2.037   2.987  0.7481 -3.9776 -3.2740
  400MOL0     H54000   9.101   1.833   2.934  1.4830 -0.9526  0.4318
  401MOL0     O54001   9.731  10.777   1.451 -0.9280 -0.1229 -0.1698
  401MOL0     C54002   9.633  10.736   1.506  0.7750  0.0213  1.8079
  401MOL0     O54003   9.533  10.816   1.567 -0.4335  0.0257  0.5866
  401MOL0     C54004   9.566  10.941   1.612  0.8614  0.0114  0.0012
  401MOL0     C54005   9.451  11.018   1.601 -0.4296  0.1117  0.0650
  401MOL0     C54006   9.470  11.154   1.619 -0.1476  0.5095 -0.4083
  401MOL0     C54007   9.592  11.208   1.653 -0.3643 -0.0121  0.2112
  401MOL0     O54008   9.603  11.347   1.668 -0.2904  0.0345  0.1393
  401MOL0     C54009   9.711  11.421   1.614  0.5857 -0.0211 -0.7588
  401MOL0     C54010   9.639  11.566   1.602 -0.3140  1.2545  0.4027
  401MOL0     C54011   9.719  11.671   1.524 -0.2789 -0.6934  0.1466
  401MOL0     C54012   9.634  11.790   1.465 -0.4524 -0.0037  0.6221
  401MOL0     C54013   9.655  11.911   1.558  1.0940 -0.8818 -0.3766
  401MOL0     C54014   9.573  12.027   1.519  0.0282  0.1346  0.2153
  401MOL0     C54015   9.426  11.997   1.528 -0.5306  0.4429  0.3457
  401MOL0     C54016   9.341  12.123   1.558 -0.9774 -0.0217  0.5820
  401MOL0     N54017   9.321  12.221   1.446 -0.7872  0.1820 -0.9242
  401MOL0     C54018   9.416  12.303   1.383 -0.1968  0.7759 -0.1327
  401MOL0     C54019   9.356  12.383   1.294 -0.0259 -1.4374  0.0115
  401MOL0     C54020   9.421  12.472   1.206 -0.7008 -0.5115 -0.4309
  401MOL0     C54021   9.422  12.421   1.056 -0.5027 -0.0804  0.1905
  401MOL0     C54022   9.470  12.523   0.953 -0.3501  0.3461  0.9893
  401MOL0     C54023   9.389  12.644   0.940 -0.1701  0.6011  0.6482
  401MOL0     O54024   9.457  12.739   0.871 -0.6239 -0.1794  0.8008
  401MOL0     C54025   9.401  12.816   0.775  0.3749  0.4371 -0.0830
  401MOL0     C54026   9.445  12.943   0.734  0.3824 -0.3220 -0.8911
  401MOL0     C54027   9.395  13.016   0.622  0.5407  0.4414  0.1631
  401MOL0     C54028   9.449  13.152   0.587  0.2669  0.3317  0.0896
  401MOL0     C54029   9.297  12.952   0.542  0.2416  0.1218  0.2711
  401MOL0     C54030   9.234  13.023   0.428  0.3664  0.1800  0.7044
  401MOL0     O54031   9.248  12.965   0.301  0.1394  0.4946  0.2234
  401MOL0     C54032   9.222  13.046   0.196  0.1417 -0.3889  0.3296
  401MOL0     C54033   9.318  13.144   0.176 -0.0290  0.0467  0.2016
  401MOL0     C54034   9.300  13.232   0.067 -0.5025  0.9904 -0.6492
  401MOL0     C54035   9.195  13.225  -0.016 -0.0124  0.1727 -0.1062
  401MOL0     O54036   9.211  13.298  -0.130  0.4959  0.2034  0.2256
  401MOL0     C54037   9.112  13.399  -0.147  0.2200  0.3120 -0.6706
  401MOL0     C54038   9.127  13.465  -0.276  0.7946 -0.1892 -0.5077
  401MOL0     C54039   9.037  13.591  -0.293  1.1380  0.1329 -0.7070
  401MOL0     C54040   8.901  13.534  -0.346  0.0447 -1.0801  0.1788
  401MOL0     C54041   8.803  13.646  -0.394 -0.3868 -0.7579  0.2767
  401MOL0     C54042   8.755  13.718  -0.268  0.6574  0.5574  0.3306
  401MOL0     C54043   8.655  13.825  -0.305 -0.3855  0.1343  0.1788
  401MOL0     C54044   8.650  13.947  -0.209  0.0889 -0.8059  0.3237
  401MOL0    Cl54045   8.550  14.088  -0.271  0.3304  0.1880  0.3226
  401MOL0     C54046   9.102  13.118   0.009 -0.3490  0.3140  0.6264
  401MOL0     C54047   9.122  13.026   0.110  0.0497  0.7312  0.0739
  401MOL0     O54048   9.171  13.129   0.450  0.6118 -0.1577 -0.3809
  401MOL0     C54049   9.266  12.815   0.574 -0.3793 -0.2159  0.3442
  401MOL0     C54050   9.317  12.754   0.687  0.4766  0.7883  0.8637
  401MOL0     N54051   9.227  12.351   1.307 -0.2394  0.2263  0.1993
  401MOL0     N54052   9.202  12.247   1.386  0.1507  0.2292 -1.0414
  401MOL0     C54053   9.701  11.125   1.672 -0.3009  0.0503  1.1176
  401MOL0     C54054   9.691  10.986   1.651 -1.0162  0.3223  0.1371
  401MOL0     C54055   9.597  10.594   1.483  0.8234 -0.5465 -0.8488
  401MOL0     C54056   9.675  10.510   1.403 -0.0210 -0.6800 -0.0725
  401MOL0     C54057   9.631  10.381   1.384 -0.2967  0.8028 -1.1670
  401MOL0     C54058   9.517  10.331   1.446  1.3768 -0.1717  0.0238
  401MOL0     O54059   9.463  10.202   1.425  1.3032 -0.0055 -0.7107
  401MOL0     C54060   9.512  10.117   1.325 -0.5406  0.6786 -0.1271
  401MOL0     C54061   9.433   9.984   1.319  0.0767  0.1895 -0.3614
  401MOL0     C54062   9.514   9.860   1.260 -0.2548  0.0502  0.1126
  401MOL0     C54063   9.561   9.887   1.111  0.5422 -0.4810  0.6894
  401MOL0     C54064   9.702   9.932   1.118  0.7616  0.9945 -0.1317
  401MOL0     C54065   9.812   9.971   1.097 -0.6117 -0.6835  0.1527
  401MOL0     C54066   9.448  10.417   1.533 -0.1639  0.4209 -0.4836
  401MOL0     C54067   9.480  10.548   1.540  0.7487  0.1822  0.5612
  401MOL0     H54068   9.355  10.975   1.574 -0.2149  0.5616 -1.5303
  401MOL0     H54069   9.379  11.213   1.611  0.2316  1.3445  1.1452
  401MOL0     H54070   9.795  11.424   1.684 -0.8370  3.3210  1.0827
  401MOL0     H54071   9.742  11.392   1.514  4.7001 -2.2251  0.9226
  401MOL0     H54072   9.548  11.559   1.542 -1.3255 -2.5501  2.0884
  401MOL0     H54073   9.620  11.603   1.703 -0.7926  0.0294  0.7761
  401MOL0     H54074   9.796  11.701   1.596 -1.1674 -1.3531  1.4134
  401MOL0     H54075   9.768  11.619   1.441 -0.0923 -1.4185  0.6954
  401MOL0     H54076   9.672  11.815   1.365  0.4780  1.4818  1.3049
  401MOL0     H54077   9.534  11.747   1.458  0.7513 -2.9030 -0.1802
  401MOL0     H54078   9.635  11.874   1.659  0.1041 -1.2826 -0.7084
  401MOL0     H54079   9.757  11.951   1.547  1.5926 -1.5489  1.3814
  401MOL0     H54080   9.596  12.105   1.592 -0.2227  1.6977 -1.3027
  401MOL0     H54081   9.598  12.069   1.421  1.0043  0.3272  0.5322
  401MOL0     H54082   9.393  11.955   1.433 -1.6710  1.2334  0.3781
  401MOL0     H54083   9.407  11.930   1.613 -2.3557  0.5462  0.0583
  401MOL0     H54084   9.383  12.171   1.647 -0.6914 -2.0207  1.5870
  401MOL0     H54085   9.241  12.086   1.582 -1.7757 -0.9704 -3.5556
  401MOL0     H54086   9.524  12.291   1.396 -0.4112 -2.3570 -0.4647
  401MOL0     H54087   9.384  12.575   1.210  3.4870  1.1780  0.1532
  401MOL0     H54088   9.527  12.493   1.228 -1.3457  2.7052  0.0675
  401MOL0     H54089   9.319  12.386   1.041 -0.0283 -1.4724  0.0815
  401MOL0     H54090   9.494  12.339   1.054 -0.1655  0.2039  0.5959
  401MOL0     H54091   9.468  12.479   0.853 -3.3473  1.0879  0.6512
  401MOL0     H54092   9.571  12.551   0.985  1.1471 -1.2481 -1.9435
  401MOL0     H54093   9.384  12.688   1.040  2.1851  0.3726  0.9270
  401MOL0     H54094   9.290  12.617   0.902  0.8197 -3.0266  0.2620
  401MOL0     H54095   9.519  12.988   0.800  0.5539  1.9092 -2.5364
  401MOL0     H54096   9.553  13.145   0.556  0.1718 -1.0605  0.0094
  401MOL0     H54097   9.399  13.206   0.506  2.6304  0.9210 -1.0522
  401MOL0     H54098   9.441  13.222   0.671  0.4734  1.3063 -0.6853
  401MOL0     H54099   9.401  13.149   0.245 -0.4500 -1.0657  0.8064
  401MOL0     H54100   9.379  13.306   0.058  1.2756 -0.4206  1.9355
  401MOL0     H54101   9.012  13.355  -0.150 -0.3828  1.6646 -1.6602
  401MOL0     H54102   9.120  13.455  -0.053  0.9489 -3.4267  1.6852
  401MOL0     H54103   9.228  13.507  -0.267  0.7695  1.0014 -4.2091
  401MOL0     H54104   9.118  13.397  -0.362  0.1134 -3.9261  2.2418
  401MOL0     H54105   9.072  13.674  -0.355 -1.7839  2.4319  0.4963
  401MOL0     H54106   9.025  13.631  -0.192  0.3897 -0.2589 -0.6392
  401MOL0     H54107   8.915  13.471  -0.433  0.3481 -3.0745  1.6097
  401MOL0     H54108   8.851  13.468  -0.275 -2.1017 -1.2379 -1.4116
  401MOL0     H54109   8.709  13.600  -0.424 -0.8312  0.9949 -1.1204
  401MOL0     H54110   8.839  13.710  -0.474 -0.9811 -0.0251  0.5916
  401MOL0     H54111   8.700  13.646  -0.208  2.0629  1.9886  3.6172
  401MOL0     H54112   8.838  13.768  -0.217 -0.2002  1.2876  1.0560
  401MOL0     H54113   8.557  13.778  -0.310 -1.0790  1.5414  0.0368
  401MOL0     H54114   8.693  13.866  -0.400  5.5175  0.1824  2.1261
  401MOL0     H54115   8.746  13.988  -0.177  0.5149 -2.2786  1.0086
  401MOL0     H54116   8.599  13.910  -0.119 -2.3997 -1.1885 -1.1393
  401MOL0     H54117   9.017  13.109  -0.057  0.7403 -0.0481 -0.7825
  401MOL0     H54118   9.055  12.941   0.123  2.3389 -0.9574  1.6926
  401MOL0     H54119   9.197  12.769   0.504 -0.5837 -1.2608  1.2046
  401MOL0     H54120   9.286  12.651   0.695 -2.6227  1.2446 -2.6425
  401MOL0     H54121   9.798  11.168   1.691 -0.7175  2.4925 -1.5318
  401MOL0     H54122   9.781  10.926   1.653 -0.4323  1.0986 -1.3181
  401MOL0     H54123   9.766  10.553   1.365  0.2447 -0.9590  0.2383
  401MOL0     H54124   9.702  10.329   1.321  1.8033 -0.0603  1.7212
  401MOL0     H54125   9.501  10.159   1.224 -0.1540  2.0280  0.3766
  401MOL0     H54126   9.618  10.091   1.338 -1.3869 -2.6494  1.3682
  401MOL0     H54127   9.340   9.992   1.261 -1.7430  0.6667  2.4652
  401MOL0     H54128   9.405   9.949   1.418  0.4405 -0.3086 -0.4308
  401MOL0     H54129   9.440   9.780   1.257  1.2017 -1.4907  2.2265
  401MOL0     H54130   9.593   9.838   1.333 -1.5963 -1.7760  1.1047
  401MOL0     H54131   9.493   9.963   1.073  0.8272  0.2434  1.5722
  401MOL0     H54132   9.544   9.802   1.045 -3.3438 -0.0800  0.9627
  401MOL0     H54133   9.909  10.005   1.069 -0.7564 -0.6940 -0.3837
  401MOL0     H54134   9.355  10.393   1.585 -0.9622 -0.0107 -2.0487
  401MOL0     H54135   9.411  10.619   1.585  3.4708  3.2968  0.2609
  402MOL0     O54136   7.734   7.201  10.795 -0.2059  0.0811  0.3617
  402MOL0     C54137   7.835   7.266  10.818 -0.5034 -0.1962 -0.9250
  402MOL0     O54138   7.842   7.383  10.887 -1.2092  0.1810 -0.0704
  402MOL0     C54139   7.730   7.436  10.945  0.2295  0.2686  0.3855
  402MOL0     C54140   7.597   7.406  10.930 -0.1339  0.1136  0.1352
  402MOL0     C54141   7.503   7.476  11.008 -0.4028  0.5039 -0.4766
  402MOL0     C54142   7.528   7.583  11.095 -0.2762  0.8011 -0.0157
  402MOL0     O54143   7.417   7.620  11.158  0.3040 -0.0606 -0.1202
  402MOL0     C54144   7.411   7.723  11.256 -0.5863 -0.1607  0.3242
  402MOL0     C54145   7.450   7.862  11.211 -0.2572  0.1259  0.0233
  402MOL0     C54146   7.508   7.943  11.331  0.4313 -0.6634  0.2747
  402MOL0     C54147   7.576   8.070  11.288 -0.0219  0.1093  0.1521
  402MOL0     C54148   7.703   8.029  11.216  1.2517 -0.2629  1.0421
  402MOL0     C54149   7.804   8.139  11.184  0.4401 -0.1962 -0.0778
  402MOL0     C54150   7.922   8.074  11.100 -0.1567 -0.2970  0.0217
  402MOL0     C54151   8.037   8.173  11.062  0.1302  0.1761 -0.0550
  402MOL0     N54152   8.152   8.185  11.160  0.7932 -0.2920 -0.0236
  402MOL0     C54153   8.131   8.261  11.275 -0.1468 -0.3833  0.4992
  402MOL0     C54154   8.257   8.280  11.327  0.0155 -0.3553  0.3818
  402MOL0     C54155   8.298   8.381  11.430 -0.2869 -0.0230  0.3213
  402MOL0     C54156   8.449   8.392  11.465  0.1787 -0.7910  0.1398
  402MOL0     C54157   8.474   8.269  11.548  0.1285  1.0665  0.2117
  402MOL0     C54158   8.626   8.264  11.579 -0.3517 -0.1527 -0.2108
  402MOL0     O54159   8.699   8.246  11.463  0.0623 -0.0324 -0.0860
  402MOL0     C54160   8.745   8.114  11.434  0.6432  0.1827  0.2466
  402MOL0     C54161   8.663   8.014  11.388  0.3234  0.3840  0.2487
  402MOL0     C54162   8.718   7.886  11.375 -1.5097 -0.0577  0.3124
  402MOL0     C54163   8.620   7.774  11.341  1.1214  0.6220  0.2208
  402MOL0     C54164   8.853   7.857  11.406 -0.0322  0.2050 -0.3771
  402MOL0     C54165   8.916   7.723  11.386  0.4774 -0.2837 -0.2549
  402MOL0     O54166   9.018   7.696  11.462  0.3898  0.5922  0.8100
  402MOL0     C54167   9.093   7.580  11.432 -0.7135  0.6052  0.0001
  402MOL0     C54168   9.038   7.451  11.439  0.3219  0.8608  1.1090
  402MOL0     C54169   9.119   7.336  11.419 -0.2551 -0.5378 -0.1690
  402MOL0     C54170   9.260   7.345  11.396 -0.2636  0.0609  0.2162
  402MOL0     O54171   9.321   7.223  11.392 -0.3752 -0.2152  0.4413
  402MOL0     C54172   9.463   7.215  11.422  0.0681  0.6700  0.5175
  402MOL0     C54173   9.546   7.217  11.297 -0.4008  0.4043 -0.6122
  402MOL0     C54174   9.573   7.084  11.242  0.6929 -0.8484  0.3889
  402MOL0     C54175   9.652   7.111  11.116  0.4676  1.1531 -0.1692
  402MOL0     C54176   9.683   6.982  11.034  0.0012  0.0578  0.0934
  402MOL0     C54177   9.720   7.009  10.885 -0.1281 -0.6273  0.5854
  402MOL0     C54178   9.736   6.876  10.815 -0.3279 -0.2569  0.3636
  402MOL0     C54179   9.739   6.894  10.666 -0.0120  0.2870  0.6542
  402MOL0    Cl54180   9.896   6.963  10.603 -0.2211  0.4884  0.1936
  402MOL0     C54181   9.314   7.474  11.388  0.3783  0.4125 -0.3286
  402MOL0     C54182   9.232   7.589  11.399  0.1328 -0.2805  0.5072
  402MOL0     O54183   8.877   7.659  11.288 -1.2285  0.0963 -0.6012
  402MOL0     C54184   8.929   7.960  11.453 -0.1328 -1.2797 -0.1156
  402MOL0     C54185   8.879   8.086  11.455 -0.1353 -0.1848 -0.2188
  402MOL0     N54186   8.341   8.211  11.242  0.3824  0.1089  0.3119
  402MOL0     N54187   8.281   8.151  11.145 -0.1217  0.0566 -0.5901
  402MOL0     C54188   7.664   7.619  11.100  0.8232 -0.5265  0.2346
  402MOL0     C54189   7.754   7.549  11.019 -0.6281 -0.0659 -0.5993
  402MOL0     C54190   7.961   7.210  10.761  0.0974  0.0053 -0.2455
  402MOL0     C54191   8.066   7.300  10.754 -0.6194 -0.4012 -0.7913
  402MOL0     C54192   8.194   7.256  10.709 -0.2110  0.4270 -0.9389
  402MOL0     C54193   8.212   7.127  10.671 -1.0466 -0.1611  0.8250
  402MOL0     O54194   8.339   7.103  10.619  0.9203  0.0738 -0.3353
  402MOL0     C54195   8.379   6.964  10.579 -0.6733 -0.2779  0.9542
  402MOL0     C54196   8.537   6.936  10.597 -0.0895 -0.4009 -0.6783
  402MOL0     C54197   8.576   6.952  10.754 -0.1925 -0.4408  0.4638
  402MOL0     C54198   8.500   6.872  10.856  0.0286  0.6412 -0.5000
  402MOL0     C54199   8.565   6.872  10.989  0.7231  0.2731  0.2845
  402MOL0     C54200   8.608   6.899  11.099 -0.5381 -0.3482  0.3919
  402MOL0     C54201   8.104   7.038  10.673 -0.6984  0.2971  0.0898
  402MOL0     C54202   7.974   7.077  10.703  0.3554  0.8368  0.4016
  402MOL0     H54203   7.545   7.334  10.868 -1.4089  0.3123  0.9256
  402MOL0     H54204   7.396   7.472  10.990 -0.2200  3.1961 -2.7708
  402MOL0     H54205   7.305   7.732  11.282 -0.2834  2.4116  0.9887
  402MOL0     H54206   7.456   7.692  11.351  0.0930  1.9209  0.7488
  402MOL0     H54207   7.520   7.843  11.129 -0.1696 -1.9053  0.5171
  402MOL0     H54208   7.366   7.916  11.168 -1.2560  0.8288  2.6732
  402MOL0     H54209   7.428   7.969  11.401  0.7782 -0.9851  0.7964
  402MOL0     H54210   7.571   7.872  11.386 -0.9037 -0.6091  1.9724
  402MOL0     H54211   7.513   8.126  11.218 -2.5630  0.0071  2.1787
  402MOL0     H54212   7.609   8.132  11.373  0.5081 -0.5288  0.4183
  402MOL0     H54213   7.766   7.976  11.287  1.5837 -1.0015  0.2138
  402MOL0     H54214   7.683   7.969  11.126  2.4722  1.1201 -0.1877
  402MOL0     H54215   7.757   8.212  11.117 -0.8982 -2.0297 -1.2198
  402MOL0     H54216   7.844   8.192  11.271 -2.2898  3.4559 -0.7868
  402MOL0     H54217   7.953   7.995  11.168 -5.7214 -1.9664  1.1343
  402MOL0     H54218   7.896   8.028  11.005 -0.1023 -3.1867  1.3228
  402MOL0     H54219   8.009   8.276  11.039  2.3430  1.2410  1.6220
  402MOL0     H54220   8.089   8.140  10.972  1.8452  0.7629  0.6856
  402MOL0     H54221   8.030   8.291  11.303 -0.9833 -2.3938 -0.2005
  402MOL0     H54222   8.284   8.480  11.385  0.9401 -1.2421 -3.0635
  402MOL0     H54223   8.244   8.367  11.524 -3.4621 -0.9385 -1.5142
  402MOL0     H54224   8.457   8.472  11.539 -0.7309 -1.3560  0.8726
  402MOL0     H54225   8.519   8.400  11.381 -0.1219 -1.9336 -0.2371
  402MOL0     H54226   8.434   8.180  11.500 -2.0395  2.0710  0.0351
  402MOL0     H54227   8.422   8.267  11.644 -1.5042 -4.0334 -0.4970
  402MOL0     H54228   8.648   8.178  11.642 -1.1112  1.2056  2.0204
  402MOL0     H54229   8.665   8.355  11.626  2.9150 -0.6596 -1.6597
  402MOL0     H54230   8.555   8.020  11.398  0.4292 -0.3044  2.3802
  402MOL0     H54231   8.617   7.718  11.436 -1.4649  0.5698  0.1638
  402MOL0     H54232   8.518   7.802  11.315  0.3246 -2.3535 -0.2016
  402MOL0     H54233   8.646   7.698  11.266  3.6125  0.6785  0.9235
  402MOL0     H54234   8.932   7.434  11.454  0.6664 -1.4948  1.2434
  402MOL0     H54235   9.072   7.242  11.445  0.6816 -1.2334 -0.9331
  402MOL0     H54236   9.501   7.296  11.485 -1.6697  2.3734 -0.5185
  402MOL0     H54237   9.479   7.126  11.484  0.6302 -0.7507 -1.5493
  402MOL0     H54238   9.501   7.294  11.234 -1.0597  0.8779  0.4102
  402MOL0     H54239   9.648   7.241  11.327 -0.2090  0.7072 -1.4953
  402MOL0     H54240   9.475   7.042  11.217  1.3221 -0.1273 -4.2851
  402MOL0     H54241   9.632   7.026  11.313  0.5502  0.4492  1.6134
  402MOL0     H54242   9.602   7.171  11.040  2.4867 -1.2888 -3.7410
  402MOL0     H54243   9.747   7.159  11.139 -0.1388  2.5764 -0.5148
  402MOL0     H54244   9.602   6.909  11.032  1.7972 -2.1581  1.6776
  402MOL0     H54245   9.768   6.929  11.079 -0.3818  1.6993  2.9595
  402MOL0     H54246   9.647   7.060  10.822  1.2987 -1.0449 -1.4868
  402MOL0     H54247   9.813   7.067  10.885  1.6507 -3.2647 -0.3647
  402MOL0     H54248   9.663   6.796  10.835 -0.4596 -0.6455 -1.5100
  402MOL0     H54249   9.834   6.838  10.845 -0.2783 -0.6315 -0.2386
  402MOL0     H54250   9.660   6.959  10.629  1.8002  2.1365 -0.1754
  402MOL0     H54251   9.727   6.797  10.615 -0.4996  0.7807 -0.2007
  402MOL0     H54252   9.421   7.496  11.382  0.5880 -0.5471 -0.2546
  402MOL0     H54253   9.264   7.693  11.396  3.0126 -1.0988 -2.0207
  402MOL0     H54254   9.032   7.952  11.486 -0.5763  1.4567  2.3904
  402MOL0     H54255   8.950   8.165  11.473 -0.3993  1.9582 -6.2641
  402MOL0     H54256   7.692   7.698  11.169 -1.3812  0.1555  0.4367
  402MOL0     H54257   7.857   7.571  11.046 -2.0144  2.7996  3.3673
  402MOL0     H54258   8.062   7.403  10.790 -0.9088 -1.3555  2.0936
  402MOL0     H54259   8.278   7.324  10.709 -1.8313  2.5563 -1.2628
  402MOL0     H54260   8.323   6.891  10.638  0.5224 -0.1475  2.3067
  402MOL0     H54261   8.342   6.942  10.479 -1.0849 -2.2218  1.5017
  402MOL0     H54262   8.588   7.020  10.550  1.0355 -0.6302  0.1038
  402MOL0     H54263   8.568   6.834  10.574  1.4869 -0.8142  2.7307
  402MOL0     H54264   8.571   7.057  10.783 -1.1531 -1.2539  3.5923
  402MOL0     H54265   8.682   6.926  10.757 -0.6145 -2.1853  3.3801
  402MOL0     H54266   8.486   6.770  10.818  1.4820 -0.0525  0.7437
  402MOL0     H54267   8.401   6.919  10.854  0.2004  1.4752  3.2011
  402MOL0     H54268   8.670   6.905  11.186  3.0185 -2.1596 -1.7587
  402MOL0     H54269   8.124   6.935  10.648 -0.1956  0.6628 -1.0950
  402MOL0     H54270   7.889   7.011  10.691 -1.1987  3.1738 -2.8177
  403MOL0     O54271   8.100   8.023  10.543 -0.2332  0.6997 -0.8037
  403MOL0     C54272   8.049   7.936  10.606  0.0609  0.3266 -1.0644
  403MOL0     O54273   8.120   7.827  10.670 -0.2878  0.1005  0.2082
  403MOL0     C54274   8.255   7.820  10.633  0.2774  0.4971  0.7040
  403MOL0     C54275   8.359   7.903  10.667 -1.0705  0.1118  1.0941
  403MOL0     C54276   8.494   7.877  10.635  0.2106  0.6153 -0.3857
  403MOL0     C54277   8.514   7.777  10.537 -0.6244 -0.0524 -1.0864
  403MOL0     O54278   8.640   7.761  10.485 -0.1543  0.0400  0.6174
  403MOL0     C54279   8.668   7.652  10.389  0.4306 -0.4703 -0.0128
  403MOL0     C54280   8.823   7.649  10.392 -0.5209 -0.3383  0.0064
  403MOL0     C54281   8.861   7.537  10.296 -0.9975 -0.4427 -0.1767
  403MOL0     C54282   9.003   7.554  10.247 -0.0813 -0.0859 -0.1863
  403MOL0     C54283   9.066   7.427  10.176 -0.3869  0.0899  0.0274
  403MOL0     C54284   9.214   7.448  10.141 -0.2484  0.6909 -0.2827
  403MOL0     C54285   9.232   7.533  10.012 -0.2962  1.1536  0.3062
  403MOL0     C54286   9.163   7.477   9.887 -0.3961 -0.4343  0.4350
  403MOL0     N54287   9.267   7.460   9.785 -1.2995  0.2442  0.0818
  403MOL0     C54288   9.394   7.407   9.791  0.4765  0.1569 -0.2565
  403MOL0     C54289   9.433   7.427   9.658  0.4520  0.4251  0.5786
  403MOL0     C54290   9.562   7.366   9.615  1.0224  0.0593  1.2283
  403MOL0     C54291   9.544   7.255   9.514  0.6557 -0.5460  1.0484
  403MOL0     C54292   9.657   7.156   9.492  0.6439 -0.1820 -0.0048
  403MOL0     C54293   9.633   7.048   9.396  0.8499  0.3657 -1.3055
  403MOL0     O54294   9.754   6.973   9.391 -0.7890 -0.0682 -0.6648
  403MOL0     C54295   9.772   6.868   9.309 -0.3535  0.7625  0.1981
  403MOL0     C54296   9.675   6.820   9.219  0.4003  0.2347  0.0973
  403MOL0     C54297   9.699   6.713   9.135 -0.0614  0.0830  0.0150
  403MOL0     C54298   9.600   6.694   9.021  0.0942  0.8216  0.4339
  403MOL0     C54299   9.826   6.645   9.149  0.0192  0.7892  0.7400
  403MOL0     C54300   9.867   6.536   9.067  0.1348  1.4309  0.0755
  403MOL0     O54301   9.993   6.488   9.080  0.5287 -0.1411  0.0438
  403MOL0     C54302  10.028   6.358   9.065  0.1062  0.2337  1.3221
  403MOL0     C54303   9.937   6.250   9.064  0.5369 -0.2032 -0.1282
  403MOL0     C54304   9.969   6.116   9.072 -0.5396  0.7671  0.6741
  403MOL0     C54305  10.102   6.079   9.085  0.0161 -0.5439 -0.6785
  403MOL0     O54306  10.145   5.950   9.102 -0.3072 -0.0597  0.6523
  403MOL0     C54307  10.049   5.868   9.165 -0.4568  1.0464  0.2644
  403MOL0     C54308  10.115   5.739   9.190 -0.7440 -0.4728 -0.5626
  403MOL0     C54309  10.218   5.758   9.304  0.2888 -0.5222  0.2972
  403MOL0     C54310  10.242   5.631   9.376 -0.5040  0.0786  0.4328
  403MOL0     C54311  10.347   5.652   9.485  0.3493  0.8223 -0.2614
  403MOL0     C54312  10.324   5.548   9.597  0.5854 -0.7457 -0.7162
  403MOL0     C54313  10.348   5.402   9.571  0.6664  0.3660 -0.5996
  403MOL0     C54314  10.366   5.325   9.703 -0.5057 -0.1325  0.5392
  403MOL0    Cl54315  10.212   5.293   9.769 -0.1655  0.7233  0.3833
  403MOL0     C54316  10.194   6.183   9.091 -0.4595  0.2643 -0.4355
  403MOL0     C54317  10.152   6.318   9.078 -0.2102 -0.3138 -0.5163
  403MOL0     O54318   9.777   6.487   8.992 -0.1872 -0.6256 -0.1083
  403MOL0     C54319   9.914   6.691   9.242  0.2479 -0.1898 -0.1504
  403MOL0     C54320   9.891   6.808   9.318 -0.2915 -0.3345 -0.6311
  403MOL0     N54321   9.343   7.499   9.584  0.4064  0.0714 -0.3737
  403MOL0     N54322   9.246   7.519   9.664 -0.6749  0.1614  0.0647
  403MOL0     C54323   8.410   7.690  10.501  0.1962 -0.7481 -0.2330
  403MOL0     C54324   8.286   7.707  10.554 -0.1837 -0.1938 -0.9588
  403MOL0     C54325   7.901   7.940  10.633 -0.6183 -0.9421 -0.1284
  403MOL0     C54326   7.822   8.056  10.601  0.1173  0.1337  0.7058
  403MOL0     C54327   7.686   8.067  10.628 -0.0291 -0.9544 -0.7416
  403MOL0     C54328   7.622   7.968  10.701 -0.1476  0.2277 -0.7190
  403MOL0     O54329   7.490   7.978  10.747  0.1797  0.3539  1.0806
  403MOL0     C54330   7.386   8.053  10.669 -0.3537  0.9395  1.1422
  403MOL0     C54331   7.288   8.124  10.758 -0.3485 -0.7938  0.4749
  403MOL0     C54332   7.353   8.236  10.830 -0.1972  0.4159  0.3040
  403MOL0     C54333   7.253   8.329  10.899  0.2221  0.0392  0.2929
  403MOL0     C54334   7.164   8.260  10.990 -0.6732 -0.2353  0.0888
  403MOL0     C54335   7.110   8.211  11.088  0.5769 -1.1531  0.2214
  403MOL0     C54336   7.703   7.857  10.747  0.3061  0.0024  0.0671
  403MOL0     C54337   7.841   7.840  10.701 -0.5481  0.4243 -0.0398
  403MOL0     H54338   8.342   7.986  10.734 -3.0464  0.0525  0.7145
  403MOL0     H54339   8.578   7.937  10.671 -0.7744  1.2296  1.0287
  403MOL0     H54340   8.630   7.554  10.421  0.7081 -0.6547 -0.2403
  403MOL0     H54341   8.630   7.665  10.288  2.3386 -1.8055 -0.9593
  403MOL0     H54342   8.855   7.751  10.366  1.6510 -0.4399  1.9455
  403MOL0     H54343   8.858   7.624  10.492  0.9162  1.4933  0.0184
  403MOL0     H54344   8.836   7.442  10.345 -0.9503 -1.0970 -1.3714
  403MOL0     H54345   8.799   7.545  10.206 -0.1707 -0.8325 -0.7822
  403MOL0     H54346   9.005   7.645  10.185  2.3693 -0.2704 -0.4749
  403MOL0     H54347   9.055   7.584  10.339 -4.2324  0.1360  2.3376
  403MOL0     H54348   9.067   7.348  10.251 -0.8421 -0.4698 -0.5454
  403MOL0     H54349   8.999   7.403  10.093 -0.8706  0.0968  0.4036
  403MOL0     H54350   9.258   7.506  10.223  2.7006 -0.5833 -0.8167
  403MOL0     H54351   9.263   7.351  10.127  3.4910  2.5725 -1.3798
  403MOL0     H54352   9.192   7.633  10.030 -0.6196  1.2602 -0.8912
  403MOL0     H54353   9.339   7.540   9.995 -0.4522 -0.7371 -1.9554
  403MOL0     H54354   9.092   7.551   9.850  2.4475  0.8416 -3.0625
  403MOL0     H54355   9.107   7.383   9.893 -0.3767 -0.4865 -0.1207
  403MOL0     H54356   9.458   7.350   9.858  0.7701  0.5320 -0.2142
  403MOL0     H54357   9.627   7.446   9.579 -0.0384  1.7234  2.8712
  403MOL0     H54358   9.622   7.316   9.692  4.4545  0.4447 -0.9495
  403MOL0     H54359   9.519   7.304   9.419 -0.2937  0.8755  1.9809
  403MOL0     H54360   9.452   7.203   9.541 -1.2564  2.8808  1.7448
  403MOL0     H54361   9.683   7.121   9.593 -0.9366  0.6334  0.7225
  403MOL0     H54362   9.736   7.216   9.446 -1.5056  1.2378 -2.0541
  403MOL0     H54363   9.607   7.087   9.297  1.6752  0.0418 -1.6522
  403MOL0     H54364   9.547   6.999   9.443 -0.8517  4.2435  0.0523
  403MOL0     H54365   9.578   6.868   9.213  0.2768  0.0398  0.5065
  403MOL0     H54366   9.510   6.756   9.029 -0.2451  0.0930  3.1844
  403MOL0     H54367   9.642   6.709   8.921 -0.0308 -2.1658 -0.1480
  403MOL0     H54368   9.561   6.593   9.031  1.3175  0.1202 -1.4489
  403MOL0     H54369   9.831   6.272   9.073  0.1958 -1.9838  0.7648
  403MOL0     H54370   9.882   6.051   9.074 -0.4362  0.5694 -0.7282
  403MOL0     H54371  10.007   5.903   9.260  0.0563 -0.6330  1.1469
  403MOL0     H54372   9.954   5.858   9.111 -1.9064  2.1499  2.4638
  403MOL0     H54373  10.042   5.658   9.203 -2.0237  0.6843 -0.3590
  403MOL0     H54374  10.179   5.710   9.106  1.4893 -2.6928  1.7004
  403MOL0     H54375  10.171   5.819   9.382 -0.0303 -2.4434  1.6913
  403MOL0     H54376  10.312   5.799   9.265  0.5964 -1.5259 -0.0395
  403MOL0     H54377  10.150   5.586   9.414 -0.4359 -1.3431 -0.9566
  403MOL0     H54378  10.273   5.561   9.297 -0.2254 -0.5629  1.1024
  403MOL0     H54379  10.343   5.752   9.528 -1.5918  0.2681  0.9626
  403MOL0     H54380  10.445   5.641   9.438  1.3241 -1.9178  2.1384
  403MOL0     H54381  10.405   5.579   9.664  1.3042 -3.3640 -0.2737
  403MOL0     H54382  10.235   5.559   9.659  2.7127 -2.5571  3.0529
  403MOL0     H54383  10.443   5.399   9.518 -0.0837 -0.6290 -1.9400
  403MOL0     H54384  10.278   5.347   9.508  2.4269 -0.6943 -1.7363
  403MOL0     H54385  10.436   5.379   9.767  0.3840  1.2496 -1.4770
  403MOL0     H54386  10.413   5.229   9.682 -2.2216 -0.7344 -0.8360
  403MOL0     H54387  10.301   6.169   9.101  0.3542  2.6539 -3.7995
  403MOL0     H54388  10.229   6.394   9.088  0.1398 -0.8007  0.7268
  403MOL0     H54389  10.020   6.665   9.238  0.0238 -2.1276  2.9126
  403MOL0     H54390   9.964   6.841   9.391  0.2817 -1.7499 -0.5280
  403MOL0     H54391   8.424   7.606  10.433  2.4584 -1.0691  0.5341
  403MOL0     H54392   8.212   7.635  10.521  0.8165 -2.7258  1.8368
  403MOL0     H54393   7.867   8.141  10.550  2.1646  0.2141  2.5120
  403MOL0     H54394   7.631   8.159  10.612  0.2440 -0.5741  0.4158
  403MOL0     H54395   7.435   8.124  10.602 -0.2509 -1.9108 -2.0693
  403MOL0     H54396   7.330   7.980  10.611  0.1781  0.0173  1.7704
  403MOL0     H54397   7.246   8.053  10.830 -0.7161  1.2375  2.3433
  403MOL0     H54398   7.205   8.170  10.703 -0.7268 -1.6196  0.3296
  403MOL0     H54399   7.415   8.297  10.764  0.3805  0.1484  0.5941
  403MOL0     H54400   7.414   8.198  10.913  2.0880  2.6698 -0.1971
  403MOL0     H54401   7.193   8.391  10.833 -0.5995 -0.3737  0.6397
  403MOL0     H54402   7.318   8.402  10.949  0.3725  0.6172 -0.7280
  403MOL0     H54403   7.046   8.167  11.162  0.2750 -1.1957 -0.0652
  403MOL0     H54404   7.654   7.794  10.820  0.6588  1.4287  1.5784
  403MOL0     H54405   7.897   7.758  10.746  0.2734  1.3300  0.6394
  404MOL0     O54406   1.377  11.041   0.842 -0.4125  0.1367 -0.4872
  404MOL0     C54407   1.427  11.151   0.875  0.6584  0.9857  0.4964
  404MOL0     O54408   1.542  11.166   0.936  0.0163 -0.1658 -0.9807
  404MOL0     C54409   1.638  11.067   0.929  0.6241 -0.1114  0.2749
  404MOL0     C54410   1.681  11.003   0.813 -0.2039  0.5063  0.1142
  404MOL0     C54411   1.761  10.892   0.823 -0.1232  0.2876 -0.1523
  404MOL0     C54412   1.816  10.853   0.951  0.9903 -0.7713 -0.1873
  404MOL0     O54413   1.906  10.754   0.968  0.2896 -0.2926 -0.0723
  404MOL0     C54414   1.930  10.668   0.858 -1.2934 -0.1972 -0.9111
  404MOL0     C54415   2.015  10.544   0.905 -0.3069 -0.5242  0.9059
  404MOL0     C54416   2.115  10.504   0.785  0.6697  0.6174  0.2887
  404MOL0     C54417   2.202  10.382   0.831 -0.3189 -0.0838 -0.0991
  404MOL0     C54418   2.136  10.244   0.858 -0.1056  0.3371  0.2125
  404MOL0     C54419   2.067  10.174   0.738  0.3752 -0.3377  0.0369
  404MOL0     C54420   2.149  10.110   0.629  0.0276  0.6740 -0.3926
  404MOL0     C54421   2.172  10.181   0.496 -0.4386 -0.3524  0.6842
  404MOL0     N54422   2.061  10.260   0.443 -0.7423  0.5668  0.1139
  404MOL0     C54423   1.942  10.214   0.402 -0.0713 -0.9825 -0.1237
  404MOL0     C54424   1.883  10.321   0.346  1.2027 -0.2704 -0.1361
  404MOL0     C54425   1.744  10.316   0.268 -0.0227  0.7720 -0.6908
  404MOL0     C54426   1.623  10.390   0.333 -0.8120 -0.0691  0.3264
  404MOL0     C54427   1.544  10.307   0.444  0.3217  0.0517  0.0650
  404MOL0     C54428   1.615  10.291   0.575  0.1136  0.3298 -0.6702
  404MOL0     O54429   1.686  10.167   0.573 -0.2280 -1.0568 -0.2948
  404MOL0     C54430   1.624  10.063   0.635 -0.5257  0.5324  1.0985
  404MOL0     C54431   1.485  10.045   0.639  0.6875 -0.3850  0.3268
  404MOL0     C54432   1.425   9.935   0.687  0.2723 -0.2989  0.5750
  404MOL0     C54433   1.271   9.927   0.681 -0.0298 -0.2002  0.3105
  404MOL0     C54434   1.514   9.832   0.736  0.6933  0.1740 -0.2033
  404MOL0     C54435   1.457   9.715   0.805 -0.5892  0.2927  0.7396
  404MOL0     O54436   1.348   9.651   0.756 -0.4240 -0.2204 -0.9576
  404MOL0     C54437   1.327   9.624   0.626 -0.3437 -0.2441  1.7890
  404MOL0     C54438   1.201   9.586   0.588  1.6805  0.5882  0.8283
  404MOL0     C54439   1.176   9.539   0.460 -0.3544  0.9566 -0.8147
  404MOL0     C54440   1.281   9.510   0.372 -0.5947  0.5157  0.3307
  404MOL0     O54441   1.274   9.450   0.249  0.4693  0.0186  0.7764
  404MOL0     C54442   1.209   9.319   0.257  0.3450 -0.8980  0.6214
  404MOL0     C54443   1.213   9.246   0.114 -0.0833 -0.6090  0.0510
  404MOL0     C54444   1.355   9.191   0.087 -0.4171 -0.3645  0.0113
  404MOL0     C54445   1.393   9.084   0.190  0.1891 -0.7217  0.0596
  404MOL0     C54446   1.508   8.997   0.155 -0.4835  0.2604  0.2131
  404MOL0     C54447   1.547   8.923   0.282 -0.2685 -0.3346 -0.8321
  404MOL0     C54448   1.618   8.795   0.247 -0.5221 -0.8100 -0.1185
  404MOL0     C54449   1.617   8.683   0.345 -0.4418  0.5677 -0.0611
  404MOL0    Cl54450   1.461   8.633   0.384  0.2260  0.3096  0.3541
  404MOL0     C54451   1.408   9.561   0.403  0.6905 -0.6165  0.3950
  404MOL0     C54452   1.423   9.632   0.523  0.0508  0.6465 -0.3854
  404MOL0     O54453   1.513   9.684   0.905 -0.4694 -0.4427 -0.3968
  404MOL0     C54454   1.655   9.855   0.731  0.2765 -0.3158 -0.4032
  404MOL0     C54455   1.716   9.967   0.683  0.2785 -1.0935 -0.1761
  404MOL0     N54456   1.957  10.436   0.368  1.1082  0.3174  1.2879
  404MOL0     N54457   2.065  10.395   0.418  0.5607 -0.5865 -0.3334
  404MOL0     C54458   1.767  10.915   1.067 -0.2658 -0.7034 -0.0891
  404MOL0     C54459   1.672  11.019   1.051 -0.5192 -0.5345 -0.0198
  404MOL0     C54460   1.353  11.275   0.844  0.7188 -0.4705  0.1056
  404MOL0     C54461   1.214  11.288   0.871  0.5690  0.9271 -0.3823
  404MOL0     C54462   1.140  11.399   0.834  0.0918  0.9109 -0.1805
  404MOL0     C54463   1.202  11.492   0.753 -1.0205  0.6511  0.5037
  404MOL0     O54464   1.114  11.589   0.708 -0.9908  0.1216  0.2577
  404MOL0     C54465   1.152  11.637   0.576 -0.7806  0.4619 -0.8617
  404MOL0     C54466   1.024  11.677   0.493 -1.3913  0.1704  0.9709
  404MOL0     C54467   0.934  11.565   0.466 -0.1696 -0.1546  0.2028
  404MOL0     C54468   0.805  11.603   0.391  0.0156 -0.7139  0.1369
  404MOL0     C54469   0.716  11.492   0.371 -0.0686 -0.2614 -0.3940
  404MOL0     C54470   0.641  11.390   0.358 -0.2665  0.1017 -0.2695
  404MOL0     C54471   1.339  11.489   0.731  0.4366  0.0719 -1.0745
  404MOL0     C54472   1.418  11.387   0.777 -0.6394 -0.7755 -0.8124
  404MOL0     H54473   1.625  11.030   0.724 -1.9024 -0.9023  0.6771
  404MOL0     H54474   1.780  10.840   0.730 -2.9773  1.1856 -1.3463
  404MOL0     H54475   1.844  10.635   0.800 -0.6206 -0.8054 -1.5879
  404MOL0     H54476   1.995  10.733   0.798  1.0986 -1.1217  0.5167
  404MOL0     H54477   2.066  10.588   0.991  0.3264 -1.4676  1.0334
  404MOL0     H54478   1.944  10.467   0.939  0.0251 -1.8707 -1.2510
  404MOL0     H54479   2.063  10.469   0.695 -1.4141  1.7393  0.9890
  404MOL0     H54480   2.173  10.593   0.763 -3.6806  3.6183 -0.2835
  404MOL0     H54481   2.270  10.367   0.746 -2.8288 -0.1958 -2.1937
  404MOL0     H54482   2.259  10.404   0.922  2.9299 -0.2585 -1.9318
  404MOL0     H54483   2.209  10.175   0.903 -1.0586 -2.3095 -2.0462
  404MOL0     H54484   2.073  10.239   0.947  2.6876 -2.4651  2.2601
  404MOL0     H54485   1.998  10.103   0.784 -2.8446  1.1777 -2.1258
  404MOL0     H54486   1.997  10.243   0.691 -1.3919 -2.2371 -0.2770
  404MOL0     H54487   2.247  10.073   0.661  0.8525  0.8525 -2.5348
  404MOL0     H54488   2.094  10.024   0.590 -1.9986  0.9952  1.5276
  404MOL0     H54489   2.222  10.111   0.429  2.1757  0.3099  1.7903
  404MOL0     H54490   2.256  10.249   0.508  2.3083 -2.5317 -3.6547
  404MOL0     H54491   1.907  10.113   0.385  1.9931 -1.0995 -6.0344
  404MOL0     H54492   1.763  10.361   0.170  4.6745  0.8483  0.0238
  404MOL0     H54493   1.712  10.212   0.255 -2.4066  1.2441  0.7898
  404MOL0     H54494   1.558  10.390   0.245 -1.1860 -0.5238  0.5935
  404MOL0     H54495   1.649  10.490   0.370 -2.7069  1.1046 -1.2974
  404MOL0     H54496   1.522  10.205   0.412 -1.1639 -0.1422  1.5943
  404MOL0     H54497   1.441  10.344   0.453 -0.2572 -1.7106  1.0018
  404MOL0     H54498   1.546  10.290   0.660  0.5851 -1.2416 -0.2638
  404MOL0     H54499   1.677  10.378   0.599 -0.0783  0.0658  0.8408
  404MOL0     H54500   1.426  10.119   0.586  0.6729 -1.0241 -0.5920
  404MOL0     H54501   1.229   9.897   0.778 -1.3417  2.7042  0.7414
  404MOL0     H54502   1.233  10.027   0.657  1.2699  0.8988  2.4717
  404MOL0     H54503   1.229   9.852   0.613  0.7513  0.2134 -0.6532
  404MOL0     H54504   1.116   9.592   0.656 -2.2340  0.2608 -3.5203
  404MOL0     H54505   1.073   9.512   0.436 -0.3566  1.9102 -1.9751
  404MOL0     H54506   1.253   9.262   0.340 -0.0296  1.0137  2.1919
  404MOL0     H54507   1.104   9.336   0.281  0.2595  1.7298 -1.1723
  404MOL0     H54508   1.133   9.173   0.100 -0.3408 -0.1646 -0.9115
  404MOL0     H54509   1.200   9.319   0.033  0.5048 -0.6524 -0.0866
  404MOL0     H54510   1.425   9.272   0.109 -2.1180  0.5816  2.4486
  404MOL0     H54511   1.362   9.157  -0.016  1.4798 -0.1236  0.0333
  404MOL0     H54512   1.417   9.145   0.277 -2.5353 -1.2299  1.2798
  404MOL0     H54513   1.300   9.027   0.201  0.5987 -1.6065 -0.8155
  404MOL0     H54514   1.600   9.053   0.136  0.1833 -0.6696  0.6194
  404MOL0     H54515   1.490   8.933   0.068  1.2692  1.7662 -1.3268
  404MOL0     H54516   1.608   8.992   0.341  2.6245 -2.3570 -1.2960
  404MOL0     H54517   1.462   8.890   0.343 -0.3033 -2.7921 -2.1084
  404MOL0     H54518   1.719   8.816   0.211 -0.0416 -4.7605 -1.6564
  404MOL0     H54519   1.571   8.752   0.157  3.7985 -1.1320 -2.5029
  404MOL0     H54520   1.662   8.717   0.439  0.5348  1.9056 -0.9716
  404MOL0     H54521   1.662   8.587   0.320 -2.9171 -1.2698  2.0625
  404MOL0     H54522   1.488   9.542   0.333  0.3185  0.5547 -0.3658
  404MOL0     H54523   1.525   9.660   0.547  0.5610 -0.8861 -0.6655
  404MOL0     H54524   1.721   9.789   0.787  0.8947  1.3171  0.8631
  404MOL0     H54525   1.824   9.983   0.686  0.5980 -3.0960  1.2796
  404MOL0     H54526   1.804  10.878   1.162 -1.0535  2.0110  1.3797
  404MOL0     H54527   1.623  11.070   1.134 -0.9599 -1.1075  0.0752
  404MOL0     H54528   1.159  11.205   0.915 -0.3164  0.6269 -1.9763
  404MOL0     H54529   1.039  11.401   0.873 -0.2576 -0.7788 -0.9134
  404MOL0     H54530   1.208  11.730   0.589  0.1788 -0.3626  1.1810
  404MOL0     H54531   1.204  11.562   0.517  1.4652  0.8523  0.5113
  404MOL0     H54532   1.049  11.730   0.400 -2.0832 -2.0553 -0.5661
  404MOL0     H54533   0.972  11.757   0.547 -0.0076  1.0339  1.0632
  404MOL0     H54534   0.899  11.536   0.565 -2.1117 -2.0721 -0.9430
  404MOL0     H54535   0.996  11.491   0.414 -2.4767 -0.0862 -2.9394
  404MOL0     H54536   0.843  11.642   0.296  3.3064 -0.9162  1.2435
  404MOL0     H54537   0.761  11.684   0.450 -2.8150 -2.1460  0.1384
  404MOL0     H54538   0.563  11.317   0.351  0.2622 -0.4292 -0.7633
  404MOL0     H54539   1.395  11.560   0.671  4.7182 -2.4786 -0.5271
  404MOL0     H54540   1.522  11.368   0.752 -0.7947 -0.7398 -1.5121
  405MOL0     O54541   6.880   1.621   4.572 -0.1917 -0.6674 -0.3727
  405MOL0     C54542   6.895   1.621   4.694 -0.4050 -0.8199  0.3541
  405MOL0     O54543   6.808   1.659   4.788  0.1934 -0.1654 -0.1482
  405MOL0     C54544   6.696   1.726   4.764 -0.1866 -0.9272 -0.0679
  405MOL0     C54545   6.685   1.814   4.658  0.8568 -0.4909 -0.8715
  405MOL0     C54546   6.560   1.893   4.655 -1.4474 -0.4662  0.5155
  405MOL0     C54547   6.449   1.868   4.741  0.4218  0.1407 -0.3450
  405MOL0     O54548   6.330   1.937   4.736  0.3275 -0.4540 -0.0651
  405MOL0     C54549   6.299   2.002   4.618  0.5169  0.3654  0.7938
  405MOL0     C54550   6.162   2.071   4.630  0.0964  0.0714 -0.4056
  405MOL0     C54551   6.042   1.975   4.599  0.3009 -0.3105  0.7050
  405MOL0     C54552   5.957   1.965   4.723  0.1178  0.0354  0.1418
  405MOL0     C54553   5.816   1.938   4.699  0.4794 -0.6929 -0.6872
  405MOL0     C54554   5.746   2.042   4.622  0.6205 -0.0920  0.2292
  405MOL0     C54555   5.591   2.026   4.608 -0.2163  0.8393 -0.7652
  405MOL0     C54556   5.522   2.160   4.631 -1.3074  0.3690 -0.3493
  405MOL0     N54557   5.383   2.161   4.658  0.3332 -0.1248 -0.9352
  405MOL0     C54558   5.335   2.178   4.789 -0.2055  0.2482 -0.0585
  405MOL0     C54559   5.208   2.221   4.782  0.9128 -0.5390 -0.3467
  405MOL0     C54560   5.120   2.265   4.907  0.2145 -0.9715  0.4978
  405MOL0     C54561   5.157   2.419   4.944  0.2034  0.4300  0.0559
  405MOL0     C54562   5.127   2.517   4.832  0.9226 -1.4798  0.3391
  405MOL0     C54563   5.096   2.669   4.871 -0.2516  0.0101 -0.1486
  405MOL0     O54564   5.212   2.743   4.913 -0.3518 -0.0516  0.1920
  405MOL0     C54565   5.197   2.878   4.916  0.9558 -0.5195  0.5385
  405MOL0     C54566   5.318   2.953   4.915 -0.3252  0.9251  0.5400
  405MOL0     C54567   5.315   3.094   4.913  1.0058  0.2251 -0.2599
  405MOL0     C54568   5.439   3.158   4.928 -0.3175 -0.3726 -0.5157
  405MOL0     C54569   5.193   3.161   4.947  0.7100  0.3385  0.3348
  405MOL0     C54570   5.184   3.303   4.989 -0.2524  0.0736 -0.1086
  405MOL0     O54571   5.070   3.344   5.056 -0.0925  0.5163 -1.1784
  405MOL0     C54572   5.039   3.474   5.071  0.1051  0.1853 -0.0877
  405MOL0     C54573   5.002   3.519   5.194 -0.0766 -0.6366  0.3949
  405MOL0     C54574   4.947   3.643   5.218  1.0424  0.2868 -1.0661
  405MOL0     C54575   4.929   3.732   5.107 -0.3931  0.5882  1.0599
  405MOL0     O54576   4.869   3.854   5.116  0.3838 -0.3485 -0.0497
  405MOL0     C54577   4.738   3.842   5.168  0.0517  0.0239  0.7076
  405MOL0     C54578   4.640   3.947   5.109 -0.6657 -0.7165 -0.6713
  405MOL0     C54579   4.632   3.926   4.959  0.2575 -0.0686  0.6130
  405MOL0     C54580   4.521   4.010   4.900 -0.3119  0.2114 -0.1100
  405MOL0     C54581   4.534   4.018   4.744 -0.0700  0.6622 -0.3448
  405MOL0     C54582   4.428   4.121   4.687 -0.3066 -0.7319 -1.1147
  405MOL0     C54583   4.451   4.125   4.536  0.4843 -0.6019 -0.3293
  405MOL0     C54584   4.356   4.214   4.463 -0.1163  0.5609 -0.5810
  405MOL0    Cl54585   4.202   4.127   4.427 -0.7271  0.1626  0.1620
  405MOL0     C54586   4.978   3.693   4.980 -1.1996  0.0940 -0.1455
  405MOL0     C54587   5.032   3.563   4.958 -0.4521 -0.4647  0.6754
  405MOL0     O54588   5.274   3.381   4.961  0.4252 -0.7764 -0.0194
  405MOL0     C54589   5.072   3.087   4.952  0.7438 -0.5218  1.0219
  405MOL0     C54590   5.076   2.951   4.936 -0.7205 -0.1705  0.5999
  405MOL0     N54591   5.173   2.240   4.650  0.3864 -0.1677  0.6387
  405MOL0     N54592   5.279   2.201   4.578 -0.3010 -0.7142 -0.3859
  405MOL0     C54593   6.472   1.780   4.847  1.1087  1.3530 -0.1100
  405MOL0     C54594   6.597   1.708   4.862  0.3309 -0.8593  0.1320
  405MOL0     C54595   7.017   1.557   4.741 -0.4645  0.3667 -0.7469
  405MOL0     C54596   7.083   1.460   4.653  0.1699  0.4031 -1.2376
  405MOL0     C54597   7.213   1.414   4.682 -0.3098 -0.1684 -0.9605
  405MOL0     C54598   7.274   1.439   4.803  0.0700  0.0178  0.3100
  405MOL0     O54599   7.396   1.371   4.818  0.6841  0.1712 -0.9299
  405MOL0     C54600   7.484   1.372   4.937 -0.4215  0.9460 -0.1078
  405MOL0     C54601   7.595   1.276   4.901 -0.8340 -0.5690 -0.8224
  405MOL0     C54602   7.547   1.133   4.881 -0.1809  0.0360  0.7757
  405MOL0     C54603   7.513   1.050   5.006 -0.2378  1.1730 -0.0975
  405MOL0     C54604   7.631   1.026   5.078  0.3612  0.7682 -0.2991
  405MOL0     C54605   7.747   1.022   5.123 -0.0096  0.6146  0.0512
  405MOL0     C54606   7.209   1.516   4.895 -0.5996 -0.7258  0.8790
  405MOL0     C54607   7.086   1.585   4.863  0.6176  0.2221 -0.4413
  405MOL0     H54608   6.757   1.836   4.579  5.3828  1.9146  3.3792
  405MOL0     H54609   6.542   1.955   4.567 -0.5185 -0.1494  0.5367
  405MOL0     H54610   6.368   2.084   4.593  0.0538  0.7886  0.8826
  405MOL0     H54611   6.305   1.934   4.533 -0.5850  1.7230 -0.4066
  405MOL0     H54612   6.143   2.116   4.728  0.3267  2.4765 -1.4045
  405MOL0     H54613   6.150   2.153   4.559  1.9418  2.8170  2.2011
  405MOL0     H54614   5.988   2.014   4.512  0.0257  1.9242  1.8275
  405MOL0     H54615   6.081   1.873   4.585 -0.0261 -0.4221  0.6002
  405MOL0     H54616   5.999   1.896   4.797  2.0147  0.4072 -0.5453
  405MOL0     H54617   5.957   2.062   4.774  0.9835 -0.5641  1.3340
  405MOL0     H54618   5.810   1.842   4.647  0.9201  0.0776 -2.2282
  405MOL0     H54619   5.770   1.906   4.793  0.4991 -0.9269 -0.7556
  405MOL0     H54620   5.768   2.141   4.664 -0.9362  0.1396  0.5818
  405MOL0     H54621   5.778   2.049   4.518 -0.3173 -0.0316 -0.0639
  405MOL0     H54622   5.562   1.979   4.513 -0.2133  2.6688 -1.7134
  405MOL0     H54623   5.569   1.947   4.681  0.7260  0.8120 -0.5072
  405MOL0     H54624   5.548   2.223   4.545  3.8023  0.4376  0.8777
  405MOL0     H54625   5.577   2.220   4.704  2.1807 -2.5622 -0.2359
  405MOL0     H54626   5.392   2.169   4.880 -0.8389  0.8934  0.4112
  405MOL0     H54627   5.012   2.265   4.890  0.3881 -2.1847 -0.8026
  405MOL0     H54628   5.145   2.193   4.985  0.8978 -2.3782 -0.9688
  405MOL0     H54629   5.260   2.418   4.979 -0.0852  3.4667  1.2380
  405MOL0     H54630   5.102   2.434   5.037  1.8465 -3.2870  1.8126
  405MOL0     H54631   5.045   2.478   4.771  0.0311  1.0093 -0.1464
  405MOL0     H54632   5.207   2.523   4.759  1.7358  1.5167  1.3657
  405MOL0     H54633   5.015   2.660   4.944 -0.6771  0.1823 -0.5878
  405MOL0     H54634   5.052   2.716   4.782 -3.3465 -2.1557  0.0665
  405MOL0     H54635   5.402   2.884   4.913 -0.2431  0.9904  1.2545
  405MOL0     H54636   5.527   3.092   4.925 -0.0211  0.0328 -2.4157
  405MOL0     H54637   5.456   3.222   4.841 -1.8349 -1.0331 -1.3426
  405MOL0     H54638   5.442   3.230   5.009  2.2614 -1.3653  0.3679
  405MOL0     H54639   5.010   3.449   5.276  1.5033  1.7978  2.4722
  405MOL0     H54640   4.923   3.685   5.316  2.6524  3.5884 -1.9315
  405MOL0     H54641   4.691   3.747   5.142  2.4581 -0.4000 -2.9041
  405MOL0     H54642   4.743   3.842   5.277  0.3396 -0.0253  0.6974
  405MOL0     H54643   4.547   3.942   5.165 -1.1557 -2.8699 -1.5696
  405MOL0     H54644   4.674   4.049   5.125  1.5260 -1.1680 -1.9979
  405MOL0     H54645   4.607   3.820   4.950 -0.1262  0.0342  0.4589
  405MOL0     H54646   4.731   3.947   4.917 -0.2231  0.6807 -0.1719
  405MOL0     H54647   4.422   3.966   4.915 -0.2266 -0.8020 -2.2577
  405MOL0     H54648   4.515   4.114   4.935 -2.2264  0.4322 -1.0183
  405MOL0     H54649   4.520   3.918   4.703  0.7573  0.0324  0.8328
  405MOL0     H54650   4.637   4.052   4.725  0.8016 -1.1264  0.8792
  405MOL0     H54651   4.326   4.084   4.703 -1.1910  1.1025 -2.2860
  405MOL0     H54652   4.445   4.210   4.748  0.8018 -2.0260  0.5816
  405MOL0     H54653   4.433   4.022   4.502  0.6096 -1.4922  2.1108
  405MOL0     H54654   4.551   4.165   4.516  0.6233  1.9153  4.1725
  405MOL0     H54655   4.403   4.252   4.372  0.7742 -0.6377 -0.6362
  405MOL0     H54656   4.344   4.298   4.532  1.5542 -1.1904  2.0203
  405MOL0     H54657   4.972   3.772   4.906  1.7388  3.0087  2.3797
  405MOL0     H54658   5.046   3.529   4.856  0.5368  1.5058  0.1075
  405MOL0     H54659   4.981   3.143   4.972  0.4527 -0.0746 -1.3489
  405MOL0     H54660   4.983   2.895   4.934 -1.8305  1.5927  0.0169
  405MOL0     H54661   6.385   1.762   4.908 -0.3360 -1.3831 -2.6935
  405MOL0     H54662   6.625   1.649   4.949  1.1712  1.3510  1.4755
  405MOL0     H54663   7.047   1.438   4.553  0.8946  0.0957 -1.4394
  405MOL0     H54664   7.274   1.366   4.607  0.8986  0.1163 -0.1869
  405MOL0     H54665   7.533   1.467   4.958  0.2091  0.3858  1.0702
  405MOL0     H54666   7.426   1.342   5.025 -5.1120  0.8125 -2.9406
  405MOL0     H54667   7.670   1.276   4.981 -1.2485 -3.2457 -0.3340
  405MOL0     H54668   7.638   1.310   4.807  0.5767  2.1394  0.6784
  405MOL0     H54669   7.622   1.076   4.826 -1.1029 -0.3478 -0.0960
  405MOL0     H54670   7.460   1.143   4.816 -1.1818 -2.9305  1.5045
  405MOL0     H54671   7.472   0.953   4.974 -1.2653  1.3075  0.7420
  405MOL0     H54672   7.444   1.102   5.073 -0.9503  1.1102 -0.7619
  405MOL0     H54673   7.849   1.023   5.154 -0.1863  0.7981  0.6513
  405MOL0     H54674   7.255   1.538   4.990  3.3577  2.1799 -1.4046
  405MOL0     H54675   7.047   1.657   4.934 -0.7395 -0.5750 -0.3608
  406MOL0     O54676   8.476   0.253   2.004  0.8651 -0.0762 -0.0595
  406MOL0     C54677   8.365   0.266   1.954  0.2187  0.6970  0.2425
  406MOL0     O54678   8.248   0.184   1.979 -0.8844  0.0802  0.2050
  406MOL0     C54679   8.262   0.069   2.054 -0.7417  0.7312  0.0216
  406MOL0     C54680   8.371  -0.016   2.039  0.3034  0.2988  0.1216
  406MOL0     C54681   8.391  -0.132   2.111  0.4447 -0.7616  0.0340
  406MOL0     C54682   8.293  -0.188   2.192  0.1712 -0.8582 -0.8773
  406MOL0     O54683   8.313  -0.307   2.253  0.0230  0.4588 -0.5454
  406MOL0     C54684   8.297  -0.415   2.162  0.2576 -0.3990  0.7089
  406MOL0     C54685   8.350  -0.540   2.207 -0.9761  0.7815 -0.7854
  406MOL0     C54686   8.502  -0.538   2.214 -0.4050 -0.4491  0.4848
  406MOL0     C54687   8.579  -0.576   2.084 -0.2696 -1.4031 -0.2165
  406MOL0     C54688   8.726  -0.549   2.100  0.8730 -0.2653  1.2827
  406MOL0     C54689   8.759  -0.404   2.110 -0.5384 -0.9336  0.8548
  406MOL0     C54690   8.911  -0.382   2.132 -0.3852  0.1351 -0.1746
  406MOL0     C54691   8.951  -0.387   2.277 -0.2960 -0.0865  0.0505
  406MOL0     N54692   9.091  -0.348   2.306 -0.1860  0.3602 -0.2478
  406MOL0     C54693   9.161  -0.235   2.253 -0.4624  0.2503  0.0823
  406MOL0     C54694   9.276  -0.218   2.331 -0.1785 -0.3456  0.3659
  406MOL0     C54695   9.386  -0.117   2.314 -0.2458 -0.0522 -0.0562
  406MOL0     C54696   9.338   0.005   2.393 -0.5534  0.2632 -0.2021
  406MOL0     C54697   9.440   0.113   2.378  0.1329  0.2542  1.4319
  406MOL0     C54698   9.395   0.247   2.426 -0.4843  0.1138  0.0492
  406MOL0     O54699   9.488   0.345   2.385 -0.3420 -0.0239  0.1820
  406MOL0     C54700   9.612   0.346   2.447 -0.6818 -0.2218  0.0514
  406MOL0     C54701   9.644   0.276   2.565 -0.5375  0.0556 -0.2719
  406MOL0     C54702   9.779   0.258   2.599 -0.6329 -0.6833  0.1321
  406MOL0     C54703   9.789   0.170   2.721 -0.4490  0.0014  0.4104
  406MOL0     C54704   9.887   0.318   2.519 -0.3739  0.9830  0.1056
  406MOL0     C54705  10.031   0.284   2.542 -0.3237 -0.2899 -0.4899
  406MOL0     O54706  10.112   0.262   2.428  0.6129  0.0025  0.4829
  406MOL0     C54707  10.223   0.184   2.452 -0.5171 -0.6905  0.8165
  406MOL0     C54708  10.352   0.220   2.412 -0.1757  0.1610 -0.6424
  406MOL0     C54709  10.463   0.134   2.442 -0.6603 -0.1616 -0.8019
  406MOL0     C54710  10.449   0.020   2.519  0.2280  0.2909 -0.4443
  406MOL0     O54711  10.563  -0.052   2.559  0.1420  0.3646  0.5467
  406MOL0     C54712  10.543  -0.166   2.642 -0.3173 -0.7335  0.4464
  406MOL0     C54713  10.677  -0.209   2.672  0.6493 -0.3105 -0.5540
  406MOL0     C54714  10.655  -0.324   2.777 -0.3388 -0.1872  0.7329
  406MOL0     C54715  10.788  -0.391   2.825 -0.3551 -0.1602  0.4983
  406MOL0     C54716  10.853  -0.461   2.697 -0.2527 -0.5514  0.9549
  406MOL0     C54717  10.921  -0.589   2.743  0.0382  0.2995 -0.9407
  406MOL0     C54718  11.041  -0.555   2.846 -0.0176 -0.8872 -0.2853
  406MOL0     C54719  11.170  -0.515   2.781  0.6427  0.4570  0.5389
  406MOL0    Cl54720  11.209  -0.642   2.660 -0.2739  0.3544 -0.6354
  406MOL0     C54721  10.317  -0.017   2.547  0.3676 -0.1086 -0.5374
  406MOL0     C54722  10.206   0.059   2.501 -1.4076  0.0786 -0.4039
  406MOL0     O54723  10.069   0.292   2.656 -0.2643 -0.6536  0.3438
  406MOL0     C54724   9.856   0.394   2.405  0.8241  0.9316  1.0063
  406MOL0     C54725   9.715   0.408   2.368 -0.4020  0.3507  0.1071
  406MOL0     N54726   9.282  -0.334   2.408  0.0935 -0.4724 -0.3298
  406MOL0     N54727   9.167  -0.398   2.406 -0.6935 -0.7021 -0.1138
  406MOL0     C54728   8.170  -0.107   2.194 -0.9039 -0.2585 -0.5389
  406MOL0     C54729   8.164   0.012   2.126  0.0774  0.4430  0.3649
  406MOL0     C54730   8.347   0.365   1.842 -0.1977 -0.6348 -0.9020
  406MOL0     C54731   8.228   0.367   1.763  0.2160  0.7090  0.2299
  406MOL0     C54732   8.204   0.455   1.664 -0.4171 -0.2875  0.5691
  406MOL0     C54733   8.314   0.540   1.625  0.0429  0.5803 -1.3704
  406MOL0     O54734   8.327   0.602   1.509 -0.5083  0.4017  0.1663
  406MOL0     C54735   8.212   0.615   1.422  0.1760 -0.3740 -0.7327
  406MOL0     C54736   8.115   0.713   1.482 -0.2061  0.1834  0.0274
  406MOL0     C54737   7.987   0.738   1.404  0.0659  0.0495  1.0834
  406MOL0     C54738   7.863   0.652   1.453  0.7381 -0.5786 -0.1039
  406MOL0     C54739   7.881   0.505   1.427 -1.0869 -1.2996  0.0914
  406MOL0     C54740   7.908   0.395   1.379  1.9597 -0.0241 -0.7008
  406MOL0     C54741   8.431   0.547   1.703  0.9451  0.6904 -0.7296
  406MOL0     C54742   8.443   0.469   1.815  0.6626  0.9790 -0.0311
  406MOL0     H54743   8.453   0.017   1.975  2.2727  1.1461  2.8858
  406MOL0     H54744   8.486  -0.183   2.102 -0.4391 -2.2985 -0.9999
  406MOL0     H54745   8.189  -0.424   2.152  0.2417  0.1392  0.4023
  406MOL0     H54746   8.328  -0.399   2.059 -2.6172 -1.9519 -0.5071
  406MOL0     H54747   8.313  -0.537   2.310  2.3693  3.6492  0.5367
  406MOL0     H54748   8.322  -0.630   2.152 -1.6073 -0.4721  1.4550
  406MOL0     H54749   8.538  -0.441   2.249  2.2507 -0.1175 -2.6133
  406MOL0     H54750   8.537  -0.616   2.282  2.9143  1.3480  1.0639
  406MOL0     H54751   8.558  -0.681   2.062 -2.0212 -1.4735  1.5899
  406MOL0     H54752   8.539  -0.516   2.002 -0.7697 -1.6934 -0.1868
  406MOL0     H54753   8.769  -0.606   2.183 -0.6360 -2.4404  0.6885
  406MOL0     H54754   8.781  -0.593   2.016  1.1690  1.7832  0.3382
  406MOL0     H54755   8.725  -0.355   2.019 -0.0640  1.5175  1.9060
  406MOL0     H54756   8.706  -0.349   2.189 -1.7642 -1.1040  0.1624
  406MOL0     H54757   8.970  -0.448   2.068 -0.8212 -1.7206  1.2631
  406MOL0     H54758   8.942  -0.287   2.087  0.3149 -0.0634 -0.1120
  406MOL0     H54759   8.932  -0.484   2.322  4.5831 -1.7744 -0.9236
  406MOL0     H54760   8.887  -0.319   2.334  1.1408  0.8124  0.6382
  406MOL0     H54761   9.129  -0.182   2.164  0.7159  0.6668 -0.1129
  406MOL0     H54762   9.482  -0.156   2.349 -0.1922 -0.9028 -1.1145
  406MOL0     H54763   9.389  -0.101   2.206 -1.6538 -2.8855 -0.5996
  406MOL0     H54764   9.317  -0.019   2.498  1.4407  1.7305  0.5825
  406MOL0     H54765   9.240   0.030   2.351  0.1057 -0.1279 -2.0782
  406MOL0     H54766   9.473   0.119   2.274 -1.1951 -1.4647  0.8651
  406MOL0     H54767   9.530   0.089   2.434  0.0576 -1.5664  0.8387
  406MOL0     H54768   9.381   0.248   2.534  0.8646  1.5823  0.2404
  406MOL0     H54769   9.294   0.269   2.389 -1.4651 -0.3935  2.2890
  406MOL0     H54770   9.578   0.216   2.627  1.4951 -1.8037  0.2431
  406MOL0     H54771   9.742   0.073   2.704  0.2890 -0.5951  1.6183
  406MOL0     H54772   9.892   0.163   2.757 -0.6861  0.9687  1.3294
  406MOL0     H54773   9.735   0.218   2.803  1.2966  0.3356  1.4088
  406MOL0     H54774  10.357   0.307   2.348 -2.8637  0.0502 -1.0863
  406MOL0     H54775  10.566   0.145   2.410  0.1832 -2.7316  0.7095
  406MOL0     H54776  10.498  -0.145   2.739  1.5532  2.1886  0.8284
  406MOL0     H54777  10.492  -0.242   2.582 -0.0095 -0.1707 -0.5645
  406MOL0     H54778  10.727  -0.232   2.577 -0.2610  2.6327 -1.8675
  406MOL0     H54779  10.742  -0.130   2.711 -0.5560  1.6447 -2.2563
  406MOL0     H54780  10.597  -0.404   2.729  2.4692 -0.4494 -2.6178
  406MOL0     H54781  10.624  -0.285   2.874  1.8960  0.2944  1.2964
  406MOL0     H54782  10.870  -0.322   2.847  2.0245 -0.2265 -5.9079
  406MOL0     H54783  10.767  -0.463   2.905 -1.9457 -4.2347 -3.1420
  406MOL0     H54784  10.925  -0.392   2.653 -0.3244 -1.1087 -0.0720
  406MOL0     H54785  10.790  -0.483   2.611 -0.4574  0.9980  0.6853
  406MOL0     H54786  10.861  -0.651   2.810  4.0725  2.0147  4.9846
  406MOL0     H54787  10.954  -0.638   2.651  1.4069  0.0336 -0.3216
  406MOL0     H54788  11.044  -0.644   2.909  0.5552 -1.0441 -0.5328
  406MOL0     H54789  11.005  -0.471   2.906 -0.0596 -0.9968 -0.1570
  406MOL0     H54790  11.243  -0.500   2.862  0.4149 -1.2929  1.1062
  406MOL0     H54791  11.177  -0.416   2.735  2.4377 -0.4186 -1.1814
  406MOL0     H54792  10.288  -0.115   2.585  0.1171 -0.4634 -1.5897
  406MOL0     H54793  10.110   0.013   2.523 -2.6232  1.1523 -3.0051
  406MOL0     H54794   9.925   0.432   2.331  1.0752  0.8481  1.1968
  406MOL0     H54795   9.686   0.467   2.281  0.7724  0.6175 -0.1197
  406MOL0     H54796   8.082  -0.129   2.253 -1.5790 -0.2476 -1.5234
  406MOL0     H54797   8.067   0.059   2.113  0.4215  0.3453 -4.1266
  406MOL0     H54798   8.149   0.296   1.783  0.1443  0.7602  0.1315
  406MOL0     H54799   8.118   0.448   1.598 -1.3759 -0.1870  1.7838
  406MOL0     H54800   8.242   0.661   1.328  2.3041 -1.3090 -0.5679
  406MOL0     H54801   8.165   0.519   1.395 -0.0692 -1.2596  2.4383
  406MOL0     H54802   8.179   0.801   1.481  0.5224 -0.3426  0.1083
  406MOL0     H54803   8.082   0.686   1.583 -1.9295  2.0256  0.0134
  406MOL0     H54804   7.998   0.700   1.302 -0.5523  1.1274  0.6003
  406MOL0     H54805   7.980   0.848   1.407  4.5511  0.6361 -1.3033
  406MOL0     H54806   7.767   0.677   1.407  0.6938 -0.2539  0.1597
  406MOL0     H54807   7.845   0.680   1.557  0.3215  2.3619 -0.8710
  406MOL0     H54808   7.943   0.308   1.328 -0.4650 -1.6158  0.1616
  406MOL0     H54809   8.518   0.605   1.672  1.4466  1.1107  1.3199
  406MOL0     H54810   8.533   0.482   1.874  1.2807 -1.5888 -0.2624
  407MOL0     O54811   9.734   9.595  10.863  0.7737  0.7545  0.0572
  407MOL0     C54812   9.656   9.634  10.777  0.2891  0.0573 -0.1568
  407MOL0     O54813   9.525   9.614  10.782  0.4666 -0.3495  0.1701
  407MOL0     C54814   9.475   9.541  10.890 -0.1401  0.0556 -0.0382
  407MOL0     C54815   9.416   9.617  10.990  0.4727 -0.3424  0.2394
  407MOL0     C54816   9.363   9.562  11.111 -0.9835  0.2876  0.0208
  407MOL0     C54817   9.408   9.433  11.150 -0.3036  0.5185  0.6120
  407MOL0     O54818   9.378   9.377  11.273  0.1436  0.1468 -0.5710
  407MOL0     C54819   9.436   9.447  11.389 -0.4021  1.2268  0.3647
  407MOL0     C54820   9.507   9.349  11.489  0.0042 -0.5499 -0.7091
  407MOL0     C54821   9.628   9.302  11.421  0.0799 -1.0309 -0.8831
  407MOL0     C54822   9.694   9.186  11.501 -0.1499 -0.3145 -0.2733
  407MOL0     C54823   9.803   9.109  11.440 -0.6291 -0.6251  0.0980
  407MOL0     C54824   9.882   8.995  11.513 -0.4273 -0.7383 -0.5631
  407MOL0     C54825  10.018   8.957  11.449 -0.8443 -0.8306  0.1674
  407MOL0     C54826   9.996   8.842  11.348 -0.2190  0.2925  0.0146
  407MOL0     N54827  10.117   8.841  11.254  0.0886 -0.7607  0.3892
  407MOL0     C54828  10.242   8.822  11.301  0.3532 -0.4109 -0.4705
  407MOL0     C54829  10.308   8.831  11.179  0.2317  0.9416 -1.0347
  407MOL0     C54830  10.461   8.818  11.156 -0.3289  0.2747 -0.0496
  407MOL0     C54831  10.537   8.876  11.273  0.8552  0.3934 -1.5500
  407MOL0     C54832  10.680   8.893  11.242 -0.5069 -1.1846  0.7064
  407MOL0     C54833  10.762   8.772  11.257 -0.8417  0.5711 -0.5542
  407MOL0     O54834  10.801   8.765  11.395  0.2587  0.1782 -0.2875
  407MOL0     C54835  10.907   8.850  11.438 -0.1378  0.0248 -0.1349
  407MOL0     C54836  11.004   8.912  11.349  0.9561 -1.3265 -0.5284
  407MOL0     C54837  11.105   8.986  11.418 -0.7618  0.0158 -0.9374
  407MOL0     C54838  11.216   9.054  11.334  0.2214  0.3147  1.0198
  407MOL0     C54839  11.116   8.995  11.562  0.1283 -0.5080 -0.1705
  407MOL0     C54840  11.218   9.074  11.614 -0.2951  0.0266  0.0002
  407MOL0     O54841  11.187   9.207  11.620 -0.5236  0.1897  0.3201
  407MOL0     C54842  11.279   9.287  11.690  0.2655 -0.0037 -0.6377
  407MOL0     C54843  11.320   9.244  11.816 -0.0731  1.2024 -0.2891
  407MOL0     C54844  11.409   9.315  11.902  0.4070  0.4377  0.6958
  407MOL0     C54845  11.475   9.433  11.846  0.3444  0.3281 -0.6474
  407MOL0     O54846  11.572   9.501  11.918 -0.2694  0.2528 -0.1957
  407MOL0     C54847  11.710   9.471  11.895  0.2693  0.6510  0.2564
  407MOL0     C54848  11.775   9.562  11.805 -0.5781  0.1825 -1.0361
  407MOL0     C54849  11.913   9.515  11.745  0.1665 -0.0393 -0.2505
  407MOL0     C54850  11.896   9.409  11.632  0.9054 -0.6592  0.3755
  407MOL0     C54851  12.018   9.321  11.619 -0.3405  0.4578  0.3151
  407MOL0     C54852  12.133   9.398  11.541  0.0440 -0.4573  0.0393
  407MOL0     C54853  12.271   9.332  11.544  0.6843  0.0672  1.0172
  407MOL0     C54854  12.382   9.436  11.526 -0.1875  0.1025 -0.1373
  407MOL0    Cl54855  12.426   9.513  11.689  0.0320 -0.5560 -0.2393
  407MOL0     C54856  11.452   9.472  11.712 -0.6596 -0.2566  0.8771
  407MOL0     C54857  11.351   9.394  11.636 -1.0230  0.0312  0.2573
  407MOL0     O54858  11.325   9.020  11.638 -0.1763 -0.7484  0.1123
  407MOL0     C54859  11.011   8.945  11.640 -0.7745 -0.0179  0.4048
  407MOL0     C54860  10.908   8.865  11.579 -0.1045  0.0099 -0.6053
  407MOL0     N54861  10.225   8.867  11.076  0.6897  0.3771 -0.5019
  407MOL0     N54862  10.104   8.869  11.117 -0.8897 -0.3677 -0.7437
  407MOL0     C54863   9.469   9.360  11.040  0.7236  1.2526 -0.3472
  407MOL0     C54864   9.509   9.404  10.919 -0.4221 -1.0533  0.1299
  407MOL0     C54865   9.722   9.717  10.670  0.9839 -0.9764  0.8712
  407MOL0     C54866   9.646   9.773  10.564  0.4643  0.1869  0.9735
  407MOL0     C54867   9.712   9.832  10.458  0.5289 -0.5537  0.7071
  407MOL0     C54868   9.847   9.877  10.464 -0.5464 -0.1181  0.4040
  407MOL0     O54869   9.896   9.953  10.367 -0.0797 -0.2197  0.9055
  407MOL0     C54870   9.861   9.917  10.223  0.2410 -0.0716 -0.3384
  407MOL0     C54871   9.993   9.905  10.149 -0.2009  0.3960  0.7488
  407MOL0     C54872   9.953   9.870  10.001 -0.7238  0.5741 -1.4235
  407MOL0     C54873   9.934   9.724   9.959 -0.4183  0.5908 -1.4802
  407MOL0     C54874   9.799   9.702   9.910 -1.0988  0.3756  0.1874
  407MOL0     C54875   9.686   9.684   9.874  0.4342  0.0788  0.6288
  407MOL0     C54876   9.922   9.834  10.574  1.0393 -0.1268 -0.8314
  407MOL0     C54877   9.860   9.752  10.677  0.7037  0.0028 -0.1819
  407MOL0     H54878   9.401   9.720  10.957 -0.5055 -0.8055 -0.8239
  407MOL0     H54879   9.312   9.626  11.182 -1.4503 -1.0688  0.9339
  407MOL0     H54880   9.507   9.521  11.349  1.6019 -2.1503 -3.0267
  407MOL0     H54881   9.362   9.500  11.449 -2.3190 -2.3494  1.4157
  407MOL0     H54882   9.532   9.388  11.588  0.5049 -0.4790 -0.8581
  407MOL0     H54883   9.447   9.261  11.512  0.7297 -1.1082 -0.9321
  407MOL0     H54884   9.591   9.262  11.326 -1.4527 -1.5778 -0.1042
  407MOL0     H54885   9.702   9.379  11.401 -0.0640 -0.9867 -1.2586
  407MOL0     H54886   9.747   9.235  11.583  1.0329 -1.5083 -0.2832
  407MOL0     H54887   9.624   9.122  11.555 -0.0081  1.5846  2.3476
  407MOL0     H54888   9.760   9.064  11.351  1.7460 -0.2127 -1.3507
  407MOL0     H54889   9.880   9.182  11.411  0.9251 -2.4929 -0.7155
  407MOL0     H54890   9.901   9.034  11.613 -0.1357 -2.2844  0.0218
  407MOL0     H54891   9.835   8.897  11.528  4.0505 -2.8845  1.5203
  407MOL0     H54892  10.066   9.039  11.395 -0.2155 -2.3790 -1.7501
  407MOL0     H54893  10.087   8.925  11.527  2.7378  3.2669 -0.9406
  407MOL0     H54894   9.897   8.849  11.301  0.4691 -0.8381 -1.6961
  407MOL0     H54895   9.988   8.748  11.403 -1.6286  0.5052  0.2104
  407MOL0     H54896  10.285   8.781  11.392  0.3396  0.5015 -0.0391
  407MOL0     H54897  10.484   8.712  11.140 -0.8318  0.0239  0.7929
  407MOL0     H54898  10.484   8.871  11.063  1.7375 -0.4117  0.0239
  407MOL0     H54899  10.529   8.815  11.364 -0.1487  1.9670 -0.5324
  407MOL0     H54900  10.490   8.968  11.310  0.4780 -1.2718  2.6512
  407MOL0     H54901  10.725   8.970  11.305  1.1658 -1.4410 -0.1019
  407MOL0     H54902  10.696   8.930  11.140 -1.8891 -0.5418  0.6962
  407MOL0     H54903  10.852   8.795  11.199 -0.1618 -0.2600  0.1382
  407MOL0     H54904  10.713   8.683  11.216 -0.0715 -0.5635  0.8590
  407MOL0     H54905  11.010   8.900  11.242 -2.3794  1.2780 -1.1432
  407MOL0     H54906  11.283   8.973  11.306 -2.6902 -2.0421  0.3057
  407MOL0     H54907  11.160   9.094  11.248  1.6047 -1.1034 -0.6102
  407MOL0     H54908  11.266   9.139  11.381  3.2601 -0.9940  0.3964
  407MOL0     H54909  11.261   9.166  11.862  0.9662  1.2236  1.1548
  407MOL0     H54910  11.420   9.279  12.003 -0.8984 -2.5808 -0.1236
  407MOL0     H54911  11.745   9.468  11.999 -3.6850  1.7643  1.8353
  407MOL0     H54912  11.713   9.366  11.866  0.2632  0.6137  0.3850
  407MOL0     H54913  11.714   9.584  11.717 -0.2357  0.6636 -1.1543
  407MOL0     H54914  11.797   9.655  11.858  1.0223 -0.0303 -1.2826
  407MOL0     H54915  11.977   9.475  11.824  0.2997 -0.6988 -0.6843
  407MOL0     H54916  11.952   9.610  11.707 -3.4307  0.2467 -3.8513
  407MOL0     H54917  11.811   9.339  11.640 -0.8708  1.3086 -0.2803
  407MOL0     H54918  11.871   9.461  11.539  0.3135 -3.5780 -1.2167
  407MOL0     H54919  11.991   9.229  11.566  1.8439  0.3837 -0.8000
  407MOL0     H54920  12.058   9.288  11.715  0.0575 -1.5259 -0.4717
  407MOL0     H54921  12.098   9.404  11.438 -3.4980  2.0823  1.2062
  407MOL0     H54922  12.140   9.494  11.594  1.6723  0.3479 -1.5380
  407MOL0     H54923  12.279   9.253  11.470 -1.0555 -1.4405  2.3352
  407MOL0     H54924  12.282   9.270  11.634 -0.4846 -2.1495 -0.2796
  407MOL0     H54925  12.342   9.519  11.466  0.3317  2.1319  2.1775
  407MOL0     H54926  12.466   9.393  11.471 -0.5069  0.7405 -1.1647
  407MOL0     H54927  11.495   9.557  11.660 -1.0048 -0.4336  0.2927
  407MOL0     H54928  11.331   9.408  11.531  1.4434 -0.7097 -0.3739
  407MOL0     H54929  11.031   8.951  11.747 -1.0885  1.8520  0.3899
  407MOL0     H54930  10.825   8.811  11.623 -2.6855 -1.4492 -6.3405
  407MOL0     H54931   9.482   9.256  11.069  1.1040  2.0292  2.6139
  407MOL0     H54932   9.568   9.347  10.847  1.4850 -0.5224  1.1974
  407MOL0     H54933   9.539   9.759  10.552 -0.4836  3.5455  3.6935
  407MOL0     H54934   9.650   9.861  10.374  0.4695 -0.8823  0.6350
  407MOL0     H54935   9.804   9.824  10.221  0.5154 -0.2529  0.0834
  407MOL0     H54936   9.805  10.002  10.183 -1.8764 -1.0395  0.4007
  407MOL0     H54937  10.069   9.834  10.182 -0.0384 -0.1721 -0.7834
  407MOL0     H54938  10.041  10.002  10.160  0.3539 -0.0561  2.7459
  407MOL0     H54939  10.033   9.918   9.943  2.2349  0.0750  1.9491
  407MOL0     H54940   9.861   9.924   9.974 -1.5423  0.0908  0.2667
  407MOL0     H54941   9.962   9.657  10.042 -1.6353  4.2495  2.2410
  407MOL0     H54942  10.002   9.697   9.878 -0.6023  2.7451 -2.4217
  407MOL0     H54943   9.594   9.641   9.837  2.0423 -2.4723 -0.7301
  407MOL0     H54944  10.019   9.879  10.586 -0.1920  2.1363  1.7802
  407MOL0     H54945   9.909   9.704  10.761  0.6962 -0.1030 -0.2365
  408MOL0     O54946   2.691   5.993  10.915  0.5932  0.6875  0.4515
  408MOL0     C54947   2.610   5.939  10.991 -0.8489 -0.5365 -0.1274
  408MOL0     O54948   2.581   5.977  11.121  0.5555 -0.1789 -1.2259
  408MOL0     C54949   2.639   6.092  11.179  0.0238  0.0250  0.0180
  408MOL0     C54950   2.564   6.207  11.220 -0.9572  0.4088 -0.4049
  408MOL0     C54951   2.624   6.325  11.262 -0.0165 -0.2049 -0.4931
  408MOL0     C54952   2.761   6.339  11.276 -0.7639  1.3110 -0.4866
  408MOL0     O54953   2.807   6.451  11.328 -0.9958 -0.4606  0.1990
  408MOL0     C54954   2.916   6.456  11.416  0.2971  0.3057 -0.4599
  408MOL0     C54955   3.033   6.536  11.371 -0.4094 -0.7405  1.1927
  408MOL0     C54956   2.997   6.683  11.343  0.8357  0.7321  0.6543
  408MOL0     C54957   3.113   6.780  11.343 -0.0797 -0.9637  0.2323
  408MOL0     C54958   3.187   6.798  11.479  0.4142 -0.3069  0.0278
  408MOL0     C54959   3.256   6.935  11.492  0.2988 -0.0020 -0.0106
  408MOL0     C54960   3.338   6.936  11.628 -0.7624 -0.0824  0.2439
  408MOL0     C54961   3.414   7.071  11.645 -0.0811 -0.1668 -1.0884
  408MOL0     N54962   3.492   7.062  11.770  1.0238  0.1633 -0.2365
  408MOL0     C54963   3.431   7.072  11.896 -0.0746  1.4135 -0.6229
  408MOL0     C54964   3.518   7.026  11.989 -0.3712  0.0457  0.5613
  408MOL0     C54965   3.506   7.025  12.135 -0.5786  1.0159 -0.2479
  408MOL0     C54966   3.424   6.902  12.185  0.0462 -0.6285 -0.7064
  408MOL0     C54967   3.467   6.775  12.124  0.3738  0.3130 -0.7038
  408MOL0     C54968   3.397   6.651  12.206  0.3114 -0.7856  1.1219
  408MOL0     O54969   3.435   6.524  12.144  0.0964  0.3166 -0.4321
  408MOL0     C54970   3.326   6.453  12.096  0.1465  0.1758  0.2805
  408MOL0     C54971   3.307   6.469  11.962 -0.0560  0.0086  0.2956
  408MOL0     C54972   3.219   6.390  11.890 -0.4288 -1.3324 -0.3781
  408MOL0     C54973   3.211   6.416  11.746 -0.8564  0.2097  0.1146
  408MOL0     C54974   3.120   6.320  11.963 -0.0528 -0.2530 -0.5807
  408MOL0     C54975   3.000   6.257  11.905 -0.2089 -0.0377  0.2466
  408MOL0     O54976   2.961   6.288  11.775 -1.8887  0.9080  0.1572
  408MOL0     C54977   2.841   6.230  11.733  0.7052 -0.1763 -0.8736
  408MOL0     C54978   2.825   6.167  11.602  0.1430  0.7361 -0.0412
  408MOL0     C54979   2.697   6.116  11.562  0.5022 -1.0992 -0.2576
  408MOL0     C54980   2.588   6.163  11.637  0.3241  0.9548 -0.6566
  408MOL0     O54981   2.460   6.153  11.572  0.3433 -0.2887 -1.0908
  408MOL0     C54982   2.339   6.138  11.645 -0.8020 -0.0614 -1.0058
  408MOL0     C54983   2.226   6.086  11.560 -0.4068  0.6394  0.4079
  408MOL0     C54984   2.251   5.947  11.502 -0.6081  0.3486 -1.0212
  408MOL0     C54985   2.134   5.895  11.425 -0.2298 -0.1328 -0.1876
  408MOL0     C54986   2.141   5.740  11.429  0.8707 -0.7132 -0.2737
  408MOL0     C54987   2.018   5.696  11.332 -0.2259  0.1633 -0.3214
  408MOL0     C54988   2.025   5.539  11.294  0.2052 -0.0847 -0.6423
  408MOL0     C54989   1.943   5.506  11.177  0.3539  0.3956  0.2613
  408MOL0    Cl54990   1.994   5.340  11.125 -0.1202  0.2924 -0.1466
  408MOL0     C54991   2.598   6.211  11.765  0.2590  0.6362 -0.1411
  408MOL0     C54992   2.727   6.251  11.812  1.2898 -0.5915  0.4453
  408MOL0     O54993   2.937   6.183  11.983  0.0074 -1.1788 -0.2934
  408MOL0     C54994   3.134   6.314  12.106 -0.6171  0.1717  0.7776
  408MOL0     C54995   3.243   6.374  12.168 -1.0059 -0.4660 -0.2445
  408MOL0     N54996   3.632   6.979  11.915  0.6493  0.8828 -0.3495
  408MOL0     N54997   3.618   7.004  11.786  0.5024  0.1014  0.3332
  408MOL0     C54998   2.839   6.224  11.242  0.4212  0.0189 -0.9255
  408MOL0     C54999   2.777   6.106  11.192 -0.2854 -0.3527 -0.0613
  408MOL0     C55000   2.524   5.831  10.948  0.6459  0.2681  0.2189
  408MOL0     C55001   2.558   5.760  10.827 -0.6039 -0.0898 -1.2740
  408MOL0     C55002   2.481   5.662  10.768 -0.3032  0.9759 -0.1370
  408MOL0     C55003   2.364   5.627  10.837  0.6572  0.4018  1.0959
  408MOL0     O55004   2.277   5.537  10.768 -0.4025 -0.6012  0.0821
  408MOL0     C55005   2.155   5.500  10.822  0.4771 -0.3283  0.1093
  408MOL0     C55006   2.036   5.578  10.768 -0.1651  0.0676  0.7169
  408MOL0     C55007   2.051   5.595  10.608 -0.0444 -0.0821 -0.2307
  408MOL0     C55008   2.066   5.469  10.525 -0.3790  0.2094 -0.9678
  408MOL0     C55009   1.951   5.384  10.555 -0.5676 -0.4432  0.5423
  408MOL0     C55010   1.863   5.310  10.588 -0.1700  0.1517 -0.1522
  408MOL0     C55011   2.325   5.691  10.961  0.3955  0.4801 -0.0323
  408MOL0     C55012   2.406   5.787  11.014  0.5246 -0.9074 -0.2784
  408MOL0     H55013   2.457   6.196  11.204 -1.3109 -2.4141  2.7029
  408MOL0     H55014   2.556   6.408  11.279 -1.1338 -0.6841 -2.4248
  408MOL0     H55015   2.873   6.501  11.506  2.0967  3.9665 -1.1972
  408MOL0     H55016   2.960   6.358  11.433 -0.1915  0.6120  3.4440
  408MOL0     H55017   3.098   6.535  11.459  0.0647 -4.8637  0.9853
  408MOL0     H55018   3.088   6.493  11.287  0.4778  3.6945 -0.7482
  408MOL0     H55019   2.955   6.692  11.242 -2.8164  1.2031  2.0620
  408MOL0     H55020   2.910   6.712  11.403 -3.3962 -1.8401 -3.5743
  408MOL0     H55021   3.178   6.751  11.260 -1.5474 -2.7978 -0.3500
  408MOL0     H55022   3.065   6.874  11.316  0.5837  0.6891  4.1520
  408MOL0     H55023   3.114   6.799  11.560  0.9321  0.0510  0.4952
  408MOL0     H55024   3.254   6.711  11.482  0.1612 -0.5444 -0.7428
  408MOL0     H55025   3.325   6.947  11.407  1.1058 -2.0237  0.2938
  408MOL0     H55026   3.184   7.016  11.507  2.1848  1.8677 -0.6002
  408MOL0     H55027   3.273   6.909  11.712 -0.9968  0.7566  0.3508
  408MOL0     H55028   3.418   6.864  11.611  0.6996  1.6007 -0.2938
  408MOL0     H55029   3.350   7.160  11.639  2.3180  2.0525  2.4184
  408MOL0     H55030   3.487   7.079  11.564  0.2903  0.8335 -0.6739
  408MOL0     H55031   3.328   7.099  11.920 -1.1306 -3.6701  2.2758
  408MOL0     H55032   3.602   7.025  12.189 -1.7183 -1.2454  2.0072
  408MOL0     H55033   3.445   7.111  12.164 -2.2338  0.3760 -1.6690
  408MOL0     H55034   3.321   6.926  12.157 -0.8215  0.3911  2.9180
  408MOL0     H55035   3.416   6.900  12.294 -2.3758 -3.6250 -0.8044
  408MOL0     H55036   3.573   6.759  12.146  0.4548  0.8171 -0.7268
  408MOL0     H55037   3.445   6.774  12.017 -1.6908  0.2827 -0.3107
  408MOL0     H55038   3.290   6.673  12.199  0.7950  1.0778 -1.7953
  408MOL0     H55039   3.425   6.665  12.311  0.9071 -0.9862  0.9953
  408MOL0     H55040   3.374   6.533  11.906 -0.5103 -0.7174 -1.1221
  408MOL0     H55041   3.303   6.461  11.708  1.1153 -2.1841  1.7470
  408MOL0     H55042   3.196   6.322  11.692  4.1287  0.7575 -2.9111
  408MOL0     H55043   3.129   6.478  11.709  0.0388  0.0811 -2.3432
  408MOL0     H55044   2.914   6.161  11.541  0.8325 -1.2495  1.0833
  408MOL0     H55045   2.674   6.061  11.472  0.8673 -2.8842  0.6935
  408MOL0     H55046   2.361   6.075  11.732 -1.7265  0.1140 -0.6357
  408MOL0     H55047   2.314   6.235  11.688  0.9237 -1.3039  3.3718
  408MOL0     H55048   2.139   6.090  11.627  0.0504  0.1231  1.0374
  408MOL0     H55049   2.211   6.160  11.480  1.1338  0.6778  0.1261
  408MOL0     H55050   2.275   5.881  11.587 -2.0429  0.4764 -0.4873
  408MOL0     H55051   2.344   5.944  11.445  0.2418 -0.9135  0.3460
  408MOL0     H55052   2.035   5.930  11.453 -0.0200 -0.0592  0.4747
  408MOL0     H55053   2.147   5.926  11.320  0.5597  1.9122  0.4689
  408MOL0     H55054   2.121   5.710  11.533  1.3182  0.7495  0.2475
  408MOL0     H55055   2.235   5.691  11.404 -0.4168 -3.1272 -0.7571
  408MOL0     H55056   1.920   5.704  11.378 -1.7795 -4.7178 -2.1373
  408MOL0     H55057   2.015   5.752  11.238  0.9295 -2.7114 -2.2146
  408MOL0     H55058   1.988   5.473  11.373  1.4838  1.6140  1.4718
  408MOL0     H55059   2.126   5.504  11.272  0.4271  0.5091 -0.5856
  408MOL0     H55060   1.944   5.577  11.094 -1.2641 -0.9824 -1.0005
  408MOL0     H55061   1.836   5.500  11.195  0.1587  0.9279 -0.6371
  408MOL0     H55062   2.512   6.238  11.826 -0.5891  0.5398 -1.2617
  408MOL0     H55063   2.730   6.315  11.900 -2.1021 -0.3724  0.5072
  408MOL0     H55064   3.068   6.258  12.172 -0.7782  0.9282  1.2707
  408MOL0     H55065   3.274   6.342  12.267  1.4671 -1.1799 -1.1564
  408MOL0     H55066   2.945   6.246  11.235  0.9201 -1.8318 -0.0539
  408MOL0     H55067   2.849   6.029  11.168  0.9651  0.2360  1.5680
  408MOL0     H55068   2.656   5.780  10.785  1.1577 -3.2864  0.8955
  408MOL0     H55069   2.506   5.623  10.670 -1.5409  1.2914 -0.5976
  408MOL0     H55070   2.126   5.396  10.802 -3.5255  0.1285  2.5126
  408MOL0     H55071   2.137   5.509  10.930 -0.5071 -1.8434  0.1069
  408MOL0     H55072   2.029   5.675  10.818 -0.9094  0.5315 -0.2635
  408MOL0     H55073   1.942   5.531  10.795 -1.2868  1.9102  0.1750
  408MOL0     H55074   2.129   5.669  10.591 -0.2053  0.9839  3.0146
  408MOL0     H55075   1.961   5.641  10.565  0.1934 -0.0697 -0.7120
  408MOL0     H55076   2.158   5.425  10.565  0.5302  4.4424  2.3650
  408MOL0     H55077   2.069   5.486  10.417  0.8542  0.2516 -0.9426
  408MOL0     H55078   1.786   5.235  10.589  0.2348 -0.2591  0.2788
  408MOL0     H55079   2.236   5.681  11.022  1.9296 -1.2671  2.0973
  408MOL0     H55080   2.377   5.813  11.115  0.2932  1.5888 -0.9299
  409MOL0     O55081  10.104   6.119   3.945  0.5433 -0.2772 -0.2994
  409MOL0     C55082  10.097   6.239   3.947  0.1012 -0.0290  0.1548
  409MOL0     O55083  10.095   6.322   3.831 -0.8564 -0.1634  0.0779
  409MOL0     C55084  10.075   6.268   3.705 -0.2271  1.0555 -0.3645
  409MOL0     C55085   9.973   6.174   3.676  0.0247 -1.3062  1.0723
  409MOL0     C55086   9.947   6.134   3.541 -0.9466 -0.2137  0.4508
  409MOL0     C55087  10.034   6.167   3.439 -0.2516  0.7364 -0.7590
  409MOL0     O55088  10.030   6.113   3.317  0.8072 -0.1741  0.3541
  409MOL0     C55089   9.904   6.124   3.254 -0.6006 -0.2064  0.4646
  409MOL0     C55090   9.919   6.131   3.094 -0.8707  0.4109 -0.1809
  409MOL0     C55091   9.808   6.042   3.037  0.5413  0.2763  0.9635
  409MOL0     C55092   9.720   6.120   2.940  0.3900 -0.6268 -0.6512
  409MOL0     C55093   9.776   6.183   2.816 -1.1031  0.8557  0.0548
  409MOL0     C55094   9.828   6.084   2.710  0.1908 -0.2800  0.4794
  409MOL0     C55095   9.958   6.144   2.650 -0.6051 -0.0692  0.2405
  409MOL0     C55096  10.022   6.058   2.538 -1.2793  0.8409 -0.8141
  409MOL0     N55097  10.100   5.946   2.587 -0.2303 -0.0887  0.2036
  409MOL0     C55098  10.154   5.844   2.511 -0.2348 -0.2958 -0.0298
  409MOL0     C55099  10.216   5.771   2.602  0.2130  1.1422 -0.6403
  409MOL0     C55100  10.280   5.636   2.559 -0.0808  0.9917  0.0605
  409MOL0     C55101  10.326   5.555   2.675 -0.0704  0.4806  0.1100
  409MOL0     C55102  10.442   5.601   2.766  0.6433  0.5096  0.0304
  409MOL0     C55103  10.496   5.478   2.855 -0.8024 -0.4551  0.6493
  409MOL0     O55104  10.400   5.458   2.964  0.2130 -1.3303 -0.2210
  409MOL0     C55105  10.448   5.380   3.073 -0.0820 -0.8591 -0.5478
  409MOL0     C55106  10.356   5.367   3.181  0.0509 -0.5878 -0.1693
  409MOL0     C55107  10.387   5.279   3.291  0.0963 -0.1058  0.0064
  409MOL0     C55108  10.282   5.265   3.405  1.3323 -0.5904 -1.1782
  409MOL0     C55109  10.514   5.228   3.304 -0.0257  0.5858 -0.5019
  409MOL0     C55110  10.565   5.139   3.411 -0.0271 -0.0847  0.4872
  409MOL0     O55111  10.692   5.138   3.439  0.2203  0.0324 -0.2796
  409MOL0     C55112  10.740   5.027   3.513 -0.1772  0.4348 -0.4359
  409MOL0     C55113  10.726   4.889   3.496 -0.5789 -0.3455  0.4731
  409MOL0     C55114  10.794   4.800   3.581 -0.4587 -0.0301 -0.6034
  409MOL0     C55115  10.863   4.852   3.690 -0.8771  1.0190  0.3831
  409MOL0     O55116  10.940   4.751   3.752 -0.1871  0.1351 -0.3936
  409MOL0     C55117  11.055   4.795   3.827  0.2839  1.2183 -0.2070
  409MOL0     C55118  11.113   4.666   3.887  0.2277 -0.3365  0.1930
  409MOL0     C55119  11.073   4.667   4.031  0.3092 -0.4875  0.0756
  409MOL0     C55120  11.106   4.536   4.107 -0.1788  0.2887 -0.6753
  409MOL0     C55121  11.080   4.563   4.248 -0.4039  0.0672  0.1644
  409MOL0     C55122  11.116   4.449   4.333 -0.3311  0.1470 -0.5199
  409MOL0     C55123  11.026   4.330   4.307 -0.0054  0.0105 -0.4121
  409MOL0     C55124  11.009   4.243   4.435  0.2553  0.5348  0.8456
  409MOL0    Cl55125  11.150   4.149   4.457  0.0463 -0.3927  0.0916
  409MOL0     C55126  10.884   4.984   3.703 -0.5486  1.2649 -0.5267
  409MOL0     C55127  10.813   5.071   3.622  0.0711 -0.7538  0.6716
  409MOL0     O55128  10.485   5.067   3.463  0.6349  0.8626 -0.6023
  409MOL0     C55129  10.610   5.250   3.204  0.6601  0.1637  0.3738
  409MOL0     C55130  10.569   5.314   3.079  0.9495  0.0828 -0.2381
  409MOL0     N55131  10.197   5.821   2.732  0.3081  0.1208 -0.3105
  409MOL0     N55132  10.127   5.929   2.719  0.5470  0.5367  0.2661
  409MOL0     C55133  10.133   6.259   3.475 -1.0334 -0.3578  0.0768
  409MOL0     C55134  10.152   6.318   3.601  0.9881  0.4781  0.3460
  409MOL0     C55135  10.080   6.296   4.081 -0.1825 -0.1655 -0.2247
  409MOL0     C55136   9.981   6.389   4.109 -0.1815  0.7029  0.7060
  409MOL0     C55137   9.967   6.444   4.241 -0.4235  0.0278  0.0712
  409MOL0     C55138  10.068   6.431   4.341  0.1984 -0.3176  0.2980
  409MOL0     O55139  10.061   6.503   4.457  0.4442  0.1750 -0.3076
  409MOL0     C55140  10.161   6.497   4.561  0.4606  0.3382 -0.7135
  409MOL0     C55141  10.117   6.393   4.662  0.8822 -0.2919  0.4082
  409MOL0     C55142   9.996   6.437   4.742  0.1160  0.7087  0.4588
  409MOL0     C55143   9.904   6.320   4.780  0.2688  0.8774  0.4402
  409MOL0     C55144   9.958   6.244   4.891 -0.2662  0.4033  0.8834
  409MOL0     C55145  10.006   6.208   4.996  0.2375 -0.0137 -0.0787
  409MOL0     C55146  10.168   6.341   4.319  1.7180  0.6708  0.2804
  409MOL0     C55147  10.163   6.265   4.195  0.6578  0.3185 -0.0050
  409MOL0     H55148   9.926   6.132   3.765  0.7689  0.4535  2.3593
  409MOL0     H55149   9.863   6.072   3.513 -1.4287 -0.2046  1.8353
  409MOL0     H55150   9.840   6.038   3.275 -0.2621  0.6726  7.2523
  409MOL0     H55151   9.856   6.219   3.281  1.7711  1.8594 -1.9427
  409MOL0     H55152   9.931   6.235   3.063  0.3618  0.2653 -0.2398
  409MOL0     H55153  10.013   6.077   3.080 -0.5280  0.4789  1.6335
  409MOL0     H55154   9.852   5.961   2.977 -0.5315 -1.3184  2.2474
  409MOL0     H55155   9.728   5.991   3.091 -0.1544  0.7152  0.3670
  409MOL0     H55156   9.642   6.053   2.903 -1.2253  0.9667 -0.2818
  409MOL0     H55157   9.677   6.204   2.996  2.3465  0.9490 -1.3874
  409MOL0     H55158   9.706   6.250   2.766 -0.4821  0.3373 -1.5756
  409MOL0     H55159   9.847   6.251   2.863 -1.5963  0.3414  1.6147
  409MOL0     H55160   9.857   5.987   2.752  4.3064  0.7557  0.4278
  409MOL0     H55161   9.757   6.065   2.630 -3.1004 -1.4818  3.4259
  409MOL0     H55162   9.934   6.240   2.603 -2.1911  0.5389  2.1406
  409MOL0     H55163  10.031   6.152   2.732 -1.0829 -1.7572  0.8680
  409MOL0     H55164  10.081   6.114   2.466 -1.9943  3.2128  0.3587
  409MOL0     H55165   9.944   6.007   2.479 -1.6899  1.6269 -0.9605
  409MOL0     H55166  10.147   5.835   2.403  0.8723  0.5695 -0.1864
  409MOL0     H55167  10.210   5.583   2.494  1.6314  0.1390 -1.1590
  409MOL0     H55168  10.364   5.658   2.492  1.5418  0.0255  1.6961
  409MOL0     H55169  10.366   5.465   2.627 -0.0881  0.3845  0.2746
  409MOL0     H55170  10.238   5.534   2.738  0.1067  1.7225  0.8047
  409MOL0     H55171  10.411   5.683   2.832  0.7222  0.4611  0.1278
  409MOL0     H55172  10.524   5.651   2.714 -0.5291  2.8454  0.2646
  409MOL0     H55173  10.596   5.509   2.888 -1.5704  2.2397  0.6954
  409MOL0     H55174  10.512   5.390   2.792  0.9417  1.4548 -1.8337
  409MOL0     H55175  10.259   5.416   3.184  0.6561  0.7040 -0.9024
  409MOL0     H55176  10.214   5.351   3.405  2.4404  0.3156 -0.8233
  409MOL0     H55177  10.222   5.175   3.390 -0.7311  0.6848 -1.0455
  409MOL0     H55178  10.328   5.269   3.505 -2.3971  4.2175  0.7588
  409MOL0     H55179  10.662   4.854   3.416  1.1915 -0.3867 -0.9775
  409MOL0     H55180  10.798   4.692   3.571 -0.3608 -0.1650  0.7319
  409MOL0     H55181  11.122   4.832   3.749 -1.3477 -1.9729 -3.3614
  409MOL0     H55182  11.017   4.865   3.902 -1.0225  0.8310 -0.4819
  409MOL0     H55183  11.080   4.576   3.834  0.3902  0.0205 -0.5369
  409MOL0     H55184  11.221   4.668   3.867  0.4642 -1.0306  1.3484
  409MOL0     H55185  10.965   4.679   4.030  0.1953 -1.4163  0.3241
  409MOL0     H55186  11.103   4.757   4.085  1.5535 -0.0793 -1.2384
  409MOL0     H55187  11.054   4.449   4.065  0.5163  0.1487 -1.2840
  409MOL0     H55188  11.213   4.519   4.093 -0.1015 -2.4582  2.1370
  409MOL0     H55189  10.973   4.581   4.260 -1.4395 -3.5082 -2.1224
  409MOL0     H55190  11.132   4.656   4.272 -0.8996  0.4839 -0.3696
  409MOL0     H55191  11.216   4.409   4.310  0.0643 -0.9908  2.5698
  409MOL0     H55192  11.128   4.478   4.438 -4.6765 -1.1514  0.5439
  409MOL0     H55193  11.059   4.274   4.219 -2.3451 -0.9335 -0.7447
  409MOL0     H55194  10.921   4.354   4.291  0.6880  2.3510 -2.1082
  409MOL0     H55195  10.926   4.172   4.431  1.1105 -0.6006  2.4129
  409MOL0     H55196  10.994   4.306   4.523  0.3308  2.7879 -0.6555
  409MOL0     H55197  10.939   5.035   3.782  1.6665 -0.5822 -0.7789
  409MOL0     H55198  10.825   5.177   3.641  2.0438 -0.6797 -0.6446
  409MOL0     H55199  10.711   5.212   3.215  0.6910  0.6060  1.7715
  409MOL0     H55200  10.644   5.321   3.001  1.1933 -0.6594 -0.0805
  409MOL0     H55201  10.202   6.291   3.398 -1.4423  1.6747  0.5102
  409MOL0     H55202  10.226   6.391   3.632 -0.5739  0.5664  4.4993
  409MOL0     H55203   9.910   6.413   4.030 -1.2916  3.9468  2.4993
  409MOL0     H55204   9.889   6.518   4.253 -1.1431 -0.6720 -0.1576
  409MOL0     H55205  10.257   6.472   4.514 -0.0186 -2.3039 -0.4778
  409MOL0     H55206  10.181   6.590   4.615  1.2659 -0.8097  1.0381
  409MOL0     H55207  10.208   6.380   4.722  1.5735  1.1444 -0.2677
  409MOL0     H55208  10.094   6.300   4.609 -1.0253 -0.2945  1.1854
  409MOL0     H55209   9.927   6.494   4.679 -1.9427 -1.3682  0.7075
  409MOL0     H55210  10.032   6.488   4.832 -0.1841  0.8300  0.5108
  409MOL0     H55211   9.890   6.250   4.697  0.5119  1.8065 -0.4040
  409MOL0     H55212   9.806   6.359   4.809 -0.9239 -0.6137 -1.3994
  409MOL0     H55213  10.061   6.183   5.085 -1.3120  0.4164  1.0455
  409MOL0     H55214  10.236   6.319   4.401  0.4773  0.0783  1.1762
  409MOL0     H55215  10.237   6.187   4.180  0.5338  0.4787 -1.5264
  410MOL0     O55216   3.452  10.420   5.481 -0.1357 -0.1091  0.5386
  410MOL0     C55217   3.372  10.353   5.532  0.4362 -0.5755 -0.2768
  410MOL0     O55218   3.325  10.367   5.659  0.9686 -0.1309  0.2179
  410MOL0     C55219   3.344  10.472   5.746 -0.1054 -0.5470  1.1793
  410MOL0     C55220   3.436  10.582   5.737 -0.8582  0.3564  0.7101
  410MOL0     C55221   3.440  10.681   5.834 -0.1587  0.1344 -0.9053
  410MOL0     C55222   3.354  10.680   5.945  1.1539  0.5737 -0.4122
  410MOL0     O55223   3.341  10.774   6.047 -0.8505  0.2981  0.3403
  410MOL0     C55224   3.401  10.903   6.022 -0.8491 -0.2052  0.3666
  410MOL0     C55225   3.369  11.015   6.126 -0.3325  0.0619  0.2316
  410MOL0     C55226   3.426  10.982   6.267 -0.1959 -0.6290 -0.7113
  410MOL0     C55227   3.419  11.105   6.369  0.1457 -0.6718 -0.4344
  410MOL0     C55228   3.519  11.109   6.480 -0.9002  0.1522  1.0193
  410MOL0     C55229   3.500  10.992   6.565 -0.4307  0.1674 -0.4879
  410MOL0     C55230   3.581  10.995   6.701 -0.6797  0.7674 -0.5887
  410MOL0     C55231   3.723  11.041   6.716 -0.3070  0.2310 -0.8911
  410MOL0     N55232   3.835  10.937   6.707  0.2725  0.3792  0.3498
  410MOL0     C55233   3.851  10.837   6.607  0.5266 -0.5325 -1.6359
  410MOL0     C55234   3.980  10.802   6.624 -0.4379  0.9019  1.1978
  410MOL0     C55235   4.046  10.690   6.546 -0.2161  0.1296 -0.2274
  410MOL0     C55236   3.945  10.581   6.510 -0.0014 -0.0232  0.1206
  410MOL0     C55237   4.020  10.473   6.431  0.6450 -0.6473 -0.2483
  410MOL0     C55238   3.944  10.349   6.402  0.2164  0.5816  0.6447
  410MOL0     O55239   3.859  10.375   6.286  0.7839  0.0778  0.3927
  410MOL0     C55240   3.760  10.283   6.256 -1.2421  0.7994 -0.6405
  410MOL0     C55241   3.638  10.335   6.288  0.2038 -0.2979 -0.5995
  410MOL0     C55242   3.520  10.262   6.243  0.7868 -0.0495 -0.1305
  410MOL0     C55243   3.392  10.320   6.284  0.3790 -0.7912 -0.6700
  410MOL0     C55244   3.537  10.142   6.173  0.4383  0.6113  0.5960
  410MOL0     C55245   3.427  10.076   6.098 -0.2748 -0.2599 -0.5056
  410MOL0     O55246   3.300  10.111   6.119 -0.2002  0.1688 -1.0243
  410MOL0     C55247   3.190  10.056   6.066 -0.4387  0.5016 -1.2714
  410MOL0     C55248   3.147  10.095   5.947 -0.2695 -0.0106  1.0240
  410MOL0     C55249   3.024  10.051   5.901  1.2794  1.2949 -0.2695
  410MOL0     C55250   2.945   9.949   5.973 -0.3810 -0.7846  0.2018
  410MOL0     O55251   2.818   9.910   5.942 -0.6928  0.7207 -0.6202
  410MOL0     C55252   2.778   9.941   5.809  1.4615  0.2234  0.1910
  410MOL0     C55253   2.666   9.834   5.776 -0.5118 -0.5278 -0.0675
  410MOL0     C55254   2.525   9.850   5.840  0.1323 -0.5096 -0.2003
  410MOL0     C55255   2.458   9.997   5.813 -0.5848 -0.0187  0.3453
  410MOL0     C55256   2.446  10.049   5.676 -0.0080 -0.6290 -0.1164
  410MOL0     C55257   2.342   9.973   5.580 -0.8976  0.0574 -0.4565
  410MOL0     C55258   2.360  10.027   5.439 -0.1650 -0.6806  0.2685
  410MOL0     C55259   2.311   9.931   5.340  0.1112 -0.4108  0.0780
  410MOL0    Cl55260   2.132   9.924   5.355  0.2916 -0.0500 -0.4278
  410MOL0     C55261   2.999   9.909   6.098  0.2974  1.2862  0.1388
  410MOL0     C55262   3.125   9.964   6.145  0.6500  0.5168 -0.5494
  410MOL0     O55263   3.461  10.008   6.001 -0.1384  0.2701  0.0905
  410MOL0     C55264   3.670  10.084   6.154  0.6423 -0.4045  0.8775
  410MOL0     C55265   3.778  10.160   6.185 -0.2907 -0.2209 -0.3353
  410MOL0     N55266   4.043  10.874   6.721 -0.4734  0.0274  0.3696
  410MOL0     N55267   3.951  10.942   6.777 -0.1415  0.0614 -0.4020
  410MOL0     C55268   3.273  10.564   5.962  0.2771 -0.2983  0.0614
  410MOL0     C55269   3.268  10.464   5.861  0.4597 -0.2978  0.0615
  410MOL0     C55270   3.314  10.246   5.451  0.4740 -0.2955  0.1353
  410MOL0     C55271   3.355  10.220   5.319 -0.1905 -1.2408 -0.7957
  410MOL0     C55272   3.311  10.121   5.240  0.1382  0.7830  0.5871
  410MOL0     C55273   3.232  10.024   5.300  0.0605  0.9597  0.7656
  410MOL0     O55274   3.207   9.900   5.247 -0.2818 -0.1937 -0.1121
  410MOL0     C55275   3.233   9.874   5.111 -0.2627 -1.2473 -0.1025
  410MOL0     C55276   3.195   9.736   5.064 -0.2148 -0.2642  0.5948
  410MOL0     C55277   3.044   9.700   5.086  0.2165  0.9932 -0.0713
  410MOL0     C55278   3.009   9.545   5.084  0.2460  0.2144  0.1366
  410MOL0     C55279   2.907   9.515   4.980 -0.3715 -0.0394  0.3861
  410MOL0     C55280   2.818   9.477   4.911  0.3089 -0.3455  0.1099
  410MOL0     C55281   3.182  10.042   5.434  0.4440 -0.3556  0.2407
  410MOL0     C55282   3.223  10.155   5.509 -0.2192  0.7571  1.2432
  410MOL0     H55283   3.500  10.591   5.650 -2.0189 -1.6705 -0.4399
  410MOL0     H55284   3.515  10.758   5.813  0.3908  0.7492  2.6695
  410MOL0     H55285   3.510  10.892   6.029 -0.7279 -0.4445 -1.4048
  410MOL0     H55286   3.376  10.945   5.924  2.6416 -0.2873 -0.6971
  410MOL0     H55287   3.417  11.109   6.097  0.8949  0.0798  2.1896
  410MOL0     H55288   3.263  11.031   6.143 -0.3329  1.5594 -0.9236
  410MOL0     H55289   3.364  10.900   6.303 -1.3781  1.2560  1.9182
  410MOL0     H55290   3.532  10.954   6.257  1.1446  3.1962  0.8484
  410MOL0     H55291   3.436  11.200   6.318  0.5176 -0.2040  0.5280
  410MOL0     H55292   3.316  11.101   6.405  0.4788  0.4653  0.6964
  410MOL0     H55293   3.622  11.119   6.445  0.0866 -1.3621  3.2247
  410MOL0     H55294   3.499  11.203   6.532 -2.4014  0.6147 -0.2974
  410MOL0     H55295   3.395  10.971   6.587 -0.8972  1.3843 -1.4676
  410MOL0     H55296   3.542  10.906   6.512  0.3197 -0.5735  1.2258
  410MOL0     H55297   3.534  11.076   6.758  1.8012  0.6084  1.8984
  410MOL0     H55298   3.575  10.900   6.756 -2.5897  1.6657  0.9092
  410MOL0     H55299   3.740  11.103   6.805  2.5704 -0.8827 -0.5584
  410MOL0     H55300   3.744  11.113   6.637 -3.1421  1.4009 -0.7048
  410MOL0     H55301   3.772  10.830   6.533 -1.1943 -1.0326  0.1563
  410MOL0     H55302   4.071  10.733   6.449 -1.1793  0.0642 -0.5210
  410MOL0     H55303   4.134  10.665   6.605  1.1022  3.5741 -0.5024
  410MOL0     H55304   3.851  10.609   6.461  1.4638 -0.2767 -3.0769
  410MOL0     H55305   3.918  10.531   6.603 -1.9824  1.3398  0.3424
  410MOL0     H55306   4.111  10.439   6.482  1.7781  0.7046 -1.2826
  410MOL0     H55307   4.052  10.524   6.340 -3.3040 -0.0362 -1.4614
  410MOL0     H55308   3.878  10.298   6.473 -0.2363  0.3995  0.1030
  410MOL0     H55309   4.014  10.270   6.373  2.7632  2.5134  1.2052
  410MOL0     H55310   3.624  10.426   6.346 -1.0883  0.8566 -2.6019
  410MOL0     H55311   3.389  10.387   6.370 -0.6361  2.6357 -3.1632
  410MOL0     H55312   3.340  10.364   6.198  0.0139 -0.8302 -0.4741
  410MOL0     H55313   3.336  10.232   6.317  0.5082 -0.3558  0.7758
  410MOL0     H55314   3.204  10.162   5.884 -0.3380 -1.0507 -0.2008
  410MOL0     H55315   2.978  10.080   5.807 -1.0228 -1.9841 -0.3194
  410MOL0     H55316   2.730  10.038   5.796 -3.4854 -1.5870  2.1210
  410MOL0     H55317   2.853   9.926   5.731  1.5304 -0.8524  0.4442
  410MOL0     H55318   2.660   9.826   5.667 -2.4676 -0.0946 -0.0255
  410MOL0     H55319   2.710   9.746   5.825  4.1054  0.8234 -1.2583
  410MOL0     H55320   2.525   9.846   5.950 -2.2731  2.5060  0.0295
  410MOL0     H55321   2.461   9.768   5.806  0.5184 -1.6349  1.6210
  410MOL0     H55322   2.355   9.992   5.850 -1.0337  2.1688 -0.4306
  410MOL0     H55323   2.498  10.077   5.876 -3.9756  2.6573 -0.5617
  410MOL0     H55324   2.544  10.078   5.635 -0.9965  3.8301  0.1880
  410MOL0     H55325   2.406  10.148   5.701  0.2748 -0.7526  0.8635
  410MOL0     H55326   2.369   9.867   5.577  0.2952  0.3312 -0.1203
  410MOL0     H55327   2.244   9.982   5.626 -1.6914 -2.1423 -1.5741
  410MOL0     H55328   2.461  10.053   5.408 -1.4251  4.1672 -0.4937
  410MOL0     H55329   2.300  10.118   5.440 -0.9108 -1.1484 -0.4211
  410MOL0     H55330   2.376   9.844   5.350  0.3052 -0.1620  1.0196
  410MOL0     H55331   2.328   9.971   5.239 -0.8840  2.6566  1.0274
  410MOL0     H55332   2.958   9.833   6.163 -0.2277  0.7407 -0.7985
  410MOL0     H55333   3.165   9.934   6.242 -1.3260  0.1208  0.2075
  410MOL0     H55334   3.680   9.987   6.105  2.2295  0.7718 -1.3260
  410MOL0     H55335   3.880  10.136   6.159  0.5374  2.1261  0.4631
  410MOL0     H55336   3.205  10.547   6.045  0.3043  1.5655  0.5210
  410MOL0     H55337   3.199  10.381   5.867  0.7457 -0.6162 -0.9023
  410MOL0     H55338   3.424  10.285   5.267 -1.9216  0.6952 -0.7900
  410MOL0     H55339   3.354  10.119   5.140  0.8046 -0.0962  0.8843
  410MOL0     H55340   3.171   9.944   5.055  0.1579 -0.3544  0.5103
  410MOL0     H55341   3.339   9.893   5.090 -0.3547 -0.6189 -0.0212
  410MOL0     H55342   3.266   9.664   5.107  0.4613 -0.2218 -0.4230
  410MOL0     H55343   3.206   9.738   4.956 -0.2098  0.2043  0.6022
  410MOL0     H55344   2.986   9.756   5.013  0.0675  2.2750  0.9832
  410MOL0     H55345   3.004   9.737   5.181  1.9144  0.4627  0.9038
  410MOL0     H55346   2.968   9.524   5.183  1.8642  1.8626  1.2301
  410MOL0     H55347   3.100   9.485   5.078  1.5236  1.8286  2.1602
  410MOL0     H55348   2.725   9.456   4.862 -0.1335  2.0491 -0.1933
  410MOL0     H55349   3.113   9.969   5.475  0.7565 -0.1353  1.1685
  410MOL0     H55350   3.198  10.149   5.614 -1.4444 -4.3530  0.9328
  411MOL0     O55351   7.547   1.895   3.976  0.5222 -0.2798  0.1731
  411MOL0     C55352   7.464   1.868   4.062  0.2379 -0.5210  0.2202
  411MOL0     O55353   7.381   1.966   4.117  0.8397 -1.3037  0.2648
  411MOL0     C55354   7.334   2.080   4.052 -1.7839  0.9453 -0.3166
  411MOL0     C55355   7.387   2.152   3.943 -0.1504 -0.3442  0.5666
  411MOL0     C55356   7.324   2.255   3.883  0.4380 -1.4386 -0.0426
  411MOL0     C55357   7.198   2.295   3.930  0.3472 -0.4598 -0.3570
  411MOL0     O55358   7.125   2.375   3.842 -0.1385  0.8977 -0.3932
  411MOL0     C55359   6.991   2.415   3.889  0.1502 -0.8931 -0.0180
  411MOL0     C55360   6.942   2.537   3.809  0.1072 -0.8275  0.3206
  411MOL0     C55361   6.789   2.543   3.806  0.1071  0.2176  0.2686
  411MOL0     C55362   6.752   2.666   3.714  0.4262  0.6738 -0.4267
  411MOL0     C55363   6.606   2.694   3.741  0.0401 -0.0060  0.0695
  411MOL0     C55364   6.578   2.765   3.868 -0.9034  0.7389 -0.1732
  411MOL0     C55365   6.448   2.849   3.855  1.0055 -0.7068 -0.0146
  411MOL0     C55366   6.431   2.943   3.979 -0.6877  0.2374  0.4415
  411MOL0     N55367   6.309   3.015   3.973 -0.1246  0.2703  1.0122
  411MOL0     C55368   6.316   3.150   3.954  0.7697 -0.1854  0.6012
  411MOL0     C55369   6.189   3.191   3.957  0.7226 -0.1591 -0.1904
  411MOL0     C55370   6.137   3.331   3.930  0.0376  0.8901  1.1197
  411MOL0     C55371   6.164   3.375   3.783  0.2347  0.0377  0.8014
  411MOL0     C55372   6.053   3.455   3.719 -0.3962 -0.6447  1.3724
  411MOL0     C55373   6.088   3.514   3.574 -0.9304  0.2472 -1.0989
  411MOL0     O55374   6.171   3.638   3.588 -0.1276 -0.6524 -0.2910
  411MOL0     C55375   6.183   3.723   3.480 -0.8970  0.2303  0.1575
  411MOL0     C55376   6.250   3.712   3.360  0.1658 -0.8156  0.0081
  411MOL0     C55377   6.262   3.825   3.277 -0.3394 -0.7440 -0.2812
  411MOL0     C55378   6.344   3.805   3.152  0.2139 -0.3335 -0.5044
  411MOL0     C55379   6.207   3.947   3.307 -0.3797  0.5998 -0.5091
  411MOL0     C55380   6.220   4.076   3.230  1.0634 -0.2393 -0.1740
  411MOL0     O55381   6.185   4.187   3.295  0.4454  0.8471  1.1682
  411MOL0     C55382   6.201   4.319   3.243  0.4576  0.0528  0.3790
  411MOL0     C55383   6.104   4.405   3.284  0.3348  0.5877 -0.0925
  411MOL0     C55384   6.110   4.544   3.256 -0.5921  0.0243 -0.4114
  411MOL0     C55385   6.208   4.590   3.167  0.2174 -0.7902 -0.4176
  411MOL0     O55386   6.184   4.720   3.128  0.5369 -0.5388  0.1468
  411MOL0     C55387   6.270   4.779   3.029 -0.4992  0.3078  0.2483
  411MOL0     C55388   6.222   4.920   3.010  0.1503  0.6095 -0.6252
  411MOL0     C55389   6.283   4.989   2.887  0.0409  0.8190  0.1797
  411MOL0     C55390   6.203   5.118   2.851  0.7227  0.2281  0.0343
  411MOL0     C55391   6.071   5.089   2.799  0.2161 -0.4929 -0.2476
  411MOL0     C55392   6.071   5.002   2.680  0.9559  0.3149 -0.0489
  411MOL0     C55393   5.946   5.046   2.594  0.4584 -1.0689 -0.4897
  411MOL0     C55394   5.921   4.971   2.471 -0.5430 -0.4796  1.0182
  411MOL0    Cl55395   6.035   4.848   2.423 -0.2582  0.2161  0.1639
  411MOL0     C55396   6.300   4.501   3.119  0.5440  0.3409  0.0125
  411MOL0     C55397   6.302   4.369   3.160 -0.2553  0.1242 -0.2274
  411MOL0     O55398   6.258   4.077   3.115 -0.0357 -0.4457 -0.3232
  411MOL0     C55399   6.148   3.957   3.438 -0.2774 -0.3814  0.5929
  411MOL0     C55400   6.123   3.844   3.515 -0.3964  0.0389 -0.0425
  411MOL0     N55401   6.106   3.072   3.973 -0.1145  0.4228  0.2280
  411MOL0     N55402   6.185   2.973   3.978  0.1755  0.1126  0.1399
  411MOL0     C55403   7.160   2.227   4.051  0.8456  0.1526  0.5225
  411MOL0     C55404   7.217   2.116   4.105 -0.0462 -0.1466  0.9459
  411MOL0     C55405   7.443   1.738   4.122 -1.2666 -0.1860 -1.1062
  411MOL0     C55406   7.331   1.713   4.205  0.5895 -0.4823  0.9070
  411MOL0     C55407   7.329   1.586   4.268  1.0094  0.6529 -0.2571
  411MOL0     C55408   7.418   1.480   4.248  0.4892 -0.8447  0.6772
  411MOL0     O55409   7.391   1.369   4.328  0.3455  0.7016  0.5354
  411MOL0     C55410   7.501   1.272   4.344 -0.1349  0.2618 -0.4170
  411MOL0     C55411   7.474   1.166   4.455 -0.5173  0.5208  0.4611
  411MOL0     C55412   7.351   1.084   4.427  0.9021  0.3169 -0.6777
  411MOL0     C55413   7.293   1.034   4.557  0.7401  0.1635  0.2042
  411MOL0     C55414   7.363   0.927   4.634 -1.1257 -1.1755 -0.3591
  411MOL0     C55415   7.434   0.842   4.689  0.1756 -0.0150 -0.1136
  411MOL0     C55416   7.523   1.504   4.152  0.7610 -0.7401  1.0037
  411MOL0     C55417   7.532   1.636   4.099 -0.5455 -0.2395 -0.1123
  411MOL0     H55418   7.474   2.112   3.890 -0.4377 -0.4953  0.1997
  411MOL0     H55419   7.365   2.301   3.794 -0.2007 -1.7910 -0.5323
  411MOL0     H55420   6.921   2.331   3.876 -0.6335 -0.3792  0.7766
  411MOL0     H55421   6.995   2.440   3.995  2.2897 -1.3712  0.0477
  411MOL0     H55422   6.976   2.631   3.853 -1.1352  0.5078 -1.4383
  411MOL0     H55423   6.963   2.536   3.702 -0.6748  0.9295  0.1151
  411MOL0     H55424   6.737   2.455   3.768 -1.0216  1.9529 -2.5240
  411MOL0     H55425   6.744   2.558   3.905 -0.8746  2.8084 -0.5028
  411MOL0     H55426   6.801   2.762   3.730 -1.3311  1.7123 -0.9745
  411MOL0     H55427   6.767   2.644   3.608 -3.2151 -2.2100 -0.5823
  411MOL0     H55428   6.566   2.760   3.664  1.1902 -0.4823 -0.9715
  411MOL0     H55429   6.550   2.600   3.741  1.6630 -1.0060  1.1131
  411MOL0     H55430   6.568   2.698   3.954 -3.9455  1.1897 -0.0672
  411MOL0     H55431   6.669   2.821   3.895 -0.2768 -0.2797 -0.1343
  411MOL0     H55432   6.453   2.921   3.773 -1.9248 -1.8633 -1.3729
  411MOL0     H55433   6.361   2.784   3.839 -0.2792  0.2571  2.4521
  411MOL0     H55434   6.516   3.012   3.985  1.6986 -2.3944 -0.5528
  411MOL0     H55435   6.440   2.881   4.068  2.3122 -0.5326 -0.2558
  411MOL0     H55436   6.395   3.215   3.918  1.8903 -1.8833 -0.0885
  411MOL0     H55437   6.031   3.327   3.956 -0.5200 -0.9573 -1.0507
  411MOL0     H55438   6.198   3.400   3.989  4.2997 -0.5829 -1.1357
  411MOL0     H55439   6.169   3.290   3.715  2.9286  2.8583 -2.9609
  411MOL0     H55440   6.264   3.418   3.776  0.1143  0.0039 -2.3043
  411MOL0     H55441   6.026   3.541   3.781 -0.1154  2.3887 -2.3921
  411MOL0     H55442   5.966   3.388   3.717 -0.5493 -0.5097 -1.9135
  411MOL0     H55443   5.997   3.532   3.515 -3.1524 -0.1371  1.9917
  411MOL0     H55444   6.149   3.443   3.516  2.2650  1.0949  0.9862
  411MOL0     H55445   6.305   3.628   3.318 -0.4621 -0.5853 -1.3365
  411MOL0     H55446   6.275   3.813   3.067 -1.0639  0.5721  0.5624
  411MOL0     H55447   6.419   3.884   3.141  0.0889 -0.3555 -1.6391
  411MOL0     H55448   6.397   3.710   3.155 -0.7506 -0.8818  1.6092
  411MOL0     H55449   6.031   4.370   3.356  0.0775  2.0928  0.4062
  411MOL0     H55450   6.042   4.615   3.300 -0.9450 -1.3503  1.4071
  411MOL0     H55451   6.365   4.791   3.083 -1.5938  1.8714  1.9205
  411MOL0     H55452   6.286   4.721   2.938  0.0374  2.1826 -0.9088
  411MOL0     H55453   6.113   4.915   2.999 -0.2760  4.7528  0.2011
  411MOL0     H55454   6.249   4.976   3.100 -1.0473 -0.8017  0.6733
  411MOL0     H55455   6.260   4.922   2.804 -0.6197  0.8609  0.3213
  411MOL0     H55456   6.391   5.006   2.899 -0.0188  1.7554 -0.4964
  411MOL0     H55457   6.188   5.180   2.940  3.8872  3.4675 -1.4306
  411MOL0     H55458   6.251   5.175   2.772  2.5704 -0.4674  0.5901
  411MOL0     H55459   6.037   5.189   2.771  1.4067  0.5508  1.7990
  411MOL0     H55460   6.002   5.057   2.878 -0.1413  1.8558  0.4836
  411MOL0     H55461   6.168   5.011   2.630  1.0515 -1.0298 -0.1433
  411MOL0     H55462   6.064   4.898   2.712  2.9782  0.7755  2.1956
  411MOL0     H55463   5.958   5.151   2.564 -3.9057  0.1577  1.3657
  411MOL0     H55464   5.855   5.056   2.653  0.1290  0.0195 -1.1460
  411MOL0     H55465   5.919   5.046   2.392 -1.0540 -0.5315  0.9746
  411MOL0     H55466   5.818   4.935   2.486 -0.9080  0.7329  1.4881
  411MOL0     H55467   6.382   4.527   3.053 -0.1704 -0.4404 -1.2093
  411MOL0     H55468   6.371   4.294   3.123  0.3707  0.0871  0.9628
  411MOL0     H55469   6.093   4.047   3.465 -2.7309 -1.1496 -1.4501
  411MOL0     H55470   6.079   3.850   3.613 -1.9600 -2.0138 -0.5535
  411MOL0     H55471   7.057   2.236   4.084  0.0949 -2.0844 -1.0067
  411MOL0     H55472   7.171   2.067   4.191  1.6299 -0.8235  1.4834
  411MOL0     H55473   7.254   1.787   4.225  1.7519  0.8641  0.5784
  411MOL0     H55474   7.246   1.566   4.335  1.3770 -0.2609 -0.0520
  411MOL0     H55475   7.512   1.215   4.251  1.1812 -2.1102  1.1017
  411MOL0     H55476   7.596   1.320   4.366 -0.3360 -0.0287  1.1947
  411MOL0     H55477   7.484   1.207   4.556  1.2245  0.0619  0.5075
  411MOL0     H55478   7.554   1.093   4.445 -2.1343 -1.2409 -0.3844
  411MOL0     H55479   7.351   1.004   4.352 -3.7961 -0.7379  0.1288
  411MOL0     H55480   7.266   1.141   4.390 -0.1972 -2.7422 -3.3405
  411MOL0     H55481   7.203   0.980   4.527  2.1831 -1.4255 -1.5022
  411MOL0     H55482   7.266   1.107   4.633 -3.9198 -2.7969  1.8373
  411MOL0     H55483   7.490   0.762   4.733  0.6548 -1.2549 -2.7757
  411MOL0     H55484   7.587   1.425   4.114 -2.4200 -2.0026 -2.2770
  411MOL0     H55485   7.618   1.657   4.036 -2.0084 -1.6797 -2.7974
  412MOL0     O55486  10.397  11.037   6.515 -0.1255 -0.2679  0.3904
  412MOL0     C55487  10.490  10.963   6.472 -0.1174  0.6183 -0.2376
  412MOL0     O55488  10.603  10.999   6.387  0.0540  0.2530 -0.4884
  412MOL0     C55489  10.612  11.118   6.322 -0.7796  0.1099  0.2586
  412MOL0     C55490  10.525  11.224   6.333 -0.1074 -1.9359 -0.3553
  412MOL0     C55491  10.537  11.338   6.256 -0.1952 -0.6430  0.6743
  412MOL0     C55492  10.638  11.339   6.153 -0.3563  0.0851 -0.6388
  412MOL0     O55493  10.633  11.440   6.065  0.1708  0.7285  0.4480
  412MOL0     C55494  10.509  11.451   5.991  0.2284 -0.3621 -0.4997
  412MOL0     C55495  10.534  11.580   5.918  0.8725  0.6425  0.0734
  412MOL0     C55496  10.398  11.622   5.832  0.0555 -0.0423  0.7173
  412MOL0     C55497  10.433  11.728   5.721 -0.3174 -0.4532 -0.6147
  412MOL0     C55498  10.516  11.687   5.595  0.7981  0.1757 -0.3798
  412MOL0     C55499  10.464  11.557   5.528  0.0595  0.4224  0.5366
  412MOL0     C55500  10.489  11.555   5.372  0.8544  0.3843  0.6468
  412MOL0     C55501  10.637  11.511   5.346  0.6852  0.3832 -0.1057
  412MOL0     N55502  10.679  11.375   5.382  0.4544 -0.3393  0.4376
  412MOL0     C55503  10.735  11.292   5.290  0.1448  0.6172 -0.4546
  412MOL0     C55504  10.773  11.186   5.364  0.0340  0.8878 -0.0192
  412MOL0     C55505  10.853  11.064   5.314  0.5381  0.5332  0.8856
  412MOL0     C55506  10.926  10.976   5.415  0.8227  0.9645  1.7076
  412MOL0     C55507  10.837  10.873   5.489 -0.3219  0.1165  0.2784
  412MOL0     C55508  10.906  10.804   5.617  1.0018  0.8909 -0.5612
  412MOL0     O55509  11.007  10.727   5.560  0.7147  0.6715 -0.0899
  412MOL0     C55510  11.072  10.631   5.635 -0.6264  0.4149  0.2020
  412MOL0     C55511  11.120  10.518   5.564  0.1135 -0.2118  0.0845
  412MOL0     C55512  11.183  10.414   5.638 -0.2122  0.1732  0.5213
  412MOL0     C55513  11.232  10.290   5.556  0.1096 -0.2535 -0.5700
  412MOL0     C55514  11.196  10.430   5.780  0.2142  0.0851 -0.0516
  412MOL0     C55515  11.274  10.331   5.864  1.0994 -0.1841  0.9934
  412MOL0     O55516  11.235  10.324   5.997  0.4863  0.2256 -0.2474
  412MOL0     C55517  11.323  10.252   6.081 -0.0555 -0.2259  0.3141
  412MOL0     C55518  11.433  10.321   6.127  0.7264 -0.0165 -0.1291
  412MOL0     C55519  11.496  10.275   6.243 -0.0962 -0.1475 -0.3974
  412MOL0     C55520  11.464  10.152   6.294  0.1065 -0.3577  0.1304
  412MOL0     O55521  11.533  10.120   6.410 -0.0829  0.5915  0.2940
  412MOL0     C55522  11.515   9.989   6.467 -0.0764 -0.6292  0.7536
  412MOL0     C55523  11.615   9.930   6.575  0.2194 -0.0681 -0.2977
  412MOL0     C55524  11.643  10.006   6.701  0.0199 -0.3630  0.0251
  412MOL0     C55525  11.738   9.932   6.797  0.4534  0.7549 -0.3831
  412MOL0     C55526  11.761  10.015   6.923  0.1383  0.5221  0.2476
  412MOL0     C55527  11.822   9.926   7.018 -0.5919 -0.0039  0.0149
  412MOL0     C55528  11.841   9.993   7.154  0.4606 -0.7243  1.1522
  412MOL0     C55529  11.971  10.047   7.173 -0.3442  0.3444 -0.4113
  412MOL0    Cl55530  11.981  10.089   7.347 -0.2885 -0.3792  0.0805
  412MOL0     C55531  11.358  10.083   6.233 -0.2538  0.6462 -0.0034
  412MOL0     C55532  11.278  10.136   6.136 -0.5513 -0.2593 -0.5298
  412MOL0     O55533  11.380  10.288   5.814 -0.0435  0.1514 -0.8202
  412MOL0     C55534  11.160  10.549   5.840 -0.7638 -0.2746 -0.7929
  412MOL0     C55535  11.099  10.647   5.767 -0.2384  0.5974 -0.5976
  412MOL0     N55536  10.770  11.223   5.497  0.2546  0.5943  0.2052
  412MOL0     N55537  10.700  11.333   5.504  0.3712  1.1505  0.2015
  412MOL0     C55538  10.731  11.232   6.139 -0.2272 -0.1078 -0.3425
  412MOL0     C55539  10.713  11.121   6.222 -0.4716 -1.0288 -0.8814
  412MOL0     C55540  10.482  10.816   6.509  0.4143  0.4024  0.2929
  412MOL0     C55541  10.378  10.762   6.594 -0.4559 -0.1297  0.4102
  412MOL0     C55542  10.368  10.626   6.615 -1.1485  0.6946 -0.1964
  412MOL0     C55543  10.432  10.532   6.535 -0.5581  0.3015 -1.3911
  412MOL0     O55544  10.381  10.407   6.547 -0.6639  0.5079 -0.2139
  412MOL0     C55545  10.453  10.309   6.462 -0.3392  0.1623 -0.1498
  412MOL0     C55546  10.442  10.322   6.305 -0.0596 -1.2765 -0.5944
  412MOL0     C55547  10.306  10.380   6.252 -0.5574  0.6842  0.3053
  412MOL0     C55548  10.258  10.304   6.126  1.0420 -0.1669 -1.4261
  412MOL0     C55549  10.355  10.295   6.024 -0.2625  0.3831 -0.3163
  412MOL0     C55550  10.421  10.297   5.923  0.1024  0.1613 -0.0482
  412MOL0     C55551  10.537  10.585   6.463  0.3096 -0.5087  0.8798
  412MOL0     C55552  10.551  10.724   6.439 -0.0297  0.4855  0.1902
  412MOL0     H55553  10.453  11.229   6.415 -0.0084 -0.9775 -0.3106
  412MOL0     H55554  10.476  11.427   6.272 -0.9073 -0.5007 -2.3192
  412MOL0     H55555  10.486  11.374   5.917 -0.6906 -0.0224 -0.5831
  412MOL0     H55556  10.433  11.480   6.064  0.5437  0.9778 -0.6673
  412MOL0     H55557  10.561  11.664   5.983  1.3429  0.8055 -0.3272
  412MOL0     H55558  10.617  11.557   5.851  0.8272 -0.5901  0.4152
  412MOL0     H55559  10.351  11.531   5.792  0.9253 -0.2469  0.1552
  412MOL0     H55560  10.324  11.669   5.898 -1.2827 -0.1344 -0.6759
  412MOL0     H55561  10.338  11.771   5.688 -1.4168 -3.4053 -1.6236
  412MOL0     H55562  10.497  11.796   5.778  0.5330 -1.6850 -0.0561
  412MOL0     H55563  10.528  11.761   5.516  1.7554  0.8230  0.3574
  412MOL0     H55564  10.619  11.674   5.630 -0.1839  0.0998  2.8012
  412MOL0     H55565  10.493  11.469   5.586 -1.7594  0.7187  1.9834
  412MOL0     H55566  10.355  11.564   5.536 -0.1009  1.6082 -1.7042
  412MOL0     H55567  10.421  11.485   5.324  2.8027 -2.7282  2.1074
  412MOL0     H55568  10.483  11.656   5.332  0.3671  0.7173  1.5174
  412MOL0     H55569  10.705  11.583   5.391  1.4261 -0.7776  0.7024
  412MOL0     H55570  10.647  11.518   5.237  0.5541 -0.3995 -0.1754
  412MOL0     H55571  10.775  11.323   5.194 -0.1658  0.1456 -0.7356
  412MOL0     H55572  10.785  11.008   5.249  2.4488 -0.3280 -0.4777
  412MOL0     H55573  10.938  11.097   5.254 -0.9527  3.4076  0.1909
  412MOL0     H55574  10.971  11.041   5.491 -0.7339  0.7674  2.8520
  412MOL0     H55575  11.002  10.915   5.365  1.0456  2.0258  0.7107
  412MOL0     H55576  10.803  10.790   5.426  2.2819  0.1246 -1.2609
  412MOL0     H55577  10.753  10.930   5.529 -0.1633  0.9629 -0.5645
  412MOL0     H55578  10.830  10.744   5.668  0.0307  1.0458 -1.7512
  412MOL0     H55579  10.950  10.881   5.681 -1.1140  1.1597  0.6491
  412MOL0     H55580  11.088  10.508   5.460 -1.1164  1.7674  0.2322
  412MOL0     H55581  11.319  10.333   5.505  1.4845 -0.9655  1.0727
  412MOL0     H55582  11.267  10.201   5.609 -0.2074 -1.9730 -3.0831
  412MOL0     H55583  11.158  10.252   5.486  0.6108  0.0010 -1.2506
  412MOL0     H55584  11.463  10.411   6.075  0.7984  1.3834  2.1986
  412MOL0     H55585  11.581  10.336   6.273  0.9004 -1.2881 -0.7951
  412MOL0     H55586  11.411   9.986   6.502 -1.2492  3.5470 -1.6595
  412MOL0     H55587  11.532   9.922   6.382  3.7077  2.0308 -0.8477
  412MOL0     H55588  11.566   9.838   6.611 -0.6387  0.7886  0.7958
  412MOL0     H55589  11.711   9.914   6.526  2.4554  0.0383  3.6151
  412MOL0     H55590  11.552  10.022   6.759  0.6348  3.1691  0.2357
  412MOL0     H55591  11.669  10.108   6.672 -2.1279 -0.7933 -4.2285
  412MOL0     H55592  11.709   9.829   6.820  1.6480  0.5835  0.4883
  412MOL0     H55593  11.826   9.914   6.734  2.5740 -2.4016  3.0131
  412MOL0     H55594  11.666  10.046   6.967  0.2362  2.4489 -0.7984
  412MOL0     H55595  11.828  10.099   6.903  1.1364 -0.0049  1.2248
  412MOL0     H55596  11.757   9.838   7.026 -3.1908  1.8036  0.2364
  412MOL0     H55597  11.916   9.886   6.979 -0.6296 -0.2433  0.1666
  412MOL0     H55598  11.819   9.922   7.234  2.0335  1.3092  3.6059
  412MOL0     H55599  11.766  10.071   7.170 -3.8130 -4.4912  1.2912
  412MOL0     H55600  11.980  10.132   7.104 -2.1997  2.7818  2.1005
  412MOL0     H55601  12.034   9.959   7.162  3.3151  2.4438  1.7908
  412MOL0     H55602  11.329   9.984   6.266  0.9915  0.2588  0.0037
  412MOL0     H55603  11.189  10.084   6.101 -1.7068 -2.3999  4.6029
  412MOL0     H55604  11.170  10.556   5.948  0.0348 -0.0960 -0.8756
  412MOL0     H55605  11.077  10.742   5.816  2.5957  0.7696  0.5822
  412MOL0     H55606  10.816  11.235   6.072 -2.4442  0.2633 -3.3648
  412MOL0     H55607  10.773  11.034   6.196  2.9781  1.2731 -1.3308
  412MOL0     H55608  10.319  10.831   6.655 -0.0337  0.1547  0.5001
  412MOL0     H55609  10.299  10.577   6.682 -0.9773 -0.9247 -1.1676
  412MOL0     H55610  10.559  10.300   6.487 -0.3021  0.8951 -0.0366
  412MOL0     H55611  10.422  10.208   6.491 -2.3939  1.0254  0.8453
  412MOL0     H55612  10.455  10.217   6.278 -0.0596 -2.1201  2.3558
  412MOL0     H55613  10.531  10.372   6.267  0.6530 -0.9063  1.4495
  412MOL0     H55614  10.314  10.484   6.220 -3.2636  0.3448 -1.8825
  412MOL0     H55615  10.223  10.368   6.323 -0.2992 -0.4957  0.4342
  412MOL0     H55616  10.182  10.367   6.080 -1.8806 -0.2722  2.6663
  412MOL0     H55617  10.211  10.210   6.156  1.7727  0.3565  1.7037
  412MOL0     H55618  10.472  10.304   5.829 -3.2087  2.4624 -1.8771
  412MOL0     H55619  10.604  10.525   6.402  1.4719 -0.3369  1.9540
  412MOL0     H55620  10.623  10.756   6.364 -2.8407  1.4336 -2.2923
  413MOL0     O55621   7.890  10.324   0.998  0.1441 -0.0925  0.4381
  413MOL0     C55622   7.793  10.404   0.983  0.9461  0.0089 -0.2430
  413MOL0     O55623   7.717  10.407   0.870  0.0616  0.3215 -0.2518
  413MOL0     C55624   7.744  10.315   0.775  0.6187  0.7135  0.1933
  413MOL0     C55625   7.654  10.205   0.744  0.2029  0.4497  0.4397
  413MOL0     C55626   7.683  10.128   0.632  0.2764 -1.1466  0.0763
  413MOL0     C55627   7.783  10.161   0.541 -0.8303 -0.1086  0.8206
  413MOL0     O55628   7.811  10.103   0.420  0.6050 -0.4254  0.1470
  413MOL0     C55629   7.738   9.981   0.389 -0.7122  0.3364  0.5828
  413MOL0     C55630   7.617  10.002   0.291  0.0045 -0.5470 -0.4496
  413MOL0     C55631   7.645  10.076   0.161  0.0928 -0.1397  0.2604
  413MOL0     C55632   7.515  10.054   0.069 -0.3667 -0.4827 -0.3114
  413MOL0     C55633   7.523  10.136  -0.061 -0.1380 -0.2932  0.5163
  413MOL0     C55634   7.512  10.285  -0.036  0.7899  0.4522  0.0105
  413MOL0     C55635   7.545  10.393  -0.139 -0.4437  0.1722  0.7324
  413MOL0     C55636   7.689  10.381  -0.188 -0.3512  0.2105 -0.8259
  413MOL0     N55637   7.709  10.487  -0.288 -0.7179 -0.4599 -0.8675
  413MOL0     C55638   7.692  10.487  -0.419  1.0759 -0.0167  0.1520
  413MOL0     C55639   7.747  10.602  -0.458 -0.0050  0.5907  0.1603
  413MOL0     C55640   7.778  10.646  -0.599 -0.2640 -0.7508 -0.1478
  413MOL0     C55641   7.663  10.737  -0.644  0.1176 -0.4117  0.6022
  413MOL0     C55642   7.689  10.766  -0.790  0.1495 -0.5876 -0.5298
  413MOL0     C55643   7.603  10.879  -0.858 -0.0423  0.2581 -0.4313
  413MOL0     O55644   7.589  10.858  -0.995 -0.3871  0.5479  0.1679
  413MOL0     C55645   7.703  10.876  -1.075 -0.9132 -0.4897  0.1682
  413MOL0     C55646   7.831  10.923  -1.044 -1.2674  0.7626  0.8156
  413MOL0     C55647   7.934  10.947  -1.147 -0.7410  0.1095  0.1937
  413MOL0     C55648   8.077  10.992  -1.099 -0.4811  0.1405 -1.2014
  413MOL0     C55649   7.887  10.929  -1.280 -0.0309  0.8066  0.5125
  413MOL0     C55650   7.968  10.963  -1.391 -1.2096 -0.7437  0.7419
  413MOL0     O55651   8.071  11.060  -1.376 -1.4629  0.1183 -0.0824
  413MOL0     C55652   8.150  11.089  -1.490  0.3160 -0.6859 -0.8108
  413MOL0     C55653   8.103  11.127  -1.611 -0.4835  0.4196 -0.8218
  413MOL0     C55654   8.180  11.198  -1.706  0.1203 -0.4532  0.5279
  413MOL0     C55655   8.318  11.219  -1.686  0.4034  0.8064 -0.0608
  413MOL0     O55656   8.404  11.275  -1.784  0.1301  1.1762 -0.2486
  413MOL0     C55657   8.517  11.197  -1.821  0.9021 -0.0972  1.1953
  413MOL0     C55658   8.545  11.232  -1.975  0.3273  0.9698 -0.2241
  413MOL0     C55659   8.426  11.189  -2.069  0.0979  0.6001  0.0357
  413MOL0     C55660   8.380  11.299  -2.178  0.0563 -0.1159  0.0199
  413MOL0     C55661   8.245  11.281  -2.260 -0.2191 -0.3173 -0.3631
  413MOL0     C55662   8.264  11.193  -2.378 -1.0903 -0.2991  0.2654
  413MOL0     C55663   8.278  11.042  -2.352  0.0098  0.3061 -0.5239
  413MOL0     C55664   8.411  10.972  -2.411  0.9582 -0.7087 -0.9971
  413MOL0    Cl55665   8.419  10.791  -2.383  0.1338  0.1151  0.2147
  413MOL0     C55666   8.369  11.165  -1.567 -0.4438  0.1528 -0.5835
  413MOL0     C55667   8.286  11.104  -1.469 -0.5539 -0.7718 -0.5091
  413MOL0     O55668   7.962  10.879  -1.477  0.2054  0.3667  0.4795
  413MOL0     C55669   7.757  10.889  -1.304 -0.0841  0.3897  0.1989
  413MOL0     C55670   7.666  10.864  -1.203  0.2571  0.2266  0.1711
  413MOL0     N55671   7.778  10.676  -0.353 -1.1813  0.1671  0.2130
  413MOL0     N55672   7.764  10.605  -0.246 -0.3735  0.9184  0.2996
  413MOL0     C55673   7.877  10.249   0.584  0.0949 -0.3310 -0.2036
  413MOL0     C55674   7.851  10.336   0.697  0.1236  0.1150  0.4108
  413MOL0     C55675   7.725  10.478   1.099 -0.4794  0.6898 -0.0122
  413MOL0     C55676   7.763  10.469   1.232 -0.3850  0.2825  0.4330
  413MOL0     C55677   7.709  10.540   1.343  0.2045  0.3651 -0.0119
  413MOL0     C55678   7.603  10.623   1.328  0.9553 -0.0114  0.7706
  413MOL0     O55679   7.564  10.700   1.435  0.1084 -0.3321  0.5922
  413MOL0     C55680   7.423  10.722   1.441  0.3749  0.7600 -0.2631
  413MOL0     C55681   7.380  10.858   1.390  0.4993 -0.7605  1.0393
  413MOL0     C55682   7.274  10.922   1.473  0.0758 -0.1957  0.0601
  413MOL0     C55683   7.278  11.077   1.462  0.5130  0.0394 -0.7624
  413MOL0     C55684   7.405  11.138   1.492 -1.0213 -0.1896 -1.0666
  413MOL0     C55685   7.514  11.189   1.522  0.0250  0.9543 -0.0268
  413MOL0     C55686   7.556  10.638   1.196 -0.2454 -0.1576  0.1959
  413MOL0     C55687   7.612  10.569   1.088  0.4609  0.1563  0.5840
  413MOL0     H55688   7.571  10.176   0.808 -0.5783  0.2740 -0.6211
  413MOL0     H55689   7.599  10.061   0.617 -3.4313  2.6929  1.8786
  413MOL0     H55690   7.815   9.919   0.342 -0.6178  1.5279 -0.9121
  413MOL0     H55691   7.715   9.929   0.483  3.3901 -1.5201  0.7792
  413MOL0     H55692   7.602   9.899   0.256  2.9456 -1.8279  1.6755
  413MOL0     H55693   7.524  10.035   0.338 -0.3656 -2.7716  0.5279
  413MOL0     H55694   7.671  10.181   0.175  2.9597  0.2262 -5.0299
  413MOL0     H55695   7.726  10.033   0.101 -2.9108 -3.1770 -2.0658
  413MOL0     H55696   7.503   9.950   0.040 -1.9681 -0.3202 -0.3353
  413MOL0     H55697   7.428  10.091   0.126  2.9753  3.8529  2.7161
  413MOL0     H55698   7.614  10.104  -0.113 -0.5193  1.2105 -1.1984
  413MOL0     H55699   7.440  10.108  -0.126 -1.0419 -0.0240  1.5287
  413MOL0     H55700   7.407  10.311  -0.018 -0.5051 -0.8826 -4.1806
  413MOL0     H55701   7.571  10.311   0.052  1.6187 -1.6674  0.1443
  413MOL0     H55702   7.485  10.373  -0.228 -0.9459  1.6273  0.7152
  413MOL0     H55703   7.524  10.496  -0.110  0.4033  0.4869  0.2626
  413MOL0     H55704   7.725  10.288  -0.233  4.1138  1.5485 -0.4594
  413MOL0     H55705   7.761  10.402  -0.109  0.8846  1.8934 -2.3161
  413MOL0     H55706   7.645  10.413  -0.482  0.4372  1.0496 -0.6356
  413MOL0     H55707   7.873  10.699  -0.596  0.5692 -2.2384  1.8211
  413MOL0     H55708   7.786  10.570  -0.677 -2.3238  2.2036 -3.5513
  413MOL0     H55709   7.644  10.829  -0.588  2.4299 -0.4363  1.5632
  413MOL0     H55710   7.573  10.676  -0.641  0.5641 -1.0373  2.6386
  413MOL0     H55711   7.673  10.675  -0.848 -1.8372 -1.1194  0.7427
  413MOL0     H55712   7.793  10.798  -0.793  0.2027 -0.8638 -2.0206
  413MOL0     H55713   7.648  10.977  -0.842  2.1466 -0.4225 -1.8773
  413MOL0     H55714   7.502  10.884  -0.815 -0.9416  3.4637 -2.6102
  413MOL0     H55715   7.851  10.940  -0.939  1.7648 -1.4232  0.7401
  413MOL0     H55716   8.084  10.972  -0.992  0.4047 -0.3628 -1.3367
  413MOL0     H55717   8.158  10.935  -1.147 -1.6073  1.1595 -4.6120
  413MOL0     H55718   8.102  11.096  -1.121  2.1138  0.1845  1.4018
  413MOL0     H55719   7.996  11.115  -1.628 -0.6950  3.7344 -2.7000
  413MOL0     H55720   8.148  11.234  -1.804  0.7265  2.3724  1.2671
  413MOL0     H55721   8.599  11.230  -1.755  2.3867 -2.2105  0.5234
  413MOL0     H55722   8.496  11.090  -1.810  2.5559 -0.4778  0.9862
  413MOL0     H55723   8.559  11.338  -1.996  0.1678  2.0340  4.1076
  413MOL0     H55724   8.638  11.178  -1.997 -1.3524 -4.2191  3.3898
  413MOL0     H55725   8.346  11.152  -2.005 -0.1031 -0.1399 -0.6342
  413MOL0     H55726   8.461  11.112  -2.138  0.0630 -1.7447  2.4689
  413MOL0     H55727   8.380  11.395  -2.125 -1.8684  0.1529 -0.3826
  413MOL0     H55728   8.456  11.316  -2.254 -0.2177  1.9304  0.1208
  413MOL0     H55729   8.206  11.382  -2.275  0.3160  0.5394  3.1285
  413MOL0     H55730   8.174  11.235  -2.191 -0.2096  2.5102  1.6927
  413MOL0     H55731   8.174  11.211  -2.437 -1.2853 -2.4550 -0.1807
  413MOL0     H55732   8.350  11.225  -2.438 -1.0541 -0.7359  0.0841
  413MOL0     H55733   8.199  10.983  -2.400 -1.5799  2.4192 -0.6289
  413MOL0     H55734   8.278  11.024  -2.244 -0.0372 -0.7574 -0.6870
  413MOL0     H55735   8.505  11.016  -2.377 -1.5557  4.0914  0.7719
  413MOL0     H55736   8.415  10.993  -2.518 -2.6067 -0.6266 -1.2383
  413MOL0     H55737   8.475  11.166  -1.543 -1.0769 -2.3357  3.2004
  413MOL0     H55738   8.337  11.078  -1.376  0.2804  1.8580 -0.1555
  413MOL0     H55739   7.717  10.894  -1.405  0.3983  2.3392  0.0542
  413MOL0     H55740   7.560  10.841  -1.214  0.0207  0.1391  2.2636
  413MOL0     H55741   7.968  10.263   0.527  0.1028 -0.4897 -0.2296
  413MOL0     H55742   7.922  10.412   0.727 -0.8577  0.2573  2.5706
  413MOL0     H55743   7.844  10.405   1.266 -0.9118  0.1490  1.4669
  413MOL0     H55744   7.760  10.543   1.438 -0.4087 -3.0196  0.5757
  413MOL0     H55745   7.373  10.645   1.382  1.6106 -2.2644  2.3717
  413MOL0     H55746   7.399  10.709   1.546 -0.5661 -0.1016 -0.5683
  413MOL0     H55747   7.348  10.838   1.287  1.4830  1.5340  0.2172
  413MOL0     H55748   7.468  10.922   1.394 -1.7015  2.4110  1.7877
  413MOL0     H55749   7.295  10.915   1.580  1.5204 -3.3416 -0.3296
  413MOL0     H55750   7.177  10.874   1.461 -0.2083  0.8978 -2.9708
  413MOL0     H55751   7.192  11.116   1.517  1.5942 -0.3500  1.3553
  413MOL0     H55752   7.250  11.099   1.359 -0.2783  1.6895 -0.2394
  413MOL0     H55753   7.599  11.247   1.555 -1.3624  3.2928 -0.3683
  413MOL0     H55754   7.469  10.701   1.184 -0.4497 -0.3438  0.7151
  413MOL0     H55755   7.567  10.582   0.991  2.0244 -0.0546 -0.1971
  414MOL0     O55756   3.688   1.927   7.114 -0.8757 -0.5571  0.1767
  414MOL0     C55757   3.778   1.907   7.201 -0.0817 -0.4473 -0.0677
  414MOL0     O55758   3.756   1.913   7.337  0.8363 -0.3592 -0.1458
  414MOL0     C55759   3.624   1.932   7.369  1.1763 -0.3575 -0.8497
  414MOL0     C55760   3.588   2.047   7.440 -0.4846 -0.5409  0.6313
  414MOL0     C55761   3.453   2.073   7.465 -0.5765 -0.4841  0.3829
  414MOL0     C55762   3.362   1.968   7.441  0.1015 -0.0073 -0.1896
  414MOL0     O55763   3.238   1.975   7.491  0.1370 -0.2080  0.2622
  414MOL0     C55764   3.216   2.042   7.609  0.1050 -0.3777  0.0545
  414MOL0     C55765   3.103   1.978   7.699  0.0604 -0.6312  0.2919
  414MOL0     C55766   3.071   2.061   7.822 -0.5541  0.2946 -0.8541
  414MOL0     C55767   3.112   1.997   7.951 -0.0591 -0.3635  0.8766
  414MOL0     C55768   3.270   1.966   7.961  0.1237 -0.0260 -0.4031
  414MOL0     C55769   3.362   2.069   7.991 -0.5343 -0.2942 -0.9429
  414MOL0     C55770   3.339   2.126   8.134 -0.0765 -0.0261  0.4167
  414MOL0     C55771   3.462   2.218   8.181  0.7809 -0.2839  0.1272
  414MOL0     N55772   3.441   2.263   8.318  0.1499 -0.2257 -0.3440
  414MOL0     C55773   3.342   2.345   8.367  0.9722 -0.4092  0.4951
  414MOL0     C55774   3.371   2.367   8.493  1.0044  0.1346 -0.2965
  414MOL0     C55775   3.275   2.456   8.574  0.0299 -0.3353 -0.1053
  414MOL0     C55776   3.282   2.426   8.719  0.1786  0.6739 -0.9678
  414MOL0     C55777   3.181   2.523   8.790  1.2801  0.2214  0.6675
  414MOL0     C55778   3.204   2.542   8.944 -0.1949 -0.4231  0.2199
  414MOL0     O55779   3.080   2.596   8.989  0.5029 -0.3167  0.3209
  414MOL0     C55780   3.068   2.626   9.128 -0.8624 -0.2223 -0.0019
  414MOL0     C55781   3.161   2.616   9.228  0.6905  0.6205  0.8617
  414MOL0     C55782   3.135   2.651   9.362 -0.6659 -0.6025 -0.2743
  414MOL0     C55783   3.258   2.664   9.458 -0.1981  0.3172 -0.8498
  414MOL0     C55784   3.004   2.684   9.402  0.0464 -0.3057  0.1004
  414MOL0     C55785   2.952   2.703   9.530 -0.3305 -1.5540 -0.7938
  414MOL0     O55786   3.018   2.801   9.610  1.3349  0.1608  0.9957
  414MOL0     C55787   2.967   2.840   9.731  0.2225 -0.1157  0.6695
  414MOL0     C55788   2.873   2.781   9.817 -0.2912  0.0216  0.6552
  414MOL0     C55789   2.842   2.831   9.943 -0.0807 -0.2919  0.1239
  414MOL0     C55790   2.911   2.942   9.988  0.6325 -0.2672  0.1773
  414MOL0     O55791   2.887   3.002  10.112 -0.3781  0.5786  0.0638
  414MOL0     C55792   2.750   3.043  10.121 -0.4965  0.6308 -0.3027
  414MOL0     C55793   2.753   3.165  10.228 -0.1932  0.5974  1.3074
  414MOL0     C55794   2.829   3.287  10.174 -0.2810 -0.1482  0.1983
  414MOL0     C55795   2.770   3.341  10.047 -0.2199 -0.4471  0.4228
  414MOL0     C55796   2.824   3.482  10.013  0.7961  0.3710 -0.8249
  414MOL0     C55797   2.747   3.551   9.908  0.1039 -0.4176 -0.6664
  414MOL0     C55798   2.796   3.683   9.843  0.4010  0.0123 -0.2601
  414MOL0     C55799   2.733   3.706   9.702  0.1198 -0.1129  0.4639
  414MOL0    Cl55800   2.788   3.867   9.627 -0.0900  0.3099  0.0389
  414MOL0     C55801   2.985   3.019   9.901  0.3185  0.3688  0.1777
  414MOL0     C55802   3.025   2.961   9.779 -0.2136 -0.8507  0.4935
  414MOL0     O55803   2.858   2.631   9.567  0.1653 -0.2170 -0.6838
  414MOL0     C55804   2.903   2.674   9.294  0.4032  0.2970 -0.8049
  414MOL0     C55805   2.936   2.648   9.156 -0.1937  0.2542  0.5601
  414MOL0     N55806   3.474   2.286   8.526 -0.1577 -0.2341 -0.0692
  414MOL0     N55807   3.521   2.222   8.421  0.5514  0.4195 -0.2614
  414MOL0     C55808   3.400   1.843   7.385 -0.4457  0.4081  0.0595
  414MOL0     C55809   3.534   1.827   7.349 -0.8984  0.0312 -0.1281
  414MOL0     C55810   3.912   1.899   7.150 -0.4892  0.1267  1.1829
  414MOL0     C55811   3.947   1.898   7.009  0.4858 -0.2481  0.8119
  414MOL0     C55812   4.083   1.912   6.965 -0.5174  0.4951  0.7646
  414MOL0     C55813   4.196   1.909   7.047  0.6248  0.4114  0.6198
  414MOL0     O55814   4.324   1.908   7.003 -0.6199  0.2914  0.1971
  414MOL0     C55815   4.423   1.892   7.109  0.0435 -0.2164 -0.4025
  414MOL0     C55816   4.571   1.912   7.065 -0.9368 -0.4338 -0.1286
  414MOL0     C55817   4.598   2.051   7.007 -1.1798  0.3749  0.4743
  414MOL0     C55818   4.716   2.033   6.904 -0.6058  0.2081 -0.6621
  414MOL0     C55819   4.843   2.008   6.976  0.7745  0.6210  0.0667
  414MOL0     C55820   4.949   1.989   7.025 -0.8803 -0.3667 -0.0950
  414MOL0     C55821   4.156   1.905   7.193  0.3990  0.2058  0.3600
  414MOL0     C55822   4.020   1.907   7.244 -0.0156 -0.4681 -0.4038
  414MOL0     H55823   3.668   2.117   7.462  0.6747  0.2722 -4.7930
  414MOL0     H55824   3.415   2.164   7.511 -0.2065  0.4770 -1.1224
  414MOL0     H55825   3.308   2.031   7.668 -0.0475 -1.9711  0.0481
  414MOL0     H55826   3.187   2.146   7.592 -1.8207 -1.1383 -1.7728
  414MOL0     H55827   3.015   1.975   7.635  0.3774  0.4430 -0.2083
  414MOL0     H55828   3.138   1.877   7.724  0.1291 -1.1108 -1.5542
  414MOL0     H55829   3.129   2.154   7.828 -1.0455  0.5248  0.9143
  414MOL0     H55830   2.963   2.076   7.818 -0.6227 -0.4741 -2.3668
  414MOL0     H55831   3.085   2.049   8.043  2.8584  1.6594  0.7649
  414MOL0     H55832   3.059   1.902   7.956 -0.9274  0.1671  4.1836
  414MOL0     H55833   3.283   1.895   8.043  1.3943 -1.7577 -2.0196
  414MOL0     H55834   3.282   1.925   7.860  0.1511  1.4983 -1.0490
  414MOL0     H55835   3.459   2.020   7.985 -0.1014  0.5222 -0.7924
  414MOL0     H55836   3.355   2.151   7.919 -1.6804  0.5691  0.1029
  414MOL0     H55837   3.256   2.197   8.129  0.7550  1.3153  3.2064
  414MOL0     H55838   3.312   2.051   8.210 -1.9352  0.1095 -0.0506
  414MOL0     H55839   3.469   2.309   8.122  1.8971  0.3940  1.2537
  414MOL0     H55840   3.548   2.152   8.169  0.1589 -0.6305 -3.8379
  414MOL0     H55841   3.275   2.401   8.302  1.1960 -3.0843 -2.2338
  414MOL0     H55842   3.316   2.555   8.553 -2.1936  0.4415 -1.1069
  414MOL0     H55843   3.173   2.444   8.536 -0.5808  0.4272  1.2141
  414MOL0     H55844   3.385   2.433   8.754  0.0603 -1.8663  0.1635
  414MOL0     H55845   3.242   2.326   8.741  0.1437  1.5258  3.9615
  414MOL0     H55846   3.081   2.490   8.763  0.5724  2.0880  0.8181
  414MOL0     H55847   3.187   2.620   8.739  0.0786  0.7415  1.4677
  414MOL0     H55848   3.278   2.620   8.964 -2.3439  1.9082 -0.4211
  414MOL0     H55849   3.236   2.448   8.990  1.6423  1.2646  2.7189
  414MOL0     H55850   3.264   2.594   9.200  0.4582 -1.9052  1.6701
  414MOL0     H55851   3.244   2.756   9.516  0.8242  1.6155 -2.5682
  414MOL0     H55852   3.291   2.584   9.525 -1.2924  0.4709 -0.1078
  414MOL0     H55853   3.349   2.696   9.406  1.0874 -1.6707  0.0343
  414MOL0     H55854   2.819   2.690   9.792 -3.2186  2.1603 -1.5980
  414MOL0     H55855   2.771   2.778  10.007 -1.4167  0.7460 -0.4450
  414MOL0     H55856   2.718   3.078  10.023  2.1220  0.3466 -1.3291
  414MOL0     H55857   2.692   2.964  10.170  1.4622  1.8062  4.5254
  414MOL0     H55858   2.653   3.198  10.255 -0.7199  0.2622 -0.1348
  414MOL0     H55859   2.795   3.138  10.325 -3.8197 -0.3455  2.7452
  414MOL0     H55860   2.934   3.263  10.159 -0.4581 -2.1848  1.7375
  414MOL0     H55861   2.831   3.366  10.250  2.5050  1.7908 -1.7283
  414MOL0     H55862   2.804   3.276   9.967  1.8049  1.1311 -0.0940
  414MOL0     H55863   2.661   3.337  10.053 -0.2198  0.9681  2.7315
  414MOL0     H55864   2.928   3.478   9.981  1.0415 -1.4687  0.0897
  414MOL0     H55865   2.828   3.538  10.107  0.1361 -3.7223  1.9014
  414MOL0     H55866   2.734   3.478   9.828  1.8922 -3.1629  1.3565
  414MOL0     H55867   2.642   3.570   9.934 -1.4245 -5.7799 -1.7146
  414MOL0     H55868   2.905   3.679   9.832  0.2438 -1.2256 -1.4802
  414MOL0     H55869   2.778   3.773   9.903  1.2116  0.9290 -1.3405
  414MOL0     H55870   2.625   3.687   9.700  0.2364 -0.7917  0.4169
  414MOL0     H55871   2.769   3.629   9.632  0.8584  1.6147 -1.1300
  414MOL0     H55872   3.038   3.106   9.940  2.2244  0.9290 -3.2459
  414MOL0     H55873   3.106   3.010   9.726 -1.6639  0.3053 -0.7559
  414MOL0     H55874   2.798   2.690   9.314  0.1958  1.4497 -2.6318
  414MOL0     H55875   2.861   2.654   9.078  1.1561  0.4128 -0.7570
  414MOL0     H55876   3.324   1.769   7.364  0.1816 -0.1986 -0.1135
  414MOL0     H55877   3.571   1.730   7.319  1.0619  0.6642  0.0414
  414MOL0     H55878   3.879   1.906   6.925 -1.0243 -1.9185  1.7902
  414MOL0     H55879   4.108   1.895   6.861 -0.5277  2.4439  0.4168
  414MOL0     H55880   4.424   1.962   7.193  1.7063 -2.7763  1.8962
  414MOL0     H55881   4.410   1.791   7.148  1.1334  0.6127  2.3264
  414MOL0     H55882   4.582   1.832   6.990 -3.6985 -3.0223  1.9659
  414MOL0     H55883   4.639   1.885   7.147  1.1782 -1.1467 -2.0097
  414MOL0     H55884   4.620   2.120   7.089  4.1384 -0.6928  0.3021
  414MOL0     H55885   4.505   2.068   6.953 -0.4911  0.8288 -0.6090
  414MOL0     H55886   4.725   2.129   6.852 -0.4226  0.8260  0.4654
  414MOL0     H55887   4.696   1.963   6.824 -0.4422  0.3626 -0.8408
  414MOL0     H55888   5.041   1.994   7.081 -1.3352  2.7661  0.5798
  414MOL0     H55889   4.231   1.893   7.270  0.9038  2.1728  0.2396
  414MOL0     H55890   4.004   1.910   7.351  0.7870 -3.0534 -0.1490
  415MOL0     O55891   2.554  10.022   9.078 -0.6895 -0.6493  0.0371
  415MOL0     C55892   2.600  10.097   9.166 -0.2616 -0.1160  0.3832
  415MOL0     O55893   2.729  10.079   9.215  0.5081 -0.0291  0.4941
  415MOL0     C55894   2.806   9.967   9.195 -0.3931 -0.3331  0.5175
  415MOL0     C55895   2.943   9.994   9.233 -0.4077 -0.3742  0.0440
  415MOL0     C55896   3.048   9.897   9.207  1.1006 -0.7947 -0.2464
  415MOL0     C55897   3.017   9.772   9.167  0.1141  0.3385  0.2426
  415MOL0     O55898   3.116   9.668   9.175 -0.1490 -1.4491 -0.1341
  415MOL0     C55899   3.096   9.526   9.150 -0.1605 -0.1330  0.6293
  415MOL0     C55900   3.213   9.451   9.217  0.3273  0.3855  0.3642
  415MOL0     C55901   3.345   9.521   9.173 -0.3839  1.5505 -0.4238
  415MOL0     C55902   3.380   9.534   9.022 -0.1786  0.8768 -0.0229
  415MOL0     C55903   3.540   9.550   8.990  0.2172  0.3037 -1.0651
  415MOL0     C55904   3.562   9.504   8.855  0.1393 -0.4623  0.1971
  415MOL0     C55905   3.692   9.539   8.790 -1.0641  0.3791 -0.4060
  415MOL0     C55906   3.697   9.481   8.643  0.2335 -0.1537 -0.0772
  415MOL0     N55907   3.840   9.496   8.599  0.2304 -0.2010 -0.3048
  415MOL0     C55908   3.902   9.616   8.567  0.2660  0.0717 -0.6442
  415MOL0     C55909   4.039   9.587   8.561 -0.5570 -0.5618  1.1781
  415MOL0     C55910   4.140   9.688   8.529 -0.7771  0.6947 -0.5233
  415MOL0     C55911   4.159   9.698   8.379  1.2940  0.2847 -0.2251
  415MOL0     C55912   4.245   9.825   8.351 -0.2043  0.5730 -1.0538
  415MOL0     C55913   4.392   9.784   8.378  0.0522 -0.0340  0.0729
  415MOL0     O55914   4.483   9.882   8.310 -0.5750  0.4188 -0.1490
  415MOL0     C55915   4.613   9.874   8.333  0.2709 -1.1986 -0.2496
  415MOL0     C55916   4.684   9.976   8.267  0.2932 -0.9800  0.5082
  415MOL0     C55917   4.822   9.986   8.275 -0.2463 -0.0040 -0.3587
  415MOL0     C55918   4.888  10.097   8.197 -0.2928 -0.3688  0.2183
  415MOL0     C55919   4.898   9.886   8.346  0.6210  0.7649 -0.7604
  415MOL0     C55920   5.042   9.867   8.345  0.4222 -0.4671  0.9393
  415MOL0     O55921   5.125   9.977   8.369 -0.2925  0.2464  0.5969
  415MOL0     C55922   5.260   9.973   8.402  0.5575 -1.0454 -0.1786
  415MOL0     C55923   5.311  10.096   8.437  0.7284 -0.2409  0.0471
  415MOL0     C55924   5.442  10.105   8.484 -0.5209 -0.3645  0.3836
  415MOL0     C55925   5.523   9.998   8.501 -0.0160  1.8980 -1.5724
  415MOL0     O55926   5.656  10.014   8.526 -0.3252  1.0196 -0.3213
  415MOL0     C55927   5.740   9.905   8.555  0.3255  0.0849  0.4310
  415MOL0     C55928   5.885   9.959   8.581  0.2695  0.2158 -0.3957
  415MOL0     C55929   5.892  10.056   8.703  0.3806  0.3378 -0.7011
  415MOL0     C55930   5.837  10.193   8.687  0.3035 -0.0151 -0.3377
  415MOL0     C55931   5.851  10.289   8.810 -0.2745 -1.2704  0.6807
  415MOL0     C55932   5.993  10.353   8.828 -0.1029 -0.0027  0.0887
  415MOL0     C55933   6.012  10.446   8.956 -0.7607 -0.7980 -0.9272
  415MOL0     C55934   6.163  10.468   8.992 -0.0041 -0.5706  0.1679
  415MOL0    Cl55935   6.208  10.587   9.120 -0.1391  0.5046 -0.6074
  415MOL0     C55936   5.465   9.877   8.471  0.1078  0.5698 -0.2721
  415MOL0     C55937   5.333   9.861   8.419 -1.3592  0.8125  0.5221
  415MOL0     O55938   5.071   9.748   8.339 -0.6570  0.2973  0.4007
  415MOL0     C55939   4.819   9.800   8.419 -0.4419  0.1744 -0.1314
  415MOL0     C55940   4.680   9.793   8.414 -0.3020 -0.7274 -0.7485
  415MOL0     N55941   4.046   9.459   8.585 -0.3338  0.1176  0.0214
  415MOL0     N55942   3.935   9.404   8.609  0.1385  0.1624 -0.3950
  415MOL0     C55943   2.882   9.743   9.136  0.3035  0.6685 -0.4384
  415MOL0     C55944   2.778   9.838   9.148  0.0719  0.1428  0.5062
  415MOL0     C55945   2.531  10.226   9.204  0.1938 -0.1035 -0.1519
  415MOL0     C55946   2.400  10.271   9.154 -0.8889  0.7550 -0.7767
  415MOL0     C55947   2.358  10.398   9.195 -0.3512 -0.0263  0.5818
  415MOL0     C55948   2.440  10.485   9.283  0.2065  0.2975  0.0058
  415MOL0     O55949   2.389  10.599   9.345 -0.2306  0.0965 -0.0875
  415MOL0     C55950   2.248  10.632   9.330  0.2932 -0.4676  1.1210
  415MOL0     C55951   2.220  10.764   9.405  0.2683  0.0350  0.1025
  415MOL0     C55952   2.065  10.776   9.405 -0.2899 -0.6464  1.0587
  415MOL0     C55953   2.029  10.854   9.279 -0.1218 -0.1867  1.0073
  415MOL0     C55954   2.069  10.993   9.286 -0.1465  0.5268  0.1067
  415MOL0     C55955   2.119  11.103   9.288 -0.1604 -0.4625  0.7382
  415MOL0     C55956   2.566  10.442   9.339  0.5154 -0.8432  0.2154
  415MOL0     C55957   2.605  10.311   9.295  1.2335  0.5355 -0.2056
  415MOL0     H55958   2.962  10.090   9.279  0.2667 -0.0331 -0.9139
  415MOL0     H55959   3.146   9.929   9.241  0.5232  1.1457 -0.2815
  415MOL0     H55960   3.002   9.487   9.191 -0.0100 -0.4981  0.6312
  415MOL0     H55961   3.100   9.503   9.043 -0.0888  0.0621  0.5890
  415MOL0     H55962   3.208   9.456   9.327  0.2108  2.0886  0.3203
  415MOL0     H55963   3.216   9.347   9.186  0.9932  1.4488 -3.6604
  415MOL0     H55964   3.347   9.622   9.215  3.9242  1.4095  0.2053
  415MOL0     H55965   3.423   9.463   9.223 -1.3019  0.8631  0.2456
  415MOL0     H55966   3.345   9.444   8.971  0.2694 -0.3983  1.8268
  415MOL0     H55967   3.323   9.615   8.975 -0.0897  0.6589 -0.5157
  415MOL0     H55968   3.591   9.644   9.012  1.4691 -0.1978 -1.6969
  415MOL0     H55969   3.597   9.488   9.060 -0.1235 -0.2191 -1.2433
  415MOL0     H55970   3.558   9.395   8.847  0.3879 -0.3810 -1.3698
  415MOL0     H55971   3.489   9.560   8.797  0.5320  1.1776  1.2143
  415MOL0     H55972   3.693   9.648   8.783 -2.0675  0.4325  0.0400
  415MOL0     H55973   3.774   9.500   8.850 -1.2554  0.0955 -0.3245
  415MOL0     H55974   3.628   9.542   8.583 -1.7990 -1.7197  0.5279
  415MOL0     H55975   3.667   9.376   8.644  0.2402 -0.1616 -0.4882
  415MOL0     H55976   3.855   9.713   8.557  3.4722  1.7540 -0.7975
  415MOL0     H55977   4.109   9.783   8.574 -1.6943  0.3848 -0.4824
  415MOL0     H55978   4.240   9.659   8.563 -1.0647  2.5482  2.2779
  415MOL0     H55979   4.057   9.693   8.339  0.0919 -1.7071  2.7318
  415MOL0     H55980   4.217   9.607   8.362  0.5868 -0.2712  0.3121
  415MOL0     H55981   4.218   9.907   8.418 -1.9372  0.5998 -1.7145
  415MOL0     H55982   4.228   9.840   8.244 -1.7920  0.6533 -0.8280
  415MOL0     H55983   4.409   9.682   8.343  1.6480  0.6650 -1.3569
  415MOL0     H55984   4.411   9.775   8.485 -1.3150 -3.6541  0.1472
  415MOL0     H55985   4.634  10.049   8.204  3.0201  0.6522  0.0437
  415MOL0     H55986   4.884  10.196   8.244 -0.4606  0.0465 -0.6589
  415MOL0     H55987   4.992  10.068   8.182 -0.6456 -2.3467  1.2335
  415MOL0     H55988   4.849  10.102   8.095  0.0059 -4.0582 -0.1929
  415MOL0     H55989   5.260  10.192   8.434  0.6306 -0.2812  0.4391
  415MOL0     H55990   5.485  10.201   8.513  0.9627 -1.5145  2.2906
  415MOL0     H55991   5.707   9.870   8.653 -4.6083  1.1274 -0.6207
  415MOL0     H55992   5.733   9.834   8.471 -0.2599 -0.5906  1.0407
  415MOL0     H55993   5.958   9.878   8.589  1.1112  0.7660 -2.0144
  415MOL0     H55994   5.917  10.014   8.492  0.7731  1.3506  0.4637
  415MOL0     H55995   5.996  10.072   8.732  0.0377 -0.9723  1.4757
  415MOL0     H55996   5.841  10.007   8.786  1.1953  1.8385  0.7376
  415MOL0     H55997   5.892  10.248   8.611  0.2811 -0.5446 -0.7356
  415MOL0     H55998   5.730  10.201   8.667  0.1129 -1.0320  0.2286
  415MOL0     H55999   5.819  10.247   8.905 -1.7999 -1.0932  0.2734
  415MOL0     H56000   5.787  10.371   8.779  2.6291 -0.2572 -3.6182
  415MOL0     H56001   6.058  10.266   8.836 -1.0923 -0.7711 -0.1712
  415MOL0     H56002   6.032  10.401   8.737  0.2347  0.5683  0.5267
  415MOL0     H56003   5.957  10.429   9.050  1.8219 -0.3829  0.7675
  415MOL0     H56004   5.977  10.547   8.930  1.1561  0.6264  1.5208
  415MOL0     H56005   6.217  10.497   8.901  0.5296 -0.2407  0.5839
  415MOL0     H56006   6.195  10.369   9.026 -1.3981 -1.5554 -1.2396
  415MOL0     H56007   5.522   9.785   8.470 -0.0425  0.4700 -1.4371
  415MOL0     H56008   5.304   9.760   8.393  2.3271 -0.6099  1.3560
  415MOL0     H56009   4.870   9.738   8.491 -1.2151  1.2679  1.4223
  415MOL0     H56010   4.631   9.716   8.472  1.9475 -1.1513  0.7453
  415MOL0     H56011   2.864   9.638   9.117 -1.0995 -0.1413  4.2167
  415MOL0     H56012   2.675   9.815   9.122  1.0213 -2.0385 -1.7105
  415MOL0     H56013   2.333  10.197   9.112  0.6755 -1.2349  0.0757
  415MOL0     H56014   2.261  10.425   9.157  0.2987  0.3757 -0.8536
  415MOL0     H56015   2.217  10.654   9.228 -0.0063  3.2139  1.8788
  415MOL0     H56016   2.189  10.548   9.371  0.7267 -1.0389  0.5837
  415MOL0     H56017   2.256  10.852   9.350  1.9228 -1.4721 -1.3774
  415MOL0     H56018   2.260  10.756   9.506 -2.6303 -2.7869  1.1786
  415MOL0     H56019   2.032  10.831   9.493  0.6828 -0.0037  1.0415
  415MOL0     H56020   2.007  10.683   9.402 -1.6312  0.1016 -2.7633
  415MOL0     H56021   1.920  10.853   9.265 -0.5249  0.0922  3.6114
  415MOL0     H56022   2.077  10.812   9.190  1.1572  0.3224  1.4432
  415MOL0     H56023   2.170  11.193   9.317 -0.2157  0.4636 -1.8202
  415MOL0     H56024   2.615  10.511   9.407 -0.0822  3.0425 -2.8732
  415MOL0     H56025   2.699  10.269   9.330  2.5627  1.9819 -1.8546
  416MOL0     O56026  11.475   2.621  10.894 -0.2652  1.1639  0.4992
  416MOL0     C56027  11.489   2.523  10.971  0.6168  0.2032 -0.4598
  416MOL0     O56028  11.406   2.411  10.968  0.0036  0.5921  0.2097
  416MOL0     C56029  11.312   2.407  10.869  0.6212  0.6738  0.4428
  416MOL0     C56030  11.175   2.392  10.908  1.3220  1.1662  0.8800
  416MOL0     C56031  11.086   2.370  10.803 -0.2456  0.4037 -0.4032
  416MOL0     C56032  11.123   2.330  10.675  0.4390 -0.9861  0.1837
  416MOL0     O56033  11.037   2.316  10.569  0.3502  0.0375 -0.0868
  416MOL0     C56034  10.899   2.357  10.554 -1.0685 -0.3126 -0.4544
  416MOL0     C56035  10.852   2.283  10.434  1.1036  0.8230  0.0289
  416MOL0     C56036  10.911   2.348  10.305  0.3532 -0.2181 -0.3868
  416MOL0     C56037  10.898   2.261  10.180 -0.1544  0.6131  0.2076
  416MOL0     C56038  10.760   2.243  10.128  0.5537  0.1938 -0.1462
  416MOL0     C56039  10.747   2.181   9.991 -0.2188 -0.2605  0.1090
  416MOL0     C56040  10.755   2.292   9.884  0.5042  0.8881 -0.1068
  416MOL0     C56041  10.725   2.247   9.742  0.2829 -0.3298  0.1375
  416MOL0     N56042  10.578   2.230   9.720  0.2166 -1.1345  0.3579
  416MOL0     C56043  10.520   2.261   9.607 -0.5643 -0.6973  0.9585
  416MOL0     C56044  10.390   2.222   9.619 -0.0805  0.1408 -0.3212
  416MOL0     C56045  10.287   2.207   9.505  0.0722 -0.3593 -0.9722
  416MOL0     C56046  10.152   2.218   9.577  0.8318 -0.2186  0.0823
  416MOL0     C56047  10.034   2.200   9.483  0.4064 -0.3691  0.4139
  416MOL0     C56048   9.997   2.327   9.413 -0.0692  0.1546  0.1362
  416MOL0     O56049  10.098   2.379   9.322 -0.8640  0.0895  0.5542
  416MOL0     C56050  10.065   2.475   9.225  0.5313 -0.0744  0.8936
  416MOL0     C56051  10.155   2.498   9.123 -0.9285  0.0318 -0.2013
  416MOL0     C56052  10.133   2.590   9.016 -0.3795 -0.3511 -0.4023
  416MOL0     C56053  10.243   2.603   8.910  0.6413 -0.2367  0.3439
  416MOL0     C56054  10.023   2.673   9.022  1.2624 -0.8354 -0.7507
  416MOL0     C56055   9.994   2.786   8.928  0.4328 -0.3939  0.1740
  416MOL0     O56056   9.874   2.860   8.953  0.7990  0.1851 -0.3342
  416MOL0     C56057   9.828   2.935   8.853 -1.0301 -0.4870  1.8966
  416MOL0     C56058   9.728   2.876   8.783  0.9544  0.9723  1.1025
  416MOL0     C56059   9.671   2.953   8.677 -0.5089  0.5408 -0.6202
  416MOL0     C56060   9.722   3.064   8.626  0.1303  0.5439 -0.2973
  416MOL0     O56061   9.651   3.127   8.526  0.1791  0.0508  0.3576
  416MOL0     C56062   9.698   3.242   8.445 -0.3565  0.8830  0.7433
  416MOL0     C56063   9.609   3.220   8.311 -0.3540 -0.6832  0.7816
  416MOL0     C56064   9.667   3.328   8.212 -0.4895  0.0864  0.3356
  416MOL0     C56065   9.560   3.401   8.133  0.9453 -1.0159 -0.7382
  416MOL0     C56066   9.613   3.526   8.046  0.4979 -0.2944 -0.5331
  416MOL0     C56067   9.728   3.496   7.941  0.2134 -0.1966  0.4546
  416MOL0     C56068   9.819   3.619   7.913  0.4503 -0.2403  0.3644
  416MOL0     C56069   9.729   3.740   7.867 -0.2694  0.0729  1.1061
  416MOL0    Cl56070   9.675   3.715   7.702 -0.0220  0.0260  0.0425
  416MOL0     C56071   9.838   3.115   8.690  0.1074 -0.0217  1.0972
  416MOL0     C56072   9.883   3.057   8.807  0.3260  0.0445  0.0814
  416MOL0     O56073  10.082   2.823   8.850  0.4065 -0.0050  0.1439
  416MOL0     C56074   9.933   2.655   9.128  0.3231 -0.0714  0.9279
  416MOL0     C56075   9.954   2.558   9.227  1.0411 -0.4243  0.7393
  416MOL0     N56076  10.377   2.161   9.735  0.3691 -0.5674 -0.8497
  416MOL0     N56077  10.490   2.177   9.799 -0.1189 -0.1806 -1.2610
  416MOL0     C56078  11.264   2.337  10.644  0.6190  0.5403  0.4975
  416MOL0     C56079  11.358   2.375  10.735 -0.0394 -0.2921  0.6953
  416MOL0     C56080  11.607   2.516  11.068 -0.2777 -0.2292  0.4439
  416MOL0     C56081  11.608   2.425  11.172 -1.0668  0.0211 -0.2827
  416MOL0     C56082  11.711   2.411  11.260  0.7362 -0.3472 -0.4299
  416MOL0     C56083  11.831   2.479  11.245 -0.2070 -0.5494 -0.1731
  416MOL0     O56084  11.932   2.448  11.329 -0.8844 -0.7106 -0.2513
  416MOL0     C56085  12.061   2.518  11.306  0.1011  0.1945  0.2054
  416MOL0     C56086  12.171   2.483  11.411 -0.2619 -0.2033  0.6025
  416MOL0     C56087  12.215   2.339  11.390  0.8151  0.4583 -0.4077
  416MOL0     C56088  12.340   2.294  11.457  0.3978 -0.0367 -0.7037
  416MOL0     C56089  12.330   2.253  11.599 -0.4086 -0.6059 -0.5355
  416MOL0     C56090  12.335   2.244  11.722 -0.4870 -0.7228  1.1621
  416MOL0     C56091  11.837   2.566  11.136 -0.4488  0.7086  0.2776
  416MOL0     C56092  11.730   2.586  11.047 -0.3854 -0.0815  0.3245
  416MOL0     H56093  11.146   2.405  11.012 -1.3179 -1.5706  0.6324
  416MOL0     H56094  10.982   2.368  10.834  0.5443  0.3796  2.5686
  416MOL0     H56095  10.851   2.324  10.646 -1.4070 -0.1686 -0.5791
  416MOL0     H56096  10.892   2.465  10.539  0.1521  0.0031  1.0406
  416MOL0     H56097  10.871   2.177  10.448 -1.8972  0.3929  1.8270
  416MOL0     H56098  10.742   2.284  10.432  0.9099 -3.4629  0.4738
  416MOL0     H56099  10.865   2.446  10.287  1.4832  0.4679  0.3018
  416MOL0     H56100  11.017   2.371  10.315  0.7503 -1.2941 -1.9174
  416MOL0     H56101  10.959   2.315  10.107 -0.9523  1.2001 -0.0298
  416MOL0     H56102  10.942   2.163  10.203  1.7923  1.4313  0.1887
  416MOL0     H56103  10.703   2.190  10.205  1.5419  2.5484  2.4023
  416MOL0     H56104  10.711   2.341  10.126 -0.1774 -0.0531  2.2880
  416MOL0     H56105  10.831   2.117   9.964  2.1676  2.7250 -0.0439
  416MOL0     H56106  10.663   2.112  10.001  0.0814 -0.8392 -1.2376
  416MOL0     H56107  10.689   2.370   9.923  2.4636  0.7024  4.0917
  416MOL0     H56108  10.856   2.334   9.883  0.0566  1.9819 -0.8221
  416MOL0     H56109  10.774   2.151   9.725 -0.1266 -0.8884  1.8400
  416MOL0     H56110  10.770   2.325   9.681  3.2132  0.0692  2.5335
  416MOL0     H56111  10.571   2.302   9.521 -1.0882 -0.1573  0.9009
  416MOL0     H56112  10.295   2.291   9.436  2.3567  0.4869  0.2232
  416MOL0     H56113  10.299   2.115   9.447  0.3106 -1.3205  0.5231
  416MOL0     H56114  10.149   2.322   9.611 -2.7715  1.5307 -4.5270
  416MOL0     H56115  10.154   2.144   9.658  3.1871  1.7264  1.9315
  416MOL0     H56116   9.950   2.165   9.543 -0.7825 -1.7740 -1.9352
  416MOL0     H56117  10.045   2.125   9.404 -2.4749 -1.4067  0.9002
  416MOL0     H56118   9.972   2.399   9.492  0.0010  0.0743  0.2309
  416MOL0     H56119   9.910   2.305   9.351 -1.0865  0.9047  1.2424
  416MOL0     H56120  10.236   2.426   9.119 -1.6892 -0.7828 -1.5750
  416MOL0     H56121  10.300   2.697   8.906 -2.2127  1.6521 -4.3949
  416MOL0     H56122  10.315   2.525   8.935 -1.3922 -3.7579 -3.5065
  416MOL0     H56123  10.208   2.578   8.809  1.5593  0.4792 -0.1736
  416MOL0     H56124   9.675   2.788   8.818 -1.8527  2.7521  1.6211
  416MOL0     H56125   9.574   2.919   8.641  0.2648 -0.0521 -2.2070
  416MOL0     H56126   9.688   3.329   8.510 -0.2336  0.5221  1.2531
  416MOL0     H56127   9.800   3.235   8.409 -0.5417  0.9589  0.1963
  416MOL0     H56128   9.611   3.129   8.251  1.0295  0.3891 -0.8949
  416MOL0     H56129   9.506   3.241   8.343 -0.3847  0.5822 -0.0663
  416MOL0     H56130   9.729   3.273   8.140  1.2775  2.5842 -0.2147
  416MOL0     H56131   9.729   3.403   8.261 -1.8344  0.8014  0.9841
  416MOL0     H56132   9.508   3.326   8.073  1.3794  0.1407 -2.6449
  416MOL0     H56133   9.480   3.449   8.191  2.6881  2.5593 -0.9942
  416MOL0     H56134   9.663   3.591   8.119  0.4875 -0.1106 -0.6917
  416MOL0     H56135   9.525   3.574   8.005 -0.1877  0.9346  2.1478
  416MOL0     H56136   9.786   3.408   7.970 -2.6213 -2.9294 -1.5355
  416MOL0     H56137   9.680   3.468   7.847 -1.6005 -1.7936  1.7647
  416MOL0     H56138   9.892   3.598   7.834  2.2583  0.6446  1.7189
  416MOL0     H56139   9.875   3.646   8.003  3.8931 -1.5495 -1.2386
  416MOL0     H56140   9.791   3.830   7.870 -0.3546  0.1071  2.2000
  416MOL0     H56141   9.661   3.754   7.952  2.2601  0.0795  3.2665
  416MOL0     H56142   9.894   3.192   8.638 -0.6880 -0.9860 -1.3349
  416MOL0     H56143   9.953   3.094   8.882 -3.2762  2.6512  2.4915
  416MOL0     H56144   9.838   2.707   9.136  0.3283 -0.0869  1.0872
  416MOL0     H56145   9.892   2.553   9.316  2.1834  1.0562  1.6759
  416MOL0     H56146  11.298   2.309  10.545 -0.9399 -2.1391  0.6190
  416MOL0     H56147  11.464   2.378  10.712  0.0938  1.4570  1.3719
  416MOL0     H56148  11.516   2.370  11.192  0.6286 -2.6859  0.5779
  416MOL0     H56149  11.692   2.357  11.352  1.5274 -1.6273 -0.9837
  416MOL0     H56150  12.099   2.481  11.210 -1.0711 -0.5271 -0.0046
  416MOL0     H56151  12.045   2.626  11.306  1.0532  0.3629 -1.3439
  416MOL0     H56152  12.135   2.490  11.514 -2.3932 -0.4058 -0.0929
  416MOL0     H56153  12.257   2.549  11.400 -1.0892  0.5572 -1.8915
  416MOL0     H56154  12.229   2.315  11.284  2.1852 -2.6823  0.3784
  416MOL0     H56155  12.130   2.275  11.418 -1.5063  2.7964 -1.6659
  416MOL0     H56156  12.413   2.376  11.452 -0.8650  1.3090  1.1708
  416MOL0     H56157  12.368   2.210  11.394 -0.4870  0.1658 -1.3804
  416MOL0     H56158  12.351   2.242  11.827 -1.4890 -1.5687  1.3134
  416MOL0     H56159  11.926   2.627  11.121 -0.3441  0.6686  0.7268
  416MOL0     H56160  11.750   2.644  10.957 -1.3033 -2.0483 -1.2166
  417MOL0     O56161   9.040  10.439   6.179  0.1027 -0.2785 -0.4682
  417MOL0     C56162   9.111  10.359   6.121  0.0331  0.0474  0.1821
  417MOL0     O56163   9.160  10.250   6.177  0.2426 -0.1492  0.2409
  417MOL0     C56164   9.146  10.213   6.312  0.4675 -0.6599 -0.5004
  417MOL0     C56165   9.168  10.078   6.344  0.7064  0.4955  0.1861
  417MOL0     C56166   9.167  10.027   6.472  0.0665  0.2927 -0.9242
  417MOL0     C56167   9.149  10.110   6.583 -0.8272 -0.6945  0.3825
  417MOL0     O56168   9.129  10.064   6.711 -0.9213  0.2444 -0.0545
  417MOL0     C56169   9.221   9.957   6.753 -0.4051 -1.0972  0.3650
  417MOL0     C56170   9.198   9.929   6.901 -0.2239  0.6845  0.2140
  417MOL0     C56171   9.059   9.883   6.916  0.5467 -0.1188  0.3555
  417MOL0     C56172   9.044   9.804   7.048  1.0260  1.1071  0.8018
  417MOL0     C56173   8.901   9.743   7.080  0.0755 -1.3118  0.0353
  417MOL0     C56174   8.871   9.710   7.233  0.8705 -0.5130  1.4587
  417MOL0     C56175   8.719   9.680   7.273 -0.3164 -0.7777 -0.2482
  417MOL0     C56176   8.643   9.580   7.186  0.2907 -0.8938  0.0993
  417MOL0     N56177   8.690   9.442   7.206  0.4820 -0.6574  0.1970
  417MOL0     C56178   8.738   9.386   7.320 -0.1711 -0.0672  0.3517
  417MOL0     C56179   8.780   9.260   7.286  0.8095  0.0797  0.1254
  417MOL0     C56180   8.844   9.180   7.379  0.3280  0.5607  0.0962
  417MOL0     C56181   8.744   9.122   7.481  0.3103  0.0550  0.4009
  417MOL0     C56182   8.613   9.038   7.445  0.0414 -0.5316  0.2660
  417MOL0     C56183   8.665   8.926   7.352 -0.0898 -0.3073 -0.0897
  417MOL0     O56184   8.738   8.829   7.431  0.2821 -0.4010  0.0395
  417MOL0     C56185   8.804   8.726   7.362 -0.5665 -0.8569  1.2058
  417MOL0     C56186   8.827   8.721   7.225  0.5636  0.2038  1.2438
  417MOL0     C56187   8.906   8.619   7.178  0.9477  0.0803  0.3102
  417MOL0     C56188   8.909   8.609   7.034 -0.3118 -0.3274  0.3041
  417MOL0     C56189   8.980   8.529   7.262  0.0636 -0.3354  0.6042
  417MOL0     C56190   9.081   8.427   7.221 -0.4928  0.5080  0.4635
  417MOL0     O56191   9.166   8.388   7.317 -0.1553 -0.4012  0.1332
  417MOL0     C56192   9.295   8.332   7.285  0.6940  0.7149  0.0292
  417MOL0     C56193   9.349   8.257   7.380  0.1353  0.0686 -0.1870
  417MOL0     C56194   9.480   8.223   7.374 -1.4290  0.2473 -1.2187
  417MOL0     C56195   9.554   8.258   7.263 -0.8634 -0.3138 -0.1697
  417MOL0     O56196   9.688   8.218   7.270  0.2645 -0.2753  0.8408
  417MOL0     C56197   9.782   8.249   7.168  0.8577 -0.2523  0.9645
  417MOL0     C56198   9.822   8.397   7.188  0.6192 -0.7768  0.7595
  417MOL0     C56199   9.900   8.437   7.070  0.0123 -0.1156  0.3404
  417MOL0     C56200   9.904   8.595   7.065 -0.0991  1.0904 -0.5648
  417MOL0     C56201   9.942   8.656   6.940  0.1999 -0.3407 -0.2767
  417MOL0     C56202   9.859   8.608   6.830 -0.5455 -0.0393 -0.6829
  417MOL0     C56203   9.899   8.684   6.695 -0.5651  0.3720 -0.3499
  417MOL0     C56204   9.850   8.611   6.572  0.6964  1.0228 -0.8364
  417MOL0    Cl56205   9.669   8.612   6.570  0.2397  0.0345 -0.6083
  417MOL0     C56206   9.498   8.336   7.167 -0.6335 -0.0023  1.2479
  417MOL0     C56207   9.370   8.384   7.186 -0.1437  0.5042  0.2506
  417MOL0     O56208   9.091   8.392   7.105  0.4594  0.0911  0.7020
  417MOL0     C56209   8.953   8.532   7.395 -0.1125  1.3935  0.7014
  417MOL0     C56210   8.869   8.628   7.444 -0.4389 -0.1142 -0.5584
  417MOL0     N56211   8.752   9.239   7.157  0.4437  0.1136 -0.0936
  417MOL0     N56212   8.706   9.352   7.105  0.7962  0.4094 -0.2892
  417MOL0     C56213   9.126  10.250   6.557 -0.2793 -0.3147 -0.3130
  417MOL0     C56214   9.130  10.304   6.423 -0.5886 -0.8862 -0.2732
  417MOL0     C56215   9.139  10.373   5.977  0.1678  0.1320  0.6740
  417MOL0     C56216   9.221  10.289   5.897  1.1593  0.8854 -0.0272
  417MOL0     C56217   9.221  10.280   5.757  0.3722 -1.1236 -0.2121
  417MOL0     C56218   9.158  10.381   5.693  0.1610 -0.6967 -0.4230
  417MOL0     O56219   9.183  10.393   5.560  0.0199  1.3001  0.0114
  417MOL0     C56220   9.123  10.496   5.480 -0.8368  0.6319 -0.5610
  417MOL0     C56221   8.979  10.459   5.456 -0.1120 -0.1565  0.5996
  417MOL0     C56222   8.917  10.569   5.369  0.9683 -1.0441  0.3587
  417MOL0     C56223   8.763  10.566   5.377 -0.8370  0.2620 -0.3267
  417MOL0     C56224   8.719  10.435   5.312 -0.2140 -0.2016 -0.5329
  417MOL0     C56225   8.697  10.333   5.251  0.7973 -0.6169  0.6525
  417MOL0     C56226   9.086  10.481   5.771 -0.1889  0.6634 -0.0061
  417MOL0     C56227   9.070  10.470   5.908  0.3304  0.3891  0.3413
  417MOL0     H56228   9.184  10.002   6.268 -0.0450  0.6843 -0.1703
  417MOL0     H56229   9.189   9.921   6.480 -3.3514 -0.5246 -1.0583
  417MOL0     H56230   9.212   9.865   6.694  2.8681 -0.6961 -1.0113
  417MOL0     H56231   9.324   9.994   6.742 -1.2615  0.7168 -2.5297
  417MOL0     H56232   9.271   9.855   6.935 -1.4838 -1.2130 -0.9644
  417MOL0     H56233   9.215  10.023   6.954  0.2462  1.7822 -1.7753
  417MOL0     H56234   8.995   9.972   6.915  0.5113 -0.0783  2.3281
  417MOL0     H56235   9.029   9.820   6.833 -2.9283 -0.1360  1.4921
  417MOL0     H56236   9.099   9.710   7.048 -1.1405 -0.3889 -2.8982
  417MOL0     H56237   9.073   9.859   7.138  0.9202 -1.2587  2.3736
  417MOL0     H56238   8.839   9.823   7.037 -1.1347 -2.4256 -0.3290
  417MOL0     H56239   8.891   9.650   7.023  2.7212 -0.6141 -1.7583
  417MOL0     H56240   8.925   9.618   7.257 -1.2446 -1.7133  1.8150
  417MOL0     H56241   8.929   9.784   7.290 -2.5364  2.7714  1.0587
  417MOL0     H56242   8.721   9.644   7.376 -5.1823  1.4711  0.9179
  417MOL0     H56243   8.676   9.780   7.281  0.4447 -0.5744  2.0996
  417MOL0     H56244   8.663   9.610   7.083 -0.6317  0.2145  0.2299
  417MOL0     H56245   8.534   9.585   7.189  0.3384 -0.0590  1.2239
  417MOL0     H56246   8.751   9.434   7.416 -0.0911 -0.3731  0.4960
  417MOL0     H56247   8.888   9.092   7.330  2.0946  1.2285  0.4142
  417MOL0     H56248   8.935   9.224   7.421  2.2512 -1.9360 -1.1921
  417MOL0     H56249   8.715   9.211   7.538  6.6400  2.4804  0.6313
  417MOL0     H56250   8.806   9.059   7.545  1.2566  3.4395  3.1206
  417MOL0     H56251   8.550   9.112   7.396  0.8573  0.9944  1.4078
  417MOL0     H56252   8.560   8.995   7.530 -2.7105  1.4083 -0.3332
  417MOL0     H56253   8.722   8.967   7.268  0.6529 -1.6737 -0.2759
  417MOL0     H56254   8.581   8.875   7.304  0.8154 -0.6653 -1.3598
  417MOL0     H56255   8.771   8.783   7.156  0.1698 -1.7083 -0.2260
  417MOL0     H56256   8.846   8.683   6.983  0.2930  1.3038  1.7888
  417MOL0     H56257   9.015   8.615   7.007  0.0926 -0.5818  1.7707
  417MOL0     H56258   8.883   8.505   7.013 -2.3284  0.2340 -0.2832
  417MOL0     H56259   9.312   8.229   7.478  1.3134  0.3005  0.3382
  417MOL0     H56260   9.531   8.164   7.449 -0.4454  2.0196 -0.4139
  417MOL0     H56261   9.863   8.177   7.185 -0.0037 -1.7411 -0.8432
  417MOL0     H56262   9.740   8.225   7.070 -4.0449 -1.1226  2.9912
  417MOL0     H56263   9.733   8.456   7.214  0.4734 -0.0643 -1.1883
  417MOL0     H56264   9.893   8.409   7.270 -0.4075 -0.1287  1.5835
  417MOL0     H56265   9.858   8.388   6.982 -0.9428  0.2110  0.6044
  417MOL0     H56266  10.006   8.410   7.077  0.0193 -0.3216 -0.5151
  417MOL0     H56267   9.802   8.629   7.083 -1.3281 -1.6533 -1.7789
  417MOL0     H56268   9.977   8.634   7.137  0.1961  0.4731 -0.5202
  417MOL0     H56269  10.050   8.652   6.925  0.0489 -1.1759 -1.2069
  417MOL0     H56270   9.915   8.762   6.947 -2.8477 -0.9365 -1.4622
  417MOL0     H56271   9.878   8.501   6.826  0.3933 -0.1382  2.9258
  417MOL0     H56272   9.756   8.644   6.842 -0.1977  1.1702 -1.1338
  417MOL0     H56273  10.008   8.691   6.690 -0.5824  0.3092 -0.8335
  417MOL0     H56274   9.858   8.786   6.697 -1.7623 -0.0994  0.7554
  417MOL0     H56275   9.882   8.507   6.568  0.7716  1.0036  0.0570
  417MOL0     H56276   9.882   8.665   6.482  0.9950  1.2732 -0.5832
  417MOL0     H56277   9.556   8.362   7.079  0.6191  2.2605  2.6492
  417MOL0     H56278   9.330   8.452   7.112 -0.3218 -0.1190 -0.2363
  417MOL0     H56279   8.989   8.458   7.466  0.3947  0.1787 -0.7509
  417MOL0     H56280   8.851   8.647   7.549  1.2346 -1.7606  0.0641
  417MOL0     H56281   9.101  10.316   6.640 -1.0346  1.2653 -1.7241
  417MOL0     H56282   9.124  10.410   6.402 -0.3087 -1.5344 -4.6211
  417MOL0     H56283   9.280  10.219   5.956  0.4064 -1.0327 -1.4340
  417MOL0     H56284   9.288  10.209   5.711  4.7454  1.3148  1.8146
  417MOL0     H56285   9.141  10.592   5.528 -1.5419  0.1225  0.7704
  417MOL0     H56286   9.179  10.486   5.386  0.9321  0.4815  0.4672
  417MOL0     H56287   8.922  10.442   5.548 -0.9819  1.0403  0.3031
  417MOL0     H56288   8.972  10.371   5.391  0.2050  1.2208 -1.4006
  417MOL0     H56289   8.941  10.551   5.264 -0.3227  1.9943 -0.5573
  417MOL0     H56290   8.966  10.662   5.399 -2.4931  1.3862 -0.8140
  417MOL0     H56291   8.727  10.656   5.326 -2.2292  0.7648  1.4450
  417MOL0     H56292   8.736  10.563   5.484  1.3969 -2.8470  0.3050
  417MOL0     H56293   8.660  10.238   5.217  1.5126 -1.0903  1.1611
  417MOL0     H56294   9.036  10.564   5.723  1.6711  4.1044  3.4969
  417MOL0     H56295   8.999  10.535   5.958  1.7919  3.9898 -1.9316
  418MOL0     O56296   7.948   3.871   1.009 -0.7126  0.2984 -0.5927
  418MOL0     C56297   8.034   3.789   1.047  0.1803 -0.6091  0.4638
  418MOL0     O56298   8.089   3.793   1.177 -0.1767  0.5892  0.0471
  418MOL0     C56299   8.048   3.886   1.271 -0.1719  0.4659 -0.2439
  418MOL0     C56300   8.144   3.900   1.368 -0.5203 -0.6190  0.2601
  418MOL0     C56301   8.115   3.971   1.486 -0.0060 -0.3127 -0.6982
  418MOL0     C56302   7.996   4.038   1.501 -0.7085 -0.6083 -0.7723
  418MOL0     O56303   7.983   4.118   1.617  0.2048 -0.5936 -0.4006
  418MOL0     C56304   7.850   4.148   1.663  0.2344  0.4542 -0.2622
  418MOL0     C56305   7.771   4.029   1.725  0.8743 -0.0066 -0.2785
  418MOL0     C56306   7.822   3.987   1.866  0.9337  0.9164  0.0972
  418MOL0     C56307   7.766   3.857   1.916 -0.4925 -0.1949 -0.6132
  418MOL0     C56308   7.831   3.816   2.050  0.1001  0.5666 -0.2687
  418MOL0     C56309   7.798   3.919   2.165  1.5006  0.1316  0.9631
  418MOL0     C56310   7.853   3.887   2.305  0.4091 -0.4336  0.2346
  418MOL0     C56311   7.834   4.006   2.398 -0.5736 -0.2530  0.6224
  418MOL0     N56312   7.879   3.984   2.541  0.0644 -0.1177 -0.2651
  418MOL0     C56313   7.993   3.907   2.575  0.8467 -0.1519 -0.1200
  418MOL0     C56314   8.008   3.928   2.707  0.4625  0.0119  0.4381
  418MOL0     C56315   8.087   3.824   2.778 -0.1490 -0.1429 -0.0669
  418MOL0     C56316   8.019   3.792   2.911  0.9532  0.0408  0.3021
  418MOL0     C56317   7.896   3.701   2.905  0.1607 -0.1447  0.7066
  418MOL0     C56318   7.911   3.559   2.865 -1.1059 -0.3118 -0.1805
  418MOL0     O56319   7.930   3.556   2.723 -0.6016  0.0614  0.5308
  418MOL0     C56320   8.039   3.498   2.679 -0.3220 -1.0550 -0.1404
  418MOL0     C56321   8.068   3.521   2.548  0.3325 -0.8262 -0.0178
  418MOL0     C56322   8.184   3.486   2.486  0.1582  1.4146  0.4061
  418MOL0     C56323   8.191   3.528   2.339  0.4307  0.5508 -0.1784
  418MOL0     C56324   8.263   3.391   2.547 -0.2822 -0.0916  0.1866
  418MOL0     C56325   8.363   3.295   2.479  0.1003  0.2966  0.0352
  418MOL0     O56326   8.411   3.194   2.557  0.7668 -0.3625  0.4251
  418MOL0     C56327   8.513   3.110   2.502 -0.1283 -0.2250 -1.1639
  418MOL0     C56328   8.499   2.975   2.494  0.3952  0.9163  0.3387
  418MOL0     C56329   8.606   2.893   2.442 -0.0266  0.7851  0.1870
  418MOL0     C56330   8.716   2.951   2.388 -0.4796  0.4140 -0.5311
  418MOL0     O56331   8.811   2.875   2.322  1.0663 -0.0446  0.0581
  418MOL0     C56332   8.915   2.817   2.393  0.7846 -0.5755  0.0325
  418MOL0     C56333   8.885   2.678   2.449  0.0064 -0.5913  0.0761
  418MOL0     C56334   9.021   2.601   2.481 -0.8727  0.5414 -0.1644
  418MOL0     C56335   9.081   2.528   2.356 -0.0379 -0.0083 -0.4226
  418MOL0     C56336   9.192   2.425   2.379 -0.3186  0.2917  0.2445
  418MOL0     C56337   9.140   2.288   2.442  1.2637 -1.0257 -1.1474
  418MOL0     C56338   9.235   2.171   2.450 -0.9145  0.5240  0.9445
  418MOL0     C56339   9.245   2.095   2.321  0.1053 -0.7037 -1.0236
  418MOL0    Cl56340   9.365   2.172   2.205 -0.1167  0.1651 -0.5212
  418MOL0     C56341   8.728   3.087   2.399  0.2821  0.1087  1.4332
  418MOL0     C56342   8.630   3.167   2.466 -0.7635 -0.7220  1.2466
  418MOL0     O56343   8.376   3.303   2.357 -0.4281  0.4996  1.0388
  418MOL0     C56344   8.241   3.367   2.688  0.2976 -0.8491  0.2199
  418MOL0     C56345   8.137   3.427   2.746  0.5633 -0.3542  0.0107
  418MOL0     N56346   7.929   4.037   2.740  0.3504  0.6547 -0.4600
  418MOL0     N56347   7.839   4.063   2.645 -0.1997 -0.1730 -0.0425
  418MOL0     C56348   7.895   4.017   1.408  0.4070  0.9899  1.0423
  418MOL0     C56349   7.919   3.938   1.290  0.5501 -0.4867  0.1663
  418MOL0     C56350   8.040   3.662   0.973  0.2626  0.8739 -0.3508
  418MOL0     C56351   7.983   3.654   0.844 -0.5315 -0.1620  0.5585
  418MOL0     C56352   7.990   3.539   0.763 -0.0553 -0.2917 -0.3126
  418MOL0     C56353   8.047   3.427   0.809  0.4779  0.1848 -0.6518
  418MOL0     O56354   8.056   3.306   0.743 -0.0139 -0.7030 -0.4106
  418MOL0     C56355   8.072   3.302   0.599 -0.0232  0.3605  1.0954
  418MOL0     C56356   8.066   3.166   0.523  0.0991  0.2524 -0.2722
  418MOL0     C56357   8.164   3.064   0.584 -0.1203 -0.1420 -0.9081
  418MOL0     C56358   8.306   3.095   0.548 -0.5757 -0.4867  0.1971
  418MOL0     C56359   8.322   3.054   0.404  0.9501 -1.3506 -0.3653
  418MOL0     C56360   8.332   3.024   0.287  0.0271  0.2185 -0.3023
  418MOL0     C56361   8.106   3.429   0.938  0.1842 -0.3548  0.4691
  418MOL0     C56362   8.098   3.544   1.015  0.0915  0.5842 -0.1090
  418MOL0     H56363   8.244   3.859   1.359  0.9800  2.7251  0.0771
  418MOL0     H56364   8.193   3.984   1.561  0.1324 -0.6902 -0.7731
  418MOL0     H56365   7.854   4.231   1.735 -1.2225  1.0556 -0.8371
  418MOL0     H56366   7.801   4.204   1.583 -0.1643 -0.5297 -0.7250
  418MOL0     H56367   7.675   4.080   1.732  1.5813  1.1476  2.9791
  418MOL0     H56368   7.779   3.939   1.663 -1.5460 -0.2938 -0.2738
  418MOL0     H56369   7.931   3.982   1.867  0.9648  0.5037 -1.7395
  418MOL0     H56370   7.802   4.071   1.934  2.3657  3.2843 -2.2096
  418MOL0     H56371   7.659   3.871   1.935 -0.4875 -2.5219  1.8479
  418MOL0     H56372   7.769   3.783   1.836 -2.6191 -2.5120  1.2654
  418MOL0     H56373   7.800   3.717   2.084  2.4525 -0.5509 -1.1747
  418MOL0     H56374   7.939   3.826   2.038 -0.3360  5.8317 -2.6858
  418MOL0     H56375   7.846   4.016   2.151  1.3293 -0.0807 -1.8069
  418MOL0     H56376   7.691   3.941   2.158  1.7494  1.1005 -4.2866
  418MOL0     H56377   7.795   3.802   2.342  0.8063 -0.4795  0.7620
  418MOL0     H56378   7.958   3.856   2.296 -0.2581 -3.0797  0.7511
  418MOL0     H56379   7.730   4.039   2.398 -0.5914  0.1217 -3.1068
  418MOL0     H56380   7.889   4.094   2.364  0.6726 -1.3145 -0.2498
  418MOL0     H56381   8.035   3.837   2.503 -2.1347 -1.7021 -0.4914
  418MOL0     H56382   8.121   3.742   2.715 -2.0422 -0.2501 -1.0170
  418MOL0     H56383   8.170   3.887   2.812 -0.6826 -0.2316  1.5280
  418MOL0     H56384   7.986   3.881   2.965 -0.1270 -0.3664  0.3227
  418MOL0     H56385   8.089   3.741   2.979 -0.9636 -2.1691  0.7579
  418MOL0     H56386   7.820   3.749   2.843  1.2830  1.2329  0.3396
  418MOL0     H56387   7.856   3.702   3.007  0.8098 -3.2027  1.0970
  418MOL0     H56388   7.823   3.502   2.896 -0.0605 -0.7572  2.2332
  418MOL0     H56389   7.992   3.531   2.934 -0.0849  2.8160  0.0535
  418MOL0     H56390   7.981   3.544   2.487 -0.8127 -0.7482  1.5736
  418MOL0     H56391   8.167   3.448   2.269  0.0203  0.6893 -0.2027
  418MOL0     H56392   8.113   3.601   2.316 -0.2482  0.6970  2.2896
  418MOL0     H56393   8.286   3.576   2.314  0.6963 -0.6195 -1.5337
  418MOL0     H56394   8.408   2.923   2.524  0.9457  0.7794  1.8522
  418MOL0     H56395   8.603   2.787   2.419  2.2450  0.6349  0.3436
  418MOL0     H56396   9.004   2.818   2.329  0.0761  1.7227 -1.0215
  418MOL0     H56397   8.953   2.882   2.472  0.7989 -1.8086  1.0563
  418MOL0     H56398   8.831   2.696   2.543 -3.1801 -1.7458 -1.4028
  418MOL0     H56399   8.825   2.618   2.382 -0.4127  2.6867 -2.7564
  418MOL0     H56400   8.995   2.531   2.560  1.2375 -1.0571 -0.7826
  418MOL0     H56401   9.091   2.672   2.525 -2.2123  1.7223  0.1389
  418MOL0     H56402   9.001   2.476   2.303 -0.8570 -0.6694  1.3769
  418MOL0     H56403   9.112   2.615   2.297 -2.4845  0.4350 -1.1707
  418MOL0     H56404   9.276   2.460   2.441  0.6630 -0.6331 -0.5272
  418MOL0     H56405   9.229   2.394   2.281 -2.9011 -1.4915 -0.2746
  418MOL0     H56406   9.105   2.320   2.541  1.9574  0.2988 -1.3073
  418MOL0     H56407   9.050   2.260   2.386  0.3583 -3.0447  1.1376
  418MOL0     H56408   9.186   2.105   2.522 -2.4192 -2.0270 -2.2094
  418MOL0     H56409   9.331   2.198   2.495 -0.9301 -1.5003  2.3316
  418MOL0     H56410   9.143   2.076   2.287  0.1857 -0.6662 -1.2871
  418MOL0     H56411   9.295   1.999   2.338  1.7912  0.4604  1.3090
  418MOL0     H56412   8.819   3.133   2.361 -0.2368  2.0282  2.3568
  418MOL0     H56413   8.648   3.274   2.459 -2.4040 -0.5118 -4.5088
  418MOL0     H56414   8.309   3.303   2.743  1.6212 -1.2439 -1.7688
  418MOL0     H56415   8.134   3.388   2.847  1.6386 -0.5716 -0.0248
  418MOL0     H56416   7.799   4.061   1.430 -1.5671 -3.1211  1.6356
  418MOL0     H56417   7.842   3.911   1.218  0.5558  0.8691 -0.3765
  418MOL0     H56418   7.942   3.743   0.797  2.7650  1.4873  0.5334
  418MOL0     H56419   7.944   3.532   0.665  1.5154 -0.5254 -1.0644
  418MOL0     H56420   7.988   3.360   0.560  1.0115  2.2989  1.6217
  418MOL0     H56421   8.166   3.355   0.583 -1.6420  3.6659  1.7507
  418MOL0     H56422   8.087   3.174   0.416  0.3775  1.0575 -0.1624
  418MOL0     H56423   7.965   3.125   0.534  0.4549 -1.4859 -2.7194
  418MOL0     H56424   8.139   2.960   0.561  1.0087 -0.6673  0.1348
  418MOL0     H56425   8.163   3.070   0.693  1.2094  2.1674 -0.9559
  418MOL0     H56426   8.382   3.046   0.610  2.0909  1.5260 -1.2685
  418MOL0     H56427   8.336   3.200   0.554 -0.4827 -0.4192 -1.2675
  418MOL0     H56428   8.358   2.987   0.190 -0.6593  0.1844 -0.4811
  418MOL0     H56429   8.157   3.339   0.969 -0.6519 -0.2950  2.1161
  418MOL0     H56430   8.150   3.541   1.110 -0.3548 -1.7864  0.1309
  419MOL0     O56431  11.105   7.918   1.284 -0.4412 -0.3950  0.4510
  419MOL0     C56432  11.109   7.878   1.398 -0.7412  0.9692  0.6298
  419MOL0     O56433  10.997   7.843   1.475 -0.4505 -0.1203 -0.2615
  419MOL0     C56434  10.868   7.854   1.437 -0.1625  0.0369 -0.9562
  419MOL0     C56435  10.815   7.819   1.311 -0.5521 -0.4886  0.2050
  419MOL0     C56436  10.682   7.823   1.290  1.4076 -0.0210  0.1557
  419MOL0     C56437  10.593   7.876   1.394  0.5195 -0.5039  0.6861
  419MOL0     O56438  10.465   7.879   1.359  0.2090  0.2170 -0.0862
  419MOL0     C56439  10.397   8.002   1.357 -0.2244 -0.7105 -0.0549
  419MOL0     C56440  10.433   8.071   1.227 -0.7822  0.3494 -0.0473
  419MOL0     C56441  10.341   8.192   1.197  1.0916  0.4603 -0.1423
  419MOL0     C56442  10.387   8.282   1.085  0.1519  0.3842  0.5452
  419MOL0     C56443  10.316   8.419   1.085  0.5411 -0.1815 -0.6148
  419MOL0     C56444  10.166   8.401   1.093  0.1281  0.0800 -0.6783
  419MOL0     C56445  10.083   8.529   1.057 -0.5097 -0.9291 -0.4413
  419MOL0     C56446  10.075   8.645   1.154 -0.0133  0.1214  0.7098
  419MOL0     N56447   9.990   8.629   1.272  0.7131 -0.3998 -0.2774
  419MOL0     C56448   9.851   8.601   1.271 -0.2320 -1.0970 -0.0811
  419MOL0     C56449   9.819   8.615   1.401 -0.1903  0.3361 -0.1532
  419MOL0     C56450   9.690   8.615   1.483  0.0584  0.6938  0.1829
  419MOL0     C56451   9.638   8.475   1.514  0.7993 -0.3227  0.2717
  419MOL0     C56452   9.547   8.493   1.628  0.9287 -0.0519 -0.3252
  419MOL0     C56453   9.451   8.370   1.660  0.0056  1.1273 -0.0341
  419MOL0     O56454   9.337   8.384   1.564  0.4217  0.8158  0.3705
  419MOL0     C56455   9.245   8.275   1.568  0.0666  0.5820  0.8590
  419MOL0     C56456   9.247   8.163   1.664 -0.3266 -0.6665  0.3338
  419MOL0     C56457   9.148   8.058   1.656  0.0452  0.1037 -1.0977
  419MOL0     C56458   9.162   7.936   1.755  0.8333 -0.3971  0.6554
  419MOL0     C56459   9.034   8.066   1.568  0.0516 -0.6769  1.3060
  419MOL0     C56460   8.932   7.957   1.573  0.0765 -0.4467  0.7858
  419MOL0     O56461   8.976   7.826   1.559 -0.9244 -0.2338  0.5318
  419MOL0     C56462   8.894   7.720   1.568  0.6725  0.5531 -0.8863
  419MOL0     C56463   8.944   7.608   1.631  0.1832 -0.9820 -0.3175
  419MOL0     C56464   8.863   7.496   1.631  0.2351  0.1493  0.0277
  419MOL0     C56465   8.739   7.488   1.559 -0.5908  0.3619 -0.0482
  419MOL0     O56466   8.667   7.366   1.580 -0.1965  0.2023  0.5319
  419MOL0     C56467   8.597   7.330   1.460  0.3924 -0.5313  0.0891
  419MOL0     C56468   8.681   7.306   1.326  0.7573  0.7534  0.2375
  419MOL0     C56469   8.604   7.308   1.186 -0.2715 -0.1358  0.5368
  419MOL0     C56470   8.518   7.186   1.169  0.4790 -0.6951  0.7192
  419MOL0     C56471   8.447   7.186   1.033  1.0472 -0.2484  0.4274
  419MOL0     C56472   8.298   7.132   1.042 -0.6532 -0.1847  0.4932
  419MOL0     C56473   8.223   7.151   0.916  0.0773 -0.0667  0.8033
  419MOL0     C56474   8.090   7.093   0.939  0.7599  0.5916 -0.5914
  419MOL0    Cl56475   8.007   7.080   0.789 -0.1544 -0.1111 -0.2275
  419MOL0     C56476   8.703   7.599   1.486 -0.0389 -0.1807  0.7367
  419MOL0     C56477   8.779   7.715   1.493  0.4113  0.2712  0.1467
  419MOL0     O56478   8.815   7.984   1.597  0.3215 -0.4039 -0.3881
  419MOL0     C56479   9.022   8.184   1.485 -0.0727  1.0261 -0.4530
  419MOL0     C56480   9.134   8.275   1.486  0.0138  0.2871  0.3009
  419MOL0     N56481   9.936   8.636   1.477  0.1546  0.0899  0.2712
  419MOL0     N56482  10.032   8.637   1.398 -0.0085  0.3656 -0.0439
  419MOL0     C56483  10.645   7.900   1.525 -1.0595 -0.5907  0.5223
  419MOL0     C56484  10.782   7.895   1.545 -1.0911 -0.0602  1.2673
  419MOL0     C56485  11.238   7.854   1.456 -0.3239  0.1630  0.7070
  419MOL0     C56486  11.355   7.833   1.374  0.3361 -0.8651  0.7386
  419MOL0     C56487  11.469   7.779   1.423 -0.7988 -0.2720 -0.3152
  419MOL0     C56488  11.475   7.747   1.564  0.3338 -0.5981  0.1307
  419MOL0     O56489  11.595   7.704   1.608 -0.2863 -0.0962 -0.8027
  419MOL0     C56490  11.602   7.593   1.709  0.0208 -0.1066  0.8035
  419MOL0     C56491  11.749   7.571   1.738 -0.3614  0.0691 -0.6467
  419MOL0     C56492  11.818   7.664   1.834  0.4453 -0.5123  0.8673
  419MOL0     C56493  11.952   7.613   1.879 -0.0940 -0.1081 -0.0199
  419MOL0     C56494  11.933   7.492   1.957 -0.4207 -0.1273 -0.6874
  419MOL0     C56495  11.924   7.382   2.006 -0.5283  0.8123  0.0304
  419MOL0     C56496  11.361   7.768   1.646  0.7819 -0.2232  0.4511
  419MOL0     C56497  11.250   7.841   1.595 -0.7474  0.6190 -0.2711
  419MOL0     H56498  10.878   7.795   1.226 -1.5661  1.4614 -1.1570
  419MOL0     H56499  10.640   7.800   1.193  1.3349  0.1916  0.1364
  419MOL0     H56500  10.288   7.986   1.353 -0.4579  0.8919 -1.1642
  419MOL0     H56501  10.410   8.056   1.451 -0.8335  3.0532 -1.9388
  419MOL0     H56502  10.538   8.102   1.228 -1.1522  1.6726 -0.2324
  419MOL0     H56503  10.426   8.006   1.139 -1.8060  3.0673 -2.0928
  419MOL0     H56504  10.235   8.169   1.186  1.6490 -2.9090  0.3316
  419MOL0     H56505  10.350   8.262   1.280 -1.3732  0.9743 -0.2524
  419MOL0     H56506  10.495   8.301   1.093  0.2208 -0.6329  2.8262
  419MOL0     H56507  10.354   8.238   0.990 -0.6315 -0.4741  1.1936
  419MOL0     H56508  10.366   8.463   1.172  1.7815  2.4321 -2.5231
  419MOL0     H56509  10.341   8.474   0.994 -1.2164  0.0809 -0.9609
  419MOL0     H56510  10.139   8.315   1.031  3.2382  0.7013 -3.1539
  419MOL0     H56511  10.150   8.383   1.200  2.7169  0.4532 -0.1473
  419MOL0     H56512  10.134   8.565   0.967  2.6887 -2.0843  0.7884
  419MOL0     H56513   9.981   8.497   1.034 -1.3726  2.3492 -1.8763
  419MOL0     H56514  10.039   8.724   1.087  1.1408  1.0346  1.1307
  419MOL0     H56515  10.177   8.675   1.180  1.1762  2.1454 -4.8049
  419MOL0     H56516   9.784   8.608   1.185  0.5824 -1.1600 -0.7291
  419MOL0     H56517   9.707   8.665   1.579  1.4814  0.2710  0.1693
  419MOL0     H56518   9.611   8.670   1.431 -0.3632 -0.4333 -0.3880
  419MOL0     H56519   9.728   8.429   1.557  1.5645  2.7591  2.3526
  419MOL0     H56520   9.596   8.438   1.420 -2.3685  1.2828  0.9163
  419MOL0     H56521   9.481   8.579   1.616  1.9194  0.9146  0.8783
  419MOL0     H56522   9.606   8.502   1.720  0.3085 -2.7279  0.4456
  419MOL0     H56523   9.417   8.372   1.764 -0.6863  1.0353 -0.2542
  419MOL0     H56524   9.491   8.269   1.646 -1.7315  0.7861 -3.6745
  419MOL0     H56525   9.323   8.164   1.741 -0.9748 -0.2331  0.9853
  419MOL0     H56526   9.169   7.845   1.693 -0.1777 -1.1701  1.6495
  419MOL0     H56527   9.251   7.942   1.818 -0.5030  4.9339  2.5425
  419MOL0     H56528   9.070   7.928   1.812 -1.2049  0.9716 -2.1900
  419MOL0     H56529   9.043   7.615   1.675 -0.8067  1.4703  1.7708
  419MOL0     H56530   8.886   7.398   1.673 -1.2606 -0.8367 -1.3290
  419MOL0     H56531   8.547   7.236   1.483  1.2385 -1.2919 -1.0404
  419MOL0     H56532   8.516   7.397   1.431  0.5350 -0.9632 -1.3867
  419MOL0     H56533   8.764   7.377   1.325 -0.6939  2.5349  1.3041
  419MOL0     H56534   8.739   7.213   1.335  0.0668  0.0715 -1.6642
  419MOL0     H56535   8.663   7.313   1.094 -0.0677 -2.5803  0.4828
  419MOL0     H56536   8.551   7.402   1.200 -2.4855 -0.5896 -3.4516
  419MOL0     H56537   8.568   7.088   1.175 -3.1245 -2.7512  0.2649
  419MOL0     H56538   8.442   7.184   1.247 -0.2928 -0.9586 -0.0275
  419MOL0     H56539   8.508   7.128   0.962 -0.2434 -2.5895  1.1183
  419MOL0     H56540   8.435   7.285   0.990  1.0984 -0.3634  0.1495
  419MOL0     H56541   8.300   7.027   1.074  1.4357 -1.6587 -3.6887
  419MOL0     H56542   8.238   7.186   1.116 -0.9340 -0.6635  0.6214
  419MOL0     H56543   8.266   7.094   0.833 -1.1230  2.8949 -2.0279
  419MOL0     H56544   8.228   7.255   0.883  0.7140  0.0092  1.1085
  419MOL0     H56545   8.044   7.155   1.016  4.0043  0.4772  1.6369
  419MOL0     H56546   8.098   6.988   0.971 -0.4324  0.0519 -1.9556
  419MOL0     H56547   8.624   7.588   1.412  2.5909 -1.4693 -2.0974
  419MOL0     H56548   8.761   7.797   1.425  4.2582  0.6027 -0.6831
  419MOL0     H56549   8.948   8.208   1.409 -1.2595 -0.5511  0.1530
  419MOL0     H56550   9.136   8.349   1.406 -0.8025 -0.9581 -0.9322
  419MOL0     H56551  10.581   7.926   1.610 -0.8025  0.0562  0.5218
  419MOL0     H56552  10.826   7.923   1.640 -1.3108  1.3115  0.9846
  419MOL0     H56553  11.340   7.851   1.268 -0.4580  0.3350  1.0307
  419MOL0     H56554  11.555   7.782   1.357  1.6803  1.1928  2.6996
  419MOL0     H56555  11.542   7.617   1.797 -0.1269  1.5905  0.2793
  419MOL0     H56556  11.562   7.503   1.661  3.1334 -1.4097  0.4210
  419MOL0     H56557  11.808   7.573   1.646 -1.2992 -2.2561 -1.3555
  419MOL0     H56558  11.754   7.466   1.766 -1.6633 -0.6758 -2.9433
  419MOL0     H56559  11.738   7.681   1.907 -1.2101 -0.2353 -0.9193
  419MOL0     H56560  11.833   7.762   1.787 -0.3319  0.1070  1.8679
  419MOL0     H56561  12.003   7.675   1.953 -1.4215  0.5584  0.3774
  419MOL0     H56562  12.021   7.616   1.794 -0.2427  2.6568 -0.1387
  419MOL0     H56563  11.914   7.284   2.047  1.3112 -0.1145 -1.5616
  419MOL0     H56564  11.361   7.742   1.751 -2.8821  0.1367  0.6561
  419MOL0     H56565  11.172   7.864   1.668 -1.7213  1.8066 -1.6289
  420MOL0     O56566   3.840  10.843   2.062  0.6851 -0.3470  0.1318
  420MOL0     C56567   3.855  10.724   2.093  1.1109 -0.3361 -0.5351
  420MOL0     O56568   3.826  10.610   2.008 -0.3391 -0.8009  0.2164
  420MOL0     C56569   3.777  10.642   1.891  0.0928 -0.8643 -0.5717
  420MOL0     C56570   3.858  10.605   1.779  0.5737  1.3906  0.1345
  420MOL0     C56571   3.802  10.624   1.645 -0.7758 -0.0216 -0.2751
  420MOL0     C56572   3.687  10.699   1.629  0.4565  0.2527  0.2582
  420MOL0     O56573   3.647  10.723   1.501  0.2733  0.9333 -0.0025
  420MOL0     C56574   3.660  10.619   1.392  0.3216 -0.0802 -0.4849
  420MOL0     C56575   3.580  10.662   1.263  0.5635  0.6829 -0.1245
  420MOL0     C56576   3.534  10.539   1.187  0.3057 -0.1184  0.0386
  420MOL0     C56577   3.634  10.505   1.074  0.0539  0.0166 -0.1081
  420MOL0     C56578   3.588  10.366   1.026 -0.4189  0.8362  0.2139
  420MOL0     C56579   3.615  10.346   0.877 -0.2783 -0.0852  0.2729
  420MOL0     C56580   3.586  10.201   0.831  0.8159  0.0887 -0.6100
  420MOL0     C56581   3.439  10.155   0.840 -0.1617  0.0542  0.1178
  420MOL0     N56582   3.428  10.008   0.819  0.0996  0.1192 -0.3683
  420MOL0     C56583   3.465   9.916   0.912  1.0913  0.0240 -0.5201
  420MOL0     C56584   3.426   9.795   0.866  0.1245 -0.9733 -1.1370
  420MOL0     C56585   3.455   9.667   0.936  0.2549 -0.0484  0.3363
  420MOL0     C56586   3.328   9.578   0.939 -0.0047  0.2966 -0.4204
  420MOL0     C56587   3.361   9.444   1.000 -0.7720 -0.0266 -0.1709
  420MOL0     C56588   3.391   9.446   1.151 -0.6127 -0.2159 -0.4156
  420MOL0     O56589   3.260   9.482   1.197  0.2220 -0.3948 -0.0522
  420MOL0     C56590   3.252   9.484   1.338  0.2595  1.4133  0.2023
  420MOL0     C56591   3.200   9.374   1.408 -0.1830 -0.0031 -0.2321
  420MOL0     C56592   3.190   9.359   1.546  0.6988 -0.5991  0.8584
  420MOL0     C56593   3.124   9.232   1.596 -0.3084 -0.0365 -0.8609
  420MOL0     C56594   3.263   9.458   1.623 -0.6107  0.3586  0.3007
  420MOL0     C56595   3.275   9.457   1.769 -0.5414  0.7466 -0.6495
  420MOL0     O56596   3.398   9.503   1.826  0.0016  0.8202 -0.0181
  420MOL0     C56597   3.409   9.488   1.968 -0.1869 -1.1293 -0.1662
  420MOL0     C56598   3.309   9.530   2.054  0.7466 -0.0081  0.2028
  420MOL0     C56599   3.317   9.500   2.191 -0.3403  0.0229 -0.4449
  420MOL0     C56600   3.430   9.431   2.238  0.2971  0.5003  0.5243
  420MOL0     O56601   3.452   9.415   2.368 -1.1309  0.1046  0.2514
  420MOL0     C56602   3.338   9.425   2.456 -0.8507  0.0009 -1.0444
  420MOL0     C56603   3.383   9.337   2.571  0.7063 -0.0060  0.4700
  420MOL0     C56604   3.258   9.293   2.656  0.2039 -0.8742  0.4212
  420MOL0     C56605   3.295   9.175   2.749 -0.7335  0.3213 -0.7976
  420MOL0     C56606   3.206   9.151   2.868 -0.9740 -0.3354 -0.7043
  420MOL0     C56607   3.260   9.034   2.957 -0.3294 -0.1598  0.5984
  420MOL0     C56608   3.137   8.979   3.032  0.0216 -0.2475 -0.4148
  420MOL0     C56609   3.198   8.893   3.142  0.0431 -0.0984  0.3580
  420MOL0    Cl56610   3.068   8.821   3.243 -0.2052 -0.0482 -0.2696
  420MOL0     C56611   3.526   9.384   2.148 -0.4489 -0.6373  0.0838
  420MOL0     C56612   3.511   9.406   2.013 -1.2404  1.1310  1.1626
  420MOL0     O56613   3.193   9.393   1.821  1.2050 -0.5453 -0.5561
  420MOL0     C56614   3.317   9.566   1.561 -0.0668 -0.7981  0.8597
  420MOL0     C56615   3.321   9.580   1.419  0.3937  0.6238 -0.9065
  420MOL0     N56616   3.374   9.811   0.740 -0.0666 -0.7216 -0.0019
  420MOL0     N56617   3.385   9.938   0.708  0.7212  0.3210 -0.3265
  420MOL0     C56618   3.615  10.746   1.739  0.3020 -0.7910 -0.1005
  420MOL0     C56619   3.659  10.721   1.872 -0.1380  0.5295  0.4340
  420MOL0     C56620   3.904  10.674   2.221 -1.0243 -0.0435  0.3746
  420MOL0     C56621   3.856  10.550   2.278 -0.0297  0.0287 -0.1408
  420MOL0     C56622   3.900  10.509   2.405  0.6043  0.5444  0.5828
  420MOL0     C56623   3.979  10.592   2.488  0.4386  0.2382 -0.9040
  420MOL0     O56624   4.024  10.529   2.596 -0.2042 -0.5563  0.0421
  420MOL0     C56625   4.122  10.595   2.674  1.1670 -0.5463  0.0160
  420MOL0     C56626   4.172  10.532   2.799 -0.6183 -0.0497  0.3513
  420MOL0     C56627   4.279  10.418   2.766 -0.3776 -0.4082 -0.3005
  420MOL0     C56628   4.331  10.333   2.891  0.0927  0.0690  0.6092
  420MOL0     C56629   4.416  10.228   2.828 -0.4892  0.1626 -0.4663
  420MOL0     C56630   4.481  10.139   2.788 -0.4193 -0.0138 -0.5577
  420MOL0     C56631   4.010  10.716   2.440  0.4377  0.0182 -0.0766
  420MOL0     C56632   3.986  10.753   2.306  0.2112 -0.4604  0.4948
  420MOL0     H56633   3.955  10.560   1.793  0.5138  1.2066 -0.0409
  420MOL0     H56634   3.860  10.589   1.560 -0.7013  0.1586 -0.2993
  420MOL0     H56635   3.761  10.598   1.358 -0.1752  0.1659 -2.2484
  420MOL0     H56636   3.623  10.525   1.433  2.4600 -0.7928 -0.0888
  420MOL0     H56637   3.489  10.715   1.293 -0.6205 -1.0283 -0.5499
  420MOL0     H56638   3.635  10.733   1.201 -1.4266  2.8794  0.4805
  420MOL0     H56639   3.515  10.461   1.260  1.1518  0.7026  1.1675
  420MOL0     H56640   3.437  10.552   1.138  0.0367  0.2324  0.6575
  420MOL0     H56641   3.617  10.579   0.995  1.6620 -0.6505 -1.1247
  420MOL0     H56642   3.737  10.514   1.109 -0.0528  1.9661 -0.1775
  420MOL0     H56643   3.635  10.286   1.084  3.8868  1.9191 -1.4208
  420MOL0     H56644   3.479  10.366   1.036 -0.3428  3.8497  2.2577
  420MOL0     H56645   3.546  10.407   0.818  0.4488  0.8287  0.3529
  420MOL0     H56646   3.722  10.352   0.852 -0.9663 -1.7426 -3.8847
  420MOL0     H56647   3.615  10.186   0.727  2.0570 -2.2451  0.0090
  420MOL0     H56648   3.656  10.141   0.889 -0.0916 -0.9427 -0.5664
  420MOL0     H56649   3.375  10.203   0.765  0.7625 -0.5352 -1.1022
  420MOL0     H56650   3.400  10.181   0.939  2.6098  0.9291  1.0837
  420MOL0     H56651   3.505   9.924   1.013  0.1345 -0.1712 -0.1145
  420MOL0     H56652   3.517   9.621   0.858 -2.0812  0.7766 -2.1937
  420MOL0     H56653   3.506   9.683   1.031 -1.5206  3.5058  0.8881
  420MOL0     H56654   3.294   9.564   0.836 -2.0623  0.6045  0.1503
  420MOL0     H56655   3.250   9.631   0.996 -0.4018  1.1693 -1.7255
  420MOL0     H56656   3.451   9.415   0.946  0.6068  1.8672  1.0059
  420MOL0     H56657   3.290   9.365   0.971  0.0363 -0.6360 -0.5417
  420MOL0     H56658   3.465   9.520   1.180 -0.2982 -0.0635 -1.5594
  420MOL0     H56659   3.422   9.346   1.184 -0.0352 -0.2316 -0.9877
  420MOL0     H56660   3.145   9.307   1.343  0.5422  1.5857 -2.6326
  420MOL0     H56661   3.205   9.163   1.618  1.2236  1.2427 -2.1952
  420MOL0     H56662   3.065   9.257   1.684  1.9676  4.3969 -0.3412
  420MOL0     H56663   3.053   9.194   1.521 -0.5495 -1.0227 -0.1547
  420MOL0     H56664   3.227   9.590   2.017  0.6228 -0.4064 -0.1647
  420MOL0     H56665   3.239   9.535   2.258  0.1211  3.2284 -1.4002
  420MOL0     H56666   3.337   9.526   2.498 -0.9559  0.9683 -3.2436
  420MOL0     H56667   3.245   9.393   2.409 -0.0238 -2.1584 -1.3132
  420MOL0     H56668   3.419   9.240   2.534  0.1600 -0.2787  0.6480
  420MOL0     H56669   3.460   9.382   2.636  1.8641  0.1020 -0.9313
  420MOL0     H56670   3.180   9.253   2.589  1.2658 -3.8722  0.8042
  420MOL0     H56671   3.222   9.377   2.715  1.5060  0.7334 -0.9651
  420MOL0     H56672   3.286   9.087   2.684 -0.9403 -0.2118 -0.0581
  420MOL0     H56673   3.395   9.182   2.792 -0.1318  0.6442 -2.1922
  420MOL0     H56674   3.107   9.126   2.830 -1.4433 -2.2744  1.5631
  420MOL0     H56675   3.204   9.241   2.931 -2.8628 -0.9316  0.1561
  420MOL0     H56676   3.304   8.955   2.895  1.5477  1.5121 -0.3415
  420MOL0     H56677   3.345   9.082   3.006  1.7253 -0.7189 -2.1542
  420MOL0     H56678   3.073   8.929   2.959  1.6682 -1.3580 -1.1489
  420MOL0     H56679   3.077   9.055   3.083  0.9647  1.5272 -1.8295
  420MOL0     H56680   3.240   8.963   3.215 -2.2397  2.1265 -0.3174
  420MOL0     H56681   3.262   8.817   3.094 -0.8685  0.8110 -2.5140
  420MOL0     H56682   3.611   9.341   2.200 -1.3974 -1.1795  1.2376
  420MOL0     H56683   3.593   9.378   1.947 -1.4540  2.3790  0.3335
  420MOL0     H56684   3.385   9.641   1.601  1.3272 -0.6452 -1.6203
  420MOL0     H56685   3.373   9.666   1.377  2.2947  0.3755  0.7574
  420MOL0     H56686   3.520  10.787   1.706  2.5988  2.8119 -2.8804
  420MOL0     H56687   3.605  10.748   1.962 -1.2461 -0.0654 -0.0375
  420MOL0     H56688   3.766  10.504   2.240 -0.2676 -1.5483  2.1103
  420MOL0     H56689   3.861  10.416   2.446  1.3827 -2.0436 -3.9124
  420MOL0     H56690   4.199  10.634   2.608  2.9787 -2.6559  0.7297
  420MOL0     H56691   4.068  10.682   2.712  3.1325  0.7742 -0.0949
  420MOL0     H56692   4.096  10.500   2.872 -0.3092  0.9739  1.1533
  420MOL0     H56693   4.230  10.606   2.853  0.1039 -0.4162  0.0845
  420MOL0     H56694   4.368  10.470   2.729 -0.9929  0.9542  0.0461
  420MOL0     H56695   4.238  10.355   2.687  0.4399 -1.1953 -0.1083
  420MOL0     H56696   4.249  10.287   2.947  0.3810  1.2593  2.0807
  420MOL0     H56697   4.398  10.401   2.945  1.6013  0.6173 -1.7717
  420MOL0     H56698   4.538  10.053   2.756  2.1069  1.3235  0.0489
  420MOL0     H56699   4.066  10.796   2.488 -0.9456  1.6079 -1.0237
  420MOL0     H56700   4.021  10.849   2.269  2.2652 -1.4352 -0.2520
  421MOL0     O56701   3.043   0.428   5.359 -0.1838 -0.1782  0.3243
  421MOL0     C56702   3.132   0.468   5.430 -0.4199  0.1024  0.4967
  421MOL0     O56703   3.119   0.542   5.544  1.1092 -0.3191  0.1501
  421MOL0     C56704   2.994   0.566   5.606 -0.5706 -0.4677  0.6849
  421MOL0     C56705   2.980   0.684   5.679  0.2923 -0.7954 -0.4660
  421MOL0     C56706   2.849   0.720   5.735 -1.0615 -0.6842  0.4329
  421MOL0     C56707   2.744   0.624   5.730  0.2063 -0.5658  1.0740
  421MOL0     O56708   2.624   0.674   5.782  1.1339  0.3793 -0.4544
  421MOL0     C56709   2.508   0.596   5.755  0.8965  0.1954  0.6720
  421MOL0     C56710   2.384   0.667   5.799  0.9223  0.3216  0.0885
  421MOL0     C56711   2.379   0.801   5.719  0.5699  0.6506  0.2169
  421MOL0     C56712   2.282   0.898   5.774 -0.8918 -1.1631 -0.1871
  421MOL0     C56713   2.333   0.984   5.905  0.1314  0.8670 -0.2708
  421MOL0     C56714   2.413   0.896   6.003 -1.0569  0.3121  0.2492
  421MOL0     C56715   2.458   0.973   6.125  0.5005  0.2494 -0.6249
  421MOL0     C56716   2.607   0.982   6.149 -0.1721  0.6342 -0.0222
  421MOL0     N56717   2.664   0.883   6.232 -0.3953  0.0862  0.4893
  421MOL0     C56718   2.660   0.750   6.200 -0.1320 -0.2943 -0.2544
  421MOL0     C56719   2.668   0.699   6.325 -0.5421 -0.1901  0.1893
  421MOL0     C56720   2.643   0.548   6.366 -0.5612  0.3019  0.3612
  421MOL0     C56721   2.500   0.538   6.416 -0.1001 -0.6128  0.2734
  421MOL0     C56722   2.392   0.558   6.313 -0.2571 -1.0593  0.1449
  421MOL0     C56723   2.246   0.558   6.371  0.2772  0.4547  0.1704
  421MOL0     O56724   2.206   0.428   6.419  0.3718  0.1789 -0.3379
  421MOL0     C56725   2.076   0.413   6.449 -0.2519 -0.4411 -0.0853
  421MOL0     C56726   2.042   0.283   6.462 -0.0720 -0.0497 -0.0567
  421MOL0     C56727   1.918   0.241   6.480  1.2193  0.0978  0.9715
  421MOL0     C56728   1.895   0.088   6.475  0.8327 -0.2220  0.7214
  421MOL0     C56729   1.809   0.335   6.497  0.2005 -0.1178  0.0214
  421MOL0     C56730   1.661   0.305   6.509 -0.2403 -0.1614 -0.7665
  421MOL0     O56731   1.583   0.420   6.524 -0.1067  0.0123 -0.0446
  421MOL0     C56732   1.448   0.384   6.529 -0.4919 -0.8994 -0.9587
  421MOL0     C56733   1.397   0.307   6.417 -0.0498  0.8024 -1.5041
  421MOL0     C56734   1.262   0.269   6.419  0.5727 -0.2900 -0.1024
  421MOL0     C56735   1.170   0.316   6.519 -0.5394  0.0475  0.4785
  421MOL0     O56736   1.039   0.271   6.514 -0.4503 -0.1279  0.9533
  421MOL0     C56737   0.931   0.373   6.499 -1.0535  0.1780  0.1866
  421MOL0     C56738   0.917   0.419   6.356 -0.4152 -0.9746  0.2955
  421MOL0     C56739   0.889   0.316   6.251 -0.3760 -0.7111  0.4526
  421MOL0     C56740   0.747   0.272   6.262  0.0162  0.2063 -0.5990
  421MOL0     C56741   0.714   0.162   6.157  0.0042  0.7523  0.4079
  421MOL0     C56742   0.680   0.234   6.026 -0.1664  0.2226 -0.8514
  421MOL0     C56743   0.685   0.137   5.903  0.1723 -0.0695 -0.4001
  421MOL0     C56744   0.561   0.055   5.881 -0.8951  0.9015 -1.0119
  421MOL0    Cl56745   0.592  -0.063   5.743  0.2145 -0.4235  0.1505
  421MOL0     C56746   1.219   0.390   6.622  0.3353  0.0122  0.1226
  421MOL0     C56747   1.356   0.437   6.626 -0.5155  0.5935  0.0080
  421MOL0     O56748   1.621   0.190   6.524  0.0030 -0.2778 -1.2018
  421MOL0     C56749   1.849   0.473   6.489  0.2640  0.4210  0.6897
  421MOL0     C56750   1.979   0.507   6.443 -0.2798 -0.0499 -0.9538
  421MOL0     N56751   2.685   0.791   6.428 -0.2028  0.2889 -0.1247
  421MOL0     N56752   2.672   0.906   6.367  0.1220  1.4285 -0.1449
  421MOL0     C56753   2.772   0.493   5.684  0.1160  0.3481 -0.0918
  421MOL0     C56754   2.893   0.467   5.622  0.9203 -0.6277 -0.3683
  421MOL0     C56755   3.279   0.432   5.396  0.2896  0.2732  0.6806
  421MOL0     C56756   3.374   0.433   5.492 -0.3877  0.6328  0.6248
  421MOL0     C56757   3.501   0.372   5.472 -0.0490  0.0398  0.2825
  421MOL0     C56758   3.531   0.316   5.346 -0.4729 -0.3640  0.4817
  421MOL0     O56759   3.662   0.273   5.330 -0.0308 -0.2062 -0.6800
  421MOL0     C56760   3.665   0.124   5.326 -0.6781 -0.3383 -0.3029
  421MOL0     C56761   3.748   0.093   5.199  0.1296 -0.0830 -0.2910
  421MOL0     C56762   3.708  -0.039   5.148  0.5393 -0.6512  0.0128
  421MOL0     C56763   3.763  -0.146   5.242  0.7094 -0.6619  0.1575
  421MOL0     C56764   3.719  -0.277   5.196 -0.3637 -0.5259  0.8488
  421MOL0     C56765   3.683  -0.393   5.165  0.5298 -0.0754  0.1364
  421MOL0     C56766   3.431   0.323   5.246  0.4015 -0.0544  0.0538
  421MOL0     C56767   3.306   0.382   5.265  0.1220 -0.5730  0.3503
  421MOL0     H56768   3.061   0.757   5.676 -1.2848  1.1513 -5.2613
  421MOL0     H56769   2.830   0.813   5.788  0.1176 -1.1407  1.6899
  421MOL0     H56770   2.500   0.573   5.649  2.1041  3.0274 -0.1333
  421MOL0     H56771   2.506   0.503   5.812  1.9837  0.2842  0.8671
  421MOL0     H56772   2.294   0.606   5.786  2.0320 -1.6009  0.9694
  421MOL0     H56773   2.391   0.680   5.907  0.5025  0.7295  0.0692
  421MOL0     H56774   2.475   0.854   5.719  1.2686 -0.5575  1.2747
  421MOL0     H56775   2.364   0.787   5.611  2.6182  1.6211 -0.2502
  421MOL0     H56776   2.265   0.971   5.695  1.3567  0.9599  1.1389
  421MOL0     H56777   2.194   0.840   5.804 -2.9982  2.0248  0.2254
  421MOL0     H56778   2.384   1.080   5.888 -2.3910  2.7695  1.8652
  421MOL0     H56779   2.247   1.001   5.970  1.2675  1.3990  1.1528
  421MOL0     H56780   2.358   0.809   6.042 -1.2470 -0.2753 -1.2592
  421MOL0     H56781   2.508   0.868   5.956 -0.6565  3.4878 -1.0372
  421MOL0     H56782   2.408   1.071   6.132  0.5444  0.1750  1.3237
  421MOL0     H56783   2.421   0.915   6.210  1.5004 -0.8843 -0.9404
  421MOL0     H56784   2.635   1.078   6.192  1.9293 -0.2562  0.7174
  421MOL0     H56785   2.654   0.982   6.050  1.3141  1.0090  0.6620
  421MOL0     H56786   2.643   0.701   6.105 -1.5909  1.2067 -0.8185
  421MOL0     H56787   2.645   0.473   6.286 -2.0115 -0.5193  1.0585
  421MOL0     H56788   2.714   0.512   6.441  2.2149  0.8037 -1.8580
  421MOL0     H56789   2.481   0.602   6.502 -1.3745 -0.5939  0.0104
  421MOL0     H56790   2.489   0.439   6.463  1.1029 -0.9399 -0.1095
  421MOL0     H56791   2.397   0.480   6.236  2.6079 -1.1201  0.2779
  421MOL0     H56792   2.415   0.651   6.261  1.0715 -0.9778  0.8350
  421MOL0     H56793   2.163   0.589   6.307 -2.1023 -2.3898  1.5788
  421MOL0     H56794   2.240   0.617   6.463  0.1683 -0.3037  0.6661
  421MOL0     H56795   2.124   0.212   6.464  0.4137  0.5121  1.4222
  421MOL0     H56796   1.886   0.058   6.580  0.0366 -1.5448  0.3040
  421MOL0     H56797   1.810   0.047   6.421 -1.7607  3.6946  1.4674
  421MOL0     H56798   1.987   0.044   6.435  1.2751  1.4779 -0.2180
  421MOL0     H56799   1.464   0.259   6.346 -1.4269 -1.0149 -1.6424
  421MOL0     H56800   1.222   0.207   6.338 -0.0379 -2.4428  1.7419
  421MOL0     H56801   0.837   0.342   6.547 -1.2371  0.0979 -0.2205
  421MOL0     H56802   0.960   0.465   6.551 -1.5304 -0.2198  1.1919
  421MOL0     H56803   0.833   0.488   6.366  0.2902 -0.2539  1.5800
  421MOL0     H56804   1.012   0.468   6.334 -0.0666 -2.3174 -1.4376
  421MOL0     H56805   0.952   0.231   6.279  0.3268  0.4470  2.6983
  421MOL0     H56806   0.924   0.365   6.161  1.0414  2.3791  2.5184
  421MOL0     H56807   0.737   0.235   6.365  3.6094  0.0621 -0.1963
  421MOL0     H56808   0.677   0.354   6.242  0.4763  0.3537 -1.6521
  421MOL0     H56809   0.620   0.109   6.175  0.9274 -1.2526 -0.3787
  421MOL0     H56810   0.803   0.101   6.144 -1.1300 -0.3762 -3.6417
  421MOL0     H56811   0.579   0.272   6.045 -0.3786  1.1089 -3.4314
  421MOL0     H56812   0.749   0.318   6.013  2.1991 -1.4532  0.1622
  421MOL0     H56813   0.775   0.075   5.912  0.5112  0.7388  5.2752
  421MOL0     H56814   0.697   0.202   5.816 -3.0214 -1.3059 -1.9134
  421MOL0     H56815   0.477   0.120   5.857 -0.4597  1.9175  0.1011
  421MOL0     H56816   0.532   0.004   5.972  0.2103  0.6148 -0.8060
  421MOL0     H56817   1.152   0.420   6.702  0.0488 -0.8556  0.2154
  421MOL0     H56818   1.404   0.481   6.712  1.7532  0.8147 -1.2833
  421MOL0     H56819   1.777   0.553   6.479  1.8721  2.2111  2.5420
  421MOL0     H56820   1.999   0.611   6.417 -1.8088  0.6869  0.6169
  421MOL0     H56821   2.695   0.417   5.676 -1.2785  1.6006  0.8308
  421MOL0     H56822   2.906   0.372   5.571 -2.4733 -2.0480  1.1082
  421MOL0     H56823   3.374   0.506   5.572 -2.8091  3.4207 -1.6705
  421MOL0     H56824   3.578   0.388   5.546 -1.6373  2.8357  1.5008
  421MOL0     H56825   3.693   0.078   5.422  0.7413  0.8798 -0.0925
  421MOL0     H56826   3.564   0.090   5.303 -0.6252 -0.3232 -0.5623
  421MOL0     H56827   3.856   0.085   5.218  0.3951 -1.1386 -2.0215
  421MOL0     H56828   3.737   0.175   5.127  1.9705 -0.8325 -1.5110
  421MOL0     H56829   3.757  -0.044   5.051  0.1887  0.8909 -0.2755
  421MOL0     H56830   3.600  -0.052   5.136  0.3457  1.8927 -1.6398
  421MOL0     H56831   3.730  -0.127   5.344  1.2768 -0.5572  0.3299
  421MOL0     H56832   3.872  -0.142   5.251  0.6696  2.1487  0.2986
  421MOL0     H56833   3.656  -0.497   5.155 -2.9077  0.2746  3.3548
  421MOL0     H56834   3.468   0.294   5.148 -0.0767 -3.9240  0.8569
  421MOL0     H56835   3.224   0.375   5.195 -1.3297 -4.3915  2.1048
  422MOL0     O56836  10.750   5.117   9.258  0.2498 -0.4554 -0.6267
  422MOL0     C56837  10.702   5.090   9.148 -0.3506 -0.3523  1.0364
  422MOL0     O56838  10.591   5.006   9.131  0.4034 -0.8969  0.0019
  422MOL0     C56839  10.525   5.000   9.251 -0.6380 -0.4468  0.4172
  422MOL0     C56840  10.562   4.914   9.342  0.1032  1.0824 -0.6374
  422MOL0     C56841  10.492   4.899   9.464 -0.8920  0.0938 -0.4520
  422MOL0     C56842  10.374   4.968   9.482  0.2583  0.1561  1.1181
  422MOL0     O56843  10.289   4.961   9.585 -0.5798  0.2469  0.8748
  422MOL0     C56844  10.335   4.885   9.702 -0.2500  0.1635  0.2092
  422MOL0     C56845  10.203   4.887   9.788  0.1935  0.8566 -0.2160
  422MOL0     C56846  10.241   4.855   9.937  0.2827 -0.6122 -0.2913
  422MOL0     C56847  10.180   4.964  10.024 -0.3526  0.1144  1.0485
  422MOL0     C56848  10.205   4.955  10.181  1.1587  0.6878  0.7263
  422MOL0     C56849  10.113   5.067  10.243  1.1640  0.3613 -0.0106
  422MOL0     C56850  10.146   5.099  10.389 -0.7589  0.2887  0.2186
  422MOL0     C56851  10.188   4.975  10.481  0.1440 -0.9069  0.5279
  422MOL0     N56852  10.187   4.996  10.622 -0.1379 -0.4321  0.2109
  422MOL0     C56853  10.182   5.118  10.695  0.1235 -0.4581  0.0479
  422MOL0     C56854  10.217   5.093  10.826 -0.0569  0.7335  0.2855
  422MOL0     C56855  10.230   5.202  10.929  0.1609  0.1243 -0.8846
  422MOL0     C56856  10.367   5.254  10.928 -0.3311  0.7609 -0.4880
  422MOL0     C56857  10.396   5.352  11.039 -0.3060 -0.7789 -0.3177
  422MOL0     C56858  10.508   5.449  11.008  0.7966 -0.4578  0.7735
  422MOL0     O56859  10.579   5.497  11.125 -0.1533 -0.6342  0.6717
  422MOL0     C56860  10.498   5.579  11.213 -0.3149  0.6013 -0.3112
  422MOL0     C56861  10.449   5.517  11.327  0.8639 -0.5335  0.3112
  422MOL0     C56862  10.352   5.594  11.407  0.1678 -0.0726 -0.2584
  422MOL0     C56863  10.313   5.510  11.529 -0.0615 -0.2022  0.1861
  422MOL0     C56864  10.307   5.728  11.362 -0.7143 -0.2512 -0.2938
  422MOL0     C56865  10.195   5.800  11.425 -1.6632 -0.2732  0.3628
  422MOL0     O56866  10.217   5.925  11.464  0.2922  0.1574  0.5206
  422MOL0     C56867  10.110   6.015  11.473  0.4768 -0.3970  0.0975
  422MOL0     C56868  10.099   6.095  11.586  0.0001  0.1650 -0.5515
  422MOL0     C56869   9.994   6.182  11.599  0.7992 -0.0810  0.7873
  422MOL0     C56870   9.897   6.199  11.506 -0.8803  0.3700  0.1077
  422MOL0     O56871   9.798   6.294  11.518  0.1441 -0.0672 -0.7693
  422MOL0     C56872   9.668   6.251  11.545 -0.9217  0.5939  0.0627
  422MOL0     C56873   9.576   6.361  11.594 -0.9401  0.1217 -0.5342
  422MOL0     C56874   9.556   6.343  11.743 -0.0928  0.4047  0.1004
  422MOL0     C56875   9.471   6.460  11.804  0.2723 -0.1583  0.7073
  422MOL0     C56876   9.428   6.434  11.950  1.5119  0.6746  0.7265
  422MOL0     C56877   9.348   6.546  12.016  0.3832 -0.4963  0.2749
  422MOL0     C56878   9.335   6.520  12.158 -0.0439 -0.5690 -0.8033
  422MOL0     C56879   9.269   6.638  12.225 -0.8568 -1.0885  0.4983
  422MOL0    Cl56880   9.253   6.599  12.395 -0.0319 -0.0526 -0.1277
  422MOL0     C56881   9.920   6.134  11.390  0.5569 -0.5717  0.0825
  422MOL0     C56882  10.016   6.037  11.367 -0.4442 -0.1697  0.7395
  422MOL0     O56883  10.082   5.754  11.415  0.2554  0.2343 -1.0335
  422MOL0     C56884  10.378   5.787  11.261 -0.5455  0.2097 -0.3979
  422MOL0     C56885  10.471   5.713  11.181  0.3859 -0.0573 -0.6308
  422MOL0     N56886  10.246   4.958  10.834  0.0054  0.5785 -0.0972
  422MOL0     N56887  10.218   4.910  10.720  0.7869  0.2738  0.7999
  422MOL0     C56888  10.332   5.045   9.372 -0.5129  1.4531  0.9748
  422MOL0     C56889  10.405   5.065   9.260 -0.3096 -0.8998  0.7976
  422MOL0     C56890  10.763   5.136   9.025  0.5093  0.4680  0.0692
  422MOL0     C56891  10.747   5.061   8.905  0.5063 -1.6006  1.5497
  422MOL0     C56892  10.812   5.105   8.792 -0.2836 -0.2490  0.1288
  422MOL0     C56893  10.899   5.219   8.795  0.2286 -0.0453 -0.2268
  422MOL0     O56894  10.951   5.259   8.673 -0.2680 -0.3021 -0.5909
  422MOL0     C56895  10.913   5.395   8.632 -0.6739 -0.0072  0.2547
  422MOL0     C56896  11.014   5.446   8.541 -0.1738 -0.0397 -0.6094
  422MOL0     C56897  11.158   5.473   8.611  0.0087  0.8588 -0.2615
  422MOL0     C56898  11.270   5.512   8.516 -0.4027  0.3248 -0.5465
  422MOL0     C56899  11.376   5.582   8.590  0.7810  0.4579 -1.2187
  422MOL0     C56900  11.471   5.631   8.653  1.0008 -0.2115  1.3888
  422MOL0     C56901  10.933   5.279   8.912  0.5306  0.1191 -0.3458
  422MOL0     C56902  10.858   5.240   9.025 -0.0440  0.1073 -0.7160
  422MOL0     H56903  10.654   4.859   9.328  0.5077  0.3595  3.5224
  422MOL0     H56904  10.523   4.837   9.547 -1.9514  3.3709  2.6370
  422MOL0     H56905  10.364   4.782   9.677 -0.1213 -0.3805  2.4046
  422MOL0     H56906  10.418   4.937   9.750  1.2529 -1.4889 -0.4709
  422MOL0     H56907  10.137   4.975   9.783 -1.8005 -0.5336  0.6103
  422MOL0     H56908  10.137   4.805   9.759 -1.0257  2.1054 -1.1459
  422MOL0     H56909  10.212   4.753   9.964 -2.4889 -0.3440 -1.8228
  422MOL0     H56910  10.349   4.869   9.950  0.1705 -0.9609  1.0800
  422MOL0     H56911  10.222   5.060   9.991 -1.2361 -0.7537 -3.2303
  422MOL0     H56912  10.074   4.983  10.005  0.0825  1.1205 -0.5563
  422MOL0     H56913  10.172   4.858  10.220  1.1383  0.1744 -0.5185
  422MOL0     H56914  10.310   4.970  10.205  3.0159 -4.9568 -2.1898
  422MOL0     H56915  10.129   5.164  10.196 -2.6856  1.4347  0.5559
  422MOL0     H56916  10.006   5.046  10.242  1.5086 -2.7572  3.5846
  422MOL0     H56917  10.222   5.177  10.384  1.9607 -2.2451 -1.6606
  422MOL0     H56918  10.058   5.147  10.434 -0.5125 -0.7897  1.9819
  422MOL0     H56919  10.292   4.950  10.460  0.9564  1.7612  0.9625
  422MOL0     H56920  10.125   4.887  10.461  0.1039 -0.9801  0.9653
  422MOL0     H56921  10.160   5.214  10.650  0.8689  0.4990  1.6181
  422MOL0     H56922  10.153   5.279  10.918 -1.4912 -1.0721  1.3991
  422MOL0     H56923  10.221   5.166  11.032  2.6184 -0.7266 -0.9149
  422MOL0     H56924  10.373   5.311  10.835 -4.5047  2.1704 -0.1176
  422MOL0     H56925  10.434   5.169  10.942 -2.1342 -1.4629 -3.8796
  422MOL0     H56926  10.412   5.294  11.130  2.5036  1.3255  0.6837
  422MOL0     H56927  10.308   5.416  11.048 -0.1093 -0.5967  0.3180
  422MOL0     H56928  10.464   5.545  10.979 -1.8642 -1.6449  0.5796
  422MOL0     H56929  10.581   5.396  10.946 -0.5601 -1.3983 -0.0620
  422MOL0     H56930  10.482   5.414  11.342  0.2161 -0.8368 -0.3011
  422MOL0     H56931  10.390   5.439  11.559 -0.2259  0.1612  1.5603
  422MOL0     H56932  10.302   5.575  11.617  1.8364 -0.9220  1.0093
  422MOL0     H56933  10.214   5.464  11.525 -0.3080  0.3342 -0.0317
  422MOL0     H56934  10.173   6.081  11.665 -0.0872  1.1070 -0.2943
  422MOL0     H56935   9.992   6.240  11.692  0.7771 -0.1541  0.8327
  422MOL0     H56936   9.622   6.216  11.452 -0.2960 -0.7076  0.2067
  422MOL0     H56937   9.666   6.166  11.613 -1.5350  1.1158  0.6989
  422MOL0     H56938   9.621   6.457  11.568 -1.8481  0.8319  0.4005
  422MOL0     H56939   9.478   6.345  11.548 -2.2831 -1.0500  2.4245
  422MOL0     H56940   9.647   6.353  11.803 -0.4857  1.4908  0.5503
  422MOL0     H56941   9.521   6.243  11.767  2.5229 -0.5875  0.1237
  422MOL0     H56942   9.529   6.553  11.810 -0.5750  0.4778 -0.4761
  422MOL0     H56943   9.387   6.478  11.737  1.6848 -4.5943 -2.7359
  422MOL0     H56944   9.523   6.426  12.004 -0.2993  2.8117  4.6049
  422MOL0     H56945   9.366   6.345  11.952  1.0044  0.9563 -0.8208
  422MOL0     H56946   9.396   6.641  11.992 -4.9440  2.3526 -0.6574
  422MOL0     H56947   9.248   6.554  11.973  0.7923 -1.5558 -0.9730
  422MOL0     H56948   9.435   6.507  12.201 -0.2188 -2.4236 -0.8743
  422MOL0     H56949   9.280   6.427  12.176  0.0733 -0.1165  2.4572
  422MOL0     H56950   9.171   6.660  12.182 -1.5962 -3.9859  0.4733
  422MOL0     H56951   9.327   6.728  12.204 -3.0759 -0.2960 -3.1958
  422MOL0     H56952   9.860   6.161  11.304  0.6674  0.3844  0.3003
  422MOL0     H56953  10.023   5.992  11.268  1.1749  2.0112 -0.2332
  422MOL0     H56954  10.354   5.887  11.226  5.4015  0.8492 -4.1913
  422MOL0     H56955  10.516   5.764  11.096  1.5999  1.6146  0.9307
  422MOL0     H56956  10.234   5.090   9.377 -0.5199  1.5696  0.0477
  422MOL0     H56957  10.385   5.119   9.168  2.8772 -1.9498 -0.6366
  422MOL0     H56958  10.702   4.963   8.900 -1.7013 -0.6180  1.0010
  422MOL0     H56959  10.811   5.055   8.696  0.5890 -0.5472  0.2648
  422MOL0     H56960  10.812   5.389   8.590 -2.2625 -2.6324  3.8210
  422MOL0     H56961  10.909   5.462   8.719 -0.5531  1.8893 -1.1537
  422MOL0     H56962  10.979   5.540   8.497  0.1420 -0.1519 -1.1058
  422MOL0     H56963  11.032   5.389   8.450 -0.7798  2.2418 -2.2664
  422MOL0     H56964  11.184   5.376   8.655 -4.2493 -0.4062 -0.0330
  422MOL0     H56965  11.143   5.555   8.681  0.6415 -0.7302  1.8404
  422MOL0     H56966  11.232   5.579   8.439  0.6236 -0.8503 -2.1551
  422MOL0     H56967  11.316   5.428   8.463  3.1232  0.0862  2.4189
  422MOL0     H56968  11.534   5.690   8.716  3.0391 -0.2906 -0.4561
  422MOL0     H56969  10.999   5.365   8.912 -2.1037  2.3035 -0.7652
  422MOL0     H56970  10.869   5.289   9.121 -1.9164  1.8674 -1.3483
  423MOL0     O56971   5.609   8.776   4.992  0.6689  0.9928  0.0899
  423MOL0     C56972   5.595   8.739   5.102  0.2735  0.8444  0.0486
  423MOL0     O56973   5.478   8.750   5.171 -0.6563  0.4949  1.0076
  423MOL0     C56974   5.410   8.862   5.153 -0.3795  0.3768 -0.6728
  423MOL0     C56975   5.467   8.994   5.169  0.8903 -1.0589  0.2815
  423MOL0     C56976   5.390   9.104   5.138  0.7394 -0.5233  0.2895
  423MOL0     C56977   5.256   9.094   5.112 -0.2841  0.6343  0.0811
  423MOL0     O56978   5.178   9.197   5.068 -0.5381 -0.7590  0.1864
  423MOL0     C56979   5.239   9.326   5.018  0.0471 -0.2382 -0.2350
  423MOL0     C56980   5.117   9.423   4.998 -0.1576  0.4958  0.0485
  423MOL0     C56981   5.124   9.520   4.882 -0.1041  0.3880  0.7027
  423MOL0     C56982   4.999   9.605   4.862  0.4420 -0.5325  0.4116
  423MOL0     C56983   4.999   9.677   4.728  0.3038 -0.6065  0.1331
  423MOL0     C56984   4.968   9.595   4.600  0.6499  0.1601 -0.0864
  423MOL0     C56985   4.815   9.589   4.565 -0.5216  0.3169  0.5802
  423MOL0     C56986   4.783   9.480   4.472  0.5756  0.4014 -0.2993
  423MOL0     N56987   4.835   9.495   4.339 -0.8272  0.3951  1.2119
  423MOL0     C56988   4.781   9.582   4.248  0.1512  0.3438 -0.3181
  423MOL0     C56989   4.840   9.559   4.134  0.1646  0.0743  0.1203
  423MOL0     C56990   4.796   9.634   4.012 -0.4081  0.2157 -0.7316
  423MOL0     C56991   4.821   9.790   4.011 -0.6438  0.1508 -0.2107
  423MOL0     C56992   4.897   9.837   3.876  0.4637 -0.5295 -0.3370
  423MOL0     C56993   4.951   9.978   3.888  0.3564  0.9938 -0.3165
  423MOL0     O56994   4.963  10.058   3.764  0.2052  0.2573 -0.3568
  423MOL0     C56995   5.023  10.184   3.772  0.0277 -0.4179 -0.0741
  423MOL0     C56996   5.064  10.255   3.881 -0.3259  0.3676 -0.5007
  423MOL0     C56997   5.096  10.396   3.877 -1.4758 -0.4417 -0.1120
  423MOL0     C56998   5.121  10.475   4.005 -0.2419  0.2040 -0.1251
  423MOL0     C56999   5.101  10.466   3.753  0.5236  0.4729 -0.0231
  423MOL0     C57000   5.135  10.614   3.733 -0.2192 -0.0943  0.4598
  423MOL0     O57001   5.122  10.656   3.602 -0.8029 -0.1888 -0.2071
  423MOL0     C57002   5.099  10.790   3.600 -0.4320  0.8984 -0.3339
  423MOL0     C57003   4.968  10.823   3.621 -1.2372 -0.9465 -0.3868
  423MOL0     C57004   4.934  10.961   3.615  0.8340 -0.5564  0.2171
  423MOL0     C57005   5.028  11.057   3.580  0.0106  0.3033 -0.2797
  423MOL0     O57006   4.975  11.184   3.578  0.1658  0.2674 -1.1187
  423MOL0     C57007   5.060  11.292   3.611 -0.1703 -0.6999 -0.3580
  423MOL0     C57008   4.989  11.417   3.645  0.5915  0.2536 -0.4279
  423MOL0     C57009   4.899  11.473   3.540 -0.7663 -0.8479  1.1018
  423MOL0     C57010   4.803  11.579   3.580 -0.6268  0.1109 -0.3336
  423MOL0     C57011   4.658  11.537   3.581  0.2639  1.4297  0.1006
  423MOL0     C57012   4.624  11.455   3.703 -0.3470  0.2317 -0.1079
  423MOL0     C57013   4.480  11.443   3.729  0.3138 -0.1733 -0.4508
  423MOL0     C57014   4.421  11.348   3.840 -0.5010  0.7828 -1.3548
  423MOL0    Cl57015   4.451  11.172   3.806  0.4035 -0.1839  0.2191
  423MOL0     C57016   5.161  11.020   3.537  0.7679  0.2922 -0.2297
  423MOL0     C57017   5.187  10.885   3.539 -0.9188  1.7266 -0.4275
  423MOL0     O57018   5.215  10.663   3.813  0.3714 -0.7694  0.2157
  423MOL0     C57019   5.062  10.384   3.645  0.8900 -0.4399  0.7220
  423MOL0     C57020   5.014  10.258   3.660 -0.2345 -0.2486  0.2944
  423MOL0     N57021   4.924   9.449   4.144  0.6054 -0.0759 -0.6008
  423MOL0     N57022   4.924   9.413   4.274 -0.0057  0.3563 -0.4014
  423MOL0     C57023   5.203   8.962   5.114  0.5991 -0.3747  0.2944
  423MOL0     C57024   5.282   8.850   5.133  0.5934 -0.0108 -0.1813
  423MOL0     C57025   5.698   8.650   5.156  0.9850  0.1497 -1.1127
  423MOL0     C57026   5.692   8.598   5.289  0.0759 -0.1039  0.9687
  423MOL0     C57027   5.807   8.531   5.345  0.9929  0.8615  0.1065
  423MOL0     C57028   5.923   8.524   5.276 -0.0718  0.2548 -0.5137
  423MOL0     O57029   6.049   8.491   5.333  0.4591  0.1451  0.1610
  423MOL0     C57030   6.098   8.534   5.468 -0.2396  0.2880 -1.3980
  423MOL0     C57031   6.212   8.430   5.516  0.8059  0.0674  0.2290
  423MOL0     C57032   6.167   8.297   5.578  0.0143  0.3368  0.1393
  423MOL0     C57033   6.066   8.210   5.496  0.8701  0.7337 -0.3148
  423MOL0     C57034   6.036   8.095   5.577 -0.7882 -0.0978  0.3011
  423MOL0     C57035   6.025   7.995   5.641  0.3374 -0.6482 -0.2185
  423MOL0     C57036   5.924   8.550   5.140  0.3349 -1.4956  0.1693
  423MOL0     C57037   5.809   8.613   5.078 -0.0884  0.4875 -1.2644
  423MOL0     H57038   5.568   9.021   5.199  0.6686  0.2890 -0.1122
  423MOL0     H57039   5.439   9.200   5.149  0.2122 -0.0779 -1.0430
  423MOL0     H57040   5.309   9.378   5.085  0.4100  1.2014 -1.6928
  423MOL0     H57041   5.287   9.310   4.921  1.9477  3.0366  0.0247
  423MOL0     H57042   5.030   9.363   4.966  0.3943 -0.7087  0.7161
  423MOL0     H57043   5.074   9.466   5.089 -1.1642  0.7265 -0.5144
  423MOL0     H57044   5.204   9.585   4.917  0.7266 -0.6505  0.7797
  423MOL0     H57045   5.164   9.464   4.797  1.8681  1.0191  1.1722
  423MOL0     H57046   4.916   9.536   4.879  0.5278 -1.5130 -2.5912
  423MOL0     H57047   4.982   9.681   4.940 -0.2744 -0.2462 -0.0116
  423MOL0     H57048   4.925   9.758   4.729  3.3342  2.3906  0.1412
  423MOL0     H57049   5.094   9.731   4.725  2.6416 -4.0944  3.1570
  423MOL0     H57050   5.014   9.629   4.507  0.5866  0.2695 -0.0766
  423MOL0     H57051   5.014   9.497   4.618  3.2176  1.2835  0.0235
  423MOL0     H57052   4.751   9.583   4.653 -0.7495 -1.8786  0.3227
  423MOL0     H57053   4.780   9.684   4.523  0.7133  1.1239  1.2868
  423MOL0     H57054   4.674   9.478   4.460  0.6111 -0.7937 -0.5583
  423MOL0     H57055   4.812   9.381   4.508  1.0463 -0.9312 -3.9221
  423MOL0     H57056   4.705   9.655   4.274 -2.2431 -1.5471 -1.5451
  423MOL0     H57057   4.846   9.596   3.921  1.2080  0.5186 -0.0122
  423MOL0     H57058   4.690   9.610   4.004 -0.0676 -2.0412  0.6778
  423MOL0     H57059   4.885   9.818   4.095 -0.8994  0.6263 -0.1672
  423MOL0     H57060   4.725   9.841   4.027 -2.4075 -3.4044  1.6954
  423MOL0     H57061   4.830   9.850   3.790  1.6894 -0.9277 -1.3800
  423MOL0     H57062   4.982   9.774   3.851  0.7427 -0.0787 -0.5476
  423MOL0     H57063   5.050   9.962   3.933  0.6156  1.3673 -0.7511
  423MOL0     H57064   4.891  10.027   3.965 -1.4689  0.1838 -1.1758
  423MOL0     H57065   5.054  10.213   3.980 -1.2817 -1.1343 -1.2018
  423MOL0     H57066   5.067  10.569   3.989 -3.3116 -1.7938 -2.7485
  423MOL0     H57067   5.068  10.428   4.088  3.2293 -3.0592  0.5458
  423MOL0     H57068   5.227  10.487   4.031  0.1879  1.9696 -2.3779
  423MOL0     H57069   4.905  10.748   3.668  0.0659 -1.1379  1.1676
  423MOL0     H57070   4.841  11.000   3.655  1.3717  0.3156  0.6517
  423MOL0     H57071   5.122  11.271   3.699 -0.7877  0.7234  0.4496
  423MOL0     H57072   5.126  11.308   3.526 -0.2794 -1.3351 -0.5670
  423MOL0     H57073   4.924  11.386   3.728  0.7574 -1.4906 -0.9187
  423MOL0     H57074   5.048  11.498   3.688  0.3225 -0.0629  0.5801
  423MOL0     H57075   4.849  11.391   3.488  0.1644  0.2405 -1.7265
  423MOL0     H57076   4.963  11.505   3.457 -1.5603 -0.9079  0.4547
  423MOL0     H57077   4.833  11.626   3.675  2.1949  0.3188 -1.2361
  423MOL0     H57078   4.801  11.653   3.499 -1.0709 -0.2850 -0.6884
  423MOL0     H57079   4.633  11.474   3.495 -0.2273  0.6595  0.7965
  423MOL0     H57080   4.593  11.624   3.570 -0.4848  0.8520 -0.1730
  423MOL0     H57081   4.667  11.355   3.687 -0.2577 -0.5940  4.2625
  423MOL0     H57082   4.677  11.496   3.789  1.8103 -4.4891  1.1565
  423MOL0     H57083   4.439  11.408   3.634  0.9509 -1.0240 -0.4255
  423MOL0     H57084   4.448  11.545   3.753 -2.1793 -0.8059 -0.8763
  423MOL0     H57085   4.313  11.361   3.846 -0.2719  2.2784  2.1279
  423MOL0     H57086   4.455  11.372   3.942 -3.9011  1.6768 -0.2795
  423MOL0     H57087   5.240  11.088   3.507  0.1844  0.7337 -0.8002
  423MOL0     H57088   5.284  10.855   3.499 -0.7854  2.3116 -0.5550
  423MOL0     H57089   5.069  10.425   3.545 -0.0695  3.2490  1.9950
  423MOL0     H57090   4.980  10.213   3.568 -0.2550  0.7815 -0.2206
  423MOL0     H57091   5.097   8.949   5.092  0.6051 -1.8659  1.0301
  423MOL0     H57092   5.239   8.752   5.113  3.3188 -1.6752  1.4264
  423MOL0     H57093   5.595   8.604   5.335 -2.1534 -2.2930 -2.8872
  423MOL0     H57094   5.796   8.499   5.448  1.2887  2.8648  0.8050
  423MOL0     H57095   6.130   8.638   5.457  0.5364  0.2697  0.4087
  423MOL0     H57096   6.018   8.530   5.542  0.4427  1.2255 -0.5684
  423MOL0     H57097   6.292   8.475   5.575  2.7386 -0.5871 -1.7515
  423MOL0     H57098   6.262   8.401   5.423 -1.8822  3.8430 -2.6938
  423MOL0     H57099   6.114   8.316   5.671  2.1681  0.1965  1.4517
  423MOL0     H57100   6.261   8.245   5.598 -0.8433 -0.5983  1.8542
  423MOL0     H57101   6.128   8.174   5.414 -2.0108  0.9886 -2.7887
  423MOL0     H57102   5.977   8.261   5.457 -0.6779 -1.2948  0.4145
  423MOL0     H57103   6.021   7.896   5.682  1.7016 -0.8978 -0.6267
  423MOL0     H57104   6.006   8.545   5.069 -0.5394  3.1772 -1.5243
  423MOL0     H57105   5.817   8.633   4.972  0.2535  0.7643 -1.1886
  424MOL0     O57106   3.111   5.187   4.472 -0.2368 -0.5069  0.2780
  424MOL0     C57107   3.221   5.126   4.470  0.8379  0.0096  0.6348
  424MOL0     O57108   3.359   5.180   4.474  0.5839 -1.3399  0.9959
  424MOL0     C57109   3.371   5.320   4.452  0.6465  0.8218 -0.6929
  424MOL0     C57110   3.498   5.353   4.436  0.2541 -0.6366 -0.1458
  424MOL0     C57111   3.535   5.485   4.402 -0.9925 -0.1080  0.1670
  424MOL0     C57112   3.442   5.590   4.386  1.4875  0.1763 -0.8513
  424MOL0     O57113   3.499   5.709   4.363  0.8189  0.1238 -0.2468
  424MOL0     C57114   3.468   5.810   4.460  0.5304  0.5386 -0.0846
  424MOL0     C57115   3.578   5.907   4.476  0.2084 -0.1299 -0.0992
  424MOL0     C57116   3.697   5.833   4.548  0.5872 -0.4629 -0.4337
  424MOL0     C57117   3.801   5.950   4.567  0.5474  0.8167 -0.1079
  424MOL0     C57118   3.922   5.913   4.660  0.8327  0.3156 -0.0850
  424MOL0     C57119   4.026   6.022   4.680  0.1225  0.3797 -0.3563
  424MOL0     C57120   3.979   6.161   4.732  0.4344 -0.4952 -0.6368
  424MOL0     C57121   3.950   6.155   4.886 -0.0062  0.2620  0.1128
  424MOL0     N57122   3.848   6.249   4.937 -0.0059 -0.1000  0.4085
  424MOL0     C57123   3.879   6.371   4.995  0.6397 -0.2949 -1.0079
  424MOL0     C57124   3.755   6.430   5.020 -0.8571 -0.9770  0.0460
  424MOL0     C57125   3.717   6.559   5.094 -0.1291 -0.6853 -0.2178
  424MOL0     C57126   3.658   6.677   5.010 -0.1856  0.1215 -0.5256
  424MOL0     C57127   3.623   6.787   5.107 -0.5761  0.8507 -0.9105
  424MOL0     C57128   3.537   6.893   5.030 -0.2290  0.5995  0.9459
  424MOL0     O57129   3.604   6.936   4.906 -0.3187  0.5506  0.5423
  424MOL0     C57130   3.520   6.976   4.815  0.0720 -0.9576 -0.7382
  424MOL0     C57131   3.476   7.111   4.820  0.4362  0.3000 -0.1341
  424MOL0     C57132   3.377   7.158   4.733  0.1401  1.3451 -0.0985
  424MOL0     C57133   3.328   7.297   4.757 -0.3522 -0.1731  0.3510
  424MOL0     C57134   3.337   7.068   4.619 -1.2717  0.0300 -0.6469
  424MOL0     C57135   3.261   7.112   4.499 -0.1550  0.8644 -0.1805
  424MOL0     O57136   3.248   7.008   4.405 -0.1240  0.3557 -0.2105
  424MOL0     C57137   3.206   7.020   4.284  0.9894 -0.2028  1.1802
  424MOL0     C57138   3.095   7.103   4.253 -0.6730 -0.1006 -0.4155
  424MOL0     C57139   3.060   7.123   4.118 -0.4687 -0.6071  0.3636
  424MOL0     C57140   3.133   7.069   4.014  0.3624 -0.1712  0.4985
  424MOL0     O57141   3.090   7.104   3.890  0.3178  0.2377  0.0975
  424MOL0     C57142   3.118   7.232   3.830 -0.8935 -0.1523  0.0686
  424MOL0     C57143   3.046   7.234   3.704 -0.0648 -0.0960  0.2536
  424MOL0     C57144   3.080   7.374   3.630 -0.3053  0.2297 -0.0320
  424MOL0     C57145   3.013   7.373   3.500 -1.0666 -0.5204 -0.8710
  424MOL0     C57146   3.034   7.506   3.414  0.9371 -0.4101 -0.2008
  424MOL0     C57147   2.898   7.581   3.405 -0.7273 -0.0297  0.7412
  424MOL0     C57148   2.767   7.523   3.339 -0.7158  0.3537 -0.4102
  424MOL0     C57149   2.643   7.604   3.388  1.3900 -0.1872  0.2643
  424MOL0    Cl57150   2.517   7.552   3.275 -1.0454 -0.2845  0.2929
  424MOL0     C57151   3.241   6.987   4.043 -0.1744  1.1402 -0.3437
  424MOL0     C57152   3.276   6.953   4.179  0.7171 -0.2452  0.2972
  424MOL0     O57153   3.240   7.227   4.483 -0.4283 -0.1554  0.4010
  424MOL0     C57154   3.380   6.932   4.629  0.1028  0.8367 -0.3844
  424MOL0     C57155   3.468   6.885   4.727  0.5903  0.9091  0.6810
  424MOL0     N57156   3.654   6.340   4.981 -1.6179 -0.2097 -0.1615
  424MOL0     N57157   3.711   6.234   4.934 -0.2037 -0.5976  0.0807
  424MOL0     C57158   3.308   5.557   4.401  0.2048  0.5271 -0.0745
  424MOL0     C57159   3.270   5.423   4.437  0.1285  0.4888  0.0781
  424MOL0     C57160   3.226   4.982   4.524 -0.4003 -1.0975  0.3814
  424MOL0     C57161   3.114   4.930   4.583 -0.8471  0.4853  0.1182
  424MOL0     C57162   3.108   4.801   4.632 -0.5553  0.4455  0.7331
  424MOL0     C57163   3.221   4.722   4.627  0.1860 -0.4571  0.5768
  424MOL0     O57164   3.213   4.594   4.686 -0.0597  1.3082  0.1842
  424MOL0     C57165   3.253   4.482   4.611 -0.6245  0.0507 -0.2377
  424MOL0     C57166   3.237   4.360   4.692  0.7768  0.8199 -0.1444
  424MOL0     C57167   3.279   4.234   4.603 -0.0969 -0.2345 -0.2933
  424MOL0     C57168   3.300   4.114   4.697 -0.4254 -0.1696  1.4317
  424MOL0     C57169   3.394   4.134   4.808 -0.8218  0.2234 -0.2659
  424MOL0     C57170   3.474   4.140   4.899  0.3053 -0.9027 -0.2421
  424MOL0     C57171   3.336   4.771   4.574  0.6470 -0.2098 -0.2202
  424MOL0     C57172   3.342   4.901   4.514  0.3074  0.8312  0.3590
  424MOL0     H57173   3.579   5.280   4.435 -1.1951 -2.3586 -2.1588
  424MOL0     H57174   3.638   5.517   4.398 -0.8131 -0.7697 -2.2091
  424MOL0     H57175   3.388   5.867   4.412  0.6775 -0.4773 -1.5903
  424MOL0     H57176   3.445   5.761   4.556  3.9362 -0.0394  0.5821
  424MOL0     H57177   3.609   5.936   4.375  1.6808  0.4481  0.4867
  424MOL0     H57178   3.536   5.994   4.527 -0.0664  0.6890 -1.6778
  424MOL0     H57179   3.667   5.778   4.638  1.4173 -0.2996 -0.0519
  424MOL0     H57180   3.729   5.752   4.482  2.4214  0.0214 -0.1940
  424MOL0     H57181   3.824   5.973   4.462  0.1547 -1.7198 -0.8305
  424MOL0     H57182   3.752   6.036   4.613 -0.6554  0.1559 -0.0829
  424MOL0     H57183   3.883   5.881   4.757 -0.2250 -0.6858 -0.8205
  424MOL0     H57184   3.966   5.827   4.608  1.6331  1.1533 -0.8339
  424MOL0     H57185   4.110   5.984   4.738 -0.7440 -0.1490  0.5828
  424MOL0     H57186   4.069   6.034   4.580  2.4390 -0.4821  0.4788
  424MOL0     H57187   4.049   6.244   4.714 -0.2250  0.0661 -0.6644
  424MOL0     H57188   3.886   6.187   4.682  0.1029 -0.5992 -0.0817
  424MOL0     H57189   4.052   6.166   4.924 -0.0316 -1.7147  0.8326
  424MOL0     H57190   3.904   6.062   4.917 -2.7743  0.6334 -2.3841
  424MOL0     H57191   3.978   6.397   5.030 -0.4621  0.9244  1.5001
  424MOL0     H57192   3.643   6.531   5.170 -0.6107  4.4423  1.6262
  424MOL0     H57193   3.800   6.590   5.157 -1.5288 -1.7578  2.2853
  424MOL0     H57194   3.575   6.652   4.944  1.0628 -1.4951 -1.5543
  424MOL0     H57195   3.740   6.712   4.947 -0.4974  0.1919 -0.8952
  424MOL0     H57196   3.716   6.831   5.145  0.6100 -2.1724 -0.0095
  424MOL0     H57197   3.574   6.748   5.197 -0.2542  3.4769  0.4998
  424MOL0     H57198   3.521   6.981   5.093 -0.9015  0.1309  1.4534
  424MOL0     H57199   3.436   6.853   5.017  1.5409 -4.5473  0.4230
  424MOL0     H57200   3.520   7.168   4.901  0.4999 -0.4925  0.3964
  424MOL0     H57201   3.373   7.336   4.849 -0.7309 -1.5645  1.1737
  424MOL0     H57202   3.348   7.370   4.678 -1.9429 -0.3439 -0.2399
  424MOL0     H57203   3.219   7.293   4.759 -0.6890  2.5709 -3.1269
  424MOL0     H57204   3.036   7.138   4.336  1.7435 -2.1928  2.3946
  424MOL0     H57205   2.994   7.200   4.082  1.6437  1.6623  1.0675
  424MOL0     H57206   3.089   7.318   3.890 -0.8909  0.0142 -0.1686
  424MOL0     H57207   3.226   7.227   3.810 -0.7032 -0.4667  1.1010
  424MOL0     H57208   3.071   7.155   3.632  0.4839  1.3359 -1.1984
  424MOL0     H57209   2.940   7.236   3.729 -0.2547 -0.6877 -0.4672
  424MOL0     H57210   3.187   7.395   3.629 -0.2289 -0.0529  1.1916
  424MOL0     H57211   3.036   7.448   3.697  0.0584 -2.0827  2.9706
  424MOL0     H57212   3.069   7.297   3.444 -0.4456 -1.1635  0.5584
  424MOL0     H57213   2.908   7.348   3.518 -0.4217 -1.4320  2.1777
  424MOL0     H57214   3.096   7.490   3.324  0.4086 -0.6874 -0.5207
  424MOL0     H57215   3.090   7.575   3.478 -0.7561 -0.0648  0.9517
  424MOL0     H57216   2.874   7.627   3.501 -0.3685  0.1947  0.7266
  424MOL0     H57217   2.923   7.662   3.336  0.7836  0.9540  2.3612
  424MOL0     H57218   2.766   7.419   3.375  0.2782  0.5310  0.1597
  424MOL0     H57219   2.772   7.528   3.230  1.9688  0.4120 -0.3369
  424MOL0     H57220   2.650   7.713   3.394 -0.3805  0.3242 -3.7131
  424MOL0     H57221   2.608   7.570   3.486  1.3140 -1.6140 -0.2354
  424MOL0     H57222   3.291   6.940   3.959 -1.5001 -0.4546 -0.2929
  424MOL0     H57223   3.354   6.882   4.207  0.9714 -1.1648 -2.4310
  424MOL0     H57224   3.371   6.860   4.549  0.1790 -1.3940  1.5010
  424MOL0     H57225   3.489   6.778   4.726  2.0478  1.1382 -1.5517
  424MOL0     H57226   3.236   5.638   4.410 -2.0524 -1.4555  0.6853
  424MOL0     H57227   3.163   5.409   4.441 -0.1735  2.4696 -0.0387
  424MOL0     H57228   3.022   4.986   4.566 -2.4025 -2.0885 -0.5529
  424MOL0     H57229   3.012   4.763   4.668 -2.1047  1.4603 -2.0230
  424MOL0     H57230   3.210   4.470   4.511  1.3947  0.5353 -1.2076
  424MOL0     H57231   3.361   4.492   4.602 -0.6499 -0.8594 -1.9124
  424MOL0     H57232   3.133   4.341   4.720  0.9965 -2.1143 -0.9756
  424MOL0     H57233   3.301   4.358   4.781 -0.9264 -0.7206  1.1022
  424MOL0     H57234   3.368   4.249   4.540  1.1227  1.0848  1.6276
  424MOL0     H57235   3.196   4.201   4.540  0.5008 -1.0206 -0.6840
  424MOL0     H57236   3.331   4.035   4.629 -0.7808  1.0331 -0.1960
  424MOL0     H57237   3.203   4.086   4.737 -1.3803 -0.1282 -0.7317
  424MOL0     H57238   3.539   4.150   4.983 -1.0212 -3.9358  1.2502
  424MOL0     H57239   3.429   4.714   4.575  2.1200  1.9386  3.4667
  424MOL0     H57240   3.429   4.935   4.459  2.4473 -2.4296  1.4021
  425MOL0     O57241   5.462   7.878   2.819  0.1321 -0.0881  0.3024
  425MOL0     C57242   5.563   7.889   2.888 -0.1854 -0.5714 -0.6132
  425MOL0     O57243   5.673   7.960   2.851  0.2757  0.5806 -0.0335
  425MOL0     C57244   5.673   8.038   2.739  0.5432  0.8254  0.3527
  425MOL0     C57245   5.723   8.169   2.746  0.8143  0.3126 -0.6380
  425MOL0     C57246   5.722   8.243   2.628  0.8387  0.1578  0.0830
  425MOL0     C57247   5.682   8.198   2.497  0.2930 -1.2632  0.1220
  425MOL0     O57248   5.670   8.296   2.396  0.1641 -0.3719  0.5966
  425MOL0     C57249   5.669   8.251   2.260 -0.5448 -0.2343 -1.1323
  425MOL0     C57250   5.542   8.191   2.195 -0.1782  1.1341  1.0482
  425MOL0     C57251   5.416   8.269   2.227  0.5511  0.4312  0.1472
  425MOL0     C57252   5.308   8.175   2.163 -1.2019 -0.4614 -0.4355
  425MOL0     C57253   5.165   8.223   2.184 -0.2309 -0.1693  0.2274
  425MOL0     C57254   5.095   8.198   2.312  0.4741 -0.4363 -0.7611
  425MOL0     C57255   5.075   8.052   2.354 -0.5779  0.0249 -0.4230
  425MOL0     C57256   5.037   8.055   2.498 -0.0985  0.9059  0.0647
  425MOL0     N57257   4.971   7.932   2.548 -1.0838  0.3098 -0.1386
  425MOL0     C57258   5.015   7.852   2.653  0.3481 -0.2884  0.7165
  425MOL0     C57259   4.938   7.742   2.638 -0.1855 -0.7093  0.2934
  425MOL0     C57260   4.938   7.619   2.737  0.0215  1.4574  0.2973
  425MOL0     C57261   4.952   7.656   2.876 -0.7492 -0.7368 -1.3739
  425MOL0     C57262   4.944   7.545   2.977 -0.5596 -0.0650 -0.3315
  425MOL0     C57263   4.865   7.596   3.098 -0.6911 -0.3699 -0.6092
  425MOL0     O57264   4.871   7.497   3.208  0.0585 -0.1400 -0.1710
  425MOL0     C57265   4.768   7.401   3.224  1.4764 -1.2471  1.1880
  425MOL0     C57266   4.788   7.305   3.310  0.1241  1.4385 -0.2772
  425MOL0     C57267   4.688   7.206   3.347 -0.0492  0.8435  0.5147
  425MOL0     C57268   4.738   7.123   3.467 -1.4065  0.5613  0.6042
  425MOL0     C57269   4.561   7.201   3.281  0.0753  0.8806 -0.5985
  425MOL0     C57270   4.450   7.110   3.324 -0.6986  0.3134  0.3240
  425MOL0     O57271   4.326   7.141   3.268  0.3185  0.1919  0.6114
  425MOL0     C57272   4.216   7.057   3.318 -0.2888  0.1340 -0.1500
  425MOL0     C57273   4.197   6.930   3.261  1.0178 -0.9079  0.1430
  425MOL0     C57274   4.098   6.848   3.312 -0.3289 -0.3797  0.2387
  425MOL0     C57275   4.012   6.883   3.413  0.3090  1.0463 -0.3668
  425MOL0     O57276   3.905   6.804   3.439 -0.7508  0.5701 -0.1364
  425MOL0     C57277   3.852   6.801   3.572 -0.0480  0.9382  0.3198
  425MOL0     C57278   3.727   6.725   3.558 -1.1922 -0.5049  0.4693
  425MOL0     C57279   3.665   6.671   3.688 -0.6279 -0.3171 -0.6588
  425MOL0     C57280   3.656   6.778   3.807  0.2811  0.1073 -0.3002
  425MOL0     C57281   3.606   6.725   3.939 -0.2712  0.2365  0.6558
  425MOL0     C57282   3.477   6.643   3.937  0.1461  0.8946 -0.6276
  425MOL0     C57283   3.418   6.605   4.070 -0.5096 -0.3645  0.7121
  425MOL0     C57284   3.476   6.486   4.142  0.1567  0.0719 -0.4777
  425MOL0    Cl57285   3.358   6.423   4.270 -0.0637 -0.2994  0.2383
  425MOL0     C57286   4.030   7.007   3.465 -0.0712 -0.0191  0.0690
  425MOL0     C57287   4.128   7.099   3.422 -0.9553  1.3436  0.2972
  425MOL0     O57288   4.476   7.020   3.403  0.8005  0.4945  0.2275
  425MOL0     C57289   4.543   7.305   3.198 -0.1703  0.8309  0.4695
  425MOL0     C57290   4.636   7.397   3.164  1.2477 -0.3861  0.3749
  425MOL0     N57291   4.841   7.762   2.542  0.6361  0.5362  0.8981
  425MOL0     N57292   4.867   7.876   2.485  0.4790 -0.0711 -0.5767
  425MOL0     C57293   5.644   8.068   2.489  0.0600  1.5351 -0.3705
  425MOL0     C57294   5.640   7.985   2.607 -0.5835 -0.0065 -1.3290
  425MOL0     C57295   5.559   7.821   3.021 -0.5144 -0.3148  0.4282
  425MOL0     C57296   5.467   7.718   3.055 -0.0516 -0.0709 -0.6442
  425MOL0     C57297   5.462   7.662   3.180  0.0005  0.5546  0.0287
  425MOL0     C57298   5.552   7.700   3.280  0.0309  0.1431 -0.2524
  425MOL0     O57299   5.549   7.661   3.408  0.2122 -0.5496 -0.0961
  425MOL0     C57300   5.426   7.658   3.479 -0.4110  1.0049 -0.4865
  425MOL0     C57301   5.459   7.654   3.625 -0.1775 -0.0951 -0.7955
  425MOL0     C57302   5.472   7.780   3.703 -0.2642 -0.9897  0.2674
  425MOL0     C57303   5.553   7.760   3.835 -1.0619  0.4023  0.3847
  425MOL0     C57304   5.701   7.736   3.819 -0.4800 -0.1048  1.0939
  425MOL0     C57305   5.814   7.705   3.816  0.4467  0.4842 -0.4822
  425MOL0     C57306   5.653   7.786   3.240 -0.4838  0.1434 -0.1767
  425MOL0     C57307   5.657   7.852   3.118  0.3730 -0.1539  0.1364
  425MOL0     H57308   5.748   8.214   2.841  2.2058 -0.5993 -0.5538
  425MOL0     H57309   5.745   8.348   2.643  1.6449 -0.2830  2.4770
  425MOL0     H57310   5.693   8.335   2.195 -2.1071  0.5096 -0.7849
  425MOL0     H57311   5.756   8.184   2.252 -0.5091 -0.3120 -0.2440
  425MOL0     H57312   5.556   8.172   2.088  0.3710 -3.7599  1.7933
  425MOL0     H57313   5.532   8.088   2.230  0.0745 -0.9237 -4.0356
  425MOL0     H57314   5.399   8.280   2.335  0.8796 -1.0316  0.3667
  425MOL0     H57315   5.429   8.370   2.187  1.0160 -0.1276 -1.1565
  425MOL0     H57316   5.325   8.173   2.054 -2.5236  1.0692 -0.7041
  425MOL0     H57317   5.310   8.075   2.207 -2.3121 -0.2385  0.1363
  425MOL0     H57318   5.163   8.331   2.170 -1.8510  0.0050  1.5387
  425MOL0     H57319   5.098   8.188   2.106 -0.8836  2.4048 -0.4647
  425MOL0     H57320   5.146   8.259   2.388 -1.1704 -0.8356  0.7057
  425MOL0     H57321   4.995   8.240   2.295 -0.0180 -0.3008  2.0852
  425MOL0     H57322   5.000   7.998   2.295  0.7942 -1.8033 -0.5834
  425MOL0     H57323   5.173   8.003   2.355 -2.1653 -3.5468  2.2700
  425MOL0     H57324   4.980   8.147   2.515  0.6307  1.9057 -2.4296
  425MOL0     H57325   5.124   8.070   2.563 -1.2910  1.5489  1.5945
  425MOL0     H57326   5.093   7.871   2.726 -1.6953 -0.2191  3.0167
  425MOL0     H57327   4.852   7.553   2.721  0.8853 -0.6833  3.5583
  425MOL0     H57328   5.014   7.545   2.707 -0.3337  1.5233 -0.8345
  425MOL0     H57329   4.896   7.744   2.907 -1.6197 -1.2604 -1.4275
  425MOL0     H57330   5.056   7.688   2.891 -0.7061  0.3656 -3.5735
  425MOL0     H57331   5.046   7.511   2.995 -0.1450  1.3589  0.1142
  425MOL0     H57332   4.902   7.455   2.931  0.2684 -1.9084  2.2367
  425MOL0     H57333   4.764   7.622   3.065  0.5308  3.6978 -1.7514
  425MOL0     H57334   4.895   7.690   3.144  0.7487  0.7579 -3.5619
  425MOL0     H57335   4.887   7.293   3.352  0.3721  0.3525 -1.0968
  425MOL0     H57336   4.660   7.077   3.528  0.7172 -0.8455  2.4420
  425MOL0     H57337   4.802   7.040   3.433 -0.2993  2.6878 -3.0726
  425MOL0     H57338   4.795   7.180   3.542 -0.9021 -1.6814  2.0344
  425MOL0     H57339   4.256   6.909   3.172 -0.3786  0.3437 -1.1490
  425MOL0     H57340   4.080   6.749   3.270  0.5157 -0.7749  0.7898
  425MOL0     H57341   3.935   6.773   3.637  2.7904  4.3102 -1.4955
  425MOL0     H57342   3.828   6.903   3.604  2.6404  2.1189 -1.1303
  425MOL0     H57343   3.656   6.790   3.507 -1.5067 -0.5454  0.8569
  425MOL0     H57344   3.736   6.634   3.498 -1.5218 -1.5907  2.0238
  425MOL0     H57345   3.740   6.596   3.717 -2.6383 -0.9571  3.5691
  425MOL0     H57346   3.568   6.626   3.668  0.9822 -4.9620  0.7153
  425MOL0     H57347   3.749   6.831   3.830 -0.3436  0.7012  0.9660
  425MOL0     H57348   3.586   6.860   3.790  0.1372 -0.0044 -0.2436
  425MOL0     H57349   3.596   6.803   4.015 -0.4527  0.3896  0.4746
  425MOL0     H57350   3.685   6.655   3.969  0.0286 -0.3316 -1.2784
  425MOL0     H57351   3.403   6.714   3.897  1.5903  3.2057  0.5899
  425MOL0     H57352   3.475   6.554   3.874 -0.4982 -0.7101  1.5604
  425MOL0     H57353   3.310   6.595   4.055 -0.6157 -0.9123  1.7034
  425MOL0     H57354   3.433   6.687   4.140 -0.1221 -1.7094  2.2739
  425MOL0     H57355   3.576   6.500   4.182 -0.4297 -3.0932  2.5482
  425MOL0     H57356   3.477   6.413   4.060 -1.3861  3.6580 -4.0675
  425MOL0     H57357   3.949   7.035   3.530 -1.9199 -0.1956 -2.0288
  425MOL0     H57358   4.146   7.195   3.470 -2.4696  2.3280 -1.0107
  425MOL0     H57359   4.449   7.320   3.146 -0.1554  3.2280  1.0149
  425MOL0     H57360   4.595   7.472   3.096 -0.6421 -1.0249  0.7336
  425MOL0     H57361   5.626   8.020   2.393 -0.2206  1.1462 -0.1274
  425MOL0     H57362   5.616   7.880   2.616 -0.6600  0.0541 -0.7962
  425MOL0     H57363   5.393   7.667   2.994 -0.9304 -3.1730  2.6478
  425MOL0     H57364   5.394   7.587   3.218 -1.1050  1.0011 -1.0055
  425MOL0     H57365   5.349   7.733   3.459  0.2220  1.8269  0.1266
  425MOL0     H57366   5.372   7.565   3.457 -2.6811  2.3202 -0.7222
  425MOL0     H57367   5.549   7.593   3.641  0.0842  0.5693  0.3748
  425MOL0     H57368   5.383   7.590   3.673  1.2728 -0.7063  0.7933
  425MOL0     H57369   5.381   7.831   3.738  1.9246  1.2692  3.3362
  425MOL0     H57370   5.524   7.863   3.654 -1.7040 -0.6694 -0.7954
  425MOL0     H57371   5.512   7.669   3.880 -3.5526  1.9384  1.4194
  425MOL0     H57372   5.535   7.840   3.907 -2.8915 -1.7003  2.4564
  425MOL0     H57373   5.919   7.686   3.825  0.1067 -1.9400 -0.9918
  425MOL0     H57374   5.720   7.821   3.319 -1.1595 -2.3165  1.6486
  425MOL0     H57375   5.732   7.928   3.102  0.8722 -0.9567 -1.5470
  426MOL0     O57376   1.725   4.073   9.452  0.0702 -0.0040 -0.2412
  426MOL0     C57377   1.822   4.025   9.521  0.6010  1.1069  0.0396
  426MOL0     O57378   1.822   4.012   9.659 -0.3410  0.0205  0.4612
  426MOL0     C57379   1.755   4.104   9.737  0.6527 -0.1532  1.6427
  426MOL0     C57380   1.691   4.222   9.695 -0.0564  0.1059  0.2753
  426MOL0     C57381   1.633   4.308   9.801 -0.6985 -0.3290 -1.6093
  426MOL0     C57382   1.633   4.272   9.931  0.1699 -0.6621 -0.7411
  426MOL0     O57383   1.573   4.348  10.038  0.2370 -0.6652  0.0426
  426MOL0     C57384   1.463   4.427   9.986  0.4266  0.2783  0.4694
  426MOL0     C57385   1.403   4.488  10.113 -0.4313 -0.5726  0.0183
  426MOL0     C57386   1.502   4.560  10.217  0.6178  0.2519 -0.3713
  426MOL0     C57387   1.566   4.689  10.159  0.8567 -0.0686  1.0638
  426MOL0     C57388   1.635   4.778  10.260  0.7296 -0.3178 -0.4162
  426MOL0     C57389   1.689   4.899  10.195 -0.3246  0.1319  0.7180
  426MOL0     C57390   1.714   5.016  10.301 -0.1873 -1.0813  0.5577
  426MOL0     C57391   1.762   5.134  10.211 -0.0689  0.0351 -1.5702
  426MOL0     N57392   1.911   5.126  10.189 -0.3435  0.2087  0.1638
  426MOL0     C57393   2.006   5.192  10.259  0.0917 -0.8981 -0.0431
  426MOL0     C57394   2.126   5.161  10.212 -1.1630  0.4043 -0.4568
  426MOL0     C57395   2.263   5.233  10.245 -0.5006  0.4084  0.3725
  426MOL0     C57396   2.382   5.144  10.211 -1.4307  0.3654  0.7519
  426MOL0     C57397   2.516   5.197  10.265  0.3453 -0.2778  0.4181
  426MOL0     C57398   2.629   5.096  10.297 -0.3988  0.1544  0.1131
  426MOL0     O57399   2.564   4.994  10.366  0.8698 -0.2720  0.9310
  426MOL0     C57400   2.636   4.927  10.459  0.0499 -0.2729 -0.3460
  426MOL0     C57401   2.770   4.900  10.462  0.5054 -0.2811 -0.8007
  426MOL0     C57402   2.835   4.822  10.560 -0.1929  0.5788  1.0195
  426MOL0     C57403   2.991   4.795  10.536 -0.7331 -0.4532 -0.4899
  426MOL0     C57404   2.760   4.750  10.653 -1.0597 -1.0432 -0.1753
  426MOL0     C57405   2.830   4.663  10.749  0.1185 -0.3372 -0.7725
  426MOL0     O57406   2.749   4.569  10.808 -0.0667  0.3091 -0.1374
  426MOL0     C57407   2.796   4.490  10.903  0.2221  0.2821  0.0056
  426MOL0     C57408   2.732   4.371  10.922 -0.0451 -0.9625 -0.2707
  426MOL0     C57409   2.768   4.274  11.018 -0.1639  0.4443  0.0086
  426MOL0     C57410   2.882   4.300  11.097  0.1095  0.1921 -0.2586
  426MOL0     O57411   2.948   4.224  11.200 -0.5186 -0.0953 -0.1920
  426MOL0     C57412   2.955   4.081  11.174 -0.2429 -0.1348 -0.4610
  426MOL0     C57413   3.014   4.003  11.299  0.7146  0.1887  0.6099
  426MOL0     C57414   3.168   4.035  11.314  0.0625 -0.8502  0.5485
  426MOL0     C57415   3.235   3.982  11.448 -0.1937 -0.1899 -1.0640
  426MOL0     C57416   3.213   3.838  11.496 -0.0534  0.3448  0.7902
  426MOL0     C57417   3.308   3.741  11.437 -0.2750  0.7926  0.4061
  426MOL0     C57418   3.270   3.684  11.299 -0.3302  0.2531  0.1902
  426MOL0     C57419   3.391   3.602  11.231 -0.1884  0.5604  0.6510
  426MOL0    Cl57420   3.328   3.469  11.119 -0.1329  0.1533  0.3364
  426MOL0     C57421   2.928   4.427  11.089  0.2885 -0.4203 -0.7092
  426MOL0     C57422   2.896   4.518  10.990 -0.1558  0.2045 -1.1518
  426MOL0     O57423   2.942   4.688  10.783  1.3903  0.7075  0.0142
  426MOL0     C57424   2.621   4.759  10.648 -0.0051 -0.0686 -1.1483
  426MOL0     C57425   2.562   4.851  10.556 -0.1863  0.4373 -0.6447
  426MOL0     N57426   2.102   5.052  10.125  0.6017 -0.3626  1.1352
  426MOL0     N57427   1.972   5.037  10.111  0.0135  0.4519 -0.3391
  426MOL0     C57428   1.692   4.150   9.964 -0.9194 -0.3089  1.0080
  426MOL0     C57429   1.753   4.071   9.871 -0.0731 -0.8356 -0.5874
  426MOL0     C57430   1.943   3.967   9.454 -0.2573 -0.1095 -0.5339
  426MOL0     C57431   1.979   3.986   9.318  0.7347  0.3013 -0.0608
  426MOL0     C57432   2.084   3.943   9.257  0.8602  0.2909 -0.4448
  426MOL0     C57433   2.173   3.877   9.329  0.5355  0.9306  0.6045
  426MOL0     O57434   2.272   3.812   9.264 -0.0208  0.6661  0.0541
  426MOL0     C57435   2.409   3.815   9.307 -0.2947  0.1984  0.5430
  426MOL0     C57436   2.478   3.943   9.280 -0.2150  0.3560 -0.1540
  426MOL0     C57437   2.479   3.976   9.133 -0.7251 -0.2904 -0.4568
  426MOL0     C57438   2.619   3.969   9.074 -1.5788 -0.0570 -0.8190
  426MOL0     C57439   2.683   3.839   9.099 -0.3817 -0.0756 -0.3024
  426MOL0     C57440   2.729   3.730   9.128  0.6425  0.6749 -1.2527
  426MOL0     C57441   2.153   3.851   9.467 -0.8572  0.2730 -0.3542
  426MOL0     C57442   2.047   3.902   9.530  1.0836 -0.6837  0.4855
  426MOL0     H57443   1.689   4.255   9.592  3.2027  1.8809  0.6680
  426MOL0     H57444   1.591   4.406   9.779 -1.9686 -0.5928 -0.4887
  426MOL0     H57445   1.491   4.510   9.920  1.2101  0.5442  1.1265
  426MOL0     H57446   1.386   4.365   9.939  0.1195  1.6173 -0.8673
  426MOL0     H57447   1.319   4.549  10.079 -1.2680 -2.0063 -0.5805
  426MOL0     H57448   1.361   4.407  10.174  1.5014 -1.5857  0.0643
  426MOL0     H57449   1.446   4.583  10.308 -2.1650 -0.5189 -1.7810
  426MOL0     H57450   1.580   4.489  10.245  0.0679 -1.3662 -2.6041
  426MOL0     H57451   1.640   4.677  10.080  1.0200  1.2481  0.9845
  426MOL0     H57452   1.483   4.748  10.118 -0.4921 -2.6240 -0.0546
  426MOL0     H57453   1.552   4.817  10.319  0.8202 -2.6091  1.3746
  426MOL0     H57454   1.702   4.729  10.332  0.5709  4.5984  3.5777
  426MOL0     H57455   1.784   4.870  10.148 -0.8154 -1.0776  0.4393
  426MOL0     H57456   1.618   4.929  10.117  1.5967  1.5242 -0.6109
  426MOL0     H57457   1.621   5.030  10.357  1.0670 -0.2665  2.5393
  426MOL0     H57458   1.797   4.988  10.366 -0.0513 -0.4977  0.6450
  426MOL0     H57459   1.747   5.229  10.262  3.6927 -0.5157  0.9546
  426MOL0     H57460   1.702   5.138  10.119 -0.5175  2.9360 -1.2372
  426MOL0     H57461   1.971   5.274  10.321 -3.2700  0.0730 -2.9326
  426MOL0     H57462   2.267   5.330  10.194  0.0266  0.3715  0.3410
  426MOL0     H57463   2.260   5.259  10.351  0.3439  1.6919  0.0957
  426MOL0     H57464   2.388   5.135  10.102 -1.5197  1.1977  0.6738
  426MOL0     H57465   2.375   5.039  10.243  0.5248 -0.9479 -2.5209
  426MOL0     H57466   2.505   5.260  10.354  0.9856 -1.4072  1.3255
  426MOL0     H57467   2.551   5.269  10.190 -0.5848  0.9944  1.1575
  426MOL0     H57468   2.708   5.149  10.350 -1.3805  0.9139  0.8512
  426MOL0     H57469   2.669   5.057  10.203  0.9348  3.1717 -0.7247
  426MOL0     H57470   2.834   4.929  10.380  2.4098 -1.6518  0.1263
  426MOL0     H57471   3.017   4.829  10.435 -0.0975 -3.0661 -1.2988
  426MOL0     H57472   3.043   4.843  10.619 -1.9046 -1.9529  1.1629
  426MOL0     H57473   3.010   4.687  10.529  2.4889 -0.0005 -0.4510
  426MOL0     H57474   2.637   4.361  10.871  0.1197 -1.8518 -0.4166
  426MOL0     H57475   2.699   4.191  11.025  0.2229  0.1529  0.4866
  426MOL0     H57476   2.857   4.045  11.141 -2.8703  3.1781  2.8962
  426MOL0     H57477   3.021   4.074  11.087  1.2389 -0.8599  0.6738
  426MOL0     H57478   2.966   4.024  11.395 -0.3702  2.0298 -0.2834
  426MOL0     H57479   2.987   3.898  11.285 -3.8140  0.5718  4.2619
  426MOL0     H57480   3.173   4.144  11.311  1.0306 -0.9165 -1.8294
  426MOL0     H57481   3.218   3.991  11.228 -0.1128  3.8412 -2.2957
  426MOL0     H57482   3.342   4.003  11.452 -0.4319  1.0233 -0.8143
  426MOL0     H57483   3.184   4.033  11.530 -1.2094 -3.1988  0.3112
  426MOL0     H57484   3.114   3.794  11.481  1.4156 -1.8682 -4.4430
  426MOL0     H57485   3.249   3.834  11.600  4.9178  1.7773 -0.6116
  426MOL0     H57486   3.407   3.783  11.419 -0.0006 -0.1045 -0.2453
  426MOL0     H57487   3.311   3.662  11.513 -0.6140 -0.4138 -0.7916
  426MOL0     H57488   3.243   3.766  11.232  1.3227  0.4097 -0.3165
  426MOL0     H57489   3.187   3.612  11.302 -0.3485  0.2974  2.5202
  426MOL0     H57490   3.452   3.551  11.306  0.6897  0.7185  0.0493
  426MOL0     H57491   3.450   3.678  11.180  2.1777 -1.3819  0.3193
  426MOL0     H57492   2.984   4.464  11.174 -2.1488 -0.9518  1.2508
  426MOL0     H57493   2.931   4.619  11.009 -0.8786 -0.1158  2.6600
  426MOL0     H57494   2.564   4.691  10.710  2.6567 -0.2776  1.2968
  426MOL0     H57495   2.453   4.846  10.548 -0.3084 -1.6031  1.2890
  426MOL0     H57496   1.691   4.122  10.068 -1.6046  1.1893  1.4323
  426MOL0     H57497   1.803   3.980   9.903  0.2990  0.0635  1.5655
  426MOL0     H57498   1.905   4.042   9.261  1.4339 -0.7025 -2.0486
  426MOL0     H57499   2.087   3.965   9.151  0.5980  0.5095 -0.4108
  426MOL0     H57500   2.422   3.782   9.411 -3.3027 -0.1832  0.8745
  426MOL0     H57501   2.463   3.737   9.253  0.6111 -0.7580  2.6751
  426MOL0     H57502   2.578   3.930   9.324 -0.1357  3.2631  0.7605
  426MOL0     H57503   2.431   4.029   9.329  0.5675  1.3967 -1.1870
  426MOL0     H57504   2.436   4.076   9.119  3.0816  1.5983  0.2042
  426MOL0     H57505   2.421   3.897   9.084  2.2381 -4.3873  2.0684
  426MOL0     H57506   2.669   4.050   9.128 -2.2175  1.3220 -2.2019
  426MOL0     H57507   2.623   4.000   8.969 -0.9301  0.9907 -0.4978
  426MOL0     H57508   2.762   3.632   9.155  2.3277  2.0717  2.3380
  426MOL0     H57509   2.235   3.796   9.513  0.4739  2.2809 -0.2246
  426MOL0     H57510   2.028   3.885   9.635  1.9713 -1.1509  0.5784
  427MOL0     O57511   1.120   5.865   2.565 -0.0252 -0.5106 -0.2491
  427MOL0     C57512   1.236   5.835   2.573 -0.2231 -0.6372 -0.5335
  427MOL0     O57513   1.342   5.916   2.563 -0.1594 -0.2109  0.0570
  427MOL0     C57514   1.331   6.048   2.544  0.4580 -0.1882 -0.7341
  427MOL0     C57515   1.380   6.108   2.424 -0.9888 -0.0242  0.1460
  427MOL0     C57516   1.363   6.252   2.397 -0.1822  1.2357  0.2629
  427MOL0     C57517   1.278   6.325   2.489 -0.0785 -1.1975 -0.3245
  427MOL0     O57518   1.261   6.460   2.476  0.1925 -0.2824 -0.4981
  427MOL0     C57519   1.355   6.530   2.403  0.0254  0.4556  0.1033
  427MOL0     C57520   1.306   6.540   2.259  0.0381  0.4773  0.4725
  427MOL0     C57521   1.406   6.646   2.192  0.1762  0.2662 -0.4601
  427MOL0     C57522   1.456   6.589   2.063  0.7273 -0.0444 -0.1434
  427MOL0     C57523   1.554   6.687   1.994  0.0216 -0.0753  0.9429
  427MOL0     C57524   1.601   6.638   1.859 -0.2567  0.1712 -0.0366
  427MOL0     C57525   1.734   6.556   1.883  0.1136  0.4017 -0.6645
  427MOL0     C57526   1.783   6.516   1.745 -0.9383  0.0319 -0.0479
  427MOL0     N57527   1.906   6.428   1.752 -0.7792 -1.2020 -0.3634
  427MOL0     C57528   2.036   6.460   1.713  0.6644 -0.1379  0.3956
  427MOL0     C57529   2.109   6.351   1.732  0.1647 -0.1702  0.0965
  427MOL0     C57530   2.262   6.324   1.715  0.5547  0.2883 -0.2051
  427MOL0     C57531   2.317   6.267   1.591  0.8465 -0.1125  0.5814
  427MOL0     C57532   2.287   6.118   1.572 -0.3288  0.2558 -0.6377
  427MOL0     C57533   2.378   6.047   1.483 -0.8488 -0.0448 -0.5608
  427MOL0     O57534   2.314   5.931   1.441 -0.6807  0.2292  0.1173
  427MOL0     C57535   2.356   5.809   1.496 -0.4328  0.5273 -0.2509
  427MOL0     C57536   2.443   5.795   1.605 -0.4848  0.9171  1.2807
  427MOL0     C57537   2.492   5.672   1.644 -0.2165  0.8423  0.4184
  427MOL0     C57538   2.599   5.665   1.757  0.0282 -0.1896  0.5639
  427MOL0     C57539   2.449   5.546   1.585  0.6761  0.2147  0.0682
  427MOL0     C57540   2.473   5.399   1.626 -0.5344 -0.8473  0.6612
  427MOL0     O57541   2.430   5.305   1.533  0.0714 -1.0748 -0.4700
  427MOL0     C57542   2.489   5.176   1.530 -0.0476 -0.0227  0.7168
  427MOL0     C57543   2.415   5.053   1.516  1.0611 -0.1695 -0.3926
  427MOL0     C57544   2.478   4.929   1.500 -0.1012 -0.7568 -0.4448
  427MOL0     C57545   2.609   4.921   1.527 -0.3485 -0.4375 -0.1965
  427MOL0     O57546   2.651   4.790   1.515  0.5806  0.3483  0.2033
  427MOL0     C57547   2.777   4.762   1.574  0.1818  0.5144  0.7026
  427MOL0     C57548   2.807   4.611   1.558  0.2919 -0.1240  0.4610
  427MOL0     C57549   2.909   4.577   1.455  0.1572 -0.9923  0.1023
  427MOL0     C57550   2.921   4.431   1.441 -0.8954  1.0516 -0.3787
  427MOL0     C57551   3.016   4.392   1.323 -0.5341  0.2294  0.3866
  427MOL0     C57552   3.031   4.244   1.289 -0.0424 -0.1086 -0.1291
  427MOL0     C57553   3.114   4.208   1.168  0.3219 -0.2247 -0.2884
  427MOL0     C57554   3.192   4.069   1.165 -0.0748 -0.2763 -0.7389
  427MOL0    Cl57555   3.072   3.952   1.212 -0.4403 -0.2934  0.5724
  427MOL0     C57556   2.687   5.033   1.555  0.0348 -0.1693 -0.1486
  427MOL0     C57557   2.630   5.165   1.540  0.4383  0.6746 -0.1024
  427MOL0     O57558   2.529   5.373   1.729  0.2123 -0.3003 -0.5284
  427MOL0     C57559   2.363   5.571   1.467 -0.1044  0.7265 -0.7828
  427MOL0     C57560   2.317   5.690   1.427 -0.7423  0.1450 -0.3840
  427MOL0     N57561   2.026   6.256   1.780  0.2023 -0.3565  0.1785
  427MOL0     N57562   1.906   6.298   1.784 -0.4264 -0.4148 -0.1337
  427MOL0     C57563   1.219   6.258   2.599 -0.1103 -0.1161  0.6627
  427MOL0     C57564   1.245   6.124   2.627 -0.2344  0.9015 -0.1290
  427MOL0     C57565   1.273   5.702   2.616 -0.2247  0.0168 -0.2472
  427MOL0     C57566   1.187   5.614   2.689 -0.1510  0.2994 -0.0227
  427MOL0     C57567   1.224   5.474   2.714  0.4590  0.4922 -0.7447
  427MOL0     C57568   1.348   5.427   2.679  0.0876 -0.4529 -0.0450
  427MOL0     O57569   1.370   5.298   2.701 -0.6381 -0.0037 -0.2190
  427MOL0     C57570   1.439   5.288   2.824 -0.8717  0.9185 -0.1824
  427MOL0     C57571   1.496   5.144   2.847  0.1563  0.1554  0.3493
  427MOL0     C57572   1.567   5.093   2.723  0.4345 -0.8513  0.1810
  427MOL0     C57573   1.634   4.960   2.746 -0.0326  0.7590 -0.6376
  427MOL0     C57574   1.749   4.970   2.843  0.5528  0.2917  0.1707
  427MOL0     C57575   1.849   4.998   2.901  0.4459 -0.5868 -0.7338
  427MOL0     C57576   1.434   5.506   2.606  0.1908 -0.8946  0.1557
  427MOL0     C57577   1.398   5.641   2.583 -1.1998 -0.4165  0.0802
  427MOL0     H57578   1.439   6.054   2.351 -0.5313  2.8051 -1.7528
  427MOL0     H57579   1.426   6.284   2.314  0.8094 -1.4898 -0.1201
  427MOL0     H57580   1.347   6.632   2.442 -0.7306  1.0634 -1.5231
  427MOL0     H57581   1.458   6.494   2.402  1.0653  3.1187 -2.2800
  427MOL0     H57582   1.309   6.446   2.204  1.9116  1.6090 -1.5347
  427MOL0     H57583   1.201   6.570   2.258 -0.2839 -0.5861 -1.1710
  427MOL0     H57584   1.351   6.740   2.181  1.3896  1.0283 -0.1220
  427MOL0     H57585   1.488   6.661   2.263 -0.5783 -0.0456  0.4956
  427MOL0     H57586   1.510   6.495   2.077  3.1175  1.2696  0.0162
  427MOL0     H57587   1.374   6.579   1.991  0.5162  3.7759 -0.6585
  427MOL0     H57588   1.492   6.777   1.980 -3.6429 -2.4398  0.6906
  427MOL0     H57589   1.637   6.710   2.061  1.4238 -1.0497 -0.3702
  427MOL0     H57590   1.516   6.590   1.809  0.0003  1.3302 -1.6809
  427MOL0     H57591   1.626   6.720   1.791 -0.5004 -1.4341 -2.2041
  427MOL0     H57592   1.803   6.612   1.947 -2.3687  0.8941  1.7919
  427MOL0     H57593   1.717   6.470   1.948  0.3919  0.4476 -0.5295
  427MOL0     H57594   1.802   6.614   1.701 -2.8402  0.8475  0.8172
  427MOL0     H57595   1.695   6.472   1.697 -2.7296  0.5349  2.5190
  427MOL0     H57596   2.062   6.550   1.659  4.6330 -0.7558  0.9234
  427MOL0     H57597   2.307   6.424   1.717  1.0605  0.0656 -0.2693
  427MOL0     H57598   2.304   6.261   1.795 -1.1476  0.6874  1.0672
  427MOL0     H57599   2.421   6.298   1.603  0.3340  1.8897  0.3897
  427MOL0     H57600   2.285   6.319   1.500  0.8920  1.0141  1.1845
  427MOL0     H57601   2.183   6.114   1.538 -1.3669  0.6152  2.2391
  427MOL0     H57602   2.296   6.068   1.669  0.7738  4.1887  1.4690
  427MOL0     H57603   2.480   6.030   1.520  0.8934  1.8994 -3.9596
  427MOL0     H57604   2.408   6.113   1.401  0.2626  0.4384  0.2120
  427MOL0     H57605   2.483   5.878   1.663  2.4403 -0.2076  1.0161
  427MOL0     H57606   2.662   5.754   1.749 -1.2655  0.6523 -1.0259
  427MOL0     H57607   2.554   5.671   1.856  1.9731 -2.7743  1.6925
  427MOL0     H57608   2.663   5.576   1.757 -1.1657 -1.2244  4.2860
  427MOL0     H57609   2.306   5.050   1.511  1.0245  0.1501  0.1267
  427MOL0     H57610   2.418   4.840   1.483 -0.8542 -0.4101  0.3059
  427MOL0     H57611   2.850   4.826   1.524  0.5717  0.5283  1.2684
  427MOL0     H57612   2.772   4.773   1.683 -2.7058  1.4610  0.5434
  427MOL0     H57613   2.848   4.583   1.656 -1.3898  0.2312  1.2992
  427MOL0     H57614   2.717   4.555   1.531  0.3880  0.7931 -2.0469
  427MOL0     H57615   3.009   4.608   1.487 -0.2175 -0.5238  0.8483
  427MOL0     H57616   2.877   4.612   1.356 -1.1034 -3.2167 -0.3599
  427MOL0     H57617   2.958   4.384   1.533 -1.2890 -4.1373 -2.4888
  427MOL0     H57618   2.821   4.397   1.412 -0.7013 -0.2192  0.3525
  427MOL0     H57619   3.113   4.437   1.348 -0.6354 -0.4563  2.1954
  427MOL0     H57620   2.979   4.441   1.233 -1.3449  0.0374  0.6058
  427MOL0     H57621   3.074   4.206   1.382  4.0873 -1.2574 -2.2933
  427MOL0     H57622   2.929   4.208   1.272 -0.3992  0.6168  0.4088
  427MOL0     H57623   3.183   4.286   1.132 -0.0519 -0.3327 -1.2861
  427MOL0     H57624   3.044   4.190   1.086  1.4673 -1.9869 -0.9319
  427MOL0     H57625   3.274   4.054   1.236  2.7385  2.0014 -3.2300
  427MOL0     H57626   3.227   4.045   1.064  0.6531  0.3992 -0.6541
  427MOL0     H57627   2.793   5.011   1.560 -0.3597 -3.4579 -2.5608
  427MOL0     H57628   2.689   5.256   1.545 -2.0665  2.3597  0.5097
  427MOL0     H57629   2.331   5.477   1.423 -2.5728 -0.1567  2.5479
  427MOL0     H57630   2.255   5.701   1.338 -0.9629  1.0591 -0.1266
  427MOL0     H57631   1.158   6.308   2.674  1.4277 -2.2924  3.5763
  427MOL0     H57632   1.181   6.095   2.710 -1.9024 -0.0051 -1.6699
  427MOL0     H57633   1.082   5.638   2.704 -0.6347 -1.4710 -0.3878
  427MOL0     H57634   1.149   5.403   2.749 -0.4580  0.0140 -3.4720
  427MOL0     H57635   1.521   5.359   2.837 -0.0368 -0.0708  0.1029
  427MOL0     H57636   1.372   5.314   2.906  0.2784  2.7431  0.2529
  427MOL0     H57637   1.405   5.088   2.870  1.3166 -0.1587  5.3899
  427MOL0     H57638   1.572   5.141   2.926 -1.5007 -2.5517  2.0103
  427MOL0     H57639   1.626   5.169   2.671 -1.0371  0.3820  0.2378
  427MOL0     H57640   1.492   5.075   2.646  0.4268 -0.2172  0.0350
  427MOL0     H57641   1.687   4.943   2.652  0.7021  1.4725 -0.3648
  427MOL0     H57642   1.565   4.879   2.771 -1.1222  2.1095  0.9358
  427MOL0     H57643   1.945   5.011   2.947  0.1407  1.4411 -0.5755
  427MOL0     H57644   1.533   5.469   2.579  1.6989  1.7540  1.5451
  427MOL0     H57645   1.469   5.704   2.529 -1.2410 -0.7307 -0.3415
  428MOL0     O57646   3.573   1.889   2.629  0.0211 -0.5025  0.1561
  428MOL0     C57647   3.583   1.840   2.517  0.1331  0.7312 -0.6051
  428MOL0     O57648   3.536   1.721   2.475  0.5625  0.9284 -0.4956
  428MOL0     C57649   3.466   1.629   2.555 -0.4015  0.3111  0.0544
  428MOL0     C57650   3.475   1.621   2.697 -0.0203 -0.3157  0.0163
  428MOL0     C57651   3.401   1.529   2.764 -0.8587 -0.8396 -0.7232
  428MOL0     C57652   3.310   1.439   2.699 -0.4045 -0.4630  0.0764
  428MOL0     O57653   3.236   1.352   2.773  0.0091  0.6759 -0.3330
  428MOL0     C57654   3.307   1.236   2.815  0.4261  0.0499  0.6361
  428MOL0     C57655   3.228   1.140   2.902  0.3887  0.1984 -0.3111
  428MOL0     C57656   3.308   1.005   2.926  1.3894 -1.5368  0.3075
  428MOL0     C57657   3.219   0.915   3.002  0.2883  0.1557 -0.6344
  428MOL0     C57658   3.291   0.782   3.054 -0.6298 -0.1016 -1.2347
  428MOL0     C57659   3.208   0.659   3.090  1.0568  0.2524  0.1893
  428MOL0     C57660   3.308   0.539   3.124  0.1967  0.9438 -0.1901
  428MOL0     C57661   3.253   0.399   3.112 -0.2878 -0.2180  0.1439
  428MOL0     N57662   3.359   0.305   3.133  0.0482  1.9055 -0.0969
  428MOL0     C57663   3.403   0.254   3.246 -0.0786 -0.0215 -0.2115
  428MOL0     C57664   3.513   0.180   3.223 -0.7438 -0.0708 -0.0956
  428MOL0     C57665   3.600   0.125   3.328 -0.0367 -0.8391  0.2458
  428MOL0     C57666   3.541   0.003   3.393  0.4937 -0.5760 -0.7834
  428MOL0     C57667   3.422   0.029   3.498  0.1686 -0.0699  0.6858
  428MOL0     C57668   3.345  -0.104   3.533 -1.1510 -1.0608  0.3546
  428MOL0     O57669   3.430  -0.199   3.602  0.1865 -0.1702  0.0260
  428MOL0     C57670   3.379  -0.315   3.651 -0.1734  0.4065  0.6262
  428MOL0     C57671   3.264  -0.374   3.590  0.8216 -0.7489 -0.9166
  428MOL0     C57672   3.194  -0.480   3.643  0.0835  0.3126 -0.6106
  428MOL0     C57673   3.081  -0.539   3.557  0.7816 -0.8499 -0.0383
  428MOL0     C57674   3.235  -0.529   3.770 -0.8034 -0.0980 -1.1330
  428MOL0     C57675   3.154  -0.632   3.841  0.3340  0.0081 -0.0189
  428MOL0     O57676   3.017  -0.603   3.858 -0.6562  0.3828  0.0191
  428MOL0     C57677   2.924  -0.703   3.885  0.1617  0.0506 -0.2168
  428MOL0     C57678   2.928  -0.827   3.816 -0.5542 -0.2881 -0.6279
  428MOL0     C57679   2.833  -0.926   3.839 -1.1266 -0.5566 -0.8391
  428MOL0     C57680   2.728  -0.897   3.930 -0.2777 -0.6007  0.2898
  428MOL0     O57681   2.639  -0.995   3.956  1.1475 -0.0908  0.2196
  428MOL0     C57682   2.514  -0.957   4.022  0.1915 -0.4124  0.8529
  428MOL0     C57683   2.431  -1.069   4.076 -0.1495  0.0062  0.8214
  428MOL0     C57684   2.378  -1.156   3.966  0.2480 -0.5655  0.0270
  428MOL0     C57685   2.298  -1.264   4.043 -0.6312  0.2197  0.3253
  428MOL0     C57686   2.193  -1.326   3.955 -0.3913 -0.2197  0.4161
  428MOL0     C57687   2.114  -1.433   4.043 -0.2921  1.2435 -0.1865
  428MOL0     C57688   2.030  -1.516   3.943 -0.1728  1.5052 -0.2243
  428MOL0     C57689   2.094  -1.636   3.861 -0.0134 -0.7575 -0.1504
  428MOL0    Cl57690   2.140  -1.582   3.695 -0.0896 -0.0408 -0.2104
  428MOL0     C57691   2.724  -0.771   3.996 -0.2858  0.0640  0.8984
  428MOL0     C57692   2.825  -0.680   3.982  0.0908 -0.2008  1.6694
  428MOL0     O57693   3.209  -0.740   3.878  1.2239 -0.1783 -0.2098
  428MOL0     C57694   3.348  -0.471   3.830  0.5254 -0.3088 -0.8860
  428MOL0     C57695   3.421  -0.369   3.771 -0.1360  0.8989 -0.9971
  428MOL0     N57696   3.540   0.184   3.080  0.4790 -0.2062  0.0482
  428MOL0     N57697   3.449   0.264   3.034 -0.5600 -0.1484  0.2738
  428MOL0     C57698   3.307   1.437   2.559  0.7474  0.3467 -0.3372
  428MOL0     C57699   3.389   1.531   2.487  0.0857 -0.2768  0.1154
  428MOL0     C57700   3.663   1.915   2.419  1.1073  0.3139 -0.3625
  428MOL0     C57701   3.724   2.036   2.447  0.2710 -1.0283  0.0762
  428MOL0     C57702   3.804   2.109   2.358  0.0463 -0.3102  0.7229
  428MOL0     C57703   3.828   2.066   2.225  0.6642 -0.1530  0.3983
  428MOL0     O57704   3.902   2.132   2.127  0.0477  0.9411  0.2776
  428MOL0     C57705   3.999   2.226   2.166  0.1341  0.3188 -0.7302
  428MOL0     C57706   4.032   2.326   2.047 -0.0349  1.7886  0.6277
  428MOL0     C57707   4.070   2.254   1.915 -0.6140  0.2414  0.0513
  428MOL0     C57708   4.178   2.150   1.933  0.0833  0.7674  1.2857
  428MOL0     C57709   4.303   2.205   1.989  0.0141  0.9224  0.1621
  428MOL0     C57710   4.414   2.249   2.023  0.7489 -0.7086  0.1870
  428MOL0     C57711   3.756   1.946   2.193  0.0445  0.0691 -0.2643
  428MOL0     C57712   3.689   1.877   2.292 -0.6777 -0.2861 -0.8652
  428MOL0     H57713   3.536   1.686   2.758 -0.6889 -0.9854  1.4394
  428MOL0     H57714   3.406   1.534   2.873  0.6784  0.7825 -0.8227
  428MOL0     H57715   3.336   1.182   2.724 -0.6797  2.4254 -1.2272
  428MOL0     H57716   3.395   1.258   2.877  1.4239 -0.0137 -0.7176
  428MOL0     H57717   3.231   1.180   3.003  0.6911  1.1929 -0.7062
  428MOL0     H57718   3.137   1.105   2.852  1.3297 -5.3651  1.1680
  428MOL0     H57719   3.306   0.948   2.833 -2.3162 -1.3167  0.0946
  428MOL0     H57720   3.408   1.029   2.962  0.6310 -0.5277  1.8368
  428MOL0     H57721   3.180   0.969   3.089 -1.5366 -0.6788 -0.8883
  428MOL0     H57722   3.137   0.884   2.937  0.4925 -0.0632 -0.7867
  428MOL0     H57723   3.358   0.754   2.972  0.7231  2.0795 -0.9351
  428MOL0     H57724   3.355   0.800   3.141 -2.5159  0.3000  0.1386
  428MOL0     H57725   3.160   0.679   3.186  5.2475  0.0188  2.5681
  428MOL0     H57726   3.142   0.630   3.007  0.8205  0.7505  0.1975
  428MOL0     H57727   3.403   0.542   3.070  1.1651  1.8693  1.4536
  428MOL0     H57728   3.333   0.554   3.230 -0.0151 -1.1870  0.2085
  428MOL0     H57729   3.212   0.398   3.010  1.2041 -1.7289 -0.5007
  428MOL0     H57730   3.173   0.367   3.179  0.2256 -2.6550 -0.3004
  428MOL0     H57731   3.352   0.261   3.342  1.8091 -2.1500  1.0482
  428MOL0     H57732   3.697   0.099   3.286  0.0158  1.1038 -0.9830
  428MOL0     H57733   3.605   0.207   3.400  2.0001  0.5049 -1.3183
  428MOL0     H57734   3.616  -0.062   3.439  0.6207  2.3830  3.8522
  428MOL0     H57735   3.478  -0.047   3.319 -0.8251  0.4305 -0.3712
  428MOL0     H57736   3.341   0.085   3.450 -2.5608 -2.7182  1.8660
  428MOL0     H57737   3.460   0.083   3.586  0.2597 -1.4967  1.5612
  428MOL0     H57738   3.308  -0.149   3.441  2.8224 -1.5395 -1.2275
  428MOL0     H57739   3.259  -0.081   3.596  0.3625  1.5993  1.6141
  428MOL0     H57740   3.228  -0.347   3.491  0.1782 -1.6021 -0.9254
  428MOL0     H57741   2.979  -0.516   3.589  0.3524 -2.1210 -0.4344
  428MOL0     H57742   3.097  -0.512   3.452  1.6472 -0.0605  0.2847
  428MOL0     H57743   3.075  -0.647   3.570  1.2180 -0.7319  1.1877
  428MOL0     H57744   3.010  -0.855   3.750 -0.0730  0.1534 -0.2192
  428MOL0     H57745   2.841  -1.027   3.800 -0.8393 -0.9988  0.3264
  428MOL0     H57746   2.524  -0.895   4.112 -1.7533  2.3246 -0.6547
  428MOL0     H57747   2.462  -0.888   3.954  0.1715  0.4216  1.6840
  428MOL0     H57748   2.488  -1.131   4.145  0.5089 -2.8329 -2.0335
  428MOL0     H57749   2.350  -1.027   4.137  0.9577 -1.3682  3.3925
  428MOL0     H57750   2.460  -1.214   3.923  0.6728 -0.5706  0.8127
  428MOL0     H57751   2.318  -1.098   3.896 -1.8517 -2.3702  0.1999
  428MOL0     H57752   2.369  -1.333   4.089 -1.1751 -0.1774  0.5685
  428MOL0     H57753   2.236  -1.222   4.123 -0.9314 -0.3817  0.4100
  428MOL0     H57754   2.240  -1.377   3.870 -0.3552 -0.7547  0.7533
  428MOL0     H57755   2.114  -1.261   3.918 -1.2298 -0.1942  2.1240
  428MOL0     H57756   2.190  -1.491   4.095 -1.4593 -0.9042 -0.7452
  428MOL0     H57757   2.049  -1.382   4.115 -3.5483 -1.2045 -1.1262
  428MOL0     H57758   1.974  -1.453   3.873  1.9523  0.3221 -3.1892
  428MOL0     H57759   1.949  -1.562   4.000 -0.9448  0.7288 -1.8641
  428MOL0     H57760   2.022  -1.718   3.863  2.1276 -2.7141 -0.1409
  428MOL0     H57761   2.184  -1.673   3.912 -1.5377 -2.3173  1.5684
  428MOL0     H57762   2.648  -0.746   4.070  0.2157 -0.2448  1.5315
  428MOL0     H57763   2.821  -0.577   4.015  0.3177  0.7755 -1.0892
  428MOL0     H57764   3.372  -0.508   3.930  1.0287  0.4603 -0.7193
  428MOL0     H57765   3.506  -0.329   3.826  1.7855 -3.4001 -0.4484
  428MOL0     H57766   3.244   1.359   2.516  0.9071 -1.2598  2.1302
  428MOL0     H57767   3.391   1.548   2.380 -2.3547  1.4855  0.2646
  428MOL0     H57768   3.705   2.068   2.549 -5.0181 -1.4651 -0.4955
  428MOL0     H57769   3.841   2.206   2.390 -2.8228  1.5015 -1.0073
  428MOL0     H57770   3.978   2.288   2.253 -0.5158  0.5104 -1.0154
  428MOL0     H57771   4.082   2.159   2.188 -2.3689 -3.2942 -1.2899
  428MOL0     H57772   4.101   2.398   2.090  1.5688  1.1862 -0.8392
  428MOL0     H57773   3.944   2.386   2.021 -1.0314 -0.4158 -1.4681
  428MOL0     H57774   4.112   2.330   1.848  1.1644 -2.5980 -2.3101
  428MOL0     H57775   3.985   2.199   1.872 -0.1171  0.6446 -1.5081
  428MOL0     H57776   4.210   2.099   1.842 -2.0339 -0.1828  1.0045
  428MOL0     H57777   4.142   2.064   1.990  3.0382 -2.3950 -1.1926
  428MOL0     H57778   4.515   2.274   2.051  0.4557  0.0908  0.5691
  428MOL0     H57779   3.763   1.894   2.098 -0.5424  2.4511 -1.6946
  428MOL0     H57780   3.657   1.779   2.259 -2.8151 -0.9923  2.7104
  429MOL0     O57781   4.734   9.544   9.287 -0.8184  0.5099  0.5525
  429MOL0     C57782   4.766   9.632   9.211  0.8482  0.2934 -0.0488
  429MOL0     O57783   4.867   9.628   9.121 -0.3166  0.1609  0.2264
  429MOL0     C57784   4.963   9.525   9.123 -0.4998 -0.4540  1.4106
  429MOL0     C57785   4.999   9.434   9.217  0.5847 -1.1926  0.9953
  429MOL0     C57786   5.101   9.337   9.204  0.2373  0.4860  0.4067
  429MOL0     C57787   5.185   9.328   9.094 -0.2786  0.4473  1.4225
  429MOL0     O57788   5.285   9.231   9.083  0.5763 -0.6155 -0.1678
  429MOL0     C57789   5.412   9.279   9.046  0.6983  0.6904 -0.3855
  429MOL0     C57790   5.486   9.160   8.985 -0.5065 -0.2920 -0.0208
  429MOL0     C57791   5.596   9.219   8.886 -0.6408  0.3292 -0.0119
  429MOL0     C57792   5.713   9.120   8.860 -1.3320 -0.6659 -0.1767
  429MOL0     C57793   5.848   9.189   8.854 -0.0483 -0.6374 -0.4812
  429MOL0     C57794   5.957   9.093   8.904  0.1858 -0.0393 -0.4721
  429MOL0     C57795   6.091   9.159   8.889 -0.7759 -0.1593 -1.1119
  429MOL0     C57796   6.180   9.102   8.999 -0.2094 -0.4771  0.6632
  429MOL0     N57797   6.244   8.986   8.945  0.0813 -0.2102  0.3971
  429MOL0     C57798   6.191   8.868   8.896 -0.7416 -0.2964 -0.4944
  429MOL0     C57799   6.301   8.800   8.860 -0.7370  0.0543  0.3937
  429MOL0     C57800   6.292   8.653   8.817 -0.2606  0.5231 -0.9981
  429MOL0     C57801   6.351   8.566   8.928 -0.0147  1.0675  1.2988
  429MOL0     C57802   6.268   8.548   9.049  0.4791  0.3435 -1.7500
  429MOL0     C57803   6.341   8.458   9.156 -0.1380 -0.1926  0.1880
  429MOL0     O57804   6.334   8.323   9.110  0.3751  0.0412 -0.4259
  429MOL0     C57805   6.298   8.236   9.215 -0.0479  0.1623  0.8843
  429MOL0     C57806   6.181   8.228   9.294 -0.4558  0.0270  0.1116
  429MOL0     C57807   6.167   8.134   9.401  0.5721 -0.6313  0.8279
  429MOL0     C57808   6.043   8.155   9.493 -0.4527 -0.5125 -1.2654
  429MOL0     C57809   6.263   8.035   9.420 -0.7928  0.2596  0.0427
  429MOL0     C57810   6.252   7.915   9.500  0.6792 -0.9099  0.3181
  429MOL0     O57811   6.366   7.845   9.530 -0.3117 -0.8521 -0.5394
  429MOL0     C57812   6.345   7.717   9.582  0.2203 -0.4877 -0.0680
  429MOL0     C57813   6.391   7.684   9.714 -0.2277 -0.2747  0.0628
  429MOL0     C57814   6.376   7.561   9.766 -0.6885  0.3489 -0.4962
  429MOL0     C57815   6.305   7.463   9.701 -0.0370 -0.4409  1.6393
  429MOL0     O57816   6.284   7.340   9.770 -0.2292  0.3239  1.1624
  429MOL0     C57817   6.333   7.219   9.710  1.1362  0.4061  0.6143
  429MOL0     C57818   6.350   7.092   9.796  0.3530 -0.4374 -0.0993
  429MOL0     C57819   6.218   7.022   9.826 -0.2668  0.2277  0.0090
  429MOL0     C57820   6.156   6.926   9.712  0.2615 -0.0560 -1.0529
  429MOL0     C57821   6.219   6.787   9.697 -0.5964 -1.3080  0.3437
  429MOL0     C57822   6.155   6.677   9.783  0.0475  1.3596 -0.2625
  429MOL0     C57823   6.225   6.543   9.763  0.2946  0.0485  0.7889
  429MOL0     C57824   6.134   6.436   9.805  1.0003  0.4715  0.5942
  429MOL0    Cl57825   6.186   6.379   9.966 -0.2154 -0.7024 -0.4421
  429MOL0     C57826   6.252   7.494   9.566 -0.4709  0.0531  0.3555
  429MOL0     C57827   6.274   7.621   9.508 -0.1709 -0.1044  0.9348
  429MOL0     O57828   6.135   7.880   9.507  0.0029 -0.0776 -0.6462
  429MOL0     C57829   6.390   8.050   9.348 -1.5364 -0.7165 -0.7008
  429MOL0     C57830   6.407   8.154   9.250  0.8645  0.6928  0.6376
  429MOL0     N57831   6.418   8.875   8.874 -0.3897 -0.8826  0.3029
  429MOL0     N57832   6.381   8.991   8.926  0.0278  0.3461 -0.6163
  429MOL0     C57833   5.151   9.420   8.993 -0.1436 -0.2492 -0.4609
  429MOL0     C57834   5.047   9.518   9.004 -0.5884  0.7956  0.4356
  429MOL0     C57835   4.688   9.767   9.207 -0.3686  1.1754 -0.1392
  429MOL0     C57836   4.755   9.887   9.180 -0.5567  0.8620  0.1310
  429MOL0     C57837   4.701  10.012   9.199  0.2202 -0.6979 -0.6904
  429MOL0     C57838   4.566  10.013   9.226  0.5829  0.4880 -0.8864
  429MOL0     O57839   4.509  10.136   9.250  1.5558 -1.1608 -0.1480
  429MOL0     C57840   4.378  10.149   9.318  0.2532  1.2899  0.1114
  429MOL0     C57841   4.383  10.099   9.464 -0.3967 -0.0037 -0.6862
  429MOL0     C57842   4.509  10.149   9.545  0.4475 -0.1359 -0.1954
  429MOL0     C57843   4.480  10.167   9.704  0.4794  0.8707 -0.1848
  429MOL0     C57844   4.407  10.281   9.748  0.4688 -0.2965 -0.2288
  429MOL0     C57845   4.347  10.379   9.779  0.2520  0.4124 -0.3331
  429MOL0     C57846   4.491   9.899   9.218  0.4531  0.0236  0.1551
  429MOL0     C57847   4.551   9.770   9.218  0.8373 -0.7436  0.2400
  429MOL0     H57848   4.943   9.444   9.309  0.0858 -0.6724  0.6431
  429MOL0     H57849   5.112   9.256   9.274  2.0834 -1.8602 -2.3547
  429MOL0     H57850   5.405   9.361   8.974  1.4821 -2.2512 -4.1662
  429MOL0     H57851   5.465   9.302   9.138 -0.0590 -2.6183  1.0426
  429MOL0     H57852   5.536   9.104   9.065  1.6662  1.6766  0.1294
  429MOL0     H57853   5.424   9.102   8.917  0.9382 -1.8861 -0.0533
  429MOL0     H57854   5.550   9.236   8.788 -1.3847  0.4839  0.3624
  429MOL0     H57855   5.640   9.310   8.926 -3.5414  2.0328 -0.4149
  429MOL0     H57856   5.703   9.043   8.938 -0.6380 -0.4563  0.1289
  429MOL0     H57857   5.716   9.077   8.760  1.9129  1.2436 -1.0346
  429MOL0     H57858   5.875   9.215   8.751 -0.8645 -0.8420 -0.7499
  429MOL0     H57859   5.845   9.285   8.905  2.8785  0.0194 -1.3618
  429MOL0     H57860   5.928   9.046   8.999 -2.7901  3.9717  0.8755
  429MOL0     H57861   5.952   9.004   8.841 -2.5374 -1.1780  1.1742
  429MOL0     H57862   6.144   9.155   8.793  3.9634  0.8199  1.1321
  429MOL0     H57863   6.079   9.264   8.918 -1.9632 -0.8193  0.9660
  429MOL0     H57864   6.115   9.067   9.080 -1.2036 -0.3277 -0.0498
  429MOL0     H57865   6.253   9.176   9.034 -1.1054  0.4044  0.7033
  429MOL0     H57866   6.093   8.824   8.910 -0.5553 -0.8035 -0.7670
  429MOL0     H57867   6.194   8.617   8.784  0.3610 -1.8967 -0.4406
  429MOL0     H57868   6.355   8.644   8.728  1.5266 -1.1339  0.3578
  429MOL0     H57869   6.450   8.606   8.951 -0.5383  4.4592 -1.4921
  429MOL0     H57870   6.355   8.467   8.881 -1.1592  0.8065  1.7162
  429MOL0     H57871   6.169   8.501   9.036  0.1441 -0.2046  1.7517
  429MOL0     H57872   6.240   8.649   9.080  0.4508  0.8324 -3.3081
  429MOL0     H57873   6.289   8.469   9.252 -0.1618 -0.6272  0.2290
  429MOL0     H57874   6.443   8.497   9.162  0.1475 -0.6101 -1.5238
  429MOL0     H57875   6.089   8.281   9.270  1.1910  3.0998  0.1485
  429MOL0     H57876   5.978   8.225   9.440 -0.9292  0.6741  0.7817
  429MOL0     H57877   5.982   8.064   9.498  0.2034 -1.0193 -2.2108
  429MOL0     H57878   6.066   8.192   9.593  1.3208 -2.1994 -0.9759
  429MOL0     H57879   6.446   7.756   9.775  0.3626 -0.0401 -0.7275
  429MOL0     H57880   6.417   7.536   9.863 -0.3124  0.0074 -0.7352
  429MOL0     H57881   6.273   7.195   9.622  1.8220  0.2264  0.1831
  429MOL0     H57882   6.435   7.224   9.670  1.0728 -3.7976 -0.5517
  429MOL0     H57883   6.404   7.011   9.746 -1.0942 -0.3964 -1.8241
  429MOL0     H57884   6.401   7.115   9.890 -0.4743 -2.8616  1.0161
  429MOL0     H57885   6.141   7.098   9.843  1.9184  2.0009  2.8519
  429MOL0     H57886   6.230   6.970   9.921 -0.3341 -1.5230 -0.8981
  429MOL0     H57887   6.049   6.914   9.734  0.8869  1.7223  4.3641
  429MOL0     H57888   6.186   6.978   9.620  2.1159 -0.8087 -0.9177
  429MOL0     H57889   6.324   6.785   9.729 -0.9656  0.3388  1.8005
  429MOL0     H57890   6.203   6.761   9.592 -0.0571  0.6560 -0.2530
  429MOL0     H57891   6.150   6.704   9.888 -2.2593 -0.4836  0.1849
  429MOL0     H57892   6.055   6.662   9.741  0.9200 -1.4022 -1.5794
  429MOL0     H57893   6.322   6.544   9.815 -0.7085  1.3535  2.7500
  429MOL0     H57894   6.243   6.529   9.656 -2.1128 -1.1125  0.4620
  429MOL0     H57895   6.144   6.351   9.737  4.6878  0.1289  1.3222
  429MOL0     H57896   6.028   6.461   9.804  1.1688  1.1844 -0.3784
  429MOL0     H57897   6.201   7.409   9.522 -0.9101 -1.8729  4.1283
  429MOL0     H57898   6.230   7.647   9.412 -1.1472 -0.6382  1.2248
  429MOL0     H57899   6.477   7.997   9.384 -0.2537  3.1930  2.7810
  429MOL0     H57900   6.511   8.166   9.222 -0.2590  2.6897 -3.4617
  429MOL0     H57901   5.213   9.425   8.904 -0.2307 -4.1780 -0.9294
  429MOL0     H57902   5.034   9.593   8.927 -1.6888  1.0271  0.8352
  429MOL0     H57903   4.863   9.888   9.172 -0.5874  0.3250 -0.3688
  429MOL0     H57904   4.749  10.110   9.202  0.1867 -0.7008  0.0171
  429MOL0     H57905   4.343  10.252   9.306 -4.0470  0.7602  4.9930
  429MOL0     H57906   4.307  10.091   9.258  1.3068  0.0128  0.0573
  429MOL0     H57907   4.378   9.990   9.469  0.6258 -0.0581  4.7347
  429MOL0     H57908   4.296  10.136   9.518  0.4978 -0.4007  1.1051
  429MOL0     H57909   4.561  10.237   9.506 -0.2962 -0.6597 -2.5418
  429MOL0     H57910   4.576  10.063   9.545 -0.0356 -0.5405 -1.3194
  429MOL0     H57911   4.582  10.173   9.743  1.8043 -1.1426 -2.9905
  429MOL0     H57912   4.426  10.077   9.732 -0.5562  1.4392 -0.2984
  429MOL0     H57913   4.302  10.463   9.829 -1.7029 -1.6962  1.7207
  429MOL0     H57914   4.383   9.901   9.235  0.4930  0.5522  0.3484
  429MOL0     H57915   4.492   9.680   9.235 -1.0531  0.2308 -0.8509
  430MOL0     O57916  10.467   3.347   0.887  0.0379  0.7920  0.3377
  430MOL0     C57917  10.393   3.247   0.904 -0.0951 -0.2140  0.5158
  430MOL0     O57918  10.430   3.127   0.965 -0.0763 -0.2057 -0.0428
  430MOL0     C57919  10.560   3.113   1.012 -0.2623 -0.3506  0.2251
  430MOL0     C57920  10.569   3.071   1.148 -0.1232  0.2918  0.0182
  430MOL0     C57921  10.694   3.044   1.211 -0.4542 -0.7543  0.0325
  430MOL0     C57922  10.805   3.058   1.124 -1.0295  0.7421 -0.3401
  430MOL0     O57923  10.919   3.028   1.196  0.0192  0.0710 -0.2036
  430MOL0     C57924  11.050   3.017   1.124 -0.5217  0.6332 -1.0510
  430MOL0     C57925  11.158   2.952   1.208  1.3564  0.5387 -0.4450
  430MOL0     C57926  11.300   2.950   1.162  0.0474  0.3115 -0.1477
  430MOL0     C57927  11.356   3.094   1.120 -0.3068  0.6123 -0.5854
  430MOL0     C57928  11.505   3.076   1.063  0.4016 -0.9500 -0.5988
  430MOL0     C57929  11.595   3.008   1.171 -0.1022  0.5293 -0.2116
  430MOL0     C57930  11.601   3.095   1.305 -1.0703  0.3657  0.2444
  430MOL0     C57931  11.729   3.080   1.388  0.2680  1.1405 -0.3346
  430MOL0     N57932  11.753   2.937   1.414  0.5430 -0.7750  0.3446
  430MOL0     C57933  11.691   2.865   1.509  0.2076 -0.2700 -0.4255
  430MOL0     C57934  11.775   2.765   1.551  0.5237  0.2035 -0.0676
  430MOL0     C57935  11.758   2.655   1.656  0.1220  0.4288 -0.9468
  430MOL0     C57936  11.801   2.698   1.800  0.6441  0.6677 -0.1006
  430MOL0     C57937  11.731   2.819   1.856  1.0825 -0.4964  0.5781
  430MOL0     C57938  11.806   2.870   1.982  0.2014  0.1258  0.7063
  430MOL0     O57939  11.939   2.918   1.954  0.4399 -0.3505  0.3890
  430MOL0     C57940  11.942   3.025   1.867  0.7631  0.6092  0.7458
  430MOL0     C57941  11.873   3.143   1.884 -1.2475  0.0192 -0.2806
  430MOL0     C57942  11.879   3.244   1.791 -1.0003 -0.2381  0.4061
  430MOL0     C57943  11.828   3.376   1.835  0.1807  0.5313  0.6826
  430MOL0     C57944  11.957   3.228   1.676  0.1298 -0.3189 -0.0581
  430MOL0     C57945  11.957   3.327   1.568  0.1795  0.4035  0.8251
  430MOL0     O57946  12.064   3.308   1.473  0.1965  0.4060 -0.1770
  430MOL0     C57947  12.102   3.379   1.371  0.1155  0.6767  0.4575
  430MOL0     C57948  12.031   3.492   1.321 -0.4593  0.4423  0.1259
  430MOL0     C57949  12.080   3.577   1.224 -0.1096 -0.5878 -0.7713
  430MOL0     C57950  12.205   3.551   1.164 -1.0395  0.0189  0.2382
  430MOL0     O57951  12.272   3.630   1.080  0.3795  0.0689  0.1676
  430MOL0     C57952  12.260   3.766   1.116  0.2800  0.7152 -0.1143
  430MOL0     C57953  12.400   3.831   1.082  0.8794 -0.1088 -0.3195
  430MOL0     C57954  12.422   3.840   0.933 -0.2819  0.3469 -1.0522
  430MOL0     C57955  12.550   3.765   0.892  0.5495  0.8424 -0.2355
  430MOL0     C57956  12.566   3.779   0.738  0.7465 -0.1877 -0.0739
  430MOL0     C57957  12.708   3.740   0.700 -0.4969  0.2419 -0.3993
  430MOL0     C57958  12.748   3.755   0.553  0.0500 -0.6299  0.5232
  430MOL0     C57959  12.659   3.668   0.462 -0.5265  0.6131 -0.2854
  430MOL0    Cl57960  12.697   3.498   0.480  0.7218 -0.2587 -0.1542
  430MOL0     C57961  12.272   3.426   1.197  0.6939  0.2913 -0.6619
  430MOL0     C57962  12.218   3.344   1.303 -0.4334 -0.5340  0.4554
  430MOL0     O57963  11.857   3.393   1.551 -0.2161 -1.4490  0.2695
  430MOL0     C57964  12.029   3.110   1.660  0.9395  0.3910  1.0663
  430MOL0     C57965  12.017   3.004   1.751 -0.2882 -0.2103  0.1705
  430MOL0     N57966  11.880   2.769   1.463  0.2256  0.2712  0.0406
  430MOL0     N57967  11.870   2.871   1.384  0.5332 -0.1288 -0.2723
  430MOL0     C57968  10.802   3.093   0.988  0.3198 -0.2335  0.9691
  430MOL0     C57969  10.678   3.122   0.938 -0.4935 -1.1380  0.0361
  430MOL0     C57970  10.272   3.258   0.825 -0.2055  0.6403  0.2917
  430MOL0     C57971  10.246   3.362   0.737 -0.2407  0.5377 -0.4303
  430MOL0     C57972  10.130   3.364   0.656  0.2247 -0.7899 -0.8295
  430MOL0     C57973  10.023   3.273   0.670  0.3519 -0.3278 -0.8985
  430MOL0     O57974   9.902   3.269   0.614  0.5113 -1.1666 -0.1008
  430MOL0     C57975   9.858   3.393   0.552  0.3425 -0.0444  0.4760
  430MOL0     C57976   9.754   3.460   0.646  0.9717  0.3846 -0.1867
  430MOL0     C57977   9.641   3.365   0.691  0.5802 -0.1368  0.1516
  430MOL0     C57978   9.584   3.268   0.585  0.1779  0.3145 -0.9383
  430MOL0     C57979   9.448   3.219   0.623  0.9068 -0.4647 -0.4375
  430MOL0     C57980   9.333   3.186   0.639 -0.5741  0.1088  0.8239
  430MOL0     C57981  10.050   3.171   0.763 -1.0200  1.1317  0.1582
  430MOL0     C57982  10.177   3.157   0.832  0.5231 -0.7089 -0.2238
  430MOL0     H57983  10.477   3.049   1.202 -0.6527 -3.9545 -2.1650
  430MOL0     H57984  10.713   3.029   1.316 -0.4005  1.8589  0.4740
  430MOL0     H57985  11.032   2.958   1.034 -2.2410 -0.9648  0.2544
  430MOL0     H57986  11.084   3.112   1.081  2.1583 -0.1087 -0.6914
  430MOL0     H57987  11.154   3.005   1.303  1.3195  0.3305 -0.3292
  430MOL0     H57988  11.124   2.848   1.213 -0.1948  1.0564  0.4037
  430MOL0     H57989  11.352   2.919   1.254 -0.9253 -0.5101  0.1405
  430MOL0     H57990  11.332   2.886   1.079 -0.2482  1.7110 -1.3920
  430MOL0     H57991  11.289   3.130   1.041 -0.1735 -1.6046 -1.7787
  430MOL0     H57992  11.353   3.174   1.194 -3.7311 -0.5931  0.7562
  430MOL0     H57993  11.509   3.021   0.969  1.8996 -0.1899 -1.0200
  430MOL0     H57994  11.549   3.172   1.036 -0.0349 -0.6334 -0.2003
  430MOL0     H57995  11.564   2.903   1.183 -0.1744  0.5460 -0.2508
  430MOL0     H57996  11.700   3.010   1.141  0.4889 -1.7581  1.4347
  430MOL0     H57997  11.585   3.196   1.267 -1.9554 -0.7225 -2.5256
  430MOL0     H57998  11.521   3.081   1.377 -1.1202  1.3395  0.3911
  430MOL0     H57999  11.725   3.130   1.485 -2.0506  0.5751 -0.0817
  430MOL0     H58000  11.799   3.127   1.318 -2.0810  0.1304 -3.6325
  430MOL0     H58001  11.602   2.881   1.569  0.4667 -1.1453  0.2098
  430MOL0     H58002  11.652   2.631   1.663  0.2276  0.0330 -0.6884
  430MOL0     H58003  11.814   2.564   1.634 -1.2099 -0.0866 -2.3898
  430MOL0     H58004  11.909   2.715   1.790  0.4209  1.8740 -0.6445
  430MOL0     H58005  11.774   2.608   1.855 -1.1300  1.9179  1.1522
  430MOL0     H58006  11.627   2.798   1.881  1.9017 -4.8138  1.1419
  430MOL0     H58007  11.723   2.891   1.774 -0.3577 -0.9635  0.2758
  430MOL0     H58008  11.815   2.782   2.047 -1.9788 -2.9125 -2.7048
  430MOL0     H58009  11.748   2.944   2.038 -0.3158 -1.4894  2.4276
  430MOL0     H58010  11.812   3.142   1.974  1.2302 -1.0779  1.5070
  430MOL0     H58011  11.902   3.457   1.836 -2.3927  3.0585  1.8395
  430MOL0     H58012  11.743   3.423   1.784  0.2836 -0.2649 -0.2459
  430MOL0     H58013  11.794   3.360   1.938  1.0565  2.2542  1.2938
  430MOL0     H58014  11.944   3.525   1.377 -0.5874  2.2001 -1.0365
  430MOL0     H58015  12.005   3.654   1.210 -0.3391 -0.9490 -1.6330
  430MOL0     H58016  12.180   3.815   1.059  1.7852  2.8260 -0.5328
  430MOL0     H58017  12.235   3.789   1.220  1.1734  1.7717 -0.1123
  430MOL0     H58018  12.389   3.925   1.136  2.6529 -1.2710  2.2772
  430MOL0     H58019  12.476   3.777   1.139  1.1201  1.3198  0.7513
  430MOL0     H58020  12.419   3.947   0.908 -2.4567  0.7645  0.7173
  430MOL0     H58021  12.340   3.809   0.868  0.5007 -0.0146 -1.8998
  430MOL0     H58022  12.633   3.815   0.943  0.1071  1.0443  0.2922
  430MOL0     H58023  12.548   3.659   0.918  2.5003  0.3944 -1.7552
  430MOL0     H58024  12.547   3.885   0.720 -1.5635 -0.4986  0.1802
  430MOL0     H58025  12.498   3.713   0.682  0.1080  1.0322 -0.7800
  430MOL0     H58026  12.778   3.799   0.759 -0.5908  0.6891 -0.7251
  430MOL0     H58027  12.724   3.643   0.746 -0.1072  0.1870 -0.6407
  430MOL0     H58028  12.853   3.724   0.552  0.2548 -0.3016  3.2426
  430MOL0     H58029  12.735   3.860   0.527  1.1146 -0.6628 -0.2065
  430MOL0     H58030  12.671   3.699   0.358  0.0907  1.0259 -0.0929
  430MOL0     H58031  12.552   3.679   0.482 -0.2916 -0.0741  1.5461
  430MOL0     H58032  12.346   3.385   1.129  1.0810 -0.8123  0.3820
  430MOL0     H58033  12.272   3.250   1.308  3.3881  1.5364  1.7871
  430MOL0     H58034  12.086   3.088   1.570  2.7403  3.0142  1.4769
  430MOL0     H58035  12.049   2.901   1.738  1.5340 -0.1693  3.3699
  430MOL0     H58036  10.892   3.101   0.928 -0.4259  2.4220  0.0529
  430MOL0     H58037  10.679   3.153   0.834 -1.5653 -0.9579  0.0690
  430MOL0     H58038  10.324   3.432   0.709  1.1558 -0.6667  0.3334
  430MOL0     H58039  10.127   3.438   0.577 -1.7679 -0.8078 -0.8013
  430MOL0     H58040   9.930   3.467   0.517 -1.9435  1.6809 -0.8303
  430MOL0     H58041   9.809   3.362   0.459  2.6811 -3.1164  0.0802
  430MOL0     H58042   9.707   3.548   0.602  0.7566  1.4279  2.0311
  430MOL0     H58043   9.806   3.497   0.735 -1.7749  0.4146  1.5224
  430MOL0     H58044   9.557   3.419   0.737  0.5302 -1.5987  1.9015
  430MOL0     H58045   9.693   3.307   0.767  3.8204  3.8972  1.3634
  430MOL0     H58046   9.651   3.185   0.557  0.2602  0.0573 -0.0086
  430MOL0     H58047   9.564   3.314   0.488 -2.4527  0.3829 -0.4357
  430MOL0     H58048   9.235   3.147   0.658 -0.4640 -0.4297  0.2908
  430MOL0     H58049   9.981   3.091   0.788  2.5939 -2.5162 -0.5889
  430MOL0     H58050  10.196   3.067   0.889 -0.5118 -0.9047 -0.1602
  431MOL0     O58051   3.902   8.076   9.748 -0.3297  0.1390  0.0442
  431MOL0     C58052   3.828   8.093   9.839 -0.1931  0.5962 -0.2427
  431MOL0     O58053   3.745   8.202   9.849  0.5346  0.1821 -0.2685
  431MOL0     C58054   3.749   8.284   9.735  0.3128  0.4236 -0.3590
  431MOL0     C58055   3.645   8.286   9.643  0.3577  0.0827 -0.3263
  431MOL0     C58056   3.644   8.376   9.533  0.0453  0.9191  0.3592
  431MOL0     C58057   3.747   8.461   9.501 -0.0822 -0.0654  0.5779
  431MOL0     O58058   3.733   8.539   9.389  1.0285  0.2484 -0.0404
  431MOL0     C58059   3.846   8.616   9.336 -0.1654  0.8366 -0.4385
  431MOL0     C58060   3.821   8.675   9.203 -0.2566  0.0411 -0.2092
  431MOL0     C58061   3.751   8.590   9.105  1.1905  0.1958 -0.1882
  431MOL0     C58062   3.838   8.474   9.053 -0.9344  0.5664  0.3633
  431MOL0     C58063   3.767   8.394   8.939  0.2502 -0.0416 -0.4190
  431MOL0     C58064   3.641   8.319   8.965 -0.1527  0.5982  0.4051
  431MOL0     C58065   3.663   8.204   9.068  0.1100 -0.2263 -0.1293
  431MOL0     C58066   3.602   8.226   9.198  0.2737  0.8121  0.6019
  431MOL0     N58067   3.577   8.099   9.274 -1.6159  0.0288 -0.3286
  431MOL0     C58068   3.662   8.027   9.362 -0.5800  0.4844 -0.3441
  431MOL0     C58069   3.595   7.917   9.395  0.5245 -0.7465 -0.5057
  431MOL0     C58070   3.628   7.796   9.470 -0.4300  0.1135 -0.7166
  431MOL0     C58071   3.782   7.776   9.481 -0.2044  0.6871  0.4942
  431MOL0     C58072   3.831   7.663   9.572 -0.1230 -0.3229 -0.3064
  431MOL0     C58073   3.810   7.695   9.719 -0.0721 -0.5692 -0.3412
  431MOL0     O58074   3.894   7.609   9.794 -0.0585 -0.8921  0.1706
  431MOL0     C58075   3.836   7.507   9.875  0.0976  0.3202  0.0738
  431MOL0     C58076   3.743   7.537   9.974 -0.1432 -0.1628 -0.9366
  431MOL0     C58077   3.669   7.431  10.037  0.8567  0.4504  1.0260
  431MOL0     C58078   3.549   7.471  10.121 -0.7730 -0.0088 -0.3019
  431MOL0     C58079   3.710   7.295  10.008 -0.4525 -0.0492  0.2886
  431MOL0     C58080   3.643   7.186  10.068 -0.4460 -0.3639 -1.2477
  431MOL0     O58081   3.629   7.073   9.984  0.6297  0.5447 -0.2288
  431MOL0     C58082   3.548   6.982  10.045  0.1927 -0.4180 -0.4959
  431MOL0     C58083   3.599   6.894  10.130  0.3503  0.2353  0.2365
  431MOL0     C58084   3.523   6.835  10.222  0.3172 -0.0285 -0.3222
  431MOL0     C58085   3.388   6.833  10.220 -0.1110 -0.2592 -0.0549
  431MOL0     O58086   3.322   6.760  10.316  0.4999  0.2724  0.2808
  431MOL0     C58087   3.181   6.743  10.290 -0.0206 -1.0319 -1.1083
  431MOL0     C58088   3.146   6.651  10.171  0.7249 -0.4093  0.7501
  431MOL0     C58089   2.994   6.673  10.133 -0.5314  1.1959  0.2737
  431MOL0     C58090   2.965   6.543  10.053 -0.5974  0.2695  1.0718
  431MOL0     C58091   2.827   6.485  10.090 -0.0524 -0.2068 -0.6541
  431MOL0     C58092   2.780   6.379   9.987  0.4535 -0.8933  0.9403
  431MOL0     C58093   2.661   6.293  10.036 -0.9353  0.3788  1.0156
  431MOL0     C58094   2.661   6.173   9.942  0.3240 -0.0670  0.1168
  431MOL0    Cl58095   2.526   6.052   9.965 -0.2273 -0.2887 -0.2179
  431MOL0     C58096   3.334   6.913  10.114  0.4863 -0.3049 -0.7071
  431MOL0     C58097   3.407   6.986  10.031 -0.5095 -1.0990  0.4844
  431MOL0     O58098   3.610   7.196  10.189  0.1399 -0.8201  0.5185
  431MOL0     C58099   3.816   7.268   9.918  1.1284 -0.2202  0.7515
  431MOL0     C58100   3.877   7.374   9.850 -0.6290 -0.0527 -0.1708
  431MOL0     N58101   3.460   7.927   9.340 -0.6001  0.3762 -0.3956
  431MOL0     N58102   3.454   8.040   9.275  0.4151  0.5278 -0.2508
  431MOL0     C58103   3.859   8.448   9.580 -0.3666 -0.2876 -0.3718
  431MOL0     C58104   3.854   8.367   9.702 -0.6038  0.2302  0.6690
  431MOL0     C58105   3.829   8.003   9.962 -0.3195  0.5778 -0.0063
  431MOL0     C58106   3.914   7.893   9.979 -0.3623  0.7008 -0.5552
  431MOL0     C58107   3.924   7.821  10.097  0.5590  0.1091 -0.0623
  431MOL0     C58108   3.830   7.855  10.197  0.3860 -0.1068  0.1539
  431MOL0     O58109   3.816   7.788  10.315 -0.2632  0.0479 -0.1483
  431MOL0     C58110   3.931   7.742  10.384  0.6462 -0.1288 -0.7280
  431MOL0     C58111   3.954   7.592  10.357  0.2697  0.4104 -0.0143
  431MOL0     C58112   3.819   7.509  10.390  0.1978  1.2858  0.6117
  431MOL0     C58113   3.749   7.545  10.511 -0.3310 -0.2564 -1.0069
  431MOL0     C58114   3.823   7.512  10.636  0.2221  0.0475  0.2371
  431MOL0     C58115   3.881   7.499  10.742  0.3687  0.1305  0.7320
  431MOL0     C58116   3.747   7.958  10.190  0.0022 -0.2187 -0.1220
  431MOL0     C58117   3.748   8.034  10.073 -0.9316  0.1892  0.1693
  431MOL0     H58118   3.562   8.219   9.665  0.5084 -0.4091 -1.2082
  431MOL0     H58119   3.564   8.366   9.460 -0.4545 -2.2393  1.2043
  431MOL0     H58120   3.861   8.695   9.410 -1.3694 -0.4772  1.3225
  431MOL0     H58121   3.937   8.555   9.333 -0.0538  1.0330 -0.9876
  431MOL0     H58122   3.764   8.766   9.220 -0.5278 -0.4481  1.6708
  431MOL0     H58123   3.912   8.714   9.157 -1.2791  2.6724 -0.1826
  431MOL0     H58124   3.662   8.550   9.154 -0.3812  1.0833 -2.1665
  431MOL0     H58125   3.705   8.641   9.020  0.8657 -1.1649 -0.8693
  431MOL0     H58126   3.931   8.507   9.006 -0.5506 -1.7068 -0.6349
  431MOL0     H58127   3.878   8.411   9.133  3.1251  1.1270 -1.0020
  431MOL0     H58128   3.751   8.468   8.860 -0.6946 -2.2356 -2.4331
  431MOL0     H58129   3.837   8.321   8.897  2.0208  0.9840  0.6268
  431MOL0     H58130   3.564   8.385   9.005 -0.8486  0.1251 -0.1146
  431MOL0     H58131   3.608   8.274   8.870 -1.5372 -0.4597  1.3440
  431MOL0     H58132   3.609   8.119   9.025 -1.4025  1.0603 -0.8830
  431MOL0     H58133   3.770   8.180   9.075  0.2440  0.0733 -0.9679
  431MOL0     H58134   3.505   8.273   9.181  0.8329  1.0629 -2.4307
  431MOL0     H58135   3.655   8.302   9.256 -0.1098  1.7906 -0.3092
  431MOL0     H58136   3.766   8.054   9.381 -0.0734 -0.5548 -1.4539
  431MOL0     H58137   3.580   7.794   9.568  3.4693  0.3423  1.4066
  431MOL0     H58138   3.587   7.707   9.422 -2.0838  0.0521  0.7175
  431MOL0     H58139   3.818   7.871   9.521 -1.8054  1.1073  1.0260
  431MOL0     H58140   3.823   7.761   9.381  2.6010  0.9297  1.5123
  431MOL0     H58141   3.938   7.650   9.554 -0.0259  1.4381 -1.1692
  431MOL0     H58142   3.776   7.573   9.545 -2.7622  1.7043 -2.2671
  431MOL0     H58143   3.703   7.685   9.740 -0.3170  0.1431 -1.1808
  431MOL0     H58144   3.837   7.800   9.735 -2.2813 -0.0482  0.3692
  431MOL0     H58145   3.707   7.637   9.999 -1.6967 -1.0726  0.7696
  431MOL0     H58146   3.460   7.409  10.106 -2.5728  1.4999  2.9332
  431MOL0     H58147   3.571   7.468  10.228  1.0981 -0.4016 -0.6577
  431MOL0     H58148   3.508   7.569  10.095 -2.4333 -1.0260 -1.7532
  431MOL0     H58149   3.706   6.890  10.149  0.3131 -0.2272  0.3673
  431MOL0     H58150   3.576   6.769  10.291  1.1371 -0.4385 -1.3182
  431MOL0     H58151   3.137   6.704  10.382  0.1959 -0.0152 -0.5561
  431MOL0     H58152   3.149   6.846  10.271  0.8514 -0.8041 -1.4177
  431MOL0     H58153   3.199   6.686  10.082 -1.1912 -1.4170 -0.8676
  431MOL0     H58154   3.171   6.547  10.193  0.1065 -0.9397 -0.9284
  431MOL0     H58155   2.977   6.759  10.068 -1.3300  1.7751  1.2291
  431MOL0     H58156   2.937   6.672  10.226  2.2483  0.0945  2.0697
  431MOL0     H58157   2.970   6.571   9.947  0.2287 -2.9116  0.1705
  431MOL0     H58158   3.043   6.467  10.048 -0.2320  0.5953  1.6597
  431MOL0     H58159   2.750   6.562  10.102 -0.4796 -0.2491 -2.7366
  431MOL0     H58160   2.825   6.433  10.186 -2.0684  0.1208 -0.4721
  431MOL0     H58161   2.741   6.432   9.900 -1.0566  0.1176  2.1866
  431MOL0     H58162   2.868   6.323   9.953  0.7180  2.2228 -4.6474
  431MOL0     H58163   2.566   6.348  10.031 -0.1845  1.5998 -0.8086
  431MOL0     H58164   2.678   6.262  10.139  1.0010  0.5100  0.7660
  431MOL0     H58165   2.759   6.125   9.954 -1.1207 -3.8568 -1.6145
  431MOL0     H58166   2.644   6.217   9.843  0.8350  0.4933  0.2773
  431MOL0     H58167   3.226   6.922  10.107  0.5070  2.6426  1.1493
  431MOL0     H58168   3.355   7.028   9.946  1.7018  2.0252  0.5356
  431MOL0     H58169   3.848   7.172   9.878  0.2299 -0.1645 -0.1180
  431MOL0     H58170   3.953   7.362   9.773  0.6414  0.2069  1.0168
  431MOL0     H58171   3.947   8.504   9.548 -1.5664  1.5396 -0.6477
  431MOL0     H58172   3.940   8.361   9.768 -0.3878  2.2777  0.6515
  431MOL0     H58173   3.994   7.881   9.907 -0.3728  0.0022 -0.4547
  431MOL0     H58174   3.997   7.741  10.108  0.1970 -0.5583 -2.0869
  431MOL0     H58175   4.022   7.792  10.349  0.5100 -1.3923 -3.1159
  431MOL0     H58176   3.922   7.774  10.488 -1.2219 -0.5711 -0.7101
  431MOL0     H58177   4.039   7.551  10.412 -0.3357  0.8789  1.3119
  431MOL0     H58178   3.978   7.575  10.251 -0.9803  4.6753 -1.1467
  431MOL0     H58179   3.847   7.404  10.398  2.0522  1.4826 -1.8504
  431MOL0     H58180   3.752   7.517  10.304 -0.1973 -4.8809 -0.0931
  431MOL0     H58181   3.655   7.491  10.522 -0.5527  0.5180  1.7829
  431MOL0     H58182   3.715   7.648  10.510 -0.9032 -0.4401 -0.8279
  431MOL0     H58183   3.908   7.466  10.841 -2.3644  1.0041  1.8821
  431MOL0     H58184   3.676   7.979  10.270  0.3145  2.3399 -0.4162
  431MOL0     H58185   3.672   8.111  10.060 -0.3533  0.7766  0.2071
  432MOL0     O58186   4.159  10.122  10.614 -0.5069  1.2876 -0.0257
  432MOL0     C58187   4.132  10.036  10.529 -0.6262 -0.5848  0.1151
  432MOL0     O58188   4.223   9.951  10.472 -0.3317 -0.3141  0.2548
  432MOL0     C58189   4.352   9.943  10.509 -0.2464 -0.2544  0.0091
  432MOL0     C58190   4.439  10.052  10.499 -0.0171 -0.1642 -0.4897
  432MOL0     C58191   4.577  10.058  10.541  0.5523 -0.5983  0.3979
  432MOL0     C58192   4.632   9.929  10.580  0.2760 -0.4706 -0.8087
  432MOL0     O58193   4.762   9.919  10.620 -0.0235  0.5389  1.3298
  432MOL0     C58194   4.780  10.001  10.738  0.6612  0.8711  0.2283
  432MOL0     C58195   4.875   9.928  10.835  0.3628  0.1365 -0.2627
  432MOL0     C58196   4.788   9.832  10.915 -0.4440 -0.4132 -0.5375
  432MOL0     C58197   4.877   9.720  10.969 -0.4183 -0.9280 -0.5405
  432MOL0     C58198   4.995   9.769  11.062 -0.3603 -0.7496  0.3748
  432MOL0     C58199   4.953   9.857  11.179  0.2223  0.2841 -0.3151
  432MOL0     C58200   4.879   9.785  11.291  0.0243  0.2757  1.1312
  432MOL0     C58201   4.967   9.723  11.406  0.3418  0.9020  0.5408
  432MOL0     N58202   5.085   9.642  11.355 -0.1497 -0.2159 -1.1684
  432MOL0     C58203   5.211   9.691  11.318  0.1796  0.4528  0.3564
  432MOL0     C58204   5.279   9.581  11.282  0.1665 -0.9953  0.2013
  432MOL0     C58205   5.423   9.561  11.237  0.2625 -0.8853 -0.5372
  432MOL0     C58206   5.492   9.697  11.191 -0.3380  0.7227  0.2817
  432MOL0     C58207   5.642   9.669  11.185  0.7579  0.5347 -0.5004
  432MOL0     C58208   5.719   9.707  11.317 -0.3232 -0.3877 -0.4744
  432MOL0     O58209   5.689   9.603  11.417  0.3660  0.8155  0.7479
  432MOL0     C58210   5.747   9.596  11.541 -1.3461 -0.4214  0.6245
  432MOL0     C58211   5.692   9.516  11.631  0.4841  0.2404  0.0662
  432MOL0     C58212   5.725   9.512  11.761 -1.3997  0.1325 -0.7478
  432MOL0     C58213   5.653   9.410  11.852  0.9823  0.5971  0.3551
  432MOL0     C58214   5.839   9.596  11.798 -0.3133  0.4115 -0.6201
  432MOL0     C58215   5.893   9.593  11.936 -0.0958 -0.3017 -0.0868
  432MOL0     O58216   5.929   9.473  11.983  0.5120  0.2318  0.5989
  432MOL0     C58217   5.957   9.471  12.112  0.3531  0.5006  0.1947
  432MOL0     C58218   5.854   9.449  12.210  0.1380  0.2967 -0.0108
  432MOL0     C58219   5.878   9.441  12.348  0.5284  0.3340  0.5240
  432MOL0     C58220   6.017   9.421  12.386 -1.2860  0.7746  0.9596
  432MOL0     O58221   6.054   9.396  12.510  1.1806  0.4126  0.8605
  432MOL0     C58222   5.972   9.432  12.617 -0.1215 -0.4626  0.3910
  432MOL0     C58223   6.005   9.363  12.750  0.3212  0.6207  0.3732
  432MOL0     C58224   6.089   9.446  12.847 -1.0725  0.0636 -1.5514
  432MOL0     C58225   6.239   9.434  12.838 -0.3853 -0.0926 -0.3943
  432MOL0     C58226   6.300   9.454  12.976  1.5945 -0.3506 -0.4538
  432MOL0     C58227   6.454   9.455  12.961 -0.0412 -1.2942 -0.4881
  432MOL0     C58228   6.533   9.426  13.090 -0.2873 -0.0150  1.0836
  432MOL0     C58229   6.665   9.344  13.071 -0.5030  0.4538  0.4470
  432MOL0    Cl58230   6.701   9.231  13.206  0.2756  0.4484  0.4348
  432MOL0     C58231   6.124   9.445  12.288  0.0945  0.0120 -0.7737
  432MOL0     C58232   6.087   9.473  12.154 -0.0850 -0.1196 -1.0823
  432MOL0     O58233   5.912   9.702  11.993 -0.9126 -0.1873  0.4226
  432MOL0     C58234   5.894   9.692  11.711 -0.9264  0.6032 -0.2367
  432MOL0     C58235   5.856   9.685  11.580  0.2769  0.2490 -0.1121
  432MOL0     N58236   5.206   9.471  11.287  1.0894 -0.2265 -0.3579
  432MOL0     N58237   5.090   9.509  11.346 -0.2561 -0.2106  0.5599
  432MOL0     C58238   4.551   9.813  10.593  0.7504 -0.9244 -0.2834
  432MOL0     C58239   4.408   9.821  10.553  0.0763 -1.2535  0.9219
  432MOL0     C58240   4.008  10.037  10.469  0.2028  0.1868  1.1678
  432MOL0     C58241   3.906  10.125  10.497 -0.4791  0.5140  0.3256
  432MOL0     C58242   3.786  10.133  10.423 -0.0730 -0.1755  0.3222
  432MOL0     C58243   3.760  10.058  10.305 -0.1878  1.0046 -1.0240
  432MOL0     O58244   3.639  10.080  10.236  0.3313 -0.6956 -0.4593
  432MOL0     C58245   3.595   9.990  10.135 -0.0968  0.3575  0.0422
  432MOL0     C58246   3.546   9.857  10.183 -0.4548 -0.2547 -0.0685
  432MOL0     C58247   3.473   9.767  10.078 -0.3739  0.9304 -0.0392
  432MOL0     C58248   3.549   9.726   9.957 -0.4508 -0.0376 -0.1361
  432MOL0     C58249   3.692   9.696   9.981  0.7227  0.4668  0.6220
  432MOL0     C58250   3.798   9.649  10.014 -0.0690 -0.1525 -0.8542
  432MOL0     C58251   3.866   9.962  10.277 -0.0827 -0.5244  0.3049
  432MOL0     C58252   3.992   9.958  10.343  0.0502 -1.4519 -1.0631
  432MOL0     H58253   4.399  10.145  10.459 -3.0238 -1.1181  0.0508
  432MOL0     H58254   4.648  10.136  10.518 -0.3287 -0.7511 -3.4732
  432MOL0     H58255   4.822  10.099  10.711 -0.9709  1.5575  0.0499
  432MOL0     H58256   4.684  10.014  10.788 -0.0571 -0.9435 -0.5900
  432MOL0     H58257   4.958   9.880  10.782  2.5637  2.6952  0.5915
  432MOL0     H58258   4.920  10.003  10.902  1.0322  1.0179 -1.6570
  432MOL0     H58259   4.747   9.901  10.989 -1.2082 -1.2927 -0.1237
  432MOL0     H58260   4.709   9.792  10.851 -0.4140  1.5008 -1.8761
  432MOL0     H58261   4.813   9.639  11.003 -1.3578 -0.8873 -2.1237
  432MOL0     H58262   4.911   9.675  10.875 -1.5122 -1.5992 -0.6257
  432MOL0     H58263   5.050   9.682  11.099  0.3879 -0.5991 -0.3492
  432MOL0     H58264   5.065   9.827  11.002 -1.9107  2.4914  1.4743
  432MOL0     H58265   5.041   9.913  11.214 -1.2764  1.9448  0.9443
  432MOL0     H58266   4.888   9.936  11.141 -1.7326 -1.4144 -0.6957
  432MOL0     H58267   4.811   9.855  11.341  1.1224  1.9289  0.3795
  432MOL0     H58268   4.810   9.713  11.247 -1.9011  1.6694  1.7469
  432MOL0     H58269   4.908   9.654  11.467 -0.3479  0.3777 -0.6764
  432MOL0     H58270   4.995   9.799  11.479 -0.0170  1.7598 -0.1884
  432MOL0     H58271   5.244   9.793  11.333 -1.1999  0.9512  0.0928
  432MOL0     H58272   5.477   9.512  11.319  0.2083 -0.7954 -0.4467
  432MOL0     H58273   5.435   9.483  11.161  5.1713 -2.2374  1.1845
  432MOL0     H58274   5.480   9.777  11.266  2.2219 -0.4157  2.0338
  432MOL0     H58275   5.464   9.719  11.088  0.9156 -0.9001 -0.4399
  432MOL0     H58276   5.686   9.729  11.105  0.9144 -0.1164 -0.9110
  432MOL0     H58277   5.663   9.564  11.160 -0.1486  0.4373 -0.8706
  432MOL0     H58278   5.684   9.801  11.361 -0.6465  0.0676 -1.6927
  432MOL0     H58279   5.825   9.723  11.296  0.0371  1.1368  2.0214
  432MOL0     H58280   5.618   9.449  11.588  0.7540  0.7121 -1.1830
  432MOL0     H58281   5.723   9.343  11.903 -1.4314 -2.8499 -0.4756
  432MOL0     H58282   5.598   9.463  11.931 -0.1202 -0.0058  0.0109
  432MOL0     H58283   5.576   9.354  11.798  0.6803 -0.8828  2.2150
  432MOL0     H58284   5.760   9.428  12.159  2.1525 -0.7629 -3.6675
  432MOL0     H58285   5.794   9.431  12.415 -1.4980  0.3500 -1.8861
  432MOL0     H58286   5.982   9.538  12.638 -4.4879  0.1174  0.4543
  432MOL0     H58287   5.863   9.426  12.613 -0.3137 -0.5561  3.6525
  432MOL0     H58288   5.906   9.342  12.792 -0.4854  0.8827 -1.3181
  432MOL0     H58289   6.053   9.269  12.723  1.0629  0.8872  0.7505
  432MOL0     H58290   6.070   9.403  12.946  2.9590 -3.0804 -1.8843
  432MOL0     H58291   6.065   9.553  12.844  1.3009  0.6545 -1.2640
  432MOL0     H58292   6.270   9.339  12.793  2.7832 -0.2444  1.8016
  432MOL0     H58293   6.277   9.515  12.775  2.4309 -0.3031  0.9092
  432MOL0     H58294   6.274   9.366  13.035 -2.6727  1.8440  1.3132
  432MOL0     H58295   6.259   9.540  13.029  0.0502  0.8745 -3.3930
  432MOL0     H58296   6.483   9.382  12.885  0.4338 -1.0749 -0.5202
  432MOL0     H58297   6.480   9.555  12.925  3.3207 -3.0370 -3.5247
  432MOL0     H58298   6.462   9.364  13.146 -0.1501  0.1284  1.4226
  432MOL0     H58299   6.555   9.518  13.144 -2.7717  2.5223 -1.8175
  432MOL0     H58300   6.740   9.423  13.061 -0.4966  0.4820  0.7206
  432MOL0     H58301   6.651   9.286  12.979  0.5330 -0.3765  0.7758
  432MOL0     H58302   6.229   9.432  12.312 -0.0985 -0.9025 -0.3999
  432MOL0     H58303   6.164   9.464  12.077  0.2199 -1.3146 -0.6491
  432MOL0     H58304   5.963   9.755  11.766 -1.0567  0.4166  0.1418
  432MOL0     H58305   5.897   9.753  11.507  0.9129  0.2268  0.2209
  432MOL0     H58306   4.584   9.713  10.621 -0.6866 -0.9889  1.3909
  432MOL0     H58307   4.346   9.732  10.553 -1.8914  0.0531  1.0414
  432MOL0     H58308   3.912  10.187  10.586 -0.3550  1.4032 -0.2879
  432MOL0     H58309   3.712  10.205  10.457  0.7623  0.4394  0.8877
  432MOL0     H58310   3.508  10.031  10.084 -0.5505 -1.6823 -0.9433
  432MOL0     H58311   3.670   9.969  10.058  2.4867 -1.8473  2.8708
  432MOL0     H58312   3.480   9.885  10.265  0.2684 -1.1467  0.8489
  432MOL0     H58313   3.632   9.810  10.232 -0.5010  1.6200  1.9324
  432MOL0     H58314   3.376   9.799  10.039 -2.3977 -3.8914  0.3021
  432MOL0     H58315   3.441   9.675  10.129  0.9337 -0.5022 -1.7032
  432MOL0     H58316   3.547   9.805   9.880  1.5473  2.2349  1.9468
  432MOL0     H58317   3.502   9.635   9.919  1.0980  0.5451 -3.9033
  432MOL0     H58318   3.893   9.618  10.054 -0.7431 -0.3385  0.6907
  432MOL0     H58319   3.855   9.907  10.184 -3.7326  3.7519 -2.2119
  432MOL0     H58320   4.070   9.892  10.307  1.8060  1.6011 -3.4346
  433MOL0     O58321  11.156   1.336   4.728 -0.2157 -0.0324  0.7090
  433MOL0     C58322  11.135   1.455   4.740  0.3358 -1.0902  1.2897
  433MOL0     O58323  11.012   1.506   4.755  0.4679  0.9301  0.1622
  433MOL0     C58324  10.917   1.418   4.797  0.1406 -0.0747 -1.1178
  433MOL0     C58325  10.916   1.333   4.907 -0.7825 -0.4319 -0.8856
  433MOL0     C58326  10.824   1.235   4.917  0.6764  0.1358 -0.0441
  433MOL0     C58327  10.716   1.233   4.829 -0.1658 -0.1504  0.6817
  433MOL0     O58328  10.616   1.141   4.856  0.4026 -0.2103 -0.1800
  433MOL0     C58329  10.483   1.186   4.851  0.6506  0.3833 -0.8582
  433MOL0     C58330  10.402   1.075   4.935 -1.6058 -0.0040  0.7978
  433MOL0     C58331  10.256   1.083   4.907 -0.2913 -0.5523  0.0263
  433MOL0     C58332  10.172   0.997   5.008 -0.4071 -1.0485 -0.0292
  433MOL0     C58333  10.020   1.016   5.021 -0.2289 -0.8637 -0.4238
  433MOL0     C58334   9.953   1.063   4.895  0.1385 -0.1474  0.5487
  433MOL0     C58335   9.798   1.063   4.888  0.2806 -0.1550  0.0764
  433MOL0     C58336   9.714   1.045   4.750  0.0283 -0.1735 -0.6972
  433MOL0     N58337   9.697   1.173   4.681 -0.1248  0.5543  0.5920
  433MOL0     C58338   9.597   1.260   4.702 -0.2707  0.5805 -0.1398
  433MOL0     C58339   9.625   1.366   4.622  0.6649 -0.6099 -0.1449
  433MOL0     C58340   9.533   1.488   4.619 -0.3382 -0.1735 -0.7414
  433MOL0     C58341   9.604   1.608   4.568  0.2081  0.0481 -0.2919
  433MOL0     C58342   9.498   1.722   4.595  0.8094  0.2872 -0.0860
  433MOL0     C58343   9.544   1.848   4.529  0.0959  1.0674 -0.6604
  433MOL0     O58344   9.456   1.956   4.566  0.2334 -0.0976  0.1936
  433MOL0     C58345   9.341   1.987   4.502 -0.2094 -0.4834  0.9549
  433MOL0     C58346   9.281   2.114   4.527  0.8415  0.3189  0.3626
  433MOL0     C58347   9.176   2.167   4.452  0.0797 -0.4471 -0.3799
  433MOL0     C58348   9.138   2.309   4.493  0.1679  0.2678  0.1923
  433MOL0     C58349   9.118   2.075   4.349 -0.1441 -0.8676  0.2417
  433MOL0     C58350   8.993   2.127   4.270 -0.2522 -0.4741  1.3891
  433MOL0     O58351   8.941   2.038   4.183  0.0390  0.1782  0.8230
  433MOL0     C58352   8.827   2.060   4.113  0.1724  0.1147  0.4617
  433MOL0     C58353   8.817   2.166   4.026 -0.1060 -0.2396  0.2713
  433MOL0     C58354   8.703   2.199   3.950 -0.7200  0.2228  0.0664
  433MOL0     C58355   8.588   2.115   3.969 -0.5273 -0.1770  0.5940
  433MOL0     O58356   8.469   2.130   3.908 -0.9687  0.2713 -0.0267
  433MOL0     C58357   8.375   2.210   3.976 -0.7620  0.3659 -0.0188
  433MOL0     C58358   8.323   2.126   4.092 -0.7552 -0.4391  0.1808
  433MOL0     C58359   8.194   2.177   4.143  0.2854 -0.1293  0.7928
  433MOL0     C58360   8.225   2.264   4.264 -0.8260  0.5142 -0.0032
  433MOL0     C58361   8.091   2.339   4.294  0.2086 -0.5837 -0.8701
  433MOL0     C58362   8.112   2.442   4.406 -0.1091  0.9473  0.1880
  433MOL0     C58363   8.086   2.585   4.362 -0.5338  0.0406  0.6577
  433MOL0     C58364   8.176   2.636   4.247 -0.5314  0.0206  0.1565
  433MOL0    Cl58365   8.171   2.820   4.221  0.0105  0.0439  0.3389
  433MOL0     C58366   8.606   1.999   4.054  1.2492  0.5244  0.0520
  433MOL0     C58367   8.720   1.968   4.122 -0.5179  0.5939 -0.1537
  433MOL0     O58368   8.950   2.240   4.281 -0.0751  0.2533  0.0006
  433MOL0     C58369   9.167   1.942   4.333 -0.3787 -0.5039 -0.6259
  433MOL0     C58370   9.278   1.904   4.411 -0.6631 -1.1604  1.0573
  433MOL0     N58371   9.754   1.365   4.575 -0.0678  1.2219  0.9983
  433MOL0     N58372   9.784   1.238   4.599  0.8354 -0.9249  0.0538
  433MOL0     C58373  10.705   1.332   4.729  0.3177  0.0695 -0.5892
  433MOL0     C58374  10.806   1.424   4.717  0.8235  0.3869  0.3309
  433MOL0     C58375  11.245   1.548   4.751 -0.5391  0.1637  1.3983
  433MOL0     C58376  11.376   1.508   4.794  1.1093 -0.5051 -0.0218
  433MOL0     C58377  11.482   1.601   4.802 -0.1466 -0.6046 -0.6182
  433MOL0     C58378  11.474   1.726   4.758  0.3313  0.4928 -0.4380
  433MOL0     O58379  11.579   1.819   4.769 -0.3741 -0.8071 -1.2195
  433MOL0     C58380  11.585   1.873   4.903  0.5467 -0.0490 -0.3239
  433MOL0     C58381  11.729   1.908   4.936  0.4352 -0.4138 -1.3826
  433MOL0     C58382  11.795   2.028   4.886  0.4053 -1.1531  0.9301
  433MOL0     C58383  11.917   2.066   4.970 -0.0704  0.0260  0.2199
  433MOL0     C58384  11.959   2.200   4.932 -0.1948 -0.5119 -0.4285
  433MOL0     C58385  11.994   2.302   4.881  0.3781 -0.1631 -0.1735
  433MOL0     C58386  11.351   1.769   4.711  0.0588  0.3804  0.1190
  433MOL0     C58387  11.242   1.683   4.718  0.8477 -0.0921  0.9872
  433MOL0     H58388  10.994   1.344   4.983 -2.1175  0.6800  0.4031
  433MOL0     H58389  10.823   1.166   5.001 -1.1871 -0.5041 -0.5568
  433MOL0     H58390  10.455   1.271   4.913  0.9127  0.4027 -0.7671
  433MOL0     H58391  10.439   1.199   4.751  1.1308  1.0700 -0.9814
  433MOL0     H58392  10.441   0.975   4.914  2.1784  0.9463  2.4180
  433MOL0     H58393  10.417   1.091   5.042 -1.0312  1.2848  0.5507
  433MOL0     H58394  10.226   1.186   4.929  2.3365  0.1941  0.3987
  433MOL0     H58395  10.232   1.069   4.801 -1.5152 -0.7891  0.3216
  433MOL0     H58396  10.193   0.891   4.995 -0.0618 -0.8995 -0.7308
  433MOL0     H58397  10.214   1.010   5.108  1.4314  1.8353 -1.0396
  433MOL0     H58398   9.987   0.913   5.034 -1.5035 -0.5207 -0.6915
  433MOL0     H58399   9.991   1.075   5.108 -0.4355  0.0531 -1.0877
  433MOL0     H58400   9.981   1.164   4.867 -4.2191  0.9732 -0.6089
  433MOL0     H58401   9.976   1.010   4.801 -6.0398  1.1859 -2.2745
  433MOL0     H58402   9.758   0.975   4.939 -1.1163  0.2563 -0.2743
  433MOL0     H58403   9.754   1.139   4.952  0.0648  0.9374 -1.3108
  433MOL0     H58404   9.611   1.013   4.767 -0.6855  0.2267 -3.7216
  433MOL0     H58405   9.767   0.966   4.695 -2.4379 -3.1112  0.8356
  433MOL0     H58406   9.526   1.254   4.784 -1.7899 -0.4253 -1.4681
  433MOL0     H58407   9.452   1.469   4.548  0.4460 -1.4145 -1.3408
  433MOL0     H58408   9.505   1.515   4.721  2.5124  2.5297 -0.5251
  433MOL0     H58409   9.623   1.598   4.461 -1.5314  1.4379 -0.7665
  433MOL0     H58410   9.697   1.629   4.622  0.3695 -0.4683 -0.3603
  433MOL0     H58411   9.481   1.735   4.702  1.4003 -3.1176  0.5370
  433MOL0     H58412   9.403   1.691   4.550  2.2509  0.2861 -3.4918
  433MOL0     H58413   9.536   1.835   4.420 -1.1470 -2.8862 -0.2669
  433MOL0     H58414   9.647   1.874   4.554  0.9900 -3.3625  1.1595
  433MOL0     H58415   9.317   2.168   4.614 -2.1694  2.9916  0.1179
  433MOL0     H58416   9.146   2.361   4.397  0.6842  1.0415  0.6549
  433MOL0     H58417   9.033   2.315   4.524  0.4993 -0.1421  1.4810
  433MOL0     H58418   9.205   2.352   4.567  0.6113  1.2703 -0.7700
  433MOL0     H58419   8.906   2.229   4.028  0.4364 -0.9518 -0.6545
  433MOL0     H58420   8.727   2.294   3.904  1.0771 -0.1010  0.2538
  433MOL0     H58421   8.425   2.297   4.019  1.1595 -0.2193 -0.9562
  433MOL0     H58422   8.292   2.236   3.909 -0.4245 -0.7581 -0.9126
  433MOL0     H58423   8.301   2.024   4.061 -5.5242 -0.3100  2.3179
  433MOL0     H58424   8.397   2.104   4.170 -0.3752 -1.4128 -0.4276
  433MOL0     H58425   8.125   2.097   4.169 -1.4125  1.0570  0.1276
  433MOL0     H58426   8.144   2.226   4.059  0.1695 -1.8245 -0.1644
  433MOL0     H58427   8.259   2.209   4.352  1.6212  0.7822 -0.7103
  433MOL0     H58428   8.300   2.341   4.245 -1.0787  0.1996 -2.5980
  433MOL0     H58429   8.012   2.271   4.327  0.6191  0.0220  1.6124
  433MOL0     H58430   8.048   2.398   4.213 -1.4733 -2.4563 -1.4377
  433MOL0     H58431   8.061   2.408   4.497 -0.4708 -1.2780 -0.7958
  433MOL0     H58432   8.211   2.428   4.451 -0.3111 -2.4695 -0.1939
  433MOL0     H58433   8.105   2.643   4.453 -0.0328 -2.3151  2.1495
  433MOL0     H58434   7.981   2.584   4.331 -0.5357  0.5977  0.6377
  433MOL0     H58435   8.159   2.581   4.154  0.0309 -0.0764  0.1065
  433MOL0     H58436   8.279   2.609   4.272 -1.5930 -2.7719  2.1062
  433MOL0     H58437   8.522   1.933   4.075  2.2529 -0.7436  0.1719
  433MOL0     H58438   8.730   1.884   4.189 -2.4701 -2.8984 -3.7426
  433MOL0     H58439   9.119   1.870   4.268 -4.0444 -0.3763  1.6030
  433MOL0     H58440   9.319   1.806   4.391  0.2391 -0.2385 -2.2401
  433MOL0     H58441  10.613   1.324   4.672  0.5392 -2.6372 -0.6923
  433MOL0     H58442  10.800   1.504   4.643  4.0020 -0.4310 -0.9616
  433MOL0     H58443  11.384   1.412   4.844  0.1390 -0.0810  0.9922
  433MOL0     H58444  11.577   1.570   4.843 -0.1141 -1.0690 -1.0351
  433MOL0     H58445  11.517   1.959   4.908  1.5482  0.8554 -1.6147
  433MOL0     H58446  11.547   1.809   4.983 -1.7666 -1.4271 -2.4077
  433MOL0     H58447  11.789   1.821   4.907  0.0757 -1.5325  1.0106
  433MOL0     H58448  11.739   1.911   5.045  2.1928 -4.8042 -1.2181
  433MOL0     H58449  11.740   2.122   4.900  4.8265  2.1175 -1.1349
  433MOL0     H58450  11.833   2.011   4.785  1.5033  3.8413  0.2393
  433MOL0     H58451  11.999   1.998   4.945 -0.7176 -1.1692  1.2542
  433MOL0     H58452  11.906   2.063   5.079 -0.6354  3.2789  0.3757
  433MOL0     H58453  12.023   2.400   4.852  1.3929  0.2054  1.8937
  433MOL0     H58454  11.335   1.872   4.681  2.6564  0.4153 -1.4955
  433MOL0     H58455  11.146   1.731   4.700  1.7629  1.4668 -0.0562
  434MOL0     O58456   8.101   9.088   1.761 -0.1077  0.4320  0.0508
  434MOL0     C58457   7.986   9.071   1.738  0.5199 -0.0973 -0.4940
  434MOL0     O58458   7.910   9.160   1.665  0.0121 -0.1950 -0.2314
  434MOL0     C58459   7.964   9.270   1.605  0.1569 -0.4018 -0.4336
  434MOL0     C58460   7.914   9.398   1.644  0.7702 -0.0184  0.3914
  434MOL0     C58461   7.947   9.515   1.573 -0.1812 -0.5848  0.3055
  434MOL0     C58462   8.016   9.499   1.446 -0.8399 -0.0349  0.0089
  434MOL0     O58463   8.031   9.614   1.380  0.3880 -0.6214 -0.3206
  434MOL0     C58464   8.163   9.671   1.377  0.0448  0.0350 -0.2223
  434MOL0     C58465   8.187   9.725   1.242  0.6417  0.4120 -0.0902
  434MOL0     C58466   8.299   9.835   1.228  0.4680 -0.4044  0.0532
  434MOL0     C58467   8.424   9.762   1.275  0.4577 -0.1745 -0.1662
  434MOL0     C58468   8.547   9.846   1.231  0.0711 -0.2842 -0.1850
  434MOL0     C58469   8.554   9.992   1.283 -0.0950 -0.2206  0.9126
  434MOL0     C58470   8.702  10.033   1.283  0.6064  0.0565 -0.4172
  434MOL0     C58471   8.735  10.099   1.146  0.1984  0.0148 -0.4982
  434MOL0     N58472   8.727  10.023   1.015 -0.3196  0.6974 -0.8164
  434MOL0     C58473   8.818   9.928   0.971 -0.0309  0.1305 -0.3466
  434MOL0     C58474   8.771   9.870   0.855 -0.2777 -0.9670 -0.4686
  434MOL0     C58475   8.842   9.772   0.762 -0.1268 -0.5301  0.3150
  434MOL0     C58476   8.751   9.734   0.640  0.4109 -0.1258 -0.0707
  434MOL0     C58477   8.778   9.827   0.523 -0.0791 -0.1025 -0.5580
  434MOL0     C58478   8.683   9.827   0.406 -0.4284  0.7097 -0.2659
  434MOL0     O58479   8.709   9.938   0.314  0.8039 -0.6524  0.4070
  434MOL0     C58480   8.813   9.921   0.221  0.1027 -0.2664 -0.2288
  434MOL0     C58481   8.840  10.024   0.141  0.2437  0.1737 -0.3400
  434MOL0     C58482   8.933  10.013   0.032 -0.3702 -0.0460  0.2658
  434MOL0     C58483   8.949  10.145  -0.050 -0.3656  0.4457  0.7988
  434MOL0     C58484   8.988   9.882   0.005  0.2829 -1.0419  0.0477
  434MOL0     C58485   9.067   9.854  -0.132 -0.1764 -0.3562 -1.2432
  434MOL0     O58486   9.099   9.956  -0.221 -0.5127  0.7487  0.3348
  434MOL0     C58487   9.093   9.963  -0.365 -0.1008  0.4403  0.2592
  434MOL0     C58488   9.151  10.066  -0.443  1.4779  0.4744  0.4299
  434MOL0     C58489   9.151  10.065  -0.588  0.2298 -0.3411  0.1805
  434MOL0     C58490   9.092   9.962  -0.659 -0.8518 -0.2015 -0.6712
  434MOL0     O58491   9.110   9.966  -0.794  0.7193 -0.2227 -0.2184
  434MOL0     C58492   9.097   9.842  -0.873 -0.5574 -0.4935  0.1414
  434MOL0     C58493   9.213   9.743  -0.861  0.3013  0.4371  0.8219
  434MOL0     C58494   9.187   9.591  -0.897  0.0835 -0.4793 -0.9217
  434MOL0     C58495   9.147   9.550  -1.041 -0.0216 -0.3722 -1.0387
  434MOL0     C58496   9.228   9.622  -1.147  0.4269 -0.5312 -0.1992
  434MOL0     C58497   9.182   9.575  -1.290 -0.2817  0.0835  0.3770
  434MOL0     C58498   9.283   9.626  -1.380 -0.0636 -0.0332 -0.0932
  434MOL0     C58499   9.253   9.615  -1.526 -0.5095  0.8253  0.6860
  434MOL0    Cl58500   9.221   9.443  -1.564  0.0289  0.2861  0.0415
  434MOL0     C58501   9.038   9.851  -0.584 -0.4572 -0.0586  0.3233
  434MOL0     C58502   9.043   9.856  -0.443  0.4832 -0.6387  0.2121
  434MOL0     O58503   9.072   9.733  -0.158 -0.4786  0.5182  0.1565
  434MOL0     C58504   8.974   9.776   0.102  0.7530  0.2832  0.3137
  434MOL0     C58505   8.885   9.797   0.208 -1.1651 -0.1523 -0.2875
  434MOL0     N58506   8.653   9.945   0.844 -0.0193  0.3282  0.7754
  434MOL0     N58507   8.609  10.003   0.951 -0.2983  0.4636  0.2125
  434MOL0     C58508   8.058   9.375   1.402 -0.5338  0.4865  0.4991
  434MOL0     C58509   8.046   9.259   1.484  0.2662  0.8388 -1.5607
  434MOL0     C58510   7.910   8.958   1.811 -0.4727  0.1397  0.8918
  434MOL0     C58511   7.988   8.852   1.865 -0.6800  0.0032 -1.0375
  434MOL0     C58512   7.928   8.746   1.934 -0.4280  0.3423 -0.8954
  434MOL0     C58513   7.789   8.735   1.931  0.2436  0.4189  0.1728
  434MOL0     O58514   7.732   8.615   1.977 -0.4694 -0.4746 -0.3376
  434MOL0     C58515   7.594   8.602   1.985 -0.1896  0.7414  0.0804
  434MOL0     C58516   7.517   8.674   2.094  0.3793 -0.3901  0.0291
  434MOL0     C58517   7.568   8.665   2.237  0.7192  0.1203 -0.0382
  434MOL0     C58518   7.509   8.781   2.316 -0.2671 -0.3418  0.2507
  434MOL0     C58519   7.569   8.787   2.450  0.6442  0.4306 -0.1270
  434MOL0     C58520   7.607   8.808   2.560 -0.0408  0.2019 -0.4330
  434MOL0     C58521   7.711   8.833   1.853  0.5716  0.5092  0.5785
  434MOL0     C58522   7.776   8.945   1.815 -0.0358 -0.0715  0.5266
  434MOL0     H58523   7.853   9.420   1.731 -0.0251  0.4203 -0.2588
  434MOL0     H58524   7.908   9.609   1.610 -3.8264 -1.3909 -1.0580
  434MOL0     H58525   8.154   9.749   1.454 -0.4781 -0.2684  0.0283
  434MOL0     H58526   8.237   9.595   1.404  1.2242  1.9460  2.3837
  434MOL0     H58527   8.200   9.633   1.184 -1.2120  0.3764 -0.5079
  434MOL0     H58528   8.093   9.765   1.202 -2.1637 -4.3590  0.9443
  434MOL0     H58529   8.318   9.880   1.131 -0.0725  0.2999  0.2668
  434MOL0     H58530   8.276   9.921   1.292 -1.6654  0.4697 -1.7915
  434MOL0     H58531   8.424   9.743   1.383  1.4589 -2.4973 -0.4990
  434MOL0     H58532   8.425   9.666   1.222 -4.1615 -0.2205 -0.6206
  434MOL0     H58533   8.635   9.805   1.282  0.9490  1.7669  0.0506
  434MOL0     H58534   8.560   9.842   1.123  0.8293 -2.5088 -0.0595
  434MOL0     H58535   8.490  10.061   1.226  0.1980 -0.2039  0.6008
  434MOL0     H58536   8.524   9.973   1.386 -0.1823 -5.0990  0.2141
  434MOL0     H58537   8.711  10.116   1.355  0.0523 -0.0729 -0.1960
  434MOL0     H58538   8.778   9.962   1.316 -0.1202 -0.7347 -0.4415
  434MOL0     H58539   8.838  10.131   1.167 -1.1406  2.9521  2.6036
  434MOL0     H58540   8.679  10.193   1.143  1.9743  1.1082 -0.6863
  434MOL0     H58541   8.919   9.922   1.008  0.3559 -0.5239 -1.4468
  434MOL0     H58542   8.944   9.807   0.746 -0.5685 -0.1048 -2.0295
  434MOL0     H58543   8.845   9.683   0.825 -2.0571  0.4933  1.9771
  434MOL0     H58544   8.649   9.744   0.678  1.5860  0.7184  3.1314
  434MOL0     H58545   8.764   9.629   0.612 -1.0128  0.1372 -1.9664
  434MOL0     H58546   8.882   9.813   0.494  0.0519 -2.7341  0.9335
  434MOL0     H58547   8.773   9.933   0.550  0.0730 -0.4206  0.7713
  434MOL0     H58548   8.581   9.832   0.445 -0.6157 -1.6489 -0.2760
  434MOL0     H58549   8.695   9.734   0.350  0.6758  1.4823 -1.3626
  434MOL0     H58550   8.797  10.120   0.167  0.0151 -0.3958  1.5991
  434MOL0     H58551   8.874  10.152  -0.130  0.3002  0.8100  0.1854
  434MOL0     H58552   8.942  10.232   0.015 -1.3122  0.8615  0.1652
  434MOL0     H58553   9.044  10.154  -0.105 -1.0165 -1.7861 -0.8276
  434MOL0     H58554   9.189  10.141  -0.375  1.0926 -1.2091  2.6028
  434MOL0     H58555   9.200  10.153  -0.628 -1.6444  1.3980  1.4840
  434MOL0     H58556   9.003   9.789  -0.856 -1.3726 -0.0085 -2.3612
  434MOL0     H58557   9.084   9.881  -0.974 -0.0681  5.2648  1.9620
  434MOL0     H58558   9.303   9.775  -0.915  1.6121  0.0404  2.7004
  434MOL0     H58559   9.253   9.738  -0.760  0.5083  0.3884  0.7405
  434MOL0     H58560   9.122   9.548  -0.821  1.1394  0.1255  0.3604
  434MOL0     H58561   9.276   9.531  -0.877  0.2444  0.1948  0.4869
  434MOL0     H58562   9.164   9.443  -1.058 -1.5353 -0.9584  0.6723
  434MOL0     H58563   9.044   9.583  -1.057  0.6504  1.9903 -0.7962
  434MOL0     H58564   9.336   9.602  -1.139  0.7857  1.4234  0.1919
  434MOL0     H58565   9.209   9.729  -1.135 -1.2617 -0.8714  0.3117
  434MOL0     H58566   9.170   9.467  -1.289 -0.5406  0.1118  0.7664
  434MOL0     H58567   9.088   9.620  -1.324 -1.2350 -4.3663 -3.8383
  434MOL0     H58568   9.379   9.577  -1.364 -0.9015 -1.7598 -0.1180
  434MOL0     H58569   9.297   9.732  -1.356 -3.3342  0.5070 -0.0729
  434MOL0     H58570   9.332   9.661  -1.586 -0.4464  0.9105  0.8337
  434MOL0     H58571   9.164   9.674  -1.550  0.5562  1.2483 -2.7243
  434MOL0     H58572   9.007   9.751  -0.615  1.5338 -2.4284  4.9617
  434MOL0     H58573   9.003   9.772  -0.387  0.9019  0.1514  1.7616
  434MOL0     H58574   9.025   9.681   0.094  0.1959  0.0908 -1.2289
  434MOL0     H58575   8.873   9.714   0.277 -2.9932 -0.5317 -1.0079
  434MOL0     H58576   8.102   9.373   1.303  0.4274 -1.7396  0.8964
  434MOL0     H58577   8.067   9.157   1.454 -0.9871 -0.2775  1.0313
  434MOL0     H58578   8.095   8.864   1.852 -0.0968 -0.6087  2.4221
  434MOL0     H58579   7.986   8.667   1.982  0.3149  2.2174  1.4425
  434MOL0     H58580   7.553   8.618   1.885 -1.4827 -1.2261  0.2363
  434MOL0     H58581   7.575   8.494   1.983  2.0579  0.3043 -2.4288
  434MOL0     H58582   7.423   8.620   2.110  0.5348 -0.6962 -0.0865
  434MOL0     H58583   7.509   8.780   2.068 -1.0167 -0.3580  0.4963
  434MOL0     H58584   7.677   8.662   2.227  0.8763 -3.9968  0.8774
  434MOL0     H58585   7.545   8.570   2.286 -1.4163  0.4095 -0.3962
  434MOL0     H58586   7.401   8.776   2.329 -0.3738  1.2218  0.1240
  434MOL0     H58587   7.544   8.868   2.259 -2.3755  0.1184 -0.4218
  434MOL0     H58588   7.654   8.839   2.651 -0.1189  0.1095 -0.3627
  434MOL0     H58589   7.606   8.842   1.826  0.7679 -1.0394 -0.9129
  434MOL0     H58590   7.706   9.010   1.763 -2.1005 -2.1703  0.5564
  435MOL0     O58591   4.219   1.083  10.404  0.0277  0.3749  0.1011
  435MOL0     C58592   4.125   1.130  10.343 -0.6900  0.5799  0.2547
  435MOL0     O58593   4.067   1.080  10.232 -0.1047 -0.0668 -0.0316
  435MOL0     C58594   4.116   0.964  10.182 -0.0404  0.6549 -0.0340
  435MOL0     C58595   4.255   0.950  10.141 -1.3770  0.4318 -0.2121
  435MOL0     C58596   4.291   0.834  10.069 -0.1248  0.5453  0.3051
  435MOL0     C58597   4.198   0.739  10.029  1.2788  0.0820 -0.9698
  435MOL0     O58598   4.227   0.642   9.940 -0.0504 -0.3083 -0.3965
  435MOL0     C58599   4.311   0.538  10.008  0.0738 -0.0640 -0.2201
  435MOL0     C58600   4.316   0.419   9.917  0.5184  0.2505 -0.1677
  435MOL0     C58601   4.367   0.287   9.985  0.1873  0.4757  0.1390
  435MOL0     C58602   4.258   0.201  10.052 -0.5727 -1.4778  0.7669
  435MOL0     C58603   4.315   0.111  10.153 -0.2359  0.4568 -0.0464
  435MOL0     C58604   4.190   0.019  10.190 -0.1232  1.0214  0.8393
  435MOL0     C58605   4.245  -0.083  10.288  0.0436  0.6119  0.5319
  435MOL0     C58606   4.150  -0.188  10.344  0.6238 -0.4981 -0.2313
  435MOL0     N58607   4.047  -0.134  10.419  0.0871  0.1694 -0.2513
  435MOL0     C58608   4.058  -0.045  10.530  0.6406 -0.0132  0.8640
  435MOL0     C58609   3.941  -0.053  10.599 -0.0548 -1.4931 -0.0174
  435MOL0     C58610   3.912   0.005  10.729 -1.0853  0.9336 -1.0667
  435MOL0     C58611   3.791   0.092  10.742 -0.5833  0.2813 -0.4010
  435MOL0     C58612   3.742   0.123  10.894  0.0701 -0.4742  0.2135
  435MOL0     C58613   3.623   0.219  10.899 -0.4266  1.1910  0.0265
  435MOL0     O58614   3.661   0.356  10.879 -1.1282 -0.3158 -0.3133
  435MOL0     C58615   3.572   0.447  10.912  0.1013  0.5285 -1.2025
  435MOL0     C58616   3.479   0.449  11.024 -0.3067 -0.4939  0.4281
  435MOL0     C58617   3.416   0.567  11.076 -0.3409  0.2137 -0.5813
  435MOL0     C58618   3.334   0.554  11.192 -0.3821  0.5444 -0.4365
  435MOL0     C58619   3.440   0.686  10.998  0.6856 -0.1944  0.6638
  435MOL0     C58620   3.377   0.820  11.035  0.2433  0.0032 -0.1927
  435MOL0     O58621   3.433   0.941  10.986 -0.0672  0.2118 -1.3855
  435MOL0     C58622   3.364   1.064  10.990 -0.3641  0.4047  1.2046
  435MOL0     C58623   3.451   1.180  10.986 -0.7823 -0.2427  0.4492
  435MOL0     C58624   3.393   1.306  10.974  0.6172 -0.2824 -0.0774
  435MOL0     C58625   3.251   1.314  10.974  0.0046  0.4984  0.1583
  435MOL0     O58626   3.185   1.430  10.968 -0.4490  0.4410  0.0089
  435MOL0     C58627   3.241   1.540  11.039  0.6294 -0.0646 -0.2795
  435MOL0     C58628   3.129   1.640  11.056  0.1915  0.0202  0.5211
  435MOL0     C58629   3.024   1.601  11.157  0.6345 -0.8271  0.1963
  435MOL0     C58630   2.892   1.685  11.138 -0.3943 -0.4403  0.0504
  435MOL0     C58631   2.918   1.841  11.130 -1.4269  1.1231 -0.3236
  435MOL0     C58632   2.789   1.927  11.150  0.1019 -0.6111 -0.2025
  435MOL0     C58633   2.753   1.962  11.292 -0.1615  0.0796 -1.3794
  435MOL0     C58634   2.870   2.044  11.359 -0.2207 -0.2497  0.0817
  435MOL0    Cl58635   2.912   2.188  11.264 -0.2074 -0.0939 -0.0094
  435MOL0     C58636   3.170   1.205  10.968  0.0783 -0.5395 -0.4537
  435MOL0     C58637   3.220   1.075  10.973  0.5034 -0.1768 -0.1458
  435MOL0     O58638   3.285   0.816  11.122 -0.1068  0.0498 -0.5446
  435MOL0     C58639   3.527   0.686  10.885  0.1382  0.7402  0.3384
  435MOL0     C58640   3.579   0.567  10.840  1.5579 -0.9328 -0.3087
  435MOL0     N58641   3.859  -0.137  10.525  0.7816  0.0146 -0.4234
  435MOL0     N58642   3.908  -0.176  10.416  0.1052 -0.3661  0.4460
  435MOL0     C58643   4.062   0.760  10.065  0.1660  0.5674 -0.2501
  435MOL0     C58644   4.017   0.863  10.147 -1.0734 -0.2854 -0.7070
  435MOL0     C58645   4.072   1.253  10.399  0.5206  0.0746  0.3009
  435MOL0     C58646   4.022   1.263  10.530 -0.0951 -0.3246  0.1540
  435MOL0     C58647   3.973   1.391  10.575 -0.5848  0.5219 -0.8162
  435MOL0     C58648   3.963   1.503  10.496 -0.2996 -0.5377 -0.2382
  435MOL0     O58649   3.891   1.620  10.533  0.2335 -0.0338 -0.1154
  435MOL0     C58650   3.863   1.737  10.461  0.1783  0.2976  0.3877
  435MOL0     C58651   3.817   1.831  10.572 -0.3452  0.3234 -0.2307
  435MOL0     C58652   3.749   1.952  10.521 -1.0271 -0.4600 -0.2345
  435MOL0     C58653   3.697   2.037  10.644  0.0567  0.6909  0.2837
  435MOL0     C58654   3.794   2.119  10.719 -0.7594  0.7170 -0.5202
  435MOL0     C58655   3.864   2.193  10.781  0.5363 -0.0787 -0.9996
  435MOL0     C58656   4.012   1.491  10.368 -0.9377 -0.0758  0.4872
  435MOL0     C58657   4.059   1.370  10.315 -0.6211  0.5131 -0.5123
  435MOL0     H58658   4.330   1.027  10.154 -0.6333  0.0914 -2.2015
  435MOL0     H58659   4.376   0.834  10.002 -0.1179  1.3957  0.3024
  435MOL0     H58660   4.413   0.565  10.038  0.1996 -1.8712  1.1423
  435MOL0     H58661   4.270   0.491  10.098 -1.2596  1.4015 -0.0103
  435MOL0     H58662   4.225   0.404   9.859 -0.4982  1.3676  1.0733
  435MOL0     H58663   4.392   0.440   9.841  0.2551  1.3358 -0.1544
  435MOL0     H58664   4.402   0.222   9.905 -2.5335  0.0028 -0.7972
  435MOL0     H58665   4.453   0.318  10.044  2.3959 -0.2535 -2.5195
  435MOL0     H58666   4.184   0.274  10.085  1.8376  0.9555  1.1010
  435MOL0     H58667   4.207   0.139   9.977  1.1630 -3.1688  0.9053
  435MOL0     H58668   4.389   0.050  10.101 -0.3377  1.6209 -1.6261
  435MOL0     H58669   4.366   0.166  10.233  2.7411  0.3898 -1.7865
  435MOL0     H58670   4.115   0.082  10.238  1.3578  1.5868  2.5103
  435MOL0     H58671   4.152  -0.042  10.107  2.2399  1.7289 -0.8952
  435MOL0     H58672   4.315  -0.144  10.230  1.3310  1.9420  0.6421
  435MOL0     H58673   4.310  -0.034  10.360 -2.2487  3.5388  0.8147
  435MOL0     H58674   4.203  -0.249  10.418 -0.8076  1.8520  2.9634
  435MOL0     H58675   4.113  -0.251  10.262 -4.2594 -0.7672  1.8226
  435MOL0     H58676   4.152   0.006  10.549  0.7679 -0.2144  0.7793
  435MOL0     H58677   3.901  -0.080  10.797  0.9956  0.3189 -1.4122
  435MOL0     H58678   4.004   0.058  10.754  2.6901 -4.3863 -1.7826
  435MOL0     H58679   3.703   0.035  10.709 -1.4777  0.6423  1.2812
  435MOL0     H58680   3.808   0.184  10.685  1.2201 -1.0427 -2.1584
  435MOL0     H58681   3.821   0.180  10.943  0.6096  0.2040 -1.3588
  435MOL0     H58682   3.725   0.028  10.946  0.6541  0.1872  1.6542
  435MOL0     H58683   3.569   0.215  10.994 -0.8843 -0.4002 -0.2652
  435MOL0     H58684   3.548   0.187  10.826  0.7459  0.0482 -0.7194
  435MOL0     H58685   3.464   0.361  11.085 -0.4979 -1.2452 -0.6633
  435MOL0     H58686   3.231   0.586  11.177 -0.4795 -0.8691 -3.4192
  435MOL0     H58687   3.327   0.449  11.221  0.1629  0.4359 -0.6646
  435MOL0     H58688   3.383   0.599  11.279  0.4835  1.7132 -1.4820
  435MOL0     H58689   3.559   1.175  10.990 -0.8232 -0.3977  2.9247
  435MOL0     H58690   3.466   1.386  10.966  0.5962 -0.0903  1.3942
  435MOL0     H58691   3.254   1.505  11.142 -0.8812  3.2611  1.1898
  435MOL0     H58692   3.332   1.584  10.998  1.2994  0.2201  1.4184
  435MOL0     H58693   3.166   1.734  11.098 -2.8873  1.9049 -0.5930
  435MOL0     H58694   3.080   1.664  10.961  3.9703 -0.7128 -1.8176
  435MOL0     H58695   3.057   1.631  11.257 -1.6030 -0.6326  0.9515
  435MOL0     H58696   3.000   1.495  11.156 -1.2399 -0.4488  0.5117
  435MOL0     H58697   2.821   1.647  11.064 -1.7158 -3.4708  2.6828
  435MOL0     H58698   2.840   1.666  11.232  2.6103 -4.7193  1.1584
  435MOL0     H58699   2.964   1.874  11.036  1.0380  1.9359  1.0805
  435MOL0     H58700   2.997   1.861  11.203  0.1696 -2.9876 -0.6157
  435MOL0     H58701   2.789   2.022  11.095  2.7904 -0.0414  0.6305
  435MOL0     H58702   2.711   1.866  11.104  0.5187 -0.2487 -1.4573
  435MOL0     H58703   2.750   1.869  11.348  3.0868 -0.6910 -2.2529
  435MOL0     H58704   2.659   2.018  11.300 -1.3307 -2.0032  0.5138
  435MOL0     H58705   2.961   1.984  11.357 -0.2521 -0.2902 -1.2482
  435MOL0     H58706   2.842   2.083  11.457 -1.2810  2.7109 -1.2857
  435MOL0     H58707   3.068   1.221  10.937  1.3738  2.4103 -3.9465
  435MOL0     H58708   3.148   0.994  10.964 -1.6615  1.6133  0.0291
  435MOL0     H58709   3.545   0.780  10.836  3.3394 -0.6572 -1.4645
  435MOL0     H58710   3.657   0.571  10.764 -0.4147 -0.8461 -2.4240
  435MOL0     H58711   3.987   0.687  10.035 -0.4473  2.3944 -3.7158
  435MOL0     H58712   3.917   0.879  10.188 -0.0776  4.0965  0.5857
  435MOL0     H58713   4.027   1.186  10.607 -1.9322  1.4886  2.2341
  435MOL0     H58714   3.940   1.399  10.678 -4.2404  1.5965 -1.9347
  435MOL0     H58715   3.956   1.774  10.418  0.5211 -1.4666 -0.5021
  435MOL0     H58716   3.790   1.726  10.381  0.7787  2.2526 -0.4823
  435MOL0     H58717   3.906   1.866  10.624 -1.4548  0.8263  1.4298
  435MOL0     H58718   3.757   1.773  10.644  2.0786 -4.3322 -1.5450
  435MOL0     H58719   3.663   1.930  10.457  0.5859  0.1537 -2.7891
  435MOL0     H58720   3.825   2.002  10.459 -1.9286  1.6354  0.2370
  435MOL0     H58721   3.647   1.980  10.723  1.5424  0.3140  0.9992
  435MOL0     H58722   3.631   2.109  10.596 -1.1792 -1.5985 -1.6447
  435MOL0     H58723   3.927   2.251  10.846 -0.5425 -0.8742  0.8332
  435MOL0     H58724   4.002   1.577  10.303 -4.4425 -0.2267  0.6229
  435MOL0     H58725   4.094   1.369  10.212 -0.0086  0.7345 -0.3063
  436MOL0     O58726  10.649   0.801   0.819 -0.0935  0.0376  0.0790
  436MOL0     C58727  10.628   0.693   0.756  0.3925  0.2433  0.2828
  436MOL0     O58728  10.507   0.652   0.708 -0.1237 -0.5164 -0.1494
  436MOL0     C58729  10.389   0.718   0.741 -0.4675  0.1269 -0.3184
  436MOL0     C58730  10.302   0.751   0.641  0.8591  0.8057  0.4590
  436MOL0     C58731  10.173   0.804   0.653 -0.5905 -0.0375 -0.4758
  436MOL0     C58732  10.128   0.831   0.781 -1.2170 -0.1860 -0.3393
  436MOL0     O58733  10.012   0.904   0.795 -0.0707 -0.0500 -0.3531
  436MOL0     C58734   9.997   1.008   0.889 -0.2344 -0.9071  0.0834
  436MOL0     C58735   9.863   1.073   0.854  0.6627 -0.2463  0.3881
  436MOL0     C58736   9.857   1.150   0.712 -0.5244  0.7574 -0.8806
  436MOL0     C58737   9.714   1.197   0.669 -0.2301  0.0847 -0.0563
  436MOL0     C58738   9.720   1.250   0.530  0.4510  0.2988  0.7041
  436MOL0     C58739   9.787   1.383   0.510 -0.3915 -0.0076 -0.3575
  436MOL0     C58740   9.796   1.440   0.368 -0.0909 -0.0749 -0.0527
  436MOL0     C58741   9.657   1.475   0.314  0.2147 -0.4013  0.8302
  436MOL0     N58742   9.662   1.556   0.186  1.1131  0.7098 -0.2082
  436MOL0     C58743   9.728   1.673   0.153  0.2206 -0.6028 -0.1711
  436MOL0     C58744   9.679   1.697   0.027 -0.1363 -1.0015  0.2261
  436MOL0     C58745   9.725   1.808  -0.054  0.4747  0.1403  0.2039
  436MOL0     C58746   9.625   1.914  -0.085  1.0470  0.6618 -0.5721
  436MOL0     C58747   9.599   1.998   0.036  0.4559 -0.4544 -0.1922
  436MOL0     C58748   9.498   2.110  -0.001 -0.2200 -0.9720 -0.3857
  436MOL0     O58749   9.488   2.162  -0.131  0.5042  0.1440  0.7881
  436MOL0     C58750   9.382   2.252  -0.156 -0.3391  0.0727 -0.9368
  436MOL0     C58751   9.281   2.282  -0.072 -0.3615 -0.5307 -0.1237
  436MOL0     C58752   9.180   2.373  -0.116 -1.0035  0.0108 -0.9945
  436MOL0     C58753   9.059   2.393  -0.021 -0.4145  0.2149  0.6527
  436MOL0     C58754   9.186   2.438  -0.246  0.9603  0.0605 -0.7491
  436MOL0     C58755   9.087   2.547  -0.282 -0.3953  0.3600  0.0582
  436MOL0     O58756   9.080   2.557  -0.414  0.4729  0.5892  1.0469
  436MOL0     C58757   9.001   2.662  -0.464 -0.1864 -0.2420 -0.0224
  436MOL0     C58758   9.066   2.756  -0.547 -0.4474  0.4878  1.0530
  436MOL0     C58759   8.996   2.871  -0.605  1.2020  0.0591  0.1995
  436MOL0     C58760   8.848   2.883  -0.560 -0.5486 -0.1667 -0.1409
  436MOL0     O58761   8.768   2.980  -0.609  0.2266 -0.0146 -0.1706
  436MOL0     C58762   8.832   3.108  -0.640  0.2587 -0.3718  0.5437
  436MOL0     C58763   8.710   3.208  -0.648 -0.0501 -0.3426 -0.5105
  436MOL0     C58764   8.591   3.157  -0.728  0.3948  0.2176  1.4272
  436MOL0     C58765   8.632   3.093  -0.872 -0.2446  0.3802 -0.5796
  436MOL0     C58766   8.498   3.060  -0.951 -1.0213 -0.5239 -0.0279
  436MOL0     C58767   8.451   3.156  -1.056 -0.3097  0.6152 -0.1050
  436MOL0     C58768   8.386   3.283  -0.996  0.0284  0.2824  0.3299
  436MOL0     C58769   8.338   3.396  -1.097 -0.2876  0.2031 -0.0891
  436MOL0    Cl58770   8.481   3.456  -1.186 -0.3798 -0.3364  0.1494
  436MOL0     C58771   8.793   2.782  -0.487  0.1256  0.9626 -0.4543
  436MOL0     C58772   8.866   2.684  -0.434 -0.0060 -0.1611  0.3064
  436MOL0     O58773   9.040   2.618  -0.194 -0.5832  0.8068  0.1445
  436MOL0     C58774   9.290   2.402  -0.324  0.4267  0.5257 -1.1032
  436MOL0     C58775   9.385   2.307  -0.286 -0.3773  0.4068  0.4836
  436MOL0     N58776   9.594   1.589  -0.008 -0.0848 -0.2314  0.2392
  436MOL0     N58777   9.575   1.513   0.092  1.1317 -0.2069  0.6380
  436MOL0     C58778  10.214   0.803   0.892 -0.7134  0.1968  0.0567
  436MOL0     C58779  10.345   0.752   0.869 -0.5099 -0.6013  0.4869
  436MOL0     C58780  10.740   0.597   0.733 -0.1888  0.6227  0.1855
  436MOL0     C58781  10.861   0.605   0.800  0.3048  0.1917 -0.0136
  436MOL0     C58782  10.961   0.511   0.794 -1.0536  0.9974  0.5284
  436MOL0     C58783  10.956   0.419   0.696 -1.0741  0.4945 -0.4146
  436MOL0     O58784  11.064   0.342   0.648 -0.1113 -0.2142  0.3366
  436MOL0     C58785  11.197   0.386   0.670 -0.0365  0.4367 -0.3178
  436MOL0     C58786  11.276   0.260   0.734  0.3899  0.6724 -0.2780
  436MOL0     C58787  11.254   0.216   0.882  1.4941 -0.1064 -0.1133
  436MOL0     C58788  11.335   0.093   0.934  0.7422  1.0399  0.6939
  436MOL0     C58789  11.474   0.108   0.897 -0.3323  1.7280 -0.3617
  436MOL0     C58790  11.590   0.131   0.885  0.8255 -0.2101 -0.2943
  436MOL0     C58791  10.841   0.401   0.627 -0.8136 -0.3502  0.0439
  436MOL0     C58792  10.727   0.482   0.657  0.1990 -0.0623 -0.3940
  436MOL0     H58793  10.345   0.739   0.543  1.1768 -1.8606  0.8476
  436MOL0     H58794  10.110   0.817   0.565 -1.9228 -0.4646  0.3770
  436MOL0     H58795  10.007   0.970   0.991  1.3418  2.1075  1.1869
  436MOL0     H58796  10.072   1.082   0.857 -2.2087  1.0768 -0.1560
  436MOL0     H58797   9.781   1.002   0.862  0.0057  0.3155 -1.0647
  436MOL0     H58798   9.839   1.159   0.916 -0.5249 -0.8738  0.8250
  436MOL0     H58799   9.929   1.233   0.711  0.8173 -0.3617 -2.6964
  436MOL0     H58800   9.898   1.078   0.641  1.7293 -1.3306  2.2321
  436MOL0     H58801   9.654   1.106   0.682 -0.2252  0.4933  4.6256
  436MOL0     H58802   9.679   1.273   0.739 -3.3969 -1.9865  0.8315
  436MOL0     H58803   9.765   1.174   0.465  1.6059  2.6011 -1.3352
  436MOL0     H58804   9.619   1.257   0.490  1.7935  3.8854 -2.7058
  436MOL0     H58805   9.739   1.460   0.572  2.1376  2.2753 -1.0630
  436MOL0     H58806   9.891   1.378   0.544 -0.9313 -0.3729  1.3698
  436MOL0     H58807   9.863   1.527   0.374 -0.9196  0.5776 -0.1011
  436MOL0     H58808   9.850   1.372   0.302  0.8243  0.0783  0.5185
  436MOL0     H58809   9.594   1.536   0.379 -0.5016  0.7931 -0.9273
  436MOL0     H58810   9.612   1.382   0.281  3.3284 -1.2808 -1.4231
  436MOL0     H58811   9.798   1.729   0.214  0.6228 -0.5794 -0.6536
  436MOL0     H58812   9.811   1.857  -0.008  1.3434  2.2876 -3.3234
  436MOL0     H58813   9.751   1.757  -0.148 -3.9122  0.2849 -1.3367
  436MOL0     H58814   9.532   1.861  -0.109 -0.0334  0.0910  3.9182
  436MOL0     H58815   9.659   1.973  -0.170  0.2092 -0.3658 -1.6573
  436MOL0     H58816   9.692   2.053   0.049  1.6672 -1.5724 -3.1419
  436MOL0     H58817   9.586   1.951   0.134  1.2146 -3.3236 -1.3829
  436MOL0     H58818   9.508   2.183   0.080 -1.0124 -3.3201  1.9478
  436MOL0     H58819   9.402   2.060   0.016 -1.0295 -0.0363 -1.9740
  436MOL0     H58820   9.262   2.234   0.023 -2.9629 -0.2614 -0.4283
  436MOL0     H58821   8.962   2.409  -0.068 -1.0470  0.7965  2.1079
  436MOL0     H58822   9.066   2.309   0.048  3.3554 -0.7080 -0.6023
  436MOL0     H58823   9.092   2.467   0.052  3.3391 -0.7792  0.1801
  436MOL0     H58824   9.171   2.735  -0.568 -0.8138 -1.1700  0.7232
  436MOL0     H58825   9.053   2.936  -0.670 -2.8676  3.6201 -0.2772
  436MOL0     H58826   8.894   3.132  -0.553 -3.0235  1.0159  2.6984
  436MOL0     H58827   8.899   3.104  -0.726  1.3550  4.8399  0.8524
  436MOL0     H58828   8.672   3.228  -0.547 -0.1630 -2.5018 -0.0769
  436MOL0     H58829   8.745   3.300  -0.695  1.4938 -2.0067 -2.7855
  436MOL0     H58830   8.525   3.243  -0.746  3.0637  1.9891 -0.6346
  436MOL0     H58831   8.527   3.081  -0.682 -1.5275  1.4434  0.9055
  436MOL0     H58832   8.682   3.172  -0.929 -3.4582  5.7451  3.0308
  436MOL0     H58833   8.696   3.006  -0.857 -0.2310  0.3635 -0.7365
  436MOL0     H58834   8.406   3.055  -0.892 -3.0929 -5.8758 -3.0275
  436MOL0     H58835   8.507   2.955  -0.982  1.2377 -0.8745  1.5706
  436MOL0     H58836   8.535   3.182  -1.121  0.1401  1.8656  0.9298
  436MOL0     H58837   8.370   3.103  -1.108 -0.4289 -0.2723  0.9494
  436MOL0     H58838   8.449   3.340  -0.928  0.2249 -0.9433  1.2095
  436MOL0     H58839   8.294   3.265  -0.939 -1.7269  1.5775 -1.8862
  436MOL0     H58840   8.282   3.478  -1.050 -2.8660 -0.0969 -2.4094
  436MOL0     H58841   8.261   3.354  -1.162 -1.1548  1.1965  0.2753
  436MOL0     H58842   8.687   2.783  -0.466 -0.3524  2.8405 -2.4488
  436MOL0     H58843   8.810   2.610  -0.379 -0.5096 -0.0158  0.0001
  436MOL0     H58844   9.289   2.433  -0.428 -2.2432 -2.8957 -2.2836
  436MOL0     H58845   9.460   2.284  -0.361 -0.7855  1.7855 -0.3808
  436MOL0     H58846  10.181   0.836   0.990  1.1336  2.5010 -0.0085
  436MOL0     H58847  10.407   0.749   0.958 -4.6998 -0.3873  3.7078
  436MOL0     H58848  10.878   0.690   0.864  0.8756 -1.1192  1.6476
  436MOL0     H58849  11.055   0.523   0.847  0.6203  0.7480 -2.1596
  436MOL0     H58850  11.249   0.426   0.583  0.7284  4.0247  1.5989
  436MOL0     H58851  11.204   0.463   0.747  0.8382 -0.6737  0.7643
  436MOL0     H58852  11.377   0.299   0.745  1.2342 -1.2086 -0.9569
  436MOL0     H58853  11.255   0.175   0.669 -1.3984 -0.0148  1.0904
  436MOL0     H58854  11.153   0.215   0.922  2.0558  0.9896  1.4083
  436MOL0     H58855  11.287   0.300   0.944 -0.2875  0.6944 -0.1981
  436MOL0     H58856  11.306  -0.001   0.886  0.9948 -1.0574  4.2782
  436MOL0     H58857  11.315   0.065   1.038 -1.1534 -1.8491 -0.3332
  436MOL0     H58858  11.692   0.165   0.876  1.2059 -1.1416  0.3916
  436MOL0     H58859  10.835   0.316   0.560  0.1055 -0.4258  0.0509
  436MOL0     H58860  10.633   0.468   0.604 -0.3623  1.2283  0.2151
  437MOL0     O58861   7.585   7.518   7.046 -0.0193 -0.2930  0.0730
  437MOL0     C58862   7.644   7.606   6.986 -0.5719 -0.3275  0.7523
  437MOL0     O58863   7.789   7.615   6.964  0.2683 -0.0870 -0.2698
  437MOL0     C58864   7.866   7.516   7.010 -0.9217  0.8835  0.0671
  437MOL0     C58865   7.839   7.379   7.012  0.2560 -0.6482  0.6892
  437MOL0     C58866   7.921   7.287   7.077 -0.4536 -0.5844  0.1736
  437MOL0     C58867   8.035   7.329   7.149 -0.1690  0.2245  0.0352
  437MOL0     O58868   8.106   7.225   7.213  0.4062  0.0592  0.2649
  437MOL0     C58869   8.154   7.231   7.345 -0.2929  0.3129  0.0776
  437MOL0     C58870   8.297   7.180   7.356  0.4203 -0.2709 -1.1502
  437MOL0     C58871   8.348   7.204   7.498  0.1111 -0.3607 -0.4483
  437MOL0     C58872   8.452   7.328   7.517 -0.2701 -0.5727  0.3602
  437MOL0     C58873   8.491   7.347   7.661  0.9734  1.3162 -0.3160
  437MOL0     C58874   8.606   7.438   7.661 -0.0633  0.1240  0.6228
  437MOL0     C58875   8.658   7.465   7.804 -0.1427  0.2129 -0.0054
  437MOL0     C58876   8.787   7.538   7.808 -0.3268  0.4906  0.3649
  437MOL0     N58877   8.767   7.675   7.837 -0.3015 -0.1211 -0.0637
  437MOL0     C58878   8.799   7.724   7.963  0.3621 -0.0376  0.1481
  437MOL0     C58879   8.810   7.856   7.942 -0.0974  0.0998 -0.4439
  437MOL0     C58880   8.833   7.944   8.053 -0.0789  0.6078  0.5123
  437MOL0     C58881   8.966   7.926   8.128 -0.0658 -0.5094 -0.5443
  437MOL0     C58882   8.969   8.035   8.237 -0.0029 -0.0734  0.9115
  437MOL0     C58883   9.110   8.064   8.295  0.9788 -0.6592  0.2662
  437MOL0     O58884   9.097   8.148   8.408  0.8321  0.0090 -0.5410
  437MOL0     C58885   9.219   8.174   8.474  0.1826 -0.6258  0.9004
  437MOL0     C58886   9.341   8.111   8.439 -0.3898  0.8352  0.1523
  437MOL0     C58887   9.462   8.147   8.505 -0.1775 -0.4184  0.6601
  437MOL0     C58888   9.586   8.081   8.450 -0.9088  0.6144 -0.2166
  437MOL0     C58889   9.459   8.243   8.612 -0.5327 -0.0560  0.2275
  437MOL0     C58890   9.578   8.291   8.692 -0.0257  0.2482 -0.0647
  437MOL0     O58891   9.549   8.387   8.780  0.4493 -0.4211 -0.2717
  437MOL0     C58892   9.645   8.479   8.818  0.0672  0.0224 -0.1563
  437MOL0     C58893   9.753   8.439   8.891  0.5224  0.7739 -0.7795
  437MOL0     C58894   9.851   8.531   8.922 -0.2354 -0.5435  0.2436
  437MOL0     C58895   9.847   8.659   8.881 -0.4961 -1.2934  0.9705
  437MOL0     O58896   9.951   8.752   8.882 -0.9247 -0.2737  0.2082
  437MOL0     C58897  10.086   8.706   8.893 -0.1114  0.5395 -0.2220
  437MOL0     C58898  10.162   8.815   8.968 -0.4211 -0.1128 -0.4242
  437MOL0     C58899  10.186   8.937   8.885  0.2061 -0.7464  0.6111
  437MOL0     C58900  10.332   9.010   8.881  0.3559  0.2189  0.4014
  437MOL0     C58901  10.334   9.133   8.789 -0.3093  0.8588 -0.5188
  437MOL0     C58902  10.472   9.197   8.805 -0.4270  0.1788  0.2061
  437MOL0     C58903  10.474   9.333   8.724  0.0819  0.5865  0.6388
  437MOL0     C58904  10.615   9.399   8.756 -0.1160 -0.6016  0.2759
  437MOL0    Cl58905  10.661   9.460   8.920 -0.0431 -0.2621 -0.0536
  437MOL0     C58906   9.734   8.705   8.814 -0.6165 -0.5514  0.0436
  437MOL0     C58907   9.627   8.614   8.776 -0.6214  0.5195 -0.5140
  437MOL0     O58908   9.688   8.235   8.679 -0.3656  0.1904 -0.7680
  437MOL0     C58909   9.340   8.301   8.646 -0.0542 -0.5776 -0.3444
  437MOL0     C58910   9.223   8.271   8.582 -0.2319 -0.0343 -0.6263
  437MOL0     N58911   8.786   7.885   7.816 -0.7769 -0.8682 -0.0866
  437MOL0     N58912   8.756   7.775   7.748  0.4108 -0.2476 -0.3327
  437MOL0     C58913   8.059   7.467   7.148 -1.1410  0.3456 -0.1015
  437MOL0     C58914   7.984   7.557   7.074 -0.5584 -0.0052  0.7694
  437MOL0     C58915   7.572   7.726   6.947  0.2625 -0.1367 -0.4836
  437MOL0     C58916   7.613   7.823   6.851 -0.0499  0.3668 -0.6377
  437MOL0     C58917   7.533   7.930   6.809  0.0825 -1.2308 -0.4877
  437MOL0     C58918   7.405   7.947   6.859 -0.1762 -0.3910  0.1833
  437MOL0     O58919   7.337   8.052   6.809  0.3777 -0.5215  0.5038
  437MOL0     C58920   7.302   8.142   6.912  0.7268  0.4181 -0.7061
  437MOL0     C58921   7.375   8.277   6.903 -0.1054 -0.3288 -0.0230
  437MOL0     C58922   7.346   8.360   6.770 -0.1880 -0.4064  0.2225
  437MOL0     C58923   7.422   8.494   6.774  0.0257 -0.8749  0.2622
  437MOL0     C58924   7.557   8.482   6.727 -0.5895 -0.2423  0.6508
  437MOL0     C58925   7.673   8.485   6.684  0.2173  0.4584  0.1975
  437MOL0     C58926   7.357   7.841   6.942  0.0004 -0.0118 -0.9984
  437MOL0     C58927   7.435   7.737   6.983  0.1203 -0.5350 -0.6231
  437MOL0     H58928   7.749   7.338   6.966  0.0055 -2.0922  2.3586
  437MOL0     H58929   7.900   7.182   7.059  0.2135 -0.2485 -3.2211
  437MOL0     H58930   8.152   7.338   7.366 -1.4098  0.9048 -2.6136
  437MOL0     H58931   8.088   7.182   7.418  1.1089  2.5002  3.0202
  437MOL0     H58932   8.302   7.072   7.339  0.8390 -0.7271  1.4460
  437MOL0     H58933   8.362   7.231   7.285  0.1360  2.0805  0.2019
  437MOL0     H58934   8.269   7.227   7.571 -0.2284  3.1178 -1.7116
  437MOL0     H58935   8.389   7.112   7.541 -1.7846  0.1478  2.8333
  437MOL0     H58936   8.534   7.299   7.451 -0.9884 -2.0424  0.0592
  437MOL0     H58937   8.415   7.421   7.473 -1.3330 -0.3164  1.7290
  437MOL0     H58938   8.404   7.387   7.714 -0.8915 -2.5046 -0.1843
  437MOL0     H58939   8.529   7.247   7.683  0.9511  0.5904 -3.1952
  437MOL0     H58940   8.689   7.396   7.604  1.1078  3.1931 -0.1319
  437MOL0     H58941   8.574   7.534   7.620 -0.1441  0.8984  2.4098
  437MOL0     H58942   8.588   7.507   7.876  1.3572 -0.5771  1.9887
  437MOL0     H58943   8.662   7.360   7.834 -1.8605 -0.7048 -2.6548
  437MOL0     H58944   8.849   7.534   7.718 -1.7882  0.4039 -0.6801
  437MOL0     H58945   8.849   7.497   7.887 -0.5469 -1.5276 -0.4423
  437MOL0     H58946   8.817   7.666   8.053 -0.6639 -3.0468 -1.4682
  437MOL0     H58947   8.835   8.041   8.004  1.5674 -1.2682 -3.6097
  437MOL0     H58948   8.749   7.938   8.123 -4.4827 -0.7651 -4.2787
  437MOL0     H58949   9.054   7.911   8.065 -0.3955 -1.3104 -0.8312
  437MOL0     H58950   8.953   7.828   8.175 -0.2265 -1.7189 -2.9277
  437MOL0     H58951   8.901   8.007   8.318 -1.9580 -4.2158 -1.8048
  437MOL0     H58952   8.941   8.129   8.189  2.8939  0.7701  0.6460
  437MOL0     H58953   9.174   8.109   8.218  2.3071 -1.4674  0.8490
  437MOL0     H58954   9.155   7.968   8.322  5.0227  0.7708 -0.6913
  437MOL0     H58955   9.342   8.031   8.365 -1.5609 -2.5644  3.4590
  437MOL0     H58956   9.557   7.987   8.401  0.4618  0.7404 -1.3230
  437MOL0     H58957   9.628   8.150   8.377  0.6930  0.2768  0.3534
  437MOL0     H58958   9.666   8.059   8.522 -1.7540  0.1698  0.6152
  437MOL0     H58959   9.757   8.334   8.919 -0.9962  1.5429  2.9936
  437MOL0     H58960   9.934   8.489   8.978  0.0193 -0.5481 -0.1307
  437MOL0     H58961  10.105   8.616   8.952  0.9896  0.9448  0.0771
  437MOL0     H58962  10.125   8.692   8.791 -3.0553  0.1127 -1.3727
  437MOL0     H58963  10.111   8.840   9.061  0.6289  0.1376  0.1056
  437MOL0     H58964  10.252   8.763   9.003  0.1229  0.5437 -0.8196
  437MOL0     H58965  10.101   9.004   8.901 -0.0405 -1.6719  3.6833
  437MOL0     H58966  10.168   8.915   8.779  2.5371  2.0097 -0.5051
  437MOL0     H58967  10.370   9.018   8.983 -1.6360 -2.2464  1.4447
  437MOL0     H58968  10.401   8.947   8.826 -2.1667 -1.1929 -1.3358
  437MOL0     H58969  10.257   9.204   8.821 -0.6340  1.0153 -1.6003
  437MOL0     H58970  10.312   9.098   8.688  1.9237 -2.4045 -0.0310
  437MOL0     H58971  10.477   9.219   8.912 -0.2063 -1.4384  0.5561
  437MOL0     H58972  10.554   9.135   8.768  0.6515  2.0194 -0.6657
  437MOL0     H58973  10.393   9.402   8.748 -0.3931  0.2420  0.0519
  437MOL0     H58974  10.473   9.325   8.615 -0.8154  0.0995  0.6743
  437MOL0     H58975  10.640   9.483   8.691 -1.9012  0.1326  0.4588
  437MOL0     H58976  10.679   9.312   8.740  1.2855  0.8039 -2.2888
  437MOL0     H58977   9.752   8.809   8.789  1.5532 -1.2777 -1.7761
  437MOL0     H58978   9.540   8.635   8.715 -1.3468 -0.3070  0.2114
  437MOL0     H58979   9.329   8.374   8.726  2.3089  0.8601 -1.2235
  437MOL0     H58980   9.130   8.319   8.613 -0.9644 -3.0818  2.5136
  437MOL0     H58981   8.131   7.526   7.204 -0.4349 -0.3155 -0.3036
  437MOL0     H58982   8.020   7.658   7.089 -0.7900  0.3450 -0.8807
  437MOL0     H58983   7.710   7.815   6.804 -1.0924 -0.9595 -2.7158
  437MOL0     H58984   7.581   8.009   6.754  2.1750 -0.5185  2.1345
  437MOL0     H58985   7.194   8.159   6.915  0.8723  1.5041  2.4924
  437MOL0     H58986   7.320   8.108   7.014  1.0578  1.9187 -0.2311
  437MOL0     H58987   7.481   8.254   6.913 -0.3996 -0.9474  2.2346
  437MOL0     H58988   7.350   8.339   6.990  3.7799 -0.3894  1.3039
  437MOL0     H58989   7.237   8.373   6.778 -0.3824 -2.6747  2.8666
  437MOL0     H58990   7.363   8.293   6.685  1.1917  0.0044  0.1515
  437MOL0     H58991   7.408   8.539   6.873  0.6446  0.7088 -0.3430
  437MOL0     H58992   7.371   8.558   6.701  0.8319  1.0742  1.3380
  437MOL0     H58993   7.776   8.476   6.657  0.7036 -2.3428  2.5878
  437MOL0     H58994   7.250   7.843   6.962 -0.1249  1.3911 -1.6735
  437MOL0     H58995   7.383   7.664   7.045  0.4334  0.1045  0.4100
  438MOL0     O58996   1.363  11.350   0.067 -0.6175 -0.1365  0.2676
  438MOL0     C58997   1.371  11.399   0.186  1.0770  0.8374  0.3716
  438MOL0     O58998   1.271  11.464   0.243  0.9228 -0.1204 -0.8732
  438MOL0     C58999   1.160  11.490   0.170  0.1485  0.0442  0.1000
  438MOL0     C59000   1.058  11.397   0.146  0.2139 -0.0700  0.1469
  438MOL0     C59001   0.944  11.419   0.075 -0.2522 -0.2318  0.4398
  438MOL0     C59002   0.926  11.551   0.024 -0.7022 -0.1252  0.5533
  438MOL0     O59003   0.817  11.589  -0.045 -0.1114  0.4277  0.7822
  438MOL0     C59004   0.701  11.506  -0.042 -0.6703  0.3921 -0.0852
  438MOL0     C59005   0.577  11.593  -0.083 -0.5716 -0.4522  0.2952
  438MOL0     C59006   0.457  11.509  -0.101  1.5804 -0.3377  0.8771
  438MOL0     C59007   0.320  11.591  -0.107 -0.0248  0.4037 -0.8884
  438MOL0     C59008   0.206  11.494  -0.127 -0.5960  0.1158  0.6645
  438MOL0     C59009   0.221  11.407  -0.256 -0.8999 -0.7737 -0.2505
  438MOL0     C59010   0.094  11.307  -0.274  0.4297 -1.0142 -0.8536
  438MOL0     C59011   0.068  11.301  -0.425 -0.5151 -0.0609 -0.2484
  438MOL0     N59012  -0.001  11.416  -0.492 -0.8852  0.6235  0.2870
  438MOL0     C59013   0.050  11.546  -0.515 -0.1626  0.7805  0.1314
  438MOL0     C59014  -0.041  11.609  -0.584 -0.5233 -0.3916 -0.1552
  438MOL0     C59015  -0.037  11.764  -0.619  0.3359 -0.0376 -0.0531
  438MOL0     C59016   0.098  11.831  -0.655 -0.8047 -0.5132  0.1786
  438MOL0     C59017   0.140  11.829  -0.802  0.7566  0.3214  0.1702
  438MOL0     C59018   0.286  11.871  -0.813  0.0116  0.8281 -0.1112
  438MOL0     O59019   0.384  11.762  -0.789  0.2530  0.3965 -0.0563
  438MOL0     C59020   0.518  11.783  -0.816 -0.0642 -0.6456 -1.7069
  438MOL0     C59021   0.577  11.897  -0.878 -0.0445  1.0519 -0.1154
  438MOL0     C59022   0.711  11.910  -0.893 -0.8566 -0.6578 -0.0146
  438MOL0     C59023   0.767  12.037  -0.962  0.2244 -0.0151  0.0714
  438MOL0     C59024   0.796  11.817  -0.838  0.2330  0.1115  0.3700
  438MOL0     C59025   0.949  11.815  -0.847  0.3881 -0.4103  0.5247
  438MOL0     O59026   1.014  11.724  -0.761  0.0176 -0.2111 -0.1142
  438MOL0     C59027   1.155  11.713  -0.763  0.3611  0.5089  1.1018
  438MOL0     C59028   1.197  11.605  -0.837  0.4165 -0.5514  0.1707
  438MOL0     C59029   1.339  11.576  -0.839  0.1976  0.0148  0.3131
  438MOL0     C59030   1.423  11.651  -0.761 -0.1126  0.0721  0.7492
  438MOL0     O59031   1.554  11.606  -0.750 -0.2838  0.0911  0.1833
  438MOL0     C59032   1.576  11.520  -0.637  0.8478 -0.2224 -0.4837
  438MOL0     C59033   1.721  11.553  -0.604 -0.1707  0.1516 -0.4131
  438MOL0     C59034   1.718  11.598  -0.454 -0.3553  0.8185 -0.2393
  438MOL0     C59035   1.849  11.607  -0.399  0.7308  0.0894  1.6054
  438MOL0     C59036   1.849  11.672  -0.256  0.1350 -0.6786  0.7099
  438MOL0     C59037   1.786  11.593  -0.142 -0.8218  0.1670  0.9934
  438MOL0     C59038   1.833  11.633  -0.005 -0.7354  0.0897 -0.9321
  438MOL0     C59039   1.743  11.730   0.067  0.7529 -0.3985  0.1651
  438MOL0    Cl59040   1.574  11.679   0.116  0.4421 -0.7728  0.1834
  438MOL0     C59041   1.374  11.761  -0.686  0.4147 -0.2179 -0.3028
  438MOL0     C59042   1.237  11.790  -0.689 -0.2855  0.0438 -0.0782
  438MOL0     O59043   0.998  11.877  -0.937 -1.0784  0.2365 -0.0346
  438MOL0     C59044   0.740  11.702  -0.776 -0.5049  0.7179  0.4728
  438MOL0     C59045   0.605  11.679  -0.771 -0.9078 -0.2248  0.7149
  438MOL0     N59046  -0.139  11.522  -0.630  0.5984 -0.6297  0.5407
  438MOL0     N59047  -0.121  11.415  -0.567 -0.9366 -0.1973 -0.6102
  438MOL0     C59048   1.027  11.648   0.031 -0.6417 -0.2951  0.5611
  438MOL0     C59049   1.143  11.618   0.105  1.0313  0.0356 -0.5562
  438MOL0     C59050   1.493  11.363   0.262  0.3009  0.7299  0.5275
  438MOL0     C59051   1.504  11.348   0.395 -0.6476  0.8439 -0.0211
  438MOL0     C59052   1.627  11.315   0.467 -0.2979 -0.7534 -0.1850
  438MOL0     C59053   1.747  11.292   0.389  0.1227  0.5222 -0.1369
  438MOL0     O59054   1.874  11.280   0.450  1.0639  0.2775  0.2865
  438MOL0     C59055   1.889  11.219   0.577  0.6667 -0.0205  0.3577
  438MOL0     C59056   2.034  11.156   0.605 -0.3492 -0.5948  0.1427
  438MOL0     C59057   2.128  11.271   0.641 -0.2577 -0.2193  0.5848
  438MOL0     C59058   2.154  11.287   0.787  0.4705 -0.1327 -0.2577
  438MOL0     C59059   2.216  11.170   0.862  0.9807 -0.8866 -0.3219
  438MOL0     C59060   2.266  11.075   0.926  0.0487  0.8599  0.3435
  438MOL0     C59061   1.738  11.316   0.255 -0.8753  0.5190  0.0766
  438MOL0     C59062   1.618  11.341   0.198  1.4263  0.7432 -0.1303
  438MOL0     H59063   1.061  11.300   0.195 -1.8378 -0.0081  0.4912
  438MOL0     H59064   0.868  11.344   0.053 -0.2725  0.4879 -2.2899
  438MOL0     H59065   0.710  11.430  -0.120 -0.4643  1.3392 -1.0084
  438MOL0     H59066   0.679  11.470   0.059 -0.1112  1.3945  0.4185
  438MOL0     H59067   0.554  11.659   0.000  0.6809  2.1731 -1.3007
  438MOL0     H59068   0.590  11.651  -0.176  1.6062  1.3026  1.5858
  438MOL0     H59069   0.469  11.446  -0.189  2.7318 -1.6238  1.9222
  438MOL0     H59070   0.443  11.439  -0.018  0.5473  0.3020  1.2638
  438MOL0     H59071   0.300  11.655  -0.021  1.5773  3.4444 -2.5943
  438MOL0     H59072   0.321  11.669  -0.184 -0.1618  1.9489  0.6252
  438MOL0     H59073   0.197  11.428  -0.039  0.6522 -0.2786  0.5243
  438MOL0     H59074   0.115  11.554  -0.136  1.0385  3.5053  3.8486
  438MOL0     H59075   0.242  11.477  -0.337 -1.5553  0.6247  0.7422
  438MOL0     H59076   0.304  11.337  -0.243 -0.0610  0.5846  2.4264
  438MOL0     H59077   0.116  11.213  -0.224  1.2656  0.0165  0.7935
  438MOL0     H59078   0.007  11.353  -0.227  1.7175  1.8225 -1.0078
  438MOL0     H59079   0.009  11.212  -0.447  1.5424 -2.1454  1.9193
  438MOL0     H59080   0.171  11.287  -0.460  0.1268 -1.0347  1.8205
  438MOL0     H59081   0.147  11.585  -0.485  0.2916 -0.5442  0.4583
  438MOL0     H59082  -0.101  11.773  -0.708 -4.5350 -2.8105  2.7029
  438MOL0     H59083  -0.081  11.817  -0.535 -1.9701 -2.0416  0.1364
  438MOL0     H59084   0.176  11.776  -0.600 -0.8722  0.0586  0.8618
  438MOL0     H59085   0.092  11.936  -0.625  2.9543  0.4185 -1.6448
  438MOL0     H59086   0.083  11.898  -0.865  1.7217  0.2795 -0.7656
  438MOL0     H59087   0.130  11.731  -0.850  1.3712  1.5486 -2.6650
  438MOL0     H59088   0.313  11.960  -0.754 -1.2334  3.5190 -3.2967
  438MOL0     H59089   0.303  11.896  -0.918  1.2702 -0.5768 -0.2614
  438MOL0     H59090   0.506  11.968  -0.920  0.4219  0.4185 -2.0791
  438MOL0     H59091   0.800  12.006  -1.062 -2.4075  3.0837 -1.9609
  438MOL0     H59092   0.683  12.107  -0.970 -1.1918 -1.7798 -1.5984
  438MOL0     H59093   0.859  12.073  -0.916  1.5567 -1.2580 -1.4956
  438MOL0     H59094   1.126  11.546  -0.894  1.1954 -0.5785 -0.8099
  438MOL0     H59095   1.374  11.485  -0.888  1.9419  1.8057 -2.0345
  438MOL0     H59096   1.513  11.533  -0.549  1.2616 -2.2457  0.1701
  438MOL0     H59097   1.561  11.420  -0.679 -1.5778 -0.1396  0.0470
  438MOL0     H59098   1.777  11.460  -0.610  1.3763  1.1082 -2.0894
  438MOL0     H59099   1.778  11.624  -0.666 -0.5281 -0.6752 -1.7341
  438MOL0     H59100   1.669  11.525  -0.389 -1.0422  0.3340 -1.2733
  438MOL0     H59101   1.670  11.695  -0.437 -0.4677  0.4908  1.4920
  438MOL0     H59102   1.884  11.503  -0.405 -3.8533 -1.7235  2.5041
  438MOL0     H59103   1.908  11.673  -0.463 -2.0958 -0.0204 -1.3386
  438MOL0     H59104   1.798  11.769  -0.264  2.0559  0.4444  1.5327
  438MOL0     H59105   1.952  11.698  -0.231 -0.1035  0.7316  0.3450
  438MOL0     H59106   1.682  11.619  -0.159 -0.0853  2.0793 -1.1576
  438MOL0     H59107   1.813  11.488  -0.154  0.2862  0.0315  3.8364
  438MOL0     H59108   1.935  11.673  -0.004  0.7297 -3.3427 -0.4805
  438MOL0     H59109   1.843  11.542   0.056  1.3267  1.0514  0.2953
  438MOL0     H59110   1.744  11.830   0.023 -2.8560  1.0761  2.9152
  438MOL0     H59111   1.793  11.739   0.164 -1.5962 -0.4243  1.4549
  438MOL0     H59112   1.430  11.809  -0.606 -2.1477  0.3937  1.2224
  438MOL0     H59113   1.190  11.864  -0.624 -2.0865 -1.3603  0.2934
  438MOL0     H59114   0.803  11.621  -0.739 -1.9436 -0.4229  0.5475
  438MOL0     H59115   0.575  11.581  -0.734  0.4198 -1.9109 -2.2969
  438MOL0     H59116   1.018  11.737  -0.030  3.3414  1.0191  1.6082
  438MOL0     H59117   1.220  11.693   0.124 -1.6135  2.6867  0.4879
  438MOL0     H59118   1.418  11.341   0.460  0.1770 -1.7004  0.9230
  438MOL0     H59119   1.648  11.286   0.569  0.5971 -0.4836 -0.2822
  438MOL0     H59120   1.858  11.295   0.649  2.9040  3.0318 -1.6224
  438MOL0     H59121   1.820  11.137   0.595  0.9117  0.0615  1.8366
  438MOL0     H59122   2.062  11.095   0.519  3.5782  2.7669 -1.2651
  438MOL0     H59123   2.036  11.091   0.692  0.2488 -1.7410 -0.7009
  438MOL0     H59124   2.080  11.361   0.602  2.3697  1.4769  0.9584
  438MOL0     H59125   2.220  11.262   0.582  0.3950 -0.7968  1.6412
  438MOL0     H59126   2.067  11.320   0.844  1.9849  1.5253  1.2160
  438MOL0     H59127   2.224  11.369   0.802  0.6925 -0.6570  1.9722
  438MOL0     H59128   2.315  10.993   0.975  1.2539 -0.9679 -3.4902
  438MOL0     H59129   1.833  11.312   0.204 -0.8165 -1.0100  0.2514
  438MOL0     H59130   1.624  11.355   0.091  1.7467 -0.5195 -0.2891
  439MOL0     O59131   4.235   8.043   5.350  0.4887 -0.2548 -0.2044
  439MOL0     C59132   4.295   8.149   5.352 -0.1690  0.2534  0.1192
  439MOL0     O59133   4.242   8.266   5.364 -0.1925  0.1545  0.2530
  439MOL0     C59134   4.107   8.296   5.358 -0.6229  0.3939  0.0548
  439MOL0     C59135   4.073   8.428   5.333  0.6554 -0.1193  0.3143
  439MOL0     C59136   3.938   8.462   5.328 -0.3820 -0.7950 -0.6246
  439MOL0     C59137   3.831   8.376   5.363 -1.1166 -0.2109  0.5403
  439MOL0     O59138   3.699   8.412   5.368  0.1211 -0.6944 -0.4420
  439MOL0     C59139   3.648   8.494   5.269  0.1316 -0.6259  1.4003
  439MOL0     C59140   3.563   8.412   5.173  0.1825 -0.9136  0.2743
  439MOL0     C59141   3.444   8.342   5.240 -0.5087  0.5199 -0.0037
  439MOL0     C59142   3.335   8.300   5.144  0.0374  0.8649  0.0540
  439MOL0     C59143   3.227   8.213   5.199 -0.7323  0.2015 -0.0468
  439MOL0     C59144   3.109   8.214   5.104  0.3661  0.6617  0.0133
  439MOL0     C59145   2.984   8.115   5.125  0.1251 -0.4483  0.1167
  439MOL0     C59146   3.036   7.977   5.093 -0.5026 -0.0290  0.2458
  439MOL0     N59147   2.927   7.882   5.129  0.1652  0.0394 -0.7147
  439MOL0     C59148   2.899   7.827   5.254 -0.2865 -0.6197  0.0971
  439MOL0     C59149   2.793   7.752   5.242 -0.1585 -0.3050 -0.8236
  439MOL0     C59150   2.746   7.663   5.353  0.4938  0.0049  0.0470
  439MOL0     C59151   2.604   7.663   5.383  0.1602 -0.1802  0.2527
  439MOL0     C59152   2.566   7.793   5.472  0.1621 -0.2487  0.0657
  439MOL0     C59153   2.438   7.777   5.561 -0.0751 -0.2885 -0.5917
  439MOL0     O59154   2.397   7.903   5.615  0.2413  0.2985  0.2503
  439MOL0     C59155   2.481   7.984   5.695 -0.6223  0.3159  0.4313
  439MOL0     C59156   2.597   7.944   5.768  0.3261  0.2537  0.3461
  439MOL0     C59157   2.688   8.034   5.833  0.2681  0.3106  0.1515
  439MOL0     C59158   2.805   7.978   5.908 -0.7946  0.1752  0.4711
  439MOL0     C59159   2.665   8.170   5.829 -1.0095  0.4591  0.5543
  439MOL0     C59160   2.751   8.263   5.901  0.7340  0.1669  0.6914
  439MOL0     O59161   2.840   8.329   5.825 -0.2516  0.5632  0.3412
  439MOL0     C59162   2.939   8.394   5.891 -0.2005  0.4340  0.6277
  439MOL0     C59163   2.923   8.514   5.962 -0.0862  0.5138  0.0919
  439MOL0     C59164   3.026   8.588   6.003 -1.7731 -0.2233 -0.6811
  439MOL0     C59165   3.160   8.546   5.976  0.1336  0.3700  0.3609
  439MOL0     O59166   3.274   8.606   6.026  0.8032 -0.1786 -0.8301
  439MOL0     C59167   3.256   8.726   6.114 -0.3870  1.3108  0.1057
  439MOL0     C59168   3.399   8.778   6.130 -0.3403  0.3354  0.6699
  439MOL0     C59169   3.494   8.675   6.184 -0.8075 -0.1398  0.3528
  439MOL0     C59170   3.604   8.745   6.266 -0.2255 -0.6921  0.2501
  439MOL0     C59171   3.695   8.822   6.182 -0.4526 -0.8015  0.3368
  439MOL0     C59172   3.802   8.889   6.257 -0.0780 -0.0289 -0.5635
  439MOL0     C59173   3.876   8.970   6.152 -1.4231  0.7269  0.1166
  439MOL0     C59174   3.795   9.086   6.103  0.0842 -0.1650  0.2000
  439MOL0    Cl59175   3.918   9.210   6.077  0.1004  0.3937  0.1068
  439MOL0     C59176   3.176   8.427   5.906 -0.3454  0.6543 -0.0028
  439MOL0     C59177   3.068   8.359   5.858  0.8645 -0.2240  0.2684
  439MOL0     O59178   2.733   8.278   6.028  0.6562 -0.2469  0.3587
  439MOL0     C59179   2.545   8.214   5.763 -0.3314 -0.5460 -0.0698
  439MOL0     C59180   2.454   8.123   5.702 -0.3229  0.4163  0.2674
  439MOL0     N59181   2.767   7.751   5.104 -0.2110 -0.3183 -0.7497
  439MOL0     N59182   2.842   7.829   5.035  0.2802  0.1215  0.1076
  439MOL0     C59183   3.875   8.244   5.394  0.1769 -0.0320 -1.2621
  439MOL0     C59184   4.007   8.207   5.397  0.1441 -0.0669 -0.5892
  439MOL0     C59185   4.435   8.140   5.372 -0.3051  0.1062  0.5466
  439MOL0     C59186   4.512   8.028   5.337  0.3628 -1.1802  0.0202
  439MOL0     C59187   4.651   8.026   5.337 -0.2960  0.2104  0.0387
  439MOL0     C59188   4.725   8.148   5.358 -0.7343  0.0439  0.6205
  439MOL0     O59189   4.860   8.159   5.366  0.0684  0.0625 -0.1585
  439MOL0     C59190   4.934   8.037   5.360  0.2462 -0.3145 -1.1927
  439MOL0     C59191   5.092   8.046   5.400 -0.6404 -0.2182 -0.5566
  439MOL0     C59192   5.181   7.929   5.339 -0.6807  0.1340 -0.3894
  439MOL0     C59193   5.110   7.793   5.330  0.4607  0.0417 -0.2062
  439MOL0     C59194   5.111   7.725   5.464 -0.1409 -0.1019  1.3768
  439MOL0     C59195   5.106   7.682   5.569 -0.4933  1.4272 -1.2120
  439MOL0     C59196   4.659   8.258   5.399  0.7440  0.3269  0.6274
  439MOL0     C59197   4.517   8.256   5.404  0.5173  0.5004  0.3159
  439MOL0     H59198   4.166   8.483   5.322  2.6571 -2.6189  3.0431
  439MOL0     H59199   3.924   8.569   5.315 -2.5055 -0.0041  5.0654
  439MOL0     H59200   3.590   8.568   5.326 -1.0746  0.4337 -1.0382
  439MOL0     H59201   3.724   8.553   5.216 -0.1421  0.7460  2.4699
  439MOL0     H59202   3.511   8.486   5.112  3.2323  3.6922  2.7538
  439MOL0     H59203   3.621   8.347   5.106  0.6239  0.8871 -1.1817
  439MOL0     H59204   3.495   8.254   5.280 -0.5884  0.4149 -0.1349
  439MOL0     H59205   3.398   8.397   5.322 -3.9505  0.9855 -2.0510
  439MOL0     H59206   3.295   8.391   5.099  0.7162 -0.1403 -2.8083
  439MOL0     H59207   3.391   8.252   5.063 -0.7444 -1.5014  0.8152
  439MOL0     H59208   3.265   8.115   5.229  0.0401 -0.3991 -2.6926
  439MOL0     H59209   3.182   8.248   5.292 -3.4429  1.0298 -1.5753
  439MOL0     H59210   3.069   8.314   5.084 -0.3744  0.1194 -1.4183
  439MOL0     H59211   3.142   8.196   5.001 -3.7059  0.4398 -1.4408
  439MOL0     H59212   2.945   8.123   5.227 -1.5512 -2.0660 -0.3500
  439MOL0     H59213   2.906   8.139   5.052  1.0642 -0.4426 -0.9165
  439MOL0     H59214   3.121   7.976   5.162  1.1801  3.3669 -1.5091
  439MOL0     H59215   3.060   7.959   4.988 -0.2548 -0.5338  0.3870
  439MOL0     H59216   2.958   7.842   5.344  0.1138 -1.2242 -0.0539
  439MOL0     H59217   2.773   7.563   5.317  0.8766 -0.4803  1.6105
  439MOL0     H59218   2.799   7.675   5.448 -2.6650 -2.6694  2.4518
  439MOL0     H59219   2.574   7.572   5.436  0.2330 -0.5524 -0.3362
  439MOL0     H59220   2.544   7.676   5.293 -0.7706 -1.0478  0.7324
  439MOL0     H59221   2.556   7.876   5.402  0.4041 -1.5357 -1.5720
  439MOL0     H59222   2.650   7.817   5.538  0.6734  3.3635 -1.6563
  439MOL0     H59223   2.458   7.713   5.648  4.2963  1.0328 -0.3811
  439MOL0     H59224   2.359   7.730   5.502 -1.0377 -3.2337  2.7119
  439MOL0     H59225   2.619   7.838   5.780 -2.4018 -0.3798  0.6076
  439MOL0     H59226   2.820   7.870   5.906 -0.2471  0.2396  1.1061
  439MOL0     H59227   2.903   8.017   5.879 -0.4110  4.6022  6.0406
  439MOL0     H59228   2.796   8.009   6.012 -2.4097 -0.8979  0.6996
  439MOL0     H59229   2.823   8.555   5.969 -0.7063 -0.9134  0.0176
  439MOL0     H59230   3.017   8.678   6.064 -2.2460 -0.4749 -0.3654
  439MOL0     H59231   3.197   8.804   6.065 -0.0531 -0.0170 -2.6049
  439MOL0     H59232   3.197   8.694   6.200 -1.9439  0.9723 -1.0374
  439MOL0     H59233   3.437   8.815   6.035  1.3879 -1.6294  0.5445
  439MOL0     H59234   3.368   8.849   6.208 -0.1473  0.4905  0.6069
  439MOL0     H59235   3.547   8.629   6.099 -0.4697  1.6026 -0.4202
  439MOL0     H59236   3.449   8.600   6.250 -2.1490 -0.8866 -1.3247
  439MOL0     H59237   3.553   8.812   6.336  4.1580  3.6782 -0.2576
  439MOL0     H59238   3.666   8.672   6.320 -0.1338 -1.0325 -0.3077
  439MOL0     H59239   3.630   8.894   6.131 -0.5698  2.0298  4.0446
  439MOL0     H59240   3.734   8.751   6.109 -0.5545  0.2214 -0.7465
  439MOL0     H59241   3.758   8.944   6.341  1.3077 -0.3918  0.4224
  439MOL0     H59242   3.862   8.815   6.309 -0.5984  0.5965  0.9754
  439MOL0     H59243   3.922   8.909   6.073  2.1921 -1.4219  3.4990
  439MOL0     H59244   3.969   9.000   6.200 -1.0692 -1.0960  0.6794
  439MOL0     H59245   3.722   9.106   6.181  1.1894 -1.4247  1.6237
  439MOL0     H59246   3.739   9.079   6.010  1.2329  1.6479 -0.6876
  439MOL0     H59247   3.278   8.406   5.874 -0.8603  0.5742 -1.7260
  439MOL0     H59248   3.091   8.269   5.802  3.6978  1.5555 -1.6693
  439MOL0     H59249   2.535   8.322   5.754 -1.0465 -0.6436 -0.4534
  439MOL0     H59250   2.365   8.165   5.657  0.1741  1.2078 -0.0044
  439MOL0     H59251   3.786   8.184   5.407  0.3491  0.1062  1.0580
  439MOL0     H59252   4.041   8.115   5.445  3.1467 -0.7035 -3.5675
  439MOL0     H59253   4.469   7.929   5.320  2.4044 -1.7946 -2.0492
  439MOL0     H59254   4.705   7.945   5.289 -1.1991  0.5893 -1.6889
  439MOL0     H59255   4.898   7.957   5.425  4.3766 -3.5019 -2.3640
  439MOL0     H59256   4.932   7.997   5.258  1.8411 -1.7154 -0.7201
  439MOL0     H59257   5.107   8.031   5.508 -1.1977  0.1370 -0.4211
  439MOL0     H59258   5.131   8.147   5.389 -1.8251  0.1767 -1.3917
  439MOL0     H59259   5.277   7.918   5.391 -0.4398  0.3345 -0.7862
  439MOL0     H59260   5.201   7.955   5.234  1.6267  0.5586  0.1003
  439MOL0     H59261   5.157   7.741   5.246  0.5174  4.8566 -3.5200
  439MOL0     H59262   5.007   7.807   5.295 -0.2642 -2.4077  0.6964
  439MOL0     H59263   5.112   7.631   5.663 -0.3396  2.0269 -0.8900
  439MOL0     H59264   4.721   8.342   5.426 -0.9418  0.9160  3.0332
  439MOL0     H59265   4.473   8.349   5.441  0.8845 -0.0242  2.1819
  440MOL0     O59266   4.226   8.141   8.943 -0.6784 -0.0342 -0.0046
  440MOL0     C59267   4.133   8.102   9.012  0.7944  0.5649 -0.0206
  440MOL0     O59268   4.025   8.020   8.961 -0.1960 -0.2360  0.3145
  440MOL0     C59269   4.040   7.945   8.842 -0.1376  0.4577 -0.3364
  440MOL0     C59270   3.921   7.914   8.769 -0.6701 -0.0724 -0.1832
  440MOL0     C59271   3.926   7.825   8.660 -0.1824 -0.1349 -0.2757
  440MOL0     C59272   4.050   7.773   8.621  0.6944 -0.1148  0.1920
  440MOL0     O59273   4.040   7.687   8.510 -0.1463 -0.3347 -0.2828
  440MOL0     C59274   4.154   7.659   8.428 -0.4971 -0.2982 -0.2980
  440MOL0     C59275   4.083   7.601   8.309 -0.4017 -1.1667 -0.2411
  440MOL0     C59276   4.200   7.577   8.204  0.3395  0.1024 -0.4253
  440MOL0     C59277   4.176   7.434   8.144 -0.3679 -0.0947 -0.5183
  440MOL0     C59278   4.269   7.396   8.029 -0.0797 -0.7074 -0.1174
  440MOL0     C59279   4.422   7.378   8.062  0.2713 -1.0696 -0.1232
  440MOL0     C59280   4.444   7.251   8.137 -0.2870 -0.2900  0.8995
  440MOL0     C59281   4.596   7.204   8.135 -0.2778 -0.0130 -0.2729
  440MOL0     N59282   4.619   7.078   8.208 -0.1424 -0.1608  0.7512
  440MOL0     C59283   4.629   6.956   8.155  0.2773 -0.6750  0.7875
  440MOL0     C59284   4.682   6.882   8.248  0.2396 -0.4953 -0.3572
  440MOL0     C59285   4.693   6.729   8.238 -0.4517 -0.3040 -0.1790
  440MOL0     C59286   4.562   6.665   8.295 -0.1164  0.8632  1.1042
  440MOL0     C59287   4.545   6.525   8.243  0.4942 -0.2408 -0.2914
  440MOL0     C59288   4.403   6.472   8.252  1.1260  0.4622 -0.1640
  440MOL0     O59289   4.370   6.461   8.387  0.6673  0.7813  0.2539
  440MOL0     C59290   4.252   6.391   8.424 -0.5632 -0.6200  0.1188
  440MOL0     C59291   4.174   6.314   8.332  0.2300  0.0459 -1.1942
  440MOL0     C59292   4.056   6.251   8.376  0.3002 -0.2802  0.1975
  440MOL0     C59293   3.974   6.166   8.282  0.4742 -0.8869 -0.6053
  440MOL0     C59294   4.027   6.258   8.517  0.4705  0.2663  0.5945
  440MOL0     C59295   3.914   6.184   8.580 -0.9694  0.6678 -0.2483
  440MOL0     O59296   3.851   6.241   8.686 -0.2964 -0.5199  0.3348
  440MOL0     C59297   3.742   6.169   8.729  0.3577 -0.0389  0.3261
  440MOL0     C59298   3.614   6.221   8.710  0.1808  0.0782  0.0295
  440MOL0     C59299   3.500   6.154   8.772 -0.3116 -0.7877  0.2956
  440MOL0     C59300   3.517   6.043   8.849  0.1901 -1.0113 -0.2357
  440MOL0     O59301   3.401   5.966   8.891 -0.0336  0.4593 -0.8671
  440MOL0     C59302   3.300   6.049   8.961 -0.1823  0.5620 -0.1327
  440MOL0     C59303   3.355   6.138   9.080 -0.0050  1.1641 -0.0626
  440MOL0     C59304   3.419   6.033   9.183  0.0206  0.3731  0.5177
  440MOL0     C59305   3.485   6.127   9.295 -0.5326  1.3445  0.6203
  440MOL0     C59306   3.455   6.088   9.443  0.5788 -0.3095  0.2229
  440MOL0     C59307   3.505   6.188   9.552  0.3593 -0.3463 -0.4093
  440MOL0     C59308   3.453   6.151   9.693  0.8263 -0.6832 -0.2890
  440MOL0     C59309   3.506   6.261   9.790 -0.3660 -0.6306  0.9688
  440MOL0    Cl59310   3.410   6.278   9.950  0.1376  0.2648  0.4165
  440MOL0     C59311   3.655   5.996   8.862  0.6804  0.1373 -0.2893
  440MOL0     C59312   3.757   6.054   8.806 -0.2570 -0.6214  0.7346
  440MOL0     O59313   3.887   6.073   8.541  0.2600 -0.4779 -0.2336
  440MOL0     C59314   4.095   6.345   8.595  0.2329  0.1431  0.2420
  440MOL0     C59315   4.215   6.404   8.556  0.2279 -0.2212  1.0018
  440MOL0     N59316   4.697   6.951   8.364 -0.1629 -0.6804  0.5903
  440MOL0     N59317   4.669   7.074   8.333  0.4420 -0.3676 -0.7740
  440MOL0     C59318   4.166   7.804   8.690 -0.1556  0.8138  0.8587
  440MOL0     C59319   4.165   7.889   8.800 -0.3917  0.3140  0.6334
  440MOL0     C59320   4.131   8.164   9.155 -0.8721 -0.7431  1.0944
  440MOL0     C59321   4.189   8.290   9.179  0.3765 -0.8626  0.1124
  440MOL0     C59322   4.199   8.352   9.306 -0.8463 -0.1907  0.7425
  440MOL0     C59323   4.147   8.281   9.417  0.1826  0.5840 -0.1200
  440MOL0     O59324   4.150   8.328   9.546 -0.2255 -0.2418  0.0618
  440MOL0     C59325   4.224   8.443   9.596 -0.4937  0.4339 -0.4257
  440MOL0     C59326   4.307   8.399   9.706 -1.2418 -0.7192 -0.8752
  440MOL0     C59327   4.380   8.524   9.779  0.0586 -0.2577  0.6113
  440MOL0     C59328   4.437   8.482   9.914 -0.3233  0.4867 -0.7380
  440MOL0     C59329   4.443   8.603   9.998 -0.7612  1.0564 -0.4779
  440MOL0     C59330   4.455   8.698  10.064  0.1418 -0.3928  0.1477
  440MOL0     C59331   4.095   8.158   9.393 -0.3886 -0.4862  0.0018
  440MOL0     C59332   4.081   8.095   9.262 -0.3316  0.0082 -0.3290
  440MOL0     H59333   3.826   7.962   8.794 -0.6902 -0.5824  0.7890
  440MOL0     H59334   3.834   7.797   8.609  0.3724 -0.8035 -0.9368
  440MOL0     H59335   4.208   7.748   8.394  0.2088 -0.4932  0.2933
  440MOL0     H59336   4.219   7.590   8.483  0.0916  0.1282 -0.4446
  440MOL0     H59337   4.023   7.511   8.326 -0.0606 -1.7477 -1.9612
  440MOL0     H59338   4.011   7.670   8.264  1.2658  1.9591  1.5137
  440MOL0     H59339   4.208   7.651   8.124  0.6618 -0.3233 -0.7976
  440MOL0     H59340   4.301   7.586   8.246  0.5256  3.1949 -1.2876
  440MOL0     H59341   4.181   7.355   8.220 -0.4941  1.3150  1.0297
  440MOL0     H59342   4.071   7.420   8.117 -0.6215  0.8490 -0.0879
  440MOL0     H59343   4.233   7.306   7.979 -3.8938 -0.1298  1.2435
  440MOL0     H59344   4.254   7.467   7.948 -2.8986 -2.7784 -1.6169
  440MOL0     H59345   4.485   7.383   7.973  0.1774 -1.0513 -0.1884
  440MOL0     H59346   4.449   7.455   8.135 -3.6432  1.3170 -0.8865
  440MOL0     H59347   4.420   7.268   8.242  1.1018  0.0854  1.1838
  440MOL0     H59348   4.377   7.174   8.098 -1.6688 -0.3642  3.2790
  440MOL0     H59349   4.651   7.282   8.188  1.6860 -2.5477  1.7318
  440MOL0     H59350   4.625   7.190   8.031 -1.0943 -2.0028 -0.2801
  440MOL0     H59351   4.598   6.919   8.057  4.9394  0.4022 -1.4089
  440MOL0     H59352   4.699   6.695   8.134 -1.6612 -3.2544  0.5909
  440MOL0     H59353   4.780   6.693   8.293 -0.2925 -0.0747 -0.2825
  440MOL0     H59354   4.474   6.722   8.264 -0.0106 -0.7403 -2.7325
  440MOL0     H59355   4.563   6.668   8.404 -0.1054 -1.1369  1.1999
  440MOL0     H59356   4.625   6.469   8.293  1.5224  2.8250  1.7945
  440MOL0     H59357   4.574   6.528   8.137  1.7515  3.3360  0.0051
  440MOL0     H59358   4.397   6.373   8.207  0.5299 -0.1250  1.1430
  440MOL0     H59359   4.343   6.549   8.202  1.9192 -0.7950 -3.2775
  440MOL0     H59360   4.218   6.300   8.233  0.9337 -1.5762 -0.6860
  440MOL0     H59361   3.997   6.206   8.183  0.4255 -0.3868 -0.4172
  440MOL0     H59362   4.001   6.061   8.274 -1.8234 -1.4489 -1.8884
  440MOL0     H59363   3.867   6.186   8.298  0.3632 -0.3671 -1.8773
  440MOL0     H59364   3.585   6.317   8.668  1.0740  1.7092  2.8284
  440MOL0     H59365   3.397   6.187   8.761  0.2085  0.8507 -0.0259
  440MOL0     H59366   3.245   6.109   8.888  0.1624 -0.4987 -1.3071
  440MOL0     H59367   3.222   5.981   8.997 -0.2503 -1.6000 -3.8130
  440MOL0     H59368   3.420   6.217   9.044 -1.8404  2.7213 -0.0830
  440MOL0     H59369   3.275   6.186   9.137 -1.9485 -3.8325  2.1063
  440MOL0     H59370   3.493   5.971   9.132 -0.2559  0.5925 -0.1591
  440MOL0     H59371   3.341   5.973   9.229  0.2094  1.0115  1.7324
  440MOL0     H59372   3.593   6.120   9.284 -0.5741  0.1258  0.8557
  440MOL0     H59373   3.450   6.231   9.295  0.3309  1.6545  2.2055
  440MOL0     H59374   3.491   5.986   9.456 -2.4187 -2.3705 -4.7163
  440MOL0     H59375   3.346   6.086   9.452  0.4560  2.6202  0.2864
  440MOL0     H59376   3.615   6.186   9.550  0.4310  1.5425 -0.3370
  440MOL0     H59377   3.485   6.295   9.539  0.7584  0.0257  1.6176
  440MOL0     H59378   3.491   6.059   9.737  1.0050  0.5442  2.2844
  440MOL0     H59379   3.343   6.148   9.691  0.7400  1.1204 -2.4588
  440MOL0     H59380   3.503   6.357   9.738  0.1751 -1.0891  0.0866
  440MOL0     H59381   3.609   6.244   9.821  0.7911  0.1939 -2.1486
  440MOL0     H59382   3.676   5.899   8.908 -1.0766  0.8976  2.3653
  440MOL0     H59383   3.853   6.003   8.807 -0.3816 -0.8959 -0.1129
  440MOL0     H59384   4.054   6.376   8.690 -1.5320 -0.3051 -0.3296
  440MOL0     H59385   4.283   6.447   8.629  3.3455 -0.1812 -1.6384
  440MOL0     H59386   4.256   7.745   8.674 -2.2665 -2.4217 -0.0171
  440MOL0     H59387   4.258   7.908   8.853 -1.3041 -0.3826  2.5888
  440MOL0     H59388   4.223   8.336   9.087 -1.0216 -1.7313 -0.8820
  440MOL0     H59389   4.257   8.444   9.310  1.3398 -1.3984 -1.1219
  440MOL0     H59390   4.286   8.492   9.520  0.1538 -0.8108 -0.7225
  440MOL0     H59391   4.154   8.518   9.633 -0.2882 -1.0033  3.2558
  440MOL0     H59392   4.387   8.338   9.662 -0.7962  0.1989 -1.3865
  440MOL0     H59393   4.239   8.351   9.777 -1.3328  1.1410  0.3577
  440MOL0     H59394   4.299   8.597   9.770  0.5260  0.1924 -0.0399
  440MOL0     H59395   4.457   8.565   9.713 -1.1194 -0.6212 -1.0498
  440MOL0     H59396   4.531   8.428   9.900  0.7622  1.9419  0.5042
  440MOL0     H59397   4.381   8.403   9.965  0.7652  1.0582  1.4656
  440MOL0     H59398   4.467   8.772  10.141  1.1112  0.4283 -0.7736
  440MOL0     H59399   4.042   8.100   9.468 -0.6757 -0.6252 -0.3062
  440MOL0     H59400   4.025   8.004   9.247  0.1633 -0.3505 -0.0299
  441MOL0     O59401   6.924   2.962   6.610  0.5580 -0.2223 -0.1329
  441MOL0     C59402   6.960   2.996   6.721 -0.1757  0.2695 -1.0165
  441MOL0     O59403   6.983   3.122   6.763  0.0784 -0.4418 -0.4820
  441MOL0     C59404   6.957   3.241   6.691 -1.7337  1.3836 -0.0776
  441MOL0     C59405   6.898   3.255   6.567  0.8000  0.3815  0.2102
  441MOL0     C59406   6.891   3.378   6.502 -0.9081 -0.5519  0.1470
  441MOL0     C59407   6.939   3.489   6.567  0.2385 -0.2957 -0.2789
  441MOL0     O59408   6.953   3.610   6.499  0.6923 -0.7517  0.2131
  441MOL0     C59409   6.864   3.640   6.390 -0.2555 -0.3574  0.3236
  441MOL0     C59410   6.778   3.767   6.394  0.8310  0.0007 -0.1896
  441MOL0     C59411   6.696   3.793   6.274  1.3985 -0.6177  0.1938
  441MOL0     C59412   6.550   3.727   6.273 -0.5115  0.1011  0.4719
  441MOL0     C59413   6.470   3.765   6.139  0.1360  0.4201 -0.4300
  441MOL0     C59414   6.311   3.787   6.156 -0.5758 -0.3514  0.0805
  441MOL0     C59415   6.244   3.639   6.160  0.8343  0.7434 -0.0564
  441MOL0     C59416   6.086   3.648   6.149  0.7131  0.0887  0.3814
  441MOL0     N59417   6.018   3.749   6.238 -0.2774  0.3048 -0.1559
  441MOL0     C59418   6.046   3.749   6.374  0.1786 -0.3301  0.3930
  441MOL0     C59419   6.016   3.875   6.413 -1.6708 -0.3148 -0.1244
  441MOL0     C59420   6.070   3.924   6.541 -1.0795  0.2579 -0.6948
  441MOL0     C59421   6.027   3.858   6.672  0.0779 -0.4498 -0.1054
  441MOL0     C59422   5.879   3.845   6.670 -0.9656  0.6013 -1.1141
  441MOL0     C59423   5.821   3.809   6.807 -0.4928 -0.7781 -1.5718
  441MOL0     O59424   5.845   3.925   6.895 -0.4295 -0.2069 -0.0653
  441MOL0     C59425   5.867   3.907   7.033  0.1076  0.1666 -0.8122
  441MOL0     C59426   5.852   4.024   7.111 -0.7045  0.0754  0.2970
  441MOL0     C59427   5.851   4.024   7.257  0.7866 -0.3925 -0.2258
  441MOL0     C59428   5.821   4.153   7.326 -0.2855  0.6276 -0.5891
  441MOL0     C59429   5.870   3.900   7.314  0.1284 -0.2343 -0.9257
  441MOL0     C59430   5.873   3.901   7.462 -0.2298  0.4186 -0.8462
  441MOL0     O59431   5.798   3.801   7.518  0.0551  0.7243 -0.1166
  441MOL0     C59432   5.770   3.796   7.652  0.2544  1.1286  0.5436
  441MOL0     C59433   5.812   3.673   7.710  0.2120  0.4731 -0.0148
  441MOL0     C59434   5.795   3.665   7.850  0.2794 -0.2172  1.0144
  441MOL0     C59435   5.754   3.775   7.927  0.1734 -0.4787 -0.2781
  441MOL0     O59436   5.752   3.761   8.068 -0.0715  0.3867 -0.3381
  441MOL0     C59437   5.648   3.822   8.139  0.1236 -0.0375  0.5573
  441MOL0     C59438   5.625   3.781   8.285  0.2432  0.8082 -0.2816
  441MOL0     C59439   5.549   3.893   8.351  0.1882 -0.2961  1.1727
  441MOL0     C59440   5.578   3.890   8.498 -0.3110 -0.4177  0.3770
  441MOL0     C59441   5.568   4.022   8.571 -1.0460 -0.4445 -0.5540
  441MOL0     C59442   5.420   4.072   8.581  0.1523 -0.6633 -0.5842
  441MOL0     C59443   5.340   4.046   8.714 -1.1334  0.1330  0.0619
  441MOL0     C59444   5.299   3.903   8.726 -1.3950 -0.1864 -0.2794
  441MOL0    Cl59445   5.216   3.841   8.582  0.3846  0.0139 -0.4522
  441MOL0     C59446   5.719   3.895   7.858  0.9806  0.6472  0.5656
  441MOL0     C59447   5.724   3.904   7.725 -0.2904 -0.0554  0.5085
  441MOL0     O59448   5.940   3.988   7.523 -0.3175  0.6324 -0.0803
  441MOL0     C59449   5.884   3.780   7.233 -0.4734  0.8673  0.1844
  441MOL0     C59450   5.892   3.786   7.093  0.4253 -0.2618 -0.3928
  441MOL0     N59451   5.957   3.943   6.320 -0.2279  0.1471  0.3660
  441MOL0     N59452   5.973   3.876   6.212  0.3530  0.5267  0.4418
  441MOL0     C59453   6.999   3.480   6.692  0.3327 -0.1175 -0.4249
  441MOL0     C59454   7.008   3.356   6.759 -0.6497  0.6895 -0.2081
  441MOL0     C59455   6.938   2.892   6.826  0.2610 -0.3371 -0.8931
  441MOL0     C59456   6.871   2.765   6.799 -0.3929 -1.2256  0.4614
  441MOL0     C59457   6.865   2.679   6.907  0.7700  0.4030  0.6537
  441MOL0     C59458   6.918   2.699   7.027 -0.5455 -0.5408 -0.5922
  441MOL0     O59459   6.935   2.605   7.126 -0.9551 -0.1360  0.2257
  441MOL0     C59460   6.917   2.461   7.100  1.2140 -0.7490  0.2016
  441MOL0     C59461   6.989   2.388   7.203 -0.4834 -0.0514 -0.1227
  441MOL0     C59462   6.979   2.241   7.169  0.1606 -0.1023  0.9101
  441MOL0     C59463   7.049   2.159   7.292  0.3682 -0.0862  0.1141
  441MOL0     C59464   7.077   2.025   7.246  1.0891  1.0088 -0.2272
  441MOL0     C59465   7.108   1.910   7.218  0.0022 -0.4394 -0.6933
  441MOL0     C59466   6.984   2.812   7.059 -0.4036  0.2978 -0.0394
  441MOL0     C59467   6.993   2.910   6.956 -0.0903 -0.0203 -1.1975
  441MOL0     H59468   6.865   3.171   6.507 -2.5231  2.8760 -1.8017
  441MOL0     H59469   6.862   3.388   6.398  2.7702  1.1794 -0.9214
  441MOL0     H59470   6.922   3.657   6.299 -3.8572  0.8727 -1.9498
  441MOL0     H59471   6.792   3.562   6.365 -1.7783  1.1897 -0.3674
  441MOL0     H59472   6.715   3.765   6.484 -1.9455  2.5559 -1.8956
  441MOL0     H59473   6.848   3.849   6.407 -0.1037  0.7205  0.4233
  441MOL0     H59474   6.689   3.902   6.268  2.0382 -0.5461  0.6815
  441MOL0     H59475   6.743   3.747   6.186  0.7170 -2.6146  0.8142
  441MOL0     H59476   6.570   3.620   6.272  0.0982  0.1851 -1.4842
  441MOL0     H59477   6.495   3.760   6.361  2.0272  1.0070  1.8371
  441MOL0     H59478   6.512   3.862   6.109  0.2805  0.6868  0.5761
  441MOL0     H59479   6.482   3.689   6.062  3.6586  0.3190  0.0637
  441MOL0     H59480   6.298   3.850   6.244  0.3594 -1.0361  0.7269
  441MOL0     H59481   6.263   3.841   6.074 -0.3394 -1.2364 -0.6642
  441MOL0     H59482   6.287   3.596   6.069 -2.4677 -1.9043 -0.5499
  441MOL0     H59483   6.250   3.583   6.253 -0.4165 -1.3521 -1.1485
  441MOL0     H59484   6.033   3.554   6.167 -0.4674  0.6148 -0.2002
  441MOL0     H59485   6.051   3.669   6.047 -0.5856  1.8321  1.1304
  441MOL0     H59486   6.107   3.679   6.429  2.1145  0.6534 -0.4109
  441MOL0     H59487   6.176   3.896   6.545 -1.8750 -3.0278  0.6847
  441MOL0     H59488   6.062   4.032   6.557 -3.9738 -0.0025  0.0362
  441MOL0     H59489   6.064   3.910   6.761 -2.2437  0.1592  0.5774
  441MOL0     H59490   6.067   3.757   6.672  1.3925  0.0460 -0.1783
  441MOL0     H59491   5.838   3.773   6.598 -0.3379 -1.5336  0.5803
  441MOL0     H59492   5.828   3.938   6.642 -0.2054  1.7058  0.9378
  441MOL0     H59493   5.857   3.711   6.840 -1.2621 -0.5517  0.0178
  441MOL0     H59494   5.714   3.796   6.787 -0.2777 -0.0054 -3.3800
  441MOL0     H59495   5.817   4.106   7.050 -1.4762 -1.4910 -1.4908
  441MOL0     H59496   5.910   4.182   7.381  0.4940 -2.3010 -0.1327
  441MOL0     H59497   5.785   4.224   7.252 -3.2031  0.8280  0.8506
  441MOL0     H59498   5.748   4.132   7.405 -0.2806 -1.1492 -1.0038
  441MOL0     H59499   5.834   3.587   7.647 -1.3280  0.0293  0.0106
  441MOL0     H59500   5.813   3.564   7.886  1.0733 -0.2261  0.6178
  441MOL0     H59501   5.667   3.929   8.146 -2.8705  0.4887  2.0238
  441MOL0     H59502   5.555   3.812   8.083  2.2427 -2.1668 -2.9580
  441MOL0     H59503   5.561   3.694   8.300 -1.3957  2.1208  0.6453
  441MOL0     H59504   5.726   3.784   8.328 -0.4351  3.9233  1.4483
  441MOL0     H59505   5.444   3.883   8.325  0.5595 -0.1964 -0.5344
  441MOL0     H59506   5.574   3.991   8.308 -3.2821 -0.8594 -2.8228
  441MOL0     H59507   5.510   3.819   8.548  0.1810 -0.0322  1.6165
  441MOL0     H59508   5.678   3.848   8.514  0.0775 -0.0873 -1.0969
  441MOL0     H59509   5.630   4.093   8.515 -0.9379  1.5721  1.9495
  441MOL0     H59510   5.625   4.020   8.664 -0.0410 -1.1572 -1.1683
  441MOL0     H59511   5.413   4.179   8.561  0.7764 -0.5599 -0.2660
  441MOL0     H59512   5.359   4.025   8.503 -0.4506 -2.9231  1.1601
  441MOL0     H59513   5.249   4.105   8.724 -0.7816  0.7515 -0.2711
  441MOL0     H59514   5.395   4.082   8.802  0.0351 -0.1085 -0.5409
  441MOL0     H59515   5.244   3.886   8.818 -1.3440 -2.7774 -0.6441
  441MOL0     H59516   5.388   3.840   8.738 -0.1779  1.6298  0.6570
  441MOL0     H59517   5.688   3.974   7.927 -0.8305  1.8229 -1.4734
  441MOL0     H59518   5.689   3.996   7.679 -1.5541 -0.5737  0.3792
  441MOL0     H59519   5.877   3.684   7.283 -1.3678  2.4825  3.4553
  441MOL0     H59520   5.915   3.694   7.041  2.1524 -0.5884  0.8427
  441MOL0     H59521   7.045   3.560   6.748  0.7622 -1.0484  0.5943
  441MOL0     H59522   7.067   3.350   6.849 -0.5376 -0.2296 -0.3423
  441MOL0     H59523   6.845   2.735   6.699  2.1144 -1.2743 -0.2543
  441MOL0     H59524   6.823   2.580   6.891  1.4137  0.3371 -0.8619
  441MOL0     H59525   6.809   2.441   7.102  0.9175 -1.0567 -4.8325
  441MOL0     H59526   6.950   2.423   7.003 -1.0077 -2.9091  0.2130
  441MOL0     H59527   6.942   2.409   7.300  1.8389 -0.0968  1.0854
  441MOL0     H59528   7.094   2.417   7.194 -0.5607 -0.1702 -1.6404
  441MOL0     H59529   7.043   2.223   7.082  3.2253 -2.4021  3.3615
  441MOL0     H59530   6.876   2.207   7.152 -0.6166 -0.1426  4.7295
  441MOL0     H59531   6.992   2.158   7.386 -4.3924  2.0926 -2.4070
  441MOL0     H59532   7.148   2.202   7.314 -0.7059  2.7168 -0.0669
  441MOL0     H59533   7.141   1.812   7.189  2.1945  0.0023  0.1577
  441MOL0     H59534   7.015   2.828   7.161 -2.4945  2.1588  0.3895
  441MOL0     H59535   7.043   3.003   6.980 -0.3054 -0.3361  0.6158
  442MOL0     O59536  10.744   9.594   1.377  0.2598  0.0653 -0.2477
  442MOL0     C59537  10.856   9.618   1.426 -0.0026  0.2550  0.0636
  442MOL0     O59538  10.889   9.647   1.550  0.3214 -0.1167  0.0503
  442MOL0     C59539  10.787   9.668   1.648 -0.7550 -0.3076 -0.8048
  442MOL0     C59540  10.682   9.763   1.631  0.2999  0.7246 -0.1286
  442MOL0     C59541  10.580   9.772   1.728 -0.2643  0.5479  0.4647
  442MOL0     C59542  10.593   9.709   1.851 -0.1904 -0.2793  1.0227
  442MOL0     O59543  10.499   9.716   1.955 -0.0523  0.6494 -0.3152
  442MOL0     C59544  10.382   9.793   1.941  0.6822  0.3724  0.3466
  442MOL0     C59545  10.269   9.747   2.037 -0.0474  0.3705  0.5796
  442MOL0     C59546  10.129   9.818   2.007 -0.8045  0.0163  0.5092
  442MOL0     C59547  10.023   9.769   2.114  0.0269  0.8954  0.2279
  442MOL0     C59548   9.909   9.870   2.102 -0.8978  0.8948 -0.3798
  442MOL0     C59549   9.817   9.849   1.982 -0.6757 -0.2656 -0.3372
  442MOL0     C59550   9.691   9.940   1.975  0.0237 -0.3398 -0.9933
  442MOL0     C59551   9.596   9.908   1.872 -0.0671  0.2596 -0.4027
  442MOL0     N59552   9.473   9.994   1.876 -0.1205 -0.5914  0.1369
  442MOL0     C59553   9.346   9.949   1.916 -0.2572 -0.3340  0.1157
  442MOL0     C59554   9.279  10.059   1.949 -1.4735  0.0958  0.2820
  442MOL0     C59555   9.128  10.051   1.987 -0.4584  0.4324  0.3332
  442MOL0     C59556   9.116  10.002   2.122  0.6048 -0.1572  0.0229
  442MOL0     C59557   8.968  10.001   2.159 -0.0116 -0.4760 -0.1907
  442MOL0     C59558   8.952   9.980   2.312  0.8080  0.0896 -0.8487
  442MOL0     O59559   8.807  10.015   2.322 -0.9319  0.2739  0.3742
  442MOL0     C59560   8.723   9.903   2.340  0.1139 -1.2029  0.4486
  442MOL0     C59561   8.751   9.771   2.301 -0.5444  0.0679 -0.1133
  442MOL0     C59562   8.688   9.657   2.329  0.8518 -0.4935  0.7293
  442MOL0     C59563   8.749   9.525   2.282  0.7407 -0.3349  0.1011
  442MOL0     C59564   8.571   9.673   2.411  0.4175 -0.6561  0.1111
  442MOL0     C59565   8.482   9.549   2.439 -0.1371 -0.2129  0.1695
  442MOL0     O59566   8.515   9.431   2.390  0.8118  0.0443 -0.0770
  442MOL0     C59567   8.471   9.330   2.467 -0.3952  0.4603 -0.1056
  442MOL0     C59568   8.546   9.298   2.575 -0.4012  0.4078 -0.3572
  442MOL0     C59569   8.517   9.180   2.646 -0.1559  0.2920 -0.7077
  442MOL0     C59570   8.407   9.094   2.614  0.2759  1.1146 -1.1904
  442MOL0     O59571   8.382   8.986   2.694 -0.1167 -0.0144  0.5789
  442MOL0     C59572   8.240   8.984   2.736 -1.0718  0.5659 -0.4185
  442MOL0     C59573   8.175   8.852   2.674  0.1200 -0.2144 -0.9427
  442MOL0     C59574   8.250   8.722   2.708  0.3364  0.3154 -0.3603
  442MOL0     C59575   8.309   8.706   2.842 -0.4879  0.1918 -0.4227
  442MOL0     C59576   8.369   8.560   2.874 -1.3419 -0.3157 -0.2772
  442MOL0     C59577   8.290   8.443   2.906 -0.2756  0.0356 -1.4877
  442MOL0     C59578   8.195   8.471   3.023  0.2326  0.0326 -0.8007
  442MOL0     C59579   8.186   8.372   3.131  0.0883  0.5538 -0.2427
  442MOL0    Cl59580   8.083   8.434   3.259  0.1427 -0.0503  0.2212
  442MOL0     C59581   8.342   9.123   2.496  0.6589 -0.9382  0.2118
  442MOL0     C59582   8.358   9.244   2.424 -0.5357 -0.2726 -0.3519
  442MOL0     O59583   8.399   9.566   2.521  0.0468 -0.0038 -0.3704
  442MOL0     C59584   8.534   9.797   2.455  0.2565 -0.2175  0.0239
  442MOL0     C59585   8.610   9.908   2.426  0.1650 -0.6043  0.1404
  442MOL0     N59586   9.364  10.177   1.944 -0.3432  0.4110  0.5235
  442MOL0     N59587   9.482  10.136   1.890 -0.2071 -0.4973 -0.2280
  442MOL0     C59588  10.701   9.625   1.871  0.1060 -0.5362  0.1644
  442MOL0     C59589  10.796   9.606   1.774 -0.2951  0.5913  0.9626
  442MOL0     C59590  10.964   9.613   1.327 -0.2857 -1.2233 -1.7412
  442MOL0     C59591  11.088   9.666   1.359 -0.2849  0.5270  0.3521
  442MOL0     C59592  11.205   9.654   1.276 -0.0853 -1.1544  0.3451
  442MOL0     C59593  11.192   9.586   1.157 -0.5292  0.2042 -0.6162
  442MOL0     O59594  11.294   9.569   1.064 -0.1856 -0.1662 -0.2960
  442MOL0     C59595  11.394   9.674   1.047  0.3914 -0.3174 -0.2069
  442MOL0     C59596  11.492   9.658   0.935  0.1131 -0.1454 -0.2686
  442MOL0     C59597  11.422   9.658   0.797 -0.9765 -0.3718  0.1834
  442MOL0     C59598  11.509   9.723   0.693 -0.4032  0.1920  0.2916
  442MOL0     C59599  11.646   9.673   0.681 -0.4683  0.0157 -1.3740
  442MOL0     C59600  11.767   9.655   0.650 -0.1107  0.8582  0.0750
  442MOL0     C59601  11.069   9.536   1.124 -0.1166 -0.3852  0.2143
  442MOL0     C59602  10.958   9.544   1.203 -0.1945 -1.6760 -1.9155
  442MOL0     H59603  10.683   9.817   1.536 -0.9040 -0.1116 -0.6518
  442MOL0     H59604  10.506   9.845   1.699  0.6119  0.7097 -1.5065
  442MOL0     H59605  10.407   9.896   1.968  1.9151 -0.4565  2.5978
  442MOL0     H59606  10.348   9.785   1.837  3.8930 -1.1632 -0.7152
  442MOL0     H59607  10.246   9.641   2.024 -1.3454  0.3346  2.6494
  442MOL0     H59608  10.301   9.763   2.140  0.1141 -2.3900  1.0322
  442MOL0     H59609  10.130   9.925   1.982 -1.2217 -0.5230 -2.1404
  442MOL0     H59610  10.097   9.778   1.910 -0.2470  0.7882 -0.0091
  442MOL0     H59611   9.994   9.665   2.095  3.3194 -0.3789  1.4277
  442MOL0     H59612  10.067   9.767   2.214  2.3933  0.1161 -0.7482
  442MOL0     H59613   9.853   9.865   2.195  2.5782 -0.1394  1.8303
  442MOL0     H59614   9.948   9.973   2.099 -1.3483  1.0524 -1.2929
  442MOL0     H59615   9.883   9.865   1.896  1.7908 -1.5886  1.1788
  442MOL0     H59616   9.769   9.750   1.978 -0.9586 -0.1854  0.7118
  442MOL0     H59617   9.637   9.932   2.070  3.8923 -0.8306  1.3794
  442MOL0     H59618   9.729  10.042   1.979  1.6334 -0.9044  2.6350
  442MOL0     H59619   9.574   9.801   1.876 -2.7179  0.7390 -0.4796
  442MOL0     H59620   9.645   9.923   1.775 -0.8888 -0.3333 -0.9216
  442MOL0     H59621   9.320   9.843   1.919  0.3741 -0.5173 -0.6233
  442MOL0     H59622   9.085  10.151   1.973  2.4634  1.4618 -2.3611
  442MOL0     H59623   9.071   9.975   1.932  0.5119 -0.0141 -0.0786
  442MOL0     H59624   9.155  10.072   2.197  0.3493 -0.9432  0.8964
  442MOL0     H59625   9.163   9.905   2.138  0.1403 -0.1659  1.4440
  442MOL0     H59626   8.933   9.913   2.104  1.3787  0.5096 -2.8478
  442MOL0     H59627   8.914  10.087   2.119 -1.3169 -0.3295  1.7476
  442MOL0     H59628   9.008  10.046   2.379  3.6116 -1.7851 -1.1762
  442MOL0     H59629   8.978   9.879   2.343 -1.1479 -0.7907 -1.8798
  442MOL0     H59630   8.839   9.755   2.239 -0.1210  1.0155  0.2249
  442MOL0     H59631   8.852   9.537   2.247  0.2824  1.0518 -0.8430
  442MOL0     H59632   8.754   9.468   2.376 -1.4808 -1.7023 -0.5414
  442MOL0     H59633   8.695   9.472   2.203 -0.0738 -0.3773  0.6728
  442MOL0     H59634   8.627   9.362   2.609 -0.2984  0.2603 -0.3236
  442MOL0     H59635   8.574   9.159   2.736 -2.2711  1.6401  1.0603
  442MOL0     H59636   8.243   8.987   2.845  0.7865  1.7174 -0.4725
  442MOL0     H59637   8.182   9.067   2.694 -0.2142  0.6931 -1.3858
  442MOL0     H59638   8.073   8.866   2.712 -0.2675  0.8623 -2.3013
  442MOL0     H59639   8.163   8.853   2.566  1.5185  2.1247 -1.1240
  442MOL0     H59640   8.333   8.724   2.637  0.9674  1.0238  0.3785
  442MOL0     H59641   8.190   8.633   2.688 -0.7877  0.9379  0.1759
  442MOL0     H59642   8.393   8.776   2.851  0.5806 -1.1989  1.0763
  442MOL0     H59643   8.236   8.728   2.920  0.9506  0.7671  0.8180
  442MOL0     H59644   8.425   8.576   2.966 -3.4249  4.2664  0.4979
  442MOL0     H59645   8.439   8.532   2.795  1.8719 -0.7976  2.5133
  442MOL0     H59646   8.249   8.389   2.820  0.0232 -1.3782 -0.7671
  442MOL0     H59647   8.366   8.377   2.948  0.4034  0.9407 -1.2451
  442MOL0     H59648   8.098   8.482   2.974 -0.5852  2.3218  1.1298
  442MOL0     H59649   8.222   8.566   3.070 -1.5828 -0.4249  1.3608
  442MOL0     H59650   8.287   8.371   3.174  1.9703 -1.3968 -4.1473
  442MOL0     H59651   8.162   8.271   3.097 -1.3732 -0.4083  3.2387
  442MOL0     H59652   8.263   9.052   2.475 -0.6785  0.4917  0.1605
  442MOL0     H59653   8.315   9.251   2.325 -1.1102  0.8990 -0.0347
  442MOL0     H59654   8.439   9.803   2.508  0.0154 -3.7080  0.2444
  442MOL0     H59655   8.581  10.004   2.469 -0.8927 -1.3011  1.0183
  442MOL0     H59656  10.706   9.577   1.968 -0.9251 -2.2233 -0.5634
  442MOL0     H59657  10.888   9.550   1.787  2.4953  4.3515 -0.5375
  442MOL0     H59658  11.097   9.718   1.455 -3.1426 -1.4896  1.8457
  442MOL0     H59659  11.295   9.695   1.321 -0.7872 -1.7887  2.4478
  442MOL0     H59660  11.341   9.767   1.021 -0.4992 -0.1251  2.0542
  442MOL0     H59661  11.435   9.702   1.145 -1.5931 -0.5187  0.7286
  442MOL0     H59662  11.551   9.566   0.944 -2.1025 -1.6671 -0.6356
  442MOL0     H59663  11.554   9.749   0.938 -1.0971  0.7071  3.7994
  442MOL0     H59664  11.327   9.712   0.793  0.4856  2.7725  2.9955
  442MOL0     H59665  11.399   9.559   0.758 -1.7880 -0.2748  0.3830
  442MOL0     H59666  11.502   9.831   0.705 -2.7079  0.1050  0.2042
  442MOL0     H59667  11.456   9.698   0.600 -2.1872  1.7161  0.8376
  442MOL0     H59668  11.870   9.642   0.627  0.4883  1.5549  2.1449
  442MOL0     H59669  11.061   9.485   1.028  1.4463  2.2914 -1.4487
  442MOL0     H59670  10.864   9.502   1.167 -0.3872 -1.0692 -2.1332
  443MOL0     O59671  10.253   9.521   4.584  0.3695 -1.7948  1.2162
  443MOL0     C59672  10.261   9.400   4.593 -1.0399 -0.6414 -0.1559
  443MOL0     O59673  10.375   9.327   4.596 -0.4834 -0.6464 -0.3981
  443MOL0     C59674  10.488   9.388   4.540  0.2700 -0.3691  1.0157
  443MOL0     C59675  10.495   9.437   4.409  0.3664 -0.3014 -1.0188
  443MOL0     C59676  10.620   9.492   4.370 -0.0994 -0.4523  0.0380
  443MOL0     C59677  10.732   9.499   4.459 -0.4965  0.0886 -1.1056
  443MOL0     O59678  10.860   9.534   4.424  0.7921  0.2755  0.6514
  443MOL0     C59679  10.911   9.536   4.287 -0.1085  0.1944 -0.3054
  443MOL0     C59680  10.888   9.669   4.223 -0.0329 -0.4043  0.2521
  443MOL0     C59681  10.971   9.693   4.094 -0.0143 -0.4636 -0.3749
  443MOL0     C59682  10.875   9.748   3.985 -1.0886 -0.0894  0.3725
  443MOL0     C59683  10.967   9.781   3.869  0.3781 -0.3466 -0.9574
  443MOL0     C59684  11.061   9.671   3.830  0.2919  0.5052 -0.4402
  443MOL0     C59685  10.979   9.545   3.786  0.2582 -0.2956  0.7084
  443MOL0     C59686  11.051   9.424   3.731  0.3320 -0.1871 -0.8226
  443MOL0     N59687  11.102   9.441   3.591 -0.1786  1.0136 -0.9091
  443MOL0     C59688  11.037   9.387   3.490  0.9042 -0.3135 -0.0471
  443MOL0     C59689  11.108   9.401   3.371 -0.1702 -0.4282 -0.2354
  443MOL0     C59690  11.082   9.354   3.235  0.2587 -0.3884  0.2741
  443MOL0     C59691  11.007   9.218   3.228  0.1811 -0.0713 -0.5048
  443MOL0     C59692  11.029   9.152   3.093  0.7494  0.5558 -0.0541
  443MOL0     C59693  11.061   9.255   2.971  0.7939  1.2970  0.2452
  443MOL0     O59694  11.014   9.188   2.851  0.5303  0.7763  0.2025
  443MOL0     C59695  10.878   9.182   2.832  0.2997 -0.8834  0.4239
  443MOL0     C59696  10.842   9.092   2.727  0.5554 -0.3687  0.7095
  443MOL0     C59697  10.701   9.065   2.700 -0.6245  0.2935  0.6064
  443MOL0     C59698  10.679   8.962   2.591 -0.1995  1.1853  0.3448
  443MOL0     C59699  10.600   9.125   2.771  0.0544 -1.5448  0.4969
  443MOL0     C59700  10.461   9.098   2.742  0.0942  0.3422  0.1007
  443MOL0     O59701  10.379   9.106   2.846 -0.4236  0.0977 -0.5124
  443MOL0     C59702  10.245   9.096   2.829  0.8740  0.5563  0.6153
  443MOL0     C59703  10.181   8.991   2.911  0.3465 -0.4143 -0.4425
  443MOL0     C59704  10.050   8.954   2.904  0.3928  0.5781  0.1415
  443MOL0     C59705   9.967   9.029   2.815  0.5923  0.4352 -0.2387
  443MOL0     O59706   9.839   8.984   2.805  0.4060  0.0773 -0.2786
  443MOL0     C59707   9.758   8.943   2.914  0.0657 -0.6431 -0.2540
  443MOL0     C59708   9.617   8.978   2.902  1.0505 -1.3854  0.9883
  443MOL0     C59709   9.534   8.941   2.783  0.1438 -0.2059 -0.5034
  443MOL0     C59710   9.460   8.808   2.796 -0.4586 -0.3338  0.0729
  443MOL0     C59711   9.370   8.780   2.674 -0.5658 -0.2332  0.3298
  443MOL0     C59712   9.220   8.836   2.700  0.8122  0.0467  0.4841
  443MOL0     C59713   9.129   8.787   2.583  0.4155  0.7564 -0.2604
  443MOL0     C59714   8.981   8.834   2.583 -0.4665 -0.5925 -0.3939
  443MOL0    Cl59715   8.922   8.844   2.752  0.2717 -0.3301 -0.1069
  443MOL0     C59716  10.025   9.119   2.717  0.1716  0.0434 -0.0478
  443MOL0     C59717  10.159   9.161   2.736  0.1848  0.1935 -1.2527
  443MOL0     O59718  10.424   9.091   2.624  0.3698 -0.4490 -0.5366
  443MOL0     C59719  10.635   9.202   2.885 -0.3303  0.0904  0.1948
  443MOL0     C59720  10.773   9.232   2.909  0.0637 -0.8328  0.1816
  443MOL0     N59721  11.229   9.462   3.409 -0.1020 -0.4069  0.0898
  443MOL0     N59722  11.226   9.491   3.540  0.4665 -0.5330 -0.3980
  443MOL0     C59723  10.710   9.457   4.588  0.2959 -0.0922 -0.4389
  443MOL0     C59724  10.590   9.401   4.636 -0.2778 -0.2413  1.1860
  443MOL0     C59725  10.139   9.325   4.590 -0.0398  0.1830  0.1404
  443MOL0     C59726  10.132   9.186   4.582 -0.2805 -0.7933 -0.2336
  443MOL0     C59727  10.010   9.116   4.561 -0.4221  0.0672 -0.2851
  443MOL0     C59728   9.890   9.189   4.539  0.2393 -0.1034 -0.2310
  443MOL0     O59729   9.788   9.114   4.492  0.3430 -0.4904  0.1475
  443MOL0     C59730   9.667   9.181   4.458 -0.0434 -0.1406 -0.8486
  443MOL0     C59731   9.567   9.085   4.392 -0.5462 -0.0723  0.0293
  443MOL0     C59732   9.436   9.146   4.341 -0.2454 -0.4959  0.4819
  443MOL0     C59733   9.387   9.050   4.230  0.2091 -0.1395  0.9817
  443MOL0     C59734   9.289   9.123   4.162  0.3597 -1.1068  0.1334
  443MOL0     C59735   9.191   9.188   4.116  0.0795  0.4167  0.2463
  443MOL0     C59736   9.893   9.328   4.557  0.5877 -0.1581 -0.6640
  443MOL0     C59737  10.009   9.395   4.573  0.2579  0.8661  0.5113
  443MOL0     H59738  10.401   9.449   4.356  1.3838 -0.2984 -2.8692
  443MOL0     H59739  10.629   9.521   4.266  1.6549  0.2167  0.3433
  443MOL0     H59740  11.017   9.517   4.305 -0.6133 -1.0173  1.6926
  443MOL0     H59741  10.868   9.459   4.223  4.0456 -0.9540 -1.9753
  443MOL0     H59742  10.782   9.687   4.203 -0.0285 -0.7865 -0.1268
  443MOL0     H59743  10.918   9.742   4.299 -3.1951 -1.6958  3.0126
  443MOL0     H59744  11.060   9.753   4.115  1.0314 -1.8251 -0.7558
  443MOL0     H59745  11.005   9.596   4.056  3.0979  0.6578 -0.6949
  443MOL0     H59746  10.800   9.669   3.969  0.9629 -1.9431 -0.5411
  443MOL0     H59747  10.824   9.842   4.008  0.9512  1.2452 -0.3119
  443MOL0     H59748  10.906   9.811   3.784  0.3827  2.0120 -0.1893
  443MOL0     H59749  11.029   9.864   3.903  0.0350 -0.1815 -0.7238
  443MOL0     H59750  11.121   9.700   3.744  3.0488 -2.4989  0.2483
  443MOL0     H59751  11.139   9.640   3.901 -0.7571 -1.4967 -0.0891
  443MOL0     H59752  10.926   9.511   3.876 -0.4993  1.2066  0.8676
  443MOL0     H59753  10.896   9.571   3.718  0.0454  0.6019  1.3007
  443MOL0     H59754  10.978   9.343   3.740 -1.9044  1.8576  1.1511
  443MOL0     H59755  11.129   9.401   3.803 -0.3764  1.3477  0.4816
  443MOL0     H59756  10.951   9.323   3.506  0.9910 -0.6520 -0.8942
  443MOL0     H59757  11.029   9.432   3.179  2.2681  0.3506 -0.6909
  443MOL0     H59758  11.180   9.352   3.186  0.0432  3.0429 -0.5965
  443MOL0     H59759  10.902   9.237   3.253  0.4387 -1.0854  1.6711
  443MOL0     H59760  11.043   9.158   3.312 -0.1881  1.3502  0.7202
  443MOL0     H59761  10.933   9.101   3.081  1.3520 -1.8240  3.4803
  443MOL0     H59762  11.106   9.073   3.097  0.9161  0.7262  0.1301
  443MOL0     H59763  11.168   9.275   2.968  1.3083 -1.1569 -0.2541
  443MOL0     H59764  11.014   9.354   2.976 -0.9260  0.6169 -1.2274
  443MOL0     H59765  10.911   9.035   2.665 -1.5566 -2.8855  0.5148
  443MOL0     H59766  10.725   8.990   2.495  0.7611  0.5658  0.6014
  443MOL0     H59767  10.730   8.869   2.620  1.2894  2.0515  0.6097
  443MOL0     H59768  10.578   8.927   2.570 -1.1546  3.3666  1.0850
  443MOL0     H59769  10.255   8.941   2.973  3.0767  3.1289 -0.5251
  443MOL0     H59770  10.014   8.867   2.957  2.5316 -0.2974  0.2311
  443MOL0     H59771   9.750   8.834   2.910  1.9952 -0.7953 -0.7948
  443MOL0     H59772   9.789   8.982   3.011 -0.7955  1.6292 -0.8147
  443MOL0     H59773   9.559   8.953   2.991 -0.2043 -3.0402 -0.2122
  443MOL0     H59774   9.620   9.087   2.893 -1.0180 -1.3726 -0.4549
  443MOL0     H59775   9.600   8.934   2.697  1.5645  0.2509  0.5048
  443MOL0     H59776   9.461   9.022   2.772  0.5839  0.0669 -1.5570
  443MOL0     H59777   9.537   8.731   2.795  0.5400  0.6249 -1.1728
  443MOL0     H59778   9.418   8.796   2.896  3.0952 -1.0958  1.6482
  443MOL0     H59779   9.367   8.671   2.669  1.5165 -0.3684  1.0725
  443MOL0     H59780   9.420   8.820   2.586  3.3680  0.7606  2.7664
  443MOL0     H59781   9.177   8.799   2.794  1.3816  1.9596  1.5498
  443MOL0     H59782   9.226   8.945   2.707  0.3679  0.2595 -1.6540
  443MOL0     H59783   9.128   8.679   2.595  1.1785  0.3795 -3.0452
  443MOL0     H59784   9.169   8.814   2.485  1.3157  0.3185 -0.0302
  443MOL0     H59785   8.913   8.774   2.522 -1.7411 -1.1614  1.5105
  443MOL0     H59786   8.978   8.929   2.528  1.5225 -1.4545 -2.1652
  443MOL0     H59787   9.952   9.150   2.644 -2.2827 -1.1375  1.7646
  443MOL0     H59788  10.207   9.231   2.668 -1.0967  2.6121  0.1996
  443MOL0     H59789  10.563   9.239   2.957 -0.5688 -0.0987  0.0562
  443MOL0     H59790  10.789   9.288   3.000  1.5166 -0.9225  0.0075
  443MOL0     H59791  10.799   9.458   4.651 -0.4086 -1.6940  0.6634
  443MOL0     H59792  10.574   9.376   4.741  2.2708 -2.7044  1.0894
  443MOL0     H59793  10.227   9.133   4.582 -0.8033 -1.9530  3.0480
  443MOL0     H59794  10.019   9.008   4.550 -0.5800  0.0288 -0.0265
  443MOL0     H59795   9.612   9.228   4.541  0.4652 -1.0666  0.0463
  443MOL0     H59796   9.702   9.258   4.389  0.5663  2.7950  2.4231
  443MOL0     H59797   9.532   9.016   4.470 -0.6276 -1.6019 -1.3013
  443MOL0     H59798   9.624   9.036   4.312  2.1697  1.1606  1.0907
  443MOL0     H59799   9.466   9.243   4.301  2.2984 -0.6614  1.7975
  443MOL0     H59800   9.356   9.156   4.416 -1.1406 -2.3304 -0.1653
  443MOL0     H59801   9.341   8.961   4.272 -1.7770 -0.3249 -1.3788
  443MOL0     H59802   9.462   9.022   4.156  0.1783  2.5644 -0.2163
  443MOL0     H59803   9.106   9.249   4.093  0.1124  0.3841  0.0424
  443MOL0     H59804   9.799   9.383   4.550 -0.5650 -1.6178  1.9527
  443MOL0     H59805   9.995   9.503   4.580 -0.1332  0.8446  0.0835
  444MOL0     O59806   6.981   7.669   4.236  1.0895 -0.5135  0.1493
  444MOL0     C59807   6.990   7.546   4.248  1.1855 -1.3161  0.5674
  444MOL0     O59808   7.045   7.462   4.158  0.7667 -0.1726 -0.0885
  444MOL0     C59809   7.047   7.483   4.018  0.1464  0.3359 -1.4430
  444MOL0     C59810   7.096   7.381   3.936  0.5138 -0.7879  0.2716
  444MOL0     C59811   7.105   7.396   3.800 -0.0921  0.2624  0.3555
  444MOL0     C59812   7.051   7.506   3.731  0.0905 -0.0242 -0.7061
  444MOL0     O59813   7.072   7.535   3.598 -0.5953  0.2787 -0.4434
  444MOL0     C59814   7.175   7.458   3.531  0.2645  0.7259  0.0874
  444MOL0     C59815   7.169   7.471   3.380 -0.5518  1.1362 -0.5208
  444MOL0     C59816   7.313   7.461   3.318  0.9900 -0.8429 -0.6553
  444MOL0     C59817   7.373   7.319   3.334  0.2292 -0.0906 -0.5405
  444MOL0     C59818   7.293   7.194   3.291  0.9982 -0.4875  0.0112
  444MOL0     C59819   7.205   7.212   3.160  0.6210 -0.5388  0.4705
  444MOL0     C59820   7.251   7.106   3.062  0.3274  0.1178 -0.0768
  444MOL0     C59821   7.181   7.142   2.930  0.0495  0.4355  0.9571
  444MOL0     N59822   7.064   7.055   2.913  0.3747 -0.5403 -0.0903
  444MOL0     C59823   6.943   7.096   2.943  0.6500 -0.2039  0.5768
  444MOL0     C59824   6.853   7.019   2.876 -0.0677  0.9872 -0.1268
  444MOL0     C59825   6.704   7.019   2.902  0.4586 -0.2689  0.2493
  444MOL0     C59826   6.657   6.891   2.985  0.0655 -0.2789  0.1824
  444MOL0     C59827   6.514   6.844   2.940 -1.0427 -0.3722 -0.3269
  444MOL0     C59828   6.478   6.715   3.023 -0.3852  0.5889  0.5120
  444MOL0     O59829   6.446   6.739   3.159  0.0558  0.0169  0.0187
  444MOL0     C59830   6.472   6.629   3.239  0.7016  0.9458  0.1688
  444MOL0     C59831   6.592   6.612   3.305 -0.3294 -0.0416 -0.4223
  444MOL0     C59832   6.625   6.499   3.386 -0.2087 -0.3505 -0.1477
  444MOL0     C59833   6.764   6.509   3.442  0.5252  0.7453 -0.1924
  444MOL0     C59834   6.536   6.386   3.406 -0.3595 -0.7702  0.1179
  444MOL0     C59835   6.559   6.269   3.487  0.2608 -0.1063  0.5314
  444MOL0     O59836   6.506   6.145   3.461  0.0640  0.1579  0.0901
  444MOL0     C59837   6.480   6.073   3.575  0.6888  0.1748 -1.3072
  444MOL0     C59838   6.377   6.116   3.669 -0.7309  0.9631  0.0964
  444MOL0     C59839   6.361   6.035   3.786 -0.7820 -0.5329  0.2968
  444MOL0     C59840   6.443   5.924   3.809 -0.5928 -0.2867  0.5690
  444MOL0     O59841   6.414   5.853   3.917 -0.2136  0.0967 -0.3107
  444MOL0     C59842   6.434   5.914   4.038 -0.4381 -0.0318  0.3416
  444MOL0     C59843   6.466   5.824   4.157 -0.2250  0.0978 -0.3998
  444MOL0     C59844   6.619   5.777   4.154 -0.6204 -0.1006 -0.0450
  444MOL0     C59845   6.645   5.673   4.269 -0.6870 -0.0792  0.4246
  444MOL0     C59846   6.781   5.605   4.262  0.7995 -0.2175  0.6310
  444MOL0     C59847   6.862   5.641   4.380  0.2490  0.3698  0.8007
  444MOL0     C59848   6.994   5.560   4.381  0.3255  0.0261  1.0014
  444MOL0     C59849   7.036   5.518   4.521  0.4986 -0.4847  0.2518
  444MOL0    Cl59850   7.078   5.657   4.627 -0.5562  0.1383  0.3445
  444MOL0     C59851   6.548   5.892   3.721 -0.0439  0.2876 -0.3915
  444MOL0     C59852   6.555   5.963   3.605  0.1408 -0.0064  0.3333
  444MOL0     O59853   6.610   6.304   3.596 -0.7684  0.9282 -0.2389
  444MOL0     C59854   6.420   6.400   3.332 -0.8589  0.0077  0.6143
  444MOL0     C59855   6.386   6.514   3.246 -0.7922 -0.4566 -0.8053
  444MOL0     N59856   6.927   6.950   2.792  0.8939 -0.1541  0.4299
  444MOL0     N59857   7.049   6.963   2.808  0.0707  0.2003  0.1699
  444MOL0     C59858   6.985   7.599   3.806 -0.9438  0.4172 -0.3660
  444MOL0     C59859   6.981   7.588   3.947 -0.0935 -0.1618 -0.6273
  444MOL0     C59860   6.953   7.489   4.376  0.1193 -0.1086 -0.1579
  444MOL0     C59861   6.877   7.562   4.470 -0.0421 -0.0435 -1.0164
  444MOL0     C59862   6.821   7.508   4.587 -0.1187 -0.3162 -0.3553
  444MOL0     C59863   6.845   7.372   4.619  0.0088  0.3456 -0.1830
  444MOL0     O59864   6.776   7.317   4.724 -0.5416 -0.2828 -0.0341
  444MOL0     C59865   6.787   7.183   4.764  1.0879  1.0124 -0.5670
  444MOL0     C59866   6.655   7.115   4.754  0.5555  0.3247 -0.6994
  444MOL0     C59867   6.597   7.121   4.607 -0.0519  0.5556 -0.1650
  444MOL0     C59868   6.471   7.032   4.594  0.4502 -0.0918 -0.3400
  444MOL0     C59869   6.398   7.064   4.471  0.1667  0.3401 -0.8499
  444MOL0     C59870   6.337   7.097   4.377  0.7516 -0.1181  0.9033
  444MOL0     C59871   6.923   7.293   4.525 -1.5551 -0.0285 -0.0504
  444MOL0     C59872   6.979   7.351   4.408  0.4761 -0.4508  0.3279
  444MOL0     H59873   7.150   7.298   3.981 -0.2308 -0.0543  2.7128
  444MOL0     H59874   7.157   7.321   3.742 -0.6956  1.3346 -1.6669
  444MOL0     H59875   7.270   7.478   3.581  0.4893  2.0695 -0.8157
  444MOL0     H59876   7.160   7.351   3.547 -0.7223  0.5538 -1.6225
  444MOL0     H59877   7.094   7.401   3.342 -0.6318  1.9989 -2.0101
  444MOL0     H59878   7.139   7.575   3.363 -0.4242  0.9024 -2.3742
  444MOL0     H59879   7.309   7.475   3.209 -1.5647  3.6180 -0.2144
  444MOL0     H59880   7.387   7.529   3.361 -1.5466  1.5229  0.2514
  444MOL0     H59881   7.473   7.314   3.291  0.9986  2.0459  0.8367
  444MOL0     H59882   7.388   7.305   3.441 -3.2040  0.4350  0.1303
  444MOL0     H59883   7.347   7.099   3.290  1.4589 -0.2728  1.7144
  444MOL0     H59884   7.219   7.183   3.371 -0.2303  1.3667 -0.7913
  444MOL0     H59885   7.097   7.211   3.178  0.2136  2.0592 -1.2465
  444MOL0     H59886   7.219   7.315   3.126 -1.9502 -0.1173  0.5199
  444MOL0     H59887   7.359   7.107   3.049  0.9142 -2.1198  3.1574
  444MOL0     H59888   7.225   7.008   3.104  2.0120  0.1270  1.0749
  444MOL0     H59889   7.246   7.128   2.842  2.2157 -0.1527  2.5532
  444MOL0     H59890   7.164   7.250   2.932  0.0272  0.4763 -0.3694
  444MOL0     H59891   6.924   7.189   2.996 -0.7621  0.9390 -1.7425
  444MOL0     H59892   6.676   7.115   2.948  0.5814 -0.7119  1.2647
  444MOL0     H59893   6.660   7.005   2.803  0.1996 -3.3496  0.7009
  444MOL0     H59894   6.646   6.902   3.094  0.9562 -1.0725  0.3732
  444MOL0     H59895   6.719   6.803   2.963 -1.4556 -1.3935  0.2156
  444MOL0     H59896   6.509   6.821   2.833  2.5562 -4.6956  0.1348
  444MOL0     H59897   6.436   6.916   2.965  2.0257  3.0062  0.4256
  444MOL0     H59898   6.567   6.650   3.018 -0.5055  0.5040 -0.9728
  444MOL0     H59899   6.393   6.670   2.972  0.8063  0.8594 -1.8403
  444MOL0     H59900   6.672   6.685   3.290 -0.6325  0.5794  0.8549
  444MOL0     H59901   6.829   6.564   3.373 -0.3946  2.0737 -0.0232
  444MOL0     H59902   6.766   6.553   3.542 -1.4894 -1.6286  1.0206
  444MOL0     H59903   6.802   6.406   3.451  3.4751  1.7117 -0.4750
  444MOL0     H59904   6.329   6.213   3.662  1.1309  1.8385 -5.4429
  444MOL0     H59905   6.285   6.074   3.854 -2.0511 -1.9194 -0.2637
  444MOL0     H59906   6.523   5.975   4.022 -0.5306 -0.6010 -3.0500
  444MOL0     H59907   6.350   5.982   4.058  0.5937  0.7005  2.4866
  444MOL0     H59908   6.438   5.883   4.245  0.2320  1.6879 -1.2948
  444MOL0     H59909   6.399   5.738   4.151  1.4441 -1.5485  2.2067
  444MOL0     H59910   6.680   5.867   4.160  2.2787 -1.6611 -2.8255
  444MOL0     H59911   6.648   5.740   4.055  1.1576 -2.0462  1.1321
  444MOL0     H59912   6.633   5.736   4.358  0.3656  0.6850  0.0501
  444MOL0     H59913   6.570   5.594   4.272 -0.0587 -0.7867 -1.4983
  444MOL0     H59914   6.831   5.619   4.166 -1.2839 -2.0486 -0.8129
  444MOL0     H59915   6.763   5.498   4.275 -0.1346 -0.2250 -0.4970
  444MOL0     H59916   6.887   5.745   4.357  0.1439  0.6095  1.7314
  444MOL0     H59917   6.806   5.625   4.473  1.6599  0.3605  1.6767
  444MOL0     H59918   7.074   5.626   4.346  0.5934 -1.1852 -0.7861
  444MOL0     H59919   6.979   5.478   4.310 -1.4582 -1.0937  2.5691
  444MOL0     H59920   7.122   5.450   4.525  0.5631 -0.4878 -0.9240
  444MOL0     H59921   6.950   5.463   4.560 -2.1411  1.8456 -1.8480
  444MOL0     H59922   6.625   5.820   3.746 -1.4167 -0.7160  1.2086
  444MOL0     H59923   6.637   5.939   3.539 -0.8708 -2.1197 -0.2527
  444MOL0     H59924   6.339   6.327   3.338 -0.6068 -0.2572  0.8103
  444MOL0     H59925   6.288   6.521   3.201 -2.6105  1.0960  3.0206
  444MOL0     H59926   6.926   7.676   3.758 -2.2627 -0.2440  0.1400
  444MOL0     H59927   6.923   7.664   3.996  0.3546 -1.1876  1.6001
  444MOL0     H59928   6.837   7.661   4.454  4.4458  2.0272 -1.0810
  444MOL0     H59929   6.755   7.567   4.650 -1.9728 -2.1732 -0.4397
  444MOL0     H59930   6.845   7.112   4.706  0.1027 -1.2397  1.0695
  444MOL0     H59931   6.813   7.177   4.870  0.9967  3.2500 -0.3531
  444MOL0     H59932   6.589   7.168   4.824 -0.0535  0.8794 -1.6696
  444MOL0     H59933   6.683   7.016   4.790  1.1188  1.3270  1.8513
  444MOL0     H59934   6.674   7.100   4.533  0.2905  4.2883 -1.0703
  444MOL0     H59935   6.572   7.225   4.585  5.0189  2.5559  1.9731
  444MOL0     H59936   6.406   7.054   4.679 -0.5223 -0.2719 -1.0298
  444MOL0     H59937   6.513   6.931   4.599 -0.8959 -0.9654 -3.9597
  444MOL0     H59938   6.293   7.122   4.282  2.0796 -1.4691 -0.1270
  444MOL0     H59939   6.937   7.187   4.544 -4.9414  0.0606  4.7314
  444MOL0     H59940   7.042   7.290   4.345 -2.3170 -2.2355 -0.9664
  445MOL0     O59941   4.369   2.516   6.720  0.5268 -0.0396 -0.5166
  445MOL0     C59942   4.258   2.564   6.700 -0.2158  0.1761  0.1419
  445MOL0     O59943   4.228   2.648   6.588  0.8901 -0.0341 -0.2827
  445MOL0     C59944   4.299   2.646   6.470 -0.3275 -1.0404  0.5700
  445MOL0     C59945   4.305   2.754   6.379 -0.8924 -0.0525  0.0678
  445MOL0     C59946   4.357   2.734   6.249  0.1098  0.2230 -0.0641
  445MOL0     C59947   4.406   2.614   6.203 -0.0042  0.8641 -0.0020
  445MOL0     O59948   4.450   2.603   6.072 -0.4846  0.4553  0.0635
  445MOL0     C59949   4.403   2.484   6.008  1.0811 -0.3667 -1.2526
  445MOL0     C59950   4.388   2.508   5.858  0.8550  0.2630  0.3216
  445MOL0     C59951   4.251   2.583   5.839 -0.1752 -0.4706  0.2018
  445MOL0     C59952   4.205   2.566   5.696 -0.4463 -1.0180  0.2011
  445MOL0     C59953   4.077   2.649   5.679 -0.2343  0.0125  0.0009
  445MOL0     C59954   4.019   2.628   5.533  0.1574 -1.0891  0.2539
  445MOL0     C59955   4.101   2.693   5.418  0.3557 -0.6417 -0.7608
  445MOL0     C59956   4.075   2.839   5.431 -0.4993 -0.3964 -0.5499
  445MOL0     N59957   4.179   2.902   5.354 -0.3605 -0.0400  0.3373
  445MOL0     C59958   4.313   2.908   5.370 -0.5714 -0.6123  0.1352
  445MOL0     C59959   4.356   2.980   5.266 -0.4425  0.2177  0.3248
  445MOL0     C59960   4.500   3.035   5.244  0.1394 -0.9261  0.5983
  445MOL0     C59961   4.521   3.156   5.334 -0.6618 -0.0558 -0.2984
  445MOL0     C59962   4.662   3.218   5.311  0.4874 -0.4475  1.0697
  445MOL0     C59963   4.681   3.350   5.394  0.6496 -0.3583 -0.0023
  445MOL0     O59964   4.619   3.471   5.344  0.0511  0.3208 -0.7866
  445MOL0     C59965   4.610   3.588   5.419 -0.5001  0.1496  0.5232
  445MOL0     C59966   4.511   3.681   5.393  0.2303 -0.2132  0.2585
  445MOL0     C59967   4.496   3.803   5.454 -0.9831  0.6698 -0.2439
  445MOL0     C59968   4.374   3.880   5.423 -0.7778 -0.2390  0.2614
  445MOL0     C59969   4.611   3.844   5.532 -0.1106 -0.5107 -0.3136
  445MOL0     C59970   4.638   3.988   5.578 -0.2871  0.7632  0.0352
  445MOL0     O59971   4.748   4.014   5.651  0.4477 -0.1019 -0.0593
  445MOL0     C59972   4.816   4.133   5.666 -0.8695  1.0407 -0.1024
  445MOL0     C59973   4.776   4.256   5.615 -0.3449  0.3188  0.2468
  445MOL0     C59974   4.858   4.374   5.642 -0.8190  0.1895 -0.0973
  445MOL0     C59975   4.980   4.363   5.713 -0.1153  0.0414  0.5145
  445MOL0     O59976   5.047   4.481   5.721  0.5284  0.1469 -0.7788
  445MOL0     C59977   5.126   4.502   5.840 -0.3975 -0.0654 -0.1432
  445MOL0     C59978   5.273   4.460   5.842  0.2343  0.0930 -0.0075
  445MOL0     C59979   5.342   4.504   5.974 -0.3350  0.4589  0.1730
  445MOL0     C59980   5.495   4.487   5.980 -0.7324 -1.5064  0.0040
  445MOL0     C59981   5.578   4.586   5.883  0.1980 -0.9265  0.0884
  445MOL0     C59982   5.594   4.728   5.926 -0.6499  0.0010 -1.1145
  445MOL0     C59983   5.674   4.800   5.827 -1.1776  0.5942  0.5277
  445MOL0     C59984   5.752   4.920   5.888 -0.1592 -0.0905 -0.0960
  445MOL0    Cl59985   5.859   4.988   5.771 -0.2348  0.1719 -0.1010
  445MOL0     C59986   5.022   4.235   5.743 -0.7434 -0.5446 -0.1406
  445MOL0     C59987   4.938   4.123   5.734 -1.2180 -0.2945  0.0346
  445MOL0     O59988   4.559   4.077   5.539  0.2077  0.3040 -0.0342
  445MOL0     C59989   4.710   3.749   5.562  0.8577 -0.4527  1.0028
  445MOL0     C59990   4.716   3.623   5.503 -0.1255 -0.6938 -1.0911
  445MOL0     N59991   4.249   3.015   5.192 -1.3422 -0.0380  0.4501
  445MOL0     N59992   4.139   2.981   5.248  0.1600  1.1625 -0.2165
  445MOL0     C59993   4.422   2.507   6.301 -0.3100 -0.2736  0.6605
  445MOL0     C59994   4.371   2.526   6.433  0.1967 -0.4271  0.0357
  445MOL0     C59995   4.148   2.523   6.788 -0.0533  1.1157 -0.1702
  445MOL0     C59996   4.156   2.401   6.860 -0.1747 -0.5751  1.3741
  445MOL0     C59997   4.048   2.346   6.932  0.6017 -0.5496 -0.0385
  445MOL0     C59998   3.929   2.427   6.956  0.1203  0.2633 -1.0152
  445MOL0     O59999   3.810   2.393   7.021 -0.3677 -0.7936  0.0477
  445MOL0     C60000   3.824   2.314   7.135  0.6456  0.2595  0.4000
  445MOL0     C60001   3.681   2.297   7.190  0.0362 -0.5605  0.4291
  445MOL0     C60002   3.634   2.435   7.258 -0.5643  0.3327 -0.1365
  445MOL0     C60003   3.511   2.404   7.337 -0.0137 -0.4232 -0.6655
  445MOL0     C60004   3.479   2.531   7.418 -0.0985 -0.3041 -0.0550
  445MOL0     C60005   3.457   2.635   7.474 -0.1249 -1.0856 -0.2676
  445MOL0     C60006   3.922   2.549   6.878 -0.9215  0.7052 -0.7269
  445MOL0     C60007   4.033   2.601   6.811  0.1513  0.4089  0.7093
  445MOL0     H60008   4.258   2.849   6.401  1.7527  1.8426 -1.8500
  445MOL0     H60009   4.362   2.815   6.178 -1.2281  1.8916  1.6524
  445MOL0     H60010   4.473   2.400   6.012  1.7133  0.1708 -0.6885
  445MOL0     H60011   4.311   2.453   6.059 -0.3057  0.8191 -2.9291
  445MOL0     H60012   4.471   2.568   5.820  2.3395 -1.8819  0.0551
  445MOL0     H60013   4.386   2.405   5.821 -0.9180 -0.5216  2.3797
  445MOL0     H60014   4.172   2.552   5.908 -0.9509  2.5418  0.8231
  445MOL0     H60015   4.272   2.685   5.872  2.6258 -1.4344  1.7423
  445MOL0     H60016   4.282   2.589   5.622 -0.4241 -4.5316 -1.0866
  445MOL0     H60017   4.182   2.460   5.682 -0.1277 -1.0829  0.1734
  445MOL0     H60018   4.008   2.599   5.748  1.0427 -0.0491  1.2771
  445MOL0     H60019   4.097   2.751   5.713 -1.9776  1.5479 -3.1123
  445MOL0     H60020   4.020   2.519   5.520 -1.0693 -1.0965  0.0671
  445MOL0     H60021   3.913   2.651   5.518  0.6239  0.8022 -0.4181
  445MOL0     H60022   4.209   2.677   5.434  0.5241  0.6855 -0.4734
  445MOL0     H60023   4.080   2.667   5.314  3.4177  2.9938 -2.5308
  445MOL0     H60024   4.095   2.867   5.535 -1.8762  3.5388 -1.1754
  445MOL0     H60025   3.970   2.863   5.410  0.6465  4.4524 -2.0956
  445MOL0     H60026   4.361   2.865   5.457 -0.6741  1.2550  1.1574
  445MOL0     H60027   4.583   2.964   5.239  1.8965  1.0856 -0.0379
  445MOL0     H60028   4.503   3.075   5.143  2.0563  0.0400  0.9859
  445MOL0     H60029   4.508   3.131   5.440 -3.6077  1.4086 -0.2122
  445MOL0     H60030   4.443   3.230   5.312 -1.7458 -0.9598  0.3787
  445MOL0     H60031   4.680   3.228   5.204 -0.5022 -2.6894  0.6361
  445MOL0     H60032   4.733   3.146   5.354 -2.7614 -3.3178  2.0661
  445MOL0     H60033   4.791   3.354   5.396  0.9459 -4.0690 -0.7104
  445MOL0     H60034   4.651   3.321   5.495  2.2537  0.7638  0.8489
  445MOL0     H60035   4.438   3.644   5.322 -0.0154  0.6586  0.0390
  445MOL0     H60036   4.402   3.956   5.349  0.0286 -0.7817 -0.0006
  445MOL0     H60037   4.299   3.813   5.380 -0.1329 -0.6748 -0.1997
  445MOL0     H60038   4.331   3.930   5.511 -3.0113  0.8356 -1.3170
  445MOL0     H60039   4.681   4.270   5.564  0.0604  0.9532 -0.3529
  445MOL0     H60040   4.822   4.470   5.606 -0.6165  0.3110  0.0274
  445MOL0     H60041   5.116   4.609   5.864  1.0708 -0.4675  2.7281
  445MOL0     H60042   5.078   4.451   5.924 -0.5106  0.8930  0.3970
  445MOL0     H60043   5.268   4.351   5.841  1.0822  0.0249 -2.0431
  445MOL0     H60044   5.317   4.498   5.749  0.0967 -5.8780 -2.9838
  445MOL0     H60045   5.290   4.448   6.052 -0.0309 -0.7771 -0.4770
  445MOL0     H60046   5.319   4.608   5.997 -3.3163 -0.0933  0.1453
  445MOL0     H60047   5.523   4.500   6.085  2.7082 -2.2226 -0.7083
  445MOL0     H60048   5.517   4.385   5.947 -0.5965 -0.9902 -1.5855
  445MOL0     H60049   5.531   4.607   5.787 -1.4464 -0.2462  1.0108
  445MOL0     H60050   5.669   4.529   5.861  2.0155  2.3369 -1.5925
  445MOL0     H60051   5.497   4.774   5.946  0.2667  1.6868 -0.2991
  445MOL0     H60052   5.644   4.736   6.023 -1.6351 -0.2097 -0.5729
  445MOL0     H60053   5.617   4.834   5.739 -3.7409 -2.9755  0.6121
  445MOL0     H60054   5.747   4.724   5.798 -2.6217 -1.4735  2.0446
  445MOL0     H60055   5.809   4.882   5.974  0.6366  0.0440 -0.5598
  445MOL0     H60056   5.688   5.000   5.927  2.4923  0.5090  3.6204
  445MOL0     H60057   5.124   4.212   5.769 -0.0818  2.4898  0.3249
  445MOL0     H60058   4.963   4.023   5.767 -0.8112 -0.0960  0.3319
  445MOL0     H60059   4.787   3.773   5.635  1.2605  0.0853  0.4216
  445MOL0     H60060   4.798   3.553   5.521  0.4609  0.4538  1.0802
  445MOL0     H60061   4.482   2.425   6.261  1.9248  2.0488 -1.0937
  445MOL0     H60062   4.375   2.441   6.500 -2.5549 -0.5528  0.1389
  445MOL0     H60063   4.253   2.353   6.856  1.0997  1.9272 -1.6040
  445MOL0     H60064   4.059   2.254   6.989  2.3835 -1.0987 -1.1965
  445MOL0     H60065   3.878   2.224   7.105  2.1895  1.2791  0.0319
  445MOL0     H60066   3.888   2.355   7.213 -0.3425 -0.9740  1.9116
  445MOL0     H60067   3.705   2.221   7.264 -4.6663  1.2520  4.3697
  445MOL0     H60068   3.605   2.254   7.123  1.6342  0.7199 -2.3970
  445MOL0     H60069   3.619   2.509   7.179  1.1921  0.7335 -0.1373
  445MOL0     H60070   3.710   2.485   7.318 -2.0512 -1.1768  3.3011
  445MOL0     H60071   3.525   2.323   7.409 -1.9889  0.3453  0.6642
  445MOL0     H60072   3.435   2.376   7.264 -1.1577  1.3494 -0.2248
  445MOL0     H60073   3.434   2.712   7.544 -0.1284 -2.2368  1.0358
  445MOL0     H60074   3.830   2.604   6.894 -0.0379  1.4613  2.2440
  445MOL0     H60075   4.035   2.697   6.761  0.0945 -0.7061 -1.5704
  446MOL0     O60076   0.744   2.438   6.772 -0.2258 -0.4319  0.5898
  446MOL0     C60077   0.732   2.517   6.864 -0.7432 -0.7253  0.1702
  446MOL0     O60078   0.754   2.483   6.991  0.0019 -0.3854 -0.1848
  446MOL0     C60079   0.791   2.357   7.029 -0.5530  0.1916  0.0253
  446MOL0     C60080   0.922   2.321   7.047 -0.3374  0.0636 -0.8771
  446MOL0     C60081   0.959   2.196   7.095  0.0206  0.1430 -0.4510
  446MOL0     C60082   0.861   2.098   7.133 -1.0254  0.1442  0.4509
  446MOL0     O60083   0.893   1.970   7.184  0.9552  0.6211 -0.3594
  446MOL0     C60084   1.018   1.963   7.266  0.6559  0.2403  0.6917
  446MOL0     C60085   1.043   2.053   7.384 -0.5662  0.1201 -0.1557
  446MOL0     C60086   0.946   2.031   7.494  0.3482  1.6771 -0.0323
  446MOL0     C60087   0.959   2.132   7.606  1.4663  0.3943 -0.0776
  446MOL0     C60088   1.074   2.109   7.702 -0.3422 -1.1430 -0.1670
  446MOL0     C60089   1.050   1.998   7.801 -0.3764 -0.3499 -0.1017
  446MOL0     C60090   1.157   1.986   7.922  0.4016  0.3935  0.4827
  446MOL0     C60091   1.115   2.066   8.042  0.5441 -0.4435  0.1135
  446MOL0     N60092   1.228   2.060   8.141 -0.3208  0.6503  0.1241
  446MOL0     C60093   1.341   2.141   8.141 -0.3120  0.8356 -0.4748
  446MOL0     C60094   1.419   2.084   8.236 -1.4912  0.3105 -0.7063
  446MOL0     C60095   1.550   2.129   8.277 -0.6206  0.1136  1.0180
  446MOL0     C60096   1.549   2.268   8.341 -0.0572 -0.0702 -0.0556
  446MOL0     C60097   1.688   2.282   8.401  0.0328  0.4034 -0.6763
  446MOL0     C60098   1.709   2.416   8.471 -0.4376  0.9773 -0.0531
  446MOL0     O60099   1.640   2.430   8.598  0.5754 -0.2002  1.0962
  446MOL0     C60100   1.660   2.353   8.706 -0.7578 -0.3020 -0.6665
  446MOL0     C60101   1.557   2.367   8.804  0.2437  1.4607  0.2149
  446MOL0     C60102   1.554   2.283   8.909 -0.0629  0.4432  0.3581
  446MOL0     C60103   1.451   2.303   9.008 -0.1771 -0.8789 -0.4432
  446MOL0     C60104   1.657   2.188   8.931  0.7958 -0.4863 -0.3733
  446MOL0     C60105   1.662   2.086   9.039  0.6173  0.4041 -0.6747
  446MOL0     O60106   1.531   2.030   9.094 -0.1892 -0.4141  1.0413
  446MOL0     C60107   1.537   1.969   9.213  0.5373 -0.0319 -0.4264
  446MOL0     C60108   1.581   2.030   9.325 -0.1582  0.9622 -0.3245
  446MOL0     C60109   1.565   1.978   9.450  0.0400  0.1664 -0.4520
  446MOL0     C60110   1.506   1.851   9.468 -0.7445 -0.2826  1.1272
  446MOL0     O60111   1.463   1.822   9.593  0.0142  0.6998  0.2584
  446MOL0     C60112   1.345   1.754   9.628  0.6666  0.9052  0.3574
  446MOL0     C60113   1.332   1.763   9.785 -0.9408  0.5935 -0.2318
  446MOL0     C60114   1.237   1.663   9.846  0.8653  0.5608  0.0501
  446MOL0     C60115   1.097   1.709   9.828  0.3368 -0.1122 -0.0204
  446MOL0     C60116   0.996   1.606   9.880  0.5159  0.5156  1.0516
  446MOL0     C60117   0.957   1.637  10.025  0.1356 -0.2984  0.2758
  446MOL0     C60118   0.858   1.760  10.031 -0.6262  0.5502  0.2065
  446MOL0     C60119   0.707   1.725  10.020  0.1754 -0.4401  0.1348
  446MOL0    Cl60120   0.602   1.853   9.982  0.2184 -0.6469  0.3834
  446MOL0     C60121   1.471   1.787   9.355 -0.3129 -0.4170  0.2804
  446MOL0     C60122   1.485   1.834   9.227 -0.4324 -0.7653  0.0013
  446MOL0     O60123   1.770   2.046   9.081 -0.3583  0.3722  0.5296
  446MOL0     C60124   1.767   2.181   8.844  0.0555  1.4950 -0.0415
  446MOL0     C60125   1.767   2.258   8.727 -0.2585 -0.5025  0.0284
  446MOL0     N60126   1.355   1.978   8.292  0.4695  0.4616  0.6901
  446MOL0     N60127   1.236   1.961   8.235  0.7036  0.6803  0.6333
  446MOL0     C60128   0.727   2.134   7.111  0.6041 -1.0704  0.2850
  446MOL0     C60129   0.693   2.262   7.068  0.4783  0.0809  0.5146
  446MOL0     C60130   0.704   2.657   6.833 -0.6405  0.2237  0.6106
  446MOL0     C60131   0.696   2.758   6.932  0.3167  0.6379 -0.8034
  446MOL0     C60132   0.669   2.892   6.908  0.2691 -0.7430  0.5031
  446MOL0     C60133   0.650   2.937   6.773 -0.2051 -0.1157  0.6615
  446MOL0     O60134   0.617   3.070   6.747 -0.3635 -0.3195 -0.6478
  446MOL0     C60135   0.627   3.113   6.611 -0.4315 -0.8382 -0.5063
  446MOL0     C60136   0.604   3.262   6.607  0.0113  0.4279  1.0507
  446MOL0     C60137   0.475   3.298   6.682  0.6993  0.6696  0.5209
  446MOL0     C60138   0.514   3.412   6.787  0.4341 -0.0928  0.5080
  446MOL0     C60139   0.411   3.418   6.893  0.7456  0.1086 -0.1157
  446MOL0     C60140   0.335   3.399   6.990 -0.0907  0.1566  0.3016
  446MOL0     C60141   0.657   2.838   6.670 -0.0166  0.8643 -0.5174
  446MOL0     C60142   0.666   2.698   6.706 -0.0807  0.2133  0.5605
  446MOL0     H60143   0.986   2.409   7.041 -0.4179  0.1600 -0.3681
  446MOL0     H60144   1.065   2.173   7.102  0.1878  0.7613 -0.8685
  446MOL0     H60145   1.023   1.855   7.284  1.3182  0.1655  0.0816
  446MOL0     H60146   1.101   1.980   7.197 -1.5474 -0.8854 -2.4417
  446MOL0     H60147   1.143   2.023   7.417  0.2726  4.9153  2.5147
  446MOL0     H60148   1.043   2.159   7.356 -0.8136 -0.1585 -1.2575
  446MOL0     H60149   0.848   2.037   7.446  0.4083  1.9317 -0.1260
  446MOL0     H60150   0.951   1.930   7.536 -3.1797  1.7520  0.8871
  446MOL0     H60151   0.969   2.231   7.560  0.6531  0.5888  0.1558
  446MOL0     H60152   0.866   2.132   7.663  1.4405  0.8063 -0.1113
  446MOL0     H60153   1.165   2.099   7.641  1.1629  2.7071  1.1063
  446MOL0     H60154   1.087   2.199   7.763 -0.1933 -1.6370  0.5300
  446MOL0     H60155   0.951   1.998   7.846  0.0990 -0.6707  0.9958
  446MOL0     H60156   1.061   1.904   7.746 -0.9625  1.0271 -2.7138
  446MOL0     H60157   1.157   1.878   7.939  0.1219  0.0259 -1.6039
  446MOL0     H60158   1.256   2.022   7.894 -0.2798  1.3295 -0.8615
  446MOL0     H60159   1.024   2.034   8.093 -0.0906 -1.8018 -1.7972
  446MOL0     H60160   1.115   2.173   8.019 -0.6054  0.1663  2.5980
  446MOL0     H60161   1.370   2.219   8.072  2.5663 -1.1751 -1.7437
  446MOL0     H60162   1.590   2.052   8.344  0.1397 -0.0145  0.4302
  446MOL0     H60163   1.609   2.126   8.185 -2.3012 -1.1142 -0.0793
  446MOL0     H60164   1.476   2.278   8.421 -3.1048  1.0728 -2.7865
  446MOL0     H60165   1.540   2.341   8.260 -1.4382  0.5369  0.6204
  446MOL0     H60166   1.772   2.277   8.331  1.8668  1.8920  1.2569
  446MOL0     H60167   1.710   2.200   8.471 -3.9936 -1.5915 -1.4953
  446MOL0     H60168   1.677   2.498   8.407  1.8158  0.2673 -2.2410
  446MOL0     H60169   1.816   2.426   8.493  0.2265  0.1332 -2.5708
  446MOL0     H60170   1.465   2.423   8.788 -0.1377  0.4629 -1.2568
  446MOL0     H60171   1.362   2.242   8.993 -1.3641  1.1201 -1.9499
  446MOL0     H60172   1.494   2.293   9.109  1.7003 -0.9343 -1.1953
  446MOL0     H60173   1.420   2.407   9.000  0.7774 -0.2272  2.6667
  446MOL0     H60174   1.644   2.118   9.321  1.7970  0.0578  4.0674
  446MOL0     H60175   1.600   2.027   9.540  1.4079 -2.9922  0.9090
  446MOL0     H60176   1.256   1.794   9.578  0.5039  0.8973  0.6332
  446MOL0     H60177   1.361   1.648   9.608 -0.2952  0.1213  3.1638
  446MOL0     H60178   1.435   1.755   9.822  0.2558  2.9361 -2.7668
  446MOL0     H60179   1.292   1.864   9.804 -1.4636  0.3641 -0.0874
  446MOL0     H60180   1.247   1.642   9.953 -1.6295  1.4407  0.5156
  446MOL0     H60181   1.244   1.571   9.786 -0.8127  0.4023  0.0418
  446MOL0     H60182   1.072   1.801   9.881  0.6380 -0.4383  0.6981
  446MOL0     H60183   1.077   1.722   9.721  2.8682  1.0643 -0.4130
  446MOL0     H60184   1.031   1.502   9.874 -3.8012 -1.0999  0.6218
  446MOL0     H60185   0.905   1.612   9.820  0.8035  0.0010  0.5501
  446MOL0     H60186   0.907   1.549  10.068 -0.6591 -0.5692 -1.1426
  446MOL0     H60187   1.048   1.648  10.084  1.7049 -0.7577 -1.9321
  446MOL0     H60188   0.878   1.830   9.949 -1.8473 -1.5922 -2.0793
  446MOL0     H60189   0.875   1.814  10.125 -0.5844 -2.0204  1.7657
  446MOL0     H60190   0.669   1.686  10.114 -0.7074 -2.1559 -0.8866
  446MOL0     H60191   0.688   1.645   9.947 -1.9531  0.4242 -0.3363
  446MOL0     H60192   1.419   1.692   9.351 -1.0352 -0.1221  1.9973
  446MOL0     H60193   1.451   1.783   9.138 -0.4552 -1.5422  0.4518
  446MOL0     H60194   1.834   2.099   8.865 -1.3947  1.2296  4.6246
  446MOL0     H60195   1.844   2.239   8.653 -0.6648 -3.1986  0.1824
  446MOL0     H60196   0.648   2.068   7.145 -1.2058  0.5160 -0.6054
  446MOL0     H60197   0.588   2.292   7.069  0.8859  1.6714 -0.1131
  446MOL0     H60198   0.715   2.736   7.036  0.4330 -0.3808 -1.0232
  446MOL0     H60199   0.662   2.973   6.981 -1.0268  0.0289 -0.4255
  446MOL0     H60200   0.726   3.097   6.567 -0.6817  2.2185 -2.4687
  446MOL0     H60201   0.546   3.065   6.556 -1.4094 -0.4467  0.5591
  446MOL0     H60202   0.600   3.266   6.498 -2.5702 -3.8348  0.7464
  446MOL0     H60203   0.691   3.320   6.639  2.4885 -0.5420 -3.1063
  446MOL0     H60204   0.428   3.223   6.746 -0.6445  0.1683 -0.9803
  446MOL0     H60205   0.407   3.331   6.603  3.1782  0.8114 -1.7087
  446MOL0     H60206   0.524   3.506   6.732 -1.2980  1.7513  3.1132
  446MOL0     H60207   0.615   3.398   6.826 -0.2223  1.6275  3.1079
  446MOL0     H60208   0.293   3.365   7.083 -0.4047  1.3161  0.6065
  446MOL0     H60209   0.645   2.862   6.565 -2.2239 -0.5192 -0.6395
  446MOL0     H60210   0.660   2.623   6.628  0.1849 -0.1495  0.8815
  447MOL0     O60211  10.546   4.806   1.341 -0.7739  0.6999  0.7589
  447MOL0     C60212  10.578   4.879   1.248 -0.3206  0.3522 -0.8137
  447MOL0     O60213  10.518   5.001   1.229  0.4596  0.0343  0.2397
  447MOL0     C60214  10.427   5.064   1.313  0.4979  0.3046  0.4509
  447MOL0     C60215  10.363   5.174   1.256  0.3596 -0.8166  0.2301
  447MOL0     C60216  10.268   5.261   1.330 -0.1109  0.1820  0.6062
  447MOL0     C60217  10.252   5.232   1.468  0.4686 -0.3778  0.7707
  447MOL0     O60218  10.166   5.295   1.553 -0.2990 -0.1006 -0.4918
  447MOL0     C60219  10.035   5.348   1.502 -0.8196  0.0773 -0.3932
  447MOL0     C60220   9.945   5.353   1.630 -0.7424 -0.0412  0.1988
  447MOL0     C60221   9.896   5.220   1.688 -0.5606 -0.7066  0.9454
  447MOL0     C60222   9.749   5.205   1.675 -0.9226  0.7377  0.1451
  447MOL0     C60223   9.712   5.061   1.703  0.6043 -0.7381  0.1263
  447MOL0     C60224   9.698   5.054   1.866 -0.5210  0.3257  0.1532
  447MOL0     C60225   9.665   4.920   1.925  0.4921 -0.4534 -0.0665
  447MOL0     C60226   9.519   4.906   1.963 -0.6959 -0.1590 -0.4566
  447MOL0     N60227   9.435   4.914   1.838 -0.2827  0.3127  0.0346
  447MOL0     C60228   9.350   5.011   1.800  0.5444  0.1504 -0.7476
  447MOL0     C60229   9.301   4.963   1.681 -0.5307 -0.5170 -0.3302
  447MOL0     C60230   9.208   5.048   1.597  0.2623 -0.3856  0.4608
  447MOL0     C60231   9.281   5.137   1.489 -0.4556 -0.5131  0.0702
  447MOL0     C60232   9.316   5.051   1.365 -0.0534  0.2756  0.2420
  447MOL0     C60233   9.205   4.983   1.287  0.6574 -0.4285 -0.7348
  447MOL0     O60234   9.244   4.958   1.156 -0.8994 -0.4958 -0.2111
  447MOL0     C60235   9.159   4.954   1.048 -0.0922  0.5454  1.1239
  447MOL0     C60236   9.029   5.008   1.043  0.3073  0.8469 -0.3923
  447MOL0     C60237   8.959   5.015   0.921 -0.6547 -0.1829 -0.2268
  447MOL0     C60238   8.824   5.082   0.921  0.4962 -0.6544 -0.3858
  447MOL0     C60239   9.021   4.963   0.804  0.0678 -0.2913  0.3028
  447MOL0     C60240   8.947   4.953   0.678  0.2861  0.2707 -0.0127
  447MOL0     O60241   8.998   5.008   0.566  0.7420  0.6716  0.3777
  447MOL0     C60242   8.929   5.003   0.438  0.3986  0.8083 -1.1121
  447MOL0     C60243   9.015   5.013   0.331  0.0599  0.3277  0.6402
  447MOL0     C60244   8.964   5.013   0.197 -0.3548  0.8934 -0.8861
  447MOL0     C60245   8.821   5.012   0.182 -0.2577 -0.5600  0.0257
  447MOL0     O60246   8.783   5.020   0.054  0.2405  0.0994  0.4027
  447MOL0     C60247   8.640   5.018   0.021  0.2227 -0.4007  0.5407
  447MOL0     C60248   8.629   4.940  -0.114 -0.3607  0.2769 -0.4542
  447MOL0     C60249   8.487   4.920  -0.155  0.7165  0.1269 -0.0319
  447MOL0     C60250   8.474   4.860  -0.295  0.4908  1.4912  0.2246
  447MOL0     C60251   8.328   4.791  -0.317 -0.6624  0.2635  1.3793
  447MOL0     C60252   8.299   4.662  -0.257  0.1834  1.7933  0.6643
  447MOL0     C60253   8.165   4.587  -0.286  0.0548  0.0822 -0.4650
  447MOL0     C60254   8.148   4.545  -0.431 -0.5631  0.8767 -0.2842
  447MOL0    Cl60255   8.292   4.456  -0.510 -0.0310  0.0153 -0.2106
  447MOL0     C60256   8.733   5.022   0.295 -0.5316  0.0226 -0.5030
  447MOL0     C60257   8.789   5.004   0.422 -0.4538  0.1546 -0.5548
  447MOL0     O60258   8.863   4.870   0.679 -0.1119  0.0523 -0.0189
  447MOL0     C60259   9.149   4.916   0.817  0.8528  0.2376  0.8136
  447MOL0     C60260   9.226   4.921   0.933  0.0147  0.4095  0.2193
  447MOL0     N60261   9.344   4.843   1.648 -0.3025  0.7635  0.2011
  447MOL0     N60262   9.418   4.806   1.751  0.0293 -0.4280 -0.8997
  447MOL0     C60263  10.325   5.126   1.530 -0.1546 -0.8334 -0.0506
  447MOL0     C60264  10.408   5.040   1.451  1.2280  0.1264  0.0038
  447MOL0     C60265  10.661   4.811   1.139 -0.3009  0.6730  0.2625
  447MOL0     C60266  10.693   4.673   1.134 -0.6059 -0.4917 -0.9003
  447MOL0     C60267  10.774   4.619   1.032  0.6262 -0.2091  0.6648
  447MOL0     C60268  10.816   4.705   0.928 -0.5379 -0.1150  0.9628
  447MOL0     O60269  10.873   4.656   0.814  0.2611 -0.1448 -1.4470
  447MOL0     C60270  10.978   4.562   0.826  0.3835  0.5118 -0.2210
  447MOL0     C60271  11.125   4.623   0.837 -0.9992 -0.1333 -0.9484
  447MOL0     C60272  11.159   4.731   0.724 -0.0097  0.0398 -0.5102
  447MOL0     C60273  11.309   4.736   0.695  0.6180 -0.2717  0.2350
  447MOL0     C60274  11.389   4.743   0.817  0.8610 -0.4041 -0.0941
  447MOL0     C60275  11.456   4.743   0.918 -0.9240  1.0389 -1.1263
  447MOL0     C60276  10.789   4.842   0.935  0.4550  0.7265  1.1635
  447MOL0     C60277  10.703   4.894   1.029 -0.1205  0.1348  0.6103
  447MOL0     H60278  10.392   5.215   1.159  3.8703 -0.3811  1.3246
  447MOL0     H60279  10.219   5.345   1.281 -1.1906 -0.3252  0.7802
  447MOL0     H60280  10.037   5.449   1.458  0.0142  0.3064  0.1418
  447MOL0     H60281   9.988   5.280   1.430  0.7338  0.3703 -1.7468
  447MOL0     H60282  10.004   5.408   1.704  0.5602  0.2657 -1.0284
  447MOL0     H60283   9.852   5.404   1.603 -0.7508 -0.4742 -0.6396
  447MOL0     H60284   9.950   5.144   1.631 -3.0321 -1.9200  0.1135
  447MOL0     H60285   9.948   5.215   1.784  1.5428  2.0119  0.0869
  447MOL0     H60286   9.697   5.282   1.733  1.0529  0.7380  2.0497
  447MOL0     H60287   9.726   5.231   1.572  0.0719  2.6396  0.3781
  447MOL0     H60288   9.620   5.038   1.648 -0.1816  1.3490  0.4960
  447MOL0     H60289   9.794   5.002   1.660  1.0073  1.8728 -3.0771
  447MOL0     H60290   9.798   5.080   1.903 -0.4649  1.7459 -0.9003
  447MOL0     H60291   9.626   5.132   1.891 -1.2637  0.1300 -1.2212
  447MOL0     H60292   9.695   4.846   1.850  3.0729  2.1869 -1.9152
  447MOL0     H60293   9.724   4.908   2.017  0.4710 -0.4125 -0.0480
  447MOL0     H60294   9.496   4.973   2.046  3.7392  1.2222 -0.1098
  447MOL0     H60295   9.518   4.807   2.010 -1.2696 -0.9757 -2.0785
  447MOL0     H60296   9.346   5.111   1.842 -1.3038  1.1944 -3.1464
  447MOL0     H60297   9.140   4.977   1.549  0.2099  1.1096 -1.8467
  447MOL0     H60298   9.146   5.117   1.655 -0.8383 -0.9429 -0.0253
  447MOL0     H60299   9.368   5.187   1.534  0.0596 -1.8658  0.6096
  447MOL0     H60300   9.207   5.217   1.477  2.9298  3.0389  0.6687
  447MOL0     H60301   9.389   4.975   1.391  1.7440  2.3797  1.7582
  447MOL0     H60302   9.374   5.123   1.306  2.6095 -1.4061  0.6182
  447MOL0     H60303   9.114   5.044   1.286  0.2784 -0.9467 -3.0546
  447MOL0     H60304   9.172   4.889   1.333  0.2687  1.7699  4.0943
  447MOL0     H60305   8.975   5.051   1.126 -0.3080  1.1508 -0.9444
  447MOL0     H60306   8.750   5.016   0.875 -1.5935 -0.7153  2.7725
  447MOL0     H60307   8.787   5.102   1.022 -0.9636 -4.1118 -0.1091
  447MOL0     H60308   8.836   5.179   0.872  0.3006  0.8321  2.3308
  447MOL0     H60309   9.121   5.032   0.347  0.4670  0.6348 -1.9240
  447MOL0     H60310   9.019   5.021   0.104  3.6903 -1.5656  1.0354
  447MOL0     H60311   8.570   4.970   0.091 -2.1858  1.0241 -0.7622
  447MOL0     H60312   8.612   5.123   0.010 -0.9051 -0.5992  1.2292
  447MOL0     H60313   8.685   5.000  -0.186  1.2909 -0.7177 -0.0589
  447MOL0     H60314   8.686   4.847  -0.128  1.5733  1.7475 -3.1468
  447MOL0     H60315   8.422   5.007  -0.144  3.9271  2.4294  3.2763
  447MOL0     H60316   8.438   4.845  -0.092 -0.0689 -2.1144 -3.0785
  447MOL0     H60317   8.487   4.952  -0.354 -0.0293  1.8545  0.6567
  447MOL0     H60318   8.555   4.791  -0.319  0.5389  2.5165 -3.0383
  447MOL0     H60319   8.315   4.781  -0.425  3.0024  2.0003  0.6529
  447MOL0     H60320   8.241   4.853  -0.290 -2.2752 -1.4591  0.4199
  447MOL0     H60321   8.376   4.600  -0.302 -0.4573  2.1680 -1.0460
  447MOL0     H60322   8.330   4.666  -0.152  2.3777  2.4871  0.0294
  447MOL0     H60323   8.079   4.650  -0.263  0.2631  0.3618 -0.4484
  447MOL0     H60324   8.163   4.495  -0.226 -1.3934  2.0501  2.7446
  447MOL0     H60325   8.143   4.638  -0.488 -0.7556  1.7295  1.0799
  447MOL0     H60326   8.050   4.501  -0.455 -0.6456  1.7165 -1.5322
  447MOL0     H60327   8.626   5.005   0.291 -0.6499  0.9277 -2.6139
  447MOL0     H60328   8.715   4.999   0.501 -0.5182  1.1512 -0.5402
  447MOL0     H60329   9.208   4.880   0.733 -3.7788  0.0419 -2.8056
  447MOL0     H60330   9.334   4.908   0.939 -0.0951 -0.8021 -0.1155
  447MOL0     H60331  10.301   5.105   1.634 -0.7423  2.2208  0.5408
  447MOL0     H60332  10.458   4.955   1.497  1.7893  1.0687  1.1966
  447MOL0     H60333  10.672   4.614   1.223  3.3283  1.2190  1.4032
  447MOL0     H60334  10.781   4.512   1.014  3.4822 -0.1659  1.0763
  447MOL0     H60335  10.968   4.494   0.910 -0.1835  0.7299 -0.1129
  447MOL0     H60336  10.963   4.502   0.735 -2.3540 -2.0469  1.7271
  447MOL0     H60337  11.196   4.540   0.840  0.0090  0.6841  2.7412
  447MOL0     H60338  11.130   4.657   0.941 -2.0277 -2.2241 -0.1710
  447MOL0     H60339  11.132   4.832   0.755  1.9296  0.9696 -1.7062
  447MOL0     H60340  11.098   4.698   0.639 -0.8290  1.5584 -0.5446
  447MOL0     H60341  11.328   4.812   0.619 -1.5519  0.7680  0.6491
  447MOL0     H60342  11.320   4.640   0.643  0.6838  0.0187 -0.2953
  447MOL0     H60343  11.530   4.738   0.995  0.7913 -1.8406 -2.7680
  447MOL0     H60344  10.825   4.909   0.857  1.8327 -1.4101 -0.1537
  447MOL0     H60345  10.678   5.000   1.028 -0.1632  0.1508 -1.9969
  448MOL0     O60346   9.114   1.704   8.576 -0.0597  0.1675  0.2485
  448MOL0     C60347   9.034   1.653   8.654  0.5042  0.2464  0.3953
  448MOL0     O60348   9.070   1.619   8.778  0.4264 -0.1021  0.4514
  448MOL0     C60349   9.200   1.583   8.797 -0.5447 -0.5011 -0.6696
  448MOL0     C60350   9.266   1.650   8.899 -0.4336 -1.2000  0.6511
  448MOL0     C60351   9.405   1.616   8.921  0.1055  0.4053 -0.2960
  448MOL0     C60352   9.470   1.531   8.836  0.2447 -0.0095  0.9756
  448MOL0     O60353   9.608   1.517   8.840 -0.1373 -0.6030  0.5525
  448MOL0     C60354   9.670   1.411   8.758 -0.9527 -0.3644 -0.3896
  448MOL0     C60355   9.822   1.398   8.804  0.4867  0.6718 -0.0972
  448MOL0     C60356   9.886   1.276   8.727 -0.0325 -0.0968 -0.4103
  448MOL0     C60357  10.021   1.245   8.785  0.6700 -0.0911 -0.1177
  448MOL0     C60358  10.066   1.103   8.746 -0.5587 -1.4532  0.9208
  448MOL0     C60359  10.106   1.088   8.599  0.7242  0.4161  0.7963
  448MOL0     C60360  10.064   0.952   8.543 -0.1532  0.3103 -0.1138
  448MOL0     C60361  10.105   0.935   8.406 -0.3801 -0.5899 -0.5174
  448MOL0     N60362  10.248   0.920   8.391 -1.2156 -0.8333 -0.7818
  448MOL0     C60363  10.334   1.029   8.366 -0.4217 -0.0896  0.4893
  448MOL0     C60364  10.464   0.974   8.367  0.5391  0.5714 -0.0925
  448MOL0     C60365  10.585   1.064   8.364 -0.8651  0.4566  0.9093
  448MOL0     C60366  10.708   0.986   8.399 -0.7871  0.1530 -0.4619
  448MOL0     C60367  10.754   0.905   8.278 -0.1575 -0.7408 -0.9883
  448MOL0     C60368  10.862   0.790   8.325  0.1869  0.0704  0.4118
  448MOL0     O60369  10.942   0.816   8.443  0.1952 -0.0731  0.0894
  448MOL0     C60370  11.047   0.901   8.439  0.3150  0.2155 -0.4436
  448MOL0     C60371  11.133   0.901   8.548 -0.0069  0.5603  0.5771
  448MOL0     C60372  11.245   0.977   8.557  0.0884  0.2225  0.2711
  448MOL0     C60373  11.323   0.949   8.685  0.5859  0.6254  0.3465
  448MOL0     C60374  11.282   1.070   8.466  1.1274 -1.1769  1.2471
  448MOL0     C60375  11.384   1.170   8.481 -0.8106 -1.4327 -0.9492
  448MOL0     O60376  11.433   1.196   8.362 -0.6418 -0.2976 -0.0825
  448MOL0     C60377  11.514   1.304   8.336  0.8310  1.1121  0.1891
  448MOL0     C60378  11.521   1.324   8.195 -0.0897 -0.1951  0.7650
  448MOL0     C60379  11.591   1.437   8.146 -0.2284  0.3705 -0.8066
  448MOL0     C60380  11.645   1.529   8.232  0.2841 -0.7027 -0.2145
  448MOL0     O60381  11.706   1.640   8.186  0.6695 -0.8241  0.2766
  448MOL0     C60382  11.617   1.756   8.177  0.0469 -0.8585  0.3891
  448MOL0     C60383  11.685   1.894   8.210 -0.1149  0.1786  0.7241
  448MOL0     C60384  11.808   1.910   8.126 -0.4323  0.3584 -0.7392
  448MOL0     C60385  11.867   2.044   8.160 -1.0007 -0.8993 -0.1870
  448MOL0     C60386  12.011   2.052   8.099  0.0285 -0.7366  0.7063
  448MOL0     C60387  12.082   2.185   8.108  0.5299  0.1091  0.0171
  448MOL0     C60388  12.191   2.193   7.998  0.4392 -0.0514 -0.9175
  448MOL0     C60389  12.277   2.321   8.029  0.6144 -0.3938  0.1011
  448MOL0    Cl60390  12.338   2.339   8.198  0.2303  0.1727 -0.2043
  448MOL0     C60391  11.623   1.512   8.374 -1.3032 -0.7234  0.0763
  448MOL0     C60392  11.564   1.397   8.433 -0.6306  0.3242 -0.3110
  448MOL0     O60393  11.384   1.236   8.584  0.3006 -0.4946  0.0540
  448MOL0     C60394  11.202   1.060   8.346  1.0766  0.3791 -0.1725
  448MOL0     C60395  11.089   0.985   8.333  0.0392  0.5176 -0.4777
  448MOL0     N60396  10.446   0.835   8.371  0.7996  0.4085 -0.2011
  448MOL0     N60397  10.319   0.808   8.396 -0.0498  0.0120 -0.1206
  448MOL0     C60398   9.400   1.468   8.739  0.4916 -0.1956 -0.2652
  448MOL0     C60399   9.269   1.491   8.719  0.3091 -0.1854 -0.3031
  448MOL0     C60400   8.883   1.666   8.626 -0.0068 -0.8093  0.9848
  448MOL0     C60401   8.799   1.612   8.724  0.3929  0.2567 -0.2951
  448MOL0     C60402   8.664   1.607   8.713  0.6286 -0.2708 -0.7318
  448MOL0     C60403   8.600   1.677   8.603  0.0770 -0.1898 -1.2188
  448MOL0     O60404   8.465   1.691   8.571 -0.5974 -0.0131  0.9813
  448MOL0     C60405   8.379   1.706   8.685 -0.1505 -0.5747  0.1944
  448MOL0     C60406   8.230   1.700   8.639 -0.3867  0.3169  0.4751
  448MOL0     C60407   8.201   1.822   8.562  0.1776 -0.4933  0.2510
  448MOL0     C60408   8.082   1.813   8.476  0.8471 -1.0067 -0.3360
  448MOL0     C60409   7.954   1.795   8.541 -0.1773  0.2710 -0.1720
  448MOL0     C60410   7.856   1.785   8.620  0.3368 -0.6163  0.8545
  448MOL0     C60411   8.694   1.741   8.510  0.4285 -0.6547 -0.1974
  448MOL0     C60412   8.833   1.734   8.520 -0.6780 -1.2195  0.8731
  448MOL0     H60413   9.204   1.718   8.956 -1.7071 -2.3702  0.7249
  448MOL0     H60414   9.456   1.649   9.011  0.1981 -1.2879  0.3138
  448MOL0     H60415   9.622   1.314   8.772 -0.2510 -0.6469  0.1113
  448MOL0     H60416   9.667   1.436   8.651  3.5333 -1.4925 -0.9873
  448MOL0     H60417   9.877   1.488   8.774  2.4175  0.1403  1.6698
  448MOL0     H60418   9.835   1.390   8.912 -0.9661 -0.7690  0.0039
  448MOL0     H60419   9.822   1.190   8.746 -0.5175  0.1431 -0.9219
  448MOL0     H60420   9.875   1.308   8.623 -1.5345  1.0669  0.0690
  448MOL0     H60421  10.096   1.323   8.768  0.2728  0.6512  1.3774
  448MOL0     H60422  10.020   1.246   8.894  1.4210 -0.2594 -0.1008
  448MOL0     H60423  10.158   1.074   8.797  0.5371 -0.0078 -0.1378
  448MOL0     H60424   9.984   1.032   8.759 -1.3234 -1.0572 -1.3275
  448MOL0     H60425  10.057   1.169   8.544  0.8538  0.4522  0.7309
  448MOL0     H60426  10.213   1.111   8.600  1.0621 -0.8488 -0.8807
  448MOL0     H60427  10.105   0.863   8.593 -1.2750 -0.8040 -1.1175
  448MOL0     H60428   9.955   0.951   8.552 -0.1189  0.8530  0.3631
  448MOL0     H60429  10.069   1.016   8.341  0.2917  1.1573  1.1929
  448MOL0     H60430  10.066   0.841   8.367  2.2094 -1.2206 -1.7937
  448MOL0     H60431  10.325   1.137   8.377  0.8992 -0.0824  1.7615
  448MOL0     H60432  10.601   1.093   8.260 -0.8141  1.5747  1.2125
  448MOL0     H60433  10.592   1.148   8.434  1.6389  1.7442 -0.7494
  448MOL0     H60434  10.694   0.927   8.490  1.4167 -0.3108 -0.3767
  448MOL0     H60435  10.783   1.063   8.420 -1.3949  0.2457  1.6213
  448MOL0     H60436  10.804   0.963   8.200 -2.2168 -2.5601 -3.9062
  448MOL0     H60437  10.673   0.852   8.225 -0.4733  1.2563 -2.6097
  448MOL0     H60438  10.928   0.764   8.242 -3.2867 -1.3334 -2.1861
  448MOL0     H60439  10.804   0.701   8.347  0.9469 -1.1157 -2.0315
  448MOL0     H60440  11.095   0.841   8.631 -1.1911 -0.5560 -0.7245
  448MOL0     H60441  11.328   0.845   8.718  0.4233  0.2818 -0.6845
  448MOL0     H60442  11.427   0.981   8.673  1.2775 -1.8665 -0.8858
  448MOL0     H60443  11.279   1.009   8.766 -0.4439  0.8624 -0.3603
  448MOL0     H60444  11.497   1.264   8.107  3.2873  3.2701 -2.9643
  448MOL0     H60445  11.605   1.453   8.040  1.4131 -0.9962 -0.8246
  448MOL0     H60446  11.573   1.771   8.078 -1.1158 -1.8998  0.7174
  448MOL0     H60447  11.525   1.732   8.231  0.7499 -0.4556  1.8138
  448MOL0     H60448  11.617   1.980   8.200 -0.8545 -0.4184  0.5305
  448MOL0     H60449  11.713   1.890   8.315  1.5352  0.4908  0.3149
  448MOL0     H60450  11.788   1.915   8.019  0.7425 -0.6201 -1.0351
  448MOL0     H60451  11.886   1.841   8.158  1.1933  1.9664 -1.0431
  448MOL0     H60452  11.803   2.121   8.117  0.9599  1.8511  1.4822
  448MOL0     H60453  11.883   2.056   8.267  0.6219 -0.2050 -0.4794
  448MOL0     H60454  12.017   2.010   7.998  2.9853 -3.5134  1.8501
  448MOL0     H60455  12.077   1.979   8.147  1.7746 -1.2205 -2.2028
  448MOL0     H60456  12.003   2.262   8.106 -2.4379 -2.5366  3.1660
  448MOL0     H60457  12.126   2.191   8.207 -0.7843 -1.4257  0.7377
  448MOL0     H60458  12.144   2.193   7.899 -0.6012 -3.3909 -0.5559
  448MOL0     H60459  12.262   2.109   8.004  2.4733  1.6320  0.1840
  448MOL0     H60460  12.220   2.412   8.007 -0.0617 -0.2961  2.0296
  448MOL0     H60461  12.359   2.332   7.958  1.6666  2.1875  1.5773
  448MOL0     H60462  11.671   1.586   8.438  2.5753 -0.0732 -3.1799
  448MOL0     H60463  11.578   1.396   8.541 -0.1522  1.0624 -0.3591
  448MOL0     H60464  11.206   1.130   8.263  0.0418 -0.6525 -1.1381
  448MOL0     H60465  11.035   0.984   8.238  1.2872 -0.8451 -1.2232
  448MOL0     H60466   9.444   1.402   8.666  0.0023  0.2292 -0.9611
  448MOL0     H60467   9.218   1.436   8.640 -2.1272 -0.8054  1.5950
  448MOL0     H60468   8.843   1.542   8.794  0.2895 -1.9555 -2.3188
  448MOL0     H60469   8.608   1.556   8.791 -0.1949  2.9284  0.9564
  448MOL0     H60470   8.404   1.636   8.765  3.8489 -0.0686 -0.3794
  448MOL0     H60471   8.390   1.807   8.726 -2.6814 -1.0350  2.2679
  448MOL0     H60472   8.158   1.701   8.722 -1.2042  1.8591 -0.2179
  448MOL0     H60473   8.226   1.617   8.567 -3.6673  1.5814 -1.0200
  448MOL0     H60474   8.278   1.842   8.487 -0.1141  2.9441  0.7109
  448MOL0     H60475   8.204   1.911   8.625  0.1234  0.0342 -0.4814
  448MOL0     H60476   8.099   1.739   8.397  0.6626 -0.9632 -0.4159
  448MOL0     H60477   8.081   1.913   8.433 -0.9076 -0.2040  1.4266
  448MOL0     H60478   7.776   1.787   8.690 -0.4335 -0.8173 -0.0007
  448MOL0     H60479   8.650   1.791   8.425  0.5132  0.6341  0.4846
  448MOL0     H60480   8.895   1.772   8.439 -0.9984  0.6131  1.4254
  449MOL0     O60481   3.839   1.421   5.379 -0.9234  0.3644 -0.0187
  449MOL0     C60482   3.896   1.498   5.308 -0.4545  0.1893 -0.0686
  449MOL0     O60483   3.950   1.466   5.187  0.9585 -0.5028 -1.0486
  449MOL0     C60484   4.001   1.342   5.167 -0.0438 -0.3938 -0.6978
  449MOL0     C60485   4.036   1.245   5.256 -1.2077  0.2117  0.0504
  449MOL0     C60486   4.060   1.113   5.218  1.0096  0.4934 -0.4791
  449MOL0     C60487   4.047   1.082   5.084  0.0303 -0.5651 -0.2356
  449MOL0     O60488   4.037   0.944   5.061 -0.1962 -0.2423 -0.8504
  449MOL0     C60489   4.023   0.910   4.924  0.4349  0.8467 -0.2616
  449MOL0     C60490   3.974   0.762   4.907  0.1711  0.1525  0.1916
  449MOL0     C60491   4.082   0.649   4.930  0.0594  1.3564  0.2379
  449MOL0     C60492   4.111   0.638   5.080 -0.2011  0.9107  0.2918
  449MOL0     C60493   4.017   0.546   5.164  0.4648 -0.0533 -0.6747
  449MOL0     C60494   4.066   0.546   5.311 -0.1680 -0.8135  0.9331
  449MOL0     C60495   4.006   0.436   5.393 -0.4459 -0.4403 -0.0956
  449MOL0     C60496   4.045   0.461   5.531  0.2653  0.5347  0.1058
  449MOL0     N60497   3.982   0.374   5.632 -0.3016 -0.2693  0.5720
  449MOL0     C60498   4.037   0.323   5.749  0.6690  0.2613 -1.3935
  449MOL0     C60499   3.942   0.224   5.793 -0.0304  0.1757  0.0919
  449MOL0     C60500   3.962   0.125   5.907 -1.3670  1.0473 -0.5897
  449MOL0     C60501   3.939   0.197   6.037  1.1113 -0.6942  0.3583
  449MOL0     C60502   3.992   0.125   6.162  0.2439 -0.7782  0.5354
  449MOL0     C60503   3.931   0.202   6.283  0.4825  0.2794 -0.5664
  449MOL0     O60504   3.987   0.340   6.298 -1.0289  0.4753 -0.6301
  449MOL0     C60505   3.898   0.427   6.354 -0.3495 -0.7565  0.4671
  449MOL0     C60506   3.801   0.484   6.276  0.8078 -0.2061 -0.2531
  449MOL0     C60507   3.696   0.566   6.327 -0.1045 -0.0125  0.8922
  449MOL0     C60508   3.584   0.603   6.234 -0.3768 -0.5640 -0.3068
  449MOL0     C60509   3.694   0.602   6.462  0.4582  0.4128  0.2126
  449MOL0     C60510   3.606   0.688   6.531  0.0952  0.1220 -0.2992
  449MOL0     O60511   3.577   0.660   6.670  0.8562 -0.0390 -0.3266
  449MOL0     C60512   3.543   0.773   6.749  0.4235  0.4410 -0.4938
  449MOL0     C60513   3.595   0.901   6.772  0.0992 -0.7398  0.1976
  449MOL0     C60514   3.533   1.001   6.848  0.5797  0.2871 -0.0106
  449MOL0     C60515   3.410   0.964   6.917 -1.2864  0.3151 -0.2675
  449MOL0     O60516   3.342   1.060   6.984 -0.7166  0.7000  0.6961
  449MOL0     C60517   3.207   1.100   6.936  0.3866 -0.2407  0.2303
  449MOL0     C60518   3.221   1.221   6.839  0.6088 -0.0710  0.4808
  449MOL0     C60519   3.241   1.353   6.902  0.0265  0.1513 -0.4716
  449MOL0     C60520   3.301   1.453   6.800 -1.4956  0.6475  0.5515
  449MOL0     C60521   3.313   1.593   6.869  0.6667 -0.2447  0.1189
  449MOL0     C60522   3.393   1.709   6.793  0.8294 -0.5778  0.6712
  449MOL0     C60523   3.385   1.837   6.884 -0.6744 -0.2622 -0.3021
  449MOL0     C60524   3.451   1.960   6.806  0.6732 -0.7020 -0.3288
  449MOL0    Cl60525   3.437   2.101   6.906  0.3077 -0.3628  0.0425
  449MOL0     C60526   3.357   0.834   6.903 -0.2496 -0.4011  1.1498
  449MOL0     C60527   3.422   0.743   6.816 -0.4623 -0.0362 -0.8091
  449MOL0     O60528   3.558   0.783   6.474 -0.0588 -0.8625 -0.3654
  449MOL0     C60529   3.808   0.566   6.540 -0.6817  0.3983 -0.1573
  449MOL0     C60530   3.906   0.483   6.486 -0.0915 -0.4993 -0.0664
  449MOL0     N60531   3.845   0.217   5.691 -0.4308  0.4634 -0.1695
  449MOL0     N60532   3.861   0.309   5.611 -0.4034 -0.7353 -0.3205
  449MOL0     C60533   4.033   1.187   4.987 -0.4518  1.0315 -1.2288
  449MOL0     C60534   4.008   1.313   5.033  0.5468 -0.5974 -0.5867
  449MOL0     C60535   3.894   1.648   5.356  0.0857 -0.4155 -0.1398
  449MOL0     C60536   3.886   1.691   5.491  0.1329  1.3793  0.9782
  449MOL0     C60537   3.880   1.827   5.529  0.2309  0.0832  0.1446
  449MOL0     C60538   3.892   1.930   5.427  0.4541  0.2061 -0.3896
  449MOL0     O60539   3.887   2.074   5.459  0.1868  0.4933 -0.6914
  449MOL0     C60540   3.870   2.113   5.596 -0.3039 -0.3558  0.3888
  449MOL0     C60541   3.887   2.266   5.620  0.0153 -0.3496 -0.5335
  449MOL0     C60542   3.864   2.315   5.767  0.1168  0.6799  1.0175
  449MOL0     C60543   3.964   2.253   5.859  0.9815  0.5273 -0.0351
  449MOL0     C60544   3.940   2.303   5.995 -0.2094  0.3938 -1.0014
  449MOL0     C60545   3.938   2.348   6.108 -1.0778 -1.0072 -0.2968
  449MOL0     C60546   3.906   1.878   5.298  0.5216 -1.0386  0.0817
  449MOL0     C60547   3.901   1.749   5.256 -0.3619  0.1436 -0.5789
  449MOL0     H60548   4.063   1.275   5.356  0.8267  0.9398 -0.6655
  449MOL0     H60549   4.078   1.045   5.300  2.1656  3.4828  1.9362
  449MOL0     H60550   3.945   0.970   4.876  0.8446  2.0867  0.5797
  449MOL0     H60551   4.119   0.917   4.872 -0.8298 -1.2037 -3.1485
  449MOL0     H60552   3.880   0.756   4.962  0.0590  0.9068  0.0878
  449MOL0     H60553   3.944   0.753   4.802 -0.2935 -1.7620  0.4457
  449MOL0     H60554   4.049   0.548   4.901  3.6757 -0.0002  0.4073
  449MOL0     H60555   4.173   0.678   4.877  0.0851  2.2786  0.7766
  449MOL0     H60556   4.207   0.585   5.088 -1.4598 -1.2497  2.8135
  449MOL0     H60557   4.118   0.738   5.123  1.5209  0.1535  1.9171
  449MOL0     H60558   3.918   0.590   5.181  1.3781  0.5563  5.0196
  449MOL0     H60559   4.007   0.449   5.115 -0.4039 -1.0254  1.3161
  449MOL0     H60560   4.174   0.535   5.323  0.4104 -2.5818 -3.8076
  449MOL0     H60561   4.043   0.641   5.359 -2.0657 -0.8688  0.2405
  449MOL0     H60562   3.897   0.436   5.382 -0.5854 -3.0076  0.4904
  449MOL0     H60563   4.052   0.340   5.365 -0.5175 -0.4102 -0.3166
  449MOL0     H60564   3.993   0.552   5.561 -2.0484 -0.4321 -0.7721
  449MOL0     H60565   4.153   0.472   5.543  0.3275  0.1359 -0.0739
  449MOL0     H60566   4.138   0.331   5.788  1.1680 -1.1475 -2.3369
  449MOL0     H60567   3.897   0.038   5.895  1.9074 -1.7424  0.2705
  449MOL0     H60568   4.066   0.093   5.914 -0.9757  2.5280  1.0718
  449MOL0     H60569   3.830   0.184   6.038  1.2764 -2.4570 -0.5166
  449MOL0     H60570   3.968   0.303   6.037 -0.7940 -0.1217 -0.0984
  449MOL0     H60571   4.101   0.127   6.162  0.3279  2.6594  2.9811
  449MOL0     H60572   3.948   0.025   6.156 -3.8461 -0.0772  7.6712
  449MOL0     H60573   3.952   0.148   6.376 -2.3654 -1.9684 -1.0641
  449MOL0     H60574   3.821   0.199   6.279  0.3955  1.6373  0.1485
  449MOL0     H60575   3.792   0.446   6.175 -2.2211 -1.0965  0.2507
  449MOL0     H60576   3.532   0.693   6.266  1.5017  0.0371  1.2762
  449MOL0     H60577   3.630   0.630   6.139  0.9026 -0.7540  0.2214
  449MOL0     H60578   3.515   0.519   6.221 -2.0531  1.1102 -2.8789
  449MOL0     H60579   3.701   0.915   6.750  0.1380  1.6515  1.5795
  449MOL0     H60580   3.566   1.104   6.857 -3.9006  2.1216 -1.6712
  449MOL0     H60581   3.151   1.018   6.890 -2.2735  1.8217 -0.4426
  449MOL0     H60582   3.146   1.132   7.021  0.2532 -1.1270  0.4872
  449MOL0     H60583   3.297   1.204   6.762 -2.6698  1.3613 -3.3860
  449MOL0     H60584   3.127   1.231   6.785 -0.3595  1.5399  2.3230
  449MOL0     H60585   3.300   1.347   6.994 -1.7163  3.3938  0.9997
  449MOL0     H60586   3.147   1.401   6.929  1.1800  3.8453 -2.3340
  449MOL0     H60587   3.398   1.412   6.769 -1.3219 -0.0563  1.9566
  449MOL0     H60588   3.229   1.458   6.718 -1.8372 -2.6100  0.5116
  449MOL0     H60589   3.339   1.588   6.975  2.9248  3.6440 -0.0775
  449MOL0     H60590   3.208   1.619   6.886  1.0911  0.7537  1.3554
  449MOL0     H60591   3.497   1.689   6.767  2.3179  3.3366  2.8508
  449MOL0     H60592   3.342   1.728   6.698 -0.3010 -3.2910  0.6238
  449MOL0     H60593   3.452   1.819   6.968 -0.8688  1.4993  0.2759
  449MOL0     H60594   3.288   1.867   6.925  1.2054  3.5381  1.9196
  449MOL0     H60595   3.417   1.966   6.702 -0.7713 -0.2991  0.1341
  449MOL0     H60596   3.560   1.951   6.804  0.6539 -0.8865 -0.6188
  449MOL0     H60597   3.275   0.796   6.963 -0.4625  0.1041  1.1892
  449MOL0     H60598   3.374   0.646   6.807  1.7595 -1.7633  3.2397
  449MOL0     H60599   3.825   0.600   6.642  2.6262  0.9882 -0.7899
  449MOL0     H60600   3.995   0.475   6.547  0.3997 -3.0752 -0.9864
  449MOL0     H60601   4.032   1.181   4.879  0.1336  0.1485 -1.1933
  449MOL0     H60602   3.999   1.406   4.978 -1.7347 -1.3029 -1.5249
  449MOL0     H60603   3.897   1.618   5.570  1.4749  2.2309  1.6140
  449MOL0     H60604   3.868   1.856   5.633  3.6321  1.8407  0.1803
  449MOL0     H60605   3.769   2.081   5.623 -0.5606  1.2638  1.5119
  449MOL0     H60606   3.934   2.053   5.661 -0.7345 -2.4178 -0.9944
  449MOL0     H60607   3.825   2.326   5.552 -1.9954 -1.2449  0.4101
  449MOL0     H60608   3.991   2.287   5.596  0.8279  1.0553  3.4409
  449MOL0     H60609   3.764   2.291   5.804  0.2448 -1.8096 -0.0690
  449MOL0     H60610   3.888   2.421   5.779  0.7124  0.5123  1.3513
  449MOL0     H60611   4.064   2.275   5.821  0.7949  0.6143 -0.4884
  449MOL0     H60612   3.954   2.144   5.859  1.4902  0.4776 -0.0161
  449MOL0     H60613   3.929   2.387   6.207  1.4195  2.7888 -1.3451
  449MOL0     H60614   3.902   1.960   5.227  3.4679 -1.9670 -1.3215
  449MOL0     H60615   3.913   1.734   5.150  0.1518  2.5016 -0.9141
  450MOL0     O60616   4.043   0.041   3.136 -0.2822 -0.0398 -0.1664
  450MOL0     C60617   4.103   0.149   3.152 -0.6095 -0.0796 -0.5540
  450MOL0     O60618   4.242   0.166   3.170 -0.0546  0.5046 -0.1061
  450MOL0     C60619   4.332   0.063   3.199 -1.3775  0.2781 -1.0345
  450MOL0     C60620   4.295  -0.069   3.248  0.7029  0.0160  0.2446
  450MOL0     C60621   4.401  -0.158   3.274  0.2688 -0.1357  0.2716
  450MOL0     C60622   4.535  -0.137   3.254  0.2202 -0.8550  0.9291
  450MOL0     O60623   4.639  -0.226   3.260 -0.0581  0.3286  0.7680
  450MOL0     C60624   4.618  -0.374   3.254 -0.9605 -0.4157  0.6604
  450MOL0     C60625   4.760  -0.440   3.270  0.4646  0.5043 -0.2610
  450MOL0     C60626   4.751  -0.596   3.264  0.0258  0.1879  0.1727
  450MOL0     C60627   4.882  -0.652   3.241 -0.5040 -0.0169 -0.0716
  450MOL0     C60628   4.874  -0.812   3.243  0.3858 -0.7335  0.3003
  450MOL0     C60629   5.017  -0.853   3.222 -0.1818  0.5720 -0.5551
  450MOL0     C60630   5.048  -1.007   3.229  1.5944 -0.5915  1.1496
  450MOL0     C60631   4.978  -1.085   3.117 -0.6935 -0.9123 -0.1536
  450MOL0     N60632   5.008  -1.230   3.120  0.0817 -0.3440  0.0754
  450MOL0     C60633   5.132  -1.274   3.096  0.0529 -0.0457  0.2097
  450MOL0     C60634   5.135  -1.401   3.149  0.3270  0.2881 -0.4072
  450MOL0     C60635   5.258  -1.485   3.167 -0.0883  0.3228 -0.0402
  450MOL0     C60636   5.340  -1.444   3.297 -0.9682  0.1956  0.4918
  450MOL0     C60637   5.263  -1.479   3.415 -0.5977 -0.2065  0.4165
  450MOL0     C60638   5.305  -1.396   3.538 -0.1480  0.6268  1.1668
  450MOL0     O60639   5.449  -1.426   3.570  0.0508 -0.5037  0.0744
  450MOL0     C60640   5.500  -1.390   3.692  0.0743  1.0086  0.2183
  450MOL0     C60641   5.425  -1.368   3.812  0.3679 -0.0605  0.5716
  450MOL0     C60642   5.478  -1.344   3.942  0.2620  0.1785  0.2077
  450MOL0     C60643   5.395  -1.336   4.070  0.5768 -0.8269 -0.3380
  450MOL0     C60644   5.623  -1.341   3.951  0.1862 -0.8273  0.0695
  450MOL0     C60645   5.705  -1.327   4.079 -0.3672 -0.0154  0.7779
  450MOL0     O60646   5.831  -1.383   4.079  0.7389  0.0521 -0.0196
  450MOL0     C60647   5.906  -1.367   4.193 -0.1385  0.1698 -0.3987
  450MOL0     C60648   5.937  -1.482   4.271 -0.4174  0.8443 -0.1524
  450MOL0     C60649   6.022  -1.476   4.387  0.3774 -0.7601 -0.2576
  450MOL0     C60650   6.068  -1.352   4.429  0.6523 -0.0341  0.8100
  450MOL0     O60651   6.142  -1.360   4.549 -0.3603 -0.2491 -0.1399
  450MOL0     C60652   6.183  -1.243   4.621  0.2855 -0.5931 -0.0134
  450MOL0     C60653   6.242  -1.288   4.761  0.9434 -0.0487 -0.3742
  450MOL0     C60654   6.340  -1.192   4.824  0.9504  0.0262  0.9455
  450MOL0     C60655   6.432  -1.267   4.930  0.8819  0.5242 -0.0490
  450MOL0     C60656   6.518  -1.169   4.988  0.5084 -0.8933 -1.3115
  450MOL0     C60657   6.581  -1.236   5.116 -0.2502  0.2939 -0.7409
  450MOL0     C60658   6.659  -1.138   5.205 -0.6483  0.0213  0.5081
  450MOL0     C60659   6.689  -1.197   5.342 -0.0723  0.0408 -0.4140
  450MOL0    Cl60660   6.776  -1.353   5.325 -0.3647  0.2845 -0.7953
  450MOL0     C60661   6.048  -1.238   4.355 -0.6076 -0.7521  1.2972
  450MOL0     C60662   5.960  -1.249   4.245  0.3300 -0.6907  0.5358
  450MOL0     O60663   5.655  -1.272   4.172 -0.3259 -0.1974 -0.1404
  450MOL0     C60664   5.695  -1.359   3.833 -0.1841  0.5436  0.2147
  450MOL0     C60665   5.641  -1.386   3.706  0.9450  0.0795  0.0468
  450MOL0     N60666   5.001  -1.439   3.185 -0.2485  0.1970  0.0965
  450MOL0     N60667   4.936  -1.327   3.176  0.2065  0.8266 -0.7573
  450MOL0     C60668   4.569  -0.003   3.211 -0.2570 -0.2651 -0.1084
  450MOL0     C60669   4.473   0.097   3.198  0.0917 -0.0298  0.8781
  450MOL0     C60670   4.019   0.276   3.138  0.1367  1.0394 -0.0952
  450MOL0     C60671   4.083   0.396   3.182  0.8875 -0.2291 -0.0728
  450MOL0     C60672   4.027   0.525   3.160 -0.3661  0.9898  0.0732
  450MOL0     C60673   3.900   0.535   3.115  1.5690 -0.0330  0.5361
  450MOL0     O60674   3.847   0.661   3.101 -0.6578  0.1041  0.4169
  450MOL0     C60675   3.705   0.689   3.079  0.0246  0.1000  0.4308
  450MOL0     C60676   3.670   0.686   2.926 -0.7924  0.3537 -0.4822
  450MOL0     C60677   3.717   0.805   2.837 -1.5612 -0.4153 -1.2054
  450MOL0     C60678   3.803   0.756   2.717  0.0908  0.5344  0.7133
  450MOL0     C60679   3.746   0.657   2.622  0.3289  1.2142  0.0206
  450MOL0     C60680   3.707   0.565   2.558  0.1127  0.2502  0.1027
  450MOL0     C60681   3.834   0.417   3.080  0.0856  0.7957 -0.3804
  450MOL0     C60682   3.892   0.289   3.093  0.8885  0.1828 -0.0486
  450MOL0     H60683   4.190  -0.095   3.249  0.0692  2.3534 -0.0003
  450MOL0     H60684   4.374  -0.251   3.324  5.2787 -2.7729 -1.2358
  450MOL0     H60685   4.552  -0.399   3.338 -2.8196  4.2330  0.8536
  450MOL0     H60686   4.564  -0.412   3.167 -2.6079  1.6146  0.7149
  450MOL0     H60687   4.824  -0.399   3.191  2.4382 -2.5463 -0.4451
  450MOL0     H60688   4.809  -0.423   3.367 -0.2651 -2.2024  0.6756
  450MOL0     H60689   4.703  -0.643   3.350  2.9646  1.7731  2.8792
  450MOL0     H60690   4.693  -0.616   3.173  0.5938 -1.6032  0.1718
  450MOL0     H60691   4.928  -0.622   3.147 -1.4277  2.7252  0.2856
  450MOL0     H60692   4.944  -0.625   3.327  1.1366 -4.4273  0.4176
  450MOL0     H60693   4.838  -0.845   3.340 -0.9637  2.8995  1.1835
  450MOL0     H60694   4.808  -0.846   3.162 -1.5757  1.8280  0.6921
  450MOL0     H60695   5.056  -0.805   3.131 -2.2299  3.0126 -0.2523
  450MOL0     H60696   5.058  -0.801   3.309 -2.7111  3.0762 -0.7075
  450MOL0     H60697   5.155  -1.023   3.212  0.5714 -4.5503 -4.1498
  450MOL0     H60698   5.037  -1.042   3.333  1.6461 -0.0659  1.3338
  450MOL0     H60699   5.008  -1.038   3.023  1.2121  2.3528  1.8931
  450MOL0     H60700   4.870  -1.072   3.127 -0.4764  0.9535  0.2079
  450MOL0     H60701   5.216  -1.216   3.060 -0.2319  1.4026  1.7437
  450MOL0     H60702   5.237  -1.592   3.168 -0.0929  0.3196 -0.3000
  450MOL0     H60703   5.331  -1.489   3.085 -2.5493 -2.8268 -2.3364
  450MOL0     H60704   5.367  -1.339   3.308 -1.6118  0.8609 -2.9779
  450MOL0     H60705   5.436  -1.497   3.289 -1.4107 -0.4723 -0.6233
  450MOL0     H60706   5.279  -1.584   3.442  4.9191 -0.1601 -1.4175
  450MOL0     H60707   5.158  -1.466   3.386  0.1771 -0.4498 -2.9402
  450MOL0     H60708   5.250  -1.412   3.631  1.7890  2.6294  2.7541
  450MOL0     H60709   5.305  -1.290   3.513 -0.7899  0.0943 -1.3981
  450MOL0     H60710   5.316  -1.369   3.811  0.3461 -0.7520 -1.7022
  450MOL0     H60711   5.398  -1.232   4.103  1.4625 -1.4942  1.8381
  450MOL0     H60712   5.292  -1.369   4.055  1.0499 -1.6884 -1.9097
  450MOL0     H60713   5.439  -1.390   4.154  1.7826  0.3177 -0.2007
  450MOL0     H60714   5.914  -1.585   4.245  0.8819  0.1504  1.2870
  450MOL0     H60715   6.038  -1.562   4.452 -0.2221  0.7248  1.9733
  450MOL0     H60716   6.268  -1.205   4.565  0.3798 -0.0508  0.4839
  450MOL0     H60717   6.109  -1.163   4.636 -0.7323 -1.7097  1.3191
  450MOL0     H60718   6.158  -1.313   4.827  0.3648  0.7869 -0.7773
  450MOL0     H60719   6.307  -1.374   4.742  1.8726  0.7346 -0.8599
  450MOL0     H60720   6.292  -1.111   4.880 -1.7185 -1.8903  1.6409
  450MOL0     H60721   6.404  -1.154   4.745  1.8850 -0.4309  1.4741
  450MOL0     H60722   6.369  -1.316   5.004 -1.3055  3.4493  0.1985
  450MOL0     H60723   6.503  -1.337   4.884  0.6590 -0.1429  0.6041
  450MOL0     H60724   6.462  -1.079   5.015  2.6523  0.2392 -0.4012
  450MOL0     H60725   6.592  -1.130   4.917  1.4633  0.7045  0.4857
  450MOL0     H60726   6.500  -1.279   5.176 -2.1923  4.1328 -0.2684
  450MOL0     H60727   6.651  -1.311   5.080  0.2835 -0.2032  1.2157
  450MOL0     H60728   6.609  -1.043   5.228 -0.3578  0.9856 -2.4648
  450MOL0     H60729   6.750  -1.107   5.152 -2.4675  0.9113 -2.2780
  450MOL0     H60730   6.592  -1.217   5.388  0.5207 -1.1051  0.4239
  450MOL0     H60731   6.750  -1.131   5.405 -1.1467  1.3550 -0.7183
  450MOL0     H60732   6.082  -1.140   4.385  1.1477 -0.8235 -0.3082
  450MOL0     H60733   5.919  -1.164   4.190  1.1580  0.4720  1.6536
  450MOL0     H60734   5.801  -1.348   3.853 -0.5241  1.1374  1.8660
  450MOL0     H60735   5.698  -1.405   3.616 -2.4454 -0.9133 -2.1163
  450MOL0     H60736   4.672   0.031   3.211 -0.8471  1.6183  0.2514
  450MOL0     H60737   4.509   0.197   3.176  1.3990 -0.5544  0.5301
  450MOL0     H60738   4.189   0.383   3.201  1.7018  0.7405 -3.3794
  450MOL0     H60739   4.079   0.611   3.202 -0.0671  1.2426 -0.7874
  450MOL0     H60740   3.636   0.632   3.142  0.4916 -2.1030 -0.9425
  450MOL0     H60741   3.700   0.794   3.109  1.0010  0.7132 -1.4177
  450MOL0     H60742   3.562   0.678   2.917 -0.6513 -4.1891 -0.1985
  450MOL0     H60743   3.704   0.588   2.892 -1.2409 -0.1082  0.3807
  450MOL0     H60744   3.769   0.877   2.902  0.3026 -0.7399 -2.2694
  450MOL0     H60745   3.635   0.865   2.796 -0.9800  1.0478 -0.2891
  450MOL0     H60746   3.882   0.710   2.777  0.2265 -0.1103  0.0416
  450MOL0     H60747   3.855   0.832   2.658 -2.1508  1.4979 -0.1560
  450MOL0     H60748   3.677   0.488   2.491 -1.9724  2.8996 -2.2192
  450MOL0     H60749   3.733   0.414   3.040 -0.0415 -2.6078 -0.1030
  450MOL0     H60750   3.836   0.202   3.060  1.4079 -1.2148  2.4844
  451MOL0     O60751   5.980   1.499   5.878 -0.6237  0.2997  0.3095
  451MOL0     C60752   5.870   1.551   5.866  0.6357 -0.1104  0.6070
  451MOL0     O60753   5.825   1.663   5.929  0.2575 -0.1376  0.2460
  451MOL0     C60754   5.903   1.737   6.010  0.1627  0.5305  0.0288
  451MOL0     C60755   5.990   1.833   5.951 -0.2923  0.9276 -0.5261
  451MOL0     C60756   6.070   1.913   6.040 -0.1310  0.8544 -0.1621
  451MOL0     C60757   6.078   1.882   6.171  0.2795 -0.5193 -0.3978
  451MOL0     O60758   6.146   1.967   6.248  1.1689  0.4426 -0.0060
  451MOL0     C60759   6.084   2.087   6.285 -0.2696  0.4143  0.4695
  451MOL0     C60760   6.177   2.170   6.377  0.1870  0.2469  0.4340
  451MOL0     C60761   6.088   2.282   6.424 -0.5551  0.3974  0.2655
  451MOL0     C60762   6.124   2.331   6.556  0.2439 -0.3687  0.0593
  451MOL0     C60763   6.032   2.436   6.607  0.0060 -0.7007 -0.4232
  451MOL0     C60764   6.085   2.504   6.734  0.1940 -0.4076 -0.4764
  451MOL0     C60765   5.967   2.579   6.792  0.0676 -0.4059  0.0569
  451MOL0     C60766   6.005   2.664   6.915  0.4067 -0.7505  0.9997
  451MOL0     N60767   5.876   2.715   6.960 -0.3642 -0.0196 -1.1493
  451MOL0     C60768   5.768   2.655   7.014  0.7243  1.0051 -0.0887
  451MOL0     C60769   5.701   2.737   7.093  0.6976 -0.3037  0.8146
  451MOL0     C60770   5.583   2.686   7.172 -0.0931 -0.2927  1.2764
  451MOL0     C60771   5.608   2.707   7.326  0.0535  0.1659  0.5836
  451MOL0     C60772   5.761   2.709   7.364 -0.2268 -0.0575  0.2010
  451MOL0     C60773   5.779   2.702   7.514  0.0497  0.4543  0.6255
  451MOL0     O60774   5.773   2.560   7.553  0.5878 -0.1908 -0.3777
  451MOL0     C60775   5.818   2.531   7.676 -0.1343 -0.1655 -1.2568
  451MOL0     C60776   5.840   2.628   7.775  0.2188 -1.5691  0.4026
  451MOL0     C60777   5.922   2.608   7.884  0.5921 -0.1297 -1.0001
  451MOL0     C60778   5.949   2.730   7.974  0.0885  0.3530  0.3619
  451MOL0     C60779   5.969   2.472   7.913 -0.4895 -0.4315 -0.5958
  451MOL0     C60780   6.036   2.436   8.039  1.5019 -0.7344  0.3472
  451MOL0     O60781   6.049   2.528   8.133  0.6712 -0.2002 -0.1783
  451MOL0     C60782   6.098   2.486   8.250 -0.4164  0.9630 -0.1779
  451MOL0     C60783   6.206   2.557   8.297 -0.1510  0.8866  0.2800
  451MOL0     C60784   6.284   2.510   8.413  0.2185 -0.0117 -0.5686
  451MOL0     C60785   6.243   2.408   8.495  0.1768  0.3547 -0.6059
  451MOL0     O60786   6.283   2.377   8.623  0.4932  0.3451  0.5968
  451MOL0     C60787   6.422   2.372   8.656  0.7621  0.0186 -0.4607
  451MOL0     C60788   6.444   2.248   8.739 -0.0414  0.2423 -0.3424
  451MOL0     C60789   6.435   2.107   8.660 -1.1493 -0.6499  0.4883
  451MOL0     C60790   6.570   2.031   8.663 -1.4983 -0.5497  0.7223
  451MOL0     C60791   6.614   1.995   8.805  0.4285  0.2428 -0.2205
  451MOL0     C60792   6.762   1.927   8.800 -0.3752  0.5252  0.6054
  451MOL0     C60793   6.886   2.015   8.823 -0.2869 -0.1221 -0.2408
  451MOL0     C60794   6.894   2.029   8.972 -1.6312  0.6600  0.6546
  451MOL0    Cl60795   6.812   2.175   9.045  0.1143  0.2842  1.0050
  451MOL0     C60796   6.125   2.345   8.452  0.4587  0.5471 -0.0605
  451MOL0     C60797   6.051   2.386   8.334 -0.9283  0.3432  1.7241
  451MOL0     O60798   6.077   2.323   8.039  0.0219 -0.0135 -0.0191
  451MOL0     C60799   5.928   2.372   7.817  0.1456 -0.6991  0.5225
  451MOL0     C60800   5.863   2.400   7.706  1.5384 -0.3359  0.2217
  451MOL0     N60801   5.759   2.862   7.075  0.0768  0.5167 -0.1668
  451MOL0     N60802   5.861   2.844   7.000  0.0694  0.3516  0.9772
  451MOL0     C60803   6.001   1.779   6.228 -0.7347 -0.5189  0.1268
  451MOL0     C60804   5.909   1.713   6.149 -0.6983 -0.8298  0.4030
  451MOL0     C60805   5.779   1.467   5.777  0.5251  0.5711  0.0021
  451MOL0     C60806   5.649   1.509   5.737  0.5059  0.2634 -0.0894
  451MOL0     C60807   5.563   1.429   5.657 -0.4322 -0.5834  0.4856
  451MOL0     C60808   5.615   1.311   5.605 -0.3639 -0.5662  0.3725
  451MOL0     O60809   5.524   1.248   5.511  0.0100  0.6606 -0.2488
  451MOL0     C60810   5.541   1.110   5.487 -0.0603  0.0302  0.0624
  451MOL0     C60811   5.437   1.073   5.386  0.3970 -0.3155  0.8914
  451MOL0     C60812   5.432   0.924   5.332  0.5164 -0.2225 -0.2540
  451MOL0     C60813   5.320   0.899   5.228 -0.3281  0.3172  0.3189
  451MOL0     C60814   5.332   0.976   5.101  0.2463 -0.0742  0.4467
  451MOL0     C60815   5.340   1.048   4.999  0.4937 -0.7795  0.3485
  451MOL0     C60816   5.739   1.260   5.648 -0.2572 -0.6943  0.7761
  451MOL0     C60817   5.822   1.341   5.730  0.2023 -0.4766 -0.3574
  451MOL0     H60818   5.971   1.851   5.846  2.1730 -1.5612 -1.5212
  451MOL0     H60819   6.130   1.992   5.996 -1.8121  1.6333 -1.1628
  451MOL0     H60820   6.065   2.143   6.193 -1.5788  1.3906  1.2926
  451MOL0     H60821   5.996   2.064   6.345  0.8613  0.9776  2.4192
  451MOL0     H60822   6.202   2.099   6.457 -1.5212 -0.8999  0.0012
  451MOL0     H60823   6.268   2.199   6.325  0.8287 -1.1721  0.7051
  451MOL0     H60824   6.090   2.363   6.350  3.8748  2.1463  1.9773
  451MOL0     H60825   5.985   2.248   6.443 -1.4835  3.4686  1.4799
  451MOL0     H60826   6.114   2.249   6.628  0.3555  0.0313  0.5426
  451MOL0     H60827   6.229   2.362   6.557  0.3301  0.2509  5.4040
  451MOL0     H60828   6.022   2.521   6.538  1.1294  0.9455  1.3268
  451MOL0     H60829   5.928   2.405   6.612 -0.2836 -0.2045 -2.3102
  451MOL0     H60830   6.120   2.427   6.804  0.5561  1.9276  2.0647
  451MOL0     H60831   6.164   2.576   6.711  2.1473 -1.7562  1.5480
  451MOL0     H60832   5.923   2.650   6.722  0.5444  0.7558  0.9023
  451MOL0     H60833   5.890   2.511   6.831 -0.8981  0.7542  0.2212
  451MOL0     H60834   6.068   2.749   6.886 -0.5496  0.4091  2.2130
  451MOL0     H60835   6.064   2.603   6.984  2.7671  0.2179 -0.0490
  451MOL0     H60836   5.746   2.548   7.014 -0.2972  1.1911  1.3947
  451MOL0     H60837   5.492   2.732   7.131  0.4828  0.9286  1.3208
  451MOL0     H60838   5.558   2.583   7.147 -4.0304  0.2095  2.3522
  451MOL0     H60839   5.555   2.626   7.378 -0.9701  0.0191 -0.6506
  451MOL0     H60840   5.561   2.803   7.351 -0.4988  1.1896 -3.6999
  451MOL0     H60841   5.808   2.800   7.326 -0.7476  0.1257 -0.0168
  451MOL0     H60842   5.816   2.625   7.321 -0.2843 -1.6653  3.0074
  451MOL0     H60843   5.698   2.754   7.566 -2.5231 -3.7789  1.3295
  451MOL0     H60844   5.869   2.756   7.544 -0.2093  2.2418 -1.5566
  451MOL0     H60845   5.804   2.731   7.780  2.5639 -0.6226 -0.5270
  451MOL0     H60846   5.920   2.829   7.936 -0.7396  0.3686  1.0142
  451MOL0     H60847   5.883   2.707   8.057 -1.0535 -0.8928 -0.8355
  451MOL0     H60848   6.051   2.724   8.013  0.3751 -0.1667 -0.4410
  451MOL0     H60849   6.253   2.641   8.248  3.3880 -1.5936 -0.9987
  451MOL0     H60850   6.359   2.566   8.467 -2.9363  1.9617  2.1681
  451MOL0     H60851   6.480   2.354   8.565  0.7792  2.1701 -0.9304
  451MOL0     H60852   6.468   2.467   8.687  1.0985  0.4439 -2.1745
  451MOL0     H60853   6.535   2.260   8.797 -0.1848  2.7439 -0.5620
  451MOL0     H60854   6.370   2.241   8.820 -1.9518  0.5421 -1.9783
  451MOL0     H60855   6.405   2.122   8.556 -0.1246 -2.0416 -0.0350
  451MOL0     H60856   6.370   2.032   8.705 -0.9522 -1.4143 -0.4668
  451MOL0     H60857   6.567   1.934   8.612  0.3122 -1.2887  1.9197
  451MOL0     H60858   6.647   2.096   8.620 -2.3459 -0.5989 -0.9587
  451MOL0     H60859   6.547   1.928   8.859 -0.1199  1.0272  0.0806
  451MOL0     H60860   6.623   2.080   8.873 -0.1188  2.3475 -2.6368
  451MOL0     H60861   6.756   1.840   8.865 -2.3271  2.1511  2.7718
  451MOL0     H60862   6.782   1.881   8.703  2.2414 -0.2679  1.4396
  451MOL0     H60863   6.881   2.113   8.774  0.1626  0.0744  0.1006
  451MOL0     H60864   6.971   1.968   8.773 -0.6776 -0.1411 -0.8904
  451MOL0     H60865   6.999   2.032   9.004 -1.6993  1.0185  0.8619
  451MOL0     H60866   6.847   1.937   9.008  2.9584 -2.0411  0.5594
  451MOL0     H60867   6.079   2.271   8.517  0.4389  1.5457  1.1063
  451MOL0     H60868   5.955   2.343   8.308 -1.9691  2.5754  1.6099
  451MOL0     H60869   5.962   2.269   7.809  0.7321 -0.3927 -1.4662
  451MOL0     H60870   5.841   2.326   7.630 -2.8389  1.5747 -0.6954
  451MOL0     H60871   6.002   1.764   6.336  0.3945 -1.9317 -0.0444
  451MOL0     H60872   5.860   1.627   6.193  0.9312 -0.6035  2.8626
  451MOL0     H60873   5.612   1.597   5.788 -1.9058 -0.1477 -1.0073
  451MOL0     H60874   5.468   1.469   5.623  0.3753  1.3454  0.3689
  451MOL0     H60875   5.636   1.085   5.438 -0.1440 -0.6085  0.2227
  451MOL0     H60876   5.542   1.046   5.575  1.5488 -1.4105 -0.9455
  451MOL0     H60877   5.440   1.148   5.306 -0.9816  1.6676  2.6095
  451MOL0     H60878   5.342   1.077   5.440 -0.0607  0.0441  0.0792
  451MOL0     H60879   5.407   0.850   5.409 -0.6131  0.1335 -0.2557
  451MOL0     H60880   5.526   0.888   5.289 -0.5473 -1.1624 -1.8740
  451MOL0     H60881   5.227   0.915   5.283  0.6889 -0.6979  2.4379
  451MOL0     H60882   5.329   0.792   5.210  0.4600  0.5675 -0.8296
  451MOL0     H60883   5.338   1.122   4.922  1.4327  1.4344  2.3185
  451MOL0     H60884   5.793   1.173   5.612 -1.7205 -2.2117  2.0985
  451MOL0     H60885   5.920   1.306   5.760  1.2045  3.0762  0.9655
  452MOL0     O60886   2.533  10.479  11.140  0.0134 -0.2514  0.7824
  452MOL0     C60887   2.540  10.361  11.190 -1.4963 -0.3558  0.1124
  452MOL0     O60888   2.446  10.270  11.190 -0.1878  0.3113 -0.5514
  452MOL0     C60889   2.319  10.299  11.158  0.9429  0.5441 -0.3633
  452MOL0     C60890   2.287  10.357  11.032 -0.1691 -1.0462 -0.3433
  452MOL0     C60891   2.159  10.349  10.982  0.2262 -0.0925  1.1202
  452MOL0     C60892   2.059  10.270  11.038  0.4539  0.2297 -0.3835
  452MOL0     O60893   1.933  10.275  10.991  0.2607 -0.0235 -0.3745
  452MOL0     C60894   1.858  10.153  11.001 -0.2973  0.5432  0.1783
  452MOL0     C60895   1.729  10.176  10.926 -0.9355 -0.0187  0.6337
  452MOL0     C60896   1.624  10.263  11.005 -0.2294 -0.1180  0.9035
  452MOL0     C60897   1.493  10.287  10.927 -0.4100 -0.2451  0.7559
  452MOL0     C60898   1.491  10.373  10.794 -0.1067 -0.3060 -0.4883
  452MOL0     C60899   1.496  10.275  10.669  0.4583 -0.6352  0.5214
  452MOL0     C60900   1.494  10.361  10.545 -0.7134 -0.1370  0.4538
  452MOL0     C60901   1.355  10.413  10.512 -0.0390  0.4033  0.2847
  452MOL0     N60902   1.357  10.505  10.395 -0.5509  0.2856  0.3616
  452MOL0     C60903   1.342  10.459  10.266  0.0176 -0.9477  0.0341
  452MOL0     C60904   1.376  10.568  10.197 -0.0028  0.8536 -0.0683
  452MOL0     C60905   1.375  10.591  10.042  0.7518  1.0639  0.6476
  452MOL0     C60906   1.286  10.700   9.992 -1.0891  0.6982  0.2517
  452MOL0     C60907   1.140  10.668  10.028  0.7057 -0.0989  0.1319
  452MOL0     C60908   1.043  10.780   9.982  0.3745  0.4474  0.2873
  452MOL0     O60909   0.936  10.768  10.077 -0.1945  0.5225  0.0725
  452MOL0     C60910   0.830  10.849  10.056 -0.1243 -0.5897  0.2018
  452MOL0     C60911   0.722  10.835  10.150  0.3489  0.0022  0.5349
  452MOL0     C60912   0.602  10.904  10.146 -1.3473  0.3508 -0.6065
  452MOL0     C60913   0.518  10.907  10.269 -0.2763  0.3070  0.0392
  452MOL0     C60914   0.585  11.003  10.039 -0.1596  0.5958  0.1592
  452MOL0     C60915   0.462  11.073  10.030 -0.5252  0.5737 -0.3298
  452MOL0     O60916   0.403  11.146  10.141 -0.2678  0.3361 -0.5695
  452MOL0     C60917   0.280  11.207  10.125 -0.6845 -0.0876 -0.1300
  452MOL0     C60918   0.276  11.320  10.046 -0.3839 -0.7156 -0.3378
  452MOL0     C60919   0.158  11.392  10.026  1.0548 -0.2629 -0.2391
  452MOL0     C60920   0.036  11.354  10.088 -0.9171  0.6710  0.0952
  452MOL0     O60921  -0.082  11.427  10.087 -0.3454 -0.0602 -0.5178
  452MOL0     C60922  -0.153  11.448   9.960 -0.5162  0.0031  0.2238
  452MOL0     C60923  -0.284  11.508   9.995 -0.6953 -0.3794 -0.2203
  452MOL0     C60924  -0.373  11.546   9.881  1.0886  0.1704  0.0295
  452MOL0     C60925  -0.412  11.430   9.794  0.9226 -0.0411  0.0923
  452MOL0     C60926  -0.539  11.363   9.852  0.5955  0.1978  0.1910
  452MOL0     C60927  -0.563  11.240   9.777 -0.0630  0.1370 -0.0349
  452MOL0     C60928  -0.675  11.184   9.857  0.0324 -0.6779 -0.1085
  452MOL0     C60929  -0.722  11.060   9.793 -0.7167 -0.0162  0.5839
  452MOL0    Cl60930  -0.613  10.957   9.699  0.6323 -0.9051 -0.1043
  452MOL0     C60931   0.034  11.229  10.149  0.1044 -0.2280 -0.1025
  452MOL0     C60932   0.152  11.152  10.162 -0.0720 -0.4491  0.5739
  452MOL0     O60933   0.417  11.074   9.918 -0.7869 -1.3031  0.2149
  452MOL0     C60934   0.687  11.010   9.939 -0.7066 -0.7571  0.3712
  452MOL0     C60935   0.807  10.933   9.943  0.4264  0.1300  0.1243
  452MOL0     N60936   1.405  10.673  10.281  0.9521 -0.3754 -0.8582
  452MOL0     N60937   1.394  10.636  10.400 -0.4247  0.6682 -0.1201
  452MOL0     C60938   2.095  10.207  11.154  0.1294  0.4443  0.4728
  452MOL0     C60939   2.219  10.213  11.209 -0.5294  0.9007  0.2006
  452MOL0     C60940   2.680  10.332  11.239  0.3238  1.1808  0.6577
  452MOL0     C60941   2.702  10.245  11.345  0.5886 -0.4810 -0.1111
  452MOL0     C60942   2.834  10.231  11.397 -0.4522  1.1380 -0.3143
  452MOL0     C60943   2.947  10.304  11.348  0.5577 -0.0756  0.0812
  452MOL0     O60944   3.071  10.308  11.399  0.1278  0.5888 -0.0873
  452MOL0     C60945   3.152  10.196  11.350 -0.2843  0.1076  0.4898
  452MOL0     C60946   3.268  10.163  11.434 -0.5554 -0.2642 -0.1148
  452MOL0     C60947   3.231  10.114  11.574 -0.3994 -0.4054  1.3642
  452MOL0     C60948   3.359  10.073  11.656 -0.1631 -0.8832  0.3836
  452MOL0     C60949   3.339  10.076  11.804 -0.4889  0.1643  0.7517
  452MOL0     C60950   3.309  10.097  11.919 -0.0481  1.0373 -0.7894
  452MOL0     C60951   2.918  10.387  11.238 -0.3414  0.2079  0.2692
  452MOL0     C60952   2.790  10.397  11.175  0.3012 -0.7821 -0.9320
  452MOL0     H60953   2.357  10.421  10.981 -0.2677 -1.3573 -0.8806
  452MOL0     H60954   2.132  10.393  10.887  4.0903  1.4390  0.5518
  452MOL0     H60955   1.912  10.071  10.953  1.5583  1.5756  0.3888
  452MOL0     H60956   1.830  10.131  11.104  1.1073 -0.3471  0.4016
  452MOL0     H60957   1.744  10.239  10.838  0.2148  0.1775  0.9474
  452MOL0     H60958   1.675  10.088  10.891  0.3014 -0.1120 -1.1684
  452MOL0     H60959   1.593  10.205  11.092 -3.4396 -0.9386 -0.6351
  452MOL0     H60960   1.680  10.352  11.036 -0.2242 -0.3718  1.6357
  452MOL0     H60961   1.427  10.200  10.922 -2.4460  1.2035  1.1926
  452MOL0     H60962   1.432  10.347  10.994 -1.4388 -1.6822  1.1380
  452MOL0     H60963   1.392  10.418  10.800 -0.5717 -1.3668  0.0401
  452MOL0     H60964   1.568  10.451  10.791  0.8638 -1.1067  1.6661
  452MOL0     H60965   1.597  10.234  10.676  0.5467 -0.1311  4.9410
  452MOL0     H60966   1.419  10.197  10.668 -1.0034  0.7632  0.1247
  452MOL0     H60967   1.556  10.450  10.562 -2.0776  0.5884  1.9759
  452MOL0     H60968   1.537  10.306  10.461  0.4412  0.0677  0.8795
  452MOL0     H60969   1.317  10.472  10.596  0.2450  2.9265 -1.2296
  452MOL0     H60970   1.289  10.329  10.492  0.4336  0.3726 -1.2903
  452MOL0     H60971   1.319  10.360  10.227 -1.9332  0.0246 -1.4503
  452MOL0     H60972   1.479  10.618  10.022  1.0295 -1.4117 -1.7062
  452MOL0     H60973   1.367  10.499   9.984 -2.3700  0.9914  1.0048
  452MOL0     H60974   1.298  10.700   9.884  0.4578  2.7112  0.3746
  452MOL0     H60975   1.317  10.802  10.018  2.4787 -0.6953  2.1351
  452MOL0     H60976   1.126  10.653  10.136 -2.6720 -1.6632 -0.4016
  452MOL0     H60977   1.100  10.582   9.973  3.5007 -1.4816  0.0487
  452MOL0     H60978   1.007  10.766   9.880  1.2544 -0.4345  0.0837
  452MOL0     H60979   1.070  10.885   9.997 -1.8975  0.9998  0.8194
  452MOL0     H60980   0.740  10.779  10.241 -1.7143 -0.6305  0.5940
  452MOL0     H60981   0.556  10.985  10.336  0.4881 -0.9947  1.1660
  452MOL0     H60982   0.411  10.925  10.253 -0.2304 -0.5377 -1.3709
  452MOL0     H60983   0.517  10.808  10.315  4.9615 -0.0292  0.0330
  452MOL0     H60984   0.372  11.342  10.001 -0.1783 -1.2764 -0.1798
  452MOL0     H60985   0.156  11.479   9.960  1.2486 -1.8908 -2.5071
  452MOL0     H60986  -0.102  11.515   9.891 -1.4150 -0.9569 -1.4296
  452MOL0     H60987  -0.176  11.349   9.919 -2.4411  0.1902  0.7466
  452MOL0     H60988  -0.340  11.442  10.062  0.2985 -0.3231  0.6830
  452MOL0     H60989  -0.260  11.602  10.045  1.6423  0.5325 -2.7859
  452MOL0     H60990  -0.311  11.611   9.819 -1.2742  2.5203 -0.0452
  452MOL0     H60991  -0.461  11.592   9.926  0.6024 -0.7890  0.0949
  452MOL0     H60992  -0.449  11.484   9.706  2.8224  3.9406  1.4713
  452MOL0     H60993  -0.331  11.360   9.770  2.3808  1.6843 -0.2560
  452MOL0     H60994  -0.621  11.435   9.839  0.9147  0.3752 -0.8865
  452MOL0     H60995  -0.542  11.336   9.958 -5.2522 -3.0646 -0.3600
  452MOL0     H60996  -0.581  11.253   9.669 -1.3020 -1.3644 -0.0434
  452MOL0     H60997  -0.473  11.179   9.788 -1.7647 -2.3648  0.8693
  452MOL0     H60998  -0.753  11.255   9.884  1.3805  2.0677 -2.8020
  452MOL0     H60999  -0.633  11.152   9.953  0.9551  2.1243  0.5066
  452MOL0     H61000  -0.816  11.091   9.747 -0.9464 -1.0773  0.3097
  452MOL0     H61001  -0.771  10.999   9.870 -3.3803  1.3937  0.1228
  452MOL0     H61002  -0.046  11.200  10.216  2.8098 -3.2060  2.2193
  452MOL0     H61003   0.153  11.064  10.226  1.3040 -1.0314 -0.1866
  452MOL0     H61004   0.660  11.072   9.853 -0.9597  0.4890  1.3173
  452MOL0     H61005   0.876  10.950   9.861  2.2007 -0.6005  1.4089
  452MOL0     H61006   2.025  10.134  11.194 -0.5560  0.1743 -1.1585
  452MOL0     H61007   2.244  10.159  11.300 -0.9228 -1.1827 -0.8694
  452MOL0     H61008   2.618  10.197  11.394  1.5955 -0.3377  1.8410
  452MOL0     H61009   2.854  10.170  11.485  1.2982  1.3872 -0.5123
  452MOL0     H61010   3.103  10.099  11.338  0.9684 -0.6190  1.0064
  452MOL0     H61011   3.186  10.218  11.249 -0.8919 -1.2530 -0.0394
  452MOL0     H61012   3.323  10.258  11.437  0.4448 -0.8517  0.6552
  452MOL0     H61013   3.340  10.094  11.391 -0.9424 -1.7121  1.4543
  452MOL0     H61014   3.168  10.024  11.570  0.3183 -0.8715  0.2814
  452MOL0     H61015   3.181  10.196  11.627  0.6970  0.8020  0.5776
  452MOL0     H61016   3.438  10.143  11.628 -1.6579  0.4459 -0.7453
  452MOL0     H61017   3.396   9.974  11.631  3.8236 -0.0559  2.2617
  452MOL0     H61018   3.274  10.127  12.016  1.2058  4.8191 -1.3387
  452MOL0     H61019   2.992  10.443  11.182 -1.2744 -0.3656 -1.6097
  452MOL0     H61020   2.774  10.468  11.095 -0.1468  0.8184  0.5035
  453MOL0     O61021   8.017  10.633   9.611 -0.3911 -0.1289 -1.0563
  453MOL0     C61022   7.988  10.521   9.565 -0.2782  0.7865  0.5945
  453MOL0     O61023   7.942  10.410   9.632 -0.4487  0.3756 -0.0716
  453MOL0     C61024   7.883  10.421   9.756  0.2861 -0.0237 -0.0450
  453MOL0     C61025   7.809  10.308   9.798 -0.2185  0.8422 -0.0598
  453MOL0     C61026   7.733  10.312   9.913 -0.0940  0.8453  0.5024
  453MOL0     C61027   7.736  10.409  10.002 -0.0908 -0.1471  1.0047
  453MOL0     O61028   7.648  10.398  10.106  0.2973  1.0923 -0.4369
  453MOL0     C61029   7.645  10.502  10.203  0.5463 -0.3363  0.4592
  453MOL0     C61030   7.527  10.468  10.288  0.6208  0.7047  0.3592
  453MOL0     C61031   7.503  10.560  10.414  0.2774 -0.0161 -0.5023
  453MOL0     C61032   7.395  10.496  10.509 -0.2329  0.1988 -0.4179
  453MOL0     C61033   7.273  10.588  10.527 -0.7663 -0.1477 -0.3227
  453MOL0     C61034   7.180  10.533  10.647 -1.0014 -0.5433  0.0646
  453MOL0     C61035   7.060  10.618  10.680  0.6110  0.3093 -0.3079
  453MOL0     C61036   7.082  10.741  10.773 -0.6121 -0.0947 -1.2400
  453MOL0     N61037   7.152  10.702  10.903  0.0544 -0.3430  0.8157
  453MOL0     C61038   7.274  10.754  10.944  0.4331 -0.2802  0.2726
  453MOL0     C61039   7.283  10.698  11.071  0.8471  0.0744 -0.4661
  453MOL0     C61040   7.406  10.692  11.150 -0.6550  0.2782  0.8304
  453MOL0     C61041   7.376  10.767  11.273  0.5910  0.2778 -0.7490
  453MOL0     C61042   7.502  10.811  11.361 -0.0198 -0.8676 -0.1965
  453MOL0     C61043   7.466  10.902  11.484  0.3388  0.8685 -0.2072
  453MOL0     O61044   7.439  11.034  11.426 -0.6632  0.3689  0.0660
  453MOL0     C61045   7.413  11.133  11.517  0.6650 -0.0384  0.0584
  453MOL0     C61046   7.503  11.186  11.611  0.5916  0.1723  0.2202
  453MOL0     C61047   7.461  11.264  11.718 -0.9855 -0.7281  0.5098
  453MOL0     C61048   7.578  11.335  11.778  0.5173 -0.5038 -0.1009
  453MOL0     C61049   7.325  11.306  11.733  0.2620 -0.0742 -0.5001
  453MOL0     C61050   7.269  11.406  11.833 -1.0883  0.8333  0.0359
  453MOL0     O61051   7.140  11.444  11.819 -0.2488  0.0898 -0.0932
  453MOL0     C61052   7.085  11.551  11.877 -0.6937  0.1077  0.4500
  453MOL0     C61053   6.948  11.550  11.913 -0.7072  1.2398  0.0771
  453MOL0     C61054   6.898  11.655  11.990 -0.2407  0.6341 -0.2241
  453MOL0     C61055   6.990  11.763  12.032  0.0398  0.2044  0.5423
  453MOL0     O61056   6.944  11.861  12.110  0.3787 -0.1318  0.1687
  453MOL0     C61057   6.829  11.937  12.064  1.4059  0.5139 -0.6523
  453MOL0     C61058   6.818  12.058  12.153 -0.5370  1.1604 -0.1203
  453MOL0     C61059   6.681  12.133  12.136 -0.0649  0.0900  0.4522
  453MOL0     C61060   6.687  12.268  12.207 -1.0305  0.1142  0.4833
  453MOL0     C61061   6.571  12.355  12.155 -0.1394  1.0894  0.3664
  453MOL0     C61062   6.588  12.506  12.207  0.1042  0.8574 -0.3679
  453MOL0     C61063   6.573  12.521  12.363  0.5134  0.5557  0.5174
  453MOL0     C61064   6.427  12.549  12.394  0.2612  0.3394  0.1045
  453MOL0    Cl61065   6.418  12.540  12.565 -0.0094 -0.1740  0.4870
  453MOL0     C61066   7.120  11.765  11.976  0.0662 -0.6762 -0.3493
  453MOL0     C61067   7.166  11.663  11.903  0.2355 -0.0975 -0.0483
  453MOL0     O61068   7.343  11.437  11.936  0.4770  0.7732  0.8385
  453MOL0     C61069   7.233  11.259  11.641 -0.0937  0.7802 -0.9316
  453MOL0     C61070   7.278  11.179  11.536 -0.2048  0.0100 -0.0927
  453MOL0     N61071   7.168  10.612  11.086 -0.7356 -0.3150  1.2325
  453MOL0     N61072   7.077  10.639  10.997 -0.7733 -0.8753 -0.2989
  453MOL0     C61073   7.811  10.523   9.972  0.4214 -0.6557  0.4436
  453MOL0     C61074   7.887  10.530   9.854  0.0973  0.3184  0.3135
  453MOL0     C61075   8.021  10.496   9.426 -0.6100 -0.1018 -0.0237
  453MOL0     C61076   8.092  10.592   9.354 -0.8837  0.5209 -0.0967
  453MOL0     C61077   8.133  10.561   9.228  0.4000  0.6188 -0.2628
  453MOL0     C61078   8.110  10.434   9.173  0.2153  0.1341  0.0167
  453MOL0     O61079   8.178  10.396   9.059 -0.5776 -0.0530  0.2947
  453MOL0     C61080   8.171  10.462   8.931  1.0885 -1.1538  0.7479
  453MOL0     C61081   8.061  10.404   8.848  0.6996 -0.5231 -0.0228
  453MOL0     C61082   8.087  10.250   8.836 -0.9827  0.5989 -0.5320
  453MOL0     C61083   7.976  10.174   8.768  0.4819  0.6134  0.8348
  453MOL0     C61084   7.978  10.206   8.628 -0.4554 -0.0958 -0.8717
  453MOL0     C61085   7.965  10.237   8.512 -0.2165 -0.7962 -0.4614
  453MOL0     C61086   8.046  10.337   9.243 -0.5127 -0.7320  0.4232
  453MOL0     C61087   8.001  10.370   9.371 -0.1904  0.5873 -0.0717
  453MOL0     H61088   7.795  10.219   9.738  0.7995  0.3082  0.4763
  453MOL0     H61089   7.682  10.218   9.933  4.4782 -1.5400  2.3737
  453MOL0     H61090   7.733  10.506  10.269  0.0291  1.4812  1.1032
  453MOL0     H61091   7.632  10.598  10.152  0.0441 -0.2510  0.7464
  453MOL0     H61092   7.429  10.463  10.240  0.4747  0.8362  0.6468
  453MOL0     H61093   7.545  10.368  10.328 -1.0555  0.2363 -0.0005
  453MOL0     H61094   7.602  10.568  10.458  0.4662  0.3081 -0.9847
  453MOL0     H61095   7.463  10.648  10.363 -0.8341 -1.1277 -1.6362
  453MOL0     H61096   7.353  10.402  10.472 -1.6025  1.5513 -2.5981
  453MOL0     H61097   7.453  10.482  10.600 -2.7663 -0.9370  1.1340
  453MOL0     H61098   7.309  10.689  10.552 -1.3278 -0.3928  1.7141
  453MOL0     H61099   7.225  10.591  10.429 -0.7182  2.5651 -0.3360
  453MOL0     H61100   7.134  10.440  10.612  1.1108 -1.1422 -1.3402
  453MOL0     H61101   7.242  10.509  10.733  1.3861  2.5782 -0.5740
  453MOL0     H61102   7.002  10.658  10.595  0.0719  0.7710  0.2592
  453MOL0     H61103   6.992  10.558  10.741  0.3624  1.5096  0.6423
  453MOL0     H61104   6.983  10.786  10.782 -0.8106 -0.2269 -2.6027
  453MOL0     H61105   7.146  10.814  10.722  3.1050 -2.0634  0.2087
  453MOL0     H61106   7.343  10.817  10.889 -2.1253  0.7257 -1.9772
  453MOL0     H61107   7.424  10.588  11.180 -0.0889  0.3484  0.7421
  453MOL0     H61108   7.499  10.730  11.107  0.1238 -0.5590  1.7190
  453MOL0     H61109   7.304  10.711  11.335  1.2611  0.9446  0.6856
  453MOL0     H61110   7.317  10.856  11.248 -1.2816 -1.3037 -2.2730
  453MOL0     H61111   7.563  10.873  11.295  1.1974 -1.7422  0.0674
  453MOL0     H61112   7.554  10.717  11.385  0.7653  0.0144  1.6941
  453MOL0     H61113   7.536  10.898  11.568 -1.8893 -2.1742  1.6990
  453MOL0     H61114   7.372  10.863  11.525  1.1664 -0.6022  0.3411
  453MOL0     H61115   7.607  11.170  11.583  0.5767 -0.0058  0.2592
  453MOL0     H61116   7.595  11.316  11.884  1.1095 -1.6146 -0.3756
  453MOL0     H61117   7.670  11.301  11.728  0.1200 -0.8601 -0.5999
  453MOL0     H61118   7.566  11.443  11.775 -1.9817 -0.7248  0.5045
  453MOL0     H61119   6.891  11.462  11.885  1.7199 -0.1329 -0.8779
  453MOL0     H61120   6.797  11.658  12.029  0.5759  0.5869  2.0350
  453MOL0     H61121   6.838  11.969  11.960 -2.7981  0.8473 -1.0757
  453MOL0     H61122   6.741  11.874  12.080  2.9876 -2.1013 -1.5781
  453MOL0     H61123   6.830  12.012  12.251 -2.5072 -3.0552 -1.6333
  453MOL0     H61124   6.901  12.122  12.121 -1.4855  2.0428 -0.8877
  453MOL0     H61125   6.608  12.056  12.163  1.5974 -2.8197 -2.6208
  453MOL0     H61126   6.659  12.143  12.030 -2.0523 -0.6025  0.7659
  453MOL0     H61127   6.680  12.263  12.316  3.7969  3.5543  1.2840
  453MOL0     H61128   6.784  12.313  12.182 -1.6673  0.9562 -0.5661
  453MOL0     H61129   6.468  12.325  12.177 -0.5749  1.0299 -1.5539
  453MOL0     H61130   6.576  12.376  12.048  0.5038 -0.4680  0.0639
  453MOL0     H61131   6.691  12.523  12.174  0.0025  1.4874 -0.3738
  453MOL0     H61132   6.527  12.581  12.156  1.0679  2.7138  1.0800
  453MOL0     H61133   6.620  12.616  12.389  0.0108  1.5175 -1.8252
  453MOL0     H61134   6.616  12.430  12.407 -2.0038 -1.1205 -0.2492
  453MOL0     H61135   6.356  12.476  12.355  1.5260 -1.2353  0.6453
  453MOL0     H61136   6.398  12.645  12.349 -2.7165 -0.6876 -0.3587
  453MOL0     H61137   7.178  11.855  11.993 -0.0763 -0.1998 -2.2073
  453MOL0     H61138   7.267  11.666  11.862  0.0879 -1.4725 -0.5630
  453MOL0     H61139   7.130  11.295  11.639 -0.2559  0.3684 -0.2885
  453MOL0     H61140   7.201  11.148  11.466 -0.6376  2.6188 -0.8822
  453MOL0     H61141   7.820  10.611  10.035  0.7737 -0.0210 -0.4763
  453MOL0     H61142   7.935  10.626   9.836 -1.2899  1.0859  0.5893
  453MOL0     H61143   8.109  10.684   9.408  0.2147  1.7955 -2.4703
  453MOL0     H61144   8.180  10.645   9.178  2.2473  0.4846  1.1235
  453MOL0     H61145   8.160  10.571   8.937  0.1413 -1.1563 -0.6896
  453MOL0     H61146   8.267  10.443   8.881  1.6313  2.3915  0.1334
  453MOL0     H61147   8.038  10.451   8.751 -0.7315  1.3416  1.1484
  453MOL0     H61148   7.965  10.403   8.899 -0.4270 -3.7503 -1.8910
  453MOL0     H61149   8.093  10.206   8.935 -0.8980  1.1572 -0.2864
  453MOL0     H61150   8.183  10.223   8.791 -0.6329 -1.3140  1.1874
  453MOL0     H61151   7.881  10.203   8.814  0.0242  4.4790 -2.0202
  453MOL0     H61152   7.979  10.066   8.785 -1.0055  0.7839  2.4403
  453MOL0     H61153   7.940  10.267   8.412 -1.0241 -2.4711 -0.7995
  453MOL0     H61154   8.047  10.244   9.187  0.1677  0.4315 -1.6247
  453MOL0     H61155   7.971  10.284   9.429  2.0794 -1.0626 -1.1948
  454MOL0     O61156   9.078   2.921   2.122 -0.3237 -0.2215  0.2607
  454MOL0     C61157   9.065   2.952   2.001 -0.3593 -1.2653 -0.0664
  454MOL0     O61158   9.141   2.913   1.899 -0.0416  0.1361  0.2907
  454MOL0     C61159   9.235   2.816   1.903 -0.1135 -0.0685  0.3434
  454MOL0     C61160   9.332   2.809   1.808 -0.8568 -0.6794  0.0588
  454MOL0     C61161   9.436   2.715   1.818 -0.4700 -0.3998  0.9383
  454MOL0     C61162   9.446   2.621   1.925  0.6972 -0.9220  0.2794
  454MOL0     O61163   9.548   2.545   1.916 -0.2678  0.6053 -0.6439
  454MOL0     C61164   9.571   2.448   2.018  0.8768 -0.4377 -0.2819
  454MOL0     C61165   9.719   2.411   2.015  1.0739  0.4258  0.1298
  454MOL0     C61166   9.755   2.324   2.134 -0.4981  0.3019 -0.0600
  454MOL0     C61167   9.729   2.169   2.099 -0.1204 -0.5014  0.0813
  454MOL0     C61168   9.784   2.079   2.214  0.5774  0.4792  0.0398
  454MOL0     C61169   9.767   1.924   2.195 -0.6558 -0.4561 -0.5283
  454MOL0     C61170   9.643   1.860   2.136  0.2081  0.0947 -0.2272
  454MOL0     C61171   9.522   1.876   2.225  0.0481 -0.6817  0.4759
  454MOL0     N61172   9.408   1.845   2.145  0.2199 -0.2368 -0.9731
  454MOL0     C61173   9.369   1.884   2.025  0.0206  0.5489  0.4430
  454MOL0     C61174   9.263   1.811   1.989 -0.3928 -1.3616 -0.6409
  454MOL0     C61175   9.184   1.836   1.865 -0.0774 -0.0712 -0.5253
  454MOL0     C61176   9.209   1.727   1.756 -0.1026 -0.5679 -0.4782
  454MOL0     C61177   9.368   1.744   1.729 -0.6321 -0.3499  0.2069
  454MOL0     C61178   9.400   1.627   1.634 -0.0939  0.3718  0.1536
  454MOL0     O61179   9.533   1.568   1.673 -0.0401 -0.4115 -0.4407
  454MOL0     C61180   9.534   1.505   1.799 -0.0219 -0.1023 -0.6931
  454MOL0     C61181   9.664   1.475   1.845  0.0827  1.9756  0.0345
  454MOL0     C61182   9.687   1.404   1.963  0.5083  0.4556 -0.1034
  454MOL0     C61183   9.826   1.359   1.992  0.5410  0.1936 -0.3831
  454MOL0     C61184   9.581   1.381   2.053  0.7185  0.2212 -0.7150
  454MOL0     C61185   9.599   1.320   2.181  0.2350 -0.0403 -0.0941
  454MOL0     O61186   9.509   1.224   2.222 -0.5927 -0.0813 -0.5231
  454MOL0     C61187   9.528   1.153   2.336 -0.6980 -0.1658 -0.0596
  454MOL0     C61188   9.412   1.142   2.411 -0.2071 -0.0427 -0.2674
  454MOL0     C61189   9.410   1.102   2.544 -0.5329 -0.5415 -0.6800
  454MOL0     C61190   9.538   1.060   2.595 -0.2378 -0.1240 -0.1533
  454MOL0     O61191   9.543   1.001   2.717  0.3988  0.0573 -0.0358
  454MOL0     C61192   9.507   1.098   2.809 -0.0557 -0.6886 -1.1262
  454MOL0     C61193   9.568   1.081   2.950 -0.0926  0.2836 -1.2137
  454MOL0     C61194   9.712   1.130   2.959  0.9062  0.4045  0.6671
  454MOL0     C61195   9.806   1.110   2.840  0.9611 -0.3274 -0.0757
  454MOL0     C61196   9.952   1.136   2.871  0.2897  0.5151  0.0200
  454MOL0     C61197  10.024   1.009   2.940  1.3935 -0.3743  0.7304
  454MOL0     C61198  10.165   1.040   2.990  0.6054  0.1915 -0.2416
  454MOL0     C61199  10.261   1.054   2.876  1.3279 -0.1367 -0.4509
  454MOL0    Cl61200  10.431   1.059   2.928  0.2292 -0.1206  0.1441
  454MOL0     C61201   9.657   1.065   2.530  0.3599 -0.3480 -0.1220
  454MOL0     C61202   9.656   1.117   2.401  0.5750  0.6019 -0.7561
  454MOL0     O61203   9.697   1.366   2.244 -0.0020 -0.0464  0.8519
  454MOL0     C61204   9.455   1.404   2.004 -0.2587  0.4688 -0.2179
  454MOL0     C61205   9.425   1.454   1.871 -0.3802  0.6121 -0.6390
  454MOL0     N61206   9.230   1.724   2.088 -0.3110 -0.0286 -0.0829
  454MOL0     N61207   9.325   1.740   2.181  0.0078 -0.4632 -0.4318
  454MOL0     C61208   9.342   2.633   2.015 -0.2696 -0.0573 -0.3522
  454MOL0     C61209   9.242   2.722   2.006  0.4613  0.7701  0.4416
  454MOL0     C61210   8.963   3.060   1.980  0.1435  0.4122  0.2929
  454MOL0     C61211   8.905   3.138   2.078 -0.1566 -0.4458  0.1431
  454MOL0     C61212   8.805   3.224   2.060  0.8612 -1.0217 -0.8521
  454MOL0     C61213   8.746   3.247   1.931  0.0659 -0.5653 -0.2695
  454MOL0     O61214   8.641   3.334   1.900 -0.5116  0.3752  0.2709
  454MOL0     C61215   8.537   3.366   1.988  0.8889 -0.7711  0.3892
  454MOL0     C61216   8.399   3.384   1.916  0.3386  0.4110  0.5173
  454MOL0     C61217   8.270   3.381   2.015 -0.3697 -0.0670  0.9893
  454MOL0     C61218   8.143   3.430   1.953  1.8220 -0.5472  1.1636
  454MOL0     C61219   8.094   3.327   1.863  0.1931 -0.1872 -0.0243
  454MOL0     C61220   8.038   3.231   1.805  0.5749 -0.6142  1.1492
  454MOL0     C61221   8.796   3.168   1.830  0.8578 -0.3073  1.0280
  454MOL0     C61222   8.896   3.069   1.854 -0.4240 -0.1080  1.5449
  454MOL0     H61223   9.335   2.888   1.733  0.5233 -4.3025 -4.1066
  454MOL0     H61224   9.517   2.723   1.746 -0.1111  1.9182  1.5162
  454MOL0     H61225   9.545   2.488   2.116  1.1668 -2.3481  0.6305
  454MOL0     H61226   9.509   2.360   2.000 -1.7860  1.5819 -1.6683
  454MOL0     H61227   9.748   2.352   1.928 -0.0114 -1.7896  1.1801
  454MOL0     H61228   9.772   2.507   2.007 -1.3393  1.6518 -3.3065
  454MOL0     H61229   9.861   2.345   2.154 -0.6142 -0.9223  2.1061
  454MOL0     H61230   9.691   2.349   2.219  1.4878  1.2856  1.2355
  454MOL0     H61231   9.622   2.152   2.083 -0.4383 -0.7441  2.2099
  454MOL0     H61232   9.774   2.134   2.005 -3.5887 -1.2351 -1.4960
  454MOL0     H61233   9.889   2.098   2.239  0.9988  1.5259 -2.2211
  454MOL0     H61234   9.733   2.126   2.298  0.5643  1.0470 -0.2780
  454MOL0     H61235   9.839   1.898   2.117 -0.5303  0.3237 -0.6808
  454MOL0     H61236   9.783   1.869   2.288  2.4877  1.2963  0.1289
  454MOL0     H61237   9.632   1.916   2.043  1.2975 -0.6908 -0.8574
  454MOL0     H61238   9.660   1.756   2.106  2.9932  0.9966 -2.1380
  454MOL0     H61239   9.518   1.981   2.257 -0.5518 -1.0102  1.5184
  454MOL0     H61240   9.534   1.810   2.311  2.1810  0.8295  1.4488
  454MOL0     H61241   9.408   1.958   1.956 -1.5168  0.0089 -1.1005
  454MOL0     H61242   9.078   1.848   1.887  0.7165  2.0974  2.9694
  454MOL0     H61243   9.204   1.932   1.816 -2.6464  1.0931  0.5444
  454MOL0     H61244   9.151   1.750   1.666 -1.9135  0.0410  0.7802
  454MOL0     H61245   9.176   1.628   1.788  0.8375 -1.0668 -1.0215
  454MOL0     H61246   9.423   1.745   1.823 -1.3566  0.6824  0.6369
  454MOL0     H61247   9.399   1.838   1.682 -1.5267 -0.1195  0.0619
  454MOL0     H61248   9.389   1.665   1.532 -2.3834  2.0244  0.9512
  454MOL0     H61249   9.330   1.543   1.639 -0.6925  0.9013  0.7011
  454MOL0     H61250   9.741   1.500   1.772  0.1693 -0.9415 -1.0197
  454MOL0     H61251   9.820   1.274   2.059 -2.6108  1.4971  1.1895
  454MOL0     H61252   9.887   1.324   1.908  3.0522  1.4164  0.8315
  454MOL0     H61253   9.870   1.437   2.055 -0.7593 -1.4751  2.8237
  454MOL0     H61254   9.319   1.184   2.373 -0.2144  0.5621  0.3817
  454MOL0     H61255   9.324   1.108   2.611  0.5998 -1.6308  0.9471
  454MOL0     H61256   9.529   1.203   2.789  3.0451 -0.7336  1.3540
  454MOL0     H61257   9.401   1.083   2.834  0.0558  1.0361  0.6221
  454MOL0     H61258   9.498   1.133   3.016 -0.7182 -4.4258  2.3977
  454MOL0     H61259   9.564   0.982   2.998  2.3804  0.7648  0.1602
  454MOL0     H61260   9.757   1.074   3.041  0.2928 -0.3484  0.5055
  454MOL0     H61261   9.709   1.239   2.971 -0.3887  0.5251 -0.4269
  454MOL0     H61262   9.799   1.011   2.792 -3.7298 -0.1041 -0.3168
  454MOL0     H61263   9.772   1.174   2.758 -1.2985 -0.8503  0.3809
  454MOL0     H61264   9.948   1.225   2.934 -1.0989  0.6419 -0.2002
  454MOL0     H61265   9.995   1.156   2.772  1.1234  1.4427  0.5595
  454MOL0     H61266   9.961   0.983   3.026  0.0155 -0.0500 -0.1561
  454MOL0     H61267  10.027   0.923   2.873  4.2295 -0.1098  0.3740
  454MOL0     H61268  10.198   0.961   3.057  1.7008  0.2228 -0.7270
  454MOL0     H61269  10.161   1.131   3.051 -3.6209  0.7483 -1.0296
  454MOL0     H61270  10.256   1.147   2.819 -0.8378 -0.4626 -0.8557
  454MOL0     H61271  10.244   0.975   2.802  0.5808  1.6189 -2.2570
  454MOL0     H61272   9.754   1.025   2.559  1.9941  3.6726  0.5603
  454MOL0     H61273   9.747   1.127   2.342 -0.5073 -0.2652 -2.6692
  454MOL0     H61274   9.368   1.382   2.064 -1.2127 -0.3911 -1.8408
  454MOL0     H61275   9.320   1.454   1.842 -0.5415  1.4048 -0.0934
  454MOL0     H61276   9.344   2.565   2.099 -2.1870  0.3333  0.0659
  454MOL0     H61277   9.169   2.712   2.086  1.6412 -1.0419  1.3662
  454MOL0     H61278   8.955   3.126   2.174  0.6595  2.8255  0.2341
  454MOL0     H61279   8.779   3.291   2.142  3.7650 -1.6453  0.7142
  454MOL0     H61280   8.531   3.289   2.065  4.3616  1.2627  2.9740
  454MOL0     H61281   8.553   3.465   2.033  0.0899 -0.8687  0.9045
  454MOL0     H61282   8.393   3.290   1.861 -3.9057 -1.4420  3.5689
  454MOL0     H61283   8.392   3.457   1.835  0.7932 -3.8477 -3.7316
  454MOL0     H61284   8.301   3.438   2.102 -1.4081  2.4489 -0.1920
  454MOL0     H61285   8.260   3.280   2.056 -1.8426  0.7641  2.8175
  454MOL0     H61286   8.148   3.528   1.905  2.8922 -0.0155  2.3018
  454MOL0     H61287   8.064   3.447   2.027 -0.4406  0.8418 -1.3909
  454MOL0     H61288   7.998   3.153   1.743  1.2982  0.1263 -0.3086
  454MOL0     H61289   8.765   3.193   1.729  1.4392  2.3280  1.4221
  454MOL0     H61290   8.917   2.994   1.779 -0.4233 -0.2441  1.6794
  455MOL0     O61291   2.836   5.319   8.425  0.6555  0.4922 -0.8817
  455MOL0     C61292   2.809   5.290   8.312  0.0769  0.0326 -0.2969
  455MOL0     O61293   2.751   5.371   8.216  0.4950  0.0626  1.0129
  455MOL0     C61294   2.755   5.504   8.217 -0.3467 -1.0420 -0.0252
  455MOL0     C61295   2.868   5.575   8.254 -0.4079  0.3868 -0.5800
  455MOL0     C61296   2.875   5.715   8.248 -0.0785 -0.2407 -0.5272
  455MOL0     C61297   2.764   5.792   8.201  0.0418  0.9207 -0.3369
  455MOL0     O61298   2.751   5.924   8.184  0.0186 -0.3220 -0.4211
  455MOL0     C61299   2.838   6.010   8.261 -0.2942  1.0144  0.5825
  455MOL0     C61300   2.767   6.134   8.289  0.9490 -0.6945  0.4781
  455MOL0     C61301   2.739   6.209   8.155 -0.5849  0.7525 -0.1274
  455MOL0     C61302   2.657   6.339   8.184  0.0591  0.3717 -0.0352
  455MOL0     C61303   2.622   6.408   8.055  0.2562 -0.2661 -0.1118
  455MOL0     C61304   2.477   6.454   8.071  0.2118  0.1609  0.9840
  455MOL0     C61305   2.426   6.547   7.968  0.3813  0.3858 -0.6318
  455MOL0     C61306   2.489   6.691   7.977  0.5652  0.1340  0.0287
  455MOL0     N61307   2.416   6.778   7.887  0.4166  0.2230 -0.0780
  455MOL0     C61308   2.486   6.862   7.801 -1.0411  0.5411  0.4861
  455MOL0     C61309   2.401   6.909   7.711  0.8168  0.5315 -0.1069
  455MOL0     C61310   2.444   6.988   7.587 -0.0963 -1.3092 -0.2484
  455MOL0     C61311   2.491   7.130   7.637  0.5258  0.0086 -0.2217
  455MOL0     C61312   2.399   7.199   7.735 -0.0265 -0.4191 -0.7969
  455MOL0     C61313   2.274   7.266   7.662 -0.4156  0.1381  0.4949
  455MOL0     O61314   2.317   7.369   7.574  0.5451  0.4818  0.5424
  455MOL0     C61315   2.386   7.471   7.623 -0.3784  0.7740 -0.7551
  455MOL0     C61316   2.376   7.529   7.755  0.3643  0.2031 -0.0521
  455MOL0     C61317   2.431   7.655   7.797  0.2418 -0.0923 -0.0631
  455MOL0     C61318   2.424   7.697   7.949 -0.9188 -0.0240  0.6185
  455MOL0     C61319   2.505   7.723   7.698 -0.2017  0.2863 -0.0166
  455MOL0     C61320   2.590   7.840   7.720  0.0210  0.2801  0.4478
  455MOL0     O61321   2.681   7.860   7.617 -0.5692 -0.1323 -0.3533
  455MOL0     C61322   2.731   7.995   7.614 -0.1249  0.2166  0.3239
  455MOL0     C61323   2.841   8.038   7.690 -0.7225 -0.3491 -0.2408
  455MOL0     C61324   2.890   8.179   7.684  0.4125  1.1772  0.2258
  455MOL0     C61325   2.829   8.254   7.586  0.0675 -0.0106 -0.4064
  455MOL0     O61326   2.848   8.384   7.557  0.8010  0.1093 -0.1416
  455MOL0     C61327   2.939   8.459   7.630 -0.7436 -0.5395  0.0095
  455MOL0     C61328   2.914   8.595   7.561 -0.1133  0.8978 -1.1118
  455MOL0     C61329   2.967   8.715   7.634 -0.0193 -0.1724 -0.3116
  455MOL0     C61330   2.945   8.853   7.568 -1.3526  0.1447 -0.6436
  455MOL0     C61331   3.024   8.972   7.624  0.2240  0.9581 -0.5866
  455MOL0     C61332   2.965   9.107   7.578  0.0598  0.0005 -0.4717
  455MOL0     C61333   2.971   9.121   7.423 -0.3061 -0.6520 -0.3835
  455MOL0     C61334   2.962   9.267   7.390 -0.8274 -0.7579  0.5916
  455MOL0    Cl61335   3.104   9.358   7.466 -0.4988 -0.0553 -0.3147
  455MOL0     C61336   2.727   8.208   7.508  0.2132  0.5822  0.5301
  455MOL0     C61337   2.676   8.083   7.529  0.3418  1.1944  0.7836
  455MOL0     O61338   2.562   7.922   7.812  0.3141 -0.1378 -0.0943
  455MOL0     C61339   2.491   7.682   7.561  0.6472 -0.6678  0.0069
  455MOL0     C61340   2.435   7.556   7.525  0.5501  0.0974 -0.7787
  455MOL0     N61341   2.268   6.858   7.740 -0.4825  0.0982 -0.5061
  455MOL0     N61342   2.285   6.786   7.846  0.6306 -0.1275 -0.8119
  455MOL0     C61343   2.657   5.717   8.161  0.4115 -0.2815 -0.2938
  455MOL0     C61344   2.648   5.582   8.169  0.6319 -0.1692 -0.2776
  455MOL0     C61345   2.834   5.153   8.268  0.1331  0.2377  0.0587
  455MOL0     C61346   2.916   5.072   8.333 -0.0606 -0.6303  0.3473
  455MOL0     C61347   2.944   4.943   8.300  0.3047 -0.8360  0.2487
  455MOL0     C61348   2.879   4.889   8.188  1.0855 -0.6935  0.2028
  455MOL0     O61349   2.907   4.759   8.156 -0.3847 -0.2756 -0.5270
  455MOL0     C61350   2.902   4.729   8.013 -0.7408  0.5334 -0.5208
  455MOL0     C61351   2.990   4.605   7.996 -0.7268 -0.4036 -0.8767
  455MOL0     C61352   2.929   4.480   8.059  0.7688  0.2388 -0.9130
  455MOL0     C61353   3.040   4.369   8.063  0.4965  0.1214  0.0042
  455MOL0     C61354   2.994   4.248   8.137 -0.3657 -1.0022 -1.4639
  455MOL0     C61355   2.952   4.161   8.215  0.6271 -0.8159 -0.4191
  455MOL0     C61356   2.785   4.971   8.116 -1.0502 -0.0728  0.6473
  455MOL0     C61357   2.759   5.102   8.158 -0.4427  0.7270  0.4521
  455MOL0     H61358   2.965   5.538   8.284 -0.3996  2.0415  1.7307
  455MOL0     H61359   2.972   5.761   8.264 -0.8122  1.6529 -1.2186
  455MOL0     H61360   2.847   5.971   8.362  0.4715 -1.1251 -0.2496
  455MOL0     H61361   2.927   6.018   8.198 -0.8690  2.1931 -0.1161
  455MOL0     H61362   2.666   6.111   8.326 -0.0015  0.0323 -1.4760
  455MOL0     H61363   2.835   6.186   8.357  0.4621  1.4399 -0.5850
  455MOL0     H61364   2.837   6.236   8.114  0.5704 -1.9016  0.6060
  455MOL0     H61365   2.677   6.144   8.094 -0.8462 -1.4625  2.2906
  455MOL0     H61366   2.564   6.314   8.236  0.5100  0.7305  0.9599
  455MOL0     H61367   2.712   6.409   8.247  1.9393  1.0705 -2.3403
  455MOL0     H61368   2.685   6.495   8.036 -3.2973  2.4931 -0.3509
  455MOL0     H61369   2.632   6.340   7.970 -0.4219 -0.2846 -0.1822
  455MOL0     H61370   2.412   6.366   8.069 -1.4747  1.3680  0.4706
  455MOL0     H61371   2.464   6.508   8.165  0.9355 -0.9675  1.7584
  455MOL0     H61372   2.438   6.505   7.868  4.7481 -1.1176  0.2737
  455MOL0     H61373   2.322   6.547   8.002  0.7597  0.4269  0.5649
  455MOL0     H61374   2.595   6.686   7.951  0.5355  0.8897 -0.2618
  455MOL0     H61375   2.486   6.718   8.083 -1.4454 -0.6712  0.2257
  455MOL0     H61376   2.591   6.887   7.797  0.3598 -4.3595  0.2586
  455MOL0     H61377   2.528   6.935   7.541  2.1068  3.5039 -2.4746
  455MOL0     H61378   2.372   7.019   7.511  2.1919  1.0650 -1.6089
  455MOL0     H61379   2.509   7.199   7.553 -3.8592  3.5173  1.3296
  455MOL0     H61380   2.589   7.108   7.680  0.1650 -2.3738 -0.5095
  455MOL0     H61381   2.460   7.283   7.771  0.3070 -0.3292 -1.5441
  455MOL0     H61382   2.368   7.132   7.815  1.4438  0.3974  0.5127
  455MOL0     H61383   2.205   7.315   7.731  1.4446  2.2478  0.9428
  455MOL0     H61384   2.204   7.200   7.609 -0.8340  0.8057  0.1993
  455MOL0     H61385   2.327   7.470   7.832  0.7493  0.9142  0.7604
  455MOL0     H61386   2.373   7.790   7.977  0.8237  1.9131 -2.0427
  455MOL0     H61387   2.387   7.618   8.014  0.8647 -0.7352  0.8072
  455MOL0     H61388   2.527   7.717   7.980 -0.0770  2.1081 -2.9258
  455MOL0     H61389   2.880   7.958   7.753 -2.4855 -2.6110 -1.8524
  455MOL0     H61390   2.978   8.206   7.742 -1.1898  0.0064  3.4444
  455MOL0     H61391   2.931   8.460   7.739  0.3241  0.0311  0.1004
  455MOL0     H61392   3.044   8.428   7.619 -0.7098 -1.5629  2.5005
  455MOL0     H61393   2.935   8.580   7.455 -5.0177 -2.1611 -1.9702
  455MOL0     H61394   2.806   8.611   7.563  0.2236  3.6840 -0.4312
  455MOL0     H61395   3.073   8.714   7.661  0.1011  2.6641 -0.3625
  455MOL0     H61396   2.916   8.717   7.731  1.9185 -3.2678  0.9082
  455MOL0     H61397   2.988   8.846   7.468 -2.7936  1.4155 -1.4040
  455MOL0     H61398   2.837   8.869   7.563 -1.6704 -1.8934 -1.4622
  455MOL0     H61399   3.131   8.971   7.602  0.1225 -0.6725 -1.1363
  455MOL0     H61400   2.997   8.969   7.730 -0.5480  0.0281 -0.7943
  455MOL0     H61401   2.861   9.119   7.609 -0.6905  0.5771 -2.9337
  455MOL0     H61402   3.024   9.188   7.621 -2.3547  2.7556 -2.0341
  455MOL0     H61403   2.895   9.073   7.360  1.4068 -1.0268 -2.2443
  455MOL0     H61404   3.067   9.078   7.395 -0.6431 -1.5585 -0.1727
  455MOL0     H61405   2.876   9.310   7.440 -0.3376  2.1068 -0.8441
  455MOL0     H61406   2.961   9.278   7.281  1.7464 -0.7421  0.4965
  455MOL0     H61407   2.690   8.282   7.438  4.2156  1.0000 -1.4397
  455MOL0     H61408   2.592   8.047   7.471  1.1869 -1.9113  1.3117
  455MOL0     H61409   2.519   7.746   7.478  3.0087  0.6837  1.7592
  455MOL0     H61410   2.433   7.538   7.418 -0.4352 -1.5126 -0.5219
  455MOL0     H61411   2.560   5.761   8.139 -0.4337  0.1284  3.5914
  455MOL0     H61412   2.554   5.536   8.141  0.1928  1.7509 -2.2906
  455MOL0     H61413   2.968   5.119   8.415 -1.9424  1.6060  0.3655
  455MOL0     H61414   3.017   4.896   8.365 -0.8820 -2.2750  0.5956
  455MOL0     H61415   2.798   4.717   7.980 -0.5862 -1.0510 -0.4833
  455MOL0     H61416   2.946   4.816   7.962  0.9354  0.3664  0.5701
  455MOL0     H61417   3.088   4.622   8.040 -1.4123 -1.6580  1.2690
  455MOL0     H61418   2.992   4.599   7.886 -0.7831  2.6798 -1.1406
  455MOL0     H61419   2.849   4.441   7.996  0.4953 -0.1345 -0.3493
  455MOL0     H61420   2.883   4.507   8.155  0.8677  5.5357 -2.0266
  455MOL0     H61421   3.135   4.398   8.109 -0.1278  0.6430  0.9993
  455MOL0     H61422   3.062   4.328   7.964 -3.2164  1.1371 -1.3808
  455MOL0     H61423   2.932   4.076   8.277  0.7144 -1.6249 -1.4637
  455MOL0     H61424   2.730   4.939   8.027  4.4014 -1.4548 -2.7022
  455MOL0     H61425   2.673   5.160   8.124 -2.4265  0.2957  4.2042
  456MOL0     O61426   3.067   3.257   1.412  0.0130  0.0392  0.4112
  456MOL0     C61427   2.995   3.178   1.356  0.3766  0.9222 -0.4115
  456MOL0     O61428   2.920   3.194   1.250  0.0333  1.0365 -0.3696
  456MOL0     C61429   2.944   3.296   1.160 -0.2051 -0.2141 -0.0245
  456MOL0     C61430   2.960   3.428   1.207  0.3055  0.3779  0.1097
  456MOL0     C61431   2.974   3.534   1.109 -0.1239  0.2431  0.0429
  456MOL0     C61432   2.957   3.509   0.974 -0.7073 -0.1154  0.2782
  456MOL0     O61433   2.956   3.604   0.879  0.8054  0.6132  0.4179
  456MOL0     C61434   3.002   3.728   0.914  0.9884 -0.0559  0.1229
  456MOL0     C61435   3.011   3.831   0.793  0.3537  0.2717 -0.2773
  456MOL0     C61436   3.050   3.980   0.824  0.3355  0.0267 -0.3347
  456MOL0     C61437   3.129   4.040   0.707 -0.5025  0.4195  0.3710
  456MOL0     C61438   3.163   4.186   0.721 -0.3351 -0.0737 -0.5717
  456MOL0     C61439   3.036   4.262   0.760 -0.7826 -0.0115 -0.8485
  456MOL0     C61440   3.064   4.410   0.745 -0.4175 -0.8472 -0.7881
  456MOL0     C61441   2.944   4.487   0.798  0.9498  0.5239  0.2012
  456MOL0     N61442   2.987   4.624   0.808  0.1453 -0.5588  0.6656
  456MOL0     C61443   3.020   4.702   0.922 -0.0550 -0.0560 -0.4121
  456MOL0     C61444   3.050   4.816   0.863  0.5686 -0.4749  0.3127
  456MOL0     C61445   3.082   4.936   0.951  0.2350  0.4600  0.1349
  456MOL0     C61446   3.188   5.020   0.885  0.2658 -0.2333 -0.1318
  456MOL0     C61447   3.258   5.090   1.005 -0.6974 -0.7362  0.2349
  456MOL0     C61448   3.188   5.211   1.067 -0.5058 -0.5822 -0.5674
  456MOL0     O61449   3.178   5.313   0.961 -0.2937  0.5117  0.2598
  456MOL0     C61450   3.198   5.442   1.006  0.9529 -0.5589 -0.5963
  456MOL0     C61451   3.272   5.525   0.926  0.4081 -1.0449  1.3572
  456MOL0     C61452   3.282   5.666   0.946  1.2173  0.4173 -1.0922
  456MOL0     C61453   3.381   5.750   0.876 -0.1667  0.5377  0.2983
  456MOL0     C61454   3.215   5.726   1.056 -0.3983 -0.1177 -0.2284
  456MOL0     C61455   3.207   5.870   1.081  0.0760  0.3037  0.9699
  456MOL0     O61456   3.218   5.966   0.994  1.1150  0.5553 -0.0772
  456MOL0     C61457   3.254   6.087   1.028 -0.4058 -0.0975  0.2359
  456MOL0     C61458   3.173   6.170   1.105  0.2626 -0.3836 -0.5094
  456MOL0     C61459   3.213   6.297   1.141 -1.0725  0.2489  1.0719
  456MOL0     C61460   3.330   6.342   1.092 -1.0787 -0.2255 -0.1785
  456MOL0     O61461   3.355   6.468   1.128  0.4738 -0.6410 -0.3013
  456MOL0     C61462   3.482   6.497   1.181 -0.1273  0.1234  1.4830
  456MOL0     C61463   3.500   6.620   1.269  0.1741 -1.0948  0.2757
  456MOL0     C61464   3.436   6.597   1.406 -0.1711  0.0441 -1.1906
  456MOL0     C61465   3.432   6.737   1.483 -0.1637  0.4295 -0.2881
  456MOL0     C61466   3.560   6.788   1.557 -1.0952 -0.2945 -0.1829
  456MOL0     C61467   3.626   6.665   1.628 -1.2968  0.1606 -0.0297
  456MOL0     C61468   3.743   6.705   1.731 -0.1241 -0.2741 -0.4863
  456MOL0     C61469   3.865   6.764   1.662  0.9903  0.3525  0.4329
  456MOL0    Cl61470   3.980   6.613   1.622 -0.2138  0.0185 -0.2346
  456MOL0     C61471   3.419   6.258   1.014  0.2743 -0.6798  0.3427
  456MOL0     C61472   3.380   6.126   0.979  0.1462 -0.2352 -0.1791
  456MOL0     O61473   3.195   5.891   1.199  0.2578  0.6726 -0.1812
  456MOL0     C61474   3.146   5.637   1.139 -0.1695 -0.8985 -0.7387
  456MOL0     C61475   3.136   5.505   1.114  0.8253  0.5996  0.1464
  456MOL0     N61476   3.030   4.811   0.722 -0.4344 -0.0259 -1.2686
  456MOL0     N61477   2.980   4.699   0.696  0.2506 -0.7516  0.8649
  456MOL0     C61478   2.925   3.386   0.930  0.3123 -0.4073  0.8149
  456MOL0     C61479   2.920   3.281   1.025 -0.5269  0.3350 -0.4860
  456MOL0     C61480   3.002   3.044   1.407  0.4773  0.6183  0.0254
  456MOL0     C61481   2.916   2.946   1.357 -0.4390  0.2510 -0.0993
  456MOL0     C61482   2.905   2.816   1.405  1.0403  0.5404  0.2280
  456MOL0     C61483   2.983   2.773   1.513 -0.9207  0.4874  0.6996
  456MOL0     O61484   2.980   2.645   1.571 -0.4609 -0.1547 -0.7671
  456MOL0     C61485   2.894   2.537   1.530  0.4405  0.4688  0.0250
  456MOL0     C61486   2.770   2.518   1.626 -0.3293  0.5487  0.6954
  456MOL0     C61487   2.679   2.395   1.586 -0.0577  0.5319  0.2447
  456MOL0     C61488   2.546   2.396   1.672 -0.3274 -0.0074  0.2352
  456MOL0     C61489   2.581   2.379   1.815  0.8044  0.1849 -0.1333
  456MOL0     C61490   2.580   2.352   1.928  0.0911  0.0493 -0.1305
  456MOL0     C61491   3.074   2.862   1.573 -0.3294  0.1570  0.0065
  456MOL0     C61492   3.090   2.993   1.513  0.4773  0.6729  0.2686
  456MOL0     H61493   2.985   3.454   1.309 -1.8180  0.2664  0.6995
  456MOL0     H61494   2.995   3.635   1.142  0.1355  0.7938 -1.7107
  456MOL0     H61495   2.947   3.770   0.998 -0.1831  1.4069 -1.3107
  456MOL0     H61496   3.105   3.719   0.950  0.8697 -0.6518  0.3220
  456MOL0     H61497   3.095   3.789   0.735  1.2074 -4.4090  3.6514
  456MOL0     H61498   2.921   3.817   0.732  1.1525 -1.1180 -1.2008
  456MOL0     H61499   2.954   4.029   0.843  0.0802  0.2035 -1.9930
  456MOL0     H61500   3.101   3.973   0.921  0.7420  0.5629 -0.5026
  456MOL0     H61501   3.225   3.990   0.691 -0.5123  0.8397 -1.2538
  456MOL0     H61502   3.080   4.031   0.609  4.8538 -4.5295 -2.4609
  456MOL0     H61503   3.235   4.206   0.801 -1.9576  0.8761  0.7106
  456MOL0     H61504   3.219   4.224   0.634 -1.8981 -0.6481 -1.8790
  456MOL0     H61505   2.960   4.223   0.691 -1.4917 -0.6110  0.2555
  456MOL0     H61506   3.002   4.235   0.860  2.8033 -0.7449  0.3120
  456MOL0     H61507   3.150   4.419   0.812 -1.2617 -2.1677  0.5439
  456MOL0     H61508   3.083   4.432   0.639 -2.7955  2.7450 -0.6251
  456MOL0     H61509   2.918   4.459   0.900 -0.7783  0.4490 -0.2393
  456MOL0     H61510   2.859   4.484   0.729  2.5024  0.1923 -1.7909
  456MOL0     H61511   3.020   4.677   1.027 -2.2473 -1.2189 -0.6359
  456MOL0     H61512   2.994   5.001   0.952 -1.6514 -1.9280 -0.2694
  456MOL0     H61513   3.108   4.907   1.053 -0.3485  1.7155  0.6569
  456MOL0     H61514   3.146   5.093   0.815  1.3164  1.3937  0.8519
  456MOL0     H61515   3.256   4.949   0.836  0.6711 -0.5595  0.8879
  456MOL0     H61516   3.356   5.131   0.978  0.2492 -1.5150  2.3045
  456MOL0     H61517   3.279   5.017   1.083  0.0813  0.7622  1.4714
  456MOL0     H61518   3.245   5.259   1.147 -0.6093  0.1987 -0.9467
  456MOL0     H61519   3.089   5.185   1.106 -1.8020  0.6410 -2.8159
  456MOL0     H61520   3.331   5.468   0.856  1.9384  2.2790 -0.2765
  456MOL0     H61521   3.335   5.837   0.828  0.2466  0.2658 -0.6100
  456MOL0     H61522   3.464   5.768   0.945 -0.2535 -0.6919  0.7459
  456MOL0     H61523   3.417   5.697   0.787 -0.5856 -0.3924  0.6634
  456MOL0     H61524   3.075   6.147   1.146  0.2908  2.4737  1.4353
  456MOL0     H61525   3.145   6.362   1.195  0.1959  0.5340  2.4096
  456MOL0     H61526   3.529   6.415   1.236  0.8976  0.0540  0.5551
  456MOL0     H61527   3.546   6.513   1.093 -4.6479 -0.7078 -2.3797
  456MOL0     H61528   3.606   6.647   1.272 -0.2982  2.0686 -3.3744
  456MOL0     H61529   3.452   6.710   1.230 -3.5380 -2.4870  1.2260
  456MOL0     H61530   3.501   6.526   1.458  2.1369  1.8014 -1.5183
  456MOL0     H61531   3.336   6.555   1.398 -0.5232 -0.2402  2.8540
  456MOL0     H61532   3.392   6.812   1.413 -0.2247 -0.6794 -1.4714
  456MOL0     H61533   3.355   6.706   1.555 -0.0794 -1.6501 -1.0352
  456MOL0     H61534   3.530   6.864   1.630  1.4990  1.0747 -0.4448
  456MOL0     H61535   3.628   6.839   1.489 -0.4592  1.7875  1.9081
  456MOL0     H61536   3.552   6.612   1.689 -0.6107 -0.6356  0.1245
  456MOL0     H61537   3.675   6.603   1.553  0.7189  2.5653 -0.8710
  456MOL0     H61538   3.768   6.621   1.796 -0.2296 -0.0449 -0.1456
  456MOL0     H61539   3.711   6.787   1.797 -1.1908 -1.2185  0.2084
  456MOL0     H61540   3.913   6.841   1.722 -0.7964 -0.1724  2.6887
  456MOL0     H61541   3.838   6.816   1.570 -1.5509  5.8216  3.7838
  456MOL0     H61542   3.512   6.302   0.978  1.0505 -2.0569  0.5673
  456MOL0     H61543   3.438   6.070   0.907 -1.7191 -0.3285 -1.6780
  456MOL0     H61544   3.098   5.670   1.230  1.1545  0.3596 -0.4553
  456MOL0     H61545   3.074   5.442   1.177 -0.2817  0.8502 -0.6589
  456MOL0     H61546   2.897   3.390   0.825  1.3565  1.4960  0.5632
  456MOL0     H61547   2.909   3.175   1.002  3.3368 -0.6599  1.3253
  456MOL0     H61548   2.857   2.968   1.268  0.4589  0.8264 -0.5622
  456MOL0     H61549   2.853   2.736   1.353  0.8888 -2.3054  4.2133
  456MOL0     H61550   2.863   2.543   1.425 -2.1896 -1.2909  0.5965
  456MOL0     H61551   2.945   2.440   1.539 -0.6465 -0.0822  0.4101
  456MOL0     H61552   2.712   2.609   1.606  2.3644  1.9444 -1.5921
  456MOL0     H61553   2.801   2.513   1.730  0.8471  1.2147  0.4043
  456MOL0     H61554   2.730   2.300   1.605 -1.5666 -0.3127  0.2396
  456MOL0     H61555   2.639   2.389   1.484 -1.5642 -0.1577  0.8410
  456MOL0     H61556   2.484   2.313   1.636  2.9366 -2.3306 -0.4938
  456MOL0     H61557   2.485   2.484   1.650 -1.7785 -1.2921 -1.0838
  456MOL0     H61558   2.573   2.326   2.032  3.0171 -0.8950 -0.0897
  456MOL0     H61559   3.129   2.830   1.661 -1.0118 -1.2340 -0.0327
  456MOL0     H61560   3.168   3.061   1.547  1.9460 -0.8091  0.0377
  457MOL0     O61561   1.908   4.192   3.322  0.0713  0.5580 -0.3493
  457MOL0     C61562   1.786   4.190   3.292  0.2329  0.2609 -0.7884
  457MOL0     O61563   1.718   4.283   3.223 -0.2787  0.1662 -0.2621
  457MOL0     C61564   1.788   4.394   3.191  0.5333  0.4482 -0.6230
  457MOL0     C61565   1.845   4.484   3.283 -0.8062 -1.4578  0.4187
  457MOL0     C61566   1.922   4.590   3.227  0.8573 -0.7727  0.2645
  457MOL0     C61567   1.929   4.597   3.083  1.0449 -0.3211 -0.5407
  457MOL0     O61568   1.996   4.695   3.018  0.0602  0.1187 -0.3902
  457MOL0     C61569   2.122   4.736   3.076  0.2125  0.1109 -0.3278
  457MOL0     C61570   2.197   4.826   2.981  1.0730  0.2288  0.5459
  457MOL0     C61571   2.255   4.750   2.862  0.1935  0.9539  0.4265
  457MOL0     C61572   2.268   4.853   2.745  0.0476 -0.4714  0.8406
  457MOL0     C61573   2.315   4.788   2.619  0.3539 -0.0813  0.5636
  457MOL0     C61574   2.224   4.679   2.568  0.2231  0.7782  0.2598
  457MOL0     C61575   2.255   4.665   2.416  0.2217  1.1876  0.7985
  457MOL0     C61576   2.188   4.530   2.369 -0.0337 -0.2627 -0.5541
  457MOL0     N61577   2.256   4.405   2.390 -0.0844  0.2575 -0.2153
  457MOL0     C61578   2.219   4.319   2.493  0.7751 -0.3157 -0.4901
  457MOL0     C61579   2.319   4.223   2.516 -0.7944  0.7300  0.6996
  457MOL0     C61580   2.330   4.109   2.612  0.3808 -0.2394 -0.7037
  457MOL0     C61581   2.475   4.082   2.657  0.4794 -0.5628  0.6272
  457MOL0     C61582   2.489   3.948   2.726  0.9146  0.0650  0.1448
  457MOL0     C61583   2.635   3.927   2.781 -0.3759  0.2166 -0.4671
  457MOL0     O61584   2.621   3.819   2.876 -0.4741  0.3211 -0.6664
  457MOL0     C61585   2.734   3.795   2.961 -0.3858  0.1314 -0.0091
  457MOL0     C61586   2.711   3.709   3.072  0.1625 -0.4580  1.1286
  457MOL0     C61587   2.817   3.650   3.133  0.3748 -0.7154 -0.0219
  457MOL0     C61588   2.772   3.586   3.266  0.5205  0.0150  0.0231
  457MOL0     C61589   2.950   3.675   3.096  0.4085 -0.3183  0.4055
  457MOL0     C61590   3.078   3.632   3.152  0.6003 -0.3038  0.2370
  457MOL0     O61591   3.198   3.694   3.121  0.1008  0.2864 -0.3098
  457MOL0     C61592   3.316   3.634   3.142 -0.2951 -0.7306  0.5951
  457MOL0     C61593   3.401   3.681   3.240  0.2077 -0.3598  0.3496
  457MOL0     C61594   3.524   3.627   3.265 -0.4711  0.1809  0.0594
  457MOL0     C61595   3.566   3.506   3.196 -0.2002  0.7609  0.5203
  457MOL0     O61596   3.700   3.465   3.183 -0.9933 -0.1122  0.4965
  457MOL0     C61597   3.787   3.517   3.289 -0.9688  0.2354 -0.4578
  457MOL0     C61598   3.918   3.432   3.300  0.1527  0.5869  0.1347
  457MOL0     C61599   3.981   3.416   3.440  0.2797  0.2928  0.8473
  457MOL0     C61600   3.986   3.549   3.515 -0.2006  0.5048 -0.4972
  457MOL0     C61601   4.045   3.514   3.650  0.1919 -0.5540 -0.6555
  457MOL0     C61602   4.013   3.621   3.748 -0.3753 -0.2348 -0.1664
  457MOL0     C61603   4.069   3.762   3.715  0.2553  0.3314 -0.2210
  457MOL0     C61604   4.056   3.863   3.830  0.2791  0.6075 -0.0078
  457MOL0    Cl61605   4.170   3.820   3.974  0.2541  0.4347 -0.1886
  457MOL0     C61606   3.477   3.456   3.096  0.9872 -0.6568  0.2700
  457MOL0     C61607   3.351   3.526   3.071  0.1123  0.8013 -0.7343
  457MOL0     O61608   3.077   3.536   3.225 -0.3041  0.2091  0.0217
  457MOL0     C61609   2.970   3.759   2.989  0.6429 -0.1851 -0.4106
  457MOL0     C61610   2.865   3.808   2.917  0.0178  1.1876  1.7699
  457MOL0     N61611   2.420   4.262   2.417 -0.3139 -0.3747 -0.4077
  457MOL0     N61612   2.388   4.373   2.356 -0.2514 -0.0797 -0.1692
  457MOL0     C61613   1.871   4.499   2.998 -0.1400  0.1223 -0.6298
  457MOL0     C61614   1.798   4.401   3.057 -0.2977 -0.6901  0.6778
  457MOL0     C61615   1.698   4.077   3.345  0.7846  0.5441 -0.0109
  457MOL0     C61616   1.749   3.968   3.417  0.1374  0.8882  0.2030
  457MOL0     C61617   1.673   3.854   3.452  0.3877 -1.0301 -0.8168
  457MOL0     C61618   1.542   3.856   3.416 -0.6932 -0.6248 -0.1830
  457MOL0     O61619   1.468   3.753   3.449  0.1431 -1.0485  0.2028
  457MOL0     C61620   1.503   3.626   3.391 -0.3698  0.4951 -0.0294
  457MOL0     C61621   1.395   3.517   3.403  0.3511 -0.0323  0.8384
  457MOL0     C61622   1.346   3.485   3.548 -0.7456 -0.0013  0.1421
  457MOL0     C61623   1.250   3.370   3.549 -0.4802 -0.0033 -0.1686
  457MOL0     C61624   1.243   3.334   3.686 -0.7355  0.5375  0.0865
  457MOL0     C61625   1.233   3.315   3.800 -0.7777 -1.0345  0.1989
  457MOL0     C61626   1.481   3.957   3.340 -0.2613 -0.6118  0.0802
  457MOL0     C61627   1.555   4.079   3.308  0.1511 -1.1457  0.7237
  457MOL0     H61628   1.824   4.475   3.389 -0.4292 -0.8103  0.5534
  457MOL0     H61629   1.965   4.673   3.282 -1.1301  1.3662 -1.2742
  457MOL0     H61630   2.099   4.780   3.174 -0.3632 -2.0573  0.5752
  457MOL0     H61631   2.176   4.647   3.107  1.5274  1.6237  2.0440
  457MOL0     H61632   2.132   4.909   2.952 -0.3964 -0.0807  2.6997
  457MOL0     H61633   2.265   4.875   3.050 -0.7146  0.2334  2.3798
  457MOL0     H61634   2.358   4.715   2.873 -0.4179 -1.6269 -1.1157
  457MOL0     H61635   2.191   4.662   2.848  1.3311  0.4031 -1.8480
  457MOL0     H61636   2.178   4.912   2.729  1.3584  1.0222 -1.5559
  457MOL0     H61637   2.346   4.921   2.779 -0.9835  0.6570  0.9843
  457MOL0     H61638   2.308   4.858   2.534 -1.2376 -1.1089 -0.2072
  457MOL0     H61639   2.416   4.747   2.632 -0.6372 -2.9844 -0.0796
  457MOL0     H61640   2.241   4.589   2.628 -2.0873  1.0351  1.4147
  457MOL0     H61641   2.117   4.697   2.585 -1.6781 -2.0751 -5.8838
  457MOL0     H61642   2.214   4.744   2.352 -0.0121 -0.0506 -0.6414
  457MOL0     H61643   2.362   4.656   2.394 -0.3587 -2.5623 -1.3524
  457MOL0     H61644   2.181   4.540   2.261 -2.1987 -0.7035 -0.4978
  457MOL0     H61645   2.096   4.526   2.428 -0.0444 -1.5148 -0.6251
  457MOL0     H61646   2.131   4.312   2.556  0.9903 -1.7524 -0.3079
  457MOL0     H61647   2.267   4.133   2.698  0.1276  0.1858 -1.0042
  457MOL0     H61648   2.287   4.023   2.560 -0.3757  0.0386 -0.5506
  457MOL0     H61649   2.504   4.158   2.730  0.6885  0.2639 -0.2866
  457MOL0     H61650   2.544   4.081   2.572 -0.6257 -3.2530 -0.3471
  457MOL0     H61651   2.459   3.862   2.665 -0.4209  0.3437  0.3694
  457MOL0     H61652   2.427   3.951   2.817 -2.0228 -2.2721 -1.5989
  457MOL0     H61653   2.680   4.004   2.844  0.3121  0.5941 -1.4161
  457MOL0     H61654   2.705   3.913   2.698  1.2945 -1.9086  1.1830
  457MOL0     H61655   2.607   3.714   3.102 -1.0537  0.8572 -2.7037
  457MOL0     H61656   2.674   3.625   3.296 -0.0187 -1.7292  0.6293
  457MOL0     H61657   2.770   3.477   3.267 -0.9046 -0.0079  2.6966
  457MOL0     H61658   2.844   3.624   3.340 -1.9685  2.0740  1.5453
  457MOL0     H61659   3.371   3.771   3.293  1.6448  0.0892  0.4355
  457MOL0     H61660   3.589   3.674   3.338 -1.2872  0.1956  0.7988
  457MOL0     H61661   3.810   3.624   3.281  0.9152  0.0733  1.7436
  457MOL0     H61662   3.735   3.487   3.380  1.0116 -3.3283 -0.3258
  457MOL0     H61663   3.912   3.336   3.249 -0.1667  0.0525  1.1391
  457MOL0     H61664   3.993   3.485   3.241  0.1173  0.4051 -0.0720
  457MOL0     H61665   4.084   3.384   3.425  1.6073  3.6347  1.9077
  457MOL0     H61666   3.930   3.332   3.490 -1.4131  1.4752  1.1881
  457MOL0     H61667   4.051   3.616   3.459  0.3983 -1.7511 -2.6733
  457MOL0     H61668   3.890   3.599   3.533 -0.3007 -0.0010  0.4457
  457MOL0     H61669   4.152   3.496   3.638  0.3966 -0.9988  1.4223
  457MOL0     H61670   3.998   3.424   3.690  0.7480 -0.8174 -0.5797
  457MOL0     H61671   3.903   3.618   3.746 -0.3737 -2.4597  0.1856
  457MOL0     H61672   4.054   3.581   3.841 -0.4263 -0.5008 -0.2596
  457MOL0     H61673   4.005   3.803   3.637 -2.7666 -1.3455  1.1847
  457MOL0     H61674   4.175   3.753   3.692  0.0707  1.1293 -1.5078
  457MOL0     H61675   3.950   3.864   3.859  0.0610 -0.5411 -0.6781
  457MOL0     H61676   4.072   3.960   3.783 -0.2015  0.0890 -1.3227
  457MOL0     H61677   3.507   3.377   3.029 -1.8042 -1.3604 -0.2955
  457MOL0     H61678   3.283   3.486   2.996  0.7371 -1.3361 -0.2516
  457MOL0     H61679   3.066   3.787   2.947  1.3910 -0.8416  0.7934
  457MOL0     H61680   2.879   3.867   2.828 -1.2810  0.3484  0.9732
  457MOL0     H61681   1.876   4.520   2.891  3.3699  2.0551 -0.2388
  457MOL0     H61682   1.747   4.323   3.002 -1.4570 -0.4946  1.4229
  457MOL0     H61683   1.853   3.960   3.448  0.1044 -0.9965 -0.0520
  457MOL0     H61684   1.707   3.763   3.500  1.2702 -0.5198 -0.4457
  457MOL0     H61685   1.539   3.633   3.287  0.8799  0.5239  0.3870
  457MOL0     H61686   1.583   3.585   3.453  0.8630 -0.0180 -1.8812
  457MOL0     H61687   1.427   3.425   3.353  0.6041 -0.1999  1.2990
  457MOL0     H61688   1.312   3.553   3.342  0.2490  0.8159  1.4624
  457MOL0     H61689   1.293   3.576   3.575 -1.7454 -0.1634 -1.2003
  457MOL0     H61690   1.427   3.470   3.620 -2.4466 -1.5873  1.8158
  457MOL0     H61691   1.301   3.290   3.495  0.9335 -2.0814  3.8486
  457MOL0     H61692   1.158   3.404   3.502 -0.0398  2.9675  0.8992
  457MOL0     H61693   1.248   3.271   3.897  0.6845 -0.6089  0.1980
  457MOL0     H61694   1.380   3.943   3.303  0.2329  0.0309 -1.6058
  457MOL0     H61695   1.516   4.151   3.237  2.1438 -0.6830  0.0294
  458MOL0     O61696   8.820  11.230   0.361  0.4844  0.1550 -0.0909
  458MOL0     C61697   8.792  11.348   0.384  0.3034  0.8056 -0.5619
  458MOL0     O61698   8.839  11.415   0.488 -0.3000  0.2094  0.2270
  458MOL0     C61699   8.937  11.375   0.581  1.8574  0.0572  0.1800
  458MOL0     C61700   8.949  11.450   0.706  0.1006  0.4883  0.0174
  458MOL0     C61701   9.034  11.398   0.813  1.0909 -0.0999  0.3529
  458MOL0     C61702   9.095  11.274   0.810  0.6512  0.6379  1.0435
  458MOL0     O61703   9.184  11.218   0.906 -0.7336 -0.3008 -0.4814
  458MOL0     C61704   9.195  11.299   1.030  0.0994  1.2436  1.7580
  458MOL0     C61705   9.266  11.217   1.137  0.4822  0.3374 -0.4243
  458MOL0     C61706   9.409  11.170   1.097 -0.4827  0.5326 -0.2729
  458MOL0     C61707   9.484  11.113   1.218  0.1529  0.3860 -1.0347
  458MOL0     C61708   9.597  11.015   1.188  0.9731  0.3422 -0.2445
  458MOL0     C61709   9.725  11.036   1.276 -0.5667 -0.8456  0.3736
  458MOL0     C61710   9.782  11.179   1.260  0.0775 -0.8186 -0.4153
  458MOL0     C61711   9.906  11.192   1.346 -0.2841  0.0486 -0.1700
  458MOL0     N61712   9.951  11.330   1.357  1.2978 -0.6654  0.1113
  458MOL0     C61713   9.995  11.418   1.257  0.4978 -0.6729  0.1766
  458MOL0     C61714  10.041  11.531   1.328  0.5495 -0.4681 -0.8669
  458MOL0     C61715  10.111  11.644   1.259  0.2235 -0.6292 -0.7080
  458MOL0     C61716  10.232  11.604   1.179 -0.6217  0.4528  0.1678
  458MOL0     C61717  10.366  11.596   1.261 -0.3601 -0.3366 -0.9582
  458MOL0     C61718  10.355  11.533   1.400 -0.4593 -0.0246  0.4388
  458MOL0     O61719  10.488  11.537   1.469  0.6362  0.5070 -0.2363
  458MOL0     C61720  10.507  11.434   1.560  1.0865  0.4247  0.5635
  458MOL0     C61721  10.624  11.366   1.550 -0.2017  0.3320  0.0342
  458MOL0     C61722  10.660  11.256   1.634  0.2901 -0.2254  0.2885
  458MOL0     C61723  10.786  11.180   1.607 -0.0350 -0.3361 -0.3500
  458MOL0     C61724  10.567  11.218   1.731 -0.6056  0.2946 -0.3799
  458MOL0     C61725  10.586  11.094   1.822 -0.4707  0.3926  0.2454
  458MOL0     O61726  10.507  11.109   1.936 -0.1306  0.1229  0.1642
  458MOL0     C61727  10.526  11.030   2.040 -0.2922 -0.6548  0.9630
  458MOL0     C61728  10.573  11.084   2.165 -0.7384 -0.4039  0.3552
  458MOL0     C61729  10.600  10.989   2.267  0.2140 -0.4343 -0.3203
  458MOL0     C61730  10.579  10.845   2.248 -0.4031 -0.0846  0.4630
  458MOL0     O61731  10.600  10.761   2.352 -0.6374  0.6296 -0.1220
  458MOL0     C61732  10.734  10.759   2.398 -0.0528  0.0713 -0.8448
  458MOL0     C61733  10.734  10.644   2.500  0.5510  0.8222  0.5476
  458MOL0     C61734  10.618  10.627   2.602 -0.3278 -0.1256 -0.7086
  458MOL0     C61735  10.674  10.575   2.748  0.6217  0.9247 -0.1886
  458MOL0     C61736  10.603  10.627   2.868 -0.4041 -0.1412  0.4929
  458MOL0     C61737  10.654  10.556   2.997 -0.2908  0.4531  0.0140
  458MOL0     C61738  10.624  10.408   3.013  0.0238  0.7223  0.9309
  458MOL0     C61739  10.677  10.343   3.134  0.3178  0.5198 -0.0665
  458MOL0    Cl61740  10.845  10.353   3.160 -0.0979 -0.3223 -0.6515
  458MOL0     C61741  10.517  10.808   2.134 -0.4519 -0.0450 -0.4081
  458MOL0     C61742  10.485  10.902   2.030  0.4042  0.7746  0.4826
  458MOL0     O61743  10.659  10.994   1.802 -0.0797  0.2663 -0.7148
  458MOL0     C61744  10.443  11.281   1.746  0.9318 -0.5445  0.2053
  458MOL0     C61745  10.411  11.383   1.655 -0.1406 -0.2550  0.6696
  458MOL0     N61746  10.032  11.509   1.463 -0.2407 -0.7796 -0.1332
  458MOL0     N61747   9.978  11.393   1.474  0.4968  0.3665 -0.4156
  458MOL0     C61748   9.079  11.207   0.688  0.3829  0.9124 -0.5516
  458MOL0     C61749   8.997  11.245   0.583  0.0166 -0.1447 -0.0187
  458MOL0     C61750   8.678  11.408   0.302 -1.4804  0.8877 -0.8477
  458MOL0     C61751   8.594  11.339   0.217  0.1919 -0.0633 -0.0628
  458MOL0     C61752   8.477  11.397   0.163 -1.1112  0.7156 -0.3975
  458MOL0     C61753   8.439  11.525   0.202 -0.4303 -0.0954  0.3871
  458MOL0     O61754   8.322  11.591   0.153  0.0374  0.2594  0.1219
  458MOL0     C61755   8.212  11.521   0.091 -0.1614 -0.3149  0.2251
  458MOL0     C61756   8.164  11.420   0.198 -0.2152 -0.6284 -0.3846
  458MOL0     C61757   8.130  11.470   0.340 -0.6728  0.1146  0.3887
  458MOL0     C61758   8.072  11.367   0.423  0.9795 -0.8346  0.0021
  458MOL0     C61759   8.014  11.432   0.541 -0.3670  0.9572  0.8507
  458MOL0     C61760   7.953  11.465   0.643 -0.1754 -0.8246 -0.0498
  458MOL0     C61761   8.528  11.595   0.281  0.2624  0.0577  1.3055
  458MOL0     C61762   8.644  11.540   0.332 -0.5168  0.0134  1.6473
  458MOL0     H61763   8.898  11.545   0.719 -1.3664 -0.1719 -0.7160
  458MOL0     H61764   9.044  11.461   0.901 -0.3221 -2.3534  2.2290
  458MOL0     H61765   9.240  11.396   1.006 -1.3404  1.0127 -3.0824
  458MOL0     H61766   9.096  11.329   1.068 -0.0587  0.4414  1.9989
  458MOL0     H61767   9.271  11.275   1.230  0.7065 -0.6520  0.1955
  458MOL0     H61768   9.208  11.126   1.152 -0.7640  1.0520 -0.7846
  458MOL0     H61769   9.390  11.093   1.022 -0.9166 -2.7234  2.9164
  458MOL0     H61770   9.473  11.252   1.064  0.6860  0.6374  2.0532
  458MOL0     H61771   9.510  11.202   1.276 -2.4117  1.6306 -1.6505
  458MOL0     H61772   9.413  11.052   1.275 -1.4413  1.4315 -1.8378
  458MOL0     H61773   9.572  10.909   1.179  1.3658  0.0368  1.8817
  458MOL0     H61774   9.642  11.051   1.095  2.7174  0.4311  0.5970
  458MOL0     H61775   9.706  11.012   1.381 -1.3961  1.7037  0.8809
  458MOL0     H61776   9.804  10.967   1.246  1.4647 -0.0218  3.3218
  458MOL0     H61777   9.811  11.203   1.157  2.2018 -2.0951 -0.1666
  458MOL0     H61778   9.712  11.255   1.295  2.4654  1.5115 -0.4420
  458MOL0     H61779   9.984  11.127   1.304  0.7128  0.6446  0.7089
  458MOL0     H61780   9.882  11.156   1.446 -2.9797 -0.1382 -0.7922
  458MOL0     H61781  10.004  11.385   1.153 -0.6255  0.5036 -0.3142
  458MOL0     H61782  10.035  11.685   1.192  1.7028  0.8122 -1.5736
  458MOL0     H61783  10.128  11.715   1.340  0.2793  0.1236 -1.3715
  458MOL0     H61784  10.231  11.682   1.102  1.6360  1.3047  0.8879
  458MOL0     H61785  10.226  11.503   1.139  0.6566  0.0916  0.8430
  458MOL0     H61786  10.404  11.699   1.271  2.8626 -1.5806  1.5203
  458MOL0     H61787  10.444  11.542   1.207  0.7053 -0.6479  0.7830
  458MOL0     H61788  10.324  11.431   1.377  1.3631 -0.4517 -0.2810
  458MOL0     H61789  10.280  11.583   1.461  0.0661 -2.0854  2.9448
  458MOL0     H61790  10.704  11.396   1.484 -0.1318 -1.4507 -0.7681
  458MOL0     H61791  10.768  11.085   1.556  3.7837 -3.3390  3.1044
  458MOL0     H61792  10.857  11.241   1.550 -0.2226  0.2815  0.0644
  458MOL0     H61793  10.823  11.153   1.707 -1.2517  1.5739  0.6824
  458MOL0     H61794  10.596  11.189   2.181 -0.1328 -0.2459 -1.4161
  458MOL0     H61795  10.618  11.028   2.366 -2.4930 -2.3031  1.0343
  458MOL0     H61796  10.803  10.720   2.323  0.9536 -2.1715  1.0989
  458MOL0     H61797  10.773  10.848   2.449 -0.2645  0.0599 -0.6604
  458MOL0     H61798  10.733  10.553   2.440  0.3825  1.2489 -0.1093
  458MOL0     H61799  10.823  10.652   2.562  1.2544 -0.5200 -0.2501
  458MOL0     H61800  10.537  10.559   2.574 -0.2369 -0.0176 -1.2315
  458MOL0     H61801  10.588  10.730   2.620  2.4047  0.5626  0.4119
  458MOL0     H61802  10.659  10.466   2.739  1.4128  0.9666 -3.0689
  458MOL0     H61803  10.779  10.600   2.762  0.7575  0.9884 -1.2363
  458MOL0     H61804  10.495  10.608   2.861 -0.0428 -2.8766  1.2726
  458MOL0     H61805  10.617  10.735   2.880 -0.4294 -0.1847  0.9036
  458MOL0     H61806  10.761  10.572   3.016 -0.2713 -0.7799  1.0497
  458MOL0     H61807  10.596  10.605   3.075 -2.9001 -2.2634 -0.0518
  458MOL0     H61808  10.657  10.360   2.921  0.9800  1.5881  0.8074
  458MOL0     H61809  10.516  10.393   3.018 -0.0048 -0.3592 -1.6111
  458MOL0     H61810  10.640  10.240   3.134  1.2274  0.1811  0.7581
  458MOL0     H61811  10.632  10.387   3.224 -1.4574  0.1605 -0.7303
  458MOL0     H61812  10.494  10.702   2.130  0.4542 -0.3256  1.1383
  458MOL0     H61813  10.436  10.861   1.942  3.4086 -0.6570 -0.6644
  458MOL0     H61814  10.376  11.249   1.825 -3.5369 -0.4003 -3.1447
  458MOL0     H61815  10.315  11.432   1.670  0.7546  1.1443  2.0772
  458MOL0     H61816   9.141  11.119   0.700 -0.3596  0.6967  2.3828
  458MOL0     H61817   9.002  11.175   0.500  1.5466  0.6986 -0.6855
  458MOL0     H61818   8.617  11.236   0.192 -2.5850 -1.6672  3.2356
  458MOL0     H61819   8.413  11.336   0.099  0.1364 -1.0398 -0.0119
  458MOL0     H61820   8.141  11.602   0.077  0.8535  0.5672  0.1182
  458MOL0     H61821   8.245  11.481  -0.006 -2.7181 -1.6270 -0.2120
  458MOL0     H61822   8.233  11.336   0.202 -1.2627 -1.4506  1.5166
  458MOL0     H61823   8.072  11.383   0.153 -1.0499  1.3354 -0.3915
  458MOL0     H61824   8.063  11.555   0.330  0.1826  0.9573  1.5405
  458MOL0     H61825   8.221  11.488   0.399 -0.0643  0.2108 -0.5540
  458MOL0     H61826   8.142  11.284   0.439 -0.7740 -3.1693 -3.3440
  458MOL0     H61827   7.992  11.322   0.364  0.2123 -0.3623  0.6608
  458MOL0     H61828   7.905  11.492   0.736  0.1116  1.0918 -0.4146
  458MOL0     H61829   8.495  11.694   0.313  0.8001  1.5397 -2.1800
  458MOL0     H61830   8.687  11.598   0.413  0.7581 -0.9330  1.6735
  459MOL0     O61831   4.550  10.066   5.658  0.5144  0.3953  0.6096
  459MOL0     C61832   4.607  10.048   5.550  0.4886  0.0345  0.6006
  459MOL0     O61833   4.622  10.141   5.448  0.5494  0.0786  0.3196
  459MOL0     C61834   4.581  10.271   5.471 -0.6328 -0.3625  0.6270
  459MOL0     C61835   4.528  10.335   5.357 -0.6369  0.0861  0.0317
  459MOL0     C61836   4.492  10.467   5.369 -0.3613  0.1800  0.6845
  459MOL0     C61837   4.498  10.535   5.488  0.0208  0.2958 -0.2375
  459MOL0     O61838   4.446  10.657   5.481  0.8393 -0.2516 -0.4540
  459MOL0     C61839   4.415  10.734   5.595 -0.5578 -0.2753 -0.0474
  459MOL0     C61840   4.373  10.875   5.559 -0.1659  0.1538  0.9651
  459MOL0     C61841   4.504  10.949   5.538  0.1815  0.9127  0.2203
  459MOL0     C61842   4.477  11.092   5.491 -0.9547 -0.5099  0.3917
  459MOL0     C61843   4.591  11.188   5.516  0.0560  0.6521  0.7403
  459MOL0     C61844   4.580  11.331   5.445  0.2972  0.5501  0.3428
  459MOL0     C61845   4.686  11.422   5.507 -0.1578 -0.0696 -0.3792
  459MOL0     C61846   4.685  11.563   5.440  0.1919  1.4072  0.3611
  459MOL0     N61847   4.744  11.556   5.306 -0.5426  0.4282  0.6178
  459MOL0     C61848   4.699  11.609   5.184  0.5712  0.3266  0.0910
  459MOL0     C61849   4.794  11.590   5.092 -0.7075  0.1606  0.7142
  459MOL0     C61850   4.787  11.640   4.949 -0.0593  0.4795  0.1117
  459MOL0     C61851   4.779  11.792   4.935  0.4066  0.4831  0.5769
  459MOL0     C61852   4.808  11.842   4.795 -0.1488 -0.3126 -0.0025
  459MOL0     C61853   4.949  11.860   4.779 -0.6253  0.5885 -0.6133
  459MOL0     O61854   4.972  11.913   4.647  1.1560 -0.1250  0.2322
  459MOL0     C61855   4.988  11.818   4.545 -0.2364  1.4278 -0.7070
  459MOL0     C61856   5.102  11.734   4.553  0.5522 -0.2553 -0.1941
  459MOL0     C61857   5.120  11.627   4.459 -0.4922  0.2291 -0.4012
  459MOL0     C61858   5.241  11.533   4.485  0.0313 -0.2586 -0.6775
  459MOL0     C61859   5.012  11.611   4.367  0.5808  0.5687 -0.3915
  459MOL0     C61860   4.992  11.481   4.290  0.3615 -0.0991  0.4175
  459MOL0     O61861   4.884  11.473   4.220  0.1094 -0.4989  0.2777
  459MOL0     C61862   4.871  11.372   4.128 -0.3781  0.7339  0.1467
  459MOL0     C61863   4.753  11.298   4.138 -0.6326  0.9098 -0.7198
  459MOL0     C61864   4.736  11.173   4.081 -0.3593 -0.4781 -0.5305
  459MOL0     C61865   4.825  11.123   3.986 -0.7818  0.1309  0.1968
  459MOL0     O61866   4.822  11.001   3.926 -0.8540  0.3744 -0.7261
  459MOL0     C61867   4.806  10.893   4.021  0.8825 -0.1873 -0.7170
  459MOL0     C61868   4.677  10.817   3.999  1.0639 -1.0935 -0.1126
  459MOL0     C61869   4.643  10.810   3.852  0.3605  0.4469 -0.0300
  459MOL0     C61870   4.566  10.684   3.809 -0.3102 -0.4821 -0.0056
  459MOL0     C61871   4.428  10.695   3.881  0.1103  0.2556  0.3536
  459MOL0     C61872   4.310  10.606   3.841  0.3377 -0.0468  0.2206
  459MOL0     C61873   4.333  10.458   3.852  0.1363 -1.1541 -0.3685
  459MOL0     C61874   4.188  10.397   3.873 -0.5218 -0.2289  0.6708
  459MOL0    Cl61875   4.136  10.434   4.039  0.2904 -0.0658  0.0166
  459MOL0     C61876   4.944  11.196   3.977  0.1853 -0.4979 -0.0502
  459MOL0     C61877   4.968  11.323   4.042 -0.2901  0.1374 -0.6976
  459MOL0     O61878   5.076  11.388   4.294 -0.0758  0.4653  0.0241
  459MOL0     C61879   4.898  11.704   4.360  0.4481  0.2519  0.0304
  459MOL0     C61880   4.884  11.807   4.456  0.1755 -0.8235  0.3783
  459MOL0     N61881   4.902  11.536   5.160 -0.6609  1.4367 -0.7407
  459MOL0     N61882   4.869  11.505   5.277 -0.6066  0.2612  0.6953
  459MOL0     C61883   4.558  10.481   5.602 -1.0120  0.1647  0.0357
  459MOL0     C61884   4.605  10.342   5.591  0.9056 -0.7739  0.2745
  459MOL0     C61885   4.625   9.902   5.509 -0.2569 -0.7059  0.3809
  459MOL0     C61886   4.526   9.806   5.533 -0.3340 -0.0557 -0.8670
  459MOL0     C61887   4.535   9.678   5.470 -0.2408 -0.4564 -1.2326
  459MOL0     C61888   4.646   9.636   5.405  0.6250  1.1608 -0.5324
  459MOL0     O61889   4.655   9.512   5.347 -0.0532  0.0307  0.1145
  459MOL0     C61890   4.769   9.459   5.268  0.2031 -1.0022 -0.6626
  459MOL0     C61891   4.744   9.315   5.235  1.2389  0.2231 -0.0876
  459MOL0     C61892   4.849   9.253   5.140  0.3689 -0.0235 -0.0040
  459MOL0     C61893   4.835   9.103   5.120 -0.1751  0.7248 -1.1369
  459MOL0     C61894   4.709   9.062   5.059  0.6055 -0.7152 -0.7745
  459MOL0     C61895   4.609   9.033   4.997  0.6350 -0.2621 -0.0457
  459MOL0     C61896   4.752   9.729   5.392 -0.0792 -0.2460  0.4847
  459MOL0     C61897   4.739   9.859   5.443 -0.5059 -0.6904  0.2784
  459MOL0     H61898   4.528  10.294   5.257  2.3764 -0.4979  0.1745
  459MOL0     H61899   4.438  10.524   5.294  1.9223  3.0958  1.1077
  459MOL0     H61900   4.339  10.680   5.652  1.1984 -2.2213  0.5824
  459MOL0     H61901   4.502  10.738   5.662  0.9321 -1.0408 -1.8410
  459MOL0     H61902   4.319  10.863   5.465  0.2995  3.8249  0.1021
  459MOL0     H61903   4.299  10.918   5.627 -1.2054 -2.2947  1.4906
  459MOL0     H61904   4.562  10.948   5.630  1.7822 -3.2841 -0.6241
  459MOL0     H61905   4.573  10.900   5.469  2.5102  3.7670  0.2956
  459MOL0     H61906   4.438  11.074   5.390 -0.1944 -0.6479  0.1199
  459MOL0     H61907   4.400  11.128   5.560  1.4846 -2.4760  4.5124
  459MOL0     H61908   4.608  11.212   5.622  1.2486  0.6574  0.5622
  459MOL0     H61909   4.682  11.137   5.482 -1.0592 -1.2626  0.4866
  459MOL0     H61910   4.592  11.313   5.338  1.1620 -1.1679  0.7037
  459MOL0     H61911   4.486  11.383   5.467 -0.4292 -0.4205 -0.4397
  459MOL0     H61912   4.683  11.435   5.615  2.7137  2.5771 -0.4560
  459MOL0     H61913   4.786  11.387   5.479  0.6022  0.3119  1.6680
  459MOL0     H61914   4.747  11.631   5.498  0.4365  2.5518 -1.1829
  459MOL0     H61915   4.586  11.606   5.424  0.0369  0.0139 -3.6449
  459MOL0     H61916   4.603  11.654   5.163 -1.4032 -3.8750 -1.1733
  459MOL0     H61917   4.875  11.595   4.903 -1.4319 -0.8734 -1.3063
  459MOL0     H61918   4.696  11.607   4.899  0.5299 -1.7140  0.3807
  459MOL0     H61919   4.844  11.840   5.009  2.6874 -2.3561  0.6145
  459MOL0     H61920   4.678  11.830   4.952  0.4933  1.3279 -0.6875
  459MOL0     H61921   4.755  11.936   4.779 -0.1131  0.0585  1.9025
  459MOL0     H61922   4.753  11.776   4.727 -0.4074 -0.6585  0.5381
  459MOL0     H61923   5.001  11.765   4.792 -0.7730  0.7070  1.1021
  459MOL0     H61924   4.992  11.926   4.856 -0.7434  0.2496 -0.2517
  459MOL0     H61925   5.183  11.747   4.624  4.0439 -3.1834 -3.2266
  459MOL0     H61926   5.286  11.503   4.390 -1.1031 -3.0943 -0.4121
  459MOL0     H61927   5.316  11.594   4.535  1.1612  1.2265 -3.8666
  459MOL0     H61928   5.216  11.445   4.546 -1.5635  2.3410  2.7478
  459MOL0     H61929   4.681  11.332   4.212  1.9532  0.8926  1.9924
  459MOL0     H61930   4.638  11.126   4.081 -3.0826  4.2048 -4.4276
  459MOL0     H61931   4.884  10.819   3.998 -1.2185 -2.3930 -1.1743
  459MOL0     H61932   4.811  10.908   4.129  0.7318 -1.3693 -0.5254
  459MOL0     H61933   4.676  10.722   4.052  0.8138 -0.8585  0.3185
  459MOL0     H61934   4.602  10.883   4.044  3.2513  0.7724  1.0294
  459MOL0     H61935   4.735  10.800   3.793 -1.4395  0.4746 -3.1055
  459MOL0     H61936   4.583  10.891   3.810  2.7218  1.0611 -2.5376
  459MOL0     H61937   4.540  10.679   3.703 -1.1907  3.6344 -0.1804
  459MOL0     H61938   4.616  10.590   3.834  2.6749  0.7221 -1.0515
  459MOL0     H61939   4.385  10.794   3.866 -0.5172 -0.1016 -0.2903
  459MOL0     H61940   4.448  10.683   3.988 -0.7848 -3.5002  0.2585
  459MOL0     H61941   4.228  10.626   3.911  1.3402  2.0279  0.8938
  459MOL0     H61942   4.298  10.622   3.734  1.3402 -0.6149  0.0102
  459MOL0     H61943   4.400  10.431   3.934 -1.7871 -1.1504  1.2955
  459MOL0     H61944   4.371  10.416   3.759 -1.9177 -0.6130 -1.5182
  459MOL0     H61945   4.193  10.288   3.863  0.1398 -0.0920 -0.7354
  459MOL0     H61946   4.120  10.442   3.800 -0.5393  2.4854  2.2312
  459MOL0     H61947   5.022  11.167   3.908  1.5121  2.0999  0.2317
  459MOL0     H61948   5.065  11.372   4.033 -0.5186  0.4546 -1.5822
  459MOL0     H61949   4.803  11.687   4.310 -0.6500 -1.5796  2.4915
  459MOL0     H61950   4.801  11.877   4.458 -1.4293 -2.5193 -1.4647
  459MOL0     H61951   4.574  10.547   5.686 -0.3690  2.0582 -1.5069
  459MOL0     H61952   4.642  10.293   5.681  2.7152  0.3382  0.1879
  459MOL0     H61953   4.440   9.848   5.583  0.8588  1.0655  0.3599
  459MOL0     H61954   4.447   9.614   5.475 -0.2509 -0.3617  0.8610
  459MOL0     H61955   4.771   9.522   5.178 -1.4977  2.9843  1.8308
  459MOL0     H61956   4.866   9.477   5.313 -0.0457  0.3655 -0.6288
  459MOL0     H61957   4.645   9.308   5.187  0.4272  1.4539  1.3234
  459MOL0     H61958   4.731   9.256   5.327 -0.9057 -0.2698 -0.6490
  459MOL0     H61959   4.948   9.293   5.163 -0.4507  1.0465  1.9422
  459MOL0     H61960   4.829   9.284   5.037  0.8123 -4.8420 -1.8236
  459MOL0     H61961   4.856   9.035   5.203  0.6918 -0.1924 -2.0757
  459MOL0     H61962   4.921   9.072   5.061  1.6826 -0.3232  1.8840
  459MOL0     H61963   4.523   9.018   4.934  0.3554 -1.5162  0.6046
  459MOL0     H61964   4.852   9.701   5.360 -0.5512 -0.9719 -0.4271
  459MOL0     H61965   4.820   9.928   5.420 -0.0387 -1.0797  0.7295
  460MOL0     O61966   4.286   7.776   2.576 -0.2022  0.3143  0.6889
  460MOL0     C61967   4.283   7.677   2.498 -0.0996 -0.7911 -0.6941
  460MOL0     O61968   4.348   7.674   2.384  0.0243 -0.0702  0.1633
  460MOL0     C61969   4.396   7.788   2.334 -0.1918 -0.1906  0.1072
  460MOL0     C61970   4.316   7.888   2.273  0.0023 -0.0821  0.3095
  460MOL0     C61971   4.378   8.007   2.223 -0.2578  0.3522 -0.5712
  460MOL0     C61972   4.517   8.024   2.232 -0.1004 -0.4943  0.3962
  460MOL0     O61973   4.557   8.150   2.188 -0.4438  0.5828 -0.9795
  460MOL0     C61974   4.698   8.156   2.166  0.0527  0.0312  0.3816
  460MOL0     C61975   4.742   8.275   2.071  0.1464  0.1669  0.0737
  460MOL0     C61976   4.680   8.259   1.936 -0.3316 -0.5068 -0.1998
  460MOL0     C61977   4.695   8.390   1.859 -0.5935  0.1650 -0.0275
  460MOL0     C61978   4.667   8.366   1.700 -0.1299  0.5684  0.8591
  460MOL0     C61979   4.687   8.496   1.617 -0.5680  1.1148  0.1871
  460MOL0     C61980   4.600   8.607   1.668  0.2228  0.2484  0.3367
  460MOL0     C61981   4.454   8.586   1.639  0.1379  0.0128  1.0091
  460MOL0     N61982   4.373   8.692   1.695  0.7613 -0.0023  1.2189
  460MOL0     C61983   4.301   8.785   1.618  0.2742 -0.2656 -0.8282
  460MOL0     C61984   4.256   8.883   1.703  0.3714  0.0417 -0.4200
  460MOL0     C61985   4.194   9.010   1.661 -0.1965  0.2456 -0.9123
  460MOL0     C61986   4.046   8.987   1.594  1.0738  0.1294 -0.2110
  460MOL0     C61987   3.970   8.862   1.646  1.3044 -0.7921 -0.0145
  460MOL0     C61988   3.900   8.884   1.782  0.2511 -1.1100 -1.1840
  460MOL0     O61989   3.804   8.788   1.803  0.0420  0.1396  0.1765
  460MOL0     C61990   3.849   8.670   1.870 -0.9189 -0.2699 -0.2682
  460MOL0     C61991   3.748   8.592   1.918  0.9267  0.0273  0.2344
  460MOL0     C61992   3.773   8.482   1.996 -0.6529 -0.3326 -0.3808
  460MOL0     C61993   3.662   8.422   2.085  0.7810  0.3325  0.1921
  460MOL0     C61994   3.908   8.433   2.013 -0.0166  0.3928  0.0054
  460MOL0     C61995   3.934   8.302   2.075 -0.0635 -0.4484 -0.3814
  460MOL0     O61996   3.849   8.197   2.057 -0.9237 -0.1977  0.2399
  460MOL0     C61997   3.871   8.075   2.111  0.4584 -0.5212 -0.4214
  460MOL0     C61998   3.837   8.060   2.242 -0.6151  0.2362 -0.6134
  460MOL0     C61999   3.845   7.931   2.295 -0.0644  0.1900 -0.8273
  460MOL0     C62000   3.905   7.825   2.239 -0.7788  0.4863  0.3512
  460MOL0     O62001   3.915   7.701   2.299 -0.0812 -0.2376 -0.9776
  460MOL0     C62002   3.872   7.590   2.214  0.8321  0.0312 -0.3184
  460MOL0     C62003   3.728   7.566   2.235 -0.2687  0.5513 -0.3172
  460MOL0     C62004   3.703   7.432   2.150  0.5033 -0.1754 -0.3737
  460MOL0     C62005   3.559   7.370   2.143  0.4868  0.0741  0.1981
  460MOL0     C62006   3.552   7.238   2.051  0.0536 -0.3753 -0.7456
  460MOL0     C62007   3.541   7.285   1.898 -0.1089 -0.3263 -0.2402
  460MOL0     C62008   3.584   7.181   1.804  0.6294  0.3898 -0.3950
  460MOL0     C62009   3.640   7.250   1.673  0.3071  0.8687 -0.1653
  460MOL0    Cl62010   3.696   7.115   1.562  0.6002  0.2305  0.0909
  460MOL0     C62011   3.960   7.847   2.107 -0.5378 -0.4156  0.5545
  460MOL0     C62012   3.926   7.973   2.041 -0.2509 -0.3356  0.2485
  460MOL0     O62013   4.032   8.295   2.149 -0.6066  0.4387 -1.1361
  460MOL0     C62014   4.008   8.512   1.965  0.6316  0.5293 -0.3758
  460MOL0     C62015   3.976   8.633   1.896 -1.0208  0.0071 -0.5337
  460MOL0     N62016   4.299   8.845   1.828  0.0883  0.4436  0.7735
  460MOL0     N62017   4.365   8.730   1.825 -1.1963  0.9703 -0.1335
  460MOL0     C62018   4.593   7.929   2.295 -0.0745  1.5365  0.3318
  460MOL0     C62019   4.535   7.808   2.338  0.8738 -0.4171 -0.4602
  460MOL0     C62020   4.204   7.560   2.536 -0.5933  0.0616 -0.4937
  460MOL0     C62021   4.136   7.550   2.662  0.6443 -0.9494  0.2982
  460MOL0     C62022   4.068   7.431   2.696  0.4036  0.3928  0.5240
  460MOL0     C62023   4.065   7.321   2.604 -0.2189 -0.7411  0.7800
  460MOL0     O62024   4.004   7.203   2.619  0.5099  0.0295  1.1083
  460MOL0     C62025   3.962   7.180   2.749  1.2871  0.0370  0.2823
  460MOL0     C62026   3.922   7.034   2.771 -0.2282 -0.0808 -1.0983
  460MOL0     C62027   3.828   7.039   2.892  0.8373  0.3764  0.0565
  460MOL0     C62028   3.776   6.888   2.919 -0.1753 -0.1013 -0.2949
  460MOL0     C62029   3.645   6.858   2.863  0.7926 -1.1241  0.1892
  460MOL0     C62030   3.531   6.857   2.822  0.9770 -0.8609  0.2234
  460MOL0     C62031   4.129   7.342   2.480  0.6040 -0.9934  0.4011
  460MOL0     C62032   4.200   7.458   2.444  0.4623  1.3712  0.4597
  460MOL0     H62033   4.211   7.872   2.252  0.3866 -1.9178 -0.3851
  460MOL0     H62034   4.311   8.079   2.176 -0.2927  0.2375 -0.6956
  460MOL0     H62035   4.758   8.160   2.257  0.6138 -2.9715  0.2276
  460MOL0     H62036   4.731   8.062   2.122  1.1320 -0.5186  2.2689
  460MOL0     H62037   4.710   8.375   2.103  1.2586  2.1660 -4.2767
  460MOL0     H62038   4.851   8.279   2.066  0.0863  0.2656 -2.0372
  460MOL0     H62039   4.721   8.172   1.883 -2.4730 -0.5420 -1.9650
  460MOL0     H62040   4.573   8.237   1.940 -0.0203 -2.7577 -2.0034
  460MOL0     H62041   4.624   8.464   1.898  1.4224  1.3990  1.4934
  460MOL0     H62042   4.797   8.430   1.863 -0.1265 -0.7623 -1.6842
  460MOL0     H62043   4.730   8.288   1.658 -0.2895  0.7457  0.2853
  460MOL0     H62044   4.563   8.331   1.698 -0.0757  0.4467 -0.2194
  460MOL0     H62045   4.792   8.528   1.622  0.4067 -0.9733 -3.3562
  460MOL0     H62046   4.652   8.479   1.515  0.2116 -1.7911  0.3174
  460MOL0     H62047   4.612   8.630   1.774  2.9354 -0.9248  0.3461
  460MOL0     H62048   4.633   8.696   1.615 -0.3132 -0.1010 -0.6076
  460MOL0     H62049   4.404   8.490   1.655  0.8776 -0.9709 -2.0816
  460MOL0     H62050   4.448   8.610   1.533  3.7356 -1.4328  0.3463
  460MOL0     H62051   4.282   8.799   1.512 -4.8151  1.3626  0.0245
  460MOL0     H62052   4.179   9.072   1.750  0.5653 -1.0005  0.1165
  460MOL0     H62053   4.263   9.067   1.598  0.4109  0.4105 -0.1039
  460MOL0     H62054   4.055   8.972   1.486 -0.3131 -0.0217 -0.3265
  460MOL0     H62055   3.989   9.080   1.603  2.1613  0.7152  0.8399
  460MOL0     H62056   4.028   8.770   1.646  0.3753 -1.4990  2.9233
  460MOL0     H62057   3.887   8.836   1.580 -1.3801  0.1701  2.7136
  460MOL0     H62058   3.850   8.981   1.780  0.6520 -0.8922 -3.7171
  460MOL0     H62059   3.975   8.880   1.863 -0.9655 -3.2783 -0.0647
  460MOL0     H62060   3.644   8.620   1.908 -0.7331 -4.7706  1.0873
  460MOL0     H62061   3.607   8.355   2.017  1.6684 -0.6539  0.4122
  460MOL0     H62062   3.685   8.365   2.175  3.0386 -0.5014 -0.8218
  460MOL0     H62063   3.593   8.503   2.108 -0.3287 -0.9103  1.4454
  460MOL0     H62064   3.801   8.147   2.295  0.0177 -0.4049  0.8971
  460MOL0     H62065   3.793   7.900   2.385  1.2546 -1.6065 -0.6332
  460MOL0     H62066   3.882   7.609   2.106 -0.0244  0.8377 -0.2690
  460MOL0     H62067   3.928   7.500   2.242 -0.5242 -1.0036 -0.8142
  460MOL0     H62068   3.718   7.546   2.342  2.9861  1.5192  0.2810
  460MOL0     H62069   3.664   7.651   2.211 -1.0109  0.2143  0.4013
  460MOL0     H62070   3.765   7.347   2.182 -0.6502 -1.3563 -1.1842
  460MOL0     H62071   3.735   7.452   2.048 -2.4426 -0.8684 -1.5288
  460MOL0     H62072   3.518   7.345   2.241 -0.5585  1.0638  0.0422
  460MOL0     H62073   3.494   7.452   2.110  1.6589  2.7857  3.9514
  460MOL0     H62074   3.468   7.173   2.077 -0.1591  0.4284  0.6524
  460MOL0     H62075   3.636   7.170   2.065  0.3888  0.5851  2.6696
  460MOL0     H62076   3.439   7.312   1.870 -0.4219 -0.3641  0.8293
  460MOL0     H62077   3.587   7.384   1.891 -1.2524  0.2460  0.0885
  460MOL0     H62078   3.498   7.120   1.775 -1.5756  2.1237  2.0276
  460MOL0     H62079   3.661   7.119   1.850  3.5943  1.0268 -4.0187
  460MOL0     H62080   3.720   7.315   1.709 -0.1552  0.4122  1.8155
  460MOL0     H62081   3.559   7.310   1.631  1.3784  0.2835 -3.3210
  460MOL0     H62082   4.011   7.770   2.050  1.3297  0.9061  0.3660
  460MOL0     H62083   3.940   7.995   1.936 -1.7379 -1.4940 -0.2298
  460MOL0     H62084   4.110   8.493   1.994 -0.1945 -0.4964  2.1605
  460MOL0     H62085   4.063   8.694   1.870 -1.1633  0.2316 -0.4795
  460MOL0     H62086   4.698   7.945   2.317 -0.6857  2.9323  2.5372
  460MOL0     H62087   4.595   7.730   2.385  4.9714  1.8535 -1.4186
  460MOL0     H62088   4.141   7.629   2.736  1.5489 -1.5170  0.8620
  460MOL0     H62089   3.996   7.425   2.777 -1.0569 -3.2736 -0.8227
  460MOL0     H62090   4.045   7.201   2.817 -0.7272  0.7244  2.6765
  460MOL0     H62091   3.878   7.245   2.774 -0.7709 -1.1305 -3.0248
  460MOL0     H62092   4.011   6.979   2.804 -1.4791 -1.8923 -0.5375
  460MOL0     H62093   3.875   6.985   2.685 -1.5356 -0.1695 -0.3696
  460MOL0     H62094   3.733   7.092   2.873 -0.1105 -1.3406 -0.1637
  460MOL0     H62095   3.880   7.073   2.981  2.4382 -0.5276 -0.5064
  460MOL0     H62096   3.782   6.870   3.027 -0.1716 -1.0625 -0.4481
  460MOL0     H62097   3.859   6.828   2.880  0.7503 -1.3237  3.1673
  460MOL0     H62098   3.429   6.851   2.789  1.0102 -2.1122  0.2726
  460MOL0     H62099   4.105   7.263   2.410 -3.0626  0.4265 -0.1561
  460MOL0     H62100   4.241   7.470   2.344 -0.1121  0.3265  0.0869
  461MOL0     O62101   0.072   0.599   3.447  0.2841 -0.6374 -0.2724
  461MOL0     C62102   0.051   0.488   3.497 -0.2188 -1.2185 -0.8946
  461MOL0     O62103  -0.052   0.458   3.584 -0.4311  0.3496  0.1961
  461MOL0     C62104  -0.136   0.548   3.628 -0.3565 -0.2591  0.3782
  461MOL0     C62105  -0.121   0.612   3.755  1.0445  0.2295 -0.2826
  461MOL0     C62106  -0.223   0.700   3.798  0.4187  0.1392  0.0946
  461MOL0     C62107  -0.333   0.733   3.718  0.4349  0.6678 -0.7623
  461MOL0     O62108  -0.421   0.827   3.763  0.7204 -0.3541 -0.6499
  461MOL0     C62109  -0.486   0.904   3.664 -0.5090  0.2866 -0.2147
  461MOL0     C62110  -0.483   1.049   3.717  0.3296  0.4619  0.1127
  461MOL0     C62111  -0.538   1.149   3.610 -0.8512  0.0957 -0.4822
  461MOL0     C62112  -0.539   1.302   3.666 -1.0383  0.7777  0.3205
  461MOL0     C62113  -0.631   1.395   3.581  0.7899 -0.1774 -0.6210
  461MOL0     C62114  -0.664   1.523   3.659  0.6778 -0.2759 -0.2945
  461MOL0     C62115  -0.734   1.641   3.573 -0.2995 -0.1997 -1.1117
  461MOL0     C62116  -0.864   1.590   3.517  0.1546  0.6436 -0.3595
  461MOL0     N62117  -0.978   1.686   3.493 -0.2207  0.2231 -0.7127
  461MOL0     C62118  -0.963   1.823   3.505 -0.3492  0.4374  0.0004
  461MOL0     C62119  -1.082   1.877   3.476 -0.2648 -0.2325  0.4326
  461MOL0     C62120  -1.117   2.021   3.467  0.3899  0.5436  0.0046
  461MOL0     C62121  -1.066   2.098   3.585 -0.1082  0.0493  0.3447
  461MOL0     C62122  -1.118   2.238   3.568 -0.1720 -0.4017  0.5028
  461MOL0     C62123  -1.105   2.322   3.689 -0.4150  0.5142  0.0039
  461MOL0     O62124  -0.968   2.344   3.719 -0.4251  0.5627  0.7307
  461MOL0     C62125  -0.906   2.296   3.821  0.8664  0.1567 -1.2025
  461MOL0     C62126  -0.771   2.331   3.824  1.2804 -0.3083 -0.8468
  461MOL0     C62127  -0.691   2.292   3.934  0.2564  0.5649 -0.6380
  461MOL0     C62128  -0.551   2.356   3.930  0.1541 -0.2311 -0.2493
  461MOL0     C62129  -0.744   2.209   4.042 -0.7365 -0.4467  0.6879
  461MOL0     C62130  -0.675   2.172   4.162  0.4273  0.3894 -0.3816
  461MOL0     O62131  -0.753   2.124   4.259  0.2874 -0.0539  0.4138
  461MOL0     C62132  -0.707   2.066   4.367  0.5532 -0.5978 -0.2444
  461MOL0     C62133  -0.589   1.982   4.372  0.1370 -0.4308  0.0112
  461MOL0     C62134  -0.540   1.938   4.497 -1.2661  0.2872 -0.6471
  461MOL0     C62135  -0.616   1.936   4.608  0.3184 -0.3446 -0.4335
  461MOL0     O62136  -0.563   1.874   4.719  0.4462 -0.5389  0.2584
  461MOL0     C62137  -0.625   1.898   4.844 -0.0159  0.1354 -0.1100
  461MOL0     C62138  -0.621   1.791   4.938  1.2038  0.7943 -0.2364
  461MOL0     C62139  -0.482   1.777   5.012 -0.5002  0.6997 -0.3719
  461MOL0     C62140  -0.472   1.655   5.110 -0.1400  0.0665 -0.3689
  461MOL0     C62141  -0.326   1.633   5.155 -0.5954  0.2694 -0.2656
  461MOL0     C62142  -0.310   1.543   5.274  0.4626  0.8687  0.3870
  461MOL0     C62143  -0.367   1.402   5.245 -0.2160  0.3441  0.4417
  461MOL0     C62144  -0.277   1.335   5.149  0.2038 -0.6891  1.1952
  461MOL0    Cl62145  -0.302   1.160   5.152  0.3826  0.4933  0.2972
  461MOL0     C62146  -0.738   2.001   4.599  1.2274  0.3730 -0.5396
  461MOL0     C62147  -0.789   2.061   4.484 -0.3487 -0.3372  0.5221
  461MOL0     O62148  -0.552   2.166   4.156 -0.0843 -0.3000 -0.5859
  461MOL0     C62149  -0.882   2.165   4.031 -0.0030 -0.3932 -0.8969
  461MOL0     C62150  -0.950   2.216   3.920  1.1374  0.0405 -0.9502
  461MOL0     N62151  -1.165   1.773   3.439 -0.5822  0.1354  1.1612
  461MOL0     N62152  -1.103   1.654   3.443  0.3852 -0.0433  0.0285
  461MOL0     C62153  -0.343   0.666   3.595 -0.5646  0.7585  0.3326
  461MOL0     C62154  -0.238   0.577   3.550  0.5607 -0.2174  0.3195
  461MOL0     C62155   0.133   0.372   3.471 -0.6109 -0.0450 -0.3147
  461MOL0     C62156   0.153   0.264   3.570 -0.3947 -0.0810  0.2222
  461MOL0     C62157   0.255   0.168   3.552  0.0680 -0.5550 -0.6524
  461MOL0     C62158   0.321   0.154   3.428 -0.0043 -0.9830  0.8929
  461MOL0     O62159   0.425   0.070   3.402 -0.1899 -0.1283  0.0433
  461MOL0     C62160   0.401  -0.060   3.336 -1.2551 -0.8505 -0.4154
  461MOL0     C62161   0.518  -0.148   3.371 -0.4224  0.0934  0.0235
  461MOL0     C62162   0.494  -0.293   3.329 -1.1180 -0.2924  0.1190
  461MOL0     C62163   0.612  -0.391   3.349  0.5127 -0.1164 -0.5168
  461MOL0     C62164   0.651  -0.408   3.487  0.4041  0.2429 -0.6030
  461MOL0     C62165   0.699  -0.415   3.601  0.1169  0.4565 -1.0454
  461MOL0     C62166   0.298   0.253   3.335  0.7028 -0.3904  0.8987
  461MOL0     C62167   0.197   0.354   3.348  0.1675 -0.7664 -0.0986
  461MOL0     H62168  -0.043   0.578   3.822  0.8344 -3.4877 -1.6667
  461MOL0     H62169  -0.224   0.745   3.897  3.1707  0.4196  0.0623
  461MOL0     H62170  -0.419   0.902   3.577  0.2635 -3.2713  0.2850
  461MOL0     H62171  -0.589   0.877   3.641 -1.3794  3.7088 -0.8546
  461MOL0     H62172  -0.543   1.057   3.808  0.7623  2.0261  0.2854
  461MOL0     H62173  -0.379   1.074   3.740  2.4271 -2.7427 -4.4055
  461MOL0     H62174  -0.487   1.142   3.513 -2.3154  0.5511 -1.3145
  461MOL0     H62175  -0.642   1.120   3.598 -0.9427  0.5722 -0.8855
  461MOL0     H62176  -0.561   1.312   3.773  1.5543  0.1186  1.0006
  461MOL0     H62177  -0.432   1.326   3.664  0.3992 -4.4607 -1.2914
  461MOL0     H62178  -0.571   1.417   3.492 -0.0570 -0.9296 -1.3905
  461MOL0     H62179  -0.722   1.351   3.540 -0.1974  2.1947 -1.1839
  461MOL0     H62180  -0.735   1.505   3.741 -0.0297 -1.0997 -1.0665
  461MOL0     H62181  -0.565   1.552   3.694  0.7968  0.4370 -1.1839
  461MOL0     H62182  -0.759   1.720   3.645 -0.1936 -1.5062  0.3926
  461MOL0     H62183  -0.662   1.688   3.505  0.2930  2.0499  0.9211
  461MOL0     H62184  -0.897   1.518   3.593  1.3156 -0.0480 -0.4824
  461MOL0     H62185  -0.843   1.542   3.421  0.9497  0.3282 -0.0414
  461MOL0     H62186  -0.874   1.884   3.519  1.9846 -2.6671 -0.3273
  461MOL0     H62187  -1.087   2.063   3.371 -2.6420  2.3680 -0.3062
  461MOL0     H62188  -1.226   2.036   3.469  0.7765  4.0448  0.9014
  461MOL0     H62189  -0.957   2.094   3.583 -0.1009 -0.2630  1.1449
  461MOL0     H62190  -1.091   2.055   3.682  0.9722 -1.3631  0.0302
  461MOL0     H62191  -1.226   2.231   3.549 -0.4132 -1.2389  2.0274
  461MOL0     H62192  -1.084   2.292   3.479 -1.1347  0.2643  0.5203
  461MOL0     H62193  -1.164   2.268   3.763  2.4349 -2.1769  0.5271
  461MOL0     H62194  -1.146   2.422   3.670 -0.8085 -0.1379 -3.3167
  461MOL0     H62195  -0.748   2.400   3.744  1.4031  1.1299  0.3948
  461MOL0     H62196  -0.481   2.276   3.955 -0.5319  0.0247  2.9964
  461MOL0     H62197  -0.516   2.387   3.831  1.6950 -1.1043 -0.0102
  461MOL0     H62198  -0.541   2.433   4.008 -1.7366  0.2398 -0.4302
  461MOL0     H62199  -0.527   1.963   4.285  0.8768 -1.3337  0.7162
  461MOL0     H62200  -0.449   1.880   4.509 -2.6008 -1.3022  3.1422
  461MOL0     H62201  -0.583   1.993   4.875  0.8286  0.2469 -1.5353
  461MOL0     H62202  -0.733   1.914   4.838  0.5681  5.2497 -1.9320
  461MOL0     H62203  -0.689   1.821   5.018  0.4592  0.1350 -0.6130
  461MOL0     H62204  -0.663   1.699   4.897  1.5276  0.5074  0.0627
  461MOL0     H62205  -0.457   1.862   5.075  2.5145  1.3006 -2.1673
  461MOL0     H62206  -0.397   1.777   4.944  2.8815 -1.1920  3.4463
  461MOL0     H62207  -0.541   1.684   5.189 -0.2829 -0.7125 -0.1968
  461MOL0     H62208  -0.509   1.563   5.064 -1.1592  0.2742  0.0085
  461MOL0     H62209  -0.282   1.729   5.183 -1.9873 -0.1883  4.2145
  461MOL0     H62210  -0.270   1.602   5.066 -0.4432  0.6830 -0.3150
  461MOL0     H62211  -0.203   1.542   5.298  1.3206 -0.0029 -2.9655
  461MOL0     H62212  -0.376   1.589   5.348  0.6905  0.1155  1.0725
  461MOL0     H62213  -0.472   1.403   5.213 -0.7107 -1.5079  1.8438
  461MOL0     H62214  -0.367   1.336   5.332  1.1098 -2.1850 -1.3456
  461MOL0     H62215  -0.171   1.353   5.166  1.1290 -2.3389 -1.9923
  461MOL0     H62216  -0.293   1.358   5.043 -1.2265 -2.9291  0.8359
  461MOL0     H62217  -0.799   2.005   4.688  1.1997  1.0101 -0.5830
  461MOL0     H62218  -0.887   2.106   4.492 -0.4273 -0.7622  2.6179
  461MOL0     H62219  -0.933   2.100   4.102 -1.9113  2.0442  0.1024
  461MOL0     H62220  -1.054   2.188   3.904  0.7518  2.1274 -2.5345
  461MOL0     H62221  -0.425   0.687   3.526 -2.1176 -1.9335  1.2416
  461MOL0     H62222  -0.241   0.507   3.468 -0.6619 -0.0045  0.1593
  461MOL0     H62223   0.111   0.273   3.669  0.0669  0.3018  0.3859
  461MOL0     H62224   0.280   0.112   3.642 -2.2612  0.7530  0.9154
  461MOL0     H62225   0.306  -0.096   3.375 -1.5010  1.6323  1.5232
  461MOL0     H62226   0.396  -0.062   3.227  0.8221 -2.4688 -0.5460
  461MOL0     H62227   0.549  -0.152   3.476 -1.2898  2.8466  0.4788
  461MOL0     H62228   0.605  -0.110   3.318 -1.2816  1.4301 -0.4751
  461MOL0     H62229   0.476  -0.295   3.221  0.2316 -3.3881 -0.1510
  461MOL0     H62230   0.404  -0.325   3.382 -0.7876 -0.1831  0.7595
  461MOL0     H62231   0.702  -0.362   3.293  2.6074 -2.0186  1.6036
  461MOL0     H62232   0.580  -0.491   3.318 -2.3717  0.4066  0.5095
  461MOL0     H62233   0.744  -0.423   3.697 -1.6628  0.9632 -0.1134
  461MOL0     H62234   0.349   0.230   3.242 -0.4724  0.3343  0.0445
  461MOL0     H62235   0.180   0.422   3.265  0.6383  0.5437  0.8381
  462MOL0     O62236  10.271   0.557   0.406 -0.1175 -0.4712  0.1750
  462MOL0     C62237  10.247   0.518   0.288 -0.1720 -0.5850 -0.3567
  462MOL0     O62238  10.346   0.498   0.198  0.9041  0.8816  0.2763
  462MOL0     C62239  10.461   0.576   0.205 -0.2767 -0.2892  0.1207
  462MOL0     C62240  10.451   0.710   0.191  0.2860  0.2821 -1.6447
  462MOL0     C62241  10.563   0.795   0.196 -0.2295  0.1555  0.9758
  462MOL0     C62242  10.680   0.735   0.239 -0.4772 -0.0715  0.7478
  462MOL0     O62243  10.804   0.799   0.255 -0.1430 -0.2503 -0.2700
  462MOL0     C62244  10.795   0.911   0.339 -0.3887  0.1917 -1.0260
  462MOL0     C62245  10.864   0.873   0.471  0.3614 -0.0013  0.5710
  462MOL0     C62246  11.011   0.830   0.457 -0.1498 -0.8396 -0.2411
  462MOL0     C62247  11.090   0.842   0.589 -0.3071  0.4029  0.1006
  462MOL0     C62248  11.227   0.770   0.592  0.6615  0.5025 -0.2908
  462MOL0     C62249  11.318   0.847   0.508 -0.6797  0.7187 -0.1138
  462MOL0     C62250  11.441   0.770   0.474  0.1465  0.3606  0.9442
  462MOL0     C62251  11.553   0.792   0.576 -0.2125  0.1400 -0.7810
  462MOL0     N62252  11.531   0.720   0.707  0.6849  0.7132  0.5962
  462MOL0     C62253  11.593   0.747   0.826 -0.3831  0.2620  0.0624
  462MOL0     C62254  11.550   0.646   0.908 -0.3461  0.6260  0.3507
  462MOL0     C62255  11.586   0.647   1.059  0.3094  0.5214  0.3404
  462MOL0     C62256  11.732   0.618   1.092 -0.0443  1.0686  0.4892
  462MOL0     C62257  11.770   0.480   1.036  0.1495 -0.1511 -0.6105
  462MOL0     C62258  11.904   0.429   1.110  1.1400  0.0700 -0.1573
  462MOL0     O62259  12.001   0.532   1.147 -0.3389  1.3952  0.0933
  462MOL0     C62260  12.129   0.503   1.091 -0.5964  0.6117  0.4473
  462MOL0     C62261  12.190   0.565   0.977 -0.7956 -0.6173 -0.2317
  462MOL0     C62262  12.330   0.561   0.952  0.9626  1.0600  0.6911
  462MOL0     C62263  12.387   0.652   0.845  0.3904  0.9371  0.0667
  462MOL0     C62264  12.410   0.468   1.024  1.2465  1.1052  0.0964
  462MOL0     C62265  12.550   0.434   1.001 -0.0063 -1.0024 -1.1987
  462MOL0     O62266  12.597   0.322   1.069  0.2952 -0.7272  0.2320
  462MOL0     C62267  12.725   0.279   1.049  0.1084 -1.1926 -1.1774
  462MOL0     C62268  12.793   0.285   0.925 -0.0320  0.0237  0.5072
  462MOL0     C62269  12.930   0.243   0.919 -0.3895 -0.6086  0.3229
  462MOL0     C62270  12.995   0.181   1.028 -0.5118 -0.9506  0.5622
  462MOL0     O62271  13.103   0.103   1.004 -0.3327  0.3592  0.0840
  462MOL0     C62272  13.127  -0.012   1.096  0.6219 -0.3068 -0.5723
  462MOL0     C62273  13.260  -0.079   1.074  0.5910 -0.0162  0.3500
  462MOL0     C62274  13.284  -0.173   1.182 -0.7844 -0.1540 -0.7659
  462MOL0     C62275  13.431  -0.235   1.163  0.0710 -0.8249  0.9838
  462MOL0     C62276  13.463  -0.328   1.271 -0.2105 -0.1187 -0.1165
  462MOL0     C62277  13.611  -0.370   1.270  0.0649 -0.3437 -0.1896
  462MOL0     C62278  13.624  -0.475   1.382  0.7254 -0.4929 -0.1262
  462MOL0     C62279  13.752  -0.560   1.367 -0.0522  0.1567 -0.7424
  462MOL0    Cl62280  13.906  -0.471   1.403  0.2824 -0.5685  0.3853
  462MOL0     C62281  12.926   0.179   1.150 -0.5504 -0.1144 -0.5460
  462MOL0     C62282  12.797   0.233   1.162 -0.0153 -0.3254  0.2683
  462MOL0     O62283  12.621   0.508   0.940 -0.0471 -0.0211 -0.9273
  462MOL0     C62284  12.344   0.385   1.120  0.4300 -0.6915 -0.5885
  462MOL0     C62285  12.204   0.403   1.160 -0.5580  0.1246 -0.5542
  462MOL0     N62286  11.480   0.552   0.831  0.2863 -0.1248 -0.3286
  462MOL0     N62287  11.469   0.595   0.711 -0.0039  0.1584 -0.9246
  462MOL0     C62288  10.697   0.602   0.269  0.7701  0.3201  1.0824
  462MOL0     C62289  10.585   0.521   0.250 -0.1203  0.3162  1.7326
  462MOL0     C62290  10.103   0.477   0.253 -0.4675  0.3187 -0.9926
  462MOL0     C62291  10.059   0.408   0.134  0.2655 -0.7949 -0.3791
  462MOL0     C62292   9.922   0.377   0.109  0.2163  1.0452 -0.6137
  462MOL0     C62293   9.826   0.407   0.207  0.0290 -0.0198 -0.7432
  462MOL0     O62294   9.699   0.375   0.181  0.4801 -0.8855  1.2974
  462MOL0     C62295   9.591   0.432   0.249  0.6952 -0.3370 -0.0878
  462MOL0     C62296   9.451   0.414   0.180  0.6793  0.5917  0.1192
  462MOL0     C62297   9.422   0.264   0.160  0.0624  0.7726  0.0687
  462MOL0     C62298   9.310   0.261   0.055  0.5142  0.2329 -0.0405
  462MOL0     C62299   9.189   0.337   0.104 -0.0800  0.4726 -0.0342
  462MOL0     C62300   9.081   0.364   0.135  0.0275  0.1250  0.8549
  462MOL0     C62301   9.869   0.465   0.325  0.7497 -0.3139  0.4545
  462MOL0     C62302   9.999   0.507   0.339  1.0791 -0.1973 -0.7765
  462MOL0     H62303  10.359   0.760   0.161 -0.0927  0.9393  0.4504
  462MOL0     H62304  10.535   0.898   0.177 -1.2802 -0.3282 -0.2135
  462MOL0     H62305  10.862   0.989   0.299  1.8989 -0.4042  1.3693
  462MOL0     H62306  10.692   0.946   0.351  0.0878  1.9018 -1.5481
  462MOL0     H62307  10.858   0.965   0.531 -0.4902 -1.3959  2.7428
  462MOL0     H62308  10.811   0.802   0.534  0.1846 -0.3695  0.0088
  462MOL0     H62309  11.026   0.733   0.408  1.4386 -1.5901  1.6214
  462MOL0     H62310  11.060   0.899   0.387 -0.5517  0.6068  0.8465
  462MOL0     H62311  11.097   0.948   0.615 -1.1082  0.8268 -1.2953
  462MOL0     H62312  11.028   0.802   0.670  2.7081 -0.2607  2.2420
  462MOL0     H62313  11.262   0.769   0.696  0.1657 -2.7502 -0.0487
  462MOL0     H62314  11.220   0.671   0.547  0.7628 -0.4771  1.7188
  462MOL0     H62315  11.273   0.879   0.414 -0.2610 -0.8465 -0.8875
  462MOL0     H62316  11.352   0.941   0.552 -0.4836 -1.2375  4.5390
  462MOL0     H62317  11.418   0.663   0.465 -2.1157  0.8330  0.5539
  462MOL0     H62318  11.473   0.801   0.374 -5.3815  3.0124 -0.3798
  462MOL0     H62319  11.564   0.899   0.596 -0.5639  0.1136 -0.4483
  462MOL0     H62320  11.647   0.750   0.539  1.2852  0.1215  2.7342
  462MOL0     H62321  11.655   0.831   0.856  1.1681 -0.0902 -2.0203
  462MOL0     H62322  11.544   0.738   1.102 -0.2144 -0.1816  1.3381
  462MOL0     H62323  11.524   0.569   1.105 -0.8463  1.5031  0.5012
  462MOL0     H62324  11.750   0.620   1.200 -2.7206  2.3139  0.9946
  462MOL0     H62325  11.794   0.692   1.040  2.2054  0.2164  1.8381
  462MOL0     H62326  11.784   0.509   0.932 -0.1665  1.6933 -0.1644
  462MOL0     H62327  11.691   0.404   1.037 -2.2203  2.1484  1.5250
  462MOL0     H62328  11.939   0.347   1.047 -0.3044 -0.6138 -0.1032
  462MOL0     H62329  11.887   0.382   1.207  0.3869 -0.6100 -0.6107
  462MOL0     H62330  12.122   0.627   0.920  0.4952 -1.6061 -3.0917
  462MOL0     H62331  12.436   0.737   0.894 -0.0590  1.8317 -0.9838
  462MOL0     H62332  12.471   0.606   0.793 -0.7687 -0.5353 -0.5816
  462MOL0     H62333  12.302   0.691   0.789 -0.6758 -0.1031  0.9028
  462MOL0     H62334  12.743   0.312   0.833  2.8038 -5.5728 -3.2145
  462MOL0     H62335  12.978   0.243   0.822  1.6682  2.5126  1.2094
  462MOL0     H62336  13.126   0.030   1.197  0.6557  0.4455 -0.8760
  462MOL0     H62337  13.053  -0.090   1.073  2.5267 -2.0907 -0.9241
  462MOL0     H62338  13.261  -0.131   0.978 -0.7107  1.4218 -0.4810
  462MOL0     H62339  13.333   0.002   1.073 -1.2065  1.8399 -4.0264
  462MOL0     H62340  13.209  -0.251   1.201 -1.5605  0.3744 -1.5516
  462MOL0     H62341  13.292  -0.108   1.269 -2.1471  0.6230 -1.1884
  462MOL0     H62342  13.423  -0.283   1.066 -2.6773 -0.1878  0.8197
  462MOL0     H62343  13.506  -0.156   1.153 -0.2675 -0.4969  1.0059
  462MOL0     H62344  13.398  -0.415   1.259 -1.3263  0.1646  2.9667
  462MOL0     H62345  13.439  -0.263   1.356 -2.4096  4.6540 -3.8653
  462MOL0     H62346  13.650  -0.407   1.175  4.0171  1.5677  0.4835
  462MOL0     H62347  13.677  -0.286   1.295 -2.3410  2.5847 -2.9117
  462MOL0     H62348  13.542  -0.547   1.371 -0.1123  0.5117 -0.7903
  462MOL0     H62349  13.624  -0.444   1.487  1.7158 -0.6929 -0.0610
  462MOL0     H62350  13.758  -0.600   1.265  0.3579 -1.2863 -0.1806
  462MOL0     H62351  13.749  -0.643   1.438  4.4974 -0.8248 -1.4100
  462MOL0     H62352  12.964   0.138   1.243  0.5299 -0.6958 -1.2174
  462MOL0     H62353  12.742   0.249   1.254  1.7240 -2.3204  1.7339
  462MOL0     H62354  12.403   0.302   1.159 -0.8058 -1.5966 -0.5944
  462MOL0     H62355  12.162   0.350   1.245  2.2338 -0.7791  0.4042
  462MOL0     H62356  10.785   0.550   0.307 -0.9774 -1.3336  3.1129
  462MOL0     H62357  10.599   0.416   0.274 -0.4060  0.1671  1.2691
  462MOL0     H62358  10.136   0.371   0.067  2.3847  2.1618  0.2215
  462MOL0     H62359   9.885   0.320   0.024  1.6510 -2.4024  0.8676
  462MOL0     H62360   9.594   0.379   0.345  0.9276  0.2175  0.2193
  462MOL0     H62361   9.614   0.538   0.268 -1.7262  0.0385  1.1578
  462MOL0     H62362   9.461   0.464   0.083  0.2975 -0.4300 -0.4692
  462MOL0     H62363   9.378   0.473   0.236  0.2633  2.3409 -2.1130
  462MOL0     H62364   9.379   0.212   0.246  2.7417 -1.3880  0.2299
  462MOL0     H62365   9.511   0.215   0.121 -1.8285 -1.3586 -1.8609
  462MOL0     H62366   9.289   0.156   0.030  1.3365 -0.1451  0.7947
  462MOL0     H62367   9.350   0.308  -0.035 -2.6628 -0.1386 -1.8062
  462MOL0     H62368   8.979   0.395   0.144  0.5035  1.3496  2.5072
  462MOL0     H62369   9.793   0.484   0.400 -1.7044 -1.0752 -1.6743
  462MOL0     H62370  10.004   0.563   0.432  0.9349  2.0823 -2.0713
  463MOL0     O62371   1.902   3.796  10.699  0.0919  0.3891 -0.1880
  463MOL0     C62372   1.870   3.740  10.801 -0.8786  0.3028  0.5997
  463MOL0     O62373   1.952   3.690  10.901  0.0372 -0.1822 -0.0286
  463MOL0     C62374   2.096   3.690  10.891  0.6181  0.8573  0.0165
  463MOL0     C62375   2.154   3.556  10.919 -0.0689 -0.8031  0.6957
  463MOL0     C62376   2.292   3.532  10.923  0.1569 -0.0383  0.1986
  463MOL0     C62377   2.374   3.637  10.883 -0.8934  0.2889 -0.1543
  463MOL0     O62378   2.515   3.621  10.863  0.3688  0.0240  0.1310
  463MOL0     C62379   2.581   3.583  10.984  0.7779 -0.2244  0.5068
  463MOL0     C62380   2.731   3.613  10.980  0.4672 -0.2571 -0.0185
  463MOL0     C62381   2.819   3.490  11.007 -0.2349  0.4362  0.6768
  463MOL0     C62382   2.808   3.432  11.146 -0.4919 -0.7303 -0.2536
  463MOL0     C62383   2.899   3.308  11.168  0.8616  0.7148  1.2366
  463MOL0     C62384   2.923   3.267  11.319  0.9785 -0.2824 -0.0638
  463MOL0     C62385   3.022   3.356  11.378 -1.0477  1.5824 -0.2704
  463MOL0     C62386   3.052   3.310  11.520  0.2735 -0.5844 -0.2886
  463MOL0     N62387   2.934   3.297  11.604 -0.1067 -0.1570  0.0833
  463MOL0     C62388   2.818   3.376  11.595  0.0740  0.2209 -0.1949
  463MOL0     C62389   2.738   3.320  11.690 -1.1478 -0.3383  0.0559
  463MOL0     C62390   2.599   3.362  11.730 -0.2313 -0.2211 -0.1273
  463MOL0     C62391   2.487   3.257  11.747  0.7102 -1.1769  0.3262
  463MOL0     C62392   2.418   3.239  11.602  0.4736  0.1194 -0.2845
  463MOL0     C62393   2.315   3.118  11.601 -0.1465  0.0034  0.7072
  463MOL0     O62394   2.253   3.101  11.469  0.1946  1.0903 -0.0320
  463MOL0     C62395   2.181   2.993  11.446 -0.5789  0.6513  0.4191
  463MOL0     C62396   2.140   2.907  11.553  0.5662  0.4229 -0.2043
  463MOL0     C62397   2.065   2.792  11.536 -0.0353 -0.0375  0.6773
  463MOL0     C62398   2.021   2.709  11.657 -0.1066  0.1700 -0.6909
  463MOL0     C62399   2.032   2.754  11.410 -0.0204  0.1150 -0.1866
  463MOL0     C62400   1.973   2.617  11.380  1.0897  0.0643 -0.4760
  463MOL0     O62401   1.986   2.508  11.459 -0.0021  0.2020  0.3293
  463MOL0     C62402   1.907   2.394  11.463  0.6227  0.3863 -0.3848
  463MOL0     C62403   1.802   2.358  11.378  0.1196  0.5680  0.3481
  463MOL0     C62404   1.703   2.259  11.400 -0.1823 -0.6721  0.1035
  463MOL0     C62405   1.722   2.174  11.502 -0.3075 -0.4704  0.6828
  463MOL0     O62406   1.639   2.070  11.512 -0.5776  0.0846  0.4882
  463MOL0     C62407   1.575   2.077  11.642 -0.8447 -0.0872  0.7965
  463MOL0     C62408   1.447   1.992  11.656  0.1460 -0.9571 -0.4046
  463MOL0     C62409   1.335   2.046  11.560  0.2502  0.2281  0.4538
  463MOL0     C62410   1.197   1.989  11.590 -0.3838 -0.2046  0.0075
  463MOL0     C62411   1.095   2.020  11.480 -0.0409  0.2124 -0.1538
  463MOL0     C62412   0.968   1.928  11.477 -0.0212 -0.4550  0.0358
  463MOL0     C62413   0.900   1.909  11.617  0.4187  0.0142  0.1957
  463MOL0     C62414   0.923   1.788  11.700  0.4590 -0.2742  0.0054
  463MOL0    Cl62415   0.916   1.633  11.606 -0.2651 -0.3026  0.0512
  463MOL0     C62416   1.825   2.198  11.597  0.7501 -0.1611 -0.0985
  463MOL0     C62417   1.921   2.302  11.575 -0.6366  0.2663 -0.3518
  463MOL0     O62418   1.911   2.617  11.276  0.4277 -0.0008  0.2425
  463MOL0     C62419   2.071   2.835  11.304  0.1891  0.2099  0.2928
  463MOL0     C62420   2.142   2.951  11.318 -0.2516  0.3441  0.4127
  463MOL0     N62421   2.802   3.207  11.735 -0.2063 -0.3618 -0.0717
  463MOL0     N62422   2.925   3.200  11.692 -0.7682  0.0726  0.3503
  463MOL0     C62423   2.318   3.755  10.834  0.2226 -0.6638  0.2086
  463MOL0     C62424   2.186   3.790  10.858 -0.1850  0.3575 -0.6229
  463MOL0     C62425   1.727   3.740  10.828  0.5209  1.7781  0.2644
  463MOL0     C62426   1.636   3.772  10.729  0.3166 -0.0134  0.0549
  463MOL0     C62427   1.498   3.757  10.742 -0.5037  0.3038  0.6055
  463MOL0     C62428   1.448   3.716  10.861 -0.8141  1.5930 -0.3766
  463MOL0     O62429   1.319   3.683  10.889 -0.1896  0.1836  0.5375
  463MOL0     C62430   1.211   3.729  10.799 -0.4033  0.6466  0.2528
  463MOL0     C62431   1.062   3.676  10.818 -0.4139 -0.0158  0.3517
  463MOL0     C62432   1.012   3.679  10.964 -0.7615  1.1512  0.3435
  463MOL0     C62433   0.997   3.809  11.027 -0.0204 -0.3821  0.0617
  463MOL0     C62434   0.935   3.812  11.158  0.0732  1.1378  0.0521
  463MOL0     C62435   0.892   3.806  11.271  0.1252  0.7951  0.0476
  463MOL0     C62436   1.540   3.678  10.962 -0.1287 -0.4288 -0.1270
  463MOL0     C62437   1.679   3.681  10.946 -0.8034  0.4116  0.0357
  463MOL0     H62438   2.077   3.485  10.948 -2.7603  1.2444 -0.9795
  463MOL0     H62439   2.345   3.445  10.962  0.0227  0.4715  1.5811
  463MOL0     H62440   2.541   3.647  11.063  0.4900 -0.1464  0.3006
  463MOL0     H62441   2.580   3.477  11.013 -1.4494  0.1183  1.8700
  463MOL0     H62442   2.745   3.632  10.873  0.9104 -2.2911 -0.3439
  463MOL0     H62443   2.759   3.708  11.027  0.8234 -0.8400  0.9630
  463MOL0     H62444   2.807   3.415  10.929 -2.5789 -0.9301  2.2184
  463MOL0     H62445   2.922   3.520  10.984 -0.7012  0.2447 -1.8791
  463MOL0     H62446   2.834   3.509  11.218  1.1847 -1.0113 -0.5242
  463MOL0     H62447   2.706   3.405  11.176 -0.2267 -0.0248  1.3769
  463MOL0     H62448   2.856   3.225  11.110 -0.4645  2.5557 -0.5641
  463MOL0     H62449   2.991   3.326  11.111 -0.4982  0.2426 -1.2620
  463MOL0     H62450   2.826   3.273  11.369 -0.1055  2.1533 -2.2067
  463MOL0     H62451   2.958   3.164  11.306  1.8918  0.0885 -0.6638
  463MOL0     H62452   3.117   3.350  11.324 -0.6663  0.3671  0.4945
  463MOL0     H62453   2.985   3.458  11.388  1.6024  2.4190  2.5785
  463MOL0     H62454   3.107   3.396  11.559 -0.3135 -0.8305  1.1560
  463MOL0     H62455   3.113   3.220  11.528  0.8276 -0.1893 -0.0606
  463MOL0     H62456   2.800   3.457  11.525  0.5364 -0.5360 -1.2179
  463MOL0     H62457   2.623   3.404  11.828 -0.5700  0.2805 -0.2550
  463MOL0     H62458   2.571   3.441  11.659  0.2523 -1.7701 -2.1466
  463MOL0     H62459   2.417   3.294  11.822 -0.1231  1.3758 -1.5880
  463MOL0     H62460   2.539   3.169  11.787  1.0834 -0.5603  1.2495
  463MOL0     H62461   2.495   3.224  11.526 -0.2895 -4.6817 -0.4260
  463MOL0     H62462   2.351   3.324  11.584  0.1801  0.5147  2.2529
  463MOL0     H62463   2.236   3.134  11.675 -0.8121 -0.0072  0.0039
  463MOL0     H62464   2.370   3.026  11.622  1.2834  0.4003 -1.0345
  463MOL0     H62465   2.190   2.903  11.650  1.3919 -1.5633 -0.6611
  463MOL0     H62466   2.073   2.614  11.674  1.8030  1.0603 -1.3012
  463MOL0     H62467   2.035   2.779  11.740 -1.6583  0.9632 -1.0718
  463MOL0     H62468   1.914   2.691  11.650 -0.4818  2.1083 -0.3005
  463MOL0     H62469   1.795   2.410  11.283  0.3119  0.6763  0.3919
  463MOL0     H62470   1.629   2.245  11.322 -2.0933  3.6035  0.8531
  463MOL0     H62471   1.641   2.055  11.727  1.0676  0.4739 -0.4611
  463MOL0     H62472   1.553   2.184  11.655 -0.4361  0.4734 -2.3481
  463MOL0     H62473   1.454   1.887  11.625  0.2279 -0.6285 -1.5507
  463MOL0     H62474   1.425   1.983  11.763 -0.2731  0.6887 -0.3300
  463MOL0     H62475   1.361   2.033  11.454 -1.0825 -0.0004  0.1346
  463MOL0     H62476   1.332   2.155  11.566 -2.5653  0.3897 -1.4183
  463MOL0     H62477   1.214   1.882  11.578  3.3255  0.2142  0.2123
  463MOL0     H62478   1.158   2.010  11.690  2.4978  1.4273  0.9039
  463MOL0     H62479   1.147   2.006  11.385  2.1681  2.9664  0.5428
  463MOL0     H62480   1.055   2.121  11.486 -1.8982 -0.4751 -0.1471
  463MOL0     H62481   0.902   1.968  11.400  3.0829 -0.8232 -3.0584
  463MOL0     H62482   1.003   1.830  11.442 -0.3414 -0.0991 -1.3071
  463MOL0     H62483   0.792   1.904  11.596  0.8849 -1.9142 -2.2953
  463MOL0     H62484   0.920   1.997  11.679  0.1955  0.7378 -0.7379
  463MOL0     H62485   0.852   1.789  11.784  0.4718  0.8923  0.0069
  463MOL0     H62486   1.024   1.802  11.740  1.4940 -0.6231 -2.3433
  463MOL0     H62487   1.828   2.123  11.675 -0.9141 -1.3597 -1.1236
  463MOL0     H62488   1.996   2.316  11.652  0.4994  0.2005 -1.4130
  463MOL0     H62489   2.045   2.797  11.206  0.5865  0.5805  0.0408
  463MOL0     H62490   2.186   3.004  11.234  0.8707 -2.5965 -1.0162
  463MOL0     H62491   2.377   3.835  10.789 -1.7669  0.0029 -1.3613
  463MOL0     H62492   2.167   3.897  10.850  2.6237  0.8413 -2.1620
  463MOL0     H62493   1.675   3.814  10.637 -1.8456 -0.8665 -1.3115
  463MOL0     H62494   1.431   3.786  10.662 -0.1055 -0.6973 -0.1070
  463MOL0     H62495   1.211   3.838  10.792 -0.4527  0.6939  0.9532
  463MOL0     H62496   1.240   3.693  10.699  0.2915  1.3482  0.1850
  463MOL0     H62497   1.038   3.577  10.780  1.6391 -0.1824 -0.6597
  463MOL0     H62498   0.995   3.747  10.768 -3.7951 -1.2503  2.7588
  463MOL0     H62499   1.075   3.610  11.021  0.8207  0.7043 -1.7964
  463MOL0     H62500   0.917   3.626  10.966 -0.2528  0.2006 -0.0397
  463MOL0     H62501   0.951   3.875  10.953 -3.0781 -2.8863 -0.4272
  463MOL0     H62502   1.099   3.842  11.050  0.1201 -1.4087  0.9640
  463MOL0     H62503   0.858   3.811  11.372  0.0817 -0.1693  0.0855
  463MOL0     H62504   1.505   3.655  11.063  1.4354  0.8498  0.7532
  463MOL0     H62505   1.739   3.643  11.028  0.3213 -3.8095 -2.4282
  464MOL0     O62506   7.853   6.677   4.196 -0.3391 -0.1029  0.4218
  464MOL0     C62507   7.943   6.740   4.249  0.1790 -0.4120  0.4705
  464MOL0     O62508   8.069   6.684   4.277  0.3014  0.1716  0.0639
  464MOL0     C62509   8.092   6.546   4.270  0.4557 -0.1978  0.2359
  464MOL0     C62510   8.158   6.491   4.159 -0.5835 -0.2437  1.1077
  464MOL0     C62511   8.168   6.354   4.147  0.1963 -0.4226 -0.1084
  464MOL0     C62512   8.110   6.271   4.251  1.1705 -0.7589  0.0675
  464MOL0     O62513   8.115   6.136   4.264  0.5234  0.2458 -0.2563
  464MOL0     C62514   8.160   6.042   4.172 -0.1981 -0.3701 -0.7509
  464MOL0     C62515   8.310   6.019   4.188  0.1674 -0.9472  0.5324
  464MOL0     C62516   8.367   6.000   4.328 -0.2052 -0.4127 -0.0227
  464MOL0     C62517   8.478   5.911   4.333 -0.3469  0.0937 -0.0974
  464MOL0     C62518   8.510   5.878   4.474 -0.1629  1.3195  0.1000
  464MOL0     C62519   8.642   5.809   4.509 -0.5434  0.0547 -0.5800
  464MOL0     C62520   8.664   5.672   4.446  0.0564  0.3764  0.2581
  464MOL0     C62521   8.794   5.598   4.485  0.4501  0.0351  0.1375
  464MOL0     N62522   8.788   5.566   4.629 -0.8416  0.1541  0.4287
  464MOL0     C62523   8.904   5.571   4.713 -1.1138  0.2626 -0.2592
  464MOL0     C62524   8.875   5.494   4.828 -0.0189  0.2567 -0.0587
  464MOL0     C62525   8.955   5.471   4.957 -0.1897 -0.4823  0.3291
  464MOL0     C62526   8.866   5.447   5.082  0.5936  0.9210 -0.1232
  464MOL0     C62527   8.763   5.554   5.129  0.6801  0.6334  0.1686
  464MOL0     C62528   8.833   5.682   5.185 -0.4147  0.0459 -0.4732
  464MOL0     O62529   8.744   5.759   5.257  0.7791  0.6946 -0.4190
  464MOL0     C62530   8.733   5.892   5.219 -0.4989 -0.8107  0.1391
  464MOL0     C62531   8.696   5.914   5.084  0.9407 -0.1462  0.0354
  464MOL0     C62532   8.710   6.053   5.034 -0.1850  0.2666  0.2030
  464MOL0     C62533   8.694   6.063   4.883 -0.4045  0.1264 -0.1823
  464MOL0     C62534   8.729   6.160   5.121  0.8012 -0.6342 -0.6723
  464MOL0     C62535   8.749   6.301   5.080 -0.5092 -0.6235  0.1265
  464MOL0     O62536   8.694   6.344   4.968  0.2130  0.0511 -0.1810
  464MOL0     C62537   8.700   6.473   4.938 -0.5859  0.4417 -0.4095
  464MOL0     C62538   8.813   6.526   4.874 -0.6195 -1.4005 -1.1459
  464MOL0     C62539   8.819   6.665   4.860 -0.6429 -0.4240  0.5710
  464MOL0     C62540   8.711   6.748   4.902 -1.0889 -1.4834  0.3792
  464MOL0     O62541   8.711   6.882   4.872  0.0933  0.1120 -0.7001
  464MOL0     C62542   8.834   6.947   4.854  0.1734 -0.1586 -0.2279
  464MOL0     C62543   8.824   7.096   4.860 -0.4492 -0.0931  0.2830
  464MOL0     C62544   8.770   7.152   4.736  0.0427  0.2815  0.1452
  464MOL0     C62545   8.698   7.291   4.747 -0.5089 -0.4210  0.5771
  464MOL0     C62546   8.707   7.367   4.608 -0.4389 -1.1630 -0.3460
  464MOL0     C62547   8.566   7.376   4.533 -0.5449  0.0126 -0.7858
  464MOL0     C62548   8.529   7.246   4.475  1.2504  0.5207  0.5929
  464MOL0     C62549   8.395   7.244   4.400 -0.2986 -0.5905 -0.3708
  464MOL0    Cl62550   8.419   7.311   4.243  0.1526  0.3884 -0.2582
  464MOL0     C62551   8.603   6.686   4.951 -0.1782 -0.8327 -0.6299
  464MOL0     C62552   8.600   6.547   4.981 -0.7674  0.2112  0.0378
  464MOL0     O62553   8.811   6.369   5.154 -0.4155  0.0355 -1.6550
  464MOL0     C62554   8.759   6.126   5.255  0.4672 -0.3082 -0.6552
  464MOL0     C62555   8.757   5.999   5.307 -0.0975 -0.0983  0.5886
  464MOL0     N62556   8.745   5.444   4.816  0.4620  0.4058  0.0560
  464MOL0     N62557   8.698   5.481   4.691 -0.0603 -0.0663 -0.3697
  464MOL0     C62558   8.058   6.334   4.369  0.8852 -0.5027  0.0942
  464MOL0     C62559   8.036   6.471   4.372  0.4240  0.3588  0.0953
  464MOL0     C62560   7.915   6.865   4.311 -0.4695 -0.5679  0.2350
  464MOL0     C62561   8.015   6.921   4.397  0.4998 -0.8790 -0.7913
  464MOL0     C62562   7.994   7.056   4.450 -0.1202  0.0632 -0.3859
  464MOL0     C62563   7.875   7.123   4.419  0.9703  0.8239  0.6350
  464MOL0     O62564   7.847   7.248   4.467  0.0399 -0.1033  0.1933
  464MOL0     C62565   7.928   7.318   4.564  0.5690  0.3972  0.5478
  464MOL0     C62566   7.841   7.432   4.632  0.1129 -0.3130  0.2350
  464MOL0     C62567   7.916   7.501   4.743  0.7167  0.7879  0.5634
  464MOL0     C62568   7.833   7.606   4.815 -0.0544 -0.2405 -0.6791
  464MOL0     C62569   7.854   7.740   4.750  0.7628  0.7359 -0.4470
  464MOL0     C62570   7.882   7.848   4.706  0.4965  0.1452  0.1286
  464MOL0     C62571   7.777   7.057   4.334  0.4750  0.1487  0.0902
  464MOL0     C62572   7.797   6.930   4.289 -0.6039  0.0026  0.4766
  464MOL0     H62573   8.208   6.554   4.085 -3.7378 -2.2268 -3.1886
  464MOL0     H62574   8.230   6.316   4.067  2.9161  0.5709  1.3923
  464MOL0     H62575   8.110   5.946   4.187  1.1575 -0.9201  0.4929
  464MOL0     H62576   8.131   6.077   4.072 -4.9857  0.4912  0.7083
  464MOL0     H62577   8.321   5.948   4.105 -0.9035  1.7792 -2.1570
  464MOL0     H62578   8.352   6.115   4.156 -1.9592 -0.5332 -1.2651
  464MOL0     H62579   8.394   6.096   4.373 -0.1539 -1.6752  2.8943
  464MOL0     H62580   8.283   5.962   4.386 -2.9825  2.0208 -2.1489
  464MOL0     H62581   8.453   5.812   4.295  0.2401 -0.5930  1.2291
  464MOL0     H62582   8.560   5.959   4.279 -0.9747  0.4151 -0.7898
  464MOL0     H62583   8.476   5.956   4.542 -0.7216 -0.8853  2.5250
  464MOL0     H62584   8.447   5.793   4.503  2.6271 -1.1939 -0.7829
  464MOL0     H62585   8.728   5.875   4.492  1.1288 -1.9865 -0.4409
  464MOL0     H62586   8.629   5.794   4.617 -1.1213  1.8098 -0.3772
  464MOL0     H62587   8.571   5.618   4.469  0.9570 -0.8895  1.0020
  464MOL0     H62588   8.668   5.689   4.338  1.9206  1.1679  0.4233
  464MOL0     H62589   8.888   5.647   4.456 -1.1036  1.6150 -2.5935
  464MOL0     H62590   8.786   5.501   4.436  1.3799 -0.0688  0.1588
  464MOL0     H62591   8.998   5.620   4.688 -0.5519 -1.0416 -0.7622
  464MOL0     H62592   9.021   5.385   4.945 -1.6031 -1.3499 -1.9885
  464MOL0     H62593   9.025   5.555   4.967  0.4816 -1.2469  2.6060
  464MOL0     H62594   8.932   5.420   5.165  0.9652  1.8918 -0.0855
  464MOL0     H62595   8.815   5.355   5.051  2.0178 -0.1157  0.4815
  464MOL0     H62596   8.695   5.509   5.203 -0.3069 -0.6163 -1.4367
  464MOL0     H62597   8.690   5.584   5.054 -3.0722 -2.8603  2.0438
  464MOL0     H62598   8.886   5.724   5.098  1.7543 -1.0180  0.2624
  464MOL0     H62599   8.915   5.660   5.254  0.2703 -1.3039 -1.6644
  464MOL0     H62600   8.680   5.826   5.022 -1.5260 -0.8777  1.5885
  464MOL0     H62601   8.702   5.963   4.838 -1.5308  0.8209 -2.0478
  464MOL0     H62602   8.594   6.101   4.858 -0.0134  1.6574  0.4605
  464MOL0     H62603   8.772   6.125   4.840 -1.8584  0.4566 -2.5567
  464MOL0     H62604   8.904   6.474   4.847  1.9059  0.3461  2.9724
  464MOL0     H62605   8.895   6.715   4.800 -1.4450  2.3630  1.7305
  464MOL0     H62606   8.896   6.921   4.940 -2.7812  1.5642  2.6504
  464MOL0     H62607   8.870   6.919   4.755 -1.5403 -2.0645 -0.3864
  464MOL0     H62608   8.775   7.126   4.954  0.9442 -1.4956  1.5132
  464MOL0     H62609   8.927   7.133   4.868 -0.7112  0.5309  0.9227
  464MOL0     H62610   8.686   7.087   4.712  0.6020 -0.9547  1.3968
  464MOL0     H62611   8.842   7.137   4.655  1.9569 -0.3804  1.8848
  464MOL0     H62612   8.600   7.285   4.796 -1.2599  1.1548 -0.6433
  464MOL0     H62613   8.750   7.352   4.822  0.3730 -0.6158  0.1433
  464MOL0     H62614   8.777   7.323   4.537 -0.5706 -2.4062  0.2558
  464MOL0     H62615   8.730   7.470   4.635  1.6184 -1.4881 -0.7231
  464MOL0     H62616   8.487   7.396   4.606 -1.9664 -2.2995 -1.6088
  464MOL0     H62617   8.572   7.454   4.456  0.1075  0.7752  0.0079
  464MOL0     H62618   8.523   7.172   4.555  0.6806 -1.1351 -0.9237
  464MOL0     H62619   8.613   7.227   4.407 -0.0665  3.7319 -2.2419
  464MOL0     H62620   8.310   7.299   4.442  0.9172  0.6200  0.5711
  464MOL0     H62621   8.357   7.141   4.402  2.3359 -1.6558  2.7266
  464MOL0     H62622   8.517   6.748   4.975 -0.4608 -1.7159  0.7418
  464MOL0     H62623   8.522   6.496   5.035 -1.4240  0.4944 -0.6216
  464MOL0     H62624   8.780   6.205   5.326 -1.4310 -0.0145 -0.3671
  464MOL0     H62625   8.774   5.976   5.412  0.1963  0.9019  0.7744
  464MOL0     H62626   8.018   6.264   4.441 -0.9261 -1.0558 -1.3777
  464MOL0     H62627   7.996   6.516   4.462  1.3017  0.3686  0.4946
  464MOL0     H62628   8.107   6.871   4.423  0.7107  0.6744  1.8617
  464MOL0     H62629   8.060   7.105   4.521 -1.0663  0.2215  0.3986
  464MOL0     H62630   7.968   7.252   4.641 -1.3407  1.9072  2.9445
  464MOL0     H62631   8.014   7.360   4.511  0.5615 -0.3092 -0.0516
  464MOL0     H62632   7.753   7.384   4.676  0.0710 -0.4295  0.0287
  464MOL0     H62633   7.817   7.503   4.553  2.7882  2.2515  1.5411
  464MOL0     H62634   8.013   7.536   4.708  3.6797 -4.4722  2.4429
  464MOL0     H62635   7.945   7.419   4.810  0.6967 -0.5572 -1.0359
  464MOL0     H62636   7.857   7.612   4.921  2.3236 -0.7195 -1.1192
  464MOL0     H62637   7.728   7.579   4.800  0.3124 -0.8498 -2.4947
  464MOL0     H62638   7.914   7.935   4.653  0.6020 -0.6690 -1.2231
  464MOL0     H62639   7.693   7.119   4.305  1.7997  4.5171  4.1815
  464MOL0     H62640   7.726   6.891   4.216  1.3673 -0.5561 -1.2466
  465MOL0     O62641   7.747   5.931   3.369 -0.6014  0.2233 -0.6904
  465MOL0     C62642   7.740   5.846   3.272  0.3037 -0.3346  0.0744
  465MOL0     O62643   7.820   5.743   3.260 -0.4217 -0.4770 -0.8488
  465MOL0     C62644   7.931   5.737   3.336 -0.2431 -0.1293  0.3192
  465MOL0     C62645   8.064   5.756   3.284  0.2699  1.0060  0.0884
  465MOL0     C62646   8.176   5.719   3.360 -0.1609  0.1496 -1.0967
  465MOL0     C62647   8.167   5.678   3.494 -0.4340 -0.1360  0.0316
  465MOL0     O62648   8.272   5.627   3.564 -0.6837  0.7202 -0.3222
  465MOL0     C62649   8.393   5.568   3.495 -0.4853 -0.2056  0.2651
  465MOL0     C62650   8.440   5.437   3.549  0.0360  0.0241  0.2597
  465MOL0     C62651   8.582   5.406   3.491 -0.2955 -1.1432 -0.1114
  465MOL0     C62652   8.695   5.476   3.567  0.0399 -0.4165 -0.0532
  465MOL0     C62653   8.730   5.406   3.696 -1.0258 -0.0267 -0.2126
  465MOL0     C62654   8.877   5.459   3.728  0.2433 -0.2437 -0.2478
  465MOL0     C62655   8.927   5.385   3.849  1.0937  0.5401 -0.3828
  465MOL0     C62656   8.838   5.404   3.972  0.1760  0.2231  0.5828
  465MOL0     N62657   8.907   5.383   4.100  0.3737  0.2945  0.1917
  465MOL0     C62658   8.981   5.275   4.141  0.6170 -0.2616 -0.0433
  465MOL0     C62659   9.038   5.315   4.253 -0.1039  1.1354 -0.3868
  465MOL0     C62660   9.096   5.230   4.368  0.0900 -0.5465  0.5012
  465MOL0     C62661   9.005   5.227   4.490  0.5294 -0.4435 -0.0516
  465MOL0     C62662   8.870   5.164   4.473 -0.0616  0.0524 -0.2888
  465MOL0     C62663   8.866   5.008   4.434  0.2852  0.0623  0.4065
  465MOL0     O62664   8.927   4.979   4.299  0.4079 -0.3255 -0.7741
  465MOL0     C62665   8.920   4.853   4.241 -0.0478 -0.4448 -0.3647
  465MOL0     C62666   8.833   4.753   4.284 -0.3734 -0.4749  0.1549
  465MOL0     C62667   8.846   4.627   4.236 -0.0407  0.7532  0.6268
  465MOL0     C62668   8.758   4.521   4.299 -0.0432  0.2009  0.1275
  465MOL0     C62669   8.936   4.591   4.136 -0.1407  0.6718  0.3407
  465MOL0     C62670   8.950   4.455   4.074 -0.6290 -0.2718 -0.0287
  465MOL0     O62671   8.912   4.336   4.145  0.5692 -1.2900 -1.2458
  465MOL0     C62672   8.960   4.218   4.098  0.2860  0.3364  0.4854
  465MOL0     C62673   8.890   4.159   3.988 -0.7606 -0.3454  0.7447
  465MOL0     C62674   8.957   4.056   3.922 -0.0815  0.0306  0.3523
  465MOL0     C62675   9.081   3.995   3.959  0.1903 -0.5742  0.8167
  465MOL0     O62676   9.138   3.888   3.901  0.3661 -0.2272 -0.6418
  465MOL0     C62677   9.283   3.874   3.916  0.6895 -0.6411 -0.0149
  465MOL0     C62678   9.315   3.753   3.825  0.1200 -0.0541  0.0578
  465MOL0     C62679   9.295   3.784   3.675  0.3493  0.6636  0.4291
  465MOL0     C62680   9.421   3.771   3.587  0.1866 -0.2593  0.3791
  465MOL0     C62681   9.396   3.751   3.435 -0.5768 -0.0672 -0.4138
  465MOL0     C62682   9.306   3.630   3.399 -0.0677  0.3308  0.1328
  465MOL0     C62683   9.319   3.588   3.246  0.3428  0.3536 -0.4833
  465MOL0     C62684   9.229   3.461   3.231 -0.3461 -0.7926  0.3372
  465MOL0    Cl62685   9.231   3.432   3.063  0.2354 -0.3086  0.9890
  465MOL0     C62686   9.135   4.054   4.075 -0.7053 -0.4358  0.6160
  465MOL0     C62687   9.078   4.162   4.138 -1.0478 -0.2360  0.8157
  465MOL0     O62688   9.009   4.448   3.963 -1.0913 -0.1990 -0.8204
  465MOL0     C62689   9.000   4.705   4.076 -0.1872 -0.0812  0.0511
  465MOL0     C62690   8.987   4.836   4.127  0.2147  0.2472  0.9519
  465MOL0     N62691   9.022   5.446   4.274 -0.5321  0.0661 -0.4619
  465MOL0     N62692   8.952   5.491   4.173 -0.1518 -0.3769 -0.6677
  465MOL0     C62693   8.043   5.668   3.545 -0.0605  0.6891  0.0329
  465MOL0     C62694   7.923   5.695   3.473  0.9461  0.6025  0.9280
  465MOL0     C62695   7.629   5.853   3.177 -0.3040  0.2797 -0.2566
  465MOL0     C62696   7.592   5.740   3.096  0.7451  0.7809 -0.3196
  465MOL0     C62697   7.488   5.746   3.000  0.8476 -0.4056  0.5271
  465MOL0     C62698   7.417   5.877   2.980  0.1240  0.2255 -0.3518
  465MOL0     O62699   7.324   5.913   2.886 -0.7786  0.2883 -0.0521
  465MOL0     C62700   7.312   5.823   2.771  0.4308  0.3719  0.2942
  465MOL0     C62701   7.241   5.906   2.664 -0.6707  0.6140 -0.1202
  465MOL0     C62702   7.258   5.847   2.517 -0.4780 -0.1673  0.0019
  465MOL0     C62703   7.162   5.910   2.415 -0.1959 -0.3519 -1.2998
  465MOL0     C62704   7.028   5.838   2.431  0.0775 -0.1761 -0.0293
  465MOL0     C62705   6.927   5.773   2.434  0.8181 -0.4076  0.2528
  465MOL0     C62706   7.448   5.980   3.067  0.3277 -0.4544 -0.9636
  465MOL0     C62707   7.555   5.968   3.159  0.8141  0.2086  0.6637
  465MOL0     H62708   8.080   5.772   3.178 -2.6588 -3.9401 -1.4256
  465MOL0     H62709   8.279   5.718   3.327  1.3906 -1.7812  3.1004
  465MOL0     H62710   8.364   5.558   3.390 -0.8202  5.5006 -0.4702
  465MOL0     H62711   8.469   5.646   3.484 -2.3780  1.7129  0.0984
  465MOL0     H62712   8.442   5.432   3.658 -1.3724 -0.1189  0.2974
  465MOL0     H62713   8.372   5.357   3.519 -0.4122 -0.4377  2.3798
  465MOL0     H62714   8.601   5.299   3.484 -0.1827 -1.2288  1.1985
  465MOL0     H62715   8.585   5.456   3.394  0.6159 -3.2390 -1.2261
  465MOL0     H62716   8.781   5.472   3.499  0.1615 -0.2326  0.0900
  465MOL0     H62717   8.668   5.580   3.585 -3.1629 -0.9889 -0.8683
  465MOL0     H62718   8.671   5.442   3.781 -0.1091  3.3607 -0.8535
  465MOL0     H62719   8.722   5.297   3.694  0.1051 -0.1253 -0.3149
  465MOL0     H62720   8.953   5.460   3.648  0.1119 -0.4345 -0.3775
  465MOL0     H62721   8.860   5.563   3.757 -0.9703  0.0282 -1.7645
  465MOL0     H62722   8.943   5.280   3.824  0.7626  0.3281  0.2786
  465MOL0     H62723   9.028   5.420   3.874  1.9169 -1.4625 -0.6603
  465MOL0     H62724   8.759   5.328   3.967  1.7278 -1.3975 -3.2877
  465MOL0     H62725   8.793   5.504   3.968 -3.4470 -1.2666 -1.6450
  465MOL0     H62726   8.977   5.169   4.117  1.2977 -0.7704  1.8888
  465MOL0     H62727   9.133   5.129   4.346  0.0805 -0.5721  0.6012
  465MOL0     H62728   9.190   5.279   4.393  1.0329 -1.6434 -0.7533
  465MOL0     H62729   9.005   5.332   4.520 -0.1330  0.0819 -1.7551
  465MOL0     H62730   9.057   5.169   4.566  0.7471 -1.8689 -1.2422
  465MOL0     H62731   8.805   5.217   4.402 -0.6112  0.8718  0.7872
  465MOL0     H62732   8.825   5.180   4.572 -0.8042 -3.0821 -0.0158
  465MOL0     H62733   8.761   4.981   4.419 -0.1256  2.3224 -1.4299
  465MOL0     H62734   8.921   4.948   4.507  1.3163  0.4441 -0.0402
  465MOL0     H62735   8.768   4.787   4.363  0.6772 -0.3378  0.9836
  465MOL0     H62736   8.829   4.462   4.359  2.3857  0.2868 -2.4690
  465MOL0     H62737   8.684   4.576   4.358 -0.8060  2.2400 -2.5565
  465MOL0     H62738   8.711   4.455   4.226  1.6404 -0.0569 -0.7732
  465MOL0     H62739   8.798   4.199   3.947  0.1013 -0.1411 -1.0882
  465MOL0     H62740   8.912   4.015   3.833  2.6898  0.8539 -1.5363
  465MOL0     H62741   9.339   3.964   3.889 -1.1038  0.2721 -0.8649
  465MOL0     H62742   9.296   3.837   4.018 -0.6020  1.4362  0.9614
  465MOL0     H62743   9.415   3.718   3.852  0.6352  1.1863 -0.1501
  465MOL0     H62744   9.247   3.675   3.860 -0.0393 -0.3468 -0.8809
  465MOL0     H62745   9.259   3.886   3.661  3.3309  2.2182  2.7809
  465MOL0     H62746   9.210   3.720   3.653  0.4072  0.3292  1.1389
  465MOL0     H62747   9.480   3.862   3.602 -1.8455  0.9669  1.5009
  465MOL0     H62748   9.482   3.686   3.618  1.1178  0.1698 -0.2111
  465MOL0     H62749   9.494   3.747   3.388  1.3357 -1.4701  3.2699
  465MOL0     H62750   9.349   3.843   3.399  2.0118  2.4056  2.0276
  465MOL0     H62751   9.326   3.551   3.472 -2.8823  1.7562  2.6666
  465MOL0     H62752   9.199   3.649   3.411 -1.1107 -2.6793 -2.8959
  465MOL0     H62753   9.424   3.568   3.221  1.2359  3.0728  0.7056
  465MOL0     H62754   9.278   3.658   3.172 -1.1516 -0.6039 -0.6007
  465MOL0     H62755   9.132   3.485   3.275 -1.7570 -2.5706 -1.6472
  465MOL0     H62756   9.283   3.385   3.288  0.7575  0.3002  0.8020
  465MOL0     H62757   9.223   4.005   4.116  0.7581  1.8115  0.3279
  465MOL0     H62758   9.136   4.212   4.215  1.7255  0.7828 -1.7574
  465MOL0     H62759   9.074   4.698   3.997 -1.3900  1.9362 -1.3357
  465MOL0     H62760   9.033   4.917   4.071  1.0334  0.0887  1.3781
  465MOL0     H62761   8.050   5.640   3.650  0.4174 -0.4849 -0.2902
  465MOL0     H62762   7.825   5.685   3.519  0.6326  1.6481  0.5196
  465MOL0     H62763   7.661   5.657   3.108  2.7156  2.4985  0.8011
  465MOL0     H62764   7.457   5.663   2.938  1.2580 -0.9553  1.0352
  465MOL0     H62765   7.406   5.794   2.724  0.1924 -0.0953  0.0925
  465MOL0     H62766   7.259   5.729   2.791 -0.3877  0.1851 -2.3743
  465MOL0     H62767   7.291   6.003   2.657  1.6440 -0.4000  1.2681
  465MOL0     H62768   7.137   5.922   2.693 -0.4371  1.9249  0.0700
  465MOL0     H62769   7.239   5.739   2.519  1.1151 -0.4733  2.6961
  465MOL0     H62770   7.359   5.873   2.485 -1.0970  3.0695  0.2694
  465MOL0     H62771   7.202   5.906   2.314 -0.4400 -2.0317 -1.3606
  465MOL0     H62772   7.156   6.017   2.437  1.4990 -0.5086  0.1733
  465MOL0     H62773   6.840   5.711   2.431 -0.6437  1.5040  0.9298
  465MOL0     H62774   7.382   6.066   3.064  0.1797 -0.4866  0.5600
  465MOL0     H62775   7.579   6.057   3.216  0.4458 -0.7623  2.3683
  466MOL0     O62776   5.238   9.785  10.063  0.0185  0.4425  0.1957
  466MOL0     C62777   5.205   9.800   9.946 -1.2180  0.6155  1.0702
  466MOL0     O62778   5.182   9.693   9.862 -0.6004  0.9734 -1.2226
  466MOL0     C62779   5.143   9.578   9.930 -0.2091  0.0036  0.6046
  466MOL0     C62780   5.017   9.575   9.992 -0.9510  0.4450  0.1041
  466MOL0     C62781   4.992   9.465  10.076 -0.6966 -0.8389 -0.2902
  466MOL0     C62782   5.074   9.351  10.078  0.3136  0.1327 -0.1215
  466MOL0     O62783   5.059   9.245  10.157  0.2309 -0.3310 -0.3781
  466MOL0     C62784   4.930   9.226  10.220 -0.6004 -0.5587 -0.7244
  466MOL0     C62785   4.838   9.173  10.111  0.6963  0.4561  0.6667
  466MOL0     C62786   4.696   9.166  10.183  0.3169  0.1905 -0.5250
  466MOL0     C62787   4.586   9.261  10.134 -0.3132  0.9015 -0.6508
  466MOL0     C62788   4.444   9.231  10.177  0.6606 -0.4688 -0.1163
  466MOL0     C62789   4.405   9.097  10.233 -0.1332  0.5618 -0.3058
  466MOL0     C62790   4.258   9.105  10.268  0.4245  0.1066  0.3982
  466MOL0     C62791   4.193   8.988  10.346 -0.5095 -0.2810  0.9156
  466MOL0     N62792   4.275   8.971  10.464  0.5002  0.3579  0.5493
  466MOL0     C62793   4.252   9.042  10.580  0.0030 -0.2521 -1.0289
  466MOL0     C62794   4.331   8.986  10.677 -0.5646  1.7753  0.9006
  466MOL0     C62795   4.350   9.015  10.825 -0.3326  0.3534 -0.8003
  466MOL0     C62796   4.258   8.927  10.917 -0.0733  0.1561 -0.5886
  466MOL0     C62797   4.259   8.979  11.060  0.6410  0.1751 -0.3572
  466MOL0     C62798   4.394   9.011  11.122 -0.6536 -0.9305  0.1966
  466MOL0     O62799   4.376   9.083  11.251  0.5416 -0.1379 -0.6408
  466MOL0     C62800   4.396   9.215  11.243 -0.0964 -1.1307  0.4366
  466MOL0     C62801   4.531   9.263  11.274  0.5016 -0.3078  0.0247
  466MOL0     C62802   4.576   9.393  11.253  0.4597  0.1970  0.2448
  466MOL0     C62803   4.722   9.425  11.296  0.3934 -0.8523  0.8140
  466MOL0     C62804   4.482   9.488  11.219  1.4472  0.3232 -0.2271
  466MOL0     C62805   4.509   9.626  11.212  0.9601 -0.6817 -0.3655
  466MOL0     O62806   4.443   9.692  11.119  0.2188 -0.0044  0.5650
  466MOL0     C62807   4.452   9.828  11.085  0.2215 -0.9644 -0.4340
  466MOL0     C62808   4.518   9.926  11.154 -0.1394 -0.1157  0.3394
  466MOL0     C62809   4.517  10.055  11.107  0.0427 -0.3539  0.5614
  466MOL0     C62810   4.444  10.089  10.990 -1.0439 -0.1748  0.6662
  466MOL0     O62811   4.459  10.226  10.953  0.1817  1.1009 -0.2480
  466MOL0     C62812   4.409  10.265  10.821 -0.2688  0.0014 -0.6958
  466MOL0     C62813   4.456  10.411  10.813  0.4463 -0.5705 -0.4793
  466MOL0     C62814   4.516  10.448  10.685  0.0900  0.2528  0.4715
  466MOL0     C62815   4.579  10.587  10.694  0.4653  0.2520 -0.1463
  466MOL0     C62816   4.724  10.574  10.659  0.6876 -0.6236  0.2913
  466MOL0     C62817   4.805  10.504  10.774  0.1580  1.1770  0.2268
  466MOL0     C62818   4.950  10.469  10.731  0.2290 -0.5848 -0.1855
  466MOL0     C62819   5.016  10.355  10.804 -1.1201  0.3222  0.3178
  466MOL0    Cl62820   5.043  10.408  10.970  0.0585 -0.1802  0.5652
  466MOL0     C62821   4.382   9.987  10.912 -0.2304  0.2995 -0.5723
  466MOL0     C62822   4.390   9.859  10.957  1.6170 -0.5017 -0.7009
  466MOL0     O62823   4.579   9.685  11.297 -0.6803  0.3553  0.1362
  466MOL0     C62824   4.344   9.448  11.212 -0.3019 -0.9525 -1.0338
  466MOL0     C62825   4.302   9.314  11.220 -0.3121 -0.0313 -0.5147
  466MOL0     N62826   4.398   8.882  10.613  0.5071 -1.1386  0.9059
  466MOL0     N62827   4.363   8.872  10.488 -0.6716  0.4946 -0.3675
  466MOL0     C62828   5.200   9.355  10.006 -0.5291 -0.7535 -0.0474
  466MOL0     C62829   5.227   9.468   9.936 -0.5654 -0.2633  0.0321
  466MOL0     C62830   5.192   9.943   9.898 -0.0182  0.3962 -0.3551
  466MOL0     C62831   5.151   9.978   9.763  0.6591 -0.1838 -0.7289
  466MOL0     C62832   5.123  10.106   9.724  0.9454 -0.3178 -1.0414
  466MOL0     C62833   5.110  10.207   9.822 -0.4580  0.6005  0.9024
  466MOL0     O62834   5.038  10.325   9.807  0.3265  0.2612  0.4318
  466MOL0     C62835   4.947  10.358   9.698  0.0723  0.5330  0.1172
  466MOL0     C62836   4.887  10.495   9.728 -0.4662  0.0027 -0.1085
  466MOL0     C62837   4.743  10.488   9.666 -0.4863 -0.1380 -1.0572
  466MOL0     C62838   4.681  10.624   9.652  0.4436  0.1251 -0.8673
  466MOL0     C62839   4.550  10.628   9.595  0.1369  1.1842 -0.5778
  466MOL0     C62840   4.441  10.618   9.537 -0.3388 -1.1119 -0.4376
  466MOL0     C62841   5.168  10.175   9.950  0.4850  0.3509 -0.2970
  466MOL0     C62842   5.210  10.048   9.989 -1.2034  0.2205  0.2259
  466MOL0     H62843   4.948   9.659   9.990  1.6030  2.6440 -0.4410
  466MOL0     H62844   4.907   9.477  10.142  1.2067 -1.0007  2.3423
  466MOL0     H62845   4.945   9.158  10.304  1.1305 -1.3900 -1.6444
  466MOL0     H62846   4.892   9.320  10.262  2.1644 -0.0824  0.9415
  466MOL0     H62847   4.827   9.239  10.024  3.1713 -1.4570 -1.2759
  466MOL0     H62848   4.882   9.078  10.078  0.0355  0.3766 -0.0231
  466MOL0     H62849   4.657   9.066  10.164  1.6005 -0.6425  0.9976
  466MOL0     H62850   4.707   9.166  10.292 -2.8257 -0.1021 -0.1081
  466MOL0     H62851   4.618   9.365  10.145  3.6053 -0.0445 -1.6721
  466MOL0     H62852   4.601   9.241  10.028  4.0148  1.2192 -0.2573
  466MOL0     H62853   4.422   9.285  10.270  1.4337 -4.0878  2.3748
  466MOL0     H62854   4.367   9.260  10.105 -1.5666  0.1263  2.3345
  466MOL0     H62855   4.434   9.021  10.160  0.5802 -0.0359  0.5873
  466MOL0     H62856   4.460   9.070  10.324  0.9848 -2.8311 -1.8372
  466MOL0     H62857   4.243   9.186  10.340  0.9539  1.0018 -0.4759
  466MOL0     H62858   4.195   9.125  10.181 -3.5283 -0.0304  2.9414
  466MOL0     H62859   4.198   8.894  10.291 -1.2778 -0.8069  1.7204
  466MOL0     H62860   4.094   9.022  10.379 -0.4562 -0.5792  1.3905
  466MOL0     H62861   4.189   9.128  10.599  1.5496  0.9438 -1.1027
  466MOL0     H62862   4.454   8.992  10.853 -0.7364  0.5588  1.0335
  466MOL0     H62863   4.334   9.120  10.850 -0.0790  0.0225  0.9386
  466MOL0     H62864   4.291   8.823  10.914 -0.2585  0.0857 -0.2398
  466MOL0     H62865   4.161   8.923  10.867  1.1740  1.3420 -3.2705
  466MOL0     H62866   4.212   8.905  11.125  5.0332 -0.4306  2.5374
  466MOL0     H62867   4.206   9.073  11.043 -0.8557 -0.6818 -0.6768
  466MOL0     H62868   4.437   9.074  11.043 -1.7418 -2.3986 -1.6385
  466MOL0     H62869   4.456   8.926  11.150  0.8888 -0.5298 -1.7917
  466MOL0     H62870   4.603   9.187  11.304 -1.1771 -2.3247 -0.8854
  466MOL0     H62871   4.718   9.472  11.395  2.3756 -0.5488  0.8026
  466MOL0     H62872   4.778   9.332  11.304 -0.8806 -1.7657 -0.3719
  466MOL0     H62873   4.768   9.497  11.228 -0.1719 -0.7730  0.5093
  466MOL0     H62874   4.575   9.928  11.247  1.2789  8.7568  0.2198
  466MOL0     H62875   4.555  10.133  11.172 -5.6355  1.6866  2.0274
  466MOL0     H62876   4.464  10.200  10.752 -0.6073 -2.8492  1.4707
  466MOL0     H62877   4.302  10.246  10.809 -0.7718  1.7083  0.6397
  466MOL0     H62878   4.371  10.475  10.839  0.1640 -0.7831 -0.8735
  466MOL0     H62879   4.535  10.422  10.888  1.9086 -1.6500 -1.8164
  466MOL0     H62880   4.434  10.458  10.613  0.6411  0.6631 -0.1124
  466MOL0     H62881   4.586  10.368  10.661  2.8008  1.2235  4.2687
  466MOL0     H62882   4.528  10.652  10.623  1.1433  1.3229  0.3324
  466MOL0     H62883   4.568  10.620  10.798  3.6379 -1.9459  1.0424
  466MOL0     H62884   4.774  10.671  10.647 -0.1598 -0.2896 -0.6649
  466MOL0     H62885   4.726  10.516  10.566 -1.4178  1.2346 -1.0191
  466MOL0     H62886   4.802  10.571  10.860 -1.3035 -0.7943  1.7835
  466MOL0     H62887   4.760  10.409  10.805 -1.2428  1.7177 -0.0634
  466MOL0     H62888   5.009  10.560  10.716  0.5659 -0.9285 -1.0157
  466MOL0     H62889   4.937  10.439  10.626 -3.8074  1.5435 -0.4807
  466MOL0     H62890   5.113  10.327  10.762 -1.4238  0.2242 -0.3387
  466MOL0     H62891   4.942  10.275  10.812 -1.2538  0.4665  0.5173
  466MOL0     H62892   4.343  10.016  10.816 -2.4611  1.7731  0.7025
  466MOL0     H62893   4.326   9.788  10.907 -1.4849  0.6283  1.3636
  466MOL0     H62894   4.269   9.522  11.188  1.6252  1.4634  0.0287
  466MOL0     H62895   4.200   9.293  11.191 -0.4615  1.5970 -1.2650
  466MOL0     H62896   5.267   9.270  10.010 -1.0520 -1.1582  3.3494
  466MOL0     H62897   5.322   9.471   9.884 -0.6692 -1.0136 -0.2060
  466MOL0     H62898   5.137   9.903   9.686  1.3754  2.7038 -3.9284
  466MOL0     H62899   5.088  10.134   9.625 -1.3960  0.9199  0.0384
  466MOL0     H62900   4.994  10.359   9.599 -0.9592  0.5415 -0.3797
  466MOL0     H62901   4.870  10.281   9.700  0.3558  0.2506  1.1309
  466MOL0     H62902   4.941  10.579   9.681  0.2745  3.5526  6.0191
  466MOL0     H62903   4.877  10.512   9.835  0.7039  0.4333 -0.0566
  466MOL0     H62904   4.678  10.418   9.719  1.0177 -0.7078  0.1278
  466MOL0     H62905   4.754  10.441   9.568  0.4315 -5.9473  1.3730
  466MOL0     H62906   4.751  10.685   9.594  1.3385 -0.3669 -0.3163
  466MOL0     H62907   4.678  10.666   9.753 -1.4034 -1.4289 -0.2074
  466MOL0     H62908   4.346  10.631   9.489  0.9514  0.9068 -2.6721
  466MOL0     H62909   5.171  10.252  10.027  0.7763  0.7137 -0.6662
  466MOL0     H62910   5.258  10.023  10.083 -2.7528  1.6359  1.4405
  467MOL0     O62911   1.609  11.280   2.925  0.2482  0.1793  0.0880
  467MOL0     C62912   1.623  11.355   2.825 -0.5951  0.4600  0.0878
  467MOL0     O62913   1.742  11.381   2.763  0.8771  0.3394 -0.2277
  467MOL0     C62914   1.865  11.344   2.808 -0.9071  0.0657 -0.1259
  467MOL0     C62915   1.900  11.294   2.934  0.0705  0.3583 -1.0242
  467MOL0     C62916   2.028  11.265   2.981 -0.2241 -0.6372  1.1823
  467MOL0     C62917   2.132  11.308   2.893  0.7707 -0.0670 -1.6276
  467MOL0     O62918   2.268  11.317   2.927  0.0930  0.1206  0.8206
  467MOL0     C62919   2.309  11.233   3.038  0.3475 -0.2408  0.2585
  467MOL0     C62920   2.466  11.239   3.033  1.0724 -0.5702 -0.0641
  467MOL0     C62921   2.519  11.370   3.102 -0.0652  0.1973  0.0627
  467MOL0     C62922   2.670  11.374   3.089  0.4096  0.1910 -0.6748
  467MOL0     C62923   2.738  11.487   3.173 -0.3694  0.6135  0.2179
  467MOL0     C62924   2.657  11.617   3.155 -0.0442  0.1443  0.2287
  467MOL0     C62925   2.646  11.670   3.020  0.5906  0.3714  0.4104
  467MOL0     C62926   2.769  11.723   2.963 -0.7092 -0.1749 -0.2049
  467MOL0     N62927   2.795  11.860   3.003  0.2077 -0.1604 -0.3673
  467MOL0     C62928   2.725  11.980   2.986 -0.8848  0.8690 -0.8280
  467MOL0     C62929   2.806  12.067   3.038  0.6029 -0.4485  0.6376
  467MOL0     C62930   2.766  12.206   3.029  0.3706 -0.5154  0.7437
  467MOL0     C62931   2.823  12.279   2.909 -0.1187 -0.6853  0.3767
  467MOL0     C62932   2.780  12.425   2.887 -0.1698 -1.1316  0.2027
  467MOL0     C62933   2.765  12.508   3.015  0.1516  0.6988 -0.2307
  467MOL0     O62934   2.896  12.538   3.068 -0.4258 -0.1056 -0.4472
  467MOL0     C62935   2.906  12.557   3.206 -0.2901 -1.1016  0.3809
  467MOL0     C62936   2.986  12.482   3.293 -0.3018  0.1008  0.5254
  467MOL0     C62937   3.002  12.515   3.431  0.0347  0.1112  0.1989
  467MOL0     C62938   3.086  12.418   3.512 -0.4795 -0.0990  0.4335
  467MOL0     C62939   2.918  12.609   3.488 -0.6101 -0.4233 -0.5961
  467MOL0     C62940   2.919  12.650   3.632  0.2901 -1.0499  0.3446
  467MOL0     O62941   3.039  12.644   3.699 -0.3029  0.3688 -0.6762
  467MOL0     C62942   3.045  12.682   3.826  0.0809  0.2670 -0.8399
  467MOL0     C62943   3.042  12.820   3.851 -0.0453  0.1996 -0.4636
  467MOL0     C62944   3.047  12.876   3.978  0.5931  0.0040 -0.2993
  467MOL0     C62945   3.052  12.786   4.085 -0.3712 -0.5919 -0.6151
  467MOL0     O62946   3.067  12.833   4.210  0.9901  0.3046 -0.6676
  467MOL0     C62947   3.020  12.967   4.243  1.1386 -1.4200  0.7598
  467MOL0     C62948   3.024  12.986   4.391 -0.9761  1.4335 -0.4025
  467MOL0     C62949   2.956  13.102   4.446  0.0176  0.4372  1.3839
  467MOL0     C62950   3.023  13.225   4.401  0.3822 -0.2565 -0.2538
  467MOL0     C62951   2.957  13.347   4.469  0.4121 -1.0030  0.7107
  467MOL0     C62952   2.813  13.361   4.436  0.5121 -0.4186 -0.1314
  467MOL0     C62953   2.759  13.500   4.470 -0.1892  0.5419  0.3066
  467MOL0     C62954   2.619  13.508   4.442  0.4402  0.1611  0.5336
  467MOL0    Cl62955   2.591  13.451   4.274  0.0740  0.1949  0.1911
  467MOL0     C62956   3.066  12.650   4.064 -0.2602  0.0464  0.2412
  467MOL0     C62957   3.064  12.592   3.933 -0.1874 -0.7616 -0.8583
  467MOL0     O62958   2.815  12.702   3.682  0.0276 -0.4582 -0.5973
  467MOL0     C62959   2.840  12.687   3.396 -0.3528 -0.4397 -0.2539
  467MOL0     C62960   2.839  12.665   3.265  0.0379 -0.5451  0.0296
  467MOL0     N62961   2.926  12.020   3.091 -0.2392 -0.2840  0.1596
  467MOL0     N62962   2.914  11.891   3.061 -1.1179 -0.1898 -0.1538
  467MOL0     C62963   2.104  11.353   2.762 -0.9012 -0.7940 -0.7956
  467MOL0     C62964   1.975  11.363   2.717 -0.2501 -0.8562  1.2141
  467MOL0     C62965   1.490  11.433   2.786 -0.4026  0.2546  0.0037
  467MOL0     C62966   1.387  11.444   2.890 -0.0917 -0.2200  1.2335
  467MOL0     C62967   1.268  11.498   2.839  0.5465  0.6189  0.5333
  467MOL0     C62968   1.256  11.566   2.719 -0.5658  0.2102 -0.6257
  467MOL0     O62969   1.142  11.627   2.682 -0.2720 -0.2309 -0.2339
  467MOL0     C62970   1.034  11.661   2.767  0.8633 -0.3141  0.8477
  467MOL0     C62971   0.937  11.754   2.691 -0.4370 -1.0681 -0.3291
  467MOL0     C62972   0.824  11.672   2.626 -0.4371 -0.1894 -0.2525
  467MOL0     C62973   0.730  11.754   2.531 -0.0094 -0.5467  0.8585
  467MOL0     C62974   0.603  11.690   2.554  0.4796  0.5049 -0.5256
  467MOL0     C62975   0.496  11.627   2.579  0.2389 -0.9592 -0.0846
  467MOL0     C62976   1.369  11.564   2.638 -0.8003  0.2320 -0.1000
  467MOL0     C62977   1.490  11.495   2.666  0.0671 -0.4756 -0.2320
  467MOL0     H62978   1.821  11.274   3.006 -1.0385 -2.3870 -2.8574
  467MOL0     H62979   2.050  11.222   3.078  0.0615 -0.0491  1.3813
  467MOL0     H62980   2.280  11.278   3.134  0.9481 -2.1985  1.4006
  467MOL0     H62981   2.264  11.134   3.032  1.2455 -0.7073  0.9861
  467MOL0     H62982   2.516  11.152   3.078  1.1987  0.1026  1.1252
  467MOL0     H62983   2.492  11.243   2.927  0.3159 -2.9509 -0.4036
  467MOL0     H62984   2.464  11.457   3.067 -1.2687 -1.1588 -1.6053
  467MOL0     H62985   2.498  11.368   3.209  0.7867  2.7994  0.3390
  467MOL0     H62986   2.724  11.283   3.119 -1.8776 -1.5444 -1.5024
  467MOL0     H62987   2.691  11.391   2.983  0.0010 -0.4564 -0.8647
  467MOL0     H62988   2.729  11.454   3.277 -0.8263 -1.9236 -0.5569
  467MOL0     H62989   2.841  11.502   3.138  0.6291 -0.3551  2.4902
  467MOL0     H62990   2.564  11.601   3.211  1.1947 -2.4942  1.6956
  467MOL0     H62991   2.708  11.691   3.218 -2.4533  0.8289  1.5311
  467MOL0     H62992   2.620  11.591   2.949  3.5081  0.4969 -0.9460
  467MOL0     H62993   2.564  11.742   3.022 -1.3731 -1.7500  1.7241
  467MOL0     H62994   2.748  11.725   2.856  1.4106  0.5542 -0.6562
  467MOL0     H62995   2.859  11.661   2.978  0.1980  1.1436 -0.0252
  467MOL0     H62996   2.631  11.990   2.932 -2.4057 -3.2236  0.7190
  467MOL0     H62997   2.658  12.220   3.023  0.4159  0.4027  1.7162
  467MOL0     H62998   2.806  12.262   3.114  0.4383  1.1358 -0.3323
  467MOL0     H62999   2.784  12.236   2.816 -2.6279  2.3237 -0.1362
  467MOL0     H63000   2.931  12.283   2.925 -0.0391  4.5517  0.4641
  467MOL0     H63001   2.679  12.418   2.847 -1.3961  2.6171  2.1253
  467MOL0     H63002   2.836  12.474   2.806 -0.8697  3.3624  2.1264
  467MOL0     H63003   2.698  12.453   3.081  1.3590 -1.1855 -0.5238
  467MOL0     H63004   2.722  12.602   2.978  0.8729  0.1793 -2.5359
  467MOL0     H63005   3.041  12.404   3.242 -0.1607  2.1763 -2.8220
  467MOL0     H63006   3.143  12.353   3.445  1.7820  3.5042 -1.3978
  467MOL0     H63007   3.156  12.474   3.574  0.5943 -3.2013  2.2661
  467MOL0     H63008   3.025  12.353   3.576 -1.7459  0.0170 -0.6052
  467MOL0     H63009   3.023  12.883   3.765 -1.4095 -2.2375 -2.0593
  467MOL0     H63010   3.032  12.982   3.991  1.4362  0.0474  0.4442
  467MOL0     H63011   3.076  13.046   4.193 -0.0605 -1.3993 -0.6297
  467MOL0     H63012   2.916  12.991   4.216  1.6619  1.1695  0.7917
  467MOL0     H63013   2.991  12.892   4.437  0.5486  0.4800 -1.1379
  467MOL0     H63014   3.132  12.989   4.413 -1.4617 -1.2129  3.2673
  467MOL0     H63015   2.957  13.093   4.555 -2.5900 -1.4897  1.3489
  467MOL0     H63016   2.849  13.106   4.423 -0.1634  0.2210  2.1577
  467MOL0     H63017   3.122  13.223   4.448 -0.3679 -0.4517  1.3912
  467MOL0     H63018   3.029  13.241   4.293  1.0256 -1.1385 -0.3616
  467MOL0     H63019   2.997  13.438   4.424 -0.5889 -0.6929  0.4292
  467MOL0     H63020   2.969  13.344   4.578 -3.3038 -3.6870  1.2487
  467MOL0     H63021   2.808  13.349   4.327 -1.5553 -0.7070 -0.0528
  467MOL0     H63022   2.751  13.283   4.481 -0.9037  0.8117  0.1589
  467MOL0     H63023   2.812  13.577   4.414  0.9599 -0.0600  0.5337
  467MOL0     H63024   2.783  13.514   4.576  0.3099  0.2924  0.2277
  467MOL0     H63025   2.589  13.613   4.446  0.4451  0.2676 -1.3167
  467MOL0     H63026   2.569  13.441   4.513 -2.4000  0.4317 -1.0169
  467MOL0     H63027   3.068  12.590   4.155  0.7654  0.2727  0.3848
  467MOL0     H63028   3.066  12.485   3.915 -2.0732 -0.5062 -3.0500
  467MOL0     H63029   2.786  12.776   3.427  1.9039  1.4438 -1.3255
  467MOL0     H63030   2.774  12.716   3.194  0.5711 -3.2592 -2.6018
  467MOL0     H63031   2.191  11.385   2.705  1.3700 -1.2064  2.2057
  467MOL0     H63032   1.941  11.399   2.620  1.6646 -2.9005 -0.3306
  467MOL0     H63033   1.391  11.404   2.990 -0.7558 -2.2082  0.5094
  467MOL0     H63034   1.189  11.488   2.913  0.9674  4.3445  1.6897
  467MOL0     H63035   0.987  11.570   2.806 -1.3941  0.2910 -0.2881
  467MOL0     H63036   1.064  11.716   2.856 -0.8784  2.7251 -0.2906
  467MOL0     H63037   0.996  11.808   2.617 -2.3000 -0.4757 -1.4396
  467MOL0     H63038   0.896  11.827   2.761  1.4673 -0.8305  0.6201
  467MOL0     H63039   0.772  11.613   2.702  0.8669 -0.8056  0.1889
  467MOL0     H63040   0.870  11.596   2.562 -4.0110 -0.7682 -2.4195
  467MOL0     H63041   0.759  11.764   2.426  1.3036 -2.5060  0.9995
  467MOL0     H63042   0.725  11.856   2.571  0.8611  0.2143 -0.8720
  467MOL0     H63043   0.405  11.577   2.605 -0.8368 -1.1359 -3.5970
  467MOL0     H63044   1.377  11.637   2.558  0.6639 -0.6456 -0.7922
  467MOL0     H63045   1.568  11.497   2.591 -0.8124  0.6134 -1.1513
  468MOL0     O63046   8.912   0.138   1.147  0.3592 -0.0067 -0.3106
  468MOL0     C63047   8.829   0.175   1.231  0.3181  0.8016  0.5366
  468MOL0     O63048   8.799   0.115   1.346  0.1785  0.2435 -0.5585
  468MOL0     C63049   8.844  -0.013   1.358  0.7451 -0.0340  0.2718
  468MOL0     C63050   8.747  -0.110   1.371 -0.5752  0.2561  0.4399
  468MOL0     C63051   8.789  -0.242   1.383  1.6042  0.7425 -0.2265
  468MOL0     C63052   8.918  -0.276   1.383 -0.6961  1.3351 -0.0586
  468MOL0     O63053   8.966  -0.402   1.395  0.3220  1.3716 -0.8963
  468MOL0     C63054   8.873  -0.517   1.417 -0.6600 -0.0366 -0.9091
  468MOL0     C63055   8.945  -0.647   1.447 -0.2907 -0.2774 -0.1511
  468MOL0     C63056   9.078  -0.650   1.363 -0.5774 -0.1826  0.3219
  468MOL0     C63057   9.115  -0.800   1.353 -0.2712 -0.0875 -0.6273
  468MOL0     C63058   9.259  -0.822   1.305  0.0168 -0.3873  1.0226
  468MOL0     C63059   9.288  -0.785   1.156 -0.4043  0.6456 -0.3190
  468MOL0     C63060   9.408  -0.857   1.105  0.2398 -0.1139 -0.3895
  468MOL0     C63061   9.432  -0.822   0.950 -0.1965 -0.2886  0.4382
  468MOL0     N63062   9.566  -0.847   0.899  0.2557  0.1260  0.1754
  468MOL0     C63063   9.614  -0.976   0.886 -0.1118 -0.0284  0.5885
  468MOL0     C63064   9.746  -0.954   0.836  0.1320  0.6532 -1.2323
  468MOL0     C63065   9.838  -1.065   0.818  0.1627  0.0968  0.3955
  468MOL0     C63066   9.908  -1.101   0.953 -0.1961  0.2610  0.2069
  468MOL0     C63067   9.996  -1.221   0.955 -0.0276  0.9450 -0.3254
  468MOL0     C63068  10.083  -1.233   1.078  0.0406 -0.2202 -1.8407
  468MOL0     O63069  10.015  -1.198   1.200  0.0677  0.2091 -0.4608
  468MOL0     C63070  10.062  -1.241   1.323  0.0727 -0.3070 -0.6331
  468MOL0     C63071   9.974  -1.254   1.427  0.1808  0.7863 -0.2467
  468MOL0     C63072  10.023  -1.289   1.561 -0.1220  0.1327 -0.6850
  468MOL0     C63073   9.904  -1.308   1.650  0.3133 -0.3592 -0.9724
  468MOL0     C63074  10.156  -1.295   1.589 -0.9274  0.7698  0.2116
  468MOL0     C63075  10.207  -1.321   1.732  0.5351 -0.5889 -0.4593
  468MOL0     O63076  10.337  -1.278   1.765 -0.1279  0.1161  0.1189
  468MOL0     C63077  10.406  -1.320   1.876 -0.1426 -0.5294  0.1477
  468MOL0     C63078  10.543  -1.342   1.865  0.3011 -0.2613  0.1057
  468MOL0     C63079  10.618  -1.366   1.984  0.3158  0.3001  0.2996
  468MOL0     C63080  10.562  -1.402   2.110  0.2412 -0.5798 -0.0653
  468MOL0     O63081  10.640  -1.451   2.213  0.1941  0.4989  0.3743
  468MOL0     C63082  10.581  -1.497   2.334  0.3426 -0.0948  1.4277
  468MOL0     C63083  10.667  -1.600   2.408 -0.6701 -0.4896  0.2847
  468MOL0     C63084  10.813  -1.575   2.401 -0.7243  0.0256  0.4067
  468MOL0     C63085  10.889  -1.679   2.492  0.4229  0.3658  0.7623
  468MOL0     C63086  11.036  -1.638   2.496  0.0349 -0.2919  0.7689
  468MOL0     C63087  11.106  -1.754   2.575 -0.1940  0.0778  0.2223
  468MOL0     C63088  11.254  -1.704   2.599  0.5989 -0.2041  0.8027
  468MOL0     C63089  11.271  -1.575   2.686  0.0758  0.9740 -0.1603
  468MOL0    Cl63090  11.438  -1.554   2.723 -0.2202 -0.0323  0.1914
  468MOL0     C63091  10.425  -1.382   2.120  0.1282  0.3405  0.3473
  468MOL0     C63092  10.347  -1.354   2.000  1.1910 -0.1640  0.1687
  468MOL0     O63093  10.133  -1.389   1.805  0.0961  0.2367 -0.2779
  468MOL0     C63094  10.250  -1.259   1.489 -0.3326 -0.5549 -0.2598
  468MOL0     C63095  10.202  -1.240   1.355 -1.0457 -0.3625  0.6919
  468MOL0     N63096   9.758  -0.825   0.810  0.3194 -1.2377  1.0820
  468MOL0     N63097   9.664  -0.761   0.863 -0.2793 -0.2229  0.2772
  468MOL0     C63098   9.020  -0.184   1.369 -0.0203 -0.5062 -0.4409
  468MOL0     C63099   8.977  -0.048   1.360 -0.5746  0.3926 -0.6183
  468MOL0     C63100   8.749   0.296   1.204  1.5321 -1.0038 -0.2378
  468MOL0     C63101   8.785   0.390   1.106 -0.2108 -1.4196  0.6153
  468MOL0     C63102   8.697   0.495   1.068  1.1409 -0.8566  0.6476
  468MOL0     C63103   8.582   0.524   1.149  0.0993  0.9068  0.3571
  468MOL0     O63104   8.476   0.608   1.138 -0.1361  0.2151 -0.4580
  468MOL0     C63105   8.481   0.701   1.024 -0.3713 -0.5213  1.2540
  468MOL0     C63106   8.535   0.839   1.063  0.4433  0.4349 -0.1480
  468MOL0     C63107   8.409   0.931   1.091  0.3500 -0.1337 -0.6577
  468MOL0     C63108   8.388   0.970   1.243  1.0217  0.1340  0.1137
  468MOL0     C63109   8.254   1.011   1.244  0.2886 -0.9268  0.7822
  468MOL0     C63110   8.133   1.036   1.239 -0.2867  0.8008 -0.0360
  468MOL0     C63111   8.558   0.443   1.260  0.1040  1.0486  0.1006
  468MOL0     C63112   8.636   0.329   1.282 -0.2456  0.0156 -0.4247
  468MOL0     H63113   8.641  -0.094   1.382 -0.9647 -0.6192 -1.6301
  468MOL0     H63114   8.712  -0.313   1.409  1.7669  0.9534  0.8828
  468MOL0     H63115   8.798  -0.500   1.495  0.0803 -0.6474 -0.0470
  468MOL0     H63116   8.819  -0.519   1.321  1.1096 -1.0429 -1.9299
  468MOL0     H63117   8.967  -0.650   1.554 -3.8316  0.9783  0.7216
  468MOL0     H63118   8.879  -0.723   1.404  1.0652 -3.0177  2.2641
  468MOL0     H63119   9.057  -0.600   1.268 -2.0930  1.7053  1.5601
  468MOL0     H63120   9.153  -0.599   1.425 -2.5247  1.1378  1.7186
  468MOL0     H63121   9.105  -0.861   1.444  3.1347  0.6387  0.3695
  468MOL0     H63122   9.044  -0.833   1.277 -0.5687 -1.7311  0.3140
  468MOL0     H63123   9.336  -0.773   1.365  3.3638 -0.7838 -2.5048
  468MOL0     H63124   9.279  -0.929   1.315 -0.0083 -0.5207 -0.1305
  468MOL0     H63125   9.212  -0.835   1.094  0.6497 -1.9735  0.3455
  468MOL0     H63126   9.292  -0.677   1.145  4.1352  0.6233 -0.7339
  468MOL0     H63127   9.500  -0.826   1.155  0.1595 -0.1315 -0.2303
  468MOL0     H63128   9.391  -0.965   1.113 -0.9393  0.1224  0.5644
  468MOL0     H63129   9.417  -0.714   0.947 -2.4260 -0.4873  1.7744
  468MOL0     H63130   9.359  -0.875   0.888  0.3722 -0.5280 -0.0320
  468MOL0     H63131   9.565  -1.065   0.925 -3.1620  1.4933  0.5694
  468MOL0     H63132   9.783  -1.156   0.792  0.1473  0.4877 -1.0054
  468MOL0     H63133   9.898  -1.048   0.729  0.6277 -1.3247  0.4076
  468MOL0     H63134   9.828  -1.102   1.028  0.6178 -0.2575  1.0861
  468MOL0     H63135   9.984  -1.023   0.962 -0.6977  0.9099 -0.9483
  468MOL0     H63136  10.044  -1.224   0.857  0.8322  1.1405  0.0726
  468MOL0     H63137   9.939  -1.314   0.958  0.7626  0.4631  1.6898
  468MOL0     H63138  10.171  -1.170   1.063 -1.1830  2.2779  0.5219
  468MOL0     H63139  10.114  -1.338   1.090  0.4154 -0.3387 -3.6037
  468MOL0     H63140   9.869  -1.250   1.402 -0.4140 -0.6889  1.8074
  468MOL0     H63141   9.923  -1.265   1.748 -0.3297  0.0236 -1.0126
  468MOL0     H63142   9.808  -1.284   1.602 -0.3573 -1.9859 -0.4960
  468MOL0     H63143   9.884  -1.412   1.675 -0.0495 -0.3519 -1.2275
  468MOL0     H63144  10.604  -1.319   1.778  1.8812 -1.9897  0.6908
  468MOL0     H63145  10.725  -1.377   1.973  0.3250 -1.1313  1.5430
  468MOL0     H63146  10.555  -1.417   2.404 -3.0570  0.4722 -0.2636
  468MOL0     H63147  10.483  -1.542   2.314  0.4730  0.3711 -0.4293
  468MOL0     H63148  10.627  -1.619   2.508 -1.9079 -1.4517 -0.3551
  468MOL0     H63149  10.645  -1.699   2.366  4.3414 -1.4754 -0.6635
  468MOL0     H63150  10.824  -1.476   2.448  0.6341  0.3965 -0.6531
  468MOL0     H63151  10.835  -1.585   2.295 -1.9587 -0.4957  0.1786
  468MOL0     H63152  10.844  -1.680   2.591 -2.8203 -1.1261 -0.5667
  468MOL0     H63153  10.879  -1.780   2.449 -0.0813  0.1759  1.3171
  468MOL0     H63154  11.042  -1.536   2.535 -4.1452  1.1901 -1.7730
  468MOL0     H63155  11.065  -1.650   2.391 -0.3612  2.0761  0.3449
  468MOL0     H63156  11.037  -1.767   2.659  0.1040  1.3067  0.6746
  468MOL0     H63157  11.116  -1.851   2.526  3.4612 -0.7510  2.2174
  468MOL0     H63158  11.310  -1.707   2.505 -2.1355 -2.9943 -0.9031
  468MOL0     H63159  11.302  -1.785   2.655  2.5231  0.0152 -0.4322
  468MOL0     H63160  11.220  -1.597   2.780  0.1997  0.5683 -0.1858
  468MOL0     H63161  11.232  -1.485   2.639 -0.4373 -0.0074 -1.6617
  468MOL0     H63162  10.379  -1.392   2.218 -0.0880  1.3855  0.3591
  468MOL0     H63163  10.240  -1.339   2.013  1.2006  0.2053 -0.1660
  468MOL0     H63164  10.357  -1.251   1.506 -0.5705 -0.8189  1.4824
  468MOL0     H63165  10.274  -1.203   1.283 -2.3338  2.5023  0.7149
  468MOL0     H63166   9.123  -0.215   1.378 -0.0621 -0.8547 -1.1256
  468MOL0     H63167   9.051   0.030   1.378  1.7048 -1.5603 -0.9315
  468MOL0     H63168   8.881   0.387   1.055 -0.7216  0.6692 -0.6022
  468MOL0     H63169   8.710   0.552   0.977 -4.3233 -0.2060 -0.0497
  468MOL0     H63170   8.538   0.665   0.938 -0.5724 -2.2782  1.8077
  468MOL0     H63171   8.386   0.702   0.969  1.3386 -0.6662 -1.9429
  468MOL0     H63172   8.595   0.874   0.978  0.3906  1.9904  0.4226
  468MOL0     H63173   8.609   0.843   1.143  2.3812  0.9375 -1.8818
  468MOL0     H63174   8.322   0.871   1.064 -0.9290  1.1698  0.3655
  468MOL0     H63175   8.417   1.021   1.030  0.6953  1.1594  1.1929
  468MOL0     H63176   8.457   1.049   1.273  0.9734  0.0561  0.4421
  468MOL0     H63177   8.407   0.876   1.296  0.3159  0.2947  0.6662
  468MOL0     H63178   8.027   1.054   1.243 -0.4840 -0.4353  0.9015
  468MOL0     H63179   8.476   0.469   1.326  0.0069  3.9661 -1.0117
  468MOL0     H63180   8.609   0.263   1.364  2.4452  0.2743  0.7593
  469MOL0     O63181   3.005   0.098   3.959 -0.6339  0.4818 -0.1075
  469MOL0     C63182   3.030  -0.004   3.908 -0.3510  0.8835  0.3314
  469MOL0     O63183   3.150  -0.045   3.874 -0.3310 -0.1174 -0.7688
  469MOL0     C63184   3.260   0.037   3.892 -0.1960 -0.3349 -0.1560
  469MOL0     C63185   3.361   0.004   3.982  0.4039  1.0038 -0.1864
  469MOL0     C63186   3.460   0.100   4.004  0.8162  0.5196  0.5759
  469MOL0     C63187   3.474   0.223   3.937  0.7203  0.7982 -0.1149
  469MOL0     O63188   3.563   0.324   3.963 -0.0183 -0.0097  0.8660
  469MOL0     C63189   3.695   0.292   3.994  0.3195  0.7780 -0.3139
  469MOL0     C63190   3.744   0.353   4.126  0.3510  0.4569 -0.0119
  469MOL0     C63191   3.651   0.317   4.235 -0.3453 -0.5635  0.0756
  469MOL0     C63192   3.709   0.354   4.371  0.3921  0.2722  0.3994
  469MOL0     C63193   3.599   0.343   4.472  0.5983 -0.3319  0.0520
  469MOL0     C63194   3.653   0.354   4.617 -0.2709  0.5432  0.3625
  469MOL0     C63195   3.684   0.495   4.662 -0.5451  0.4261  0.2152
  469MOL0     C63196   3.566   0.584   4.656 -0.4281  0.5517 -0.0216
  469MOL0     N63197   3.450   0.529   4.732 -0.7548  0.4506  0.6940
  469MOL0     C63198   3.316   0.521   4.684  0.0914  0.2384  0.2042
  469MOL0     C63199   3.246   0.454   4.783 -0.3179 -0.3609  0.4878
  469MOL0     C63200   3.092   0.426   4.774 -0.2474 -0.3199  0.9873
  469MOL0     C63201   3.069   0.281   4.838 -0.8845 -0.0839 -0.5917
  469MOL0     C63202   3.097   0.158   4.740 -0.7035  0.5313 -0.6062
  469MOL0     C63203   3.000   0.035   4.766  1.4361  0.0515  0.2884
  469MOL0     O63204   2.860   0.058   4.722 -0.2926  0.0157  0.1887
  469MOL0     C63205   2.771  -0.040   4.710 -0.1277  0.4138 -0.3283
  469MOL0     C63206   2.805  -0.172   4.661 -0.4548  0.8851  0.0846
  469MOL0     C63207   2.705  -0.277   4.649  0.2563 -1.3742  0.2486
  469MOL0     C63208   2.759  -0.413   4.625 -1.0161  0.6898 -0.7555
  469MOL0     C63209   2.567  -0.241   4.671  0.3435 -0.2500  0.2337
  469MOL0     C63210   2.459  -0.345   4.686  0.4364 -0.7017 -0.0722
  469MOL0     O63211   2.331  -0.300   4.674 -0.1822  0.2610  0.6465
  469MOL0     C63212   2.233  -0.394   4.681 -0.6555  0.4386 -0.3059
  469MOL0     C63213   2.114  -0.352   4.745 -0.6278 -0.2056 -0.6607
  469MOL0     C63214   2.006  -0.441   4.752 -0.7519  0.4138  1.4742
  469MOL0     C63215   2.023  -0.579   4.712 -0.4614 -0.3912  0.3386
  469MOL0     O63216   1.912  -0.657   4.730  0.0029  0.8433 -0.0203
  469MOL0     C63217   1.926  -0.801   4.689 -0.6748 -0.5091 -0.7911
  469MOL0     C63218   2.014  -0.878   4.789 -0.3525  0.2850 -0.7290
  469MOL0     C63219   1.986  -1.030   4.753  0.4177 -0.5151 -0.0172
  469MOL0     C63220   1.869  -1.085   4.835 -0.6365 -0.0173 -0.0166
  469MOL0     C63221   1.881  -1.234   4.796  0.2309  0.1823 -0.2693
  469MOL0     C63222   1.738  -1.284   4.778  0.3292 -0.2969 -0.5257
  469MOL0     C63223   1.755  -1.433   4.747 -0.8039 -0.1496 -0.1851
  469MOL0     C63224   1.616  -1.488   4.676 -1.0466  0.6954  0.6388
  469MOL0    Cl63225   1.492  -1.477   4.801 -0.6172 -0.4841  0.0442
  469MOL0     C63226   2.144  -0.616   4.661  0.1305  0.4150  0.4928
  469MOL0     C63227   2.247  -0.526   4.640  1.3352  0.4538  0.8825
  469MOL0     O63228   2.496  -0.456   4.714  0.0201 -0.6817 -0.4475
  469MOL0     C63229   2.538  -0.105   4.700  0.1287 -0.1003  0.5345
  469MOL0     C63230   2.635  -0.008   4.706 -0.6260  0.5993  0.0334
  469MOL0     N63231   3.331   0.441   4.892  0.6259 -0.2916  0.5935
  469MOL0     N63232   3.449   0.488   4.864 -1.0081  0.0705 -0.2929
  469MOL0     C63233   3.362   0.259   3.858 -0.0949 -0.5856 -0.0281
  469MOL0     C63234   3.253   0.175   3.843  1.0114 -0.5433  0.1184
  469MOL0     C63235   2.928  -0.105   3.881 -0.3125  0.2910 -0.5973
  469MOL0     C63236   2.804  -0.085   3.935  1.0275  0.3038 -0.6117
  469MOL0     C63237   2.709  -0.185   3.903  0.7949 -0.2239  0.3482
  469MOL0     C63238   2.737  -0.293   3.822  0.0826  0.4902  0.6704
  469MOL0     O63239   2.645  -0.387   3.791  0.4038 -0.3974  0.4537
  469MOL0     C63240   2.643  -0.427   3.653  0.1323 -0.1593  0.3649
  469MOL0     C63241   2.561  -0.322   3.572  0.3878 -0.2767  0.5317
  469MOL0     C63242   2.416  -0.376   3.547 -1.2919 -0.4654  0.6644
  469MOL0     C63243   2.369  -0.415   3.406 -0.1400 -0.0814  0.0310
  469MOL0     C63244   2.247  -0.499   3.404  0.0829 -0.5270  0.6447
  469MOL0     C63245   2.163  -0.584   3.402 -0.4405 -0.4663 -1.0584
  469MOL0     C63246   2.865  -0.319   3.788  0.7118 -0.2857  0.1421
  469MOL0     C63247   2.966  -0.225   3.815 -0.3426 -0.2812  0.1666
  469MOL0     H63248   3.366  -0.090   4.036  1.4450  1.7669  1.1232
  469MOL0     H63249   3.527   0.091   4.089  0.9614  1.9135  0.6414
  469MOL0     H63250   3.711   0.185   3.978 -2.6784  0.0032  1.2165
  469MOL0     H63251   3.754   0.342   3.917  0.5310  0.7197 -0.1909
  469MOL0     H63252   3.847   0.325   4.148  0.4604 -0.9143 -2.0071
  469MOL0     H63253   3.721   0.460   4.118 -4.4177 -0.2608  0.9369
  469MOL0     H63254   3.565   0.381   4.212 -1.1446 -0.8862  1.9968
  469MOL0     H63255   3.615   0.214   4.240 -1.1927 -0.2644  0.2362
  469MOL0     H63256   3.781   0.273   4.389 -1.3148 -0.8148  2.8411
  469MOL0     H63257   3.754   0.454   4.371 -0.7047  0.7803  0.6224
  469MOL0     H63258   3.516   0.411   4.454 -0.8290 -2.0877 -0.2831
  469MOL0     H63259   3.549   0.250   4.446 -1.2273  1.0924 -1.8461
  469MOL0     H63260   3.573   0.309   4.678 -0.6937 -2.5523 -2.1878
  469MOL0     H63261   3.743   0.294   4.634  0.9186  1.9072 -0.8877
  469MOL0     H63262   3.724   0.498   4.764 -3.2469  1.3727  1.3412
  469MOL0     H63263   3.762   0.544   4.603  0.2498  2.3032  2.6320
  469MOL0     H63264   3.536   0.595   4.552 -0.2494 -0.5090 -0.1947
  469MOL0     H63265   3.586   0.683   4.698  1.6815  0.6129 -1.0722
  469MOL0     H63266   3.280   0.571   4.594 -2.0715 -1.3191  0.1175
  469MOL0     H63267   3.039   0.498   4.837 -2.4248 -1.9261  1.1216
  469MOL0     H63268   3.057   0.436   4.671 -1.7973 -1.6449  1.3518
  469MOL0     H63269   2.965   0.279   4.872 -0.9596 -0.4597 -0.8436
  469MOL0     H63270   3.124   0.285   4.933 -0.4151 -0.2837 -0.8524
  469MOL0     H63271   3.196   0.118   4.764 -1.5490  0.1154  2.8411
  469MOL0     H63272   3.096   0.191   4.636  0.4872 -1.2615 -1.2282
  469MOL0     H63273   3.005   0.003   4.870 -0.1598  0.5719  0.5463
  469MOL0     H63274   3.037  -0.046   4.702  2.0823  0.4411  0.1555
  469MOL0     H63275   2.908  -0.191   4.630 -0.3047  0.1905  0.9778
  469MOL0     H63276   2.859  -0.416   4.582 -1.8957  0.1914 -2.8793
  469MOL0     H63277   2.756  -0.469   4.719 -3.0389  0.7195 -0.7605
  469MOL0     H63278   2.696  -0.470   4.556 -0.6225 -0.3679 -0.2689
  469MOL0     H63279   2.125  -0.249   4.778  0.5658 -0.9263  1.4255
  469MOL0     H63280   1.914  -0.410   4.801 -0.0016  2.0166  1.9441
  469MOL0     H63281   1.829  -0.847   4.710 -0.4601 -0.0097  1.5403
  469MOL0     H63282   1.963  -0.799   4.586  0.0253  0.4122 -0.5348
  469MOL0     H63283   2.118  -0.865   4.758  0.7239  0.4212  2.5551
  469MOL0     H63284   2.004  -0.836   4.889  1.4438  0.5660 -0.6260
  469MOL0     H63285   2.076  -1.088   4.776  0.3427 -1.2798 -1.5328
  469MOL0     H63286   1.970  -1.047   4.646  0.0634 -4.2725  0.5094
  469MOL0     H63287   1.883  -1.073   4.943 -0.9908  0.8202 -0.0560
  469MOL0     H63288   1.774  -1.039   4.809  0.2041  2.1180  0.4358
  469MOL0     H63289   1.942  -1.281   4.875  1.2086 -0.7428 -1.5317
  469MOL0     H63290   1.937  -1.263   4.706  0.7152 -1.2506  0.4533
  469MOL0     H63291   1.689  -1.271   4.875 -0.5926 -3.1430 -0.5108
  469MOL0     H63292   1.695  -1.222   4.698 -1.7601  2.4455  2.4533
  469MOL0     H63293   1.777  -1.482   4.843  1.1103 -1.9371 -1.4466
  469MOL0     H63294   1.836  -1.449   4.675 -0.5206  1.2693 -0.2276
  469MOL0     H63295   1.644  -1.588   4.641 -2.0187  0.4970  0.4196
  469MOL0     H63296   1.586  -1.427   4.590  0.7326 -0.5402 -0.9604
  469MOL0     H63297   2.163  -0.719   4.633 -0.2654  0.2820  0.7147
  469MOL0     H63298   2.326  -0.564   4.577  0.4054 -1.0589  0.5751
  469MOL0     H63299   2.435  -0.074   4.712  0.4325  1.9141 -1.3235
  469MOL0     H63300   2.609   0.096   4.718 -5.0302 -0.4045  0.8100
  469MOL0     H63301   3.375   0.348   3.798 -0.7595 -0.6009 -0.1949
  469MOL0     H63302   3.171   0.207   3.780  0.2124 -0.8622  0.9710
  469MOL0     H63303   2.771   0.002   3.992 -1.7995  0.3145 -2.0887
  469MOL0     H63304   2.601  -0.176   3.917  0.2286  0.5285 -3.4222
  469MOL0     H63305   2.737  -0.426   3.598 -1.4215  0.1857 -2.4877
  469MOL0     H63306   2.588  -0.522   3.654 -1.8917  0.9462  1.0895
  469MOL0     H63307   2.610  -0.306   3.476 -3.1395 -3.8962 -2.2176
  469MOL0     H63308   2.556  -0.227   3.625 -1.2015 -2.0203  3.8703
  469MOL0     H63309   2.348  -0.305   3.593  2.1506  1.1401  3.8107
  469MOL0     H63310   2.400  -0.470   3.600 -3.1221 -1.2996 -1.2180
  469MOL0     H63311   2.438  -0.483   3.355  0.1307 -0.0191  0.3072
  469MOL0     H63312   2.359  -0.323   3.348  0.8197 -0.3061 -0.5106
  469MOL0     H63313   2.076  -0.647   3.410 -0.9578  0.4412  1.4779
  469MOL0     H63314   2.900  -0.416   3.752  1.7244  0.6040 -1.4089
  469MOL0     H63315   3.069  -0.236   3.780 -1.3137  1.2052 -3.6576
  470MOL0     O63316   3.566   1.304   8.910  0.2192  0.7629  0.1150
  470MOL0     C63317   3.583   1.422   8.881  0.2460  0.5627 -0.1286
  470MOL0     O63318   3.481   1.515   8.872  0.1506 -0.0413 -0.5833
  470MOL0     C63319   3.356   1.485   8.924  0.6068  1.1704  0.2615
  470MOL0     C63320   3.310   1.373   9.007 -0.3431 -0.6808 -0.0413
  470MOL0     C63321   3.178   1.380   9.047 -0.9856  0.2523  0.1712
  470MOL0     C63322   3.084   1.478   9.001  0.0832  0.4740 -0.2026
  470MOL0     O63323   2.964   1.464   9.052  0.2266 -0.2278 -0.0847
  470MOL0     C63324   2.941   1.550   9.168  0.4559 -0.1752 -0.6377
  470MOL0     C63325   2.801   1.554   9.222 -0.4416  0.0144  0.2891
  470MOL0     C63326   2.735   1.415   9.213 -1.2531 -0.3795 -0.0370
  470MOL0     C63327   2.617   1.417   9.306  0.3436  0.7427 -0.5833
  470MOL0     C63328   2.508   1.506   9.255 -0.1031 -0.4535  0.3621
  470MOL0     C63329   2.397   1.506   9.358  0.1276 -0.0030  0.0505
  470MOL0     C63330   2.274   1.587   9.304  0.3186  0.0742 -0.2789
  470MOL0     C63331   2.288   1.745   9.318 -0.0939  0.7371 -0.3929
  470MOL0     N63332   2.299   1.800   9.455 -0.2110  0.1939  0.2439
  470MOL0     C63333   2.390   1.899   9.487  0.1085 -0.4578 -1.5215
  470MOL0     C63334   2.393   1.890   9.626  0.0726 -0.2686  0.3253
  470MOL0     C63335   2.483   1.971   9.699  0.0884 -0.3632 -0.5157
  470MOL0     C63336   2.413   2.090   9.767  0.1536 -1.2393 -1.3295
  470MOL0     C63337   2.514   2.123   9.881 -0.0510  0.4568 -0.1352
  470MOL0     C63338   2.469   2.256   9.929  0.6497  0.3338 -0.0514
  470MOL0     O63339   2.330   2.259   9.966 -0.2646 -0.5766  0.5684
  470MOL0     C63340   2.290   2.207  10.088  0.3568  0.7515 -0.1618
  470MOL0     C63341   2.374   2.184  10.201 -0.4500 -1.3199  0.3728
  470MOL0     C63342   2.332   2.099  10.297 -0.3389  1.0822  0.8703
  470MOL0     C63343   2.430   2.078  10.415  1.0403  0.4072  0.2320
  470MOL0     C63344   2.199   2.041  10.287 -0.1663  0.2421 -0.3539
  470MOL0     C63345   2.147   1.949  10.389 -0.3156 -0.2179 -0.4331
  470MOL0     O63346   2.013   1.948  10.394  0.3824  0.0511 -0.8498
  470MOL0     C63347   1.941   1.871  10.489  0.2239  0.0645  0.4474
  470MOL0     C63348   1.952   1.889  10.627 -0.5380  0.1962 -0.1109
  470MOL0     C63349   1.887   1.812  10.716  0.1080  0.4581  0.0436
  470MOL0     C63350   1.797   1.711  10.670 -0.3589  0.0457  0.1214
  470MOL0     O63351   1.734   1.623  10.756  0.3875 -0.3438 -1.4250
  470MOL0     C63352   1.760   1.639  10.893 -0.9123  0.4278 -0.2638
  470MOL0     C63353   1.725   1.506  10.964  0.1642 -0.4570 -0.3871
  470MOL0     C63354   1.588   1.440  10.946 -0.2945  0.5590 -0.4333
  470MOL0     C63355   1.574   1.289  10.989 -0.2167 -0.7875 -1.1350
  470MOL0     C63356   1.421   1.260  11.020  0.1958 -0.1315 -0.2093
  470MOL0     C63357   1.320   1.291  10.903 -1.0261  0.9854 -0.1030
  470MOL0     C63358   1.365   1.235  10.768  0.0203 -0.9427  0.1113
  470MOL0     C63359   1.310   1.326  10.655  0.6320 -0.8166  0.5608
  470MOL0    Cl63360   1.353   1.246  10.512  0.7775 -0.0829  0.5024
  470MOL0     C63361   1.776   1.695  10.536 -0.6210 -0.8819  0.3570
  470MOL0     C63362   1.849   1.777  10.439  0.9378  0.3002 -0.4694
  470MOL0     O63363   2.229   1.888  10.459  0.5912  0.2723  0.2871
  470MOL0     C63364   2.113   2.089  10.184 -0.1578 -0.3539  0.7692
  470MOL0     C63365   2.157   2.168  10.084 -0.7432  0.0262 -0.4282
  470MOL0     N63366   2.306   1.793   9.667 -0.5500  1.0892 -0.6173
  470MOL0     N63367   2.248   1.744   9.565  0.6016 -0.6873  0.2823
  470MOL0     C63368   3.123   1.579   8.927 -0.5143 -0.4542  0.0085
  470MOL0     C63369   3.255   1.576   8.885  0.7890  0.4697 -0.4464
  470MOL0     C63370   3.710   1.465   8.844 -0.0331 -0.1050  0.0257
  470MOL0     C63371   3.817   1.372   8.811 -0.4807  0.2515 -0.2521
  470MOL0     C63372   3.936   1.420   8.752  0.5109  0.2338 -0.0871
  470MOL0     C63373   3.959   1.552   8.730  0.6365  0.2336  0.9438
  470MOL0     O63374   4.075   1.604   8.673 -0.1060 -0.1845  0.0247
  470MOL0     C63375   4.181   1.514   8.645 -0.8861  0.4552 -0.5365
  470MOL0     C63376   4.313   1.587   8.614 -0.9769 -0.8397  0.9864
  470MOL0     C63377   4.316   1.673   8.486  0.5180 -0.8046  0.9327
  470MOL0     C63378   4.410   1.795   8.502  0.1016 -0.5825 -0.4556
  470MOL0     C63379   4.412   1.878   8.384  0.1959  0.4399  0.3663
  470MOL0     C63380   4.415   1.937   8.274  0.8147 -0.2423  0.0843
  470MOL0     C63381   3.859   1.647   8.758  0.2144  0.1494 -0.2996
  470MOL0     C63382   3.745   1.602   8.828  0.8709 -0.0299  1.1353
  470MOL0     H63383   3.377   1.296   9.042 -0.8338 -2.6850 -3.0976
  470MOL0     H63384   3.140   1.311   9.121 -3.0835 -0.2593 -1.2806
  470MOL0     H63385   2.998   1.515   9.254  0.5099  2.8587  0.6849
  470MOL0     H63386   2.978   1.650   9.142  1.6446 -0.3803  0.1970
  470MOL0     H63387   2.805   1.583   9.327  2.2759  0.2049  0.2112
  470MOL0     H63388   2.756   1.638   9.168 -1.1471 -0.1892  0.5441
  470MOL0     H63389   2.704   1.399   9.110  2.3560  0.3768 -1.4072
  470MOL0     H63390   2.801   1.333   9.244 -3.1782 -1.9530  0.0377
  470MOL0     H63391   2.580   1.315   9.318 -1.3558  1.1024 -2.1924
  470MOL0     H63392   2.651   1.453   9.404 -2.0702  3.2426 -0.5385
  470MOL0     H63393   2.546   1.603   9.222 -1.3096 -0.6276 -1.7329
  470MOL0     H63394   2.470   1.465   9.160  0.6356  2.1987 -1.1838
  470MOL0     H63395   2.365   1.402   9.369  4.9078 -1.6422  0.9650
  470MOL0     H63396   2.430   1.554   9.450  1.1085 -0.5322 -0.0063
  470MOL0     H63397   2.253   1.555   9.202  0.7250 -0.5034 -0.1874
  470MOL0     H63398   2.189   1.570   9.370  0.4801 -0.1992 -0.1367
  470MOL0     H63399   2.193   1.785   9.280 -1.5549 -2.0439  0.1154
  470MOL0     H63400   2.366   1.789   9.255  2.3436 -3.2526 -0.4701
  470MOL0     H63401   2.451   1.973   9.436  1.2221  1.0475  1.7187
  470MOL0     H63402   2.526   1.907   9.777  1.2786  3.6826  2.4492
  470MOL0     H63403   2.560   2.025   9.645  1.9805  1.4944  3.5770
  470MOL0     H63404   2.320   2.064   9.819  0.6873  2.8264  2.2441
  470MOL0     H63405   2.398   2.175   9.701 -0.2587  3.4662  4.0599
  470MOL0     H63406   2.621   2.133   9.858  0.6131 -1.9924  1.5234
  470MOL0     H63407   2.510   2.049   9.961  4.2054  1.0760  0.9068
  470MOL0     H63408   2.497   2.327   9.851  2.2049 -0.1255  0.0580
  470MOL0     H63409   2.528   2.293  10.013 -1.2391  2.6551  0.3835
  470MOL0     H63410   2.472   2.230  10.209 -0.6975 -1.0925  2.6210
  470MOL0     H63411   2.380   2.091  10.511  1.3392  2.2843  0.1757
  470MOL0     H63412   2.466   1.975  10.408 -1.4269 -0.4334 -2.1510
  470MOL0     H63413   2.507   2.155  10.421 -0.5026  1.9375  1.2190
  470MOL0     H63414   2.032   1.952  10.664 -1.2895  0.7963  0.5178
  470MOL0     H63415   1.917   1.819  10.820 -2.6433 -2.8229  1.2840
  470MOL0     H63416   1.866   1.660  10.910 -0.6975 -0.6480 -0.2014
  470MOL0     H63417   1.695   1.721  10.926  2.2259  2.8042  0.4958
  470MOL0     H63418   1.796   1.429  10.932  2.7901  0.2399  3.1464
  470MOL0     H63419   1.735   1.513  11.073 -1.3172 -1.8087 -0.1362
  470MOL0     H63420   1.554   1.450  10.843  0.1297  2.5666 -0.4086
  470MOL0     H63421   1.517   1.505  10.998 -1.2226 -0.9174  0.2177
  470MOL0     H63422   1.612   1.209  10.925 -1.6829 -2.2000 -0.3156
  470MOL0     H63423   1.619   1.265  11.086  0.5766  0.4740 -1.1722
  470MOL0     H63424   1.385   1.295  11.117  1.3806 -1.6501  0.8155
  470MOL0     H63425   1.404   1.153  11.029  2.0486 -0.8062 -3.2114
  470MOL0     H63426   1.227   1.239  10.929 -0.1121 -0.8947 -0.4562
  470MOL0     H63427   1.306   1.399  10.916 -1.8791  0.6987  1.5865
  470MOL0     H63428   1.321   1.136  10.752 -0.0116 -1.4646  2.9700
  470MOL0     H63429   1.473   1.236  10.753 -0.2751  2.5517 -3.3152
  470MOL0     H63430   1.352   1.427  10.660 -1.5144  0.0804  1.8948
  470MOL0     H63431   1.202   1.335  10.640  0.2997 -2.3814  1.7221
  470MOL0     H63432   1.724   1.608  10.498  0.4762 -1.0599 -0.8018
  470MOL0     H63433   1.843   1.764  10.331 -0.0364 -0.8303 -0.3041
  470MOL0     H63434   2.020   2.039  10.156  0.9156 -1.5382 -0.9253
  470MOL0     H63435   2.109   2.187   9.989  2.7049 -0.5855 -2.4395
  470MOL0     H63436   3.064   1.658   8.881  0.0173 -0.0160  0.0566
  470MOL0     H63437   3.299   1.660   8.832 -0.5696  2.1170  0.9103
  470MOL0     H63438   3.809   1.266   8.832 -0.3612  0.2844 -0.0295
  470MOL0     H63439   4.015   1.349   8.729 -0.6360 -2.1186  2.6816
  470MOL0     H63440   4.217   1.448   8.725 -0.3913  1.4663  0.0899
  470MOL0     H63441   4.161   1.452   8.558 -1.0344  0.1556 -0.2913
  470MOL0     H63442   4.389   1.510   8.602  0.2012  0.4942 -0.6228
  470MOL0     H63443   4.330   1.651   8.701 -1.7592 -2.6437  2.5413
  470MOL0     H63444   4.216   1.702   8.453  1.6535  1.4711 -0.7637
  470MOL0     H63445   4.354   1.623   8.397 -0.4681  2.1343 -1.3273
  470MOL0     H63446   4.510   1.758   8.528 -0.3535 -1.9241 -0.4986
  470MOL0     H63447   4.373   1.866   8.576  0.6025  0.5655 -1.2815
  470MOL0     H63448   4.429   1.977   8.176  1.3266  0.7168  0.5305
  470MOL0     H63449   3.872   1.754   8.744  2.2204 -0.0649 -0.3193
  470MOL0     H63450   3.673   1.682   8.842 -0.6739 -1.8752  5.8522
  471MOL0     O63451  11.034   4.972   0.536 -0.1205  0.2043 -0.3166
  471MOL0     C63452  10.994   5.081   0.501 -0.6935 -0.0665  0.0433
  471MOL0     O63453  10.866   5.128   0.493 -0.2266 -0.1865 -0.6587
  471MOL0     C63454  10.758   5.044   0.522 -0.1412 -0.3465 -0.6054
  471MOL0     C63455  10.759   4.904   0.537  0.2565  0.0096 -0.0256
  471MOL0     C63456  10.648   4.826   0.561 -0.2014  0.2422 -0.4650
  471MOL0     C63457  10.522   4.888   0.589 -0.2203 -0.2211 -0.0904
  471MOL0     O63458  10.420   4.805   0.626  0.2161  0.1014  0.6618
  471MOL0     C63459  10.358   4.830   0.748 -0.5249 -0.6378 -0.4527
  471MOL0     C63460  10.282   4.719   0.813 -1.0091  0.2554  0.0777
  471MOL0     C63461  10.145   4.678   0.742  0.9350  0.0210 -0.9682
  471MOL0     C63462  10.097   4.536   0.799  0.5105  0.4071  0.0826
  471MOL0     C63463   9.945   4.509   0.776  0.0774 -0.8008 -0.0447
  471MOL0     C63464   9.907   4.520   0.622 -0.4531  1.0250 -0.4725
  471MOL0     C63465   9.759   4.526   0.602  0.2353  0.4061  0.2264
  471MOL0     C63466   9.716   4.464   0.475  0.3334 -1.3186  0.6697
  471MOL0     N63467   9.782   4.539   0.355 -0.3166  0.4073 -0.7952
  471MOL0     C63468   9.755   4.667   0.315  0.3691 -0.7513  0.6866
  471MOL0     C63469   9.846   4.690   0.228 -1.0601 -0.7285  0.9270
  471MOL0     C63470   9.874   4.806   0.134 -0.1825 -0.5365  0.5689
  471MOL0     C63471   9.809   4.781  -0.005  0.7477 -0.3826 -0.3871
  471MOL0     C63472   9.910   4.710  -0.094  0.4974 -0.2917 -0.4084
  471MOL0     C63473   9.856   4.693  -0.240  0.3864 -0.2900  0.6192
  471MOL0     O63474   9.858   4.809  -0.326 -0.1042  0.1122  0.5822
  471MOL0     C63475   9.835   4.784  -0.456 -0.2032  0.6097  0.7764
  471MOL0     C63476   9.746   4.689  -0.500  0.2388 -0.6887  0.5596
  471MOL0     C63477   9.720   4.669  -0.636  0.6042  0.2675  0.7311
  471MOL0     C63478   9.596   4.602  -0.668  0.9928  0.2479  0.2436
  471MOL0     C63479   9.805   4.731  -0.735 -0.8090  0.4171 -0.3382
  471MOL0     C63480   9.789   4.717  -0.877 -0.9135  0.3855  0.1127
  471MOL0     O63481   9.853   4.810  -0.960  0.0378  0.9923 -0.1815
  471MOL0     C63482   9.824   4.805  -1.092  0.8778  0.1854 -0.5999
  471MOL0     C63483   9.709   4.871  -1.145 -0.7493 -0.7143  0.0880
  471MOL0     C63484   9.690   4.877  -1.278  0.0520  1.2543  0.2490
  471MOL0     C63485   9.778   4.823  -1.377  0.0722  0.5397  0.2438
  471MOL0     O63486   9.755   4.815  -1.512 -0.0439 -0.0360  0.3268
  471MOL0     C63487   9.827   4.755  -1.621 -0.1846  0.4507  0.3048
  471MOL0     C63488   9.769   4.797  -1.759  0.0684 -0.1392 -0.0806
  471MOL0     C63489   9.769   4.951  -1.765  0.1438  0.6438 -0.2195
  471MOL0     C63490   9.735   4.996  -1.906  0.1280 -0.2450  0.4059
  471MOL0     C63491   9.862   5.013  -1.999 -0.2093 -0.1061 -0.2510
  471MOL0     C63492   9.837   5.094  -2.121  0.5510  1.2541 -0.9789
  471MOL0     C63493   9.972   5.129  -2.184 -0.6082  0.3552  0.4569
  471MOL0     C63494   9.950   5.208  -2.311 -0.1354  0.4678  0.9258
  471MOL0    Cl63495   9.913   5.106  -2.445  0.3159 -0.3320 -0.3389
  471MOL0     C63496   9.889   4.757  -1.319  0.4295 -0.0732 -0.4174
  471MOL0     C63497   9.909   4.747  -1.179  0.9872 -0.2688  0.8804
  471MOL0     O63498   9.735   4.613  -0.914 -0.2606  0.1444  0.3188
  471MOL0     C63499   9.903   4.820  -0.678 -0.0106 -0.1978  1.0127
  471MOL0     C63500   9.912   4.854  -0.544 -0.8277  1.0862 -0.6786
  471MOL0     N63501   9.940   4.585   0.215  0.3857 -0.8668  0.1232
  471MOL0     N63502   9.897   4.494   0.299  0.7946  0.3681 -0.0905
  471MOL0     C63503  10.510   5.020   0.556  0.1514 -0.4598  1.6326
  471MOL0     C63504  10.628   5.097   0.523 -0.1227 -0.4201  0.5723
  471MOL0     C63505  11.099   5.185   0.470  0.1193  0.9216 -0.0536
  471MOL0     C63506  11.234   5.168   0.526  0.6048  0.2343  0.2874
  471MOL0     C63507  11.337   5.251   0.475  0.5889 -0.0117 -0.7419
  471MOL0     C63508  11.318   5.337   0.370 -0.1262 -0.0149 -0.0498
  471MOL0     O63509  11.425   5.399   0.297 -0.5265  0.4467 -0.7832
  471MOL0     C63510  11.560   5.396   0.354  0.4674  0.0373 -0.5258
  471MOL0     C63511  11.643   5.485   0.257  0.3450  0.2634  0.1852
  471MOL0     C63512  11.590   5.622   0.219  0.3853  0.1926 -1.0345
  471MOL0     C63513  11.669   5.755   0.265  0.9643 -0.2480 -0.0979
  471MOL0     C63514  11.803   5.770   0.198  0.0824  0.0169 -0.9372
  471MOL0     C63515  11.900   5.788   0.124 -0.1967  0.5039 -0.6545
  471MOL0     C63516  11.181   5.364   0.334 -0.6100  0.4067 -0.0447
  471MOL0     C63517  11.072   5.283   0.376 -0.5291  0.0962  0.1940
  471MOL0     H63518  10.849   4.845   0.525 -0.2218 -1.1605  1.7314
  471MOL0     H63519  10.651   4.719   0.577 -1.0557  0.4389  1.3653
  471MOL0     H63520  10.442   4.867   0.809  0.3004  0.5571 -2.2120
  471MOL0     H63521  10.284   4.909   0.731 -0.3397 -0.9624 -3.1243
  471MOL0     H63522  10.357   4.640   0.806  0.2995  1.3965  0.6912
  471MOL0     H63523  10.262   4.741   0.918 -4.6410 -0.1013 -0.4048
  471MOL0     H63524  10.067   4.753   0.758  1.5324  0.2594  1.0480
  471MOL0     H63525  10.157   4.657   0.635  1.7690 -0.1839 -0.8429
  471MOL0     H63526  10.139   4.445   0.757 -0.3080  0.0708 -0.0316
  471MOL0     H63527  10.116   4.535   0.907  0.2300 -2.5600  0.1900
  471MOL0     H63528   9.919   4.409   0.812  2.4215 -1.6826 -0.6612
  471MOL0     H63529   9.903   4.593   0.832  1.5057 -0.6350  0.8108
  471MOL0     H63530   9.953   4.615   0.593  0.3840  0.5099 -0.8624
  471MOL0     H63531   9.954   4.432   0.578  0.5440  0.8787  0.8331
  471MOL0     H63532   9.705   4.473   0.681 -3.0245 -3.0386 -3.8651
  471MOL0     H63533   9.715   4.626   0.603 -3.2887 -1.0008  0.9259
  471MOL0     H63534   9.608   4.480   0.475  0.7201  2.2028 -0.8015
  471MOL0     H63535   9.745   4.359   0.481 -2.4021 -2.1335  1.2259
  471MOL0     H63536   9.670   4.732   0.332 -0.8234 -1.9176 -0.6114
  471MOL0     H63537   9.825   4.890   0.183 -0.0153 -0.5585  0.7764
  471MOL0     H63538   9.978   4.835   0.115 -0.2596 -1.3362 -1.3227
  471MOL0     H63539   9.773   4.875  -0.050 -2.4263 -0.9427  0.6954
  471MOL0     H63540   9.714   4.731   0.013  0.3667  1.3791  3.4575
  471MOL0     H63541   9.954   4.621  -0.047  2.0294  1.0109  0.7738
  471MOL0     H63542   9.992   4.778  -0.119 -0.3855  0.7355 -0.5570
  471MOL0     H63543   9.754   4.653  -0.235  1.0506 -1.9688  1.2665
  471MOL0     H63544   9.924   4.617  -0.280  0.6939  0.1098  0.3748
  471MOL0     H63545   9.696   4.619  -0.434  0.5178  1.0038  2.6849
  471MOL0     H63546   9.602   4.510  -0.727 -3.1969 -0.8760  1.2946
  471MOL0     H63547   9.531   4.587  -0.582  1.6091 -2.2973  0.3415
  471MOL0     H63548   9.541   4.678  -0.724  0.1639 -0.9565 -0.6510
  471MOL0     H63549   9.655   4.933  -1.074 -2.5363 -2.3216  0.2274
  471MOL0     H63550   9.601   4.923  -1.319 -0.9720 -1.7729 -1.2298
  471MOL0     H63551   9.931   4.787  -1.618  0.8714 -2.7205  1.2924
  471MOL0     H63552   9.831   4.646  -1.612  0.1704  0.5426  1.4621
  471MOL0     H63553   9.820   4.746  -1.841  2.8993  0.6435  1.0851
  471MOL0     H63554   9.670   4.750  -1.771 -0.7194  0.3773  3.2258
  471MOL0     H63555   9.854   5.007  -1.725  0.7032  1.0361 -1.9094
  471MOL0     H63556   9.690   4.991  -1.701  3.5461  1.4125  3.9557
  471MOL0     H63557   9.667   4.922  -1.949 -0.2189 -0.1173  0.7314
  471MOL0     H63558   9.682   5.091  -1.909  0.0995 -0.2792 -0.6718
  471MOL0     H63559   9.912   4.919  -2.024  2.1763  1.1378 -0.4854
  471MOL0     H63560   9.938   5.061  -1.935  1.0793 -0.0293 -1.7776
  471MOL0     H63561   9.771   5.029  -2.180 -2.3039  2.3865  0.7814
  471MOL0     H63562   9.792   5.189  -2.091 -0.0111  0.0258  2.5774
  471MOL0     H63563  10.038   5.046  -2.213 -1.3552  0.6587 -2.3904
  471MOL0     H63564  10.035   5.189  -2.117 -1.1504 -2.1368  3.4752
  471MOL0     H63565  10.051   5.242  -2.333 -0.3323 -0.0082 -0.8384
  471MOL0     H63566   9.881   5.293  -2.308 -0.1855  0.6243 -1.8524
  471MOL0     H63567   9.958   4.701  -1.382  0.9138  0.1853 -0.1259
  471MOL0     H63568   9.998   4.691  -1.154  1.3492 -1.2749 -2.1817
  471MOL0     H63569   9.978   4.856  -0.747 -0.5164 -0.2155  0.4505
  471MOL0     H63570   9.990   4.918  -0.503 -1.1154  0.7688  0.4137
  471MOL0     H63571  10.415   5.072   0.551  0.4650  0.0200 -0.7966
  471MOL0     H63572  10.617   5.201   0.494 -1.0402 -0.2273  1.5611
  471MOL0     H63573  11.266   5.097   0.601  1.9140  2.0486  1.5216
  471MOL0     H63574  11.424   5.254   0.539  0.8332 -0.1827 -1.0681
  471MOL0     H63575  11.561   5.417   0.461 -2.9507  0.6072 -0.4840
  471MOL0     H63576  11.604   5.296   0.353 -2.8782 -1.5975  1.4553
  471MOL0     H63577  11.656   5.419   0.171 -0.5170 -0.9279  0.9278
  471MOL0     H63578  11.738   5.498   0.309 -0.1610  0.2680  1.1469
  471MOL0     H63579  11.487   5.618   0.257  0.7780 -0.6246  0.0203
  471MOL0     H63580  11.556   5.627   0.115 -0.2560  0.4781 -0.8196
  471MOL0     H63581  11.674   5.770   0.373 -1.1647  0.9462 -0.1255
  471MOL0     H63582  11.598   5.831   0.233  0.6264 -1.5138 -2.5997
  471MOL0     H63583  11.997   5.792   0.079 -0.0276 -0.4694 -0.4102
  471MOL0     H63584  11.161   5.443   0.263  1.2439  1.6643  0.7754
  471MOL0     H63585  10.974   5.308   0.337 -1.2330  1.6115  2.6975
  472MOL0     O63586  10.240  10.055   2.533  0.3742 -1.0145  0.4777
  472MOL0     C63587  10.175  10.153   2.582  0.5652 -0.1970 -0.8470
  472MOL0     O63588  10.217  10.232   2.691 -0.0889 -0.5240 -0.5870
  472MOL0     C63589  10.345  10.209   2.727 -0.0683  0.7086 -0.8678
  472MOL0     C63590  10.370  10.133   2.842  0.3889 -0.1321  0.4539
  472MOL0     C63591  10.502  10.092   2.858  0.9839  0.5165  0.8239
  472MOL0     C63592  10.610  10.119   2.774  0.6293  0.0225 -0.8524
  472MOL0     O63593  10.742  10.083   2.804  0.0517  0.2515 -0.2422
  472MOL0     C63594  10.843  10.178   2.769 -0.6053  0.4788 -0.5152
  472MOL0     C63595  10.974  10.139   2.838 -0.4259 -0.2374  0.9653
  472MOL0     C63596  11.072  10.257   2.872  0.0364  0.0326  0.7773
  472MOL0     C63597  11.100  10.356   2.747 -0.2813  0.1885  0.6992
  472MOL0     C63598  11.192  10.464   2.774  0.1169 -0.2268  0.1097
  472MOL0     C63599  11.339  10.426   2.784  0.5108  0.6460 -0.1492
  472MOL0     C63600  11.429  10.539   2.842 -0.1007  0.0328  0.9362
  472MOL0     C63601  11.557  10.464   2.888 -0.7928 -0.0148 -0.7858
  472MOL0     N63602  11.629  10.536   2.997 -0.1805  0.1221 -0.3515
  472MOL0     C63603  11.760  10.578   2.996 -1.0845  0.0439  0.0999
  472MOL0     C63604  11.794  10.609   3.123 -0.4280  0.6398 -0.5124
  472MOL0     C63605  11.922  10.666   3.180 -0.7585 -0.3882 -0.0617
  472MOL0     C63606  11.940  10.819   3.192  0.3727 -1.0352 -0.2878
  472MOL0     C63607  11.910  10.906   3.060 -0.2097 -0.6620  0.0209
  472MOL0     C63608  12.013  10.909   2.943 -0.3703  0.8606 -0.2543
  472MOL0     O63609  12.060  10.770   2.922 -0.7340  0.0183 -0.8332
  472MOL0     C63610  12.175  10.743   2.854 -0.1073 -0.1857  0.1005
  472MOL0     C63611  12.223  10.813   2.750 -0.2785  0.6029 -0.1701
  472MOL0     C63612  12.347  10.778   2.682 -0.2181 -0.2417  0.5938
  472MOL0     C63613  12.389  10.874   2.567  0.1023 -0.0893 -0.5242
  472MOL0     C63614  12.421  10.663   2.723  0.7927 -0.1310 -1.6263
  472MOL0     C63615  12.535  10.596   2.652 -0.4932  0.3046  0.1728
  472MOL0     O63616  12.606  10.509   2.730  0.3381 -0.2602  1.2773
  472MOL0     C63617  12.721  10.447   2.683  0.5918  0.6061  0.5969
  472MOL0     C63618  12.806  10.500   2.586  0.1384 -0.0313  0.3423
  472MOL0     C63619  12.918  10.434   2.541  0.0010 -1.0657  0.0336
  472MOL0     C63620  12.954  10.310   2.580  0.5125  0.4836  0.2114
  472MOL0     O63621  13.065  10.267   2.510 -0.3933  0.2389  0.1117
  472MOL0     C63622  13.077  10.129   2.496 -0.0807  0.6487  1.0041
  472MOL0     C63623  12.965  10.063   2.426  0.1871  1.8200  0.2094
  472MOL0     C63624  12.971   9.909   2.423  0.1053  0.1591 -0.4908
  472MOL0     C63625  13.105   9.849   2.372 -0.0713  0.2760  0.1655
  472MOL0     C63626  13.105   9.701   2.346  0.3103 -0.8969  0.9205
  472MOL0     C63627  13.105   9.618   2.477  0.8118 -0.5458 -1.8969
  472MOL0     C63628  13.093   9.474   2.455  0.7306  0.3290  0.5723
  472MOL0     C63629  13.048   9.393   2.572  0.5022 -0.6194 -0.1149
  472MOL0    Cl63630  12.884   9.452   2.621 -0.0491 -0.3125 -0.6729
  472MOL0     C63631  12.874  10.248   2.688 -0.6995  0.2172  0.8001
  472MOL0     C63632  12.760  10.319   2.735  0.7186 -0.3844  0.1808
  472MOL0     O63633  12.558  10.632   2.534 -0.0044  0.2030  0.6556
  472MOL0     C63634  12.368  10.599   2.843 -0.1631 -0.3145 -0.3303
  472MOL0     C63635  12.251  10.641   2.909  0.0642 -0.1776  0.3179
  472MOL0     N63636  11.683  10.584   3.195  0.4493  0.5955  0.7432
  472MOL0     N63637  11.585  10.549   3.121  0.8101  0.3035 -0.6195
  472MOL0     C63638  10.578  10.204   2.664 -0.7415 -0.5326 -0.3265
  472MOL0     C63639  10.446  10.254   2.644 -0.9079  0.5660  0.3547
  472MOL0     C63640  10.054  10.194   2.508  0.9882 -0.8188  0.9163
  472MOL0     C63641  10.022  10.145   2.387  0.5088 -0.0231  1.5104
  472MOL0     C63642   9.916  10.208   2.308 -0.1843 -0.2371 -0.2273
  472MOL0     C63643   9.839  10.307   2.357  0.2203 -0.4267  0.1599
  472MOL0     O63644   9.731  10.346   2.273  0.3086  0.7665 -0.2777
  472MOL0     C63645   9.628  10.434   2.315  0.2873  0.0151  0.5437
  472MOL0     C63646   9.503  10.404   2.234  0.5263  0.1617  0.1085
  472MOL0     C63647   9.417  10.531   2.204 -0.7009 -0.7329 -0.1662
  472MOL0     C63648   9.345  10.579   2.325  0.0707 -0.1678  0.5766
  472MOL0     C63649   9.258  10.682   2.278 -0.1170 -0.3695 -0.2692
  472MOL0     C63650   9.199  10.783   2.232 -0.6510  0.1334 -0.3546
  472MOL0     C63651   9.858  10.349   2.486  0.2712  0.4230 -0.8239
  472MOL0     C63652   9.969  10.293   2.559  0.1532  0.4613 -0.7585
  472MOL0     H63653  10.283  10.114   2.904 -0.4757  1.4978 -0.1962
  472MOL0     H63654  10.513  10.014   2.933  0.8996 -1.6046 -1.2383
  472MOL0     H63655  10.872  10.161   2.665  3.8562  0.0208  0.5917
  472MOL0     H63656  10.813  10.278   2.802  1.1329 -0.0258  3.0661
  472MOL0     H63657  10.942  10.090   2.930 -0.3982 -0.7309  0.7174
  472MOL0     H63658  11.032  10.067   2.779  1.0470  0.6415  1.2947
  472MOL0     H63659  11.024  10.316   2.951 -0.1065 -0.0474  0.7487
  472MOL0     H63660  11.169  10.222   2.909  0.3505  1.5875  1.5433
  472MOL0     H63661  11.131  10.307   2.654  2.2364  3.0669 -0.1034
  472MOL0     H63662  11.007  10.409   2.726 -1.4533 -1.2608  1.9417
  472MOL0     H63663  11.189  10.521   2.680  1.1496  0.9826  0.7607
  472MOL0     H63664  11.163  10.514   2.867 -0.2140 -0.5315  0.1679
  472MOL0     H63665  11.346  10.336   2.845  0.0786 -0.1096 -1.1884
  472MOL0     H63666  11.386  10.392   2.692  4.0780  2.0512  0.9638
  472MOL0     H63667  11.451  10.603   2.756  1.3496 -1.1698  0.3537
  472MOL0     H63668  11.377  10.585   2.926 -1.2893 -0.4953  0.5292
  472MOL0     H63669  11.632  10.435   2.814 -0.8969  1.6896 -1.6064
  472MOL0     H63670  11.532  10.365   2.929  1.3207 -0.2528  0.0615
  472MOL0     H63671  11.829  10.598   2.915 -1.9846  0.6922 -0.5325
  472MOL0     H63672  11.941  10.623   3.279  2.6050  1.1255  0.0964
  472MOL0     H63673  12.006  10.630   3.120  0.6626  0.0575  1.5811
  472MOL0     H63674  12.043  10.835   3.225 -0.5854 -0.7151  2.8480
  472MOL0     H63675  11.887  10.856   3.280  3.3051  1.0799  0.7353
  472MOL0     H63676  11.912  11.010   3.091  0.9485 -1.0177  1.2541
  472MOL0     H63677  11.808  10.896   3.023  0.6800 -2.0174 -2.3514
  472MOL0     H63678  12.097  10.972   2.973  0.0678  0.9625 -1.6177
  472MOL0     H63679  11.970  10.964   2.859 -1.7235  3.2546  1.8657
  472MOL0     H63680  12.158  10.893   2.718 -0.5947  1.3958  2.2613
  472MOL0     H63681  12.313  10.951   2.553 -0.0443  0.2983  2.0541
  472MOL0     H63682  12.485  10.923   2.588 -1.0227  2.1788 -0.4328
  472MOL0     H63683  12.395  10.809   2.479 -1.7419 -3.4421  1.5977
  472MOL0     H63684  12.791  10.603   2.556 -0.6079 -0.3905 -0.5669
  472MOL0     H63685  12.984  10.485   2.471 -0.6281 -0.8324 -0.3949
  472MOL0     H63686  13.171  10.097   2.451 -1.3726 -2.4099  0.2162
  472MOL0     H63687  13.080  10.081   2.594 -3.6530 -0.3326  0.7829
  472MOL0     H63688  12.870  10.100   2.465 -0.8272  0.0453 -0.4513
  472MOL0     H63689  12.964  10.096   2.322 -2.1236  0.9000 -0.1201
  472MOL0     H63690  12.892   9.888   2.350 -1.1240 -1.8190  1.2884
  472MOL0     H63691  12.949   9.868   2.522 -0.7715  0.2319 -0.6439
  472MOL0     H63692  13.150   9.908   2.292 -1.5317 -0.3050 -1.1388
  472MOL0     H63693  13.175   9.866   2.454 -0.9531  2.3310  0.5418
  472MOL0     H63694  13.198   9.682   2.292  0.1344  0.2398  0.1820
  472MOL0     H63695  13.015   9.671   2.291  0.4415 -0.5757  0.5249
  472MOL0     H63696  13.194   9.653   2.531  0.0022  1.3461 -1.7293
  472MOL0     H63697  13.019   9.655   2.534  0.6417 -1.0240 -1.8407
  472MOL0     H63698  13.188   9.430   2.422  1.7860  0.4141  3.2820
  472MOL0     H63699  13.023   9.463   2.371  3.1719  0.1784 -1.5812
  472MOL0     H63700  13.122   9.421   2.647  0.2833  1.6456 -0.6657
  472MOL0     H63701  13.047   9.285   2.555 -0.1937 -0.4976 -0.9107
  472MOL0     H63702  12.902  10.151   2.730 -0.3151 -0.6986 -1.4374
  472MOL0     H63703  12.698  10.280   2.816  2.0544 -0.9298  0.9602
  472MOL0     H63704  12.422  10.517   2.890  0.6325  1.1300  1.4109
  472MOL0     H63705  12.231  10.588   3.002 -0.3265  0.6330  0.7058
  472MOL0     H63706  10.654  10.229   2.590 -0.7368  1.0072  0.1447
  472MOL0     H63707  10.409  10.321   2.567  0.1117  1.8383  0.9250
  472MOL0     H63708  10.076  10.062   2.343 -0.6242 -0.1686  0.3274
  472MOL0     H63709   9.904  10.179   2.204  0.4973  4.4635 -1.8507
  472MOL0     H63710   9.606  10.422   2.422  1.2200 -1.0377  0.6348
  472MOL0     H63711   9.673  10.533   2.301  1.5192 -0.5589  0.3210
  472MOL0     H63712   9.447  10.334   2.296 -2.7198  2.1619 -0.3483
  472MOL0     H63713   9.516  10.364   2.133 -2.4549  1.4122 -0.8732
  472MOL0     H63714   9.344  10.493   2.132 -2.3605 -1.6443  1.9163
  472MOL0     H63715   9.479  10.610   2.161 -0.8194 -0.3940  0.2809
  472MOL0     H63716   9.407  10.609   2.410 -0.6573  1.2336  0.6392
  472MOL0     H63717   9.293  10.500   2.381 -1.0936  1.2695  1.6137
  472MOL0     H63718   9.159  10.871   2.187  3.2251  2.6224  0.5604
  472MOL0     H63719   9.790  10.423   2.527 -1.0707 -0.8466 -0.6823
  472MOL0     H63720   9.995  10.345   2.651  1.3425  4.0974 -2.9714
  473MOL0     O63721   8.779   0.242   7.972  0.4979 -0.2873 -0.6929
  473MOL0     C63722   8.710   0.150   7.997  0.1883  0.5203  1.1464
  473MOL0     O63723   8.622   0.144   8.107 -0.4748 -0.4311  0.6625
  473MOL0     C63724   8.530   0.041   8.122  0.3015  0.3297  0.0734
  473MOL0     C63725   8.558  -0.081   8.183  0.2193  0.3390  0.9838
  473MOL0     C63726   8.467  -0.185   8.194  0.3347  0.7800 -0.0050
  473MOL0     C63727   8.339  -0.166   8.131  0.9108  0.3155 -0.1676
  473MOL0     O63728   8.245  -0.266   8.132  0.0947 -1.0522 -0.0191
  473MOL0     C63729   8.109  -0.230   8.183  0.1211  0.2669  0.7583
  473MOL0     C63730   8.025  -0.356   8.207  0.3426 -0.0005 -0.0690
  473MOL0     C63731   7.879  -0.333   8.267  0.4418 -0.2521 -0.5625
  473MOL0     C63732   7.803  -0.467   8.240  0.8847 -0.4205 -1.0024
  473MOL0     C63733   7.666  -0.461   8.307  0.6802 -0.3109 -0.0816
  473MOL0     C63734   7.653  -0.402   8.451  0.5048 -0.1608  1.1328
  473MOL0     C63735   7.737  -0.473   8.556  0.6729 -0.2299 -1.1674
  473MOL0     C63736   7.718  -0.419   8.691  0.5140  0.2001 -0.6589
  473MOL0     N63737   7.586  -0.440   8.751 -0.4890 -0.8606  0.1113
  473MOL0     C63738   7.514  -0.338   8.801 -0.0151  0.7437 -0.3801
  473MOL0     C63739   7.389  -0.382   8.817 -0.0711 -0.3949  0.2695
  473MOL0     C63740   7.258  -0.309   8.852  0.8635  0.3160  0.3438
  473MOL0     C63741   7.177  -0.308   8.722 -0.3655 -0.0655 -0.5028
  473MOL0     C63742   7.075  -0.203   8.708  0.0252 -0.6507  0.3623
  473MOL0     C63743   6.972  -0.187   8.814  0.2086  1.1510  0.0076
  473MOL0     O63744   6.899  -0.066   8.785 -0.3518  0.3534  0.1397
  473MOL0     C63745   6.791  -0.028   8.862 -0.2199 -0.2447  0.0956
  473MOL0     C63746   6.737  -0.111   8.969 -0.1984  0.0476 -0.1848
  473MOL0     C63747   6.624  -0.065   9.039  0.1154 -0.1388  0.3559
  473MOL0     C63748   6.554  -0.166   9.135 -0.6975  0.5604  0.4874
  473MOL0     C63749   6.571   0.066   9.014  0.0917  0.5416  0.4570
  473MOL0     C63750   6.477   0.132   9.106  0.3192  0.1443 -0.5155
  473MOL0     O63751   6.521   0.141   9.235 -0.2984 -0.1963 -0.5138
  473MOL0     C63752   6.442   0.194   9.339 -0.1729 -0.5310  0.9944
  473MOL0     C63753   6.496   0.285   9.440 -0.4206 -0.8309 -0.4639
  473MOL0     C63754   6.421   0.339   9.539  0.7482 -1.1470 -0.6272
  473MOL0     C63755   6.282   0.330   9.532 -0.2238 -0.3066  0.5130
  473MOL0     O63756   6.214   0.404   9.629  0.0868  0.1746 -0.0615
  473MOL0     C63757   6.112   0.333   9.701  0.0516  0.1831  0.4630
  473MOL0     C63758   6.047   0.435   9.794 -0.3635 -0.6203  0.6067
  473MOL0     C63759   5.932   0.374   9.867 -0.7928  0.6062  0.0767
  473MOL0     C63760   5.847   0.480   9.928  0.3150 -1.3900  0.3308
  473MOL0     C63761   5.703   0.433   9.975 -0.3088 -0.8756  0.3859
  473MOL0     C63762   5.646   0.533  10.072 -0.6011 -0.0068 -0.2426
  473MOL0     C63763   5.504   0.587  10.044  0.5231 -0.3714  0.1752
  473MOL0     C63764   5.457   0.676  10.159  0.2360  0.4132 -0.0055
  473MOL0    Cl63765   5.518   0.847  10.127 -0.5564  0.5236  0.2450
  473MOL0     C63766   6.225   0.238   9.438 -0.2688 -0.8300  0.2903
  473MOL0     C63767   6.301   0.163   9.344 -0.0884  0.8240 -0.0530
  473MOL0     O63768   6.378   0.192   9.054  0.5429 -0.8001  0.1042
  473MOL0     C63769   6.621   0.147   8.906  0.4775  0.0030  1.1935
  473MOL0     C63770   6.732   0.103   8.835  0.0027  0.3533  0.8084
  473MOL0     N63771   7.385  -0.512   8.775 -1.0510 -0.2551 -0.6960
  473MOL0     N63772   7.506  -0.536   8.728 -0.4102  0.5748  0.1898
  473MOL0     C63773   8.310  -0.044   8.067  0.5912 -0.2969 -0.0673
  473MOL0     C63774   8.403   0.058   8.069  0.6332  0.1164  1.2305
  473MOL0     C63775   8.723   0.028   7.913 -1.1583  0.5085  0.1987
  473MOL0     C63776   8.674   0.012   7.773 -0.2962 -0.3071 -0.1644
  473MOL0     C63777   8.710  -0.098   7.694  0.1957 -0.9825  0.6543
  473MOL0     C63778   8.770  -0.210   7.750 -0.0653 -0.4011  0.5167
  473MOL0     O63779   8.787  -0.322   7.668  0.2754 -0.4996 -0.1997
  473MOL0     C63780   8.883  -0.423   7.703  0.1190  0.7478  0.5432
  473MOL0     C63781   8.933  -0.514   7.586  0.3311  0.2661  0.5557
  473MOL0     C63782   9.057  -0.593   7.640 -0.4348  0.4348 -0.2471
  473MOL0     C63783   9.126  -0.674   7.529 -0.1980 -0.3674 -0.4259
  473MOL0     C63784   9.052  -0.785   7.471  0.5528  0.7370  0.5532
  473MOL0     C63785   8.994  -0.878   7.430  0.1166  0.2385  0.9303
  473MOL0     C63786   8.816  -0.202   7.890  0.1639 -0.5671 -0.3786
  473MOL0     C63787   8.798  -0.076   7.955 -0.1711 -0.2402  1.2118
  473MOL0     H63788   8.657  -0.088   8.228 -1.2214 -0.5434  4.3113
  473MOL0     H63789   8.501  -0.282   8.231  0.4465  0.2537 -1.4052
  473MOL0     H63790   8.122  -0.173   8.275  0.0048 -1.6371  2.0030
  473MOL0     H63791   8.060  -0.168   8.106  1.2637  2.1034  1.4393
  473MOL0     H63792   8.018  -0.409   8.112 -0.4720  2.0558 -1.2097
  473MOL0     H63793   8.092  -0.415   8.270  3.1659  1.9690 -1.0315
  473MOL0     H63794   7.881  -0.300   8.371 -1.4086  2.2345 -1.2110
  473MOL0     H63795   7.814  -0.255   8.225  3.2459  2.3375 -0.4116
  473MOL0     H63796   7.780  -0.484   8.135  0.3928 -0.7298 -0.8490
  473MOL0     H63797   7.857  -0.551   8.284 -0.1590 -1.5557 -1.8176
  473MOL0     H63798   7.598  -0.409   8.240 -0.5942 -1.8313 -0.0172
  473MOL0     H63799   7.627  -0.560   8.331  0.7575  0.1734  2.2890
  473MOL0     H63800   7.686  -0.298   8.453 -1.0717  0.3390  2.0866
  473MOL0     H63801   7.548  -0.396   8.479  0.0372  3.7728 -0.8025
  473MOL0     H63802   7.696  -0.574   8.564 -1.9775  0.9075  2.8240
  473MOL0     H63803   7.844  -0.477   8.534  0.5704  1.0567 -2.0360
  473MOL0     H63804   7.739  -0.312   8.698 -0.2025  0.2288  2.6494
  473MOL0     H63805   7.787  -0.472   8.757 -2.4304 -1.9756  0.9499
  473MOL0     H63806   7.550  -0.237   8.811  1.1463  0.6094 -2.7001
  473MOL0     H63807   7.203  -0.345   8.940 -1.9106  1.0859 -0.9689
  473MOL0     H63808   7.273  -0.204   8.879  0.7068  0.2794  0.5765
  473MOL0     H63809   7.128  -0.405   8.709  0.1630 -0.6797  1.7255
  473MOL0     H63810   7.245  -0.285   8.639 -1.8031 -1.5057 -2.1748
  473MOL0     H63811   7.030  -0.207   8.609 -0.4458 -1.5207  0.5912
  473MOL0     H63812   7.123  -0.105   8.712 -1.7905  0.2415  3.5358
  473MOL0     H63813   7.023  -0.179   8.910  4.5724  0.8977 -2.0379
  473MOL0     H63814   6.911  -0.277   8.809  3.3830 -1.1286 -2.1441
  473MOL0     H63815   6.779  -0.210   8.986 -0.7605 -0.1130  0.3380
  473MOL0     H63816   6.461  -0.188   9.082 -0.7777  0.3368  0.7174
  473MOL0     H63817   6.617  -0.254   9.150 -2.0006 -0.1516  2.0297
  473MOL0     H63818   6.525  -0.126   9.232 -0.9899 -1.1357  1.1332
  473MOL0     H63819   6.600   0.309   9.425 -0.7183  1.3817  0.6379
  473MOL0     H63820   6.465   0.395   9.620  2.9695 -2.7539 -0.6398
  473MOL0     H63821   6.033   0.302   9.632  1.4853 -1.3752 -0.5628
  473MOL0     H63822   6.152   0.256   9.767 -0.8192 -0.1428  0.6314
  473MOL0     H63823   6.122   0.465   9.868 -0.6546  2.1142 -0.0725
  473MOL0     H63824   6.028   0.534   9.751  1.5275 -0.1896  0.6599
  473MOL0     H63825   5.979   0.323   9.951  1.7148  3.6800  0.7211
  473MOL0     H63826   5.868   0.312   9.803 -0.9159 -0.4416  1.1953
  473MOL0     H63827   5.892   0.537  10.010 -2.3697 -1.3585  1.8805
  473MOL0     H63828   5.826   0.561   9.857  0.9480 -1.0295  0.5452
  473MOL0     H63829   5.710   0.331  10.014 -3.5028 -0.9801  0.9994
  473MOL0     H63830   5.645   0.422   9.883  1.5244 -1.0571 -0.8100
  473MOL0     H63831   5.658   0.495  10.174 -1.7608  1.3620  0.4343
  473MOL0     H63832   5.714   0.617  10.053  0.1589 -1.1277 -3.0612
  473MOL0     H63833   5.429   0.507  10.042 -1.7266  1.5750  1.3673
  473MOL0     H63834   5.511   0.641   9.950  0.7461 -4.2045 -2.2381
  473MOL0     H63835   5.504   0.640  10.252 -0.9555  1.3751  1.0080
  473MOL0     H63836   5.349   0.680  10.175  0.4590 -0.7884  2.2423
  473MOL0     H63837   6.119   0.226   9.453 -0.4962  0.2757 -0.2965
  473MOL0     H63838   6.267   0.108   9.257  3.0382  0.4385 -1.1448
  473MOL0     H63839   6.581   0.247   8.890 -0.6941 -0.8511 -1.9275
  473MOL0     H63840   6.771   0.172   8.760 -1.1223 -0.4973 -0.6095
  473MOL0     H63841   8.211  -0.033   8.023  0.9968 -0.3705 -1.0295
  473MOL0     H63842   8.373   0.157   8.037  0.9797  0.2228  1.2283
  473MOL0     H63843   8.618   0.089   7.721 -1.4538  0.9484  2.6862
  473MOL0     H63844   8.675  -0.098   7.591 -2.4500 -0.5659  1.4979
  473MOL0     H63845   8.969  -0.380   7.756  0.9443  0.5150 -0.5614
  473MOL0     H63846   8.831  -0.491   7.771 -1.5870  0.6350 -0.7981
  473MOL0     H63847   8.961  -0.450   7.502  3.5653  0.5288  1.6732
  473MOL0     H63848   8.855  -0.584   7.555 -0.4949  0.9564  1.0208
  473MOL0     H63849   9.025  -0.656   7.723 -4.9189  0.9076 -1.3738
  473MOL0     H63850   9.136  -0.526   7.674 -1.3922  1.7710 -0.5986
  473MOL0     H63851   9.221  -0.720   7.557 -0.5983 -2.8110 -2.7094
  473MOL0     H63852   9.145  -0.597   7.453  0.6016  2.0767  2.0781
  473MOL0     H63853   8.938  -0.961   7.392 -0.9381  2.6305 -3.2882
  473MOL0     H63854   8.870  -0.282   7.941  0.2439  1.6941  3.5271
  473MOL0     H63855   8.843  -0.056   8.051 -0.1228 -0.3381  1.2090
  474MOL0     O63856   0.229   9.323   2.275 -0.1414 -1.5775  0.1575
  474MOL0     C63857   0.262   9.422   2.333 -0.4279 -0.4043 -0.0727
  474MOL0     O63858   0.199   9.540   2.354 -0.0221 -0.4749  0.3938
  474MOL0     C63859   0.069   9.570   2.306 -0.9225  0.3480  0.0866
  474MOL0     C63860   0.029   9.700   2.280  0.1664 -0.6500 -0.3836
  474MOL0     C63861  -0.103   9.716   2.248  0.1480 -0.3104  0.6764
  474MOL0     C63862  -0.198   9.612   2.234 -0.2010 -0.3025 -0.2324
  474MOL0     O63863  -0.329   9.629   2.207 -0.4143  0.6053  0.5632
  474MOL0     C63864  -0.367   9.753   2.141  0.2006 -0.0712  0.1099
  474MOL0     C63865  -0.514   9.751   2.087  0.0794 -0.2803  0.1666
  474MOL0     C63866  -0.575   9.874   2.014  0.1413  0.8130 -0.2081
  474MOL0     C63867  -0.510   9.905   1.879 -0.1879 -0.5089 -1.0712
  474MOL0     C63868  -0.560  10.034   1.818 -0.2016  0.3052 -0.1829
  474MOL0     C63869  -0.493  10.064   1.683 -0.1588  0.0253  0.2587
  474MOL0     C63870  -0.500  10.206   1.619 -0.2130  0.6742  0.4844
  474MOL0     C63871  -0.383  10.233   1.527 -0.2617 -0.2572  0.9139
  474MOL0     N63872  -0.419  10.195   1.390 -0.1331 -0.3530  1.2579
  474MOL0     C63873  -0.368  10.097   1.309 -0.2045 -0.4872 -0.3475
  474MOL0     C63874  -0.415  10.122   1.179 -0.3535  0.0427 -0.7256
  474MOL0     C63875  -0.366  10.055   1.053  0.4926  0.2623  0.5561
  474MOL0     C63876  -0.483  10.023   0.957 -0.3544  0.1375 -1.0518
  474MOL0     C63877  -0.462   9.912   0.864  0.2783  0.5970 -0.8864
  474MOL0     C63878  -0.397   9.954   0.736 -0.4347  0.4882  0.0404
  474MOL0     O63879  -0.342   9.844   0.668  0.2224 -0.6983 -0.2453
  474MOL0     C63880  -0.413   9.818   0.552  0.8612  0.2739 -0.8186
  474MOL0     C63881  -0.549   9.834   0.531  0.0474 -0.7675 -0.3852
  474MOL0     C63882  -0.616   9.825   0.406  0.3454 -0.7651  0.2559
  474MOL0     C63883  -0.774   9.813   0.396 -0.0473  0.7108  0.0060
  474MOL0     C63884  -0.536   9.792   0.290 -1.4345 -0.8689 -0.8800
  474MOL0     C63885  -0.593   9.765   0.158  1.0080  0.1919  0.3197
  474MOL0     O63886  -0.720   9.730   0.140  0.6126  0.4930  0.2942
  474MOL0     C63887  -0.785   9.738   0.015  0.9538  0.5432 -0.6822
  474MOL0     C63888  -0.775   9.844  -0.078 -0.3607  0.0025 -0.0111
  474MOL0     C63889  -0.867   9.853  -0.187  0.3025  0.3045 -0.2422
  474MOL0     C63890  -0.971   9.756  -0.198 -0.3496  0.2644  1.1294
  474MOL0     O63891  -1.042   9.762  -0.322  0.1575 -0.5267 -0.2087
  474MOL0     C63892  -1.142   9.663  -0.336  0.2322  0.4167 -0.2508
  474MOL0     C63893  -1.199   9.699  -0.469  0.5332  0.3745 -0.0707
  474MOL0     C63894  -1.117   9.638  -0.581 -0.4533 -0.5225  0.0148
  474MOL0     C63895  -1.190   9.614  -0.714 -0.5308 -1.2596  0.4150
  474MOL0     C63896  -1.091   9.628  -0.828 -0.2473  0.2375 -0.3262
  474MOL0     C63897  -1.049   9.771  -0.862 -0.1548  0.1540  0.4784
  474MOL0     C63898  -1.150   9.890  -0.864 -0.0815  0.4208  0.3373
  474MOL0     C63899  -1.092  10.024  -0.880  0.1500  0.4869 -0.4467
  474MOL0    Cl63900  -0.970  10.048  -0.750 -0.3865 -0.0481  0.0166
  474MOL0     C63901  -0.986   9.656  -0.103  0.0391  0.1616 -0.0753
  474MOL0     C63902  -0.892   9.649   0.001 -0.6520  0.7554 -0.0541
  474MOL0     O63903  -0.514   9.784   0.069  1.0527 -0.2925 -0.2626
  474MOL0     C63904  -0.392   9.779   0.309  0.8460 -0.2710 -0.5368
  474MOL0     C63905  -0.336   9.781   0.442  0.3811  0.3880 -0.6817
  474MOL0     N63906  -0.502  10.218   1.179 -0.9076  0.1890 -0.0469
  474MOL0     N63907  -0.506  10.260   1.300  0.7156 -0.5205  0.0075
  474MOL0     C63908  -0.153   9.482   2.258 -0.1267  0.0620 -0.4620
  474MOL0     C63909  -0.022   9.463   2.291 -0.5602  0.1064 -0.0296
  474MOL0     C63910   0.400   9.427   2.376 -0.3809 -0.1203 -0.0477
  474MOL0     C63911   0.457   9.546   2.430  0.3760 -0.3310 -0.0820
  474MOL0     C63912   0.591   9.554   2.461  0.1558 -0.9711 -0.0451
  474MOL0     C63913   0.669   9.440   2.465  1.1561 -1.0613 -1.0276
  474MOL0     O63914   0.799   9.451   2.504  0.3572  0.5864  0.0799
  474MOL0     C63915   0.881   9.337   2.509 -0.5722  0.3000  0.0251
  474MOL0     C63916   1.022   9.369   2.558  0.2145  0.0950  0.7626
  474MOL0     C63917   1.124   9.404   2.442  0.0428 -0.2064  0.1738
  474MOL0     C63918   1.210   9.289   2.400  0.0796  0.5476  0.1176
  474MOL0     C63919   1.131   9.194   2.317  0.3345  0.4640 -0.6398
  474MOL0     C63920   1.060   9.130   2.245  0.4100  0.6537  0.2820
  474MOL0     C63921   0.613   9.323   2.424 -0.1528  0.1714 -0.1849
  474MOL0     C63922   0.488   9.313   2.372  0.4095 -0.4744 -0.0097
  474MOL0     H63923   0.109   9.774   2.286  0.2895 -0.9002  1.4354
  474MOL0     H63924  -0.140   9.817   2.230  1.6306  0.3531  1.1549
  474MOL0     H63925  -0.353   9.844   2.201 -2.2039  0.9983 -0.8266
  474MOL0     H63926  -0.308   9.764   2.050 -2.3374  0.0724 -1.6399
  474MOL0     H63927  -0.525   9.663   2.024 -1.0570  0.2564 -0.4122
  474MOL0     H63928  -0.579   9.736   2.174 -2.2382  2.2168 -1.0008
  474MOL0     H63929  -0.683   9.867   1.998 -0.3129  0.5976  2.4203
  474MOL0     H63930  -0.559   9.967   2.069  0.5445  1.6104 -1.6455
  474MOL0     H63931  -0.402   9.916   1.895 -0.2977  1.8219 -1.5653
  474MOL0     H63932  -0.522   9.827   1.804  0.9196 -1.2162 -0.5332
  474MOL0     H63933  -0.669  10.034   1.813 -0.2493  1.6731  0.3668
  474MOL0     H63934  -0.535  10.118   1.884  0.8373  0.0119 -0.1921
  474MOL0     H63935  -0.386  10.049   1.702  0.0041  0.9729  0.1644
  474MOL0     H63936  -0.518   9.998   1.599  0.8589  0.6206 -0.5332
  474MOL0     H63937  -0.593  10.205   1.561 -0.3049 -1.8194  0.5848
  474MOL0     H63938  -0.519  10.283   1.695  2.3822 -0.8684  2.8905
  474MOL0     H63939  -0.286  10.191   1.556  1.9461  2.3721 -2.0422
  474MOL0     H63940  -0.374  10.342   1.529  0.9082 -0.3317  2.4194
  474MOL0     H63941  -0.282  10.038   1.338  1.0059  1.2082 -0.3325
  474MOL0     H63942  -0.295  10.123   1.004 -1.0008  2.6790  1.5638
  474MOL0     H63943  -0.315   9.964   1.084  2.6958  0.6513 -1.6074
  474MOL0     H63944  -0.505  10.112   0.898  2.1949  0.7746 -1.1740
  474MOL0     H63945  -0.571   9.988   1.011  0.8243 -1.0986  0.1726
  474MOL0     H63946  -0.557   9.860   0.849  1.2958 -0.8646 -2.5911
  474MOL0     H63947  -0.399   9.836   0.910  0.4295  0.2862 -1.5953
  474MOL0     H63948  -0.307  10.009   0.765  0.4309 -1.2950  0.8544
  474MOL0     H63949  -0.465  10.029   0.693 -3.0447 -1.3384  0.7444
  474MOL0     H63950  -0.611   9.877   0.610  0.0220 -1.1921 -0.1698
  474MOL0     H63951  -0.809   9.861   0.304 -0.3453 -3.6185 -2.3739
  474MOL0     H63952  -0.802   9.707   0.396 -1.9026  1.1528  0.2303
  474MOL0     H63953  -0.826   9.849   0.486 -1.8571 -3.4701  0.8742
  474MOL0     H63954  -0.691   9.910  -0.062  0.9108 -1.6392  0.4425
  474MOL0     H63955  -0.863   9.928  -0.265  0.7187 -1.2755 -1.8083
  474MOL0     H63956  -1.115   9.557  -0.336  0.6855  0.4996  1.6776
  474MOL0     H63957  -1.217   9.688  -0.261  0.5675  2.6957 -0.5951
  474MOL0     H63958  -1.299   9.655  -0.464  0.1924  1.2958  2.6885
  474MOL0     H63959  -1.213   9.805  -0.493  2.5415  0.6384 -0.2347
  474MOL0     H63960  -1.079   9.540  -0.549 -1.6449 -1.2902 -0.8433
  474MOL0     H63961  -1.023   9.692  -0.596  0.4160 -2.3969 -1.7736
  474MOL0     H63962  -1.235   9.515  -0.715 -0.1196 -1.4654  1.4254
  474MOL0     H63963  -1.266   9.690  -0.736 -0.3890 -0.7983  1.4510
  474MOL0     H63964  -1.144   9.576  -0.908 -2.1093  0.8882  0.4190
  474MOL0     H63965  -1.002   9.575  -0.792  0.5358  3.0188  2.2752
  474MOL0     H63966  -0.958   9.789  -0.804  1.3520 -3.5826 -0.3929
  474MOL0     H63967  -1.032   9.763  -0.970  0.2008 -0.9577  0.6041
  474MOL0     H63968  -1.200   9.898  -0.767 -1.0361  2.0605 -0.2577
  474MOL0     H63969  -1.215   9.875  -0.951 -1.4788  0.4848  1.3433
  474MOL0     H63970  -1.179  10.090  -0.875 -1.0240 -1.1174  2.3589
  474MOL0     H63971  -1.045  10.046  -0.977  2.6793  2.2103  1.0396
  474MOL0     H63972  -1.073   9.591  -0.111 -0.5050  1.0843 -3.9188
  474MOL0     H63973  -0.896   9.579   0.085  1.4577  3.3098  2.3835
  474MOL0     H63974  -0.323   9.767   0.225  0.2536 -1.0138 -0.9317
  474MOL0     H63975  -0.231   9.755   0.449 -0.2055 -1.7922  0.7535
  474MOL0     H63976  -0.221   9.397   2.261 -2.1291  1.5307  3.8803
  474MOL0     H63977   0.003   9.360   2.312 -0.4620  0.0496 -0.4164
  474MOL0     H63978   0.397   9.636   2.442  1.1400  0.5624 -2.4742
  474MOL0     H63979   0.617   9.654   2.494 -0.8743  0.4749 -3.1929
  474MOL0     H63980   0.829   9.264   2.573 -2.0712 -0.8369 -2.3179
  474MOL0     H63981   0.895   9.290   2.411  1.1779  2.4323 -0.8184
  474MOL0     H63982   1.052   9.287   2.624 -0.7201 -0.0426  1.0405
  474MOL0     H63983   1.029   9.462   2.615  2.5106 -0.9824  2.3459
  474MOL0     H63984   1.186   9.490   2.470 -2.1886  1.7790 -0.6294
  474MOL0     H63985   1.058   9.445   2.365 -1.0487  0.7345  1.5581
  474MOL0     H63986   1.247   9.234   2.487  2.4514  2.7168  0.5845
  474MOL0     H63987   1.300   9.330   2.354 -1.8369  2.9814 -1.7546
  474MOL0     H63988   1.004   9.044   2.213 -0.5365 -0.4961  4.4714
  474MOL0     H63989   0.674   9.234   2.416  1.2381  1.2597 -3.0605
  474MOL0     H63990   0.450   9.216   2.340  0.6815 -0.3896 -0.6082
  475MOL0     O63991   9.383   2.591   1.228 -0.5255  0.2280  0.3378
  475MOL0     C63992   9.387   2.555   1.346 -0.2841  0.0284 -0.1395
  475MOL0     O63993   9.289   2.587   1.442 -0.3811 -0.8005  0.7227
  475MOL0     C63994   9.177   2.664   1.407 -0.9390 -0.0771 -0.3198
  475MOL0     C63995   9.080   2.607   1.321 -0.2720 -0.4265 -0.0062
  475MOL0     C63996   8.957   2.665   1.320  0.1821 -0.2599 -0.6452
  475MOL0     C63997   8.914   2.777   1.403 -0.7317  0.7042 -0.1792
  475MOL0     O63998   8.788   2.830   1.416  0.3474  0.4169  0.3586
  475MOL0     C63999   8.774   2.972   1.416 -0.1837 -0.5281 -0.9474
  475MOL0     C64000   8.624   3.019   1.424 -0.8895 -0.9193 -0.7130
  475MOL0     C64001   8.560   2.942   1.547 -0.1845 -0.5956 -0.5221
  475MOL0     C64002   8.422   3.001   1.559  1.0538 -1.3155  0.5546
  475MOL0     C64003   8.404   3.050   1.702  0.6661 -0.6358  0.6824
  475MOL0     C64004   8.384   2.944   1.816  0.3403  0.5239 -0.0942
  475MOL0     C64005   8.381   3.004   1.958 -0.3154 -0.5802  1.7376
  475MOL0     C64006   8.358   2.899   2.061 -0.0500 -0.0424 -1.4122
  475MOL0     N64007   8.462   2.791   2.052 -0.4543  0.8887 -0.5193
  475MOL0     C64008   8.601   2.812   2.042  1.0622  0.4136 -0.3638
  475MOL0     C64009   8.649   2.687   2.034  0.3279  0.0324  0.3380
  475MOL0     C64010   8.796   2.658   2.027 -0.7746  0.9477  0.5559
  475MOL0     C64011   8.819   2.590   1.894 -0.0170  0.9078  0.2143
  475MOL0     C64012   8.926   2.638   1.804  0.5239  0.3949 -0.2665
  475MOL0     C64013   8.996   2.535   1.716  0.5584 -0.5634  0.1455
  475MOL0     O64014   9.088   2.445   1.774 -1.0921 -0.2918  0.4361
  475MOL0     C64015   9.154   2.355   1.700 -0.3601 -0.1905  0.3258
  475MOL0     C64016   9.144   2.331   1.560  0.6211  0.0822  0.6185
  475MOL0     C64017   9.229   2.244   1.479  0.1318 -0.8917 -0.8697
  475MOL0     C64018   9.205   2.231   1.333 -0.5871  0.0903 -0.5656
  475MOL0     C64019   9.325   2.176   1.564  0.0236 -0.0923  0.4728
  475MOL0     C64020   9.401   2.074   1.506  0.7337 -0.5481 -0.9370
  475MOL0     O64021   9.533   2.080   1.545  0.1957 -0.6771 -0.1776
  475MOL0     C64022   9.617   1.977   1.489 -0.6510  0.3398 -1.2016
  475MOL0     C64023   9.662   1.872   1.572  0.3632  0.0568  0.5539
  475MOL0     C64024   9.746   1.780   1.522  0.0685  0.1786 -0.4671
  475MOL0     C64025   9.803   1.788   1.400 -0.3633  0.2834 -0.0233
  475MOL0     O64026   9.895   1.697   1.345 -0.0914  0.5985  0.8450
  475MOL0     C64027  10.022   1.671   1.411  0.0749  0.4424  1.1218
  475MOL0     C64028  10.013   1.552   1.514  0.8577 -0.6056 -0.4343
  475MOL0     C64029  10.149   1.510   1.573  0.6618  0.3154 -0.2611
  475MOL0     C64030  10.131   1.366   1.638  0.4095 -0.8746 -0.1992
  475MOL0     C64031  10.268   1.305   1.686 -0.3220 -0.5675  0.6830
  475MOL0     C64032  10.351   1.407   1.769  0.5812  1.0616 -0.4547
  475MOL0     C64033  10.300   1.434   1.906 -0.6415 -0.0461 -0.1448
  475MOL0     C64034  10.399   1.507   1.999  0.5900  0.4871 -1.3317
  475MOL0    Cl64035  10.549   1.416   2.009  0.2632 -0.0430 -0.3627
  475MOL0     C64036   9.768   1.902   1.324 -0.1264  0.2366  0.2176
  475MOL0     C64037   9.680   1.989   1.369  0.3399 -0.0490  0.4149
  475MOL0     O64038   9.348   1.987   1.440 -0.5506 -0.4523 -0.3996
  475MOL0     C64039   9.350   2.211   1.702  0.5418  1.5572  0.0414
  475MOL0     C64040   9.259   2.284   1.763  0.6986 -0.5117  0.6812
  475MOL0     N64041   8.545   2.592   2.040  0.3645  0.8557  0.6658
  475MOL0     N64042   8.434   2.661   2.045  0.0986 -0.0055  0.2465
  475MOL0     C64043   9.022   2.831   1.473  0.1410  0.6250 -1.1946
  475MOL0     C64044   9.151   2.773   1.477 -0.4606 -1.3080 -0.9243
  475MOL0     C64045   9.518   2.502   1.402 -0.5602  0.3448  1.2841
  475MOL0     C64046   9.541   2.494   1.536  0.1067 -0.0384 -0.1157
  475MOL0     C64047   9.653   2.424   1.587  0.1046  0.3867  0.8310
  475MOL0     C64048   9.748   2.384   1.500 -0.2060 -0.6155 -0.7004
  475MOL0     O64049   9.851   2.314   1.553  0.2899 -0.2925  0.6490
  475MOL0     C64050   9.958   2.258   1.469  0.6197 -0.7100  0.1584
  475MOL0     C64051  10.043   2.178   1.560  0.0321  0.1259 -0.5182
  475MOL0     C64052   9.994   2.034   1.582  0.3877  0.1325 -0.0331
  475MOL0     C64053  10.076   1.945   1.677  0.0627  0.1011  0.1611
  475MOL0     C64054  10.079   2.008   1.808  0.8472 -0.2907  0.5105
  475MOL0     C64055  10.071   2.046   1.924  0.2348  0.3293  0.0511
  475MOL0     C64056   9.739   2.407   1.364  0.7184 -0.5516  0.7220
  475MOL0     C64057   9.615   2.449   1.315 -0.3879  0.3868 -0.4556
  475MOL0     H64058   9.100   2.521   1.257 -3.3909  0.3355 -2.2821
  475MOL0     H64059   8.877   2.615   1.266 -1.0078  0.1367  0.7067
  475MOL0     H64060   8.828   3.026   1.495  0.7382 -0.4490 -1.6135
  475MOL0     H64061   8.833   3.017   1.336 -0.1035  1.2045  0.0251
  475MOL0     H64062   8.630   3.126   1.449  4.1968 -1.6461  2.8181
  475MOL0     H64063   8.568   2.990   1.335 -2.1142 -2.6091  0.5489
  475MOL0     H64064   8.545   2.839   1.514 -2.0427 -0.4975 -0.0572
  475MOL0     H64065   8.626   2.942   1.635  0.6721 -1.9144 -1.1293
  475MOL0     H64066   8.402   3.082   1.489 -0.4059 -2.5907 -0.5880
  475MOL0     H64067   8.351   2.918   1.551 -0.8136  0.2524  0.0227
  475MOL0     H64068   8.489   3.113   1.730  1.2607 -1.0293 -0.2092
  475MOL0     H64069   8.320   3.120   1.703  0.0712 -1.3250 -0.0053
  475MOL0     H64070   8.293   2.884   1.802  0.5916  0.7563 -3.2537
  475MOL0     H64071   8.462   2.871   1.794 -0.1262  0.0676 -0.2460
  475MOL0     H64072   8.470   3.064   1.976 -0.8774  1.9244 -2.4458
  475MOL0     H64073   8.297   3.074   1.949  1.2935  1.2143 -0.4631
  475MOL0     H64074   8.268   2.840   2.041 -0.1692 -0.7467  0.9841
  475MOL0     H64075   8.369   2.935   2.164  1.9065  0.3092 -1.6996
  475MOL0     H64076   8.651   2.907   2.025 -1.7787  2.3306  1.1471
  475MOL0     H64077   8.859   2.745   2.011 -0.1980  0.9834  2.7068
  475MOL0     H64078   8.821   2.613   2.124 -3.3227 -1.4419  0.2223
  475MOL0     H64079   8.723   2.583   1.840  0.0083 -1.8165  0.3638
  475MOL0     H64080   8.842   2.485   1.914 -2.8722  0.3648  1.1980
  475MOL0     H64081   8.997   2.690   1.870 -1.5125  2.6041  0.2909
  475MOL0     H64082   8.894   2.719   1.738  3.6081  0.8281 -1.4267
  475MOL0     H64083   9.045   2.598   1.641 -0.2216  2.4338  1.9858
  475MOL0     H64084   8.918   2.474   1.668  0.5544 -0.4930  0.0615
  475MOL0     H64085   9.075   2.396   1.506 -0.0288 -0.7799  0.3918
  475MOL0     H64086   9.301   2.212   1.284 -0.6376 -1.8278 -0.0159
  475MOL0     H64087   9.153   2.140   1.300 -1.3898  0.2186  0.3091
  475MOL0     H64088   9.163   2.322   1.290 -1.6567 -0.9620 -1.8829
  475MOL0     H64089   9.641   1.876   1.678 -1.5595  2.8138  0.1854
  475MOL0     H64090   9.759   1.685   1.574 -0.4595  1.4037  2.0599
  475MOL0     H64091  10.103   1.641   1.343 -1.2600 -1.5001  0.2826
  475MOL0     H64092  10.057   1.763   1.458  0.4000  0.9672 -0.0838
  475MOL0     H64093   9.965   1.591   1.604  2.4002  1.8804 -0.5761
  475MOL0     H64094   9.956   1.474   1.463  0.3493 -0.2082 -0.4825
  475MOL0     H64095  10.184   1.589   1.641 -1.6544  3.6643 -2.6363
  475MOL0     H64096  10.210   1.505   1.483  0.7076  0.9168 -0.2717
  475MOL0     H64097  10.066   1.377   1.725  2.8008  4.0823  1.3616
  475MOL0     H64098  10.075   1.306   1.566 -2.2692  0.2948  0.8091
  475MOL0     H64099  10.338   1.287   1.605  0.3946 -2.9929  1.7335
  475MOL0     H64100  10.238   1.214   1.740  0.0747 -0.0597  1.8043
  475MOL0     H64101  10.445   1.352   1.781  0.8867  0.8181 -3.3569
  475MOL0     H64102  10.377   1.502   1.722  3.4336  1.6193  1.9396
  475MOL0     H64103  10.269   1.334   1.940 -0.4137 -0.1661 -0.2891
  475MOL0     H64104  10.205   1.489   1.907 -1.2980 -1.1521  0.7956
  475MOL0     H64105  10.354   1.520   2.098  0.4596  0.0189 -1.3271
  475MOL0     H64106  10.420   1.611   1.972  0.6077  0.4788 -1.3498
  475MOL0     H64107   9.830   1.918   1.237  0.6994 -3.8641 -0.1210
  475MOL0     H64108   9.660   2.078   1.311 -0.9323 -1.3119 -1.1644
  475MOL0     H64109   9.427   2.173   1.767  0.7058  1.0014 -0.4723
  475MOL0     H64110   9.271   2.295   1.870  5.7260  2.0469  0.1767
  475MOL0     H64111   9.007   2.909   1.548  2.8586  0.1359 -0.0324
  475MOL0     H64112   9.229   2.808   1.544 -1.4195 -2.2012  0.7162
  475MOL0     H64113   9.479   2.532   1.616 -1.2826  1.8975 -1.9832
  475MOL0     H64114   9.675   2.393   1.689 -0.4012  0.9448  1.1256
  475MOL0     H64115   9.925   2.191   1.388  1.5052 -0.9751  0.0135
  475MOL0     H64116  10.021   2.336   1.425  1.1823 -0.2994  1.6250
  475MOL0     H64117  10.046   2.240   1.650 -0.3455 -1.2133  0.4463
  475MOL0     H64118  10.139   2.178   1.508  1.2969  1.0261  1.7019
  475MOL0     H64119   9.999   1.981   1.486  2.5068  1.6550 -0.8533
  475MOL0     H64120   9.893   2.028   1.622  1.6632 -1.8981  3.3083
  475MOL0     H64121  10.180   1.932   1.645  0.2311  0.4248  0.5638
  475MOL0     H64122  10.045   1.840   1.681 -1.9422  0.4807 -2.6145
  475MOL0     H64123  10.067   2.059   2.030  1.4090 -1.7019  0.3923
  475MOL0     H64124   9.817   2.386   1.292 -1.1861 -1.3174 -1.2101
  475MOL0     H64125   9.612   2.453   1.207 -1.1796  1.2467 -0.4076
  476MOL0     O64126   6.830   9.323   9.811  0.3402 -0.3187 -0.3292
  476MOL0     C64127   6.741   9.296   9.733  0.3772 -0.8132 -1.1886
  476MOL0     O64128   6.746   9.197   9.642  0.5833  0.0321  0.4232
  476MOL0     C64129   6.858   9.119   9.628  0.9086  0.7174 -0.5485
  476MOL0     C64130   6.846   8.979   9.635 -0.8794  0.1030  0.0198
  476MOL0     C64131   6.969   8.903   9.620  1.0726 -0.2989  0.2629
  476MOL0     C64132   7.091   8.961   9.605 -0.1789  0.9600  0.3873
  476MOL0     O64133   7.194   8.880   9.562  0.2568  0.8982 -0.1762
  476MOL0     C64134   7.328   8.892   9.604 -0.5994 -0.6071 -1.0467
  476MOL0     C64135   7.411   8.809   9.504  0.1724  0.1599  0.1931
  476MOL0     C64136   7.430   8.659   9.540  0.7137 -0.4277 -0.8880
  476MOL0     C64137   7.307   8.586   9.492  1.2245 -0.5040  0.3229
  476MOL0     C64138   7.326   8.429   9.502  0.4909 -0.2611  0.0269
  476MOL0     C64139   7.192   8.355   9.467 -0.0441  0.2741 -0.3710
  476MOL0     C64140   7.187   8.202   9.469  0.1233 -0.2198 -0.5361
  476MOL0     C64141   7.163   8.139   9.602  0.6186 -0.5760 -0.3110
  476MOL0     N64142   7.252   8.170   9.709 -0.5242  0.1339 -0.2978
  476MOL0     C64143   7.389   8.145   9.719  0.3877  0.2185 -0.4515
  476MOL0     C64144   7.434   8.218   9.820  0.1550  0.5636  0.2011
  476MOL0     C64145   7.570   8.225   9.882  0.1803  0.7486 -0.7116
  476MOL0     C64146   7.678   8.194   9.779 -0.3971  0.6404  0.4350
  476MOL0     C64147   7.694   8.304   9.675  0.2580  0.5904 -0.4370
  476MOL0     C64148   7.774   8.265   9.549  0.3879  0.6977 -0.8591
  476MOL0     O64149   7.805   8.370   9.465  0.4294  0.3028  0.6800
  476MOL0     C64150   7.872   8.483   9.506 -0.3333 -0.0021 -0.0473
  476MOL0     C64151   7.975   8.476   9.599 -1.0035 -0.4766 -1.1037
  476MOL0     C64152   8.057   8.592   9.622  0.2542 -0.7300 -0.3081
  476MOL0     C64153   8.178   8.564   9.702  0.5335 -0.6514  0.0570
  476MOL0     C64154   8.030   8.709   9.548 -0.1893 -0.3890 -0.5213
  476MOL0     C64155   8.110   8.829   9.573 -0.4368  0.6327  1.1205
  476MOL0     O64156   8.053   8.936   9.518 -0.6449  0.3329  0.5847
  476MOL0     C64157   8.107   9.064   9.513  0.0058  0.4514 -0.1615
  476MOL0     C64158   8.098   9.138   9.395  0.2410 -0.7485  0.3410
  476MOL0     C64159   8.119   9.278   9.399 -1.3206 -0.1698  0.3214
  476MOL0     C64160   8.145   9.349   9.517 -0.4696 -0.0693 -0.6000
  476MOL0     O64161   8.154   9.484   9.525 -0.0802 -0.4712  0.0066
  476MOL0     C64162   8.198   9.540   9.400  0.1347  0.2570 -0.0601
  476MOL0     C64163   8.230   9.699   9.415  0.2407 -0.6096 -0.0091
  476MOL0     C64164   8.357   9.756   9.492  0.0329 -0.1915  0.6223
  476MOL0     C64165   8.373   9.713   9.635  0.3329  0.2497  0.9092
  476MOL0     C64166   8.492   9.786   9.689 -0.2032 -0.1489  0.9187
  476MOL0     C64167   8.530   9.735   9.828  0.6429  0.1997  0.2347
  476MOL0     C64168   8.630   9.821   9.892 -0.6714 -1.0168  1.2872
  476MOL0     C64169   8.642   9.792  10.038  0.2539  0.0359  0.1004
  476MOL0    Cl64170   8.789   9.852  10.107 -0.4742  0.2106 -0.4219
  476MOL0     C64171   8.167   9.266   9.634 -0.1486 -0.2202 -0.8254
  476MOL0     C64172   8.155   9.130   9.634 -0.2766 -0.2393 -0.3740
  476MOL0     O64173   8.224   8.826   9.619 -0.2728  0.0762  0.4523
  476MOL0     C64174   7.924   8.704   9.454 -0.6536 -0.5941 -0.0775
  476MOL0     C64175   7.845   8.589   9.427 -1.3762 -0.0974  0.0703
  476MOL0     N64176   7.327   8.275   9.890 -0.1877 -0.7912  0.9502
  476MOL0     N64177   7.220   8.256   9.816 -0.6467 -0.0471 -0.6917
  476MOL0     C64178   7.097   9.100   9.606  0.6196 -0.1837  0.2203
  476MOL0     C64179   6.983   9.179   9.614 -0.8471 -0.0167  0.0498
  476MOL0     C64180   6.615   9.387   9.727 -0.0392  0.2379 -0.3451
  476MOL0     C64181   6.594   9.485   9.831  0.6160 -0.1021  0.1232
  476MOL0     C64182   6.499   9.588   9.814 -0.3221 -0.7689  0.1611
  476MOL0     C64183   6.411   9.589   9.708  0.0124  0.6744 -0.9140
  476MOL0     O64184   6.310   9.679   9.702 -0.4688 -0.1250  0.4147
  476MOL0     C64185   6.343   9.806   9.645  0.7031 -0.5559 -0.8039
  476MOL0     C64186   6.338   9.902   9.767  0.0793  0.3659  0.6400
  476MOL0     C64187   6.357  10.055   9.731  0.3453  0.0655  0.6220
  476MOL0     C64188   6.338  10.149   9.854 -0.4793 -0.3334 -0.4986
  476MOL0     C64189   6.395  10.276   9.815  0.3265  1.1467 -0.0547
  476MOL0     C64190   6.455  10.375   9.762  0.3636  0.6422 -0.8330
  476MOL0     C64191   6.431   9.491   9.609  0.7202  0.6965 -0.1483
  476MOL0     C64192   6.531   9.390   9.619  0.3285  0.2943 -0.1269
  476MOL0     H64193   6.748   8.932   9.643 -1.2055  0.6214 -0.7664
  476MOL0     H64194   6.954   8.796   9.610 -1.0366  0.0355 -0.5640
  476MOL0     H64195   7.362   8.995   9.597 -1.5989  0.3815  4.3731
  476MOL0     H64196   7.339   8.861   9.708  1.3576 -1.4408 -1.4567
  476MOL0     H64197   7.364   8.828   9.407  0.3615  0.7980  0.2212
  476MOL0     H64198   7.512   8.852   9.502  0.3824 -0.2477  1.4710
  476MOL0     H64199   7.526   8.612   9.516  0.5723 -0.9852 -0.4006
  476MOL0     H64200   7.418   8.650   9.649 -0.6563 -0.7999 -1.0503
  476MOL0     H64201   7.221   8.618   9.551 -0.8870 -2.1976 -1.6156
  476MOL0     H64202   7.273   8.611   9.391 -1.0653 -2.2659  0.5684
  476MOL0     H64203   7.407   8.386   9.442  1.4532 -0.3559  1.3462
  476MOL0     H64204   7.356   8.410   9.605  0.8118 -1.2676 -0.2429
  476MOL0     H64205   7.113   8.402   9.526 -1.7033 -1.3875 -1.1705
  476MOL0     H64206   7.174   8.374   9.361  3.5414 -0.7845 -1.3165
  476MOL0     H64207   7.105   8.166   9.406 -2.0459 -0.0418  1.9837
  476MOL0     H64208   7.276   8.161   9.421 -0.6122  0.4105 -2.4975
  476MOL0     H64209   7.159   8.031   9.590  0.1863 -0.6903  0.7496
  476MOL0     H64210   7.071   8.186   9.638  1.0334  0.6437 -0.7681
  476MOL0     H64211   7.442   8.093   9.640  0.8303 -0.4950  0.3004
  476MOL0     H64212   7.596   8.324   9.919 -0.5393  0.3899  0.8622
  476MOL0     H64213   7.580   8.161   9.971  0.3201  1.2197 -0.3885
  476MOL0     H64214   7.667   8.093   9.738  2.0410 -1.0203  3.4071
  476MOL0     H64215   7.769   8.181   9.839 -0.5612 -0.0472  0.5483
  476MOL0     H64216   7.747   8.386   9.725 -1.4417  1.5691 -0.1280
  476MOL0     H64217   7.600   8.345   9.637  0.9213  0.9758 -1.7184
  476MOL0     H64218   7.727   8.182   9.496  2.0308  0.0667 -1.3773
  476MOL0     H64219   7.868   8.217   9.576 -0.3868 -1.9541 -2.5177
  476MOL0     H64220   7.986   8.385   9.657 -1.4902 -0.3421 -0.7909
  476MOL0     H64221   8.170   8.587   9.809  1.8909 -1.2504  0.3133
  476MOL0     H64222   8.197   8.456   9.709  1.7546 -0.6314 -2.1329
  476MOL0     H64223   8.270   8.610   9.666  0.3898 -1.5184 -1.5141
  476MOL0     H64224   8.074   9.077   9.308 -0.5482 -1.3067  0.9352
  476MOL0     H64225   8.102   9.324   9.302 -2.4525 -1.1754  0.0044
  476MOL0     H64226   8.293   9.493   9.376  0.5784 -0.0545  2.1194
  476MOL0     H64227   8.116   9.526   9.330 -1.2471  0.7955  1.3818
  476MOL0     H64228   8.234   9.753   9.320 -1.1027  0.9218  0.7560
  476MOL0     H64229   8.139   9.738   9.460  0.3546 -0.4030  0.0460
  476MOL0     H64230   8.339   9.862   9.514  3.4469  0.5405  0.4954
  476MOL0     H64231   8.450   9.740   9.438  0.6840 -0.0533  1.6661
  476MOL0     H64232   8.285   9.744   9.691 -1.4542  0.6216 -1.9173
  476MOL0     H64233   8.395   9.606   9.645  2.2602  0.3860 -1.0135
  476MOL0     H64234   8.477   9.894   9.678  2.4087  0.5215  2.9696
  476MOL0     H64235   8.569   9.754   9.617 -2.6106 -1.6423 -1.1662
  476MOL0     H64236   8.436   9.738   9.885  0.9512  0.7111  0.7278
  476MOL0     H64237   8.561   9.631   9.824  1.6740  0.5380 -1.9147
  476MOL0     H64238   8.609   9.927   9.875 -0.8663 -1.1252  0.8233
  476MOL0     H64239   8.725   9.813   9.839 -2.1868 -1.9389 -1.4811
  476MOL0     H64240   8.642   9.683  10.049  0.0973  0.0786  0.5581
  476MOL0     H64241   8.557   9.835  10.091 -0.4647  1.1951 -1.8949
  476MOL0     H64242   8.214   9.318   9.717  0.3491  1.4508 -2.0870
  476MOL0     H64243   8.186   9.071   9.721  0.6758 -2.7795 -2.2847
  476MOL0     H64244   7.911   8.798   9.403  1.9939  0.2950  0.7449
  476MOL0     H64245   7.768   8.588   9.350 -0.5031  0.2351 -0.8321
  476MOL0     H64246   7.190   9.151   9.582 -0.4583  1.9311  0.3062
  476MOL0     H64247   6.996   9.286   9.608  0.6262 -0.2311 -1.0163
  476MOL0     H64248   6.663   9.486   9.914  0.9679  1.8309 -0.1516
  476MOL0     H64249   6.486   9.647   9.904 -0.5300 -3.9011  2.3767
  476MOL0     H64250   6.439   9.798   9.594  0.6285 -0.7387 -0.9161
  476MOL0     H64251   6.279   9.839   9.563 -2.2185  0.4331  1.6801
  476MOL0     H64252   6.420   9.876   9.834  1.1992  0.5255 -0.6163
  476MOL0     H64253   6.242   9.891   9.817 -1.2060  1.6655 -1.3714
  476MOL0     H64254   6.277  10.089   9.665 -0.9309  2.0550  3.0118
  476MOL0     H64255   6.454  10.065   9.681 -0.4086  1.0279 -0.7297
  476MOL0     H64256   6.383  10.118   9.948 -1.4727 -3.1649 -0.8706
  476MOL0     H64257   6.233  10.167   9.880 -0.1248 -0.9399  1.5157
  476MOL0     H64258   6.510  10.455   9.716 -0.9501  1.1702 -1.5548
  476MOL0     H64259   6.373   9.492   9.517 -2.3423 -2.6472  1.4983
  476MOL0     H64260   6.556   9.326   9.536 -0.6963  2.0530 -1.8708
  477MOL0     O64261   5.295   5.641   5.476  0.2746  0.2548 -0.5239
  477MOL0     C64262   5.198   5.597   5.547 -0.3495 -0.0897 -0.5522
  477MOL0     O64263   5.195   5.472   5.601  0.2905 -0.2551 -0.3401
  477MOL0     C64264   5.307   5.387   5.590  0.3849 -0.1054 -0.0405
  477MOL0     C64265   5.341   5.343   5.466 -0.5272  0.1338  0.7328
  477MOL0     C64266   5.447   5.251   5.454 -0.5828  0.4978  0.3151
  477MOL0     C64267   5.521   5.220   5.572  0.5599 -0.0123 -0.0160
  477MOL0     O64268   5.638   5.145   5.583  0.1624 -0.0301  0.0326
  477MOL0     C64269   5.701   5.071   5.467  0.9320  0.0312 -0.3337
  477MOL0     C64270   5.807   5.152   5.401 -0.3496  0.3762  0.6147
  477MOL0     C64271   5.937   5.138   5.483 -0.0818 -0.5558  0.4530
  477MOL0     C64272   6.040   5.244   5.432 -0.5351  0.1071 -0.8111
  477MOL0     C64273   6.175   5.251   5.504 -0.8713  0.4340  0.4107
  477MOL0     C64274   6.256   5.383   5.487 -0.1533  0.0420  0.4429
  477MOL0     C64275   6.188   5.529   5.521 -0.5245  0.7565  0.0632
  477MOL0     C64276   6.285   5.642   5.466  0.3311  0.6265 -0.5156
  477MOL0     N64277   6.238   5.704   5.341  0.1553  0.4628  0.5623
  477MOL0     C64278   6.177   5.640   5.233  0.7043  0.1554 -1.3175
  477MOL0     C64279   6.118   5.730   5.150 -0.7099  0.4009 -0.1784
  477MOL0     C64280   6.029   5.710   5.025 -1.3387 -1.1612 -0.9463
  477MOL0     C64281   5.921   5.602   5.042 -0.5444  0.7367 -0.4334
  477MOL0     C64282   5.884   5.543   4.900  0.0423  0.1612 -1.0903
  477MOL0     C64283   5.749   5.464   4.911 -0.6017 -0.6722 -0.0039
  477MOL0     O64284   5.646   5.562   4.926 -0.9916 -0.3116  0.5899
  477MOL0     C64285   5.536   5.509   4.992 -0.2804 -0.9008  0.3407
  477MOL0     C64286   5.438   5.598   5.039 -0.3528 -0.1321  0.1882
  477MOL0     C64287   5.318   5.553   5.084  0.0376 -0.0320 -0.1240
  477MOL0     C64288   5.225   5.669   5.121  0.2756 -0.2328 -0.4047
  477MOL0     C64289   5.289   5.411   5.099 -0.9159 -0.4883 -0.1749
  477MOL0     C64290   5.155   5.354   5.145 -0.9436  0.3120 -1.0705
  477MOL0     O64291   5.163   5.225   5.195  0.4559  0.0165 -0.0837
  477MOL0     C64292   5.056   5.163   5.251  1.6339  0.6955  0.3785
  477MOL0     C64293   5.040   5.018   5.235  0.2805 -0.1804  0.4497
  477MOL0     C64294   4.946   4.943   5.308  0.0411  0.6665  0.0064
  477MOL0     C64295   4.857   5.010   5.390  0.0272 -0.2985  0.0305
  477MOL0     O64296   4.775   4.931   5.459 -0.2886  0.7370 -0.1486
  477MOL0     C64297   4.760   4.968   5.596 -1.4412 -0.0639  1.1779
  477MOL0     C64298   4.691   4.862   5.679  0.7128  0.1911 -0.1663
  477MOL0     C64299   4.670   4.901   5.828  0.3428 -0.4409  0.1300
  477MOL0     C64300   4.570   4.806   5.891  0.3314 -0.6100  0.5328
  477MOL0     C64301   4.519   4.854   6.027 -0.6073 -0.2045 -0.1931
  477MOL0     C64302   4.432   4.987   6.026 -0.1304 -0.4206 -0.2007
  477MOL0     C64303   4.414   5.039   6.173 -0.5415  0.0315 -0.0897
  477MOL0     C64304   4.317   4.951   6.248  0.2260 -0.5468 -0.1245
  477MOL0    Cl64305   4.154   4.958   6.180  0.4080 -0.0506  0.3274
  477MOL0     C64306   4.878   5.155   5.406  0.0355  0.6101  0.5452
  477MOL0     C64307   4.973   5.233   5.347 -0.1175 -0.1029 -0.0389
  477MOL0     O64308   5.055   5.426   5.150 -0.4215 -0.2583  0.1401
  477MOL0     C64309   5.392   5.324   5.074 -0.0927 -0.3483 -0.0069
  477MOL0     C64310   5.510   5.363   5.010 -0.2170 -0.6095 -0.0711
  477MOL0     N64311   6.152   5.854   5.204 -0.4133  0.2914 -0.8411
  477MOL0     N64312   6.217   5.837   5.316  0.9917  0.3451  0.7666
  477MOL0     C64313   5.483   5.264   5.693  0.0426 -0.2423  0.4107
  477MOL0     C64314   5.375   5.351   5.706  0.2557  0.0080  0.5632
  477MOL0     C64315   5.083   5.685   5.580 -0.2021  0.9083  0.1958
  477MOL0     C64316   5.073   5.808   5.511 -0.7917  1.0683  0.1138
  477MOL0     C64317   4.967   5.887   5.545 -0.0203  0.3387 -0.7823
  477MOL0     C64318   4.872   5.852   5.644 -0.2956 -0.0969 -0.1460
  477MOL0     O64319   4.765   5.926   5.685  0.2448  0.0615 -0.2316
  477MOL0     C64320   4.752   6.057   5.624  0.8973  0.0436  0.1804
  477MOL0     C64321   4.614   6.113   5.666 -1.1746  0.6960 -0.2351
  477MOL0     C64322   4.508   5.998   5.643 -0.1203 -0.4370  0.8522
  477MOL0     C64323   4.506   5.947   5.496 -0.5763 -0.3459  0.1012
  477MOL0     C64324   4.393   5.850   5.457  0.4828 -0.4397 -0.4840
  477MOL0     C64325   4.320   5.757   5.424  0.2401  0.0582 -0.9871
  477MOL0     C64326   4.881   5.732   5.704  0.5459 -0.1871 -0.3105
  477MOL0     C64327   4.990   5.647   5.673  0.2555 -0.0056  0.3359
  477MOL0     H64328   5.303   5.387   5.374 -2.4901 -1.1502  0.8583
  477MOL0     H64329   5.491   5.224   5.359  1.4325  1.7898  0.8306
  477MOL0     H64330   5.747   4.978   5.503 -0.6140 -2.2832 -3.7455
  477MOL0     H64331   5.628   5.037   5.394 -0.2658  2.5968 -0.4378
  477MOL0     H64332   5.833   5.115   5.301 -3.3912  1.0855 -0.5272
  477MOL0     H64333   5.766   5.252   5.382 -0.5600  0.1921  0.0878
  477MOL0     H64334   5.925   5.182   5.583 -1.5393  1.3151 -0.4650
  477MOL0     H64335   5.968   5.035   5.467 -2.5460 -1.1676 -0.8143
  477MOL0     H64336   6.060   5.227   5.326 -1.4727  0.8491 -1.1178
  477MOL0     H64337   5.997   5.342   5.455  0.5217  0.5581 -0.7105
  477MOL0     H64338   6.160   5.240   5.611 -2.1233  2.3227  0.4769
  477MOL0     H64339   6.233   5.164   5.471 -1.3037 -0.5848  2.1979
  477MOL0     H64340   6.347   5.373   5.547 -0.4842  1.0891  1.1544
  477MOL0     H64341   6.296   5.393   5.386  2.2430 -1.3514  1.1748
  477MOL0     H64342   6.092   5.548   5.472 -0.7881  1.7940  0.9576
  477MOL0     H64343   6.187   5.545   5.629  2.2600  4.1124 -0.2346
  477MOL0     H64344   6.380   5.596   5.437  0.4200  1.3964 -1.4791
  477MOL0     H64345   6.292   5.722   5.541 -1.4202 -1.3493  1.9477
  477MOL0     H64346   6.170   5.532   5.224  0.1965  0.0101  0.5182
  477MOL0     H64347   5.982   5.805   4.995  2.7644  2.4792  2.7167
  477MOL0     H64348   6.092   5.691   4.939 -0.6537  2.1181 -1.2988
  477MOL0     H64349   5.831   5.636   5.095  0.3001  0.9189  0.9134
  477MOL0     H64350   5.959   5.524   5.108 -3.7573  0.0589  0.7923
  477MOL0     H64351   5.961   5.468   4.877 -0.8272 -1.2235  0.3204
  477MOL0     H64352   5.876   5.623   4.826 -0.8427  0.2912 -0.8727
  477MOL0     H64353   5.757   5.400   4.999 -0.2418 -0.4902  0.0990
  477MOL0     H64354   5.736   5.410   4.817  0.2212  1.4982 -1.4478
  477MOL0     H64355   5.454   5.705   5.031 -1.4733 -0.0250 -0.9845
  477MOL0     H64356   5.150   5.697   5.046 -1.4746  2.2577  2.0638
  477MOL0     H64357   5.170   5.642   5.211  1.6980 -4.2022 -0.5604
  477MOL0     H64358   5.280   5.764   5.131 -1.0062  0.6107 -1.1264
  477MOL0     H64359   5.114   4.971   5.171  0.5425 -0.7078  1.1317
  477MOL0     H64360   4.938   4.836   5.290  4.7228  0.6688 -4.4349
  477MOL0     H64361   4.857   4.980   5.645 -1.5413  2.4508  0.9010
  477MOL0     H64362   4.708   5.064   5.608 -2.0366 -0.3690  1.0742
  477MOL0     H64363   4.589   4.847   5.641  0.9614 -1.4252 -0.2568
  477MOL0     H64364   4.740   4.764   5.676 -0.6298 -0.4974 -0.3126
  477MOL0     H64365   4.637   5.005   5.828  1.5078 -0.0556 -0.0008
  477MOL0     H64366   4.769   4.898   5.875  1.4344 -0.0021 -2.0063
  477MOL0     H64367   4.479   4.782   5.836 -0.7685 -0.1427  2.0797
  477MOL0     H64368   4.628   4.714   5.906  3.2509  0.8047 -1.1329
  477MOL0     H64369   4.601   4.866   6.098 -2.1377  0.0614  1.6052
  477MOL0     H64370   4.461   4.776   6.077  2.3383 -2.1101  0.5416
  477MOL0     H64371   4.473   5.063   5.959  1.6411 -2.4108 -1.5183
  477MOL0     H64372   4.338   4.948   5.986  0.7058 -0.0352 -2.7663
  477MOL0     H64373   4.378   5.142   6.172  1.2523  0.7209 -2.0167
  477MOL0     H64374   4.508   5.046   6.228 -0.3295  1.1495 -0.5673
  477MOL0     H64375   4.315   4.996   6.348 -1.7795 -1.3372  0.2289
  477MOL0     H64376   4.352   4.848   6.258 -0.0684 -0.7607 -1.1738
  477MOL0     H64377   4.820   5.214   5.476 -1.3914  1.3789 -1.2039
  477MOL0     H64378   4.992   5.337   5.370  2.0399 -0.8358  1.8451
  477MOL0     H64379   5.392   5.217   5.087  0.0288 -0.1606  1.7611
  477MOL0     H64380   5.583   5.293   4.972  0.0809 -0.7940  0.8102
  477MOL0     H64381   5.534   5.234   5.784  1.6973  1.7380  0.2194
  477MOL0     H64382   5.341   5.382   5.804  1.1971 -1.0152  1.2291
  477MOL0     H64383   5.148   5.836   5.438  1.0185 -1.2119  0.9609
  477MOL0     H64384   4.942   5.988   5.513 -0.3719  0.7410  0.6550
  477MOL0     H64385   4.826   6.127   5.664 -1.6247  2.6023  0.6495
  477MOL0     H64386   4.765   6.070   5.516  0.3973  3.1148  0.4033
  477MOL0     H64387   4.590   6.205   5.612  0.0464  0.1149 -1.8436
  477MOL0     H64388   4.623   6.132   5.773 -0.5736 -0.3646 -0.0805
  477MOL0     H64389   4.410   6.043   5.663  0.2615  1.1892 -0.6644
  477MOL0     H64390   4.527   5.925   5.722  0.1651  0.7208  1.8944
  477MOL0     H64391   4.595   5.884   5.488  0.2584  0.3293  3.0012
  477MOL0     H64392   4.503   6.029   5.423 -1.5361 -1.3214 -0.9917
  477MOL0     H64393   4.264   5.666   5.416 -1.7789  1.1334  0.2287
  477MOL0     H64394   4.810   5.691   5.776  1.6147 -4.7343 -1.4827
  477MOL0     H64395   4.998   5.550   5.719 -1.4730 -0.4435 -0.1777
  478MOL0     O64396   4.021   7.548   7.862 -0.3775 -0.0647 -0.0586
  478MOL0     C64397   3.983   7.655   7.912  0.1561  0.4844 -0.2497
  478MOL0     O64398   3.857   7.681   7.969  0.5856 -0.3024  0.2485
  478MOL0     C64399   3.769   7.568   7.958  0.1543 -0.2492 -0.2587
  478MOL0     C64400   3.760   7.482   8.075  0.6256  0.0050 -0.0780
  478MOL0     C64401   3.692   7.355   8.068 -0.3182 -0.1684 -0.2103
  478MOL0     C64402   3.619   7.325   7.951  0.2401  0.0271  0.5952
  478MOL0     O64403   3.550   7.209   7.930 -0.5215  0.1692 -0.1228
  478MOL0     C64404   3.569   7.097   8.020 -0.0380  0.5570  0.6623
  478MOL0     C64405   3.475   6.978   7.997  0.5420 -1.0336  0.6571
  478MOL0     C64406   3.323   7.015   8.000  0.0302 -1.0002  0.0051
  478MOL0     C64407   3.235   6.915   8.064 -1.1894 -0.1653  0.6583
  478MOL0     C64408   3.284   6.856   8.200 -0.3196  0.7361  0.4983
  478MOL0     C64409   3.165   6.783   8.251 -0.3260 -0.0536 -0.5563
  478MOL0     C64410   3.179   6.742   8.401  0.5313  0.0125  1.3047
  478MOL0     C64411   3.258   6.612   8.412  0.1474  0.3455  0.2785
  478MOL0     N64412   3.273   6.583   8.563 -0.1178 -0.2568 -0.4139
  478MOL0     C64413   3.181   6.549   8.664  0.5329  0.5619 -0.6386
  478MOL0     C64414   3.253   6.504   8.764 -0.5381  0.6433 -0.0799
  478MOL0     C64415   3.211   6.462   8.900  0.0599  0.4675 -0.6513
  478MOL0     C64416   3.246   6.568   9.002 -0.0597  0.1790  1.0977
  478MOL0     C64417   3.129   6.658   9.052  0.7822  1.0784  0.0032
  478MOL0     C64418   3.156   6.733   9.178 -0.0841 -0.1920 -0.0672
  478MOL0     O64419   3.041   6.797   9.233  0.2160  0.5848  0.5004
  478MOL0     C64420   3.059   6.844   9.358 -0.1051 -0.2519 -0.0679
  478MOL0     C64421   2.989   6.797   9.464 -1.1048  0.0580  1.5676
  478MOL0     C64422   2.994   6.848   9.592 -0.9840 -0.0378  1.0213
  478MOL0     C64423   2.921   6.785   9.694 -1.5629  0.4771  0.3083
  478MOL0     C64424   3.077   6.964   9.612 -1.2148 -0.0523 -0.1397
  478MOL0     C64425   3.092   7.033   9.743  0.7056 -0.1864  0.1968
  478MOL0     O64426   3.089   7.170   9.738 -0.5444 -0.4712 -0.7548
  478MOL0     C64427   3.116   7.243   9.852  0.4154 -0.2899  0.3517
  478MOL0     C64428   3.074   7.210   9.979  0.2873 -0.0797 -0.2388
  478MOL0     C64429   3.110   7.292  10.091  0.8750 -0.3112  0.0003
  478MOL0     C64430   3.184   7.409  10.065 -0.3152  0.1311 -0.3129
  478MOL0     O64431   3.225   7.499  10.162 -0.3357 -0.5213  0.4527
  478MOL0     C64432   3.145   7.524  10.275 -0.9417 -0.3672  0.8016
  478MOL0     C64433   3.217   7.630  10.361  0.0776  0.1813 -0.3109
  478MOL0     C64434   3.132   7.658  10.487 -0.0216  0.7093  0.0656
  478MOL0     C64435   3.190   7.772  10.574  0.5678  0.5328  0.4898
  478MOL0     C64436   3.133   7.775  10.715  0.9595  0.8807 -0.7623
  478MOL0     C64437   3.189   7.671  10.819 -0.7282  0.4179 -1.0946
  478MOL0     C64438   3.137   7.697  10.959  0.2134 -0.4220  0.2111
  478MOL0     C64439   3.198   7.594  11.055  1.0026 -0.2565 -0.1288
  478MOL0    Cl64440   3.099   7.450  11.033  0.3182  0.1487 -0.3190
  478MOL0     C64441   3.247   7.429   9.943  0.1208 -0.1479  1.0746
  478MOL0     C64442   3.205   7.352   9.837  0.0810 -0.0962  0.3210
  478MOL0     O64443   3.128   6.959   9.839 -0.1925  0.0897  0.6159
  478MOL0     C64444   3.137   7.027   9.502 -0.2863 -0.1134  0.2188
  478MOL0     C64445   3.134   6.965   9.374  0.8786  0.1542 -0.3330
  478MOL0     N64446   3.382   6.508   8.731 -1.0152 -1.3011 -0.0608
  478MOL0     N64447   3.393   6.563   8.612 -0.1492 -0.2352 -0.3945
  478MOL0     C64448   3.629   7.410   7.841 -0.3103 -0.0503  0.5675
  478MOL0     C64449   3.697   7.528   7.851  0.5027 -0.2301  0.1642
  478MOL0     C64450   4.061   7.786   7.898  0.2705  0.0095 -0.3507
  478MOL0     C64451   4.177   7.773   7.839 -0.1630  0.3872  0.4088
  478MOL0     C64452   4.263   7.882   7.831 -0.8673  0.7742  0.2383
  478MOL0     C64453   4.218   8.006   7.883 -0.5245 -0.3696  0.9431
  478MOL0     O64454   4.284   8.127   7.889  0.1682 -1.1173 -0.6349
  478MOL0     C64455   4.416   8.116   7.942 -0.4983 -0.5692  0.7060
  478MOL0     C64456   4.491   8.238   7.895 -0.2854  0.5798 -0.6958
  478MOL0     C64457   4.484   8.280   7.740 -1.0374  0.2505 -0.2076
  478MOL0     C64458   4.535   8.175   7.639  0.0921 -0.4999 -0.3422
  478MOL0     C64459   4.665   8.118   7.685  0.2935 -1.1735  0.4880
  478MOL0     C64460   4.776   8.087   7.725  0.1890 -0.6767  0.8793
  478MOL0     C64461   4.090   8.020   7.935  0.4586  1.2536 -0.3399
  478MOL0     C64462   4.013   7.901   7.959 -0.0913 -0.0435  0.0011
  478MOL0     H64463   3.810   7.505   8.168  0.7517  1.7018 -0.5252
  478MOL0     H64464   3.688   7.290   8.155  2.2425 -1.1016 -0.6780
  478MOL0     H64465   3.671   7.059   8.005 -0.5939 -1.5788  1.9696
  478MOL0     H64466   3.559   7.120   8.126  3.2318  0.5767  1.0697
  478MOL0     H64467   3.501   6.932   7.901 -0.5478 -1.1703  0.4144
  478MOL0     H64468   3.496   6.903   8.075 -2.4267 -1.6188  1.0221
  478MOL0     H64469   3.299   7.114   8.038 -2.0099  0.0580 -3.5615
  478MOL0     H64470   3.300   7.027   7.893 -2.1932 -1.8817  0.3332
  478MOL0     H64471   3.147   6.972   8.097 -1.1378 -1.0076  2.3822
  478MOL0     H64472   3.212   6.834   7.994  3.6607  0.7271 -2.4011
  478MOL0     H64473   3.367   6.785   8.191  1.0682  2.3842 -0.3513
  478MOL0     H64474   3.319   6.932   8.271 -1.6008 -0.0766  2.0655
  478MOL0     H64475   3.067   6.831   8.240  1.3711  3.2096 -3.4045
  478MOL0     H64476   3.161   6.690   8.194  0.0471 -0.8590  0.6990
  478MOL0     H64477   3.236   6.818   8.455  0.0132  0.2026  1.5967
  478MOL0     H64478   3.074   6.742   8.433 -0.0823 -0.6814 -0.5681
  478MOL0     H64479   3.356   6.641   8.373 -0.2946  0.8551 -0.4993
  478MOL0     H64480   3.220   6.526   8.356 -1.4524 -3.5303  6.4021
  478MOL0     H64481   3.073   6.555   8.659  0.4969 -0.4469 -1.6540
  478MOL0     H64482   3.102   6.451   8.906  0.1319  0.2439  0.5541
  478MOL0     H64483   3.253   6.365   8.926 -1.3162  0.0209 -0.0106
  478MOL0     H64484   3.332   6.629   8.974 -1.9984  2.7587  0.3399
  478MOL0     H64485   3.296   6.517   9.085  2.1737 -0.6403 -0.6582
  478MOL0     H64486   3.048   6.587   9.074 -0.3928  1.0464 -3.7215
  478MOL0     H64487   3.090   6.730   8.978  2.5177  0.7475 -1.2905
  478MOL0     H64488   3.221   6.818   9.154 -3.2720  2.2960 -0.6299
  478MOL0     H64489   3.202   6.668   9.252  0.3660  1.1732  0.8914
  478MOL0     H64490   2.930   6.709   9.438  1.0265 -1.1455  0.4994
  478MOL0     H64491   2.843   6.722   9.650 -1.6859  0.9807 -0.2032
  478MOL0     H64492   2.990   6.726   9.755 -1.4794  2.5984  2.4247
  478MOL0     H64493   2.868   6.853   9.760 -1.9622 -1.3722  1.9970
  478MOL0     H64494   3.011   7.122   9.979 -0.6955  0.5546 -2.6649
  478MOL0     H64495   3.050   7.284  10.182 -0.9096 -2.3089 -1.2763
  478MOL0     H64496   3.046   7.566  10.252 -0.4280  0.6924  0.4979
  478MOL0     H64497   3.145   7.431  10.333 -1.5415  0.5414  2.2924
  478MOL0     H64498   3.315   7.599  10.398  1.8045  3.5344 -1.6014
  478MOL0     H64499   3.227   7.727  10.311 -0.1056 -0.4506 -1.5901
  478MOL0     H64500   3.133   7.575  10.559 -1.5902 -0.2141 -0.9235
  478MOL0     H64501   3.025   7.669  10.471 -0.2944 -0.7506  0.7346
  478MOL0     H64502   3.298   7.754  10.576  0.5407  0.4142  1.0228
  478MOL0     H64503   3.172   7.871  10.532 -0.2458  2.0287  3.9982
  478MOL0     H64504   3.024   7.764  10.708  0.7949 -1.2174  2.7271
  478MOL0     H64505   3.152   7.873  10.760  1.3976 -0.2038  1.5380
  478MOL0     H64506   3.155   7.571  10.792 -3.0999  0.7769  0.2933
  478MOL0     H64507   3.297   7.682  10.819 -0.8602  4.4196  2.8921
  478MOL0     H64508   3.028   7.693  10.953  0.2752 -0.6994 -0.9930
  478MOL0     H64509   3.165   7.798  10.992  2.4328 -0.9685  0.1664
  478MOL0     H64510   3.184   7.623  11.160 -2.6013 -1.9145 -0.0354
  478MOL0     H64511   3.306   7.585  11.035  0.8567 -0.4675 -0.8403
  478MOL0     H64512   3.316   7.513   9.937 -2.8386  2.3704 -0.7467
  478MOL0     H64513   3.246   7.365   9.737 -0.8900  0.3142 -0.0328
  478MOL0     H64514   3.194   7.119   9.500  1.9096 -1.2632  3.2377
  478MOL0     H64515   3.174   7.022   9.290 -0.6415 -1.1577 -2.0347
  478MOL0     H64516   3.567   7.400   7.753 -1.5235 -0.9639  1.4849
  478MOL0     H64517   3.682   7.587   7.761 -0.0671  0.4083  0.6624
  478MOL0     H64518   4.199   7.675   7.798  0.3418  1.7252 -2.7566
  478MOL0     H64519   4.356   7.875   7.776 -2.1744 -0.5666 -1.9441
  478MOL0     H64520   4.426   8.107   8.051 -1.1574  2.3100  1.0802
  478MOL0     H64521   4.468   8.029   7.900 -0.3597 -0.3674  0.4640
  478MOL0     H64522   4.593   8.205   7.917 -0.8399 -0.1691  0.9040
  478MOL0     H64523   4.472   8.322   7.963  1.6107  0.5541 -0.0785
  478MOL0     H64524   4.549   8.367   7.727  1.6421 -1.2548  2.0385
  478MOL0     H64525   4.382   8.302   7.706 -1.2350  0.7815  0.7046
  478MOL0     H64526   4.551   8.229   7.545  0.2166 -1.7325 -1.0498
  478MOL0     H64527   4.467   8.091   7.624 -1.0239  0.1103  1.0440
  478MOL0     H64528   4.868   8.040   7.752 -0.3869 -3.0666 -0.9604
  478MOL0     H64529   4.068   8.122   7.967  0.0157  0.2152  3.0102
  478MOL0     H64530   3.920   7.909   8.014 -0.4943 -0.8224 -0.5369
  479MOL0     O64531   7.327   3.271   2.746 -1.0368 -0.3590  0.1319
  479MOL0     C64532   7.435   3.259   2.816 -0.7799 -0.2892 -0.2796
  479MOL0     O64533   7.437   3.282   2.958 -0.0991  0.7677  0.7605
  479MOL0     C64534   7.322   3.338   3.020  0.9001  0.4740 -0.6301
  479MOL0     C64535   7.303   3.479   3.014  0.5147  1.1588  0.2982
  479MOL0     C64536   7.201   3.534   3.092  0.4881  0.7155 -0.0660
  479MOL0     C64537   7.117   3.454   3.171 -0.6709 -0.4721 -0.0754
  479MOL0     O64538   7.013   3.508   3.239  0.3926  1.1017 -0.4242
  479MOL0     C64539   7.019   3.509   3.381  0.1016 -0.1763 -0.4824
  479MOL0     C64540   6.890   3.447   3.443  0.9662  0.3020  0.8381
  479MOL0     C64541   6.755   3.507   3.386  0.2917  0.3657  0.3818
  479MOL0     C64542   6.727   3.638   3.448  0.3165 -0.7533  0.0920
  479MOL0     C64543   6.695   3.610   3.597  0.4995  0.0405 -0.9517
  479MOL0     C64544   6.611   3.726   3.664  0.0342 -0.5061 -0.3262
  479MOL0     C64545   6.527   3.670   3.783 -0.3050 -0.9415  0.1698
  479MOL0     C64546   6.627   3.659   3.894  0.3099 -0.3727 -1.1549
  479MOL0     N64547   6.577   3.608   4.017  0.5654  0.3962  0.6062
  479MOL0     C64548   6.664   3.571   4.117 -0.2953  0.0825 -0.5067
  479MOL0     C64549   6.599   3.490   4.205  0.3962  0.7473  0.6119
  479MOL0     C64550   6.660   3.416   4.326  0.4488 -0.4840 -0.0970
  479MOL0     C64551   6.674   3.267   4.281  0.0987 -0.5402  0.0768
  479MOL0     C64552   6.701   3.181   4.406 -1.2980  0.4546 -0.6675
  479MOL0     C64553   6.836   3.209   4.473 -0.8129  0.0011  0.2814
  479MOL0     O64554   6.840   3.106   4.578  0.3629  0.3877  0.2317
  479MOL0     C64555   6.959   3.074   4.634  0.8688  0.4095  0.5485
  479MOL0     C64556   6.976   3.041   4.774 -0.2569 -0.1551  0.3162
  479MOL0     C64557   7.102   3.016   4.830  0.0574 -0.2792 -0.2474
  479MOL0     C64558   7.117   2.977   4.965 -0.3924 -0.2891 -0.6153
  479MOL0     C64559   7.210   3.027   4.748 -0.9536  0.2170  0.0067
  479MOL0     C64560   7.351   3.032   4.798  0.9973  0.6562 -0.9017
  479MOL0     O64561   7.417   3.140   4.835 -0.0422 -0.3041 -0.1952
  479MOL0     C64562   7.540   3.113   4.891  0.8259 -0.4846 -1.0191
  479MOL0     C64563   7.659   3.118   4.812  0.0679 -0.1741  0.0960
  479MOL0     C64564   7.789   3.092   4.870  0.3017 -0.2518 -0.5466
  479MOL0     C64565   7.797   3.057   5.006 -0.6753  0.9501 -0.9299
  479MOL0     O64566   7.929   3.060   5.050  0.5934 -1.2330  1.0027
  479MOL0     C64567   7.957   3.090   5.190  0.4784 -0.1488 -0.9058
  479MOL0     C64568   7.962   3.237   5.215  0.4087  0.2164 -0.2633
  479MOL0     C64569   8.086   3.297   5.144 -0.5091 -0.1537  0.3660
  479MOL0     C64570   8.089   3.438   5.191  0.2809 -0.5094 -0.2061
  479MOL0     C64571   8.175   3.526   5.101  0.2579 -0.7308 -0.2009
  479MOL0     C64572   8.110   3.628   5.007  0.2384  0.9971  0.3966
  479MOL0     C64573   8.085   3.559   4.871 -0.1043 -0.0694 -0.4684
  479MOL0     C64574   8.016   3.647   4.766 -0.2708 -0.6371  0.0087
  479MOL0    Cl64575   8.146   3.764   4.723  0.3156  0.0573  0.0502
  479MOL0     C64576   7.684   3.047   5.083 -0.2829  0.0970  0.0783
  479MOL0     C64577   7.554   3.077   5.031 -0.7874  0.7951 -0.1767
  479MOL0     O64578   7.408   2.916   4.794  0.3487  0.1297 -0.2323
  479MOL0     C64579   7.193   3.034   4.610 -0.1283 -1.0541 -0.2208
  479MOL0     C64580   7.071   3.064   4.561  0.6009  0.1305  1.0118
  479MOL0     N64581   6.464   3.472   4.155  0.1222 -0.2543  0.1624
  479MOL0     N64582   6.454   3.553   4.054  0.4516  0.4304  0.8388
  479MOL0     C64583   7.139   3.321   3.171  0.2798  0.3240 -0.5700
  479MOL0     C64584   7.235   3.255   3.094 -0.3108 -1.2200 -0.5145
  479MOL0     C64585   7.563   3.227   2.750 -0.5500  0.4718  0.4617
  479MOL0     C64586   7.689   3.247   2.809  0.0253  0.1504  0.6348
  479MOL0     C64587   7.806   3.214   2.750 -0.0932 -0.2224 -0.3339
  479MOL0     C64588   7.816   3.154   2.629  0.4226 -0.2577 -0.6259
  479MOL0     O64589   7.942   3.143   2.576 -0.1012  0.5157 -0.5762
  479MOL0     C64590   7.969   3.033   2.487  0.0865 -0.5003 -0.9236
  479MOL0     C64591   8.066   3.063   2.377 -0.1203 -0.2433  0.2593
  479MOL0     C64592   8.011   3.191   2.296  0.1327  0.1736  0.0313
  479MOL0     C64593   7.876   3.178   2.228 -0.2545  1.4267 -0.1355
  479MOL0     C64594   7.861   3.055   2.149  0.3416  0.5837 -0.6445
  479MOL0     C64595   7.850   2.962   2.071  0.4220  0.0566  0.7265
  479MOL0     C64596   7.693   3.125   2.559 -0.4486  0.5053 -0.4412
  479MOL0     C64597   7.560   3.160   2.619  0.0108 -0.2365 -0.1136
  479MOL0     H64598   7.356   3.543   2.944 -1.0800  1.3549 -0.7869
  479MOL0     H64599   7.185   3.641   3.085  0.0940  0.6116 -0.7980
  479MOL0     H64600   7.093   3.446   3.429  0.0343 -0.4159 -0.6920
  479MOL0     H64601   7.030   3.613   3.412  3.0238 -1.6666  4.5378
  479MOL0     H64602   6.892   3.342   3.412  1.7341  0.7623 -0.8177
  479MOL0     H64603   6.903   3.439   3.551  0.3302  1.2201  0.9971
  479MOL0     H64604   6.778   3.520   3.280 -0.9246 -1.0346 -0.0870
  479MOL0     H64605   6.679   3.429   3.390  2.4681 -1.8419  1.8724
  479MOL0     H64606   6.807   3.712   3.442 -1.3616  1.2366  0.7994
  479MOL0     H64607   6.639   3.673   3.394  0.7519 -0.0065 -0.1446
  479MOL0     H64608   6.641   3.517   3.614 -1.7176  1.6576  1.7498
  479MOL0     H64609   6.785   3.602   3.659 -1.4049 -2.0127  1.7851
  479MOL0     H64610   6.679   3.801   3.705  1.0092 -0.7798 -1.3880
  479MOL0     H64611   6.536   3.778   3.604 -1.1243  0.4028  1.8055
  479MOL0     H64612   6.441   3.730   3.811 -0.1806  0.4757 -2.1990
  479MOL0     H64613   6.478   3.576   3.756 -0.9386 -0.6195  0.1854
  479MOL0     H64614   6.647   3.763   3.920 -3.7396 -0.2748  2.6678
  479MOL0     H64615   6.713   3.605   3.852  0.7659 -0.8210  0.2692
  479MOL0     H64616   6.770   3.591   4.126 -0.4038  1.1971 -1.4761
  479MOL0     H64617   6.754   3.466   4.352 -0.0301  0.5107 -0.2118
  479MOL0     H64618   6.593   3.424   4.412  1.1832 -1.6460  0.6130
  479MOL0     H64619   6.756   3.256   4.209 -1.5184 -1.1830 -1.7451
  479MOL0     H64620   6.578   3.231   4.240 -1.3298  3.6616 -0.7130
  479MOL0     H64621   6.697   3.077   4.370  0.1445  0.2760 -0.3482
  479MOL0     H64622   6.616   3.182   4.475 -0.6475 -1.0034  0.1862
  479MOL0     H64623   6.843   3.306   4.524  3.5461 -0.7075  1.3917
  479MOL0     H64624   6.913   3.201   4.396 -1.2715 -0.5684 -0.1263
  479MOL0     H64625   6.889   3.025   4.837 -0.4911 -1.1050 -0.2305
  479MOL0     H64626   7.138   3.059   5.034 -3.1820 -1.8725  2.3891
  479MOL0     H64627   7.022   2.936   5.003 -0.3323 -1.8682 -2.0484
  479MOL0     H64628   7.197   2.906   4.987  1.4473  1.9278  0.2351
  479MOL0     H64629   7.649   3.150   4.709 -2.8339  0.9310  0.6135
  479MOL0     H64630   7.888   3.105   4.826  0.3664  2.8697  0.2520
  479MOL0     H64631   7.875   3.044   5.246 -0.8602  1.4696 -1.4351
  479MOL0     H64632   8.047   3.041   5.227 -0.8532 -0.0817  2.8286
  479MOL0     H64633   7.864   3.275   5.185  0.7448  1.3601  0.0511
  479MOL0     H64634   7.973   3.250   5.323 -1.8267  1.2579 -0.0980
  479MOL0     H64635   8.077   3.296   5.035  0.4667  1.4144  0.2369
  479MOL0     H64636   8.180   3.247   5.167  0.0690 -0.2635 -1.9688
  479MOL0     H64637   7.987   3.475   5.204  0.3342  0.1628 -1.5735
  479MOL0     H64638   8.144   3.452   5.285  2.8091  1.7008 -1.8743
  479MOL0     H64639   8.248   3.465   5.049  1.6787  0.9800 -0.3112
  479MOL0     H64640   8.233   3.590   5.170  0.7093 -1.1639 -0.1735
  479MOL0     H64641   8.010   3.651   5.046 -0.5759  0.5014 -1.3136
  479MOL0     H64642   8.168   3.721   5.001  0.8913  0.8398  2.9750
  479MOL0     H64643   8.024   3.468   4.877  1.8160 -1.3085  2.0605
  479MOL0     H64644   8.182   3.529   4.830  0.3459 -0.3022  0.7250
  479MOL0     H64645   7.938   3.710   4.810  0.6992 -0.4834  1.5472
  479MOL0     H64646   7.978   3.592   4.679 -2.1195 -1.5328  1.3026
  479MOL0     H64647   7.677   3.021   5.188  2.7351 -2.7810 -0.3008
  479MOL0     H64648   7.467   3.089   5.094 -0.9359  0.2281 -0.2684
  479MOL0     H64649   7.289   3.033   4.558  1.4240  2.3712  2.1516
  479MOL0     H64650   7.069   3.076   4.454  1.5041 -0.5843  0.9070
  479MOL0     H64651   7.068   3.265   3.232 -1.1330  2.8763  0.2996
  479MOL0     H64652   7.270   3.153   3.099  1.4654 -1.0590 -4.9587
  479MOL0     H64653   7.691   3.305   2.900 -1.1476 -0.0530  0.8012
  479MOL0     H64654   7.902   3.231   2.797  0.3691  0.8920 -1.6187
  479MOL0     H64655   8.013   2.954   2.548  0.6657 -1.1710 -2.1695
  479MOL0     H64656   7.876   2.997   2.444 -1.3378  1.4273  0.4057
  479MOL0     H64657   8.086   2.977   2.312 -0.2258  0.7698 -1.1559
  479MOL0     H64658   8.158   3.085   2.432 -1.3154 -1.1825  2.8266
  479MOL0     H64659   8.095   3.213   2.229  1.4558 -1.7700  0.9626
  479MOL0     H64660   8.011   3.276   2.364 -0.7737  0.3226 -0.1412
  479MOL0     H64661   7.870   3.261   2.157 -0.4972  0.1742 -1.6346
  479MOL0     H64662   7.799   3.184   2.305 -1.1953  2.7793 -1.1379
  479MOL0     H64663   7.840   2.885   1.998  1.3444  2.2542 -1.8617
  479MOL0     H64664   7.697   3.073   2.464  0.9539  0.1976 -0.2284
  479MOL0     H64665   7.464   3.126   2.580  0.1164 -1.8580  0.9289
  480MOL0     O64666   2.555  11.231   6.640 -1.4201 -0.3142  0.1485
  480MOL0     C64667   2.515  11.199   6.751 -0.0214  0.5588 -0.0583
  480MOL0     O64668   2.442  11.089   6.775  0.7227  0.6494 -0.1925
  480MOL0     C64669   2.435  10.995   6.676  1.4315 -1.6059 -0.5717
  480MOL0     C64670   2.557  10.939   6.635  0.3153  0.1925 -0.2863
  480MOL0     C64671   2.566  10.832   6.539 -0.5612 -0.4369  0.2579
  480MOL0     C64672   2.445  10.800   6.474 -0.3484  0.7789  0.1772
  480MOL0     O64673   2.441  10.704   6.371 -0.5120 -0.4177 -0.9644
  480MOL0     C64674   2.391  10.575   6.407  0.2460  0.4370  0.6443
  480MOL0     C64675   2.451  10.481   6.300  0.5478 -0.2980  0.0691
  480MOL0     C64676   2.419  10.523   6.159  0.0183 -0.1716 -0.2374
  480MOL0     C64677   2.270  10.520   6.122 -1.0077 -0.2924  0.6492
  480MOL0     C64678   2.262  10.503   5.969 -0.2556  0.6970 -0.4953
  480MOL0     C64679   2.124  10.477   5.923 -0.7706  0.5869  0.8357
  480MOL0     C64680   2.117  10.465   5.764  0.6327 -0.4854  0.7564
  480MOL0     C64681   2.165  10.321   5.711  0.8408  0.3590 -0.3423
  480MOL0     N64682   2.066  10.207   5.743  0.6773 -0.1702  1.1635
  480MOL0     C64683   1.970  10.163   5.655  0.1413 -0.2191 -0.0203
  480MOL0     C64684   1.910  10.068   5.719  1.2611 -0.4912  0.0030
  480MOL0     C64685   1.781  10.001   5.667  0.2136  0.1682  0.9829
  480MOL0     C64686   1.812   9.855   5.639  0.4200  0.3078  0.2147
  480MOL0     C64687   1.728   9.793   5.532  0.4984 -0.6408 -0.0197
  480MOL0     C64688   1.775   9.652   5.512  0.4722  0.3908  0.7027
  480MOL0     O64689   1.656   9.578   5.462 -0.2046 -0.4967 -0.1550
  480MOL0     C64690   1.676   9.475   5.369  0.7898  0.4903 -0.3720
  480MOL0     C64691   1.570   9.462   5.274  0.0318  0.2940  0.3151
  480MOL0     C64692   1.567   9.359   5.181  0.4185  0.8766  1.0891
  480MOL0     C64693   1.474   9.364   5.062 -0.3854 -0.7132 -0.3954
  480MOL0     C64694   1.686   9.279   5.179  0.6888  0.2921  0.2740
  480MOL0     C64695   1.704   9.166   5.090  0.4703  0.2930  0.3980
  480MOL0     O64696   1.758   9.188   4.976 -0.5895  0.0963 -0.0046
  480MOL0     C64697   1.808   9.085   4.908  0.4130  0.4209  1.1966
  480MOL0     C64698   1.730   8.992   4.851  0.8087  0.1498  0.1020
  480MOL0     C64699   1.784   8.862   4.806  0.0752 -0.4808  0.3167
  480MOL0     C64700   1.923   8.840   4.816  0.7867 -0.3558 -0.0516
  480MOL0     O64701   1.980   8.711   4.798 -1.1043  0.0999 -0.0879
  480MOL0     C64702   1.899   8.607   4.743 -0.7204 -0.5006  0.5645
  480MOL0     C64703   1.988   8.489   4.716 -0.1432 -0.2298 -0.5490
  480MOL0     C64704   1.909   8.370   4.649  0.0675  0.0553  0.1190
  480MOL0     C64705   1.965   8.231   4.676 -0.7194 -0.5862 -0.2641
  480MOL0     C64706   1.876   8.114   4.634  0.2390 -0.0830  0.4975
  480MOL0     C64707   1.883   8.091   4.483 -0.1556 -0.0706 -0.2389
  480MOL0     C64708   1.819   7.958   4.429  0.7156  0.8753  0.0388
  480MOL0     C64709   1.688   7.907   4.496 -0.4946  0.8720  0.8512
  480MOL0    Cl64710   1.610   7.777   4.400 -0.2702  0.2889 -0.3251
  480MOL0     C64711   1.997   8.948   4.872  0.0102  0.1338 -0.2665
  480MOL0     C64712   1.937   9.064   4.916  0.4114 -0.1708  0.0807
  480MOL0     O64713   1.694   9.059   5.151 -0.0876  0.5905  0.1117
  480MOL0     C64714   1.783   9.283   5.285 -0.8017  0.6537  0.2432
  480MOL0     C64715   1.776   9.386   5.381  0.5204  1.0565 -0.1430
  480MOL0     N64716   1.967  10.055   5.848 -0.1836 -0.3967 -1.0791
  480MOL0     N64717   2.060  10.142   5.859  0.2830  0.1455  0.4167
  480MOL0     C64718   2.323  10.862   6.511 -0.4261  0.6427  0.0535
  480MOL0     C64719   2.319  10.957   6.611  0.5921  0.1998 -0.1127
  480MOL0     C64720   2.546  11.291   6.865 -1.0889  0.3125  0.2922
  480MOL0     C64721   2.496  11.248   6.991  0.4234 -0.4206  0.4216
  480MOL0     C64722   2.499  11.329   7.107 -0.3115  0.3505  0.7539
  480MOL0     C64723   2.581  11.448   7.094 -0.6748 -0.4713 -0.0309
  480MOL0     O64724   2.595  11.531   7.209  0.9369  0.0091 -0.6582
  480MOL0     C64725   2.680  11.648   7.209 -1.4626 -0.1269 -0.1185
  480MOL0     C64726   2.674  11.724   7.340  0.8690  0.4519  0.2545
  480MOL0     C64727   2.523  11.741   7.377 -0.1433  0.1883  0.5872
  480MOL0     C64728   2.497  11.808   7.515  0.1468 -0.1209  1.1749
  480MOL0     C64729   2.507  11.708   7.627 -0.6320 -0.8935 -0.0781
  480MOL0     C64730   2.519  11.624   7.715  0.5438 -0.5588  0.6753
  480MOL0     C64731   2.636  11.490   6.970  0.1397 -0.5753  0.3453
  480MOL0     C64732   2.616  11.411   6.853 -0.2739 -0.2088  0.2448
  480MOL0     H64733   2.652  10.983   6.665  0.9565 -1.5983  0.4483
  480MOL0     H64734   2.659  10.784   6.509 -0.3883 -0.4779  0.8505
  480MOL0     H64735   2.435  10.536   6.500 -0.4495  0.1903  0.8726
  480MOL0     H64736   2.282  10.584   6.407 -0.0999 -0.6389 -4.3344
  480MOL0     H64737   2.559  10.479   6.315  0.3244  0.1025  2.0541
  480MOL0     H64738   2.418  10.379   6.320 -0.7748  0.2292  0.6927
  480MOL0     H64739   2.447  10.628   6.145  2.3770 -0.7203 -0.0632
  480MOL0     H64740   2.482  10.464   6.092  0.4427 -0.9751  0.8265
  480MOL0     H64741   2.222  10.433   6.168 -1.9505 -0.1383 -0.0191
  480MOL0     H64742   2.233  10.613   6.165  2.8577  1.9017 -0.3225
  480MOL0     H64743   2.294  10.595   5.920 -2.7347  2.0233  0.2246
  480MOL0     H64744   2.335  10.424   5.948 -1.4191 -1.8486  3.8318
  480MOL0     H64745   2.073  10.394   5.972  0.2246  0.1571  1.1645
  480MOL0     H64746   2.069  10.569   5.947 -3.4074  0.1439 -2.7594
  480MOL0     H64747   2.015  10.480   5.726  1.5620  0.3250 -1.6342
  480MOL0     H64748   2.174  10.546   5.717 -1.6738  1.7411  1.5400
  480MOL0     H64749   2.259  10.293   5.759  0.5144  1.1313  0.7948
  480MOL0     H64750   2.184  10.327   5.604  1.6560  4.2245 -0.1453
  480MOL0     H64751   1.942  10.204   5.558  1.9456 -1.7880 -1.2631
  480MOL0     H64752   1.701  10.016   5.740 -0.0885  0.8454  0.5184
  480MOL0     H64753   1.749  10.047   5.574  0.0962 -2.1758 -0.2202
  480MOL0     H64754   1.806   9.790   5.727  0.4100  2.1973  1.6751
  480MOL0     H64755   1.918   9.850   5.611  0.9206 -2.2747  2.2074
  480MOL0     H64756   1.730   9.850   5.439 -2.5591 -0.3471 -0.0341
  480MOL0     H64757   1.625   9.793   5.570  1.2650 -1.0950  2.2121
  480MOL0     H64758   1.804   9.596   5.602  3.1012  2.1860  1.0779
  480MOL0     H64759   1.868   9.653   5.455  0.4803 -0.9827  0.6478
  480MOL0     H64760   1.489   9.533   5.263 -2.3422 -2.1211  1.1878
  480MOL0     H64761   1.520   9.400   4.970 -0.5266 -0.1070 -0.2388
  480MOL0     H64762   1.444   9.261   5.041 -1.1355 -1.1497  2.3951
  480MOL0     H64763   1.386   9.427   5.082  1.3285  1.8896 -0.5526
  480MOL0     H64764   1.622   9.001   4.849  0.8168  0.1695 -0.2823
  480MOL0     H64765   1.717   8.790   4.761  1.0462  0.0584 -2.1896
  480MOL0     H64766   1.814   8.573   4.804  0.7802 -1.8437  2.0013
  480MOL0     H64767   1.869   8.656   4.649  0.8469  0.5211  0.5611
  480MOL0     H64768   2.074   8.514   4.653 -0.2878 -0.0379 -0.6684
  480MOL0     H64769   2.040   8.462   4.809 -1.1891 -1.1396 -0.2103
  480MOL0     H64770   1.902   8.385   4.541  0.6255  1.8781  0.2989
  480MOL0     H64771   1.804   8.382   4.677 -0.0980  3.7684 -1.4517
  480MOL0     H64772   2.055   8.218   4.615 -0.1073  0.4903  0.3647
  480MOL0     H64773   1.997   8.227   4.781  1.8472  3.3267 -0.6577
  480MOL0     H64774   1.771   8.116   4.663 -0.0833 -0.8282 -0.5281
  480MOL0     H64775   1.927   8.028   4.677  1.0006 -1.4578 -2.7988
  480MOL0     H64776   1.831   8.174   4.434  2.5613  2.1008  0.2950
  480MOL0     H64777   1.983   8.083   4.440 -1.1172  1.0417 -2.9205
  480MOL0     H64778   1.894   7.878   4.427 -0.4400 -0.2535  0.1372
  480MOL0     H64779   1.803   7.984   4.324  0.4098  1.3612  0.2032
  480MOL0     H64780   1.619   7.991   4.510 -1.3585  0.3124 -0.0260
  480MOL0     H64781   1.721   7.866   4.592  2.3029 -0.9311 -0.7158
  480MOL0     H64782   2.100   8.928   4.901 -0.3343  0.3447  1.1963
  480MOL0     H64783   1.988   9.148   4.961  2.0926 -0.8020 -0.5945
  480MOL0     H64784   1.853   9.201   5.299 -1.2723  0.1316 -0.3833
  480MOL0     H64785   1.848   9.375   5.461  0.2082 -3.2647 -0.2111
  480MOL0     H64786   2.223  10.850   6.470 -0.1488  0.1644 -0.5089
  480MOL0     H64787   2.222  11.001   6.632 -0.5733 -0.8201 -2.8883
  480MOL0     H64788   2.465  11.145   7.002  0.5540 -0.4347  0.6657
  480MOL0     H64789   2.473  11.289   7.205  3.3342  0.1735  1.8120
  480MOL0     H64790   2.782  11.611   7.197  0.8492  4.4793  2.6777
  480MOL0     H64791   2.671  11.718   7.126 -3.1029 -1.3438 -1.0466
  480MOL0     H64792   2.724  11.821   7.331  0.6288  0.7358  1.6560
  480MOL0     H64793   2.726  11.663   7.414  3.1509 -1.4985 -2.7429
  480MOL0     H64794   2.484  11.639   7.369  3.0538 -1.1590  0.3633
  480MOL0     H64795   2.479  11.803   7.299  2.0834 -3.5765 -4.1905
  480MOL0     H64796   2.395  11.845   7.503  1.3476  2.6193 -1.9887
  480MOL0     H64797   2.578  11.882   7.522  0.3606 -0.1510 -0.6359
  480MOL0     H64798   2.524  11.548   7.791  2.4600 -3.6957 -2.2647
  480MOL0     H64799   2.693  11.582   6.957  0.5010 -0.3723  2.8480
  480MOL0     H64800   2.642  11.436   6.750 -1.3269 -1.5052 -0.3761
  481MOL0     O64801   4.967  11.084   0.323 -0.3562 -0.4256 -0.5968
  481MOL0     C64802   5.000  11.027   0.424 -0.3639 -0.5087  0.8091
  481MOL0     O64803   4.943  11.050   0.543  0.2225 -0.1959 -0.1817
  481MOL0     C64804   4.861  11.160   0.542 -0.7033 -0.1805  0.7734
  481MOL0     C64805   4.732  11.178   0.490  0.0581  0.8059 -0.0503
  481MOL0     C64806   4.657  11.299   0.493 -0.5421  1.3139  0.7174
  481MOL0     C64807   4.712  11.402   0.568  0.4866 -0.2281  0.0911
  481MOL0     O64808   4.630  11.512   0.589  0.6119 -0.7275  0.1744
  481MOL0     C64809   4.681  11.624   0.661 -0.3484 -0.7860  0.5395
  481MOL0     C64810   4.571  11.730   0.662 -0.5864  0.5307 -0.7838
  481MOL0     C64811   4.476  11.707   0.775  0.6272  0.0259 -0.6278
  481MOL0     C64812   4.408  11.841   0.815 -0.3381 -0.7140 -0.6752
  481MOL0     C64813   4.296  11.876   0.706  0.1768 -0.3796  1.0637
  481MOL0     C64814   4.201  11.995   0.727 -0.2509 -0.0677 -0.0117
  481MOL0     C64815   4.268  12.134   0.734  0.3387 -0.3290 -0.1521
  481MOL0     C64816   4.174  12.260   0.761 -0.6678  0.7457 -0.1274
  481MOL0     N64817   4.150  12.275   0.905  0.0919 -0.1807  0.1056
  481MOL0     C64818   4.245  12.309   0.996  0.0195  0.6631 -0.1676
  481MOL0     C64819   4.189  12.249   1.111  0.1852 -1.0007  1.1263
  481MOL0     C64820   4.231  12.220   1.254  0.0758  0.0957 -0.6237
  481MOL0     C64821   4.293  12.080   1.265  0.4677  0.1344 -0.9265
  481MOL0     C64822   4.432  12.066   1.200 -0.2839 -0.0309 -0.6493
  481MOL0     C64823   4.534  12.163   1.255 -0.4686 -0.3432 -0.5919
  481MOL0     O64824   4.559  12.147   1.397 -0.2576  0.5216  0.3624
  481MOL0     C64825   4.689  12.161   1.423 -0.2519 -0.2162  0.4079
  481MOL0     C64826   4.746  12.286   1.456  1.0750 -0.0172 -0.4831
  481MOL0     C64827   4.878  12.292   1.489  0.2253 -0.3529 -0.4538
  481MOL0     C64828   4.928  12.430   1.527 -0.0406  0.2457 -0.0872
  481MOL0     C64829   4.959  12.172   1.476  0.0209  0.5145  0.1241
  481MOL0     C64830   5.102  12.159   1.499 -0.2698  1.2932 -0.1829
  481MOL0     O64831   5.152  12.037   1.488  0.5176  0.5700  0.7203
  481MOL0     C64832   5.278  12.006   1.445 -0.7496 -0.4350 -0.1832
  481MOL0     C64833   5.355  12.090   1.370  0.1025 -0.5123  0.2700
  481MOL0     C64834   5.482  12.047   1.325  1.5355 -0.6329 -0.2244
  481MOL0     C64835   5.541  11.934   1.382 -0.1671 -0.2888  0.1625
  481MOL0     O64836   5.678  11.917   1.373 -0.2479  0.1922  0.1885
  481MOL0     C64837   5.753  11.919   1.492 -0.1237 -0.3169 -0.3934
  481MOL0     C64838   5.871  11.813   1.479  0.6015 -0.5077  0.6042
  481MOL0     C64839   5.810  11.673   1.467  0.5138  0.1230  0.4200
  481MOL0     C64840   5.920  11.558   1.474  0.6310 -1.0076  0.3135
  481MOL0     C64841   5.834  11.427   1.456  0.6379 -1.3518 -0.0176
  481MOL0     C64842   5.910  11.305   1.495 -0.3503  0.4303  0.1965
  481MOL0     C64843   5.931  11.293   1.649 -0.0436  0.3827  0.5091
  481MOL0     C64844   5.814  11.226   1.713  0.5113 -1.1000  0.2570
  481MOL0    Cl64845   5.851  11.214   1.877  0.0156  0.4410 -1.1701
  481MOL0     C64846   5.458  11.853   1.448  0.1447  0.3580 -1.3249
  481MOL0     C64847   5.326  11.882   1.478 -0.1196 -0.2528  0.6846
  481MOL0     O64848   5.161  12.256   1.540  0.1115 -0.1848 -0.4133
  481MOL0     C64849   4.902  12.052   1.425 -0.3324  0.2536  0.0117
  481MOL0     C64850   4.767  12.056   1.393  0.0576 -0.6197  0.2319
  481MOL0     N64851   4.070  12.192   1.083 -0.9854  0.6104  0.1154
  481MOL0     N64852   4.044  12.208   0.959 -0.2981  0.6959 -0.1256
  481MOL0     C64853   4.846  11.382   0.624  0.3616  0.0954 -0.5637
  481MOL0     C64854   4.912  11.257   0.621  0.8951 -0.9519  0.2124
  481MOL0     C64855   5.105  10.921   0.395  0.4353 -0.1198  0.8327
  481MOL0     C64856   5.187  10.914   0.279 -0.5726 -0.5137 -0.3609
  481MOL0     C64857   5.290  10.817   0.282 -0.4127  0.0620  0.0982
  481MOL0     C64858   5.329  10.747   0.396 -0.2820 -0.6673 -0.0419
  481MOL0     O64859   5.453  10.681   0.403  1.0601 -0.0107 -0.3961
  481MOL0     C64860   5.486  10.582   0.494  0.6554  1.1444 -0.6971
  481MOL0     C64861   5.393  10.453   0.497 -0.8445 -0.2272 -0.0378
  481MOL0     C64862   5.417  10.385   0.634 -0.1203 -0.1064 -1.5399
  481MOL0     C64863   5.351  10.249   0.642 -0.1057  0.6970 -1.0712
  481MOL0     C64864   5.397  10.174   0.764 -0.2805 -0.6698 -1.1958
  481MOL0     C64865   5.414  10.104   0.862  0.8731 -0.1297  0.2400
  481MOL0     C64866   5.244  10.749   0.505  0.1152 -0.2417 -0.7700
  481MOL0     C64867   5.132  10.835   0.501 -0.3003  0.0863  0.9939
  481MOL0     H64868   4.683  11.111   0.420  0.2437  3.6517 -3.2059
  481MOL0     H64869   4.565  11.306   0.436  1.5068 -1.1809 -3.4085
  481MOL0     H64870   4.724  11.600   0.759  2.7850 -0.4877 -0.6411
  481MOL0     H64871   4.767  11.665   0.607 -0.5727  0.0307  0.7825
  481MOL0     H64872   4.629  11.823   0.667  1.1800 -0.5850  0.6932
  481MOL0     H64873   4.511  11.712   0.572 -1.2486 -4.0046  0.3396
  481MOL0     H64874   4.401  11.639   0.734  0.0522 -0.7487  1.5498
  481MOL0     H64875   4.515  11.655   0.863 -2.4250 -0.8265  0.3511
  481MOL0     H64876   4.366  11.826   0.915  1.2163  0.6242  0.2292
  481MOL0     H64877   4.482  11.921   0.816  0.4785 -1.4045  1.8664
  481MOL0     H64878   4.346  11.881   0.609  0.7446  1.6922  1.4243
  481MOL0     H64879   4.237  11.784   0.695  3.3286 -2.8554  2.9355
  481MOL0     H64880   4.125  11.999   0.649 -2.6446  0.1492  2.2118
  481MOL0     H64881   4.142  11.978   0.818 -0.1521  2.1772  0.5343
  481MOL0     H64882   4.343  12.126   0.813 -0.2911  1.1875  0.6324
  481MOL0     H64883   4.315  12.131   0.635 -0.4965 -0.5289 -0.5436
  481MOL0     H64884   4.076  12.245   0.713 -1.2924  1.2517  0.9482
  481MOL0     H64885   4.228  12.348   0.725  1.8041 -0.3034  0.8090
  481MOL0     H64886   4.349  12.340   0.987  0.0614  1.1393  1.5881
  481MOL0     H64887   4.294  12.300   1.294 -1.7702  0.6717  1.2592
  481MOL0     H64888   4.146  12.220   1.322  0.2573 -2.1429 -0.3165
  481MOL0     H64889   4.216  12.012   1.227 -1.2447  1.5138 -0.0733
  481MOL0     H64890   4.300  12.061   1.372  0.0922  1.8582 -0.5636
  481MOL0     H64891   4.430  12.078   1.091  4.6102  0.5560 -0.8772
  481MOL0     H64892   4.464  11.963   1.215  0.7470  0.2460 -0.8851
  481MOL0     H64893   4.502  12.265   1.230 -1.2730 -0.4517 -0.0339
  481MOL0     H64894   4.630  12.159   1.203  1.2764  1.0821  2.2817
  481MOL0     H64895   4.670  12.362   1.470  0.9144 -0.1993 -0.3624
  481MOL0     H64896   4.846  12.503   1.519 -2.4461 -1.8403  3.0035
  481MOL0     H64897   4.944  12.447   1.634  0.5951  4.1277 -0.6318
  481MOL0     H64898   5.017  12.457   1.470  0.2309  1.0995  0.7087
  481MOL0     H64899   5.315  12.188   1.345 -1.4518 -0.6334  2.1173
  481MOL0     H64900   5.526  12.114   1.252  2.7508 -0.9219  0.2154
  481MOL0     H64901   5.801  12.012   1.523 -0.2131 -0.3225 -0.2321
  481MOL0     H64902   5.683  11.892   1.572  2.2675 -1.2272  1.5087
  481MOL0     H64903   5.931  11.824   1.389 -2.3325 -0.3963 -1.4612
  481MOL0     H64904   5.936  11.812   1.567  2.6593 -2.4230 -0.8354
  481MOL0     H64905   5.748  11.660   1.377  2.6576  2.1828 -1.4949
  481MOL0     H64906   5.757  11.663   1.562  0.8132  2.1227  0.8455
  481MOL0     H64907   5.995  11.570   1.396 -2.7001  0.7616 -2.9413
  481MOL0     H64908   5.972  11.545   1.570 -0.6659 -0.2296  1.1624
  481MOL0     H64909   5.795  11.439   1.355  1.7926 -0.5443 -0.3882
  481MOL0     H64910   5.750  11.440   1.524  1.1594  4.8619  0.0407
  481MOL0     H64911   5.858  11.213   1.466 -1.6715  1.1414  0.2313
  481MOL0     H64912   6.011  11.300   1.453 -0.2159 -1.6307  0.6730
  481MOL0     H64913   5.947  11.388   1.700  2.1092  0.8533 -0.9118
  481MOL0     H64914   6.010  11.222   1.677  0.8976  2.1946  2.8813
  481MOL0     H64915   5.787  11.133   1.663 -0.1432 -0.8240  0.0735
  481MOL0     H64916   5.725  11.288   1.696 -0.7920 -1.6062  4.2122
  481MOL0     H64917   5.503  11.762   1.487 -0.2255  0.0457 -1.6243
  481MOL0     H64918   5.256  11.817   1.529 -0.5562 -0.9486 -0.7489
  481MOL0     H64919   4.943  11.952   1.430 -1.8621 -0.4775 -1.3800
  481MOL0     H64920   4.725  11.962   1.360 -0.0064  0.4060 -2.9861
  481MOL0     H64921   4.887  11.463   0.683 -2.1818  2.4844 -1.7933
  481MOL0     H64922   5.003  11.231   0.676 -0.5408 -1.8980  2.2612
  481MOL0     H64923   5.158  10.969   0.190 -0.7864  0.1048  0.0842
  481MOL0     H64924   5.362  10.813   0.201  0.7830 -0.6850  1.1599
  481MOL0     H64925   5.587  10.545   0.474  0.6265  1.3434 -1.2091
  481MOL0     H64926   5.477  10.608   0.600 -0.7579 -1.0851 -0.2013
  481MOL0     H64927   5.436  10.384   0.424  0.6905  0.1900  0.4245
  481MOL0     H64928   5.287  10.477   0.485 -1.5524  0.1429  4.7279
  481MOL0     H64929   5.376  10.460   0.701  1.9909  1.6826 -2.1309
  481MOL0     H64930   5.524  10.374   0.655 -0.3733  1.5148  0.9958
  481MOL0     H64931   5.374  10.189   0.554  4.1379 -1.2315  1.0599
  481MOL0     H64932   5.246  10.278   0.654  0.9790  6.3654 -2.1876
  481MOL0     H64933   5.425  10.033   0.942 -0.9680  0.7042  1.2976
  481MOL0     H64934   5.270  10.698   0.597 -0.2004 -1.0035 -1.0942
  481MOL0     H64935   5.063  10.845   0.583 -2.3089 -1.9763 -0.3307
  482MOL0     O64936   8.512   5.913   1.775  0.3926 -0.3825  0.1617
  482MOL0     C64937   8.438   5.834   1.828  0.2455  1.0852  0.1842
  482MOL0     O64938   8.471   5.709   1.864  0.0241  1.1803  0.0305
  482MOL0     C64939   8.569   5.635   1.798  0.0265  0.1977  0.5797
  482MOL0     C64940   8.626   5.664   1.668  0.6030  0.3823 -0.3709
  482MOL0     C64941   8.730   5.587   1.618  0.1816 -0.5839  0.3476
  482MOL0     C64942   8.786   5.484   1.689 -0.2452  0.2933 -0.1378
  482MOL0     O64943   8.890   5.418   1.638 -0.2621 -0.3530  0.6036
  482MOL0     C64944   9.016   5.419   1.711  0.5618 -0.2436  0.0513
  482MOL0     C64945   9.106   5.534   1.669 -0.3013 -1.3788  0.7499
  482MOL0     C64946   9.252   5.523   1.712 -0.6312  0.0473  0.0655
  482MOL0     C64947   9.332   5.649   1.718  0.3914 -0.4638 -1.0374
  482MOL0     C64948   9.461   5.648   1.811 -0.3169 -0.2360  0.2958
  482MOL0     C64949   9.515   5.791   1.832  0.5890 -0.0221  0.9494
  482MOL0     C64950   9.552   5.859   1.694 -0.4431 -0.2333  0.2014
  482MOL0     C64951   9.662   5.792   1.611 -0.5510  0.2704 -0.0876
  482MOL0     N64952   9.783   5.768   1.688 -0.9666  0.5362  0.4475
  482MOL0     C64953   9.848   5.879   1.739 -0.7848 -1.6363 -0.3081
  482MOL0     C64954   9.959   5.827   1.798  0.0097 -0.1442 -0.1437
  482MOL0     C64955  10.068   5.914   1.865  0.6966  0.0684 -1.1828
  482MOL0     C64956  10.156   5.838   1.963  0.3643  1.0126 -0.5846
  482MOL0     C64957  10.073   5.819   2.099 -0.1894  1.0575  0.0233
  482MOL0     C64958  10.117   5.682   2.148  0.0559  0.6428 -0.2371
  482MOL0     O64959  10.051   5.655   2.272 -0.0495  0.6199 -0.2336
  482MOL0     C64960   9.957   5.558   2.273  0.5827 -0.4663 -0.0941
  482MOL0     C64961   9.870   5.546   2.166  0.4305 -0.3930 -0.8498
  482MOL0     C64962   9.767   5.450   2.163 -0.1933  0.7252  0.4234
  482MOL0     C64963   9.688   5.466   2.037  0.3858  0.4207  0.7525
  482MOL0     C64964   9.744   5.366   2.270  0.4404  0.0834 -0.9592
  482MOL0     C64965   9.639   5.261   2.279  0.0089  0.4099 -0.3955
  482MOL0     O64966   9.613   5.202   2.401  0.2315 -0.1045  0.2919
  482MOL0     C64967   9.696   5.103   2.448 -0.3952 -0.3861  0.4469
  482MOL0     C64968   9.678   5.076   2.585 -0.4788  0.4370  0.6121
  482MOL0     C64969   9.746   4.972   2.651  0.0219  0.2743  0.9455
  482MOL0     C64970   9.836   4.883   2.576  0.6139 -0.4886 -0.9520
  482MOL0     O64971   9.892   4.766   2.631  0.0548  0.3942 -0.4237
  482MOL0     C64972  10.013   4.779   2.690  0.0247  0.2582 -0.2135
  482MOL0     C64973  10.090   4.655   2.681 -0.1773  0.0580  0.7168
  482MOL0     C64974  10.011   4.521   2.690  0.6234 -0.5487 -0.2580
  482MOL0     C64975  10.092   4.387   2.674 -0.7601 -0.8807 -1.2651
  482MOL0     C64976  10.217   4.366   2.768  0.9526 -0.1400 -0.3240
  482MOL0     C64977  10.172   4.364   2.916  0.4032 -0.6726  0.1065
  482MOL0     C64978  10.075   4.252   2.951  0.1080  0.3906 -0.7800
  482MOL0     C64979  10.113   4.180   3.085 -0.1078 -0.4959 -0.3321
  482MOL0    Cl64980  10.000   4.048   3.125  0.2722 -0.1737 -0.5582
  482MOL0     C64981   9.850   4.912   2.438 -0.2240  0.2942 -0.2205
  482MOL0     C64982   9.781   5.020   2.374  0.2910  0.1215 -0.6704
  482MOL0     O64983   9.560   5.262   2.187 -0.2602  0.3889  0.3852
  482MOL0     C64984   9.841   5.374   2.374  0.3150  0.0250  0.0202
  482MOL0     C64985   9.945   5.466   2.378  0.7536  0.3571 -0.7882
  482MOL0     N64986   9.945   5.689   1.787  0.0807 -1.0330  0.2526
  482MOL0     N64987   9.847   5.647   1.714  0.8418  0.2003  0.8933
  482MOL0     C64988   8.735   5.458   1.814 -0.0155 -0.4111  0.2010
  482MOL0     C64989   8.630   5.532   1.870  0.0006 -0.6826 -0.4529
  482MOL0     C64990   8.303   5.871   1.840 -0.2785  0.3727  0.1586
  482MOL0     C64991   8.206   5.783   1.887  0.5019  0.4344 -0.0204
  482MOL0     C64992   8.064   5.812   1.875 -0.4743 -1.3995  0.4428
  482MOL0     C64993   8.028   5.935   1.829  0.1284 -1.3824  0.7601
  482MOL0     O64994   7.899   5.944   1.782 -0.1968 -0.5247  0.1589
  482MOL0     C64995   7.850   6.067   1.729 -0.3619 -0.7836 -0.7159
  482MOL0     C64996   7.699   6.063   1.742  1.0412  0.0955  0.2022
  482MOL0     C64997   7.619   6.188   1.701  0.2181  0.4305 -0.1795
  482MOL0     C64998   7.668   6.319   1.774 -0.1780 -0.1415  0.1797
  482MOL0     C64999   7.596   6.447   1.764 -0.6875 -0.7618  0.6100
  482MOL0     C65000   7.531   6.545   1.762  0.3288 -1.1753 -0.3123
  482MOL0     C65001   8.126   6.033   1.808  0.9467  0.1501 -0.0728
  482MOL0     C65002   8.258   6.001   1.804 -0.0620 -0.5491 -1.1883
  482MOL0     H65003   8.568   5.739   1.616 -1.1139 -2.0534 -2.1895
  482MOL0     H65004   8.767   5.601   1.517 -0.9578  0.5113  0.0511
  482MOL0     H65005   8.991   5.422   1.817 -1.2138  0.8613 -0.3595
  482MOL0     H65006   9.066   5.327   1.679  0.6511  1.0331 -4.0916
  482MOL0     H65007   9.104   5.549   1.561 -0.3998 -1.9534  0.6695
  482MOL0     H65008   9.071   5.629   1.710  0.3006 -0.7377 -0.1908
  482MOL0     H65009   9.255   5.481   1.813 -1.5906 -2.0769 -0.7119
  482MOL0     H65010   9.312   5.453   1.652  1.9718  1.2220  1.1691
  482MOL0     H65011   9.372   5.669   1.618  1.8974 -1.7534 -0.7370
  482MOL0     H65012   9.257   5.721   1.752  0.5278 -1.7322  2.3782
  482MOL0     H65013   9.433   5.606   1.908 -2.2843 -0.3001 -0.2635
  482MOL0     H65014   9.547   5.588   1.776  3.1214  3.1990  2.0911
  482MOL0     H65015   9.436   5.850   1.879 -0.5087 -1.5877  1.1124
  482MOL0     H65016   9.596   5.786   1.906  0.0014 -0.0516  1.5915
  482MOL0     H65017   9.467   5.866   1.627 -1.0164  0.7066  1.0022
  482MOL0     H65018   9.566   5.965   1.719 -2.9893  0.0455  0.7317
  482MOL0     H65019   9.679   5.852   1.522 -2.4476  0.1519 -0.5732
  482MOL0     H65020   9.622   5.695   1.578 -5.3601  1.9196  0.1153
  482MOL0     H65021   9.828   5.984   1.720  2.5503 -1.1468 -1.8246
  482MOL0     H65022  10.134   5.953   1.787  1.5022 -1.9428 -1.5621
  482MOL0     H65023  10.028   6.006   1.909 -0.5174 -0.4446 -1.1879
  482MOL0     H65024  10.250   5.892   1.976 -1.3086  4.2846 -0.8136
  482MOL0     H65025  10.178   5.743   1.914 -0.7659 -0.3055  1.3034
  482MOL0     H65026   9.968   5.811   2.068  0.4371  1.5156 -2.4497
  482MOL0     H65027  10.091   5.899   2.172 -0.0349  3.3060 -2.3262
  482MOL0     H65028  10.227   5.689   2.152  0.1893  1.3239 -2.9762
  482MOL0     H65029  10.102   5.606   2.070 -2.5573 -2.9053  3.3269
  482MOL0     H65030   9.872   5.615   2.083 -1.9092  0.3431 -0.3743
  482MOL0     H65031   9.581   5.478   2.057 -0.2050 -0.0215 -1.7524
  482MOL0     H65032   9.706   5.547   1.966  0.3038  2.0593  2.5218
  482MOL0     H65033   9.699   5.372   1.981 -0.4677  0.9838 -0.4182
  482MOL0     H65034   9.599   5.128   2.639  0.6007  2.4047  0.3968
  482MOL0     H65035   9.717   4.961   2.756  0.2275  1.0156  1.0887
  482MOL0     H65036  10.066   4.855   2.630 -1.0482  1.9156  0.8574
  482MOL0     H65037   9.993   4.801   2.795 -1.7340  1.1621 -0.7025
  482MOL0     H65038  10.141   4.645   2.585 -3.7729 -1.2964 -1.2490
  482MOL0     H65039  10.158   4.657   2.767  1.0423 -0.6614 -0.2084
  482MOL0     H65040   9.925   4.523   2.622  2.7905 -0.5016 -3.1471
  482MOL0     H65041   9.963   4.528   2.789 -0.4829  0.2500 -0.8268
  482MOL0     H65042  10.023   4.303   2.687  0.3121 -1.6359 -0.2295
  482MOL0     H65043  10.134   4.385   2.573  4.5635  2.4358  0.4526
  482MOL0     H65044  10.286   4.449   2.751 -0.6581  1.2964 -0.2171
  482MOL0     H65045  10.256   4.273   2.727  2.0793  0.6842 -1.1877
  482MOL0     H65046  10.263   4.356   2.976  1.0597 -1.6158 -0.9633
  482MOL0     H65047  10.125   4.461   2.933  1.4654  0.1436 -1.3238
  482MOL0     H65048  10.074   4.185   2.864 -1.2477 -0.4161 -0.1795
  482MOL0     H65049   9.976   4.296   2.966  0.1863  0.6371 -0.9968
  482MOL0     H65050  10.119   4.254   3.166 -0.0047 -0.2940 -0.5237
  482MOL0     H65051  10.215   4.140   3.088 -0.1803 -0.7732 -1.2300
  482MOL0     H65052   9.910   4.846   2.376  1.1797  1.1505  0.1865
  482MOL0     H65053   9.790   5.040   2.267  3.1232  0.1808 -0.4944
  482MOL0     H65054   9.819   5.333   2.472 -1.4440  1.8414  0.4613
  482MOL0     H65055  10.019   5.450   2.455  0.2719  2.8692  0.2776
  482MOL0     H65056   8.774   5.381   1.880 -0.9919 -1.2951 -0.2007
  482MOL0     H65057   8.600   5.520   1.973 -0.1517  1.1329 -0.2450
  482MOL0     H65058   8.238   5.683   1.914 -0.6888 -0.1770 -0.7941
  482MOL0     H65059   7.993   5.730   1.883 -0.3798 -1.5234  0.0339
  482MOL0     H65060   7.883   6.151   1.791 -1.5113 -0.8252 -0.0026
  482MOL0     H65061   7.890   6.086   1.630 -2.8778 -0.4172 -1.7377
  482MOL0     H65062   7.674   6.044   1.847  1.5658 -1.7012  0.0528
  482MOL0     H65063   7.663   5.975   1.688  0.0748  0.2078  0.6486
  482MOL0     H65064   7.514   6.164   1.720 -0.0913 -0.2369 -2.4965
  482MOL0     H65065   7.629   6.200   1.593 -1.0358 -3.1172 -0.8043
  482MOL0     H65066   7.769   6.332   1.734  0.6528 -0.7303  2.0188
  482MOL0     H65067   7.678   6.296   1.880 -1.2940 -1.0267  0.1188
  482MOL0     H65068   7.483   6.641   1.758  0.4066 -1.0987  0.3785
  482MOL0     H65069   8.097   6.133   1.778 -3.5706  0.6245  4.4626
  482MOL0     H65070   8.328   6.077   1.772 -0.0617 -0.6030 -1.3145
  483MOL0     O65071   3.087  10.816   6.763  0.3052  0.3087  0.1726
  483MOL0     C65072   3.201  10.776   6.768  0.0127  0.4782  0.3839
  483MOL0     O65073   3.265  10.696   6.680 -0.1800  0.4740  0.2567
  483MOL0     C65074   3.190  10.635   6.577 -0.1557  0.6481  0.1682
  483MOL0     C65075   3.235  10.649   6.450 -0.5728  0.1474  0.0300
  483MOL0     C65076   3.170  10.605   6.335 -0.3026  0.6316 -0.0385
  483MOL0     C65077   3.048  10.540   6.356  0.3830 -1.5070  0.3515
  483MOL0     O65078   2.980  10.496   6.238 -0.4353  0.1037  0.4250
  483MOL0     C65079   2.864  10.415   6.238 -0.0021 -0.7382  0.2678
  483MOL0     C65080   2.846  10.370   6.087  1.0914  0.5323 -0.2417
  483MOL0     C65081   2.780  10.479   6.007 -0.4885  0.6575  0.3129
  483MOL0     C65082   2.728  10.438   5.862 -0.3525  0.2834 -0.0054
  483MOL0     C65083   2.841  10.368   5.785 -0.1682  0.2064 -0.3073
  483MOL0     C65084   2.812  10.371   5.635 -0.6478  0.2938 -0.2856
  483MOL0     C65085   2.925  10.328   5.541  1.2689  0.2532 -0.6861
  483MOL0     C65086   2.907  10.385   5.407  0.0360 -0.1403  0.2466
  483MOL0     N65087   2.823  10.294   5.316  0.7631  0.7906  1.0263
  483MOL0     C65088   2.874  10.197   5.239  0.5961  1.2480 -0.9567
  483MOL0     C65089   2.768  10.123   5.189  0.2088  0.0954  0.2166
  483MOL0     C65090   2.777   9.974   5.138 -0.4256  0.2254  0.8116
  483MOL0     C65091   2.750   9.872   5.257 -0.6853  0.1749 -0.2517
  483MOL0     C65092   2.836   9.880   5.387 -0.2960 -0.3282  0.5601
  483MOL0     C65093   2.846   9.749   5.456 -0.2602 -0.1011  0.0204
  483MOL0     O65094   2.939   9.759   5.553 -0.2085  0.0577  0.2625
  483MOL0     C65095   2.957   9.672   5.656  0.6063 -0.5503  0.3268
  483MOL0     C65096   3.063   9.703   5.750  0.4646 -0.5386  0.0297
  483MOL0     C65097   3.069   9.637   5.872 -0.3004  0.0568  0.4939
  483MOL0     C65098   3.189   9.665   5.964  0.7528  0.1759 -0.7075
  483MOL0     C65099   2.973   9.532   5.900  0.4782 -0.1116  0.5785
  483MOL0     C65100   2.978   9.452   6.016 -0.8546  0.5663 -0.4989
  483MOL0     O65101   2.894   9.499   6.102  0.9842  0.1443 -0.2173
  483MOL0     C65102   2.889   9.453   6.228  0.8969  0.0222 -0.4740
  483MOL0     C65103   2.822   9.337   6.270  0.4188 -0.3822 -0.2920
  483MOL0     C65104   2.803   9.305   6.410  0.5955 -0.5038  0.1663
  483MOL0     C65105   2.858   9.396   6.503  0.2700  1.0029 -0.4242
  483MOL0     O65106   2.829   9.381   6.636  0.6283 -0.8563  0.1464
  483MOL0     C65107   2.848   9.246   6.691 -0.1435  0.1544  0.3461
  483MOL0     C65108   2.841   9.263   6.841  0.4563 -0.7202 -0.1905
  483MOL0     C65109   2.956   9.332   6.914  0.1791 -1.1603 -0.9563
  483MOL0     C65110   3.084   9.248   6.922  0.0248  0.0606  0.4799
  483MOL0     C65111   3.203   9.315   7.003  0.0960  0.3495  0.0858
  483MOL0     C65112   3.321   9.215   7.017  0.7317 -0.1234  0.3289
  483MOL0     C65113   3.433   9.283   7.091  0.5282  0.0877 -0.1451
  483MOL0     C65114   3.556   9.192   7.107  0.0409 -0.7287  0.1188
  483MOL0    Cl65115   3.629   9.164   6.944  0.0263 -0.1584  0.0063
  483MOL0     C65116   2.930   9.509   6.461  0.0018  0.2503  0.1536
  483MOL0     C65117   2.944   9.538   6.330  0.6849 -0.0516 -0.2526
  483MOL0     O65118   3.045   9.352   6.025 -0.0339  0.2223 -0.6278
  483MOL0     C65119   2.880   9.495   5.800  1.0862  0.4388  0.0527
  483MOL0     C65120   2.866   9.567   5.685 -0.1398  0.0926  0.4685
  483MOL0     N65121   2.651  10.193   5.215 -0.2487 -1.1145  0.3597
  483MOL0     N65122   2.685  10.284   5.306  0.0236 -0.3900 -1.1028
  483MOL0     C65123   3.003  10.505   6.483  0.9894  0.2103 -1.2990
  483MOL0     C65124   3.071  10.566   6.589  0.3784  1.0002 -0.0964
  483MOL0     C65125   3.282  10.815   6.887  0.1350 -0.7535 -1.5075
  483MOL0     C65126   3.375  10.741   6.949 -0.4157 -0.0816  0.7924
  483MOL0     C65127   3.451  10.797   7.059  0.5531  0.5676 -0.4233
  483MOL0     C65128   3.418  10.917   7.120  0.2063 -0.2989  0.1736
  483MOL0     O65129   3.479  10.982   7.233  0.3623 -0.8807  0.4958
  483MOL0     C65130   3.595  10.919   7.285 -0.0397 -0.7440 -0.0878
  483MOL0     C65131   3.732  10.926   7.209  0.5202 -1.0775  0.6854
  483MOL0     C65132   3.745  11.080   7.164 -0.6384  0.2158  0.2437
  483MOL0     C65133   3.876  11.105   7.074  0.3693 -0.1459 -0.8609
  483MOL0     C65134   3.972  11.194   7.143  1.2204  0.1438 -0.1108
  483MOL0     C65135   4.060  11.251   7.198  0.0921 -0.2684 -0.3451
  483MOL0     C65136   3.322  10.994   7.048 -0.0973 -0.5202  0.4027
  483MOL0     C65137   3.264  10.950   6.931  0.1812 -0.5035 -0.2668
  483MOL0     H65138   3.339  10.680   6.446 -0.6399  0.2386 -2.2615
  483MOL0     H65139   3.222  10.631   6.244 -1.1640 -0.5629 -0.8996
  483MOL0     H65140   2.881  10.329   6.303  3.1160 -0.4841 -0.0613
  483MOL0     H65141   2.776  10.471   6.272 -0.3990  0.8173 -2.9088
  483MOL0     H65142   2.945  10.349   6.045  0.8176  1.2913 -1.3101
  483MOL0     H65143   2.800  10.272   6.069  2.9092 -0.3234 -0.4689
  483MOL0     H65144   2.702  10.537   6.057  0.2877  3.1666 -1.2459
  483MOL0     H65145   2.867  10.541   5.988  1.7809 -1.9184  1.5984
  483MOL0     H65146   2.643  10.369   5.866 -0.2985  0.2689  2.2308
  483MOL0     H65147   2.698  10.531   5.814 -2.2610 -0.8586 -1.1166
  483MOL0     H65148   2.937  10.419   5.794 -0.0980  0.5022 -2.2441
  483MOL0     H65149   2.842  10.268   5.829 -1.1780  0.8396  1.2699
  483MOL0     H65150   2.718  10.319   5.616 -0.6456  1.0206 -2.6756
  483MOL0     H65151   2.789  10.477   5.619  0.6208  0.5513 -0.4830
  483MOL0     H65152   3.025  10.358   5.576  1.4503 -1.2500  0.1972
  483MOL0     H65153   2.935  10.219   5.532 -1.2480  0.0060 -1.0165
  483MOL0     H65154   3.005  10.388   5.359  0.1951 -1.9216  0.3898
  483MOL0     H65155   2.854  10.480   5.418 -1.3668 -1.0893  2.4580
  483MOL0     H65156   2.974  10.155   5.235  0.4544  0.8888 -0.7411
  483MOL0     H65157   2.703   9.966   5.058  1.7167  6.1422 -2.4129
  483MOL0     H65158   2.876   9.953   5.096 -0.9366 -0.6595  0.0262
  483MOL0     H65159   2.782   9.772   5.224 -0.4811 -0.7268  2.3866
  483MOL0     H65160   2.645   9.862   5.284 -0.3243  0.6223  1.4395
  483MOL0     H65161   2.796   9.944   5.465 -0.5392 -1.7822  1.6792
  483MOL0     H65162   2.929   9.929   5.358 -0.0983 -1.4773 -0.8945
  483MOL0     H65163   2.894   9.672   5.395 -0.0931 -0.8795  1.1258
  483MOL0     H65164   2.747   9.719   5.490 -0.3694 -0.4618 -0.5863
  483MOL0     H65165   3.145   9.772   5.732  0.5815 -0.2349  1.5868
  483MOL0     H65166   3.160   9.705   6.062  0.7094  1.0785 -1.0822
  483MOL0     H65167   3.228   9.566   5.992 -2.0982  0.0769  4.1023
  483MOL0     H65168   3.264   9.728   5.916  1.0503  0.0327 -0.4330
  483MOL0     H65169   2.794   9.257   6.201 -0.0916 -2.0163  1.6925
  483MOL0     H65170   2.764   9.207   6.435  0.3974 -0.4735 -0.0236
  483MOL0     H65171   2.771   9.183   6.648  0.5284  1.9695 -3.9607
  483MOL0     H65172   2.941   9.191   6.671 -0.3017  0.2997 -0.8576
  483MOL0     H65173   2.748   9.317   6.861  1.1577  0.7774 -0.7890
  483MOL0     H65174   2.844   9.157   6.868  2.7075 -0.8309 -0.6939
  483MOL0     H65175   2.922   9.358   7.015 -0.5097  0.0157 -1.4677
  483MOL0     H65176   2.976   9.428   6.865  2.2557 -0.0723  1.7387
  483MOL0     H65177   3.058   9.145   6.949 -0.1379 -0.8105 -2.6061
  483MOL0     H65178   3.122   9.238   6.820  1.7348 -1.2528  1.1917
  483MOL0     H65179   3.171   9.343   7.104 -1.5348  1.1773 -0.6343
  483MOL0     H65180   3.236   9.407   6.955  4.3535 -0.0134  1.9072
  483MOL0     H65181   3.293   9.127   7.076 -2.4934  0.5670  0.0141
  483MOL0     H65182   3.358   9.188   6.918 -0.8912 -1.5526  0.0719
  483MOL0     H65183   3.403   9.312   7.192  2.8041  2.2597 -0.0042
  483MOL0     H65184   3.461   9.378   7.044  1.8164 -0.4329 -0.4851
  483MOL0     H65185   3.516   9.094   7.132 -1.3730 -0.2661 -0.2696
  483MOL0     H65186   3.632   9.229   7.177 -0.2801  4.4097 -1.8348
  483MOL0     H65187   2.967   9.584   6.530 -2.0398  4.3952 -2.8116
  483MOL0     H65188   3.011   9.620   6.310  0.7492  0.2187  1.0177
  483MOL0     H65189   2.811   9.413   5.818  0.6567  0.5864 -0.8594
  483MOL0     H65190   2.775   9.561   5.626  0.7661  4.5676 -1.8496
  483MOL0     H65191   2.910  10.450   6.497  0.3978  1.7600  1.6334
  483MOL0     H65192   3.014  10.558   6.681  0.7095 -0.9482 -0.0178
  483MOL0     H65193   3.407  10.643   6.915 -1.8311 -0.6501  1.0108
  483MOL0     H65194   3.520  10.725   7.102 -1.8224 -0.6549  1.5706
  483MOL0     H65195   3.621  10.963   7.382 -2.7063  0.2121  0.2516
  483MOL0     H65196   3.581  10.813   7.307 -0.5652 -0.7412 -0.4056
  483MOL0     H65197   3.732  10.862   7.121 -1.8572  2.8026 -2.4653
  483MOL0     H65198   3.811  10.904   7.281  2.7086  0.3042 -1.1753
  483MOL0     H65199   3.746  11.147   7.250 -2.3820  0.3978  0.1524
  483MOL0     H65200   3.662  11.102   7.095 -1.7748 -3.1430  0.3785
  483MOL0     H65201   3.842  11.151   6.981  1.0243  0.9733 -0.5612
  483MOL0     H65202   3.924  11.007   7.068 -1.7357 -1.8746  4.2786
  483MOL0     H65203   4.132  11.305   7.257 -0.7907  0.2422  0.3100
  483MOL0     H65204   3.306  11.097   7.079  1.7828 -0.1788  0.3868
  483MOL0     H65205   3.194  11.022   6.890 -0.2918  0.6425  2.3074
  484MOL0     O65206  10.868  10.383   6.410 -0.7022 -0.1318  0.3416
  484MOL0     C65207  10.877  10.504   6.421  0.0640 -1.6684  0.8935
  484MOL0     O65208  10.863  10.597   6.312 -0.0321 -0.2226 -0.4277
  484MOL0     C65209  10.814  10.542   6.186  0.5148  0.3048 -1.4747
  484MOL0     C65210  10.726  10.617   6.109  0.0976  1.0196 -0.3246
  484MOL0     C65211  10.692  10.571   5.982  0.4880 -0.9140 -0.4746
  484MOL0     C65212  10.753  10.461   5.926 -0.1643 -0.4309  0.4477
  484MOL0     O65213  10.727  10.437   5.789  0.9695 -0.5637 -0.7632
  484MOL0     C65214  10.800  10.334   5.716 -0.2181 -0.0508 -0.2992
  484MOL0     C65215  10.751  10.325   5.571  0.3277  0.1705  0.1923
  484MOL0     C65216  10.750  10.467   5.506 -0.1243 -0.0726 -0.1308
  484MOL0     C65217  10.739  10.476   5.350 -0.6040  0.2474  0.1769
  484MOL0     C65218  10.846  10.390   5.279 -0.6125  0.2608  1.0809
  484MOL0     C65219  10.844  10.412   5.137  0.0555  0.1637  1.1592
  484MOL0     C65220  10.923  10.539   5.092 -0.2478 -0.5637 -0.8016
  484MOL0     C65221  10.947  10.529   4.945  0.3830 -0.0809  0.3882
  484MOL0     N65222  10.831  10.562   4.863 -0.1552  0.3039  0.4721
  484MOL0     C65223  10.815  10.686   4.807 -0.1826 -0.4871  0.6491
  484MOL0     C65224  10.697  10.680   4.750  1.2933 -0.7220  0.1349
  484MOL0     C65225  10.632  10.792   4.672  0.8025  0.7044  0.1882
  484MOL0     C65226  10.500  10.836   4.724 -0.4438  0.2245 -0.4906
  484MOL0     C65227  10.445  10.927   4.625  0.0127 -0.3026  1.0505
  484MOL0     C65228  10.308  10.974   4.679  0.4426 -0.2320  0.3001
  484MOL0     O65229  10.266  11.073   4.585  0.9190 -0.3676 -0.2465
  484MOL0     C65230  10.149  11.146   4.607  0.0689  0.4588  0.3269
  484MOL0     C65231  10.124  11.248   4.510  0.0598 -0.4536 -0.0105
  484MOL0     C65232  10.014  11.331   4.530 -0.0972 -0.7693 -0.1771
  484MOL0     C65233  10.004  11.446   4.425 -0.1226  0.9576  0.2477
  484MOL0     C65234   9.927  11.322   4.636  0.9328 -0.5242 -0.4940
  484MOL0     C65235   9.801  11.406   4.654  0.6500 -0.2936 -1.1005
  484MOL0     O65236   9.790  11.523   4.595 -0.5658 -0.8003  0.0368
  484MOL0     C65237   9.659  11.559   4.560 -1.2985  0.4551 -0.4669
  484MOL0     C65238   9.600  11.657   4.633  0.3897 -0.0522 -1.0012
  484MOL0     C65239   9.467  11.695   4.588 -0.5487  0.6610  0.6056
  484MOL0     C65240   9.401  11.622   4.485 -0.6037 -0.7249  1.2838
  484MOL0     O65241   9.281  11.666   4.437 -0.3543  0.4026  0.1870
  484MOL0     C65242   9.180  11.575   4.486  0.1933 -0.2489  0.5365
  484MOL0     C65243   9.051  11.650   4.464  0.6856  0.7757  0.3286
  484MOL0     C65244   9.021  11.679   4.317 -0.7679  0.3996 -0.6926
  484MOL0     C65245   8.987  11.547   4.243  0.5296 -0.2097 -0.8706
  484MOL0     C65246   8.927  11.582   4.109 -0.2807 -0.2334 -0.2495
  484MOL0     C65247   8.888  11.462   4.027 -0.1770 -0.3915  0.3595
  484MOL0     C65248   8.887  11.493   3.877  0.9860  0.3072  0.6249
  484MOL0     C65249   8.788  11.600   3.842  1.5432  0.5340 -0.3578
  484MOL0    Cl65250   8.619  11.556   3.896  0.3673  0.4492  0.4731
  484MOL0     C65251   9.470  11.514   4.425  0.4555 -0.2534  0.5612
  484MOL0     C65252   9.606  11.486   4.453  0.6955 -0.5918  0.9159
  484MOL0     O65253   9.720  11.358   4.725  0.3751 -0.6096 -0.5172
  484MOL0     C65254   9.953  11.227   4.733 -1.0670 -0.1973 -0.7139
  484MOL0     C65255  10.070  11.143   4.722 -0.2905 -0.5350 -0.8100
  484MOL0     N65256  10.645  10.556   4.787  0.1499 -0.2380  0.9309
  484MOL0     N65257  10.720  10.490   4.863 -0.8611 -0.5404  0.6425
  484MOL0     C65258  10.840  10.382   6.008  0.2967  0.0539  0.4482
  484MOL0     C65259  10.865  10.420   6.138 -0.7443  0.1348 -0.2538
  484MOL0     C65260  10.906  10.564   6.558 -0.3442  0.7986  0.6572
  484MOL0     C65261  10.946  10.491   6.658  0.0017 -0.3085 -0.3846
  484MOL0     C65262  10.973  10.543   6.776  0.3335  0.0327 -1.9747
  484MOL0     C65263  10.957  10.679   6.798 -0.3270 -0.4541  0.1477
  484MOL0     O65264  10.991  10.733   6.926 -0.1240  0.5777  0.0890
  484MOL0     C65265  10.872  10.748   7.009  0.1889 -0.9161  0.4832
  484MOL0     C65266  10.869  10.633   7.104  0.2754  0.3293 -0.0139
  484MOL0     C65267  10.743  10.633   7.185 -0.8916  0.1210  0.3361
  484MOL0     C65268  10.758  10.725   7.309 -0.2342  0.1289 -0.3250
  484MOL0     C65269  10.620  10.751   7.360 -0.0180  0.3510  0.1129
  484MOL0     C65270  10.515  10.773   7.399  0.3313 -0.5779 -0.9114
  484MOL0     C65271  10.907  10.756   6.696 -0.3986 -0.3933 -1.1351
  484MOL0     C65272  10.879  10.695   6.576 -0.6046 -0.0923  0.0613
  484MOL0     H65273  10.688  10.706   6.159 -0.9396  0.0043  0.7655
  484MOL0     H65274  10.632  10.637   5.920 -1.5308 -0.9617  1.3057
  484MOL0     H65275  10.907  10.357   5.716 -0.7113  2.5500 -0.6187
  484MOL0     H65276  10.797  10.237   5.766  2.7273 -0.5222 -0.8761
  484MOL0     H65277  10.796  10.238   5.521 -1.9322 -1.2309  0.4755
  484MOL0     H65278  10.647  10.291   5.573  0.5206 -1.1460 -3.6142
  484MOL0     H65279  10.667  10.529   5.541  0.5961  1.2563 -0.7203
  484MOL0     H65280  10.837  10.523   5.541  0.6083 -1.8690  1.0564
  484MOL0     H65281  10.638  10.459   5.312 -1.7883  2.9926  1.8345
  484MOL0     H65282  10.750  10.582   5.325 -3.7575  0.4060 -0.9179
  484MOL0     H65283  10.944  10.404   5.325 -1.5820  1.5539  2.8894
  484MOL0     H65284  10.824  10.283   5.278  1.7765 -0.4087 -2.9080
  484MOL0     H65285  10.872  10.318   5.089 -0.4873 -0.5143  2.1184
  484MOL0     H65286  10.740  10.425   5.106  0.5708 -1.3736 -1.4776
  484MOL0     H65287  10.865  10.627   5.122  0.7508  0.0373 -0.5983
  484MOL0     H65288  11.020  10.537   5.143  0.0404  2.9096 -1.0315
  484MOL0     H65289  10.996  10.438   4.909  0.6634  0.7817 -1.5856
  484MOL0     H65290  11.025  10.602   4.921  2.1702 -2.0332 -0.0170
  484MOL0     H65291  10.881  10.772   4.808  0.3321 -0.8497 -0.6470
  484MOL0     H65292  10.705  10.873   4.666  1.4321  0.2979  1.8938
  484MOL0     H65293  10.616  10.765   4.567  0.2337 -0.2814  0.5142
  484MOL0     H65294  10.515  10.898   4.813  1.6722  2.5690 -2.3513
  484MOL0     H65295  10.432  10.755   4.754 -0.6771  0.8887  0.8250
  484MOL0     H65296  10.440  10.886   4.524  0.1747 -0.7970  1.2406
  484MOL0     H65297  10.519  11.008   4.620  2.0975 -2.0725  1.4053
  484MOL0     H65298  10.333  11.004   4.782 -0.9101 -2.0284  1.2150
  484MOL0     H65299  10.235  10.896   4.701 -0.4844  0.5695  0.1066
  484MOL0     H65300  10.182  11.250   4.418 -2.1335 -0.3798 -1.4476
  484MOL0     H65301   9.913  11.426   4.369  0.8452  5.0688 -3.3491
  484MOL0     H65302   9.982  11.543   4.471 -2.1207 -0.2757  2.0864
  484MOL0     H65303  10.095  11.444   4.364  1.1199 -0.9751  2.0244
  484MOL0     H65304   9.648  11.711   4.714 -1.5872 -1.1812  1.0409
  484MOL0     H65305   9.407  11.770   4.637  0.6151  1.4263  0.9178
  484MOL0     H65306   9.170  11.472   4.452 -3.2043 -0.5442  2.0534
  484MOL0     H65307   9.200  11.572   4.594  0.4465  0.1177  0.5002
  484MOL0     H65308   8.966  11.590   4.498  1.3255 -0.4326 -0.1603
  484MOL0     H65309   9.053  11.742   4.522 -0.2466  0.3651  1.0382
  484MOL0     H65310   9.105  11.735   4.275  1.9949 -0.0900  3.5161
  484MOL0     H65311   8.937  11.747   4.332 -0.4145  0.4845  1.2218
  484MOL0     H65312   9.079  11.488   4.232  0.6127 -0.3502  0.4014
  484MOL0     H65313   8.914  11.481   4.290  0.1723  0.9396  0.2555
  484MOL0     H65314   8.997  11.642   4.050  1.1911 -1.0530  0.6078
  484MOL0     H65315   8.845  11.653   4.127  0.6628  0.8453 -0.0737
  484MOL0     H65316   8.965  11.386   4.042  0.5745  0.6005  1.8630
  484MOL0     H65317   8.797  11.419   4.070 -1.5642  2.5243  0.6138
  484MOL0     H65318   8.862  11.403   3.822 -0.0979  2.0213 -1.8823
  484MOL0     H65319   8.989  11.528   3.857  0.4196  0.6611 -1.9230
  484MOL0     H65320   8.784  11.621   3.734  0.6222  2.6888  0.0316
  484MOL0     H65321   8.825  11.687   3.897 -0.7028  1.0172  0.5168
  484MOL0     H65322   9.426  11.454   4.347  0.6438 -1.8886  1.6580
  484MOL0     H65323   9.663  11.409   4.403 -0.5673 -1.3704  0.6353
  484MOL0     H65324   9.890  11.208   4.820  2.4447 -0.0754  2.0651
  484MOL0     H65325  10.079  11.086   4.813  2.2744  3.3460  1.6650
  484MOL0     H65326  10.902  10.302   5.968  0.1787 -0.9704  2.2453
  484MOL0     H65327  10.946  10.368   6.187 -0.6866  0.6016  0.1537
  484MOL0     H65328  10.931  10.384   6.652 -2.9478 -0.0525  0.8758
  484MOL0     H65329  11.005  10.478   6.857  1.7029 -1.7625 -3.8667
  484MOL0     H65330  10.880  10.840   7.068  0.7717 -1.9818  2.1315
  484MOL0     H65331  10.782  10.758   6.948 -0.0764 -0.2637  0.9542
  484MOL0     H65332  10.952  10.637   7.174 -0.4395  0.3312  0.8531
  484MOL0     H65333  10.875  10.536   7.054 -1.9986 -0.1023  0.4255
  484MOL0     H65334  10.711  10.540   7.232  0.6266 -0.8047 -0.3727
  484MOL0     H65335  10.656  10.665   7.127  1.2998  2.7879 -1.7588
  484MOL0     H65336  10.817  10.814   7.286 -0.9237  0.7465  0.2404
  484MOL0     H65337  10.825  10.679   7.382  3.6918  3.0370 -1.7165
  484MOL0     H65338  10.410  10.771   7.422  0.4824 -1.9565 -0.2386
  484MOL0     H65339  10.891  10.861   6.718 -1.1317 -0.5235 -1.0305
  484MOL0     H65340  10.830  10.750   6.496 -1.3836 -1.4595 -0.4379
  485MOL0     O65341   8.159   4.442   1.088  0.2510  0.6949 -0.4046
  485MOL0     C65342   8.140   4.449   0.965  0.0236 -0.1438  0.6058
  485MOL0     O65343   8.090   4.568   0.902  0.6979  0.5873  0.6518
  485MOL0     C65344   8.039   4.682   0.970 -0.3725  0.9661 -0.0824
  485MOL0     C65345   8.010   4.698   1.110  0.0587  0.2499  0.0035
  485MOL0     C65346   7.962   4.816   1.158  0.2072 -0.1332 -0.9626
  485MOL0     C65347   7.922   4.920   1.063  1.1412  0.3834 -0.4598
  485MOL0     O65348   7.872   5.040   1.105  0.6797  0.3148 -0.0197
  485MOL0     C65349   7.784   5.052   1.216  0.3773  0.0289 -0.0190
  485MOL0     C65350   7.650   4.986   1.166  0.7523 -0.3008 -0.9430
  485MOL0     C65351   7.573   4.928   1.283 -0.6457  0.8321 -1.0116
  485MOL0     C65352   7.439   4.867   1.241 -0.0117 -0.0547 -0.0765
  485MOL0     C65353   7.371   4.781   1.352 -0.0531 -0.4750  1.0598
  485MOL0     C65354   7.437   4.643   1.366  0.3955  1.0700 -0.5423
  485MOL0     C65355   7.336   4.529   1.387 -0.3968 -0.3601 -0.4572
  485MOL0     C65356   7.249   4.538   1.513 -1.0079  0.5744 -0.0276
  485MOL0     N65357   7.338   4.568   1.629  0.2419 -0.4125 -0.5034
  485MOL0     C65358   7.408   4.464   1.687  0.4129  0.1055 -0.0159
  485MOL0     C65359   7.485   4.533   1.778  0.1985  0.5712 -0.3530
  485MOL0     C65360   7.589   4.468   1.857 -0.6287  0.2980  0.6385
  485MOL0     C65361   7.614   4.530   1.999  0.1528  0.6355  0.2018
  485MOL0     C65362   7.694   4.427   2.079 -0.6140  0.9014  0.0065
  485MOL0     C65363   7.744   4.484   2.210 -0.2156 -0.2788  0.7821
  485MOL0     O65364   7.780   4.380   2.302 -0.3024  0.0347  0.0757
  485MOL0     C65365   7.916   4.369   2.337  0.1956  1.4799  0.9617
  485MOL0     C65366   7.947   4.330   2.468 -0.5041  0.0849 -0.1239
  485MOL0     C65367   8.082   4.330   2.518 -0.6548  0.5586  0.8445
  485MOL0     C65368   8.107   4.286   2.659  0.4166  1.1856  0.5462
  485MOL0     C65369   8.186   4.345   2.415  0.6999 -0.3340  0.1884
  485MOL0     C65370   8.329   4.314   2.445 -1.0085  0.9100  0.1015
  485MOL0     O65371   8.422   4.326   2.343  0.5487  0.4697  0.1584
  485MOL0     C65372   8.554   4.371   2.359  0.9663 -0.3195  0.3566
  485MOL0     C65373   8.609   4.429   2.246  0.1545  0.2518 -0.1403
  485MOL0     C65374   8.742   4.486   2.249  0.0438 -0.5845 -0.2967
  485MOL0     C65375   8.815   4.502   2.371  0.2108 -0.4350 -0.6769
  485MOL0     O65376   8.947   4.532   2.385  0.4307  0.7632  0.2656
  485MOL0     C65377   9.043   4.524   2.277  0.4002  0.8494  0.1818
  485MOL0     C65378   9.148   4.414   2.291  0.7704 -0.2124 -0.6448
  485MOL0     C65379   9.256   4.415   2.176  0.0577 -0.7706 -0.7113
  485MOL0     C65380   9.205   4.337   2.054 -0.9274  1.0513  0.5976
  485MOL0     C65381   9.319   4.330   1.939  0.2395 -0.0441  0.2092
  485MOL0     C65382   9.279   4.260   1.810 -0.6357 -0.4948  0.3889
  485MOL0     C65383   9.178   4.146   1.828 -0.5456 -0.1343 -0.7349
  485MOL0     C65384   9.171   4.051   1.704  0.9444  0.1138  0.5441
  485MOL0    Cl65385   9.093   3.898   1.748 -0.5455 -0.4995 -0.0720
  485MOL0     C65386   8.756   4.459   2.486 -0.2166  0.3445 -0.0408
  485MOL0     C65387   8.635   4.390   2.481  0.1838  0.1415 -0.1171
  485MOL0     O65388   8.358   4.293   2.558  0.1749 -0.0971  0.3236
  485MOL0     C65389   8.147   4.379   2.283  0.3262  0.0289  0.5368
  485MOL0     C65390   8.016   4.399   2.245  0.5749  0.2044  0.2032
  485MOL0     N65391   7.458   4.666   1.761 -0.8764  0.3781  0.8375
  485MOL0     N65392   7.361   4.689   1.685 -0.9568 -0.1467 -0.3649
  485MOL0     C65393   7.935   4.897   0.923 -0.0693  0.2964  0.4767
  485MOL0     C65394   7.994   4.781   0.882 -0.1738  1.8136  0.1401
  485MOL0     C65395   8.161   4.324   0.884  0.0840 -0.0036  0.4659
  485MOL0     C65396   8.132   4.330   0.749  0.3086  0.5930  0.2577
  485MOL0     C65397   8.135   4.209   0.674  0.2785 -0.2289  0.2641
  485MOL0     C65398   8.183   4.088   0.737 -0.5491  0.4958 -0.5237
  485MOL0     O65399   8.193   3.971   0.658 -0.2979 -0.7944  0.0956
  485MOL0     C65400   8.299   3.874   0.667  0.4350 -0.6758  0.1119
  485MOL0     C65401   8.424   3.911   0.585  0.6779  0.4277  0.3447
  485MOL0     C65402   8.392   3.921   0.436  0.6890  0.5932  0.4871
  485MOL0     C65403   8.331   3.791   0.377  0.5049 -0.5334 -0.6243
  485MOL0     C65404   8.429   3.695   0.391 -1.0812  0.2939  0.4639
  485MOL0     C65405   8.511   3.611   0.413  0.5440  0.0217  0.6522
  485MOL0     C65406   8.218   4.093   0.874  0.4247 -0.2988  0.5753
  485MOL0     C65407   8.211   4.210   0.944  0.0808 -1.1341 -0.5430
  485MOL0     H65408   8.017   4.616   1.181 -3.7008 -1.0376 -0.8676
  485MOL0     H65409   7.926   4.827   1.259  1.4565 -0.2585 -0.4835
  485MOL0     H65410   7.828   5.003   1.304 -1.3129 -3.1208 -0.7679
  485MOL0     H65411   7.768   5.158   1.235  0.2110 -0.2703  1.6741
  485MOL0     H65412   7.589   5.057   1.109 -0.8726  1.7472  2.9095
  485MOL0     H65413   7.662   4.901   1.099  0.1234 -1.4872  0.3879
  485MOL0     H65414   7.626   4.841   1.322  1.3606  1.2691 -2.6161
  485MOL0     H65415   7.560   4.999   1.365 -3.7337 -1.8847  1.1078
  485MOL0     H65416   7.366   4.945   1.215 -0.6483 -1.8146 -4.3845
  485MOL0     H65417   7.445   4.821   1.142 -1.3080  0.9903 -0.6785
  485MOL0     H65418   7.398   4.827   1.447  2.1882  0.2063  0.1536
  485MOL0     H65419   7.264   4.766   1.337  0.1638 -1.6541  0.5319
  485MOL0     H65420   7.498   4.627   1.276  0.5842  0.2400 -0.2809
  485MOL0     H65421   7.509   4.639   1.448 -1.8714 -1.9433  1.5151
  485MOL0     H65422   7.260   4.515   1.310 -0.0475 -0.9289 -0.7028
  485MOL0     H65423   7.400   4.441   1.401  0.7452  0.6662  1.0838
  485MOL0     H65424   7.208   4.438   1.531  1.2048 -0.0666  2.0352
  485MOL0     H65425   7.165   4.608   1.502 -1.1623  0.5392  0.8298
  485MOL0     H65426   7.404   4.358   1.668 -0.5582 -0.3449  2.2782
  485MOL0     H65427   7.566   4.362   1.871 -1.3071  0.0672 -1.8477
  485MOL0     H65428   7.683   4.479   1.802 -2.0556  4.1950 -1.3670
  485MOL0     H65429   7.520   4.559   2.046  0.5594  1.3601  0.5885
  485MOL0     H65430   7.663   4.627   1.989 -1.0800  1.1455 -1.1857
  485MOL0     H65431   7.778   4.392   2.018  0.3071  4.0106 -0.6587
  485MOL0     H65432   7.633   4.337   2.095 -0.3799  0.4139 -1.6912
  485MOL0     H65433   7.666   4.536   2.267 -0.4163  0.3544 -0.0486
  485MOL0     H65434   7.827   4.550   2.187  0.6603 -1.3590  0.7699
  485MOL0     H65435   7.867   4.309   2.538 -0.5467  2.0035  0.4593
  485MOL0     H65436   8.016   4.262   2.714  1.8500  2.1860  3.6133
  485MOL0     H65437   8.174   4.201   2.676 -1.3448 -0.2068  0.7773
  485MOL0     H65438   8.143   4.370   2.720 -1.4531 -0.1401  3.6972
  485MOL0     H65439   8.556   4.427   2.151  1.3707  0.8236 -0.8532
  485MOL0     H65440   8.788   4.509   2.154 -4.0700 -4.5791 -3.7138
  485MOL0     H65441   8.997   4.506   2.180  2.0487 -0.0047 -0.4769
  485MOL0     H65442   9.084   4.625   2.276 -0.6458  1.3303  1.5901
  485MOL0     H65443   9.197   4.428   2.389  0.0354 -0.4209 -0.2448
  485MOL0     H65444   9.102   4.315   2.296 -1.3146  0.7722  2.7690
  485MOL0     H65445   9.351   4.370   2.207  1.5658 -0.2451 -4.0980
  485MOL0     H65446   9.268   4.516   2.134 -1.3099 -0.6366 -0.8167
  485MOL0     H65447   9.164   4.239   2.080 -0.0703 -0.1594 -2.2732
  485MOL0     H65448   9.113   4.381   2.015 -0.2939  0.2880 -1.9315
  485MOL0     H65449   9.403   4.271   1.976  0.7619  0.8670  0.5053
  485MOL0     H65450   9.351   4.428   1.901 -0.4840  1.4068  3.0530
  485MOL0     H65451   9.226   4.340   1.757  0.0724  1.0710  1.9347
  485MOL0     H65452   9.370   4.232   1.757 -0.3776  0.9022  0.0478
  485MOL0     H65453   9.077   4.184   1.844  1.2218  5.1152 -0.3107
  485MOL0     H65454   9.207   4.093   1.919  1.9155 -0.5709 -1.6980
  485MOL0     H65455   9.269   4.029   1.661  2.3104 -0.3844  3.6693
  485MOL0     H65456   9.102   4.104   1.637  0.8482 -1.9515 -1.1094
  485MOL0     H65457   8.827   4.465   2.567  5.1195  1.3656 -4.2492
  485MOL0     H65458   8.596   4.348   2.573 -0.2881 -2.5826 -1.4630
  485MOL0     H65459   8.222   4.419   2.215 -2.7950  2.1010 -2.0078
  485MOL0     H65460   7.993   4.421   2.142 -0.1904 -2.0185 -0.1516
  485MOL0     H65461   7.888   4.968   0.856 -0.6826 -0.4547  0.1046
  485MOL0     H65462   7.997   4.751   0.777  2.5937  3.2422 -0.2852
  485MOL0     H65463   8.081   4.418   0.711 -1.4195 -1.5842 -2.9369
  485MOL0     H65464   8.112   4.215   0.568 -0.9931  1.3056  0.5861
  485MOL0     H65465   8.339   3.875   0.769  3.3780  1.6276 -0.8970
  485MOL0     H65466   8.256   3.780   0.634 -0.5451  0.4662 -2.0450
  485MOL0     H65467   8.491   3.827   0.602  2.5491  1.7574 -0.1393
  485MOL0     H65468   8.485   3.995   0.617  0.3023  0.9117 -0.1778
  485MOL0     H65469   8.490   3.937   0.390  1.4600 -0.7086  1.6257
  485MOL0     H65470   8.339   4.013   0.409 -1.0510 -0.3792  0.4849
  485MOL0     H65471   8.299   3.808   0.274 -0.7447 -2.3831 -0.5882
  485MOL0     H65472   8.243   3.762   0.435  0.8337 -2.1190 -0.8882
  485MOL0     H65473   8.565   3.520   0.429  0.2875 -0.3247 -0.3422
  485MOL0     H65474   8.243   4.000   0.925 -0.9864 -1.4410 -0.7034
  485MOL0     H65475   8.213   4.191   1.051 -0.8235 -1.5125 -0.5910
  486MOL0     O65476   5.496   2.412   7.867 -0.5904 -0.0557 -0.3900
  486MOL0     C65477   5.482   2.523   7.928  0.0424  1.2028  0.0679
  486MOL0     O65478   5.446   2.639   7.865  0.3073  0.5727  0.4199
  486MOL0     C65479   5.367   2.636   7.751  0.5971 -0.0913  0.9103
  486MOL0     C65480   5.232   2.673   7.777 -0.5948 -0.5727  0.8005
  486MOL0     C65481   5.137   2.663   7.667  0.5348 -0.4003  0.1633
  486MOL0     C65482   5.173   2.616   7.534  1.8216 -0.7435 -1.1216
  486MOL0     O65483   5.068   2.610   7.446  0.8573 -0.3879  0.1390
  486MOL0     C65484   5.083   2.690   7.329 -0.0720 -0.0152 -0.5249
  486MOL0     C65485   5.046   2.610   7.200  0.7719 -1.1383 -0.1077
  486MOL0     C65486   5.160   2.518   7.160 -0.2270 -0.2509  0.1666
  486MOL0     C65487   5.112   2.436   7.036  0.2252  0.7377  0.4795
  486MOL0     C65488   5.172   2.493   6.908  0.8296  0.1956 -0.1044
  486MOL0     C65489   5.140   2.403   6.790 -0.9114 -0.1856 -0.3770
  486MOL0     C65490   5.155   2.462   6.658 -0.4417 -0.2306 -0.2500
  486MOL0     C65491   5.150   2.341   6.560  0.2696  0.2051  0.5675
  486MOL0     N65492   5.144   2.399   6.431  0.2933 -0.3862  0.7964
  486MOL0     C65493   5.031   2.441   6.363 -0.0459 -0.6403 -0.9619
  486MOL0     C65494   5.072   2.503   6.251 -0.0952 -0.0779 -0.5139
  486MOL0     C65495   4.975   2.578   6.170 -0.0453  0.2009 -0.4612
  486MOL0     C65496   4.918   2.486   6.069  0.7196  0.1818 -0.4197
  486MOL0     C65497   4.838   2.568   5.965  0.0642  0.4565 -0.3758
  486MOL0     C65498   4.762   2.473   5.882  0.5198  0.0359 -1.1179
  486MOL0     O65499   4.839   2.378   5.808  0.6331  0.0182  0.5458
  486MOL0     C65500   4.807   2.348   5.676  0.1718  0.3463  0.0650
  486MOL0     C65501   4.753   2.434   5.581  1.5333  0.5974 -0.6094
  486MOL0     C65502   4.745   2.393   5.447  1.1267 -0.1702  0.0668
  486MOL0     C65503   4.708   2.497   5.360 -0.2628 -0.1902  0.1134
  486MOL0     C65504   4.776   2.267   5.411 -0.2464  0.1480 -0.2703
  486MOL0     C65505   4.780   2.229   5.270  0.6996 -0.0092 -0.2005
  486MOL0     O65506   4.683   2.268   5.185  0.3446  0.3561 -0.2225
  486MOL0     C65507   4.714   2.247   5.052  0.4019 -0.9942  1.1745
  486MOL0     C65508   4.741   2.124   4.992 -0.0034  0.4029 -0.4336
  486MOL0     C65509   4.771   2.124   4.853  0.1466  0.9886 -0.3476
  486MOL0     C65510   4.764   2.227   4.760 -1.9458  0.6389  0.6341
  486MOL0     O65511   4.805   2.224   4.630 -0.0070 -0.6837  0.6346
  486MOL0     C65512   4.840   2.108   4.557  0.5404  0.9000  0.0586
  486MOL0     C65513   4.787   2.100   4.424  0.7651  0.0742 -0.8019
  486MOL0     C65514   4.812   2.226   4.344 -0.1821 -0.4772  0.7226
  486MOL0     C65515   4.964   2.239   4.327 -0.4517  1.6568 -0.0785
  486MOL0     C65516   5.005   2.323   4.209  0.1250  0.0003 -0.2423
  486MOL0     C65517   4.929   2.455   4.196 -0.5463  0.7431 -0.7606
  486MOL0     C65518   4.956   2.549   4.310  0.1689  0.2660 -1.1242
  486MOL0     C65519   4.857   2.666   4.315 -0.2929  0.0269  0.4378
  486MOL0    Cl65520   4.820   2.703   4.482  0.3089  0.3031 -0.4999
  486MOL0     C65521   4.732   2.343   4.830 -0.0189 -0.8338  0.3762
  486MOL0     C65522   4.700   2.354   4.961 -1.5405  0.3317  0.3128
  486MOL0     O65523   4.876   2.153   5.237  0.8285  0.5292 -0.1457
  486MOL0     C65524   4.823   2.176   5.504 -0.3971 -0.5780  0.3150
  486MOL0     C65525   4.834   2.211   5.633  0.0410  0.1410 -1.0600
  486MOL0     N65526   5.210   2.516   6.248  0.1212  0.7531  0.4479
  486MOL0     N65527   5.250   2.445   6.350  0.1908  0.3684 -0.0117
  486MOL0     C65528   5.309   2.601   7.508  0.3081 -0.1207  0.9800
  486MOL0     C65529   5.401   2.604   7.614  0.8698  0.8646 -0.1458
  486MOL0     C65530   5.527   2.530   8.058  0.0486  0.2241 -0.9071
  486MOL0     C65531   5.504   2.645   8.140  0.2244  1.1567  1.4163
  486MOL0     C65532   5.553   2.655   8.275  0.4556 -0.6224  0.7971
  486MOL0     C65533   5.622   2.552   8.339  0.0198 -0.5052 -0.4703
  486MOL0     O65534   5.664   2.549   8.470  0.3529 -0.1276  0.4869
  486MOL0     C65535   5.614   2.447   8.555  0.4926 -0.4282  0.6317
  486MOL0     C65536   5.709   2.361   8.630  0.4363  0.2249 -0.3661
  486MOL0     C65537   5.835   2.437   8.690 -0.2663 -0.5549  0.2366
  486MOL0     C65538   5.901   2.350   8.792 -0.4487  0.0246  0.0884
  486MOL0     C65539   5.844   2.378   8.929  1.0352  1.0322  0.3312
  486MOL0     C65540   5.783   2.400   9.031  0.5537 -0.2259 -0.8007
  486MOL0     C65541   5.652   2.447   8.255  0.2542  1.2524  0.6842
  486MOL0     C65542   5.593   2.425   8.117 -0.8319  0.4784 -0.0896
  486MOL0     H65543   5.202   2.715   7.872  1.2984  1.9799  0.3889
  486MOL0     H65544   5.032   2.686   7.685  0.8421  1.3816 -0.1202
  486MOL0     H65545   5.009   2.768   7.349  1.5294  1.2778  0.6664
  486MOL0     H65546   5.183   2.730   7.313 -0.8560  1.1588 -2.8691
  486MOL0     H65547   4.950   2.561   7.220  0.7581 -0.6336  1.1954
  486MOL0     H65548   5.033   2.697   7.136 -0.2245 -1.0027  0.2487
  486MOL0     H65549   5.246   2.584   7.146  0.8428 -1.5298  0.6153
  486MOL0     H65550   5.197   2.449   7.236  4.8324  1.0883 -0.7434
  486MOL0     H65551   5.139   2.332   7.056 -3.8250 -0.6429 -0.1893
  486MOL0     H65552   5.003   2.425   7.024  0.3577 -1.5295  0.9631
  486MOL0     H65553   5.118   2.586   6.890 -1.6318 -1.3330 -1.1685
  486MOL0     H65554   5.279   2.514   6.916  0.4570  2.2368 -0.0031
  486MOL0     H65555   5.208   2.317   6.786  3.7866  3.1610 -1.4911
  486MOL0     H65556   5.036   2.372   6.802 -1.1723  0.7565 -0.1264
  486MOL0     H65557   5.073   2.534   6.649  0.1992  0.4956 -0.4095
  486MOL0     H65558   5.252   2.511   6.648 -0.6439 -0.0527 -1.5908
  486MOL0     H65559   5.065   2.274   6.580 -1.0130  1.8594  0.9567
  486MOL0     H65560   5.241   2.280   6.569 -0.6844 -1.8074 -1.9922
  486MOL0     H65561   4.930   2.441   6.403 -0.1021  0.7372 -1.0359
  486MOL0     H65562   4.895   2.613   6.236 -1.4194 -1.9268 -0.9090
  486MOL0     H65563   5.025   2.657   6.113 -0.5917  0.6358 -0.3495
  486MOL0     H65564   4.855   2.416   6.124  3.2089 -1.4152  0.6243
  486MOL0     H65565   4.999   2.432   6.020 -0.3673  1.4268 -3.8652
  486MOL0     H65566   4.897   2.635   5.902  0.0920  0.6954 -0.1011
  486MOL0     H65567   4.766   2.627   6.023  0.5033 -0.3425  1.0221
  486MOL0     H65568   4.719   2.545   5.812  1.2703 -1.4525 -3.2102
  486MOL0     H65569   4.677   2.420   5.926  0.8775  1.6968  1.8262
  486MOL0     H65570   4.716   2.533   5.605  0.4471 -0.0559  0.4885
  486MOL0     H65571   4.608   2.488   5.316  0.8607  2.3202 -3.3599
  486MOL0     H65572   4.717   2.594   5.408  0.8072 -0.7840  1.1687
  486MOL0     H65573   4.776   2.494   5.274  2.4602 -0.6636  2.1771
  486MOL0     H65574   4.736   2.029   5.044  1.3971  0.4933 -0.1099
  486MOL0     H65575   4.795   2.027   4.809  2.1544  1.1847  0.1986
  486MOL0     H65576   4.949   2.100   4.549  0.7523  0.6804  2.6208
  486MOL0     H65577   4.808   2.016   4.606 -0.9658  0.6253 -1.3294
  486MOL0     H65578   4.832   2.014   4.374  1.4274 -1.3204  2.0262
  486MOL0     H65579   4.683   2.080   4.453  1.2200  0.6303  1.3476
  486MOL0     H65580   4.758   2.312   4.384 -1.6183 -1.7412  1.5996
  486MOL0     H65581   4.769   2.203   4.246  0.2829  0.9090  0.1694
  486MOL0     H65582   5.018   2.270   4.417 -1.7941 -1.3267  1.9272
  486MOL0     H65583   5.000   2.137   4.317 -0.0905  1.6669  0.9467
  486MOL0     H65584   4.998   2.276   4.110  1.9906  0.1683 -0.4918
  486MOL0     H65585   5.109   2.353   4.223  0.0998  1.0605 -1.9820
  486MOL0     H65586   4.940   2.504   4.099 -2.6388  1.6414 -0.5948
  486MOL0     H65587   4.821   2.438   4.195 -0.2960 -1.0461 -0.3255
  486MOL0     H65588   5.059   2.581   4.290 -0.5172  2.1582 -1.9384
  486MOL0     H65589   4.959   2.503   4.409 -3.2058  0.7281 -0.6699
  486MOL0     H65590   4.766   2.642   4.259  1.2096 -1.7320 -1.4226
  486MOL0     H65591   4.898   2.757   4.271 -4.6486  1.1373 -1.8717
  486MOL0     H65592   4.733   2.436   4.773 -0.6210 -1.7841 -1.2653
  486MOL0     H65593   4.674   2.450   5.006  1.3842  0.4706  1.9155
  486MOL0     H65594   4.856   2.076   5.478  0.9562 -0.1259  0.2124
  486MOL0     H65595   4.873   2.143   5.708 -0.5112  0.8786 -0.0751
  486MOL0     H65596   5.344   2.585   7.406  1.8357  2.5378  0.9978
  486MOL0     H65597   5.501   2.566   7.594  1.2189 -1.5924  4.8850
  486MOL0     H65598   5.450   2.721   8.085  1.4192 -0.5556 -2.5279
  486MOL0     H65599   5.521   2.748   8.320 -2.9169 -1.4221  0.3198
  486MOL0     H65600   5.559   2.510   8.625  2.3518  2.8080 -0.5476
  486MOL0     H65601   5.556   2.379   8.493  4.3511 -1.4787 -2.2553
  486MOL0     H65602   5.738   2.270   8.575 -1.6372  1.1820 -3.2796
  486MOL0     H65603   5.640   2.346   8.713 -1.9261  1.0817 -2.0835
  486MOL0     H65604   5.818   2.529   8.748 -1.3619  0.0308 -0.9516
  486MOL0     H65605   5.892   2.469   8.603 -1.1745 -1.2218 -0.6275
  486MOL0     H65606   6.010   2.357   8.799 -0.0543 -0.8745 -3.3015
  486MOL0     H65607   5.875   2.245   8.774  1.1294 -1.4533  4.8928
  486MOL0     H65608   5.729   2.396   9.123 -1.1595 -0.3977 -1.7674
  486MOL0     H65609   5.716   2.369   8.296 -0.7652  0.9946  1.8526
  486MOL0     H65610   5.630   2.336   8.067 -1.6098  1.3235 -2.2775
  487MOL0     O65611   7.766   0.602   0.656 -1.1050  0.6859 -0.3057
  487MOL0     C65612   7.755   0.664   0.546 -0.4162  0.1207  0.2575
  487MOL0     O65613   7.656   0.747   0.510 -0.1508 -0.6929 -1.2042
  487MOL0     C65614   7.554   0.774   0.596  0.7968 -0.9513  0.7249
  487MOL0     C65615   7.421   0.740   0.560 -0.5536  0.5298 -0.3149
  487MOL0     C65616   7.318   0.737   0.652  0.4311  0.0717  0.3399
  487MOL0     C65617   7.337   0.764   0.788  0.0880  0.0548 -0.3429
  487MOL0     O65618   7.231   0.749   0.876  0.2236  0.4581  0.1822
  487MOL0     C65619   7.178   0.862   0.946 -1.0351 -0.0429 -0.2608
  487MOL0     C65620   7.092   0.947   0.846 -0.1566  0.8582  0.1820
  487MOL0     C65621   6.986   1.032   0.911  0.4890 -0.2093  1.1895
  487MOL0     C65622   7.032   1.161   0.989  0.3258  0.3897 -0.3854
  487MOL0     C65623   6.921   1.231   1.069 -0.2090 -0.2400  0.0849
  487MOL0     C65624   6.989   1.360   1.124 -0.2583  0.3225 -0.3798
  487MOL0     C65625   6.887   1.464   1.176 -0.2658 -0.1149  1.2992
  487MOL0     C65626   6.955   1.557   1.273  0.4230 -0.5083  0.6519
  487MOL0     N65627   7.006   1.680   1.212  0.6415 -0.1807 -0.2918
  487MOL0     C65628   7.084   1.704   1.105  0.3443  0.7433  0.3661
  487MOL0     C65629   7.088   1.834   1.084  1.3311 -0.4550  0.4417
  487MOL0     C65630   7.174   1.912   0.984  0.9260 -0.5784 -0.8960
  487MOL0     C65631   7.214   1.832   0.850  0.0155  0.3022  0.6216
  487MOL0     C65632   7.230   1.931   0.734 -0.2550 -0.0569  1.1648
  487MOL0     C65633   7.272   1.880   0.588  0.2860  0.0435 -0.0783
  487MOL0     O65634   7.164   1.798   0.539 -0.0239  0.1221 -0.1606
  487MOL0     C65635   7.193   1.725   0.434  0.7013  1.0908 -0.4054
  487MOL0     C65636   7.091   1.658   0.367  0.4384  0.0267 -0.1692
  487MOL0     C65637   7.114   1.588   0.247 -0.6232  0.2502 -0.4281
  487MOL0     C65638   6.994   1.559   0.153  0.5196 -1.1932 -0.5097
  487MOL0     C65639   7.242   1.584   0.192 -0.0199  0.5992  0.3951
  487MOL0     C65640   7.279   1.518   0.068  0.6922  0.1979  0.5630
  487MOL0     O65641   7.229   1.581  -0.042  0.8110  0.5193 -0.7993
  487MOL0     C65642   7.209   1.515  -0.161  1.0134  0.5102 -0.1239
  487MOL0     C65643   7.196   1.583  -0.273  0.5282 -0.6719  0.0881
  487MOL0     C65644   7.193   1.525  -0.406  0.2259 -0.5903 -0.6008
  487MOL0     C65645   7.180   1.387  -0.412  0.2768 -0.4975  0.4847
  487MOL0     O65646   7.179   1.321  -0.531  0.6363  0.2752 -0.3492
  487MOL0     C65647   7.298   1.255  -0.570 -1.1298  0.2950  0.4335
  487MOL0     C65648   7.277   1.112  -0.620 -0.5570 -0.7905 -0.1148
  487MOL0     C65649   7.221   1.014  -0.516  0.6143  0.4460 -0.3049
  487MOL0     C65650   7.206   0.874  -0.587  0.4533  0.0653  0.2428
  487MOL0     C65651   7.170   0.768  -0.483  0.8112  0.8239 -0.6598
  487MOL0     C65652   7.215   0.621  -0.530  1.2245 -1.0901 -0.8338
  487MOL0     C65653   7.141   0.523  -0.451 -0.4134  0.3106 -0.4010
  487MOL0     C65654   7.175   0.374  -0.473  0.0162 -0.4763  0.7878
  487MOL0    Cl65655   7.336   0.339  -0.409 -0.1389  0.2418  0.2067
  487MOL0     C65656   7.159   1.311  -0.303  0.2069  0.0458 -0.3418
  487MOL0     C65657   7.176   1.379  -0.172  0.2006  0.0865  0.6633
  487MOL0     O65658   7.357   1.423   0.060  0.1412  0.5260 -0.4458
  487MOL0     C65659   7.343   1.644   0.269 -0.2786  0.3664  0.8317
  487MOL0     C65660   7.326   1.703   0.395  0.1690  0.6761 -0.1736
  487MOL0     N65661   7.010   1.894   1.177 -0.0663 -0.5357 -0.5917
  487MOL0     N65662   6.957   1.806   1.253  0.2819 -0.2942  0.0466
  487MOL0     C65663   7.468   0.808   0.824 -0.5554 -0.7241  0.9430
  487MOL0     C65664   7.571   0.805   0.726 -0.7627 -0.1774  0.1965
  487MOL0     C65665   7.879   0.676   0.472 -0.1749  0.1723  0.4735
  487MOL0     C65666   8.003   0.641   0.525  0.1244 -0.4432  0.6681
  487MOL0     C65667   8.121   0.670   0.451 -0.0785 -0.0738 -0.4953
  487MOL0     C65668   8.126   0.738   0.329 -0.3659  0.8925 -0.1735
  487MOL0     O65669   8.230   0.772   0.254 -0.4277 -0.2492  0.5815
  487MOL0     C65670   8.366   0.727   0.301  0.2902 -0.4010 -0.7554
  487MOL0     C65671   8.420   0.651   0.187 -0.8167 -0.0567 -0.8403
  487MOL0     C65672   8.553   0.577   0.229  0.8651  1.3589 -0.3937
  487MOL0     C65673   8.591   0.450   0.151 -0.6196 -1.6407  0.0248
  487MOL0     C65674   8.608   0.478   0.007  1.5903  0.3436 -0.3154
  487MOL0     C65675   8.613   0.496  -0.115  0.0469 -0.1964 -0.3416
  487MOL0     C65676   8.000   0.757   0.276  0.8224 -0.4191 -0.1688
  487MOL0     C65677   7.878   0.739   0.343 -0.2685  0.2832 -0.4403
  487MOL0     H65678   7.413   0.695   0.461  1.4632 -2.5562  0.7709
  487MOL0     H65679   7.219   0.701   0.626  1.3585 -2.0860 -0.4562
  487MOL0     H65680   7.104   0.819   1.014 -1.2426 -1.3961 -1.3004
  487MOL0     H65681   7.246   0.930   0.999  1.1008  0.7560 -3.6906
  487MOL0     H65682   7.159   1.017   0.797  0.9962  0.0975  0.6300
  487MOL0     H65683   7.048   0.875   0.777  0.1463  0.1072  0.7435
  487MOL0     H65684   6.908   1.053   0.837  0.3529 -0.4165  1.2711
  487MOL0     H65685   6.941   0.974   0.992  0.2558 -0.8816  0.5998
  487MOL0     H65686   7.121   1.145   1.050 -1.0231 -0.1067  1.5509
  487MOL0     H65687   7.078   1.226   0.914 -2.3574  2.0978 -0.7215
  487MOL0     H65688   6.833   1.258   1.009 -1.7753  1.1352  2.7772
  487MOL0     H65689   6.887   1.172   1.155  0.9395 -0.2701  0.5330
  487MOL0     H65690   7.068   1.335   1.196 -0.0901 -1.7106 -1.1971
  487MOL0     H65691   7.034   1.408   1.036 -0.2737 -0.0030 -0.5717
  487MOL0     H65692   6.837   1.519   1.096  2.5499  0.6211 -0.0868
  487MOL0     H65693   6.820   1.395   1.228  1.5640 -3.3337 -0.3236
  487MOL0     H65694   7.037   1.519   1.335  1.8329 -2.4551 -2.1774
  487MOL0     H65695   6.879   1.587   1.347  1.2591  0.4245  1.1623
  487MOL0     H65696   7.132   1.625   1.049  0.6735 -0.9842  2.9045
  487MOL0     H65697   7.109   1.995   0.955 -2.8385 -2.3249  1.6267
  487MOL0     H65698   7.260   1.956   1.036  1.2308 -0.7962 -1.2182
  487MOL0     H65699   7.149   1.745   0.838  0.3230 -0.3879  3.4120
  487MOL0     H65700   7.311   1.784   0.864  0.4076  0.4672 -1.2579
  487MOL0     H65701   7.302   2.005   0.770  0.3959  0.8657 -1.7748
  487MOL0     H65702   7.128   1.967   0.719 -0.6893 -1.6865 -0.0643
  487MOL0     H65703   7.368   1.828   0.600  1.2009  1.5402 -0.6439
  487MOL0     H65704   7.276   1.972   0.529 -0.4936  1.0683  1.4319
  487MOL0     H65705   6.989   1.668   0.403  1.4025  1.3050  2.4245
  487MOL0     H65706   6.894   1.590   0.184  0.1128 -0.8179 -2.0931
  487MOL0     H65707   7.016   1.608   0.057 -0.7991 -1.1211 -0.7950
  487MOL0     H65708   6.983   1.453   0.130 -2.3476 -0.6827 -2.0109
  487MOL0     H65709   7.204   1.689  -0.254  1.3865 -1.0027  1.8173
  487MOL0     H65710   7.211   1.593  -0.489 -1.3359 -0.1282 -0.5839
  487MOL0     H65711   7.345   1.300  -0.657  0.1937  0.9251  1.4319
  487MOL0     H65712   7.375   1.252  -0.492 -0.6617  1.0112 -0.0004
  487MOL0     H65713   7.222   1.118  -0.715  2.2352 -1.8716 -1.9256
  487MOL0     H65714   7.380   1.083  -0.642  1.4351  3.6535  2.1028
  487MOL0     H65715   7.127   1.042  -0.467  0.8613 -0.0309  0.4503
  487MOL0     H65716   7.301   1.005  -0.442 -0.4998  1.4559  1.1005
  487MOL0     H65717   7.139   0.874  -0.673  4.9497 -3.4461 -3.8097
  487MOL0     H65718   7.296   0.849  -0.645 -0.2719  1.8455 -1.7701
  487MOL0     H65719   7.061   0.778  -0.473  0.7049  0.8616 -1.7003
  487MOL0     H65720   7.206   0.792  -0.383  0.9664 -0.2406 -0.4496
  487MOL0     H65721   7.190   0.610  -0.635  0.2914 -0.9275 -0.6353
  487MOL0     H65722   7.324   0.615  -0.520  1.4384  0.5219 -1.9000
  487MOL0     H65723   7.036   0.538  -0.477 -0.4808 -0.6297 -0.6957
  487MOL0     H65724   7.160   0.545  -0.346  0.3552 -1.1973 -0.2007
  487MOL0     H65725   7.158   0.353  -0.579 -1.9216  2.8134  0.3043
  487MOL0     H65726   7.110   0.304  -0.420 -0.9051 -1.3686 -1.4024
  487MOL0     H65727   7.142   1.204  -0.302  0.6534 -0.0507  1.9815
  487MOL0     H65728   7.177   1.326  -0.078  0.4340  0.9141  1.1379
  487MOL0     H65729   7.446   1.646   0.234 -0.1165 -2.4897  0.9619
  487MOL0     H65730   7.427   1.713   0.436  1.4737 -1.4097 -2.6005
  487MOL0     H65731   7.506   0.831   0.923  0.4015 -1.0530  0.6723
  487MOL0     H65732   7.670   0.827   0.764  0.4450 -1.1397 -2.1633
  487MOL0     H65733   8.004   0.587   0.620  2.4478 -0.3342  0.7710
  487MOL0     H65734   8.218   0.662   0.500  0.6627  3.4073 -1.0874
  487MOL0     H65735   8.439   0.801   0.335  0.1393  0.4991 -2.2990
  487MOL0     H65736   8.358   0.648   0.376  0.3819  0.1212 -0.1875
  487MOL0     H65737   8.459   0.722   0.114  3.8544  0.0757  1.4254
  487MOL0     H65738   8.344   0.580   0.155  0.6203 -1.6957 -0.7709
  487MOL0     H65739   8.533   0.551   0.334  1.4092 -3.3179 -1.2545
  487MOL0     H65740   8.634   0.649   0.213  0.0538  1.6702 -3.9108
  487MOL0     H65741   8.509   0.377   0.155 -3.4263  1.2091 -1.3661
  487MOL0     H65742   8.685   0.411   0.191 -0.3180  0.5294  1.5444
  487MOL0     H65743   8.614   0.506  -0.221 -0.7751 -1.8394 -0.5415
  487MOL0     H65744   8.004   0.798   0.176 -2.3445  1.3439  0.2804
  487MOL0     H65745   7.780   0.761   0.300 -1.2915  0.0135  1.6300
  488MOL0     O65746   4.709   8.184   0.725 -0.7421 -0.1900 -0.2095
  488MOL0     C65747   4.819   8.178   0.673 -0.4012  0.4367  0.3204
  488MOL0     O65748   4.875   8.279   0.604 -0.5802 -0.1474  0.3994
  488MOL0     C65749   4.843   8.410   0.625 -0.3263  0.5474  0.0804
  488MOL0     C65750   4.800   8.462   0.750  0.8919  0.4452 -0.2641
  488MOL0     C65751   4.750   8.591   0.753 -0.4512 -0.3302  0.6040
  488MOL0     C65752   4.750   8.684   0.646  0.0339 -0.0347 -0.9885
  488MOL0     O65753   4.701   8.811   0.647  0.0780  0.7997 -0.3673
  488MOL0     C65754   4.709   8.877   0.779  0.5470  0.5045  0.1843
  488MOL0     C65755   4.567   8.887   0.845 -0.0344  0.6511  0.2485
  488MOL0     C65756   4.573   8.883   1.001  0.8666  0.1710  0.3386
  488MOL0     C65757   4.430   8.876   1.063  0.2475  0.3204 -0.9707
  488MOL0     C65758   4.351   9.009   1.077  0.2221 -0.1838 -0.4511
  488MOL0     C65759   4.217   8.997   1.163 -0.3664  0.5564  1.2095
  488MOL0     C65760   4.136   9.122   1.154  0.4352  0.7114 -0.3827
  488MOL0     C65761   4.041   9.118   1.035 -0.4007  1.0046  0.2135
  488MOL0     N65762   3.949   9.223   1.035  0.3958 -0.2421 -0.0879
  488MOL0     C65763   3.935   9.316   0.939 -0.1816  0.7706 -0.6838
  488MOL0     C65764   3.815   9.370   0.959 -0.7511  0.8938 -0.7468
  488MOL0     C65765   3.763   9.476   0.880 -0.2971  0.1192 -0.0074
  488MOL0     C65766   3.855   9.598   0.875 -0.4269 -0.4209  0.6235
  488MOL0     C65767   3.867   9.691   0.994 -0.8108  0.3936  0.3987
  488MOL0     C65768   3.932   9.621   1.117  0.9476 -0.2056 -0.3448
  488MOL0     O65769   4.069   9.597   1.081 -0.1566  0.9116  1.1349
  488MOL0     C65770   4.149   9.513   1.156  0.1247  0.1721 -0.0639
  488MOL0     C65771   4.116   9.465   1.285  0.7896 -0.6152 -0.1458
  488MOL0     C65772   4.209   9.400   1.357  0.0603  1.0703 -0.2580
  488MOL0     C65773   4.162   9.336   1.489 -0.7312 -0.1129  0.1767
  488MOL0     C65774   4.339   9.375   1.313  0.7179 -0.6539  1.0950
  488MOL0     C65775   4.459   9.321   1.386  0.1563  0.4498 -0.4087
  488MOL0     O65776   4.552   9.246   1.316  0.3757 -0.2399 -0.7431
  488MOL0     C65777   4.644   9.166   1.376 -1.2029  0.5848 -0.0096
  488MOL0     C65778   4.781   9.193   1.357 -0.2126 -0.1787  0.3846
  488MOL0     C65779   4.875   9.144   1.445  0.4661  0.8777 -0.7454
  488MOL0     C65780   4.846   9.048   1.543  0.1794  0.3360 -0.0231
  488MOL0     O65781   4.942   8.986   1.625  0.1696 -0.6888 -0.2905
  488MOL0     C65782   5.080   9.034   1.614  0.2359 -0.1535 -0.5531
  488MOL0     C65783   5.085   9.162   1.713 -0.6326 -0.1827 -0.2491
  488MOL0     C65784   5.209   9.242   1.677  0.4206  0.5374 -0.6636
  488MOL0     C65785   5.177   9.356   1.582 -0.0943 -0.1696  0.6186
  488MOL0     C65786   5.278   9.476   1.594  0.3306 -0.3059  0.0233
  488MOL0     C65787   5.416   9.428   1.532  0.1526 -0.6400  0.7868
  488MOL0     C65788   5.405   9.404   1.380 -0.4319  0.0816  0.9609
  488MOL0     C65789   5.547   9.378   1.306 -0.1693 -0.4251 -0.6562
  488MOL0    Cl65790   5.517   9.357   1.135 -0.0901 -0.0477  0.1416
  488MOL0     C65791   4.706   9.006   1.543 -0.5952 -0.0687  0.2661
  488MOL0     C65792   4.610   9.061   1.459 -0.1438 -0.7369 -0.1461
  488MOL0     O65793   4.469   9.358   1.505  0.2978  0.2035  0.0171
  488MOL0     C65794   4.360   9.397   1.177 -0.8602 -0.2704  0.9116
  488MOL0     C65795   4.274   9.479   1.103  0.0241  0.6599 -0.9327
  488MOL0     N65796   3.754   9.307   1.059 -0.2900 -0.1937  0.0595
  488MOL0     N65797   3.841   9.218   1.111  0.2324 -0.8074  1.0107
  488MOL0     C65798   4.803   8.636   0.525  0.3809  0.8780  0.4599
  488MOL0     C65799   4.854   8.498   0.520 -0.2702  0.8194 -1.1212
  488MOL0     C65800   4.896   8.054   0.668  0.8801  0.7465 -0.0095
  488MOL0     C65801   4.839   7.939   0.720  0.4121  0.5871 -0.9037
  488MOL0     C65802   4.901   7.810   0.692  0.1114 -0.6288 -1.4933
  488MOL0     C65803   5.014   7.807   0.615  0.3643  0.0027  0.7492
  488MOL0     O65804   5.075   7.689   0.573 -0.1300 -0.1098 -0.6594
  488MOL0     C65805   4.996   7.568   0.556  0.4571 -0.2526 -0.6329
  488MOL0     C65806   5.085   7.471   0.478  1.0393 -0.3135 -0.6423
  488MOL0     C65807   5.004   7.357   0.409  0.9727  0.1743  0.1320
  488MOL0     C65808   4.915   7.401   0.293  0.9632  0.2704  0.7390
  488MOL0     C65809   5.000   7.414   0.178 -0.4920  0.6029 -0.0741
  488MOL0     C65810   5.083   7.429   0.091 -0.1290  0.0990 -0.8742
  488MOL0     C65811   5.062   7.919   0.563  0.7916  0.4350  0.5088
  488MOL0     C65812   5.010   8.040   0.586 -0.0755 -0.1024 -0.5462
  488MOL0     H65813   4.794   8.397   0.837 -1.5255  0.4102 -0.3901
  488MOL0     H65814   4.704   8.603   0.851 -1.5000 -5.7056  1.0811
  488MOL0     H65815   4.783   8.834   0.847  1.9734 -0.6431 -1.9897
  488MOL0     H65816   4.736   8.982   0.762  0.5677  0.1990 -2.0325
  488MOL0     H65817   4.502   8.968   0.812  2.1973  2.3256 -0.2936
  488MOL0     H65818   4.523   8.795   0.805  0.4885  0.3638  0.3305
  488MOL0     H65819   4.617   8.788   1.032  1.0603 -0.2701 -1.2226
  488MOL0     H65820   4.623   8.972   1.042  0.9656 -0.2604  1.1689
  488MOL0     H65821   4.369   8.805   1.007 -1.3037 -0.5952  1.6480
  488MOL0     H65822   4.440   8.833   1.164 -2.1844  0.5558 -0.5524
  488MOL0     H65823   4.417   9.085   1.121  0.4370  0.9545 -2.6139
  488MOL0     H65824   4.328   9.045   0.976  1.0875 -1.0346 -0.9633
  488MOL0     H65825   4.164   8.912   1.120 -0.9848  0.1326  2.7344
  488MOL0     H65826   4.254   8.988   1.266  2.3572  1.4877  0.4107
  488MOL0     H65827   4.083   9.134   1.248 -2.7090 -2.6006 -1.5130
  488MOL0     H65828   4.206   9.207   1.154  0.5651  0.7267  2.9793
  488MOL0     H65829   3.986   9.023   1.040 -0.6819  1.2087  1.3933
  488MOL0     H65830   4.102   9.118   0.945  0.6136 -1.6600  0.7886
  488MOL0     H65831   4.006   9.341   0.861 -1.1992 -3.5359 -3.3286
  488MOL0     H65832   3.743   9.449   0.776 -2.0834  3.4836 -0.7071
  488MOL0     H65833   3.662   9.497   0.917 -0.1234  0.5497  0.2332
  488MOL0     H65834   3.806   9.663   0.801  1.0120  1.5799  1.3270
  488MOL0     H65835   3.950   9.565   0.831 -0.5332 -2.2739  1.7264
  488MOL0     H65836   3.772   9.735   1.026 -1.9696 -0.3138 -1.8355
  488MOL0     H65837   3.918   9.779   0.955 -2.5468  0.9544 -0.7483
  488MOL0     H65838   3.871   9.535   1.147  0.0860 -0.0893 -1.6635
  488MOL0     H65839   3.917   9.688   1.202 -0.7376  1.2752 -1.7271
  488MOL0     H65840   4.019   9.475   1.333 -0.5302 -3.6427 -1.9146
  488MOL0     H65841   4.062   9.294   1.473  0.9054 -4.3377 -0.1964
  488MOL0     H65842   4.222   9.247   1.512 -1.9882 -0.5639  1.8990
  488MOL0     H65843   4.162   9.411   1.569 -0.5639  1.3513 -1.1519
  488MOL0     H65844   4.813   9.269   1.287  1.6822 -0.2826  1.0668
  488MOL0     H65845   4.970   9.194   1.425  0.0561  1.1580 -2.0966
  488MOL0     H65846   5.156   8.961   1.644  0.0620 -0.9480 -1.9614
  488MOL0     H65847   5.108   9.053   1.510 -0.6256  1.5981 -0.4863
  488MOL0     H65848   4.995   9.224   1.705 -1.6522 -1.5613  0.2729
  488MOL0     H65849   5.082   9.127   1.816  1.1421  0.0446 -0.0835
  488MOL0     H65850   5.290   9.172   1.654  1.2250  0.4660  1.9410
  488MOL0     H65851   5.253   9.276   1.772  3.7651 -2.7131 -0.7936
  488MOL0     H65852   5.186   9.321   1.479 -0.4874 -2.0182  1.1838
  488MOL0     H65853   5.079   9.398   1.609 -0.6846 -2.1176  1.7435
  488MOL0     H65854   5.274   9.506   1.699 -2.5143 -0.9349  0.1617
  488MOL0     H65855   5.250   9.564   1.535  0.4614 -0.7897 -0.7763
  488MOL0     H65856   5.482   9.513   1.550  2.2032 -2.4322  2.3157
  488MOL0     H65857   5.450   9.333   1.573  0.6873 -1.2722 -1.0281
  488MOL0     H65858   5.356   9.485   1.327  0.3500 -0.7081 -1.0612
  488MOL0     H65859   5.349   9.316   1.349 -2.9672  2.5631 -2.2143
  488MOL0     H65860   5.590   9.289   1.351 -1.4394 -0.3765  0.7486
  488MOL0     H65861   5.606   9.467   1.331  1.1467 -1.0660 -1.4167
  488MOL0     H65862   4.677   8.922   1.606  2.4048 -0.2964  1.5367
  488MOL0     H65863   4.503   9.044   1.470 -0.9205  3.3530  0.3314
  488MOL0     H65864   4.464   9.373   1.154 -0.6975  0.0042  1.3433
  488MOL0     H65865   4.313   9.522   1.011 -0.0167  2.2111 -0.2565
  488MOL0     H65866   4.821   8.692   0.434  0.2143 -1.5987 -1.1969
  488MOL0     H65867   4.901   8.454   0.433  0.4240 -1.8499  0.5191
  488MOL0     H65868   4.761   7.939   0.797  2.3394 -1.5538  1.2261
  488MOL0     H65869   4.865   7.719   0.739 -1.3778  1.0887  0.9322
  488MOL0     H65870   4.953   7.525   0.647 -3.4124 -1.3266 -2.7749
  488MOL0     H65871   4.908   7.592   0.495 -0.6834 -1.5916  0.4093
  488MOL0     H65872   5.160   7.435   0.548  3.2775  0.5237 -2.4810
  488MOL0     H65873   5.149   7.518   0.403  1.1571  1.8782  0.7539
  488MOL0     H65874   4.948   7.305   0.487  1.9469  0.0337  0.7587
  488MOL0     H65875   5.069   7.274   0.379  1.8505  0.3198  1.5464
  488MOL0     H65876   4.872   7.498   0.316  2.8146  0.9737  1.3784
  488MOL0     H65877   4.833   7.328   0.283  0.5967  0.6034  1.2685
  488MOL0     H65878   5.161   7.441   0.018  0.0801  1.6888 -0.4222
  488MOL0     H65879   5.139   7.915   0.486 -0.3578 -2.5350 -0.6234
  488MOL0     H65880   5.069   8.122   0.547 -0.0982  0.5344  0.7151
  489MOL0     O65881   3.159   4.339   8.896 -0.5102  0.7280  0.2887
  489MOL0     C65882   3.094   4.430   8.939 -0.5305  0.0279 -0.3041
  489MOL0     O65883   3.139   4.545   8.996  0.5239  0.0325 -0.0276
  489MOL0     C65884   3.271   4.580   8.998  0.0916 -0.2261 -0.3674
  489MOL0     C65885   3.329   4.669   9.087  0.9803  0.1257  0.3726
  489MOL0     C65886   3.461   4.695   9.093 -0.2169  0.1571  0.0239
  489MOL0     C65887   3.548   4.620   9.007 -0.5654 -0.0234  0.0485
  489MOL0     O65888   3.678   4.635   9.038 -0.2357  0.2965 -0.6179
  489MOL0     C65889   3.785   4.591   8.950 -0.1468  0.2180  0.6890
  489MOL0     C65890   3.907   4.533   9.037 -0.4460 -0.5603 -0.0740
  489MOL0     C65891   3.917   4.598   9.179 -0.2534 -0.1039 -0.6340
  489MOL0     C65892   4.069   4.612   9.214  0.8313  0.6697 -0.1045
  489MOL0     C65893   4.095   4.687   9.348 -0.8894 -0.3682  0.0846
  489MOL0     C65894   4.085   4.835   9.331 -0.0060 -0.6292 -0.0495
  489MOL0     C65895   4.096   4.898   9.467  0.9478 -0.1176  1.0194
  489MOL0     C65896   4.119   5.048   9.436 -0.4777  0.5841 -0.0570
  489MOL0     N65897   4.096   5.116   9.560 -0.0086  0.3534  0.0295
  489MOL0     C65898   4.187   5.185   9.637 -0.3773 -0.1237  0.8486
  489MOL0     C65899   4.115   5.224   9.748 -0.3779  0.2487 -0.9724
  489MOL0     C65900   4.174   5.286   9.875  0.0689 -0.2122 -0.3634
  489MOL0     C65901   4.114   5.433   9.908  0.1011  0.1428  0.5124
  489MOL0     C65902   3.983   5.438   9.982  0.1791 -0.7730 -0.0866
  489MOL0     C65903   3.937   5.574  10.042 -0.3321 -0.5446 -0.1027
  489MOL0     O65904   3.804   5.551  10.106 -0.3599  0.3685 -0.0432
  489MOL0     C65905   3.807   5.481  10.225  1.0530 -0.3490  0.8705
  489MOL0     C65906   3.682   5.459  10.281  0.9720 -0.5430 -0.0307
  489MOL0     C65907   3.660   5.377  10.389  0.3250 -0.2186  0.0323
  489MOL0     C65908   3.521   5.373  10.448  1.3067 -0.2461  0.1881
  489MOL0     C65909   3.774   5.317  10.453 -0.1123  0.1795  0.6044
  489MOL0     C65910   3.761   5.230  10.566  0.0412  0.8838 -0.1213
  489MOL0     O65911   3.738   5.092  10.550 -0.0707  0.3763  0.5610
  489MOL0     C65912   3.767   5.021  10.665  0.6324  0.9382  0.0207
  489MOL0     C65913   3.891   4.962  10.691 -0.4516 -0.5097  0.1930
  489MOL0     C65914   3.912   4.897  10.816  0.1829 -0.3422  0.4354
  489MOL0     C65915   3.801   4.871  10.901 -0.8153 -1.1524  0.4173
  489MOL0     O65916   3.811   4.781  10.998 -1.0571  0.1653 -0.4126
  489MOL0     C65917   3.902   4.798  11.112  0.4171  0.1630 -0.3394
  489MOL0     C65918   4.009   4.695  11.086  0.1580  0.3607  0.1100
  489MOL0     C65919   4.143   4.713  11.169 -0.3161 -0.3651  0.1419
  489MOL0     C65920   4.246   4.615  11.135 -0.6802  0.8275 -0.2636
  489MOL0     C65921   4.385   4.665  11.194 -0.6507  1.1390 -0.4946
  489MOL0     C65922   4.456   4.760  11.094 -0.8073  0.0163 -0.1195
  489MOL0     C65923   4.590   4.809  11.155  0.2777 -0.6465 -0.3647
  489MOL0     C65924   4.678   4.895  11.069  0.3949 -0.1287  0.3216
  489MOL0    Cl65925   4.824   4.933  11.154 -0.2637  0.4057 -0.2453
  489MOL0     C65926   3.679   4.923  10.867  0.1302  0.7304  0.0133
  489MOL0     C65927   3.660   5.002  10.755 -0.3988  0.7764 -0.3584
  489MOL0     O65928   3.753   5.296  10.670  0.0488  0.2959  0.1139
  489MOL0     C65929   3.904   5.351  10.410  0.3884  0.4921  1.0870
  489MOL0     C65930   3.916   5.427  10.294 -0.2312  0.5435 -0.4448
  489MOL0     N65931   3.986   5.174   9.735  1.0707 -0.1887  0.4060
  489MOL0     N65932   3.978   5.112   9.624  0.9490 -0.2750 -0.3295
  489MOL0     C65933   3.493   4.549   8.900 -0.3074  0.4671  0.2074
  489MOL0     C65934   3.353   4.530   8.897  0.2467 -0.7187 -0.4465
  489MOL0     C65935   2.949   4.407   8.941  0.2648  0.0991  0.2461
  489MOL0     C65936   2.880   4.503   9.019 -0.6258 -0.7274  0.4656
  489MOL0     C65937   2.745   4.477   9.037  0.6057  1.0473 -0.8975
  489MOL0     C65938   2.673   4.368   8.983  0.0998 -0.3500  0.0609
  489MOL0     O65939   2.536   4.349   8.997 -0.0750 -0.2586 -0.2205
  489MOL0     C65940   2.456   4.340   8.873 -0.1972  0.0276 -0.3051
  489MOL0     C65941   2.413   4.490   8.848 -0.3765  0.0251 -0.2667
  489MOL0     C65942   2.318   4.556   8.948 -0.2208  0.2707  0.8636
  489MOL0     C65943   2.223   4.663   8.905  0.0857 -0.5078  0.7650
  489MOL0     C65944   2.113   4.612   8.819  0.3874 -0.0927 -0.6098
  489MOL0     C65945   2.063   4.582   8.711  0.4167  1.2705 -0.4660
  489MOL0     C65946   2.745   4.274   8.907  0.4644  0.2642 -0.2304
  489MOL0     C65947   2.886   4.287   8.892  0.7470 -0.2117  0.9411
  489MOL0     H65948   3.255   4.715   9.152  1.2650 -0.0674  0.8390
  489MOL0     H65949   3.490   4.777   9.158  1.9854 -1.0894  0.7364
  489MOL0     H65950   3.764   4.522   8.868  2.0703 -1.6135  1.5528
  489MOL0     H65951   3.817   4.688   8.912  0.2675  0.1030  0.7378
  489MOL0     H65952   3.898   4.424   9.038 -2.2851 -0.4736  1.9512
  489MOL0     H65953   4.003   4.544   8.985  0.8398  0.6367  2.3517
  489MOL0     H65954   3.861   4.691   9.192  0.9347  0.4573  0.6910
  489MOL0     H65955   3.894   4.522   9.254  2.5457 -0.5993 -0.1741
  489MOL0     H65956   4.114   4.513   9.226 -2.5087 -0.9380  0.3750
  489MOL0     H65957   4.135   4.660   9.141  0.9979  1.5595  0.5991
  489MOL0     H65958   4.029   4.648   9.426 -1.9126 -0.4115 -0.7850
  489MOL0     H65959   4.191   4.661   9.395 -0.4211  2.1741  0.6716
  489MOL0     H65960   4.161   4.863   9.258 -0.4097 -1.4677 -0.8212
  489MOL0     H65961   3.991   4.869   9.287 -0.0720  1.0972  1.3283
  489MOL0     H65962   4.002   4.898   9.524 -1.2943  1.4617 -2.3750
  489MOL0     H65963   4.177   4.865   9.532  1.0339 -0.1704  0.8847
  489MOL0     H65964   4.047   5.091   9.366 -0.8454  0.6244  0.3393
  489MOL0     H65965   4.223   5.064   9.406  0.2107  1.5561  2.5571
  489MOL0     H65966   4.292   5.196   9.614 -0.3320 -1.9154  0.0506
  489MOL0     H65967   4.134   5.218   9.952 -0.3697 -0.0711 -0.4649
  489MOL0     H65968   4.281   5.273   9.892 -0.0371 -1.9472 -0.8177
  489MOL0     H65969   4.107   5.501   9.822  0.2921 -2.0382 -1.2992
  489MOL0     H65970   4.195   5.473   9.970  1.0669  1.6536 -1.5821
  489MOL0     H65971   3.979   5.365  10.062  2.9189  0.0241  0.9113
  489MOL0     H65972   3.901   5.415   9.913  0.6709  2.4996 -2.0266
  489MOL0     H65973   3.940   5.648   9.961  0.0357 -1.2129 -0.7172
  489MOL0     H65974   4.022   5.584  10.110  1.0247 -1.3333 -1.6137
  489MOL0     H65975   3.599   5.506  10.230  3.0416  2.1906 -1.1242
  489MOL0     H65976   3.455   5.299  10.404  1.0749  2.5190 -4.8252
  489MOL0     H65977   3.524   5.354  10.556 -2.0686 -3.2568 -0.0526
  489MOL0     H65978   3.466   5.466  10.430  1.2858  0.2033  2.2914
  489MOL0     H65979   3.975   4.975  10.624 -0.1880  0.4633  0.7004
  489MOL0     H65980   4.006   4.849  10.841  0.9162  1.7839  2.0980
  489MOL0     H65981   3.932   4.903  11.112  0.1337  0.2563  0.8655
  489MOL0     H65982   3.852   4.776  11.206  1.5813 -0.3112  0.1857
  489MOL0     H65983   3.965   4.595  11.098 -0.1499  0.3681 -0.8754
  489MOL0     H65984   4.037   4.711  10.982 -0.1078  1.5135  0.2020
  489MOL0     H65985   4.119   4.696  11.274  1.1185  1.0044  0.7335
  489MOL0     H65986   4.183   4.815  11.167 -3.2920  1.0428  2.8710
  489MOL0     H65987   4.221   4.517  11.176  1.3164  1.3220  2.4343
  489MOL0     H65988   4.266   4.595  11.029  1.8558 -4.2231  0.8493
  489MOL0     H65989   4.457   4.584  11.208  0.4947  1.7718 -2.3661
  489MOL0     H65990   4.371   4.725  11.284  0.0877 -2.7059  2.4456
  489MOL0     H65991   4.472   4.697  11.006  1.1896 -0.0080  0.2145
  489MOL0     H65992   4.403   4.856  11.085 -1.9588 -0.3627  2.1336
  489MOL0     H65993   4.645   4.715  11.165 -3.0836 -2.7888 -0.4019
  489MOL0     H65994   4.579   4.845  11.258  2.3186 -3.2630  0.8918
  489MOL0     H65995   4.626   4.989  11.045  3.0886  1.2760 -0.4728
  489MOL0     H65996   4.709   4.842  10.978 -1.0453  0.3570 -0.4956
  489MOL0     H65997   3.602   4.888  10.935  1.1533 -1.6137  0.0521
  489MOL0     H65998   3.559   5.035  10.733 -0.7050 -0.4537 -0.8975
  489MOL0     H65999   3.991   5.302  10.452  0.5330 -0.8028 -0.5841
  489MOL0     H66000   4.020   5.448  10.271  0.4751 -0.8167  1.2696
  489MOL0     H66001   3.556   4.509   8.821  0.0380  2.4109 -0.5698
  489MOL0     H66002   3.319   4.488   8.803  3.5069 -1.8185 -1.2607
  489MOL0     H66003   2.929   4.592   9.057  2.5541 -1.7080 -0.9876
  489MOL0     H66004   2.685   4.548   9.093 -0.1769  0.3081 -0.7846
  489MOL0     H66005   2.520   4.301   8.794  1.4580  0.9097  0.5364
  489MOL0     H66006   2.373   4.272   8.889  1.3581 -1.7821  0.4738
  489MOL0     H66007   2.377   4.492   8.745 -0.1559 -3.4164 -0.5358
  489MOL0     H66008   2.500   4.551   8.871 -0.6157 -0.3598  1.8848
  489MOL0     H66009   2.378   4.603   9.027  1.9647  0.2558 -0.6740
  489MOL0     H66010   2.248   4.482   8.988 -1.1894 -0.1579 -1.4787
  489MOL0     H66011   2.274   4.740   8.846  1.4455 -1.5296  0.5548
  489MOL0     H66012   2.191   4.719   8.994 -2.0102 -0.5631  0.1174
  489MOL0     H66013   2.041   4.536   8.617 -1.5013  2.4491 -0.6606
  489MOL0     H66014   2.692   4.190   8.863  0.9501 -1.2878  1.9717
  489MOL0     H66015   2.935   4.208   8.837 -1.5839  1.3567 -3.9163
  490MOL0     O66016   3.479   7.677   2.520  0.9177  0.8068  0.4765
  490MOL0     C66017   3.402   7.764   2.555  0.1638  0.1364 -0.1900
  490MOL0     O66018   3.290   7.743   2.635  0.1290  0.7587 -0.3429
  490MOL0     C66019   3.271   7.618   2.692  0.6717 -0.6678  0.8833
  490MOL0     C66020   3.162   7.547   2.652 -0.8945  0.3098 -0.2714
  490MOL0     C66021   3.143   7.420   2.704  0.6678 -0.9917 -0.7393
  490MOL0     C66022   3.215   7.378   2.818 -0.6732 -0.6789 -1.3943
  490MOL0     O66023   3.179   7.263   2.884 -0.2884 -0.0118 -0.6248
  490MOL0     C66024   3.214   7.254   3.022  0.1519  0.0946  0.6516
  490MOL0     C66025   3.144   7.132   3.071  0.0575 -0.5800 -0.2759
  490MOL0     C66026   2.995   7.161   3.091  0.8803 -0.7864  0.2824
  490MOL0     C66027   2.926   7.057   3.173 -0.4486 -0.2814  0.7659
  490MOL0     C66028   2.911   6.914   3.110 -0.1847 -0.1200 -0.4609
  490MOL0     C66029   2.855   6.909   2.965  0.2705 -0.1654  0.4053
  490MOL0     C66030   2.787   6.770   2.938 -0.0896  0.8822 -0.0756
  490MOL0     C66031   2.725   6.761   2.806  0.0795  0.9996 -0.3668
  490MOL0     N66032   2.600   6.828   2.784 -0.5836  0.4052  0.0136
  490MOL0     C66033   2.476   6.768   2.762 -0.5214 -0.8272  0.6111
  490MOL0     C66034   2.409   6.860   2.699 -0.4884 -0.3696  0.6721
  490MOL0     C66035   2.271   6.856   2.634 -0.1815 -0.5379 -0.0471
  490MOL0     C66036   2.222   6.731   2.576  0.0826  0.1591  0.2549
  490MOL0     C66037   2.312   6.648   2.473  0.1158 -0.4146 -0.3527
  490MOL0     C66038   2.347   6.736   2.351 -0.1449  0.5264  0.5313
  490MOL0     O66039   2.421   6.674   2.248  0.3282 -0.2573  0.2439
  490MOL0     C66040   2.395   6.547   2.207 -0.1139 -0.2815 -0.2470
  490MOL0     C66041   2.270   6.496   2.197 -0.8282 -0.3204 -0.3639
  490MOL0     C66042   2.244   6.369   2.142 -0.2521  0.2534  0.3537
  490MOL0     C66043   2.106   6.321   2.138 -0.4408  0.4562 -0.4716
  490MOL0     C66044   2.345   6.289   2.113  0.0649 -0.0063  0.2442
  490MOL0     C66045   2.343   6.151   2.072 -0.6212 -0.3245 -0.6200
  490MOL0     O66046   2.244   6.073   2.122  0.3274 -0.1706  0.1003
  490MOL0     C66047   2.223   5.937   2.095  0.3699 -0.4460  0.6148
  490MOL0     C66048   2.252   5.868   1.983 -0.2284  0.2506  0.7411
  490MOL0     C66049   2.239   5.725   1.969  0.0656  0.4517  0.2806
  490MOL0     C66050   2.183   5.654   2.079 -0.6794 -1.1842  0.7085
  490MOL0     O66051   2.156   5.520   2.085  0.5001  0.7904 -0.1917
  490MOL0     C66052   2.243   5.441   2.014 -0.8627 -0.2483  0.7231
  490MOL0     C66053   2.219   5.292   2.040  0.3479  0.2579 -0.1120
  490MOL0     C66054   2.225   5.250   2.191 -0.8707  0.2179 -0.6332
  490MOL0     C66055   2.188   5.107   2.225  0.9415  0.1060  0.0319
  490MOL0     C66056   2.160   5.080   2.372 -0.3834  0.2250 -0.3716
  490MOL0     C66057   2.029   5.148   2.412  0.4505  0.1113 -0.6365
  490MOL0     C66058   2.023   5.175   2.567  0.7820  1.3278  0.4030
  490MOL0     C66059   1.886   5.222   2.609  0.0427 -0.5908  0.3630
  490MOL0    Cl66060   1.865   5.401   2.592  0.0757 -0.3284  0.0910
  490MOL0     C66061   2.149   5.729   2.191 -0.0561  0.6744  0.6331
  490MOL0     C66062   2.153   5.873   2.194  0.0139  0.4643 -1.2654
  490MOL0     O66063   2.442   6.113   2.001 -0.9256  0.7075 -0.6777
  490MOL0     C66064   2.472   6.337   2.135  0.8665 -1.0041  0.3236
  490MOL0     C66065   2.504   6.466   2.181  0.1323 -0.4766 -0.2104
  490MOL0     N66066   2.491   6.980   2.695  0.0083 -0.4623 -0.2260
  490MOL0     N66067   2.606   6.965   2.763  1.0413 -0.2009 -0.3065
  490MOL0     C66068   3.321   7.462   2.866  0.5784 -0.5357  0.8683
  490MOL0     C66069   3.348   7.581   2.800  0.3384  0.0705  0.3983
  490MOL0     C66070   3.418   7.897   2.504 -0.3572  0.5476  1.4784
  490MOL0     C66071   3.352   8.006   2.563 -0.6277  0.3793  0.0982
  490MOL0     C66072   3.335   8.132   2.487 -0.1374 -0.6140  0.1672
  490MOL0     C66073   3.403   8.152   2.359 -0.4096  0.3288 -0.3686
  490MOL0     O66074   3.373   8.251   2.272 -0.3291  0.0530 -0.4170
  490MOL0     C66075   3.261   8.342   2.305  0.2329  0.3265 -0.0733
  490MOL0     C66076   3.246   8.457   2.197  0.8125 -0.6517 -1.3471
  490MOL0     C66077   3.252   8.397   2.063  0.0536  0.0394  0.0367
  490MOL0     C66078   3.218   8.507   1.956 -0.2068 -0.2265  0.6417
  490MOL0     C66079   3.081   8.547   1.941  0.3652  1.2448  0.6328
  490MOL0     C66080   2.970   8.568   1.907  0.0122 -0.6755  0.5153
  490MOL0     C66081   3.482   8.041   2.316  0.8624 -0.0103  0.9531
  490MOL0     C66082   3.482   7.917   2.382 -0.4359 -0.4822  0.3413
  490MOL0     H66083   3.109   7.580   2.563 -2.3373 -1.7602 -0.2382
  490MOL0     H66084   3.067   7.358   2.659 -0.4657  0.3393 -0.7170
  490MOL0     H66085   3.323   7.250   3.025  0.1832  0.1569 -0.2167
  490MOL0     H66086   3.187   7.349   3.070 -1.2899  0.1804 -0.2420
  490MOL0     H66087   3.158   7.037   3.018 -0.1659 -1.0669  0.5175
  490MOL0     H66088   3.185   7.110   3.170 -0.9555 -3.8835 -0.4615
  490MOL0     H66089   2.994   7.250   3.155  0.5222 -0.9765  0.5460
  490MOL0     H66090   2.950   7.167   2.991 -2.1358 -0.0027  1.5624
  490MOL0     H66091   2.974   7.053   3.271  2.5563  1.4210 -0.4886
  490MOL0     H66092   2.823   7.091   3.180 -1.2339 -2.4433  0.3524
  490MOL0     H66093   3.009   6.866   3.098 -0.0191 -0.5255  1.8569
  490MOL0     H66094   2.845   6.859   3.178  4.0302 -2.3057  2.3074
  490MOL0     H66095   2.783   6.989   2.952 -2.5132 -2.6635 -0.8312
  490MOL0     H66096   2.939   6.922   2.896 -1.2814 -3.4319 -2.4224
  490MOL0     H66097   2.870   6.698   2.946  0.4311  1.6376  2.3223
  490MOL0     H66098   2.710   6.753   3.014 -1.1767  2.1096 -0.8707
  490MOL0     H66099   2.705   6.654   2.793  0.2838  0.4033  3.2420
  490MOL0     H66100   2.798   6.800   2.735  2.6729  0.6538  1.9390
  490MOL0     H66101   2.445   6.664   2.773  0.3435 -1.0264  1.2795
  490MOL0     H66102   2.196   6.881   2.710  3.0623 -1.4831  3.7827
  490MOL0     H66103   2.286   6.937   2.562  2.2888  0.1240  1.0967
  490MOL0     H66104   2.126   6.742   2.525  0.3880 -0.9204 -0.5973
  490MOL0     H66105   2.204   6.657   2.655  0.3877 -0.2642 -0.0637
  490MOL0     H66106   2.262   6.556   2.442  0.4856 -1.4096  1.8419
  490MOL0     H66107   2.400   6.617   2.529  2.3370  1.7560 -2.3941
  490MOL0     H66108   2.401   6.826   2.381 -0.6581  2.1826 -2.9828
  490MOL0     H66109   2.251   6.767   2.307 -0.6215  2.7889  2.9245
  490MOL0     H66110   2.187   6.558   2.227  0.2212  0.1210  1.8062
  490MOL0     H66111   2.073   6.261   2.052 -1.3368  1.3922 -0.8134
  490MOL0     H66112   2.096   6.264   2.231 -2.0839  1.5395  0.0728
  490MOL0     H66113   2.037   6.404   2.158  0.9444  1.1030  1.9540
  490MOL0     H66114   2.285   5.931   1.901 -0.2129  0.7409  1.1201
  490MOL0     H66115   2.260   5.674   1.875 -3.4885  3.2562 -2.3187
  490MOL0     H66116   2.210   5.454   1.911 -2.6052 -1.6467  1.0572
  490MOL0     H66117   2.343   5.479   2.040 -0.8932 -0.0164  0.5018
  490MOL0     H66118   2.124   5.267   1.992  0.4206  0.1930 -0.2225
  490MOL0     H66119   2.309   5.250   1.993 -0.7749  0.1720 -2.2718
  490MOL0     H66120   2.170   5.325   2.248  2.9845  4.6063 -2.1058
  490MOL0     H66121   2.329   5.262   2.223 -1.0628  0.8920 -0.2523
  490MOL0     H66122   2.103   5.077   2.163  0.8423  1.8556 -0.7331
  490MOL0     H66123   2.267   5.040   2.188  0.7279  0.4023 -1.0056
  490MOL0     H66124   2.241   5.113   2.437  0.9604  1.3835 -2.5214
  490MOL0     H66125   2.152   4.971   2.382  1.8613 -0.2569 -2.8419
  490MOL0     H66126   2.008   5.236   2.351  1.4470  1.0126  0.2861
  490MOL0     H66127   1.944   5.080   2.395  0.4316  0.2690 -1.1911
  490MOL0     H66128   2.097   5.253   2.589  1.2918  0.8562  0.3778
  490MOL0     H66129   2.051   5.083   2.618  0.2569  1.4998  1.0135
  490MOL0     H66130   1.856   5.193   2.710 -0.7289  0.6439  0.5039
  490MOL0     H66131   1.810   5.163   2.556 -1.7547  0.0468  2.1376
  490MOL0     H66132   2.095   5.678   2.270  0.8104 -0.3380  0.5860
  490MOL0     H66133   2.121   5.920   2.286  1.0414 -1.2092  0.0249
  490MOL0     H66134   2.555   6.273   2.109  0.8976  0.1512 -2.9934
  490MOL0     H66135   2.606   6.501   2.189 -1.0658  2.9929  1.9716
  490MOL0     H66136   3.398   7.429   2.934  0.1937  1.5777  2.4042
  490MOL0     H66137   3.432   7.634   2.843 -0.2737 -2.6111  5.8673
  490MOL0     H66138   3.308   8.000   2.661  0.8934 -2.0805  0.7186
  490MOL0     H66139   3.277   8.212   2.531  3.2240 -0.1927  4.4602
  490MOL0     H66140   3.167   8.287   2.320  1.2107 -1.0727  1.3258
  490MOL0     H66141   3.278   8.386   2.404  2.3594 -0.0141 -0.2582
  490MOL0     H66142   3.326   8.530   2.211 -0.1292 -0.0542  1.5748
  490MOL0     H66143   3.151   8.508   2.212 -0.0327 -3.1328  4.4745
  490MOL0     H66144   3.178   8.317   2.052 -0.0509  0.3759 -2.2666
  490MOL0     H66145   3.353   8.358   2.049 -0.4619 -1.6547  0.8392
  490MOL0     H66146   3.265   8.478   1.862  0.1503 -0.5158  0.9094
  490MOL0     H66147   3.268   8.598   1.989  0.7254 -0.8913  1.1149
  490MOL0     H66148   2.879   8.600   1.860 -1.4978 -1.0214  3.0534
  490MOL0     H66149   3.535   8.046   2.221  2.1783  2.7351  1.7183
  490MOL0     H66150   3.542   7.838   2.338 -2.4663 -1.9345  0.0761
  491MOL0     O66151   0.417   8.475   8.282 -0.0417 -0.8411  0.2722
  491MOL0     C66152   0.392   8.469   8.399  0.4567 -0.0654  0.6002
  491MOL0     O66153   0.451   8.548   8.494 -0.0492  0.7597  0.5758
  491MOL0     C66154   0.540   8.648   8.473  0.3773  0.4548  0.7463
  491MOL0     C66155   0.600   8.685   8.351 -0.1791 -0.8164 -0.1201
  491MOL0     C66156   0.682   8.795   8.347 -1.0954  1.0949  0.5051
  491MOL0     C66157   0.712   8.878   8.452  0.3560 -0.0167 -0.4428
  491MOL0     O66158   0.792   8.989   8.447  0.2776 -0.4553 -0.7610
  491MOL0     C66159   0.734   9.091   8.363 -0.4938  0.0522 -0.3008
  491MOL0     C66160   0.802   9.229   8.384 -0.5673  0.0417  0.4057
  491MOL0     C66161   0.751   9.329   8.279 -0.3798 -0.1013 -0.5800
  491MOL0     C66162   0.791   9.486   8.315  0.0851 -0.3401 -0.3639
  491MOL0     C66163   0.755   9.586   8.200 -0.0544  0.2566  0.0661
  491MOL0     C66164   0.827   9.730   8.222  0.5207  0.4036 -0.3186
  491MOL0     C66165   0.881   9.774   8.093 -0.5708  0.3297 -0.1622
  491MOL0     C66166   0.964   9.906   8.089 -0.6173  0.8824  0.4143
  491MOL0     N66167   0.881  10.021   8.134 -0.1875  0.5119 -0.6914
  491MOL0     C66168   0.858  10.125   8.046  0.2430 -0.0629  0.4758
  491MOL0     C66169   0.822  10.230   8.133  0.6595  0.1333  0.5035
  491MOL0     C66170   0.778  10.372   8.099 -0.2069 -0.1225 -0.0851
  491MOL0     C66171   0.720  10.397   7.959  0.0027  0.3666 -0.1385
  491MOL0     C66172   0.594  10.314   7.929  0.1558 -0.2433  0.3281
  491MOL0     C66173   0.499  10.370   7.821  0.4762 -0.7934 -0.1284
  491MOL0     O66174   0.572  10.382   7.689  0.1933 -0.5265  0.1141
  491MOL0     C66175   0.486  10.388   7.573 -0.6105 -0.3071 -0.9150
  491MOL0     C66176   0.349  10.365   7.564  0.5163 -0.0486  0.6425
  491MOL0     C66177   0.276  10.376   7.448  0.8857  0.2466 -0.5162
  491MOL0     C66178   0.125  10.349   7.460  0.5211 -0.5610  0.0342
  491MOL0     C66179   0.348  10.395   7.327  1.2428 -0.3824 -0.6648
  491MOL0     C66180   0.281  10.375   7.197 -0.9829  0.0031 -1.1774
  491MOL0     O66181   0.149  10.385   7.191 -0.5546  0.0811 -0.2506
  491MOL0     C66182   0.074  10.395   7.079 -0.3244  0.2780  0.3838
  491MOL0     C66183  -0.055  10.452   7.094 -0.4239 -0.2048  0.3105
  491MOL0     C66184  -0.147  10.452   6.989  0.2215 -0.7867  0.5641
  491MOL0     C66185  -0.114  10.394   6.866 -0.5742  0.8019 -0.3202
  491MOL0     O66186  -0.209  10.388   6.767 -0.1847 -0.0441 -0.1997
  491MOL0     C66187  -0.199  10.494   6.676 -0.0003 -0.3977  0.1047
  491MOL0     C66188  -0.116  10.472   6.547  0.3083 -0.7371  0.4445
  491MOL0     C66189  -0.148  10.580   6.437 -0.3431  0.0243  0.7963
  491MOL0     C66190  -0.275  10.543   6.372  0.7529  0.0703  0.6596
  491MOL0     C66191  -0.316  10.636   6.249  0.2489  0.3143  0.2094
  491MOL0     C66192  -0.285  10.782   6.270 -0.0765 -0.1964 -0.3322
  491MOL0     C66193  -0.321  10.863   6.149  0.6319  0.8346  0.2910
  491MOL0     C66194  -0.467  10.853   6.100 -0.8033  0.5711  0.3560
  491MOL0    Cl66195  -0.511  10.970   5.966 -0.3205 -0.1827 -0.4064
  491MOL0     C66196   0.014  10.344   6.853  0.3172  1.2046  0.4875
  491MOL0     C66197   0.106  10.335   6.956  0.5954 -0.3186 -0.4050
  491MOL0     O66198   0.355  10.384   7.100  0.3065  0.3024  0.7269
  491MOL0     C66199   0.486  10.429   7.343  0.3440  0.5513 -0.3777
  491MOL0     C66200   0.558  10.421   7.464  0.2916 -0.0657  0.4707
  491MOL0     N66201   0.813  10.177   8.258 -0.2195 -0.0547 -0.3137
  491MOL0     N66202   0.851  10.052   8.267 -1.3763  0.2052 -0.0226
  491MOL0     C66203   0.649   8.839   8.572  0.3239  0.0802 -0.5174
  491MOL0     C66204   0.565   8.721   8.585  0.0449 -0.5394 -0.5396
  491MOL0     C66205   0.305   8.360   8.438 -0.9458 -0.6607  0.1540
  491MOL0     C66206   0.227   8.285   8.347  0.0041 -0.3048  0.2618
  491MOL0     C66207   0.127   8.203   8.399 -1.4947 -0.0467  0.3202
  491MOL0     C66208   0.117   8.180   8.539 -0.2393  1.3300  0.3278
  491MOL0     O66209   0.024   8.085   8.564 -0.2613  0.2653 -0.4876
  491MOL0     C66210   0.003   8.054   8.703  0.5799 -0.1090  0.6854
  491MOL0     C66211  -0.099   7.948   8.714  0.4388 -0.5155  0.2646
  491MOL0     C66212  -0.228   8.004   8.660  0.2757 -0.4444  0.3207
  491MOL0     C66213  -0.282   7.908   8.544  0.1979 -0.0795 -0.0520
  491MOL0     C66214  -0.415   7.959   8.511  0.3026 -0.3616 -0.5671
  491MOL0     C66215  -0.531   7.994   8.490 -0.1187 -0.1685  0.8225
  491MOL0     C66216   0.201   8.244   8.626  0.2405  0.4971  0.4610
  491MOL0     C66217   0.293   8.337   8.574  0.3270  1.4903 -0.1066
  491MOL0     H66218   0.590   8.626   8.260 -1.0426 -2.5843  1.0562
  491MOL0     H66219   0.727   8.839   8.259  0.8950  0.3740  1.1045
  491MOL0     H66220   0.753   9.045   8.266  4.2264 -2.8076  1.6316
  491MOL0     H66221   0.628   9.093   8.389 -0.9383 -2.5298 -1.5475
  491MOL0     H66222   0.774   9.250   8.487  0.7229 -0.2508  0.8318
  491MOL0     H66223   0.911   9.227   8.369 -0.6999 -1.0725 -0.5624
  491MOL0     H66224   0.785   9.307   8.177  2.4695 -0.0042  0.2487
  491MOL0     H66225   0.642   9.327   8.277 -0.3834 -0.0010 -2.1713
  491MOL0     H66226   0.729   9.522   8.398 -0.8250 -1.0623 -0.7178
  491MOL0     H66227   0.894   9.498   8.349 -0.6515  0.1352  1.8516
  491MOL0     H66228   0.796   9.531   8.115 -1.9389  1.1717 -1.5033
  491MOL0     H66229   0.649   9.599   8.178  0.0725 -0.9590 -1.4044
  491MOL0     H66230   0.749   9.795   8.263 -0.2470 -0.0191 -1.0815
  491MOL0     H66231   0.911   9.731   8.291 -0.5721 -1.6955  1.1411
  491MOL0     H66232   0.938   9.691   8.049 -3.1402 -0.7252 -1.7760
  491MOL0     H66233   0.806   9.775   8.013 -0.6368 -1.1399 -0.1499
  491MOL0     H66234   0.988   9.918   7.983 -0.3822  1.0495  0.4864
  491MOL0     H66235   1.051   9.894   8.154 -0.6490 -2.0974  0.0491
  491MOL0     H66236   0.882  10.130   7.940  0.6664 -0.8291  0.5263
  491MOL0     H66237   0.708  10.404   8.177 -1.1790  0.6519 -1.2309
  491MOL0     H66238   0.871  10.430   8.101 -0.8775  0.9816 -0.2518
  491MOL0     H66239   0.790  10.373   7.879  0.2023  0.5891 -0.0311
  491MOL0     H66240   0.691  10.502   7.955 -1.6396 -0.1012 -2.3872
  491MOL0     H66241   0.529  10.294   8.014  1.5972  0.1301  1.5463
  491MOL0     H66242   0.620  10.218   7.883  0.6554 -0.5069  1.1483
  491MOL0     H66243   0.468  10.473   7.841  1.9600 -0.1965 -0.7598
  491MOL0     H66244   0.412  10.304   7.810  0.2587 -0.6081  0.4714
  491MOL0     H66245   0.294  10.330   7.650  0.5122  0.1826  0.7344
  491MOL0     H66246   0.086  10.273   7.392 -0.9963 -0.5699  0.8866
  491MOL0     H66247   0.083  10.317   7.555 -0.3705  0.9471  0.1938
  491MOL0     H66248   0.078  10.447   7.443  4.4437  2.5082  4.3272
  491MOL0     H66249  -0.080  10.500   7.188  2.9443  1.9832  0.2646
  491MOL0     H66250  -0.236  10.513   7.000  0.7153  0.4582 -1.7695
  491MOL0     H66251  -0.301  10.516   6.643  0.5257  1.1447 -0.5763
  491MOL0     H66252  -0.175  10.591   6.721  0.8692 -1.2807  1.6435
  491MOL0     H66253  -0.011  10.478   6.578  0.1988 -0.8379  0.8317
  491MOL0     H66254  -0.137  10.370   6.513 -0.4444 -0.1985 -0.8010
  491MOL0     H66255  -0.062  10.586   6.369  0.0502  2.4654  1.3985
  491MOL0     H66256  -0.160  10.682   6.477 -2.6860  0.4547 -0.8074
  491MOL0     H66257  -0.284  10.438   6.341  1.5632  0.6400 -1.6855
  491MOL0     H66258  -0.351  10.565   6.448  0.4157 -1.3379  0.7626
  491MOL0     H66259  -0.422  10.642   6.220  1.0466 -0.5304 -3.3301
  491MOL0     H66260  -0.270  10.585   6.164 -3.1956 -1.9454 -0.5086
  491MOL0     H66261  -0.343  10.816   6.356 -1.6272 -3.2566 -0.0392
  491MOL0     H66262  -0.178  10.794   6.288 -0.4232  0.5928  1.4114
  491MOL0     H66263  -0.258  10.832   6.065 -1.3597 -1.0460 -0.5765
  491MOL0     H66264  -0.298  10.967   6.175  1.2156  1.2828 -1.8596
  491MOL0     H66265  -0.530  10.879   6.186  0.1285  3.8680  0.2007
  491MOL0     H66266  -0.485  10.754   6.057  0.3498  0.1719  0.7750
  491MOL0     H66267   0.041  10.294   6.761  0.7341  0.3156  1.0771
  491MOL0     H66268   0.207  10.299   6.939  1.0031  1.6058 -2.7466
  491MOL0     H66269   0.526  10.470   7.251 -0.8565  1.9198 -0.3072
  491MOL0     H66270   0.666  10.421   7.464  0.3952 -0.3555 -2.5511
  491MOL0     H66271   0.687   8.899   8.655 -1.0737  2.5936 -1.5697
  491MOL0     H66272   0.520   8.686   8.677 -2.5625 -0.4495 -1.6944
  491MOL0     H66273   0.234   8.309   8.241  2.4097  0.9766  0.6296
  491MOL0     H66274   0.048   8.172   8.331  0.6344  1.4132 -3.1427
  491MOL0     H66275   0.092   8.009   8.748 -0.3668 -1.2049  1.4944
  491MOL0     H66276  -0.019   8.147   8.758  1.9254 -0.0621  1.2115
  491MOL0     H66277  -0.118   7.940   8.821  2.0661  1.3272  0.7486
  491MOL0     H66278  -0.086   7.852   8.663 -0.6543 -1.8009  2.2578
  491MOL0     H66279  -0.210   8.107   8.628 -0.8879  0.1475  1.4819
  491MOL0     H66280  -0.299   7.995   8.742 -1.3427 -4.3875 -1.2281
  491MOL0     H66281  -0.301   7.804   8.571 -0.8516  0.4559  1.4101
  491MOL0     H66282  -0.227   7.922   8.450  1.0028  0.6275  0.5100
  491MOL0     H66283  -0.635   8.015   8.470 -0.1687 -1.5503 -0.6139
  491MOL0     H66284   0.199   8.230   8.733 -2.8917 -0.1866  0.3944
  491MOL0     H66285   0.337   8.392   8.657  0.1133  0.4862  0.6935
  492MOL0     O66286   6.102   2.193   2.588  0.2657 -0.0725  0.2686
  492MOL0     C66287   6.079   2.173   2.709  0.3946  0.7936  0.1109
  492MOL0     O66288   6.135   2.063   2.779  0.5863 -0.1688 -0.4460
  492MOL0     C66289   6.213   1.968   2.707  0.2048  0.2486  0.7545
  492MOL0     C66290   6.166   1.852   2.643  0.5583 -0.4486  0.4127
  492MOL0     C66291   6.245   1.766   2.571 -0.2943 -0.7791  0.8774
  492MOL0     C66292   6.381   1.798   2.555  0.5795  0.5215 -0.1497
  492MOL0     O66293   6.453   1.712   2.481  0.1512  0.0697 -0.3977
  492MOL0     C66294   6.566   1.645   2.547 -1.2809  0.1582 -0.1418
  492MOL0     C66295   6.697   1.688   2.474  0.8478  0.0830 -0.2686
  492MOL0     C66296   6.796   1.646   2.580 -0.6279  0.0166 -0.2964
  492MOL0     C66297   6.947   1.617   2.534  0.7159  0.0977  0.8252
  492MOL0     C66298   7.007   1.737   2.453  0.9540 -0.1808  0.5048
  492MOL0     C66299   7.144   1.717   2.399  0.5390  0.6960 -0.0938
  492MOL0     C66300   7.199   1.855   2.346  0.0708 -0.6328 -0.4967
  492MOL0     C66301   7.311   1.829   2.244 -0.1308  0.4628 -0.4868
  492MOL0     N66302   7.337   1.934   2.158 -0.3021 -0.8095 -1.8974
  492MOL0     C66303   7.400   2.050   2.209  0.1993  0.1271  0.0250
  492MOL0     C66304   7.412   2.128   2.095  0.5318  0.0877  0.4706
  492MOL0     C66305   7.491   2.251   2.081  0.7459 -0.3361 -0.3591
  492MOL0     C66306   7.594   2.237   1.968 -0.3145  0.8938 -0.2869
  492MOL0     C66307   7.530   2.277   1.831 -0.1666 -0.4192 -0.2519
  492MOL0     C66308   7.523   2.423   1.817  0.5633 -0.2927  0.0525
  492MOL0     O66309   7.464   2.460   1.687 -0.9490  0.0841  0.2644
  492MOL0     C66310   7.551   2.464   1.571  0.0348 -0.1465  0.1927
  492MOL0     C66311   7.673   2.407   1.562 -0.2863  0.0309 -0.3389
  492MOL0     C66312   7.746   2.425   1.443  0.2399 -0.2423  0.8272
  492MOL0     C66313   7.876   2.366   1.436 -0.2574  1.2256  0.2478
  492MOL0     C66314   7.693   2.495   1.325 -0.2012 -0.2700 -0.0564
  492MOL0     C66315   7.773   2.531   1.205  0.0589 -0.4566  0.2210
  492MOL0     O66316   7.695   2.549   1.099  0.4146  0.1474 -0.1469
  492MOL0     C66317   7.755   2.551   0.975  0.5147  0.0231  0.8700
  492MOL0     C66318   7.872   2.483   0.930 -0.0781 -0.6415  0.4260
  492MOL0     C66319   7.895   2.478   0.794  0.4618  0.9252  0.0007
  492MOL0     C66320   7.819   2.540   0.693  0.7628  0.0153  0.8449
  492MOL0     O66321   7.860   2.526   0.560  0.4749 -0.1206  0.4072
  492MOL0     C66322   7.823   2.622   0.455  1.0284  1.0389  0.0501
  492MOL0     C66323   7.901   2.754   0.473  0.5952  0.2063 -0.1898
  492MOL0     C66324   7.853   2.849   0.375 -0.0840 -0.8248  0.0371
  492MOL0     C66325   7.724   2.916   0.415  0.0048 -0.0183 -0.5828
  492MOL0     C66326   7.668   3.003   0.299 -0.1118 -0.1203 -0.0733
  492MOL0     C66327   7.588   3.129   0.338 -0.5128  0.0754  0.0532
  492MOL0     C66328   7.492   3.161   0.224  0.6663  0.6210  0.2365
  492MOL0     C66329   7.430   3.297   0.250  0.9918 -0.5569  0.1307
  492MOL0    Cl66330   7.558   3.433   0.247 -0.3598  0.0411  0.2734
  492MOL0     C66331   7.714   2.620   0.741 -0.5139 -0.0692 -0.0791
  492MOL0     C66332   7.678   2.608   0.877  0.7208 -0.5178 -0.7762
  492MOL0     O66333   7.891   2.556   1.207  0.0737  0.1203 -0.6207
  492MOL0     C66334   7.564   2.536   1.340  0.1115 -0.6497  0.3931
  492MOL0     C66335   7.495   2.530   1.464  0.0743 -0.1241  0.2273
  492MOL0     N66336   7.336   2.071   1.996 -0.6628 -0.2864  0.4173
  492MOL0     N66337   7.283   1.959   2.035  0.0566  0.4820 -0.5173
  492MOL0     C66338   6.436   1.907   2.624  0.6821  1.2850 -0.4243
  492MOL0     C66339   6.352   1.996   2.694  0.6529  0.1768 -0.6299
  492MOL0     C66340   5.977   2.261   2.765 -0.7307 -0.3370 -0.5174
  492MOL0     C66341   5.971   2.267   2.902 -1.1115  0.5537  1.7682
  492MOL0     C66342   5.900   2.358   2.967  0.6786  0.5895 -0.3862
  492MOL0     C66343   5.818   2.453   2.909  0.3472 -1.0510 -0.7572
  492MOL0     O66344   5.745   2.534   2.991 -0.2696 -0.0904 -0.2639
  492MOL0     C66345   5.669   2.640   2.921 -1.0113  0.1762 -0.0259
  492MOL0     C66346   5.573   2.713   3.011  0.6259 -0.3409 -0.7142
  492MOL0     C66347   5.627   2.780   3.142 -0.5881  0.5090  0.5669
  492MOL0     C66348   5.529   2.873   3.236 -1.0188  0.6790  0.0330
  492MOL0     C66349   5.467   2.789   3.327 -0.7165  0.8298 -0.1954
  492MOL0     C66350   5.405   2.714   3.400  0.6886  0.1813 -1.1033
  492MOL0     C66351   5.826   2.461   2.767  0.2245  0.4389 -1.0122
  492MOL0     C66352   5.907   2.369   2.701 -0.3381  0.6297  0.6074
  492MOL0     H66353   6.058   1.844   2.650  0.5994  0.4083  3.0706
  492MOL0     H66354   6.202   1.678   2.525 -0.2840  0.2773 -1.2661
  492MOL0     H66355   6.570   1.654   2.656  1.7803 -0.2390 -0.1408
  492MOL0     H66356   6.566   1.537   2.530 -1.0700  0.3214 -1.2368
  492MOL0     H66357   6.707   1.626   2.384 -0.0703 -2.2404  1.1429
  492MOL0     H66358   6.703   1.797   2.465  0.5307  0.0235 -1.3144
  492MOL0     H66359   6.812   1.725   2.654 -0.0869 -1.1696  0.8948
  492MOL0     H66360   6.761   1.556   2.630 -1.9876 -0.2882 -1.7245
  492MOL0     H66361   7.004   1.592   2.624  1.3857  0.0881  0.4022
  492MOL0     H66362   6.936   1.530   2.469 -1.8578  1.7673 -1.1953
  492MOL0     H66363   6.939   1.753   2.369  1.6083  2.2589  0.3603
  492MOL0     H66364   7.006   1.825   2.519  1.1704 -0.7735  1.3176
  492MOL0     H66365   7.208   1.681   2.481  0.7560 -0.9491 -0.9447
  492MOL0     H66366   7.154   1.646   2.316  0.7376  0.8747 -0.2241
  492MOL0     H66367   7.120   1.920   2.306 -1.1400 -2.2009 -0.7294
  492MOL0     H66368   7.247   1.911   2.427 -4.4574  3.6551 -0.3218
  492MOL0     H66369   7.273   1.743   2.188 -1.9169  1.4098 -0.8263
  492MOL0     H66370   7.399   1.811   2.307 -1.5263  1.6012  1.9363
  492MOL0     H66371   7.443   2.078   2.305 -0.0701 -1.2553  0.5759
  492MOL0     H66372   7.422   2.333   2.058 -0.6393 -1.8350 -1.8295
  492MOL0     H66373   7.539   2.277   2.176 -2.5330  2.0878  0.8391
  492MOL0     H66374   7.635   2.135   1.972  2.0182  1.8090  2.0398
  492MOL0     H66375   7.686   2.291   1.990 -1.2899  1.1682  3.9314
  492MOL0     H66376   7.423   2.255   1.828 -1.2973  4.1062 -2.7831
  492MOL0     H66377   7.587   2.231   1.750  0.6003 -2.0756  1.1468
  492MOL0     H66378   7.620   2.471   1.834 -0.4207  0.9599  2.7655
  492MOL0     H66379   7.456   2.470   1.889 -0.3604 -0.1763 -0.8711
  492MOL0     H66380   7.710   2.354   1.649 -0.1833  1.1898  0.3520
  492MOL0     H66381   7.960   2.433   1.418  2.6146 -2.1367  0.0839
  492MOL0     H66382   7.901   2.319   1.531 -0.1603  1.0402  0.1323
  492MOL0     H66383   7.856   2.294   1.356 -1.1067 -1.1021  2.4018
  492MOL0     H66384   7.947   2.432   0.990  2.3234 -0.6999 -2.3537
  492MOL0     H66385   7.987   2.426   0.773  0.7163  1.7700 -1.0786
  492MOL0     H66386   7.864   2.574   0.366  0.5839  0.1230  0.3283
  492MOL0     H66387   7.717   2.631   0.428  1.3735 -0.4061 -1.9407
  492MOL0     H66388   7.882   2.790   0.575 -0.8499 -1.3237  0.1440
  492MOL0     H66389   8.006   2.732   0.453  0.0338 -0.4060 -2.8494
  492MOL0     H66390   7.844   2.793   0.282  1.3768  0.2710 -0.8072
  492MOL0     H66391   7.932   2.924   0.361  1.7875 -2.3335  1.8103
  492MOL0     H66392   7.653   2.844   0.456  2.4452 -2.8397 -0.9937
  492MOL0     H66393   7.739   2.982   0.501 -5.1719  2.4943 -1.2150
  492MOL0     H66394   7.605   2.931   0.246 -0.9814  1.0065 -0.6258
  492MOL0     H66395   7.754   3.032   0.238 -0.4903  4.0455  1.0284
  492MOL0     H66396   7.535   3.122   0.433  0.9371  2.9198  1.1673
  492MOL0     H66397   7.653   3.215   0.354 -0.8854  0.2642  0.5880
  492MOL0     H66398   7.415   3.084   0.210 -0.2319  1.3586  0.9526
  492MOL0     H66399   7.549   3.173   0.132 -2.1602  0.3304 -1.6700
  492MOL0     H66400   7.381   3.292   0.347  1.0134  1.8838  0.3344
  492MOL0     H66401   7.357   3.326   0.174  0.1510  3.1654  2.0897
  492MOL0     H66402   7.654   2.688   0.681 -0.1015  1.2554  0.9576
  492MOL0     H66403   7.585   2.657   0.904  0.4322  0.0422 -2.6576
  492MOL0     H66404   7.525   2.593   1.256  1.8751  0.4307  0.2534
  492MOL0     H66405   7.400   2.582   1.473  0.0571 -0.2281  0.6831
  492MOL0     H66406   6.541   1.923   2.603  0.4140  1.5683 -1.6536
  492MOL0     H66407   6.382   2.085   2.748 -0.4828  1.8021 -2.5564
  492MOL0     H66408   6.039   2.203   2.958 -0.9630 -2.1771 -1.2491
  492MOL0     H66409   5.882   2.359   3.074  1.2285 -2.0826 -0.1959
  492MOL0     H66410   5.742   2.714   2.886  2.2849 -1.3019  3.0938
  492MOL0     H66411   5.613   2.580   2.848 -1.6785 -2.0934  2.2196
  492MOL0     H66412   5.500   2.635   3.036  1.0504 -0.9298 -1.2524
  492MOL0     H66413   5.531   2.789   2.945  2.3589 -1.2782 -3.0271
  492MOL0     H66414   5.703   2.849   3.103  0.8319 -0.1988  1.9437
  492MOL0     H66415   5.678   2.699   3.195  2.1217  0.7768 -1.3656
  492MOL0     H66416   5.460   2.936   3.179 -0.4970  1.7395  0.5253
  492MOL0     H66417   5.588   2.941   3.299 -0.6389 -1.2035  1.8050
  492MOL0     H66418   5.359   2.648   3.471  0.5457  3.0489  1.6779
  492MOL0     H66419   5.773   2.531   2.703  2.9248  1.0029 -2.8264
  492MOL0     H66420   5.921   2.393   2.596 -1.5149  3.4344  1.0297
  493MOL0     O66421   7.443   7.482   4.038  0.1955  0.3439  0.7245
  493MOL0     C66422   7.525   7.509   4.127 -0.1848  0.6170  0.5868
  493MOL0     O66423   7.659   7.532   4.102  0.4635  0.0679 -0.6315
  493MOL0     C66424   7.702   7.474   3.986 -0.6438  0.2187  0.2531
  493MOL0     C66425   7.772   7.351   4.012 -0.7573 -0.0648 -0.1620
  493MOL0     C66426   7.796   7.276   3.900 -0.2206  1.2692 -0.5545
  493MOL0     C66427   7.781   7.325   3.767  0.2289 -0.2671 -0.3379
  493MOL0     O66428   7.829   7.252   3.661 -1.1043  0.7024  0.5798
  493MOL0     C66429   7.850   7.318   3.535 -1.1710 -0.0951  0.9595
  493MOL0     C66430   7.961   7.251   3.446 -0.3669 -0.1457 -0.1777
  493MOL0     C66431   7.951   7.289   3.296  1.2709 -0.0608  0.4047
  493MOL0     C66432   7.997   7.173   3.202  0.5767 -0.2449 -0.2530
  493MOL0     C66433   8.011   7.197   3.059 -0.0084  0.3749 -0.0148
  493MOL0     C66434   7.890   7.224   2.980 -0.2696 -0.3619  0.0175
  493MOL0     C66435   7.774   7.120   3.008 -0.6813  0.3542 -0.3303
  493MOL0     C66436   7.649   7.120   2.925 -0.2855 -0.3086  0.2394
  493MOL0     N66437   7.588   7.255   2.911  0.2301 -0.5371  0.7088
  493MOL0     C66438   7.635   7.349   2.824  0.6906  0.4638 -0.1161
  493MOL0     C66439   7.576   7.463   2.866 -0.6741 -0.2286 -0.0663
  493MOL0     C66440   7.579   7.606   2.811  0.8774  0.1687  1.1532
  493MOL0     C66441   7.530   7.604   2.660 -0.2228 -0.2095  0.4003
  493MOL0     C66442   7.391   7.558   2.611  1.4027  0.1375  0.5791
  493MOL0     C66443   7.348   7.606   2.470 -0.9352  0.2084 -0.7787
  493MOL0     O66444   7.212   7.567   2.445  0.1778 -0.1502  0.2984
  493MOL0     C66445   7.185   7.534   2.309  0.3038  0.3788 -0.3393
  493MOL0     C66446   7.242   7.588   2.191  1.0470 -0.3863 -0.1177
  493MOL0     C66447   7.191   7.569   2.059  0.3757  0.9132  0.3574
  493MOL0     C66448   7.246   7.650   1.940 -0.1118  0.8862  0.3903
  493MOL0     C66449   7.075   7.490   2.047  0.0207 -0.0413  0.1886
  493MOL0     C66450   6.985   7.483   1.929 -0.2083  0.1672  0.5616
  493MOL0     O66451   6.866   7.441   1.953  0.3671 -0.8154 -0.2598
  493MOL0     C66452   6.749   7.467   1.874 -1.0842  0.5733  0.2394
  493MOL0     C66453   6.635   7.389   1.893  0.1403  0.7892  0.3523
  493MOL0     C66454   6.514   7.417   1.825 -0.6549  0.0781  0.2318
  493MOL0     C66455   6.511   7.515   1.724  0.1771 -0.2473  0.5053
  493MOL0     O66456   6.405   7.552   1.639  0.3767 -0.7075  0.1161
  493MOL0     C66457   6.309   7.454   1.588 -0.7462  0.0128 -0.5992
  493MOL0     C66458   6.200   7.533   1.504  0.6496 -0.1144 -0.4268
  493MOL0     C66459   6.091   7.437   1.449 -0.5480  0.1793  0.3737
  493MOL0     C66460   5.982   7.519   1.374  0.2245 -0.2646  0.2612
  493MOL0     C66461   5.906   7.419   1.288 -0.1271  0.3432 -0.7389
  493MOL0     C66462   5.861   7.487   1.150  0.3510 -0.2091 -0.6998
  493MOL0     C66463   5.746   7.412   1.077  1.0190 -0.2922 -0.6293
  493MOL0     C66464   5.614   7.421   1.147  1.0528 -0.6279 -0.0718
  493MOL0    Cl66465   5.497   7.331   1.053 -0.1660 -0.5888 -0.4814
  493MOL0     C66466   6.624   7.594   1.700 -0.4009 -0.0250  0.6813
  493MOL0     C66467   6.739   7.569   1.775 -0.2312 -0.2148 -0.0559
  493MOL0     O66468   7.037   7.486   1.815 -0.2461 -0.0294 -0.1348
  493MOL0     C66469   7.014   7.429   2.164 -0.6922 -0.0949 -0.0742
  493MOL0     C66470   7.078   7.445   2.287  0.1772 -0.3915  0.5800
  493MOL0     N66471   7.511   7.440   2.984 -0.1246 -0.8201 -0.5307
  493MOL0     N66472   7.510   7.315   3.010  0.4963  0.2909 -0.1370
  493MOL0     C66473   7.723   7.451   3.748 -0.3891 -1.3769  0.0498
  493MOL0     C66474   7.684   7.528   3.861  0.2509 -0.3805  0.4531
  493MOL0     C66475   7.474   7.558   4.259  0.2003 -0.5463 -0.6839
  493MOL0     C66476   7.340   7.576   4.293  0.4605 -0.5593  0.3377
  493MOL0     C66477   7.295   7.608   4.423  0.3702  0.6079  0.1123
  493MOL0     C66478   7.393   7.626   4.525  0.1689 -0.4448 -1.9281
  493MOL0     O66479   7.369   7.672   4.651 -0.4711 -0.3958  0.0720
  493MOL0     C66480   7.235   7.693   4.696  0.3538  0.3523 -0.0679
  493MOL0     C66481   7.160   7.564   4.729 -1.1453 -0.2801 -0.1744
  493MOL0     C66482   7.234   7.490   4.845  0.0981 -0.3816  0.4311
  493MOL0     C66483   7.132   7.384   4.890  0.3504 -0.1777 -0.3099
  493MOL0     C66484   7.175   7.313   5.006  0.3525  1.0668 -1.0096
  493MOL0     C66485   7.214   7.268   5.120 -0.0762 -0.6040 -1.1029
  493MOL0     C66486   7.522   7.606   4.497  0.0188  0.4834  0.0884
  493MOL0     C66487   7.563   7.565   4.365 -0.0065  0.1060 -0.3044
  493MOL0     H66488   7.784   7.302   4.109  0.7674 -0.2443 -0.4129
  493MOL0     H66489   7.835   7.176   3.912 -2.3580  0.6098  1.6866
  493MOL0     H66490   7.755   7.310   3.481 -0.8142  3.1491 -0.3824
  493MOL0     H66491   7.881   7.422   3.541  1.8390 -0.6027 -2.0034
  493MOL0     H66492   8.056   7.286   3.486  0.1254 -1.2443 -0.3505
  493MOL0     H66493   7.945   7.145   3.470 -4.1548  0.8942  2.9388
  493MOL0     H66494   7.842   7.301   3.284  0.9172  1.1435  3.7692
  493MOL0     H66495   7.994   7.389   3.283 -3.0192  1.7110 -2.8739
  493MOL0     H66496   8.097   7.151   3.239  1.3527  1.9234 -0.8486
  493MOL0     H66497   7.945   7.078   3.213 -0.7710  0.3778 -1.0109
  493MOL0     H66498   8.082   7.279   3.042  2.5255 -2.0248 -2.0508
  493MOL0     H66499   8.064   7.111   3.016 -2.6843 -0.4089 -2.0494
  493MOL0     H66500   7.854   7.324   3.005 -0.2370 -0.1505 -0.7619
  493MOL0     H66501   7.911   7.246   2.875  0.0989  0.6124  0.2846
  493MOL0     H66502   7.818   7.020   3.000 -2.1860 -0.2772 -1.3020
  493MOL0     H66503   7.743   7.138   3.111  0.1777  1.1677 -0.2058
  493MOL0     H66504   7.584   7.052   2.980 -0.5318 -0.1903  0.0949
  493MOL0     H66505   7.679   7.077   2.829  0.3269  0.6557 -0.0246
  493MOL0     H66506   7.686   7.335   2.730 -0.4158  1.7940 -0.9529
  493MOL0     H66507   7.531   7.681   2.876 -0.7227  0.7515 -0.5982
  493MOL0     H66508   7.685   7.630   2.816  1.0127 -0.2067  0.1829
  493MOL0     H66509   7.601   7.534   2.614 -0.4971 -1.2272  1.4967
  493MOL0     H66510   7.544   7.702   2.612 -2.0892  0.0642  0.3640
  493MOL0     H66511   7.322   7.602   2.684  2.3254  0.1898  1.4371
  493MOL0     H66512   7.383   7.449   2.619 -3.3172  0.0191 -2.0911
  493MOL0     H66513   7.420   7.574   2.394 -1.1527  2.0578 -1.8155
  493MOL0     H66514   7.353   7.715   2.473 -1.6137  0.2393  2.6951
  493MOL0     H66515   7.326   7.652   2.219  2.2172 -1.2804 -1.4256
  493MOL0     H66516   7.165   7.697   1.883  2.0217  2.7274 -1.3135
  493MOL0     H66517   7.320   7.727   1.963  0.9058  0.7337 -2.0563
  493MOL0     H66518   7.317   7.591   1.882 -3.6160 -2.2288 -1.1300
  493MOL0     H66519   6.627   7.321   1.977 -1.9081  0.4015 -0.0973
  493MOL0     H66520   6.420   7.372   1.854 -0.6027  0.3158  0.7912
  493MOL0     H66521   6.379   7.393   1.530 -0.5918  0.2324 -0.6464
  493MOL0     H66522   6.265   7.405   1.675 -1.4998 -1.3207 -1.6940
  493MOL0     H66523   6.150   7.608   1.565  0.1279 -1.6334  1.1092
  493MOL0     H66524   6.252   7.584   1.423 -0.5135  1.7585 -0.0447
  493MOL0     H66525   6.041   7.374   1.523  0.5286 -1.3749 -0.1626
  493MOL0     H66526   6.146   7.361   1.391 -1.1169 -1.2596  1.6635
  493MOL0     H66527   5.921   7.578   1.443  0.5715  1.7535 -1.0917
  493MOL0     H66528   6.030   7.596   1.313  2.4199 -0.3061  1.7959
  493MOL0     H66529   5.815   7.387   1.339  1.3064 -1.1457  1.0205
  493MOL0     H66530   5.968   7.329   1.278  1.2070  0.9824  1.1729
  493MOL0     H66531   5.816   7.585   1.167 -3.2675 -1.4708 -2.0258
  493MOL0     H66532   5.953   7.490   1.090 -1.3424  0.5294 -3.4254
  493MOL0     H66533   5.764   7.305   1.072  4.6881  0.1901 -0.8583
  493MOL0     H66534   5.726   7.448   0.975  0.0597 -2.3772 -1.2247
  493MOL0     H66535   5.580   7.524   1.143 -2.1193 -1.5771 -0.3894
  493MOL0     H66536   5.619   7.389   1.252  1.4333 -2.3285 -0.5779
  493MOL0     H66537   6.635   7.676   1.629  2.1436 -0.6638  0.2312
  493MOL0     H66538   6.825   7.623   1.736  1.6889 -4.0804 -1.7818
  493MOL0     H66539   6.928   7.364   2.180 -2.4904  2.6970  2.8690
  493MOL0     H66540   7.043   7.390   2.374 -1.3708  1.3659  1.1279
  493MOL0     H66541   7.702   7.493   3.650 -0.9631  0.4206  0.9125
  493MOL0     H66542   7.630   7.621   3.853 -0.5353 -0.6570  2.0882
  493MOL0     H66543   7.270   7.588   4.210  0.8006  2.7984  0.3928
  493MOL0     H66544   7.187   7.614   4.426  0.0813 -2.6097 -0.3248
  493MOL0     H66545   7.231   7.760   4.782 -1.3811 -1.0804  1.0340
  493MOL0     H66546   7.183   7.747   4.616 -0.2604 -0.4895 -0.2546
  493MOL0     H66547   7.179   7.494   4.646 -0.9827 -1.1590  0.5797
  493MOL0     H66548   7.054   7.586   4.739 -1.1612  0.7007 -2.1357
  493MOL0     H66549   7.254   7.558   4.929  0.5496 -0.9322  0.7713
  493MOL0     H66550   7.323   7.439   4.808 -0.0645 -0.2606 -0.1366
  493MOL0     H66551   7.124   7.314   4.805  2.3858 -0.2453 -0.4830
  493MOL0     H66552   7.037   7.429   4.919  0.2727 -0.1167 -0.6470
  493MOL0     H66553   7.261   7.244   5.214  1.2104  1.3185 -1.1811
  493MOL0     H66554   7.595   7.638   4.572  2.5564  0.0418 -2.0318
  493MOL0     H66555   7.667   7.548   4.338 -0.1866  2.1190 -2.6073
  494MOL0     O66556   5.265   0.426   0.370  0.5211  0.1611  0.2128
  494MOL0     C66557   5.296   0.331   0.440  0.3431  0.0219 -0.1913
  494MOL0     O66558   5.287   0.324   0.574 -0.4402  0.4764 -0.2867
  494MOL0     C66559   5.239   0.436   0.635 -0.2441 -0.0286  0.2943
  494MOL0     C66560   5.098   0.466   0.656 -0.5434 -0.0979  0.2447
  494MOL0     C66561   5.054   0.556   0.762  0.5620  0.0495  1.2648
  494MOL0     C66562   5.144   0.629   0.830  0.2583  0.0904 -0.9702
  494MOL0     O66563   5.085   0.719   0.918 -1.1393  0.6433  0.8404
  494MOL0     C66564   5.172   0.760   1.024 -0.2238  0.6460  0.8174
  494MOL0     C66565   5.091   0.837   1.133 -0.7642 -1.1086  0.8778
  494MOL0     C66566   5.038   0.971   1.077 -0.6362 -0.5355 -0.7615
  494MOL0     C66567   5.145   1.086   1.078 -0.0670 -0.1608  0.6135
  494MOL0     C66568   5.076   1.221   1.069  0.7407 -0.3385  0.2357
  494MOL0     C66569   5.161   1.345   1.093  0.3896 -0.6059 -0.1258
  494MOL0     C66570   5.248   1.378   0.967 -0.5485 -0.4201 -0.3577
  494MOL0     C66571   5.386   1.436   1.010 -0.5798  0.1439 -0.6573
  494MOL0     N66572   5.368   1.549   1.102  0.7584 -0.3637 -0.1810
  494MOL0     C66573   5.342   1.681   1.057  0.1055 -0.0583 -0.7208
  494MOL0     C66574   5.352   1.747   1.178  0.0605 -0.1188 -0.0955
  494MOL0     C66575   5.348   1.902   1.199  0.5135  0.2323  0.1862
  494MOL0     C66576   5.210   1.964   1.231 -0.9898 -0.7634  0.6093
  494MOL0     C66577   5.164   1.904   1.365 -0.3580  0.5460 -0.3179
  494MOL0     C66578   5.020   1.975   1.416  0.1161  0.8342  0.6108
  494MOL0     O66579   4.905   1.893   1.390  0.0715 -0.0468 -0.6459
  494MOL0     C66580   4.850   1.900   1.265 -0.2571  0.1798 -0.3801
  494MOL0     C66581   4.901   1.816   1.158  0.6266 -0.1854 -1.3632
  494MOL0     C66582   4.826   1.814   1.037 -0.2858 -0.0051  0.0546
  494MOL0     C66583   4.889   1.731   0.917 -0.3274  0.2267 -0.5407
  494MOL0     C66584   4.711   1.895   1.007  0.1674  0.2861  0.1458
  494MOL0     C66585   4.628   1.912   0.880 -0.9039 -0.1656 -0.5424
  494MOL0     O66586   4.554   2.021   0.866  0.2396 -0.8014 -0.0370
  494MOL0     C66587   4.488   2.027   0.750  0.1539  1.0064  0.8244
  494MOL0     C66588   4.532   2.093   0.644  0.6422 -0.4472  0.6806
  494MOL0     C66589   4.442   2.115   0.529 -0.6136  0.1971 -0.2126
  494MOL0     C66590   4.318   2.046   0.518 -0.3257  1.0749 -0.5800
  494MOL0     O66591   4.247   2.033   0.398  0.3981  0.3414  0.4180
  494MOL0     C66592   4.319   1.961   0.295 -0.1834  0.0698 -0.3672
  494MOL0     C66593   4.260   1.970   0.157 -0.3662 -0.3425 -0.6140
  494MOL0     C66594   4.322   1.864   0.069  0.7485 -1.0528 -0.2977
  494MOL0     C66595   4.472   1.880   0.058  0.0850 -1.0926  0.9567
  494MOL0     C66596   4.533   1.768  -0.027 -0.3612  0.5084  0.2197
  494MOL0     C66597   4.495   1.781  -0.173  0.4402  0.0282  0.5143
  494MOL0     C66598   4.576   1.684  -0.249  0.3319  0.2672 -0.4688
  494MOL0     C66599   4.518   1.638  -0.379 -0.0269 -0.0755 -0.6479
  494MOL0    Cl66600   4.501   1.781  -0.493 -0.0572  0.3745  0.0362
  494MOL0     C66601   4.274   1.975   0.628  0.0313 -0.6026  0.6029
  494MOL0     C66602   4.361   1.963   0.749  0.0140  0.1499 -0.5966
  494MOL0     O66603   4.640   1.816   0.804 -0.2838  0.2763  0.3018
  494MOL0     C66604   4.678   1.975   1.119 -0.6495 -0.0942 -0.0517
  494MOL0     C66605   4.736   1.974   1.243 -0.2692  0.9412 -0.7367
  494MOL0     N66606   5.396   1.664   1.274  0.0169 -0.2021 -0.7099
  494MOL0     N66607   5.392   1.543   1.239  0.2734  0.1297 -0.3959
  494MOL0     C66608   5.281   0.610   0.804 -0.3461  0.0650  0.9803
  494MOL0     C66609   5.327   0.512   0.708  0.7218  0.2493 -0.1634
  494MOL0     C66610   5.359   0.215   0.363  0.6855  0.7055  0.7668
  494MOL0     C66611   5.361   0.205   0.220  0.1790  0.0791 -0.6914
  494MOL0     C66612   5.427   0.104   0.148  0.5842  0.1556  0.3645
  494MOL0     C66613   5.491  -0.001   0.213 -0.4506  0.6965  0.5979
  494MOL0     O66614   5.551  -0.102   0.136  0.0207 -1.0952 -0.3248
  494MOL0     C66615   5.659  -0.181   0.192  0.2943  0.4885 -0.0033
  494MOL0     C66616   5.694  -0.299   0.087  0.5452  0.0308  0.1107
  494MOL0     C66617   5.594  -0.417   0.098  1.2030 -0.3558  0.8713
  494MOL0     C66618   5.619  -0.519   0.208  0.0200  0.1189 -0.0668
  494MOL0     C66619   5.708  -0.630   0.169  0.0076 -0.4384  0.0053
  494MOL0     C66620   5.778  -0.722   0.127  0.4508  0.2424  0.6842
  494MOL0     C66621   5.503   0.013   0.345  0.1172  0.4012 -0.2468
  494MOL0     C66622   5.443   0.118   0.418 -0.6045 -0.4531  0.1413
  494MOL0     H66623   5.041   0.389   0.605  0.2244 -1.1909  1.0021
  494MOL0     H66624   4.947   0.567   0.777  0.2668  3.4655 -1.7584
  494MOL0     H66625   5.236   0.683   1.069  0.1604 -0.4499 -1.4837
  494MOL0     H66626   5.246   0.827   0.979  1.8893 -2.6611 -1.0740
  494MOL0     H66627   5.017   0.770   1.177  0.2631 -2.8358  0.0673
  494MOL0     H66628   5.163   0.868   1.209 -1.9022 -2.8164  2.7345
  494MOL0     H66629   4.995   0.972   0.977 -0.7908 -0.1536 -0.6900
  494MOL0     H66630   4.954   1.004   1.139 -0.2936 -1.2958  0.1507
  494MOL0     H66631   5.195   1.080   1.175 -1.1321 -0.1049  1.1764
  494MOL0     H66632   5.225   1.077   1.003 -0.4800 -2.3121  0.3866
  494MOL0     H66633   5.031   1.240   0.971 -0.5503 -0.5733  0.7654
  494MOL0     H66634   5.003   1.236   1.149 -0.3704  3.6799 -1.2726
  494MOL0     H66635   5.098   1.431   1.118 -0.3056 -0.8752 -0.9338
  494MOL0     H66636   5.230   1.327   1.176  2.4254 -2.2995 -2.0531
  494MOL0     H66637   5.269   1.290   0.905  2.1429 -0.5930  0.6867
  494MOL0     H66638   5.199   1.458   0.912  2.1010  1.2495 -0.4467
  494MOL0     H66639   5.451   1.467   0.927  0.0022 -1.6232 -0.8988
  494MOL0     H66640   5.443   1.357   1.060  0.1926  1.2683  0.2961
  494MOL0     H66641   5.310   1.720   0.961 -1.7149 -0.3428 -0.2780
  494MOL0     H66642   5.413   1.924   1.284 -0.6051  2.1733  0.6080
  494MOL0     H66643   5.388   1.952   1.110 -1.1748 -2.3857 -2.2453
  494MOL0     H66644   5.141   1.938   1.150  3.2892 -3.7501 -2.5656
  494MOL0     H66645   5.212   2.073   1.242  2.0192 -0.5208 -0.9599
  494MOL0     H66646   5.243   1.922   1.439 -0.5841 -2.5868  0.8303
  494MOL0     H66647   5.145   1.797   1.356 -2.0654  0.8484 -0.5773
  494MOL0     H66648   5.006   2.070   1.365 -1.7137 -0.9861 -2.6063
  494MOL0     H66649   5.023   1.977   1.526  0.4299 -3.7296  0.8920
  494MOL0     H66650   4.997   1.766   1.169  1.2490  1.2550  0.3246
  494MOL0     H66651   4.963   1.662   0.957 -3.1556 -0.9238  3.2938
  494MOL0     H66652   4.813   1.665   0.874 -0.3543  1.3589 -2.3722
  494MOL0     H66653   4.948   1.795   0.851 -1.4014  2.3304  0.4296
  494MOL0     H66654   4.633   2.132   0.634  0.2344  0.5154  0.1552
  494MOL0     H66655   4.483   2.183   0.456 -3.8076  1.3840 -1.0451
  494MOL0     H66656   4.421   2.000   0.295  0.5987 -1.6028 -3.5118
  494MOL0     H66657   4.328   1.857   0.329  1.5116 -0.7690 -3.0385
  494MOL0     H66658   4.155   1.940   0.152  0.0483 -1.7548 -1.4064
  494MOL0     H66659   4.274   2.075   0.133 -0.0132 -0.0645  0.7201
  494MOL0     H66660   4.264   1.891  -0.020 -0.7652  3.0423  1.6297
  494MOL0     H66661   4.298   1.767   0.114 -1.0162  0.1934  1.6593
  494MOL0     H66662   4.496   1.982   0.027 -0.5997 -0.5388  2.1645
  494MOL0     H66663   4.511   1.886   0.159  0.7457  1.0941  0.6262
  494MOL0     H66664   4.500   1.671   0.010  2.9937 -1.3353 -1.2435
  494MOL0     H66665   4.641   1.763  -0.015 -0.3507  2.1070  1.1464
  494MOL0     H66666   4.388   1.768  -0.190  0.1656  3.1658 -0.9791
  494MOL0     H66667   4.521   1.876  -0.222 -1.7597 -0.7024 -2.3041
  494MOL0     H66668   4.588   1.592  -0.190 -1.2849  0.5924  0.4106
  494MOL0     H66669   4.677   1.716  -0.275 -0.2158 -0.0430 -3.3260
  494MOL0     H66670   4.412   1.609  -0.373 -0.4828  1.7154  0.7201
  494MOL0     H66671   4.568   1.547  -0.412  0.0853 -0.4446  0.4744
  494MOL0     H66672   4.185   1.915   0.614 -0.3095  0.2099 -0.9299
  494MOL0     H66673   4.330   1.910   0.839  2.1528 -0.0325  0.0766
  494MOL0     H66674   4.605   2.055   1.118 -0.8178 -0.1531  2.2823
  494MOL0     H66675   4.693   2.029   1.326 -0.2189 -0.3999  0.2114
  494MOL0     H66676   5.358   0.666   0.857 -0.6481 -0.7647  2.3496
  494MOL0     H66677   5.434   0.494   0.699  0.5233 -1.2324  0.1586
  494MOL0     H66678   5.296   0.276   0.170 -0.0088  0.2776 -0.1778
  494MOL0     H66679   5.403   0.099   0.042  0.4183 -0.0744  0.4106
  494MOL0     H66680   5.739  -0.118   0.231  0.0770  0.5996  0.2654
  494MOL0     H66681   5.618  -0.226   0.283 -0.8013 -2.2396 -1.7032
  494MOL0     H66682   5.798  -0.324   0.113  0.1129 -0.8806  1.0183
  494MOL0     H66683   5.698  -0.258  -0.014  1.8656  0.2968  0.2476
  494MOL0     H66684   5.585  -0.467   0.000 -0.4001  1.3573  0.0912
  494MOL0     H66685   5.499  -0.371   0.127  2.2735  2.6995 -0.1093
  494MOL0     H66686   5.523  -0.556   0.248  0.4420  1.2956  2.1764
  494MOL0     H66687   5.654  -0.475   0.302  0.3165 -1.4221  0.5766
  494MOL0     H66688   5.849  -0.797   0.099 -0.6942 -0.2001 -1.2626
  494MOL0     H66689   5.560  -0.062   0.398 -0.9017 -1.2591 -1.4094
  494MOL0     H66690   5.449   0.109   0.526  1.0861  1.8024  0.2864
  495MOL0     O66691   0.938   5.374  11.152  0.0920  0.2770  0.4901
  495MOL0     C66692   0.895   5.475  11.206 -0.4370 -0.0842  0.5693
  495MOL0     O66693   0.789   5.549  11.167  0.6946 -0.6568 -0.4135
  495MOL0     C66694   0.691   5.518  11.076 -0.7523  0.5560 -0.3876
  495MOL0     C66695   0.680   5.401  10.994 -0.4816  0.1531  0.1893
  495MOL0     C66696   0.576   5.396  10.895 -0.1274 -0.4866  0.5135
  495MOL0     C66697   0.473   5.494  10.894  0.2457 -0.0077 -0.2575
  495MOL0     O66698   0.371   5.490  10.798 -0.3165  0.4715  0.0490
  495MOL0     C66699   0.244   5.552  10.825  0.8817  0.4057 -0.7498
  495MOL0     C66700   0.125   5.505  10.728  0.3243 -0.6288 -0.4821
  495MOL0     C66701   0.150   5.361  10.671 -0.1050 -0.6914 -0.4646
  495MOL0     C66702   0.020   5.281  10.643  1.2042 -0.7266 -0.9197
  495MOL0     C66703   0.064   5.137  10.608 -1.4604 -0.1373  0.3399
  495MOL0     C66704  -0.043   5.037  10.605  0.0563  1.2459 -0.2142
  495MOL0     C66705  -0.098   5.023  10.463 -0.2168  0.1778  0.1552
  495MOL0     C66706  -0.221   4.928  10.467 -0.1996 -0.0793  0.0120
  495MOL0     N66707  -0.310   4.952  10.356  0.1117  0.0168 -0.1056
  495MOL0     C66708  -0.273   4.907  10.232 -0.0616  0.0762  0.3004
  495MOL0     C66709  -0.383   4.925  10.156  0.0885 -0.2865 -0.3888
  495MOL0     C66710  -0.381   4.899  10.013  0.0055 -0.5868 -0.2010
  495MOL0     C66711  -0.273   4.992   9.942 -0.0886  0.4103 -0.0232
  495MOL0     C66712  -0.316   5.136   9.901  0.4061 -0.4232  0.1191
  495MOL0     C66713  -0.388   5.221  10.003  0.1232 -0.8521  0.1461
  495MOL0     O66714  -0.385   5.349   9.936 -0.6847  0.9204  0.0487
  495MOL0     C66715  -0.442   5.450  10.001 -0.2741  0.0093  0.5340
  495MOL0     C66716  -0.409   5.578   9.956 -0.6532 -0.7447  0.5740
  495MOL0     C66717  -0.450   5.690  10.019 -0.1434 -0.7615 -0.2527
  495MOL0     C66718  -0.395   5.821   9.970 -0.0150  0.5669  0.9529
  495MOL0     C66719  -0.544   5.684  10.134 -0.2583 -1.1468 -0.4529
  495MOL0     C66720  -0.604   5.799  10.221 -0.0200  0.1390  1.1863
  495MOL0     O66721  -0.703   5.765  10.306  0.3681 -0.1736  0.0014
  495MOL0     C66722  -0.763   5.860  10.383 -0.0114 -0.3582  0.8165
  495MOL0     C66723  -0.694   5.900  10.497 -0.2928  0.4373  1.1080
  495MOL0     C66724  -0.737   6.014  10.572 -0.0880  0.5759 -0.3750
  495MOL0     C66725  -0.870   6.074  10.555 -0.1455  0.2132 -0.0127
  495MOL0     O66726  -0.918   6.181  10.624 -1.1424  0.6143  0.0752
  495MOL0     C66727  -0.893   6.185  10.766 -0.0719 -0.3704 -0.5643
  495MOL0     C66728  -1.034   6.200  10.831  0.5772  0.4426 -0.5183
  495MOL0     C66729  -1.037   6.222  10.982 -0.1658  0.0291 -0.5074
  495MOL0     C66730  -1.177   6.243  11.036  0.3672  0.4201 -0.4522
  495MOL0     C66731  -1.170   6.283  11.183  0.5256  0.3005  0.4869
  495MOL0     C66732  -1.294   6.352  11.240  1.1508  0.5759 -0.3581
  495MOL0     C66733  -1.277   6.371  11.388  0.2182 -0.2474 -0.2763
  495MOL0     C66734  -1.375   6.484  11.441 -0.0009  0.5328 -0.5242
  495MOL0    Cl66735  -1.385   6.503  11.617 -0.6978 -0.3239  0.2929
  495MOL0     C66736  -0.948   6.010  10.448 -0.9515  0.4672 -0.0460
  495MOL0     C66737  -0.894   5.909  10.358  0.3556 -0.5841  0.5748
  495MOL0     O66738  -0.579   5.911  10.178  0.4789 -0.2731 -0.7550
  495MOL0     C66739  -0.578   5.553  10.172  0.3394  0.0408 -0.0285
  495MOL0     C66740  -0.531   5.437  10.112 -0.2575  0.3872 -0.6396
  495MOL0     N66741  -0.485   4.963  10.233 -0.5793 -0.5141 -0.0577
  495MOL0     N66742  -0.443   4.975  10.359  0.4116 -1.1879 -0.0423
  495MOL0     C66743   0.488   5.604  10.979  0.2398 -0.1676 -0.9311
  495MOL0     C66744   0.591   5.611  11.068  0.0380 -0.1461  0.1111
  495MOL0     C66745   0.979   5.526  11.325 -0.2283  0.4677  0.0487
  495MOL0     C66746   0.926   5.622  11.410  0.0943 -0.3270 -0.6966
  495MOL0     C66747   0.998   5.674  11.512  0.1691  0.6031 -0.3023
  495MOL0     C66748   1.125   5.630  11.542  0.1421 -0.1774 -1.1613
  495MOL0     O66749   1.210   5.668  11.646 -0.6954 -0.1076  0.0983
  495MOL0     C66750   1.186   5.793  11.723  0.1348 -0.4329 -0.5221
  495MOL0     C66751   1.310   5.840  11.794  0.6487 -1.3913  0.6031
  495MOL0     C66752   1.437   5.813  11.718  0.1585 -0.5074 -0.5864
  495MOL0     C66753   1.563   5.847  11.804  0.9335 -0.1265 -0.0641
  495MOL0     C66754   1.676   5.764  11.759  0.1819  0.0431 -0.1448
  495MOL0     C66755   1.769   5.699  11.712  0.4659  0.9450 -0.0478
  495MOL0     C66756   1.172   5.525  11.460  0.2604 -0.5078 -0.0203
  495MOL0     C66757   1.103   5.476  11.357 -0.2316 -0.1576  0.3657
  495MOL0     H66758   0.753   5.321  10.987 -3.4207 -2.5919 -2.2803
  495MOL0     H66759   0.568   5.318  10.820 -0.3450 -0.5258  0.5765
  495MOL0     H66760   0.215   5.522  10.926 -0.1097 -0.8700 -1.3910
  495MOL0     H66761   0.250   5.661  10.826  1.7369  0.3661  0.2750
  495MOL0     H66762   0.026   5.508  10.773  0.6391 -1.3664  0.2977
  495MOL0     H66763   0.131   5.567  10.638  2.5487 -1.2145 -0.8174
  495MOL0     H66764   0.211   5.387  10.584  1.2610 -1.3124  0.2878
  495MOL0     H66765   0.201   5.304  10.749  1.5213  0.3276 -0.7478
  495MOL0     H66766  -0.050   5.308  10.722  3.1269  0.2310  0.5142
  495MOL0     H66767  -0.024   5.315  10.548 -3.7179  0.4328  1.4524
  495MOL0     H66768   0.109   5.138  10.509  0.4899  2.9367  1.0908
  495MOL0     H66769   0.143   5.093  10.670 -0.6137  1.4795  0.4652
  495MOL0     H66770  -0.017   4.937  10.640 -2.1847  0.8131  0.3905
  495MOL0     H66771  -0.127   5.054  10.673 -2.8496 -4.7053 -1.7045
  495MOL0     H66772  -0.130   5.123  10.433  1.0251 -0.0440 -2.1591
  495MOL0     H66773  -0.013   4.996  10.398 -0.5396  0.5300 -0.4218
  495MOL0     H66774  -0.275   4.966  10.554  0.4369  2.5999 -0.6645
  495MOL0     H66775  -0.184   4.826  10.470 -1.0585 -0.5506 -2.6097
  495MOL0     H66776  -0.183   4.860  10.192  0.1862  0.1353  0.7747
  495MOL0     H66777  -0.361   4.796   9.983 -0.6322 -2.3507  4.5728
  495MOL0     H66778  -0.481   4.924   9.976  0.6126  1.1241 -0.7685
  495MOL0     H66779  -0.244   4.945   9.848 -2.6699 -1.8696  0.2103
  495MOL0     H66780  -0.175   4.985   9.992  0.4502 -0.8590 -1.1806
  495MOL0     H66781  -0.376   5.123   9.810  0.8165  0.8275 -0.3574
  495MOL0     H66782  -0.228   5.193   9.869 -0.9607  1.8893  0.1766
  495MOL0     H66783  -0.333   5.225  10.097 -0.4515 -1.7966  0.5395
  495MOL0     H66784  -0.490   5.187  10.024  0.8748 -1.5584  3.0339
  495MOL0     H66785  -0.339   5.580   9.873 -1.5465 -1.5099 -0.2247
  495MOL0     H66786  -0.317   5.815   9.894 -3.6231  3.3280 -3.5473
  495MOL0     H66787  -0.479   5.883   9.938 -0.8012 -0.9256 -0.0187
  495MOL0     H66788  -0.345   5.870  10.054 -0.8246  3.6912 -0.2759
  495MOL0     H66789  -0.598   5.853  10.514 -0.6417 -1.6665 -1.8661
  495MOL0     H66790  -0.670   6.055  10.647 -1.1413 -0.4732  1.2039
  495MOL0     H66791  -0.842   6.099  10.809  1.2157  0.7181  0.1742
  495MOL0     H66792  -0.836   6.276  10.789 -1.5456 -0.0527  2.2801
  495MOL0     H66793  -1.073   6.287  10.777  1.5137  1.8268  0.9461
  495MOL0     H66794  -1.087   6.105  10.820  1.7675 -0.4797  1.2908
  495MOL0     H66795  -0.989   6.320  10.991 -0.5322  0.2973 -1.3423
  495MOL0     H66796  -0.980   6.150  11.041  0.8824  0.9774 -0.3430
  495MOL0     H66797  -1.217   6.327  10.980  2.0935 -0.4620 -3.2031
  495MOL0     H66798  -1.238   6.152  11.038  0.0026  0.6500  2.0741
  495MOL0     H66799  -1.082   6.347  11.198  1.6308 -0.4452 -2.2586
  495MOL0     H66800  -1.153   6.186  11.230 -1.9735 -0.9674 -1.0477
  495MOL0     H66801  -1.300   6.448  11.188 -0.3289  0.5755 -0.2099
  495MOL0     H66802  -1.387   6.306  11.205  0.9650  1.0400 -0.4826
  495MOL0     H66803  -1.170   6.391  11.402  0.5725 -1.3767 -1.1801
  495MOL0     H66804  -1.301   6.279  11.441 -0.8409  1.5315  2.5701
  495MOL0     H66805  -1.478   6.465  11.409  0.2077  0.2915 -1.0688
  495MOL0     H66806  -1.350   6.578  11.391  0.7923 -0.0727 -1.3086
  495MOL0     H66807  -1.049   6.046  10.430 -1.4238  0.4740  2.3597
  495MOL0     H66808  -0.944   5.879  10.267  2.7300 -3.0826 -0.0323
  495MOL0     H66809  -0.652   5.538  10.249  2.0055 -3.6009  1.1206
  495MOL0     H66810  -0.558   5.345  10.163 -2.2489  1.4955  0.4738
  495MOL0     H66811   0.414   5.684  10.985 -1.2879 -1.5690  3.8999
  495MOL0     H66812   0.588   5.700  11.130  3.5397  0.2896 -0.1385
  495MOL0     H66813   0.829   5.670  11.397 -0.2509 -1.5512 -3.2244
  495MOL0     H66814   0.959   5.749  11.580 -2.9975 -2.0870  1.1561
  495MOL0     H66815   1.139   5.861  11.652 -1.3253  1.3232  1.9655
  495MOL0     H66816   1.108   5.776  11.798 -3.2867  1.0036 -3.4511
  495MOL0     H66817   1.307   5.773  11.880 -2.9457 -3.1212 -0.6616
  495MOL0     H66818   1.295   5.945  11.820 -1.6186 -1.4249 -0.3291
  495MOL0     H66819   1.450   5.879  11.632 -0.5217 -1.7594 -1.6961
  495MOL0     H66820   1.445   5.705  11.698 -2.6711 -1.4688  2.5097
  495MOL0     H66821   1.532   5.831  11.908 -3.1584 -2.4267 -1.4234
  495MOL0     H66822   1.583   5.954  11.789 -1.1045  1.2009  4.7369
  495MOL0     H66823   1.848   5.648  11.660  1.6872 -0.2017  2.7728
  495MOL0     H66824   1.273   5.487  11.473  0.8103  0.7868 -0.3872
  495MOL0     H66825   1.148   5.406  11.287 -0.7507  2.0267 -2.3581
  496MOL0     O66826  10.222   2.556   1.891 -0.0858  0.2157  0.1015
  496MOL0     C66827  10.191   2.534   1.770  0.6262  0.5223  0.2003
  496MOL0     O66828  10.263   2.464   1.684  0.7576  0.3333  0.6536
  496MOL0     C66829  10.371   2.401   1.721 -1.2993  0.4934 -0.4612
  496MOL0     C66830  10.496   2.466   1.736  0.7097  0.6137 -0.3193
  496MOL0     C66831  10.605   2.388   1.770  0.3549  0.4023  0.8237
  496MOL0     C66832  10.601   2.249   1.784  0.2213  0.0075  0.3181
  496MOL0     O66833  10.710   2.173   1.813  0.1496  0.3270  0.2078
  496MOL0     C66834  10.818   2.178   1.730  0.3145  0.4058  0.0523
  496MOL0     C66835  10.795   2.100   1.605 -0.1436 -0.1152  0.9576
  496MOL0     C66836  10.807   1.949   1.643 -0.3431 -1.0628 -0.0778
  496MOL0     C66837  10.954   1.896   1.612  0.3365  1.1547  0.3538
  496MOL0     C66838  10.979   1.754   1.665 -0.2432 -0.1255  0.3887
  496MOL0     C66839  11.034   1.757   1.811  0.8880  0.6136 -0.7144
  496MOL0     C66840  10.975   1.641   1.907 -0.4491 -0.1955 -0.3905
  496MOL0     C66841  11.028   1.640   2.058  1.2771  0.4520  0.5127
  496MOL0     N66842  11.161   1.574   2.073 -0.2182  0.7306 -0.0357
  496MOL0     C66843  11.245   1.592   2.177  0.6795  0.9943 -0.2907
  496MOL0     C66844  11.341   1.487   2.177  1.1258  0.8838  0.1413
  496MOL0     C66845  11.455   1.458   2.277  0.5996  0.4186  0.4185
  496MOL0     C66846  11.588   1.496   2.212  0.4358  0.3739  0.2191
  496MOL0     C66847  11.610   1.649   2.216 -0.0141 -0.7819 -0.6962
  496MOL0     C66848  11.649   1.724   2.353  0.2867 -0.9102  0.5687
  496MOL0     O66849  11.750   1.647   2.417  0.6533  0.4647  0.2243
  496MOL0     C66850  11.872   1.682   2.383  0.7246 -0.2649 -0.2938
  496MOL0     C66851  11.949   1.586   2.314  0.1188 -0.2389 -0.1153
  496MOL0     C66852  12.077   1.626   2.272 -0.8667 -0.9677 -0.1138
  496MOL0     C66853  12.174   1.528   2.216  0.1174  0.4271 -0.0555
  496MOL0     C66854  12.120   1.761   2.306  0.0014 -0.1730  0.7728
  496MOL0     C66855  12.253   1.810   2.280 -0.0749 -1.0944  0.8716
  496MOL0     O66856  12.315   1.896   2.369  0.1649 -0.4058  0.6555
  496MOL0     C66857  12.434   1.949   2.333  0.0500  0.2761 -0.1387
  496MOL0     C66858  12.438   2.090   2.319 -0.7013  0.7011  0.7219
  496MOL0     C66859  12.555   2.152   2.274 -0.2897  0.1555 -0.3043
  496MOL0     C66860  12.678   2.078   2.263  0.0928  0.2095 -0.1546
  496MOL0     O66861  12.794   2.129   2.209 -0.8942 -0.4040 -0.2276
  496MOL0     C66862  12.777   2.223   2.104 -0.2062  0.4500  1.1541
  496MOL0     C66863  12.907   2.271   2.041  0.4661 -0.4391 -0.4004
  496MOL0     C66864  12.986   2.149   1.985  0.1911  1.6455  0.3664
  496MOL0     C66865  13.141   2.175   1.997 -0.9416 -0.1240  0.5283
  496MOL0     C66866  13.232   2.049   1.960  0.1723 -0.6480 -0.5598
  496MOL0     C66867  13.234   1.949   2.070  0.0846 -1.6630  0.4108
  496MOL0     C66868  13.333   2.003   2.174 -0.7545  0.4707 -0.1132
  496MOL0     C66869  13.353   1.881   2.276 -0.6375  0.3143 -0.8546
  496MOL0    Cl66870  13.485   1.942   2.358  0.3325 -0.0187 -0.0394
  496MOL0     C66871  12.673   1.947   2.299 -0.3177 -0.0320  0.6517
  496MOL0     C66872  12.556   1.883   2.326  0.0209 -0.2794 -0.7152
  496MOL0     O66873  12.302   1.788   2.173 -0.6791  0.0033 -0.0111
  496MOL0     C66874  12.046   1.850   2.381 -0.1320  0.2675  0.0723
  496MOL0     C66875  11.916   1.815   2.420  0.1282  1.6016  0.5557
  496MOL0     N66876  11.310   1.420   2.056  0.3971 -0.2463 -0.6812
  496MOL0     N66877  11.208   1.470   1.994  0.2648  0.0879  0.3688
  496MOL0     C66878  10.477   2.181   1.764 -0.1424 -0.7253  0.4928
  496MOL0     C66879  10.365   2.262   1.736  0.3120  0.3502 -0.2759
  496MOL0     C66880  10.068   2.602   1.717 -0.3896 -0.6573  0.4260
  496MOL0     C66881   9.964   2.636   1.800 -0.1671  0.4252 -0.9558
  496MOL0     C66882   9.862   2.714   1.756  0.3381  0.0209  0.5369
  496MOL0     C66883   9.839   2.756   1.621  0.4430 -0.3423  0.1035
  496MOL0     O66884   9.729   2.841   1.593 -0.8002  0.2080 -0.5566
  496MOL0     C66885   9.693   2.862   1.455  0.1546  0.8978  0.1797
  496MOL0     C66886   9.574   2.952   1.440  0.3564 -0.7455  0.6784
  496MOL0     C66887   9.520   2.975   1.305  0.2852  0.7894 -0.1467
  496MOL0     C66888   9.627   3.033   1.222  0.1483 -0.1537 -0.2950
  496MOL0     C66889   9.570   3.056   1.089 -0.9084 -0.0094  0.1571
  496MOL0     C66890   9.527   3.082   0.984  0.3523 -0.3921 -0.4796
  496MOL0     C66891   9.928   2.694   1.527  0.4793 -0.1007 -0.1547
  496MOL0     C66892  10.047   2.623   1.575  1.0988  0.4992 -0.4943
  496MOL0     H66893  10.500   2.574   1.745 -2.1460  0.8555 -0.9613
  496MOL0     H66894  10.693   2.440   1.806  0.8002  1.1715 -1.2035
  496MOL0     H66895  10.844   2.281   1.704 -0.1970  0.6016  0.2970
  496MOL0     H66896  10.899   2.126   1.782  1.2891 -0.4787 -2.1983
  496MOL0     H66897  10.699   2.127   1.561 -0.5239  1.5888  2.6989
  496MOL0     H66898  10.877   2.128   1.538  0.4254  2.0942  2.4944
  496MOL0     H66899  10.784   1.938   1.749 -1.8913 -0.1614 -0.2860
  496MOL0     H66900  10.718   1.903   1.600 -0.6713 -0.4594 -0.0610
  496MOL0     H66901  10.985   1.901   1.507 -0.2310 -1.3963 -0.0152
  496MOL0     H66902  11.025   1.965   1.658  0.7270  1.9766 -1.4157
  496MOL0     H66903  10.889   1.694   1.653 -0.6122  0.0059  2.2046
  496MOL0     H66904  11.055   1.714   1.598 -1.5203  0.4051 -1.4435
  496MOL0     H66905  11.142   1.746   1.799  1.2202 -0.5401  2.5101
  496MOL0     H66906  11.017   1.856   1.854  0.5021  1.2672 -2.2816
  496MOL0     H66907  10.867   1.653   1.915 -0.2605  0.3923  2.0370
  496MOL0     H66908  11.002   1.547   1.858 -1.7727 -4.1265  5.4515
  496MOL0     H66909  10.956   1.590   2.125  0.1146  0.9670 -0.3151
  496MOL0     H66910  11.028   1.740   2.102  1.2868 -0.0118  1.6020
  496MOL0     H66911  11.241   1.664   2.257  1.7273  0.2815  0.4308
  496MOL0     H66912  11.443   1.502   2.376 -0.4489 -0.7115  0.8118
  496MOL0     H66913  11.444   1.352   2.299 -2.0648  0.2061 -1.4445
  496MOL0     H66914  11.594   1.457   2.109  0.2957 -1.2992  0.8091
  496MOL0     H66915  11.666   1.438   2.261 -0.8993 -2.9979 -1.2754
  496MOL0     H66916  11.515   1.695   2.186  0.4067  0.8251  0.3125
  496MOL0     H66917  11.684   1.688   2.146  1.8914  0.6791  1.9428
  496MOL0     H66918  11.564   1.722   2.422  0.2618 -0.5130  0.5552
  496MOL0     H66919  11.674   1.828   2.329 -1.9885 -0.9178 -2.4662
  496MOL0     H66920  11.903   1.492   2.286 -3.2215  1.7875 -2.1186
  496MOL0     H66921  12.184   1.546   2.109  1.1369  0.9882  0.1259
  496MOL0     H66922  12.273   1.542   2.260 -1.2772  1.6796  3.0474
  496MOL0     H66923  12.152   1.422   2.235  3.7890 -0.5221 -0.2840
  496MOL0     H66924  12.343   2.141   2.334 -0.6811  0.1337  3.1342
  496MOL0     H66925  12.558   2.260   2.265  0.9742  0.2008  0.4390
  496MOL0     H66926  12.696   2.198   2.035  0.4107 -0.0063  0.5789
  496MOL0     H66927  12.737   2.319   2.139  0.5635  2.4430 -2.8290
  496MOL0     H66928  12.893   2.343   1.960  0.4406  2.3881  1.9719
  496MOL0     H66929  12.952   2.326   2.124 -4.1309  0.4846  1.8384
  496MOL0     H66930  12.958   2.141   1.879 -0.7571 -0.6246  0.7310
  496MOL0     H66931  12.956   2.058   2.036 -0.0789  3.2261  3.2561
  496MOL0     H66932  13.174   2.259   1.935  1.3068 -0.1269  1.6192
  496MOL0     H66933  13.154   2.216   2.098  0.5424  5.8496 -1.6742
  496MOL0     H66934  13.332   2.076   1.926  1.3378 -4.4943 -0.7140
  496MOL0     H66935  13.192   2.001   1.870 -0.7710  0.4462 -0.7510
  496MOL0     H66936  13.136   1.929   2.116  0.1931 -1.8073  0.5802
  496MOL0     H66937  13.273   1.861   2.020 -0.3990  0.2879 -3.8080
  496MOL0     H66938  13.297   2.090   2.230 -2.5808 -1.5465  2.1203
  496MOL0     H66939  13.423   2.023   2.117 -1.3971  1.1622 -0.9048
  496MOL0     H66940  13.384   1.790   2.225  0.0313  0.2347 -0.3137
  496MOL0     H66941  13.266   1.858   2.338 -0.2254 -1.6523 -0.9423
  496MOL0     H66942  12.767   1.894   2.286  0.0243  0.8491 -0.7657
  496MOL0     H66943  12.547   1.775   2.323 -3.2182 -0.1821  0.7228
  496MOL0     H66944  12.090   1.943   2.416  0.6555 -0.4399  0.9807
  496MOL0     H66945  11.851   1.883   2.475  2.9891  3.9914  1.2799
  496MOL0     H66946  10.461   2.075   1.777 -3.7877 -0.3168  0.4036
  496MOL0     H66947  10.267   2.216   1.731  0.7693 -0.7560  0.5454
  496MOL0     H66948   9.989   2.609   1.902  2.7452  0.5109 -1.5451
  496MOL0     H66949   9.787   2.747   1.827 -2.4437  0.8234 -2.5268
  496MOL0     H66950   9.781   2.894   1.398 -0.9696 -2.4880 -3.9378
  496MOL0     H66951   9.674   2.763   1.414  1.8153  0.7019 -0.1891
  496MOL0     H66952   9.611   3.046   1.483 -0.6162 -1.5631  3.5585
  496MOL0     H66953   9.494   2.912   1.503  0.7398  0.5414  2.0302
  496MOL0     H66954   9.426   3.031   1.305 -0.5044 -0.4839 -1.0030
  496MOL0     H66955   9.488   2.879   1.264 -0.2210  0.2913  1.3720
  496MOL0     H66956   9.711   2.963   1.220  0.4370  0.2048 -1.0493
  496MOL0     H66957   9.657   3.130   1.264  1.5205 -0.5157 -0.3851
  496MOL0     H66958   9.487   3.117   0.891 -3.2214 -1.4629  0.5151
  496MOL0     H66959   9.916   2.707   1.420 -2.4943 -0.3272  0.0838
  496MOL0     H66960  10.117   2.584   1.502  0.5200  0.0650 -0.8312
  497MOL0     O66961   1.993   4.606   5.062  0.0304  0.5748 -0.5441
  497MOL0     C66962   1.983   4.632   5.184 -0.6706  0.0031 -0.1761
  497MOL0     O66963   2.073   4.719   5.257 -0.2808  0.3393  0.2065
  497MOL0     C66964   2.187   4.772   5.196 -0.5143 -0.5271 -0.6311
  497MOL0     C66965   2.290   4.786   5.285 -0.4951 -0.0901 -0.6977
  497MOL0     C66966   2.417   4.834   5.255  0.0210  1.0777  0.0533
  497MOL0     C66967   2.455   4.855   5.121  0.8914 -0.2289  0.2595
  497MOL0     O66968   2.594   4.880   5.089 -0.5760  0.4427 -0.2005
  497MOL0     C66969   2.628   4.959   4.980 -0.5657 -0.6944  0.2801
  497MOL0     C66970   2.758   5.048   4.998 -0.0683 -0.2290 -0.5871
  497MOL0     C66971   2.748   5.136   5.118 -0.0786 -0.0337 -0.5644
  497MOL0     C66972   2.870   5.223   5.138 -0.3702  0.0389 -0.1010
  497MOL0     C66973   2.846   5.344   5.218  0.2045 -1.1497  0.8808
  497MOL0     C66974   2.982   5.410   5.253 -0.5192 -0.3544  1.0509
  497MOL0     C66975   3.036   5.417   5.397  0.0801  0.5059  1.1580
  497MOL0     C66976   3.151   5.511   5.424  0.5884  0.0283  0.4967
  497MOL0     N66977   3.185   5.496   5.568 -0.6232  0.6487 -0.5439
  497MOL0     C66978   3.105   5.440   5.665  0.9294 -0.3643 -0.3307
  497MOL0     C66979   3.180   5.423   5.777 -0.7320 -0.3916  0.0938
  497MOL0     C66980   3.123   5.388   5.909 -0.5607  0.0894  0.4816
  497MOL0     C66981   3.014   5.279   5.911 -0.5336  0.0544  0.0293
  497MOL0     C66982   3.006   5.237   6.057  1.1615 -0.3062  1.1217
  497MOL0     C66983   2.910   5.113   6.069  0.4567  0.3752 -0.3437
  497MOL0     O66984   2.786   5.128   5.997  0.2856  0.8012  0.1448
  497MOL0     C66985   2.689   5.034   6.009  0.4175 -0.8678 -0.5420
  497MOL0     C66986   2.563   5.062   5.948 -0.0660  0.5093 -0.2266
  497MOL0     C66987   2.450   4.986   5.984 -0.9351 -0.9706  0.3308
  497MOL0     C66988   2.314   5.027   5.923  0.0815  0.8280 -0.1089
  497MOL0     C66989   2.455   4.876   6.066 -0.1004  0.2840 -0.5190
  497MOL0     C66990   2.347   4.787   6.118 -0.7120 -0.4814  0.1310
  497MOL0     O66991   2.382   4.675   6.188 -0.2764  0.2017 -0.4216
  497MOL0     C66992   2.294   4.600   6.273  0.1457 -0.5485 -0.3383
  497MOL0     C66993   2.185   4.519   6.231 -0.4987 -0.1476 -0.0807
  497MOL0     C66994   2.103   4.459   6.322 -0.1047  0.4052  0.3453
  497MOL0     C66995   2.118   4.484   6.456 -0.2501  0.3843 -0.8192
  497MOL0     O66996   2.050   4.404   6.543  0.0202 -0.2058 -0.4747
  497MOL0     C66997   2.100   4.387   6.678 -0.0142  0.3595  0.8112
  497MOL0     C66998   2.093   4.244   6.730 -0.3594  0.1670  0.0626
  497MOL0     C66999   2.188   4.215   6.851  0.0617 -0.1801 -0.2784
  497MOL0     C67000   2.183   4.076   6.911  0.5848 -0.0276  0.2961
  497MOL0     C67001   2.065   4.054   7.002 -0.4089  0.1901  0.0913
  497MOL0     C67002   2.047   3.897   7.026  0.6010 -0.0991 -0.1330
  497MOL0     C67003   2.114   3.847   7.156  0.8366  0.2874  0.1549
  497MOL0     C67004   2.100   3.696   7.170 -0.7863  0.5388 -0.0377
  497MOL0    Cl67005   2.120   3.644   7.344 -0.0766 -0.0258  0.2848
  497MOL0     C67006   2.214   4.572   6.501  0.1331 -0.4911 -0.3737
  497MOL0     C67007   2.302   4.632   6.413  0.3575 -0.4750 -0.2213
  497MOL0     O67008   2.227   4.828   6.107 -1.0420  0.6505  0.1316
  497MOL0     C67009   2.584   4.848   6.128  0.2673  0.0070 -0.5503
  497MOL0     C67010   2.695   4.923   6.097 -1.0171  0.4494 -0.3532
  497MOL0     N67011   3.306   5.462   5.743  0.1990  0.3335 -0.2571
  497MOL0     N67012   3.308   5.507   5.622 -0.0211  0.5696  0.2508
  497MOL0     C67013   2.352   4.839   5.022 -0.5698 -0.2704  1.5872
  497MOL0     C67014   2.224   4.796   5.059 -0.0638  0.6491  0.1226
  497MOL0     C67015   1.872   4.564   5.257  0.3325  0.4681  0.6884
  497MOL0     C67016   1.870   4.565   5.402 -1.1079 -0.0171 -0.1853
  497MOL0     C67017   1.754   4.537   5.471 -0.4102  0.8610 -0.0162
  497MOL0     C67018   1.639   4.508   5.403 -0.6236  0.1846 -0.0173
  497MOL0     O67019   1.531   4.471   5.477 -0.7446 -0.6055  0.5427
  497MOL0     C67020   1.405   4.514   5.422 -0.0223  0.4667 -1.2149
  497MOL0     C67021   1.296   4.478   5.521 -0.5792 -0.5519  0.4444
  497MOL0     C67022   1.274   4.327   5.526 -0.2469 -0.5905  0.0384
  497MOL0     C67023   1.127   4.307   5.566  1.0856 -0.4681 -0.3093
  497MOL0     C67024   1.098   4.167   5.571  0.0515  0.4062  0.2432
  497MOL0     C67025   1.089   4.050   5.598  0.2919 -0.5147 -0.1769
  497MOL0     C67026   1.639   4.504   5.265 -0.6116  0.0284 -0.4273
  497MOL0     C67027   1.761   4.517   5.189 -0.4137  0.5097 -0.6658
  497MOL0     H67028   2.277   4.761   5.390  1.6658  1.7832  0.0751
  497MOL0     H67029   2.495   4.827   5.330  1.0293 -1.5092 -1.1235
  497MOL0     H67030   2.649   4.893   4.896  1.6468  0.1026  0.1307
  497MOL0     H67031   2.555   5.034   4.948  2.6210  2.7527  0.3667
  497MOL0     H67032   2.840   4.982   5.026 -0.3797 -0.8165 -1.0415
  497MOL0     H67033   2.779   5.108   4.909  1.3609 -0.0505 -0.1483
  497MOL0     H67034   2.661   5.200   5.098 -0.0580  0.1187 -0.1911
  497MOL0     H67035   2.721   5.082   5.210 -1.5228 -2.0598 -2.0965
  497MOL0     H67036   2.944   5.151   5.175 -2.9806 -1.6408  2.2021
  497MOL0     H67037   2.888   5.252   5.034 -4.3653 -1.2474 -1.3482
  497MOL0     H67038   2.771   5.406   5.168 -1.3843 -3.9135 -0.3968
  497MOL0     H67039   2.797   5.315   5.312 -2.9400 -0.3002 -0.3743
  497MOL0     H67040   3.056   5.356   5.194  1.4737 -1.7393  4.4664
  497MOL0     H67041   2.978   5.511   5.213 -2.5220 -0.8094 -0.0495
  497MOL0     H67042   2.953   5.448   5.461 -1.8295  0.5449 -1.1900
  497MOL0     H67043   3.072   5.315   5.408  1.2912 -0.0858 -4.6151
  497MOL0     H67044   3.128   5.616   5.401  0.5869 -0.8188 -4.6560
  497MOL0     H67045   3.232   5.474   5.360 -0.4629 -1.9509  0.2410
  497MOL0     H67046   3.005   5.403   5.646  0.2114  0.5190  1.5727
  497MOL0     H67047   3.202   5.342   5.969 -0.2522 -0.2029 -0.1408
  497MOL0     H67048   3.089   5.478   5.961 -0.6268 -1.1618  2.7273
  497MOL0     H67049   3.038   5.200   5.839 -0.6559  0.2823 -0.2616
  497MOL0     H67050   2.921   5.330   5.884 -0.0374  0.3381 -1.1969
  497MOL0     H67051   2.981   5.326   6.115  2.6404  0.4911  0.5757
  497MOL0     H67052   3.103   5.206   6.096  1.1591  1.0265  2.2759
  497MOL0     H67053   2.899   5.103   6.177 -2.0770  2.5208 -0.2884
  497MOL0     H67054   2.958   5.023   6.030  1.9702  1.2738 -0.6121
  497MOL0     H67055   2.565   5.153   5.887  2.4230  1.4114  1.0735
  497MOL0     H67056   2.257   5.070   6.006 -1.5335  2.5658 -2.0250
  497MOL0     H67057   2.319   5.108   5.850 -0.1350  2.7065  1.8545
  497MOL0     H67058   2.276   4.935   5.878  2.8061  0.5492 -2.0974
  497MOL0     H67059   2.190   4.491   6.127 -0.0062  0.0654 -0.1175
  497MOL0     H67060   2.032   4.389   6.279  1.3786 -0.0120 -1.5452
  497MOL0     H67061   2.209   4.397   6.675  0.5959 -4.2694  0.7420
  497MOL0     H67062   2.060   4.463   6.747  2.0223  0.7934  1.5946
  497MOL0     H67063   1.991   4.217   6.758  0.2060 -0.4959  1.5747
  497MOL0     H67064   2.139   4.186   6.650  0.9345 -0.2925  1.1157
  497MOL0     H67065   2.185   4.292   6.929 -0.9726  1.1640 -1.5862
  497MOL0     H67066   2.293   4.223   6.821  0.2025 -5.0268 -1.9387
  497MOL0     H67067   2.185   4.000   6.833 -0.0629 -0.2744  0.5112
  497MOL0     H67068   2.273   4.057   6.970  1.7533 -1.5880 -1.8667
  497MOL0     H67069   1.971   4.100   6.971  0.4094  0.6658 -1.8291
  497MOL0     H67070   2.080   4.114   7.092 -4.3903  1.7341 -0.0791
  497MOL0     H67071   1.941   3.879   7.046  0.0705  1.3305 -1.4277
  497MOL0     H67072   2.068   3.852   6.929 -2.9298  3.3829 -2.8449
  497MOL0     H67073   2.061   3.891   7.240  0.5629  2.3687 -1.0573
  497MOL0     H67074   2.219   3.877   7.169  0.4872  1.7166 -0.2032
  497MOL0     H67075   2.173   3.648   7.104 -0.2029  1.4545 -0.0802
  497MOL0     H67076   2.000   3.666   7.139 -2.4857  2.0201  3.4764
  497MOL0     H67077   2.229   4.606   6.603  0.8236  1.5525 -1.1009
  497MOL0     H67078   2.360   4.714   6.454 -3.3011  3.0251 -1.3992
  497MOL0     H67079   2.605   4.755   6.180  0.6934 -0.2104 -1.0954
  497MOL0     H67080   2.782   4.891   6.154 -1.0566  1.8433  0.5179
  497MOL0     H67081   2.376   4.863   4.919  0.6148  1.5169  2.2324
  497MOL0     H67082   2.152   4.782   4.980  1.0624 -2.5576 -0.4529
  497MOL0     H67083   1.961   4.591   5.456 -0.4895 -1.8472 -0.2779
  497MOL0     H67084   1.752   4.531   5.580 -0.4490 -0.1690 -0.0681
  497MOL0     H67085   1.392   4.622   5.419 -2.0903  0.2841 -0.2882
  497MOL0     H67086   1.387   4.465   5.326 -0.9058 -1.7743  0.0362
  497MOL0     H67087   1.209   4.543   5.511  1.6808  2.9508  1.8428
  497MOL0     H67088   1.330   4.514   5.618  0.2075 -0.3606  0.1119
  497MOL0     H67089   1.342   4.277   5.594  3.9396  1.2159 -2.4528
  497MOL0     H67090   1.280   4.277   5.428 -0.0686  0.3786 -0.4534
  497MOL0     H67091   1.079   4.356   5.481  0.3323  0.4293  0.6118
  497MOL0     H67092   1.102   4.353   5.662 -1.8520  0.4727 -1.4257
  497MOL0     H67093   1.092   3.945   5.621  0.9800 -0.9829 -2.2344
  497MOL0     H67094   1.552   4.485   5.203 -1.3744  0.9405  0.3286
  497MOL0     H67095   1.765   4.505   5.081  0.0627 -4.4605 -0.3050
  498MOL0     O67096   7.540   8.830   0.701  0.5769 -0.3326 -0.3092
  498MOL0     C67097   7.451   8.853   0.777  0.4671  0.9715  0.3634
  498MOL0     O67098   7.334   8.782   0.798 -0.1601 -0.1828  0.5944
  498MOL0     C67099   7.297   8.688   0.710  0.0227 -0.0103 -0.0267
  498MOL0     C67100   7.241   8.568   0.765  0.3823 -0.4894  1.1372
  498MOL0     C67101   7.162   8.485   0.686  0.2051 -1.0093 -0.0704
  498MOL0     C67102   7.142   8.516   0.548  0.0617  0.8209  1.3354
  498MOL0     O67103   7.059   8.455   0.461  1.3017  0.1788  0.4164
  498MOL0     C67104   7.005   8.330   0.500  0.0178  0.6214 -0.2998
  498MOL0     C67105   7.095   8.213   0.472  0.4808 -0.5573 -0.0196
  498MOL0     C67106   7.121   8.197   0.319 -0.1288  0.8445 -0.1528
  498MOL0     C67107   7.225   8.074   0.280  0.2183 -1.0451 -0.8840
  498MOL0     C67108   7.246   8.095   0.134  0.3637  0.4579 -0.8315
  498MOL0     C67109   7.140   8.024   0.059  0.3549  1.0332  1.0023
  498MOL0     C67110   7.125   7.865   0.085 -0.2326  0.0716 -0.2369
  498MOL0     C67111   6.987   7.829   0.015 -0.6116 -0.2642  0.6138
  498MOL0     N67112   7.009   7.795  -0.123 -0.2882  0.4119 -0.4535
  498MOL0     C67113   7.043   7.663  -0.167  0.3364 -1.2898  0.6072
  498MOL0     C67114   7.019   7.672  -0.300  0.2567 -0.2039  0.6828
  498MOL0     C67115   7.024   7.555  -0.390 -0.0311  0.3009  0.4439
  498MOL0     C67116   7.112   7.441  -0.348  0.6725  0.9226 -0.5082
  498MOL0     C67117   7.137   7.328  -0.452 -0.3103 -0.4643 -0.5705
  498MOL0     C67118   7.251   7.235  -0.415  0.2791 -0.1550  0.0947
  498MOL0     O67119   7.315   7.189  -0.538 -0.0224 -0.5431  0.0454
  498MOL0     C67120   7.427   7.110  -0.528  0.5527 -0.2809 -0.0975
  498MOL0     C67121   7.492   7.082  -0.405 -0.2231  0.7694  0.1894
  498MOL0     C67122   7.592   6.978  -0.411  0.8240  0.7573  0.2997
  498MOL0     C67123   7.680   6.969  -0.284 -0.1804 -0.2316 -0.4067
  498MOL0     C67124   7.635   6.914  -0.527 -0.2454  0.1335  0.2497
  498MOL0     C67125   7.731   6.808  -0.527 -0.0602 -0.2145  0.0878
  498MOL0     O67126   7.811   6.814  -0.637  0.1585 -0.1324  0.0436
  498MOL0     C67127   7.915   6.721  -0.633 -0.0931 -0.2536  0.7132
  498MOL0     C67128   8.043   6.781  -0.621  0.4069 -0.3853  0.3759
  498MOL0     C67129   8.150   6.695  -0.632 -0.9210  0.4779  0.3325
  498MOL0     C67130   8.138   6.557  -0.654  0.2586  0.2835  1.0600
  498MOL0     O67131   8.244   6.466  -0.664  0.1106 -0.3896  0.3756
  498MOL0     C67132   8.307   6.462  -0.536  0.1244  0.3299 -0.4969
  498MOL0     C67133   8.446   6.396  -0.558  0.2100 -0.7289 -0.6724
  498MOL0     C67134   8.561   6.492  -0.498  0.6591 -0.3671 -0.0768
  498MOL0     C67135   8.704   6.432  -0.506 -0.9177 -0.3781  0.2573
  498MOL0     C67136   8.814   6.538  -0.456 -0.4075 -0.0877  0.5317
  498MOL0     C67137   8.798   6.567  -0.301  0.6600  0.9274 -1.0105
  498MOL0     C67138   8.814   6.440  -0.212  0.3447  0.0701  0.0115
  498MOL0     C67139   8.819   6.473  -0.068 -0.6991  0.7170 -0.4018
  498MOL0    Cl67140   8.657   6.507  -0.005 -0.5109 -0.3151  0.4636
  498MOL0     C67141   8.013   6.500  -0.669  1.1532  0.8905  0.2248
  498MOL0     C67142   7.898   6.580  -0.649  0.8006 -0.1417  0.1990
  498MOL0     O67143   7.737   6.725  -0.435 -0.3909 -0.1345 -0.0443
  498MOL0     C67144   7.564   6.950  -0.643  1.1166 -0.4730  0.9149
  498MOL0     C67145   7.462   7.043  -0.650  0.8322 -0.0531  0.1306
  498MOL0     N67146   6.989   7.804  -0.333  0.2723  0.3027  0.9986
  498MOL0     N67147   6.991   7.874  -0.230 -0.5183 -0.0052  0.9227
  498MOL0     C67148   7.208   8.624   0.496  0.4179 -0.0912  1.3084
  498MOL0     C67149   7.290   8.705   0.574  0.4595 -0.3551 -0.4817
  498MOL0     C67150   7.482   8.957   0.873  0.1941  0.0102  0.0736
  498MOL0     C67151   7.614   8.984   0.922 -0.8239  0.3530  0.5836
  498MOL0     C67152   7.648   9.083   1.019  0.1064  0.6194  0.3075
  498MOL0     C67153   7.539   9.150   1.077 -0.7931 -0.9639  0.9909
  498MOL0     O67154   7.552   9.250   1.162  0.9067  0.0808 -0.0970
  498MOL0     C67155   7.671   9.295   1.216 -0.6141  0.6895  0.0943
  498MOL0     C67156   7.654   9.422   1.301 -0.3194  0.0550 -0.0347
  498MOL0     C67157   7.664   9.548   1.204  1.0137 -1.0283 -0.9508
  498MOL0     C67158   7.645   9.687   1.274  0.6471  0.0262  0.3720
  498MOL0     C67159   7.519   9.694   1.346  0.7535 -0.1345  0.9360
  498MOL0     C67160   7.420   9.696   1.416  0.3256 -1.0346 -0.7607
  498MOL0     C67161   7.406   9.117   1.036 -0.4663 -1.0621 -0.6577
  498MOL0     C67162   7.378   9.028   0.940  0.1313  0.3122 -0.0152
  498MOL0     H67163   7.259   8.555   0.872 -2.2551  0.8742  1.8395
  498MOL0     H67164   7.110   8.407   0.739  1.4177  0.1761  3.1115
  498MOL0     H67165   6.971   8.322   0.603 -1.2200 -1.0541 -0.7898
  498MOL0     H67166   6.910   8.312   0.449 -0.0265  2.1759 -0.8191
  498MOL0     H67167   7.191   8.238   0.518 -0.1559  1.5296  0.2769
  498MOL0     H67168   7.053   8.118   0.505 -0.2839 -0.9372 -1.9624
  498MOL0     H67169   7.024   8.179   0.273 -0.0760 -1.6842  0.5793
  498MOL0     H67170   7.162   8.292   0.283 -3.0169  1.3696 -2.3494
  498MOL0     H67171   7.318   8.110   0.323 -1.3420 -0.7081  2.5394
  498MOL0     H67172   7.188   7.978   0.318 -2.7602  0.1261 -0.4995
  498MOL0     H67173   7.254   8.199   0.101 -1.1609  1.1618  0.8798
  498MOL0     H67174   7.337   8.051   0.092  1.7751  0.9034  1.5744
  498MOL0     H67175   7.046   8.077   0.078  1.1409  1.7303  3.3217
  498MOL0     H67176   7.166   8.030  -0.047 -0.5524 -2.4009  0.4570
  498MOL0     H67177   7.210   7.818   0.035  0.2052 -3.6018  3.4237
  498MOL0     H67178   7.117   7.830   0.189  1.0783 -1.4037 -0.6059
  498MOL0     H67179   6.922   7.917   0.025  1.9612  1.6409  1.7279
  498MOL0     H67180   6.932   7.748   0.064 -0.3535 -1.4415 -0.9456
  498MOL0     H67181   7.070   7.575  -0.109  0.2465 -0.7327  1.5171
  498MOL0     H67182   6.925   7.508  -0.388 -0.0671  0.3875  1.0510
  498MOL0     H67183   7.058   7.582  -0.490  0.9401 -2.2596  0.0105
  498MOL0     H67184   7.066   7.387  -0.265  3.1340  0.4843  0.6627
  498MOL0     H67185   7.201   7.481  -0.299 -2.2042  3.4417  3.2828
  498MOL0     H67186   7.156   7.385  -0.543 -5.5771  2.1652 -0.4099
  498MOL0     H67187   7.042   7.281  -0.480 -0.4702  0.3590 -1.4698
  498MOL0     H67188   7.207   7.158  -0.351  0.1058 -0.3644 -0.2713
  498MOL0     H67189   7.315   7.294  -0.349 -0.8545  0.8015  0.3715
  498MOL0     H67190   7.456   7.132  -0.316 -2.3360  0.5392 -0.4810
  498MOL0     H67191   7.685   7.070  -0.241  0.0612 -1.1996  1.9900
  498MOL0     H67192   7.629   6.901  -0.215  0.0236  0.9579  0.9777
  498MOL0     H67193   7.776   6.919  -0.299 -0.3654 -1.3295  1.7282
  498MOL0     H67194   8.072   6.885  -0.612  2.7055 -0.8782 -0.6020
  498MOL0     H67195   8.252   6.732  -0.633  0.1424 -2.1976 -0.8280
  498MOL0     H67196   8.323   6.558  -0.485  1.7889 -0.3411  0.3222
  498MOL0     H67197   8.247   6.407  -0.463 -0.0846  1.6920  0.4100
  498MOL0     H67198   8.431   6.305  -0.500 -2.3987  0.1411  0.1557
  498MOL0     H67199   8.455   6.368  -0.663  2.3295 -4.4671  0.3285
  498MOL0     H67200   8.521   6.522  -0.401 -0.2478 -1.0073 -0.2382
  498MOL0     H67201   8.564   6.579  -0.564 -1.5477 -0.7132 -0.7013
  498MOL0     H67202   8.708   6.336  -0.453 -0.7120 -0.3815  0.2353
  498MOL0     H67203   8.730   6.410  -0.610  1.6376  0.9680  0.5493
  498MOL0     H67204   8.791   6.634  -0.502  3.7521  0.3143 -1.1710
  498MOL0     H67205   8.920   6.520  -0.478  0.0580  0.2525  2.3305
  498MOL0     H67206   8.874   6.635  -0.259  0.3465  0.4740  0.3588
  498MOL0     H67207   8.697   6.605  -0.286 -0.4286 -2.3016  0.9181
  498MOL0     H67208   8.908   6.394  -0.244  0.8196 -0.3219  1.8376
  498MOL0     H67209   8.739   6.363  -0.228  0.6850  0.1357 -2.3320
  498MOL0     H67210   8.898   6.548  -0.053  0.1381 -0.6509  3.1400
  498MOL0     H67211   8.854   6.386  -0.012 -1.6997 -0.3682 -1.4073
  498MOL0     H67212   8.000   6.392  -0.676 -0.2131  1.0978 -0.9734
  498MOL0     H67213   7.802   6.530  -0.651  0.7818 -0.1631 -2.5114
  498MOL0     H67214   7.591   6.902  -0.736 -0.5806 -1.2344  0.7735
  498MOL0     H67215   7.397   7.052  -0.737 -0.0730 -0.5375  0.7491
  498MOL0     H67216   7.209   8.653   0.392  2.0229  3.3114  2.1191
  498MOL0     H67217   7.341   8.782   0.517  0.2249  0.0412 -0.1545
  498MOL0     H67218   7.695   8.929   0.876 -3.7032 -2.4764 -1.5598
  498MOL0     H67219   7.751   9.108   1.042  0.7650 -1.4415 -0.2230
  498MOL0     H67220   7.725   9.231   1.287 -0.1266 -0.0003 -0.8675
  498MOL0     H67221   7.742   9.319   1.136  0.4988 -0.2036  0.7850
  498MOL0     H67222   7.728   9.431   1.381 -1.7563 -2.9366  1.8062
  498MOL0     H67223   7.566   9.406   1.364  0.9951  1.2337  2.2263
  498MOL0     H67224   7.568   9.545   1.152  0.5271 -0.6196 -0.1018
  498MOL0     H67225   7.754   9.555   1.142  1.4465  0.9381 -0.1787
  498MOL0     H67226   7.651   9.768   1.200  4.0717  0.2946  0.7812
  498MOL0     H67227   7.717   9.708   1.354 -1.6015  0.9361  2.2843
  498MOL0     H67228   7.330   9.702   1.474  0.9649 -2.5973  0.4630
  498MOL0     H67229   7.324   9.173   1.080  0.5701 -0.4152  0.5155
  498MOL0     H67230   7.282   9.004   0.897  1.1326 -2.3363 -0.9478
  499MOL0     O67231   3.070   2.034   3.811  0.2984 -0.3536 -0.9178
  499MOL0     C67232   3.096   1.957   3.901 -0.4602 -0.2879 -0.9982
  499MOL0     O67233   3.049   1.976   4.026 -0.1410 -0.2560  0.0704
  499MOL0     C67234   2.961   2.080   4.066 -0.4174 -0.0687  0.1100
  499MOL0     C67235   3.008   2.173   4.166 -0.2108  0.3300  0.9970
  499MOL0     C67236   2.939   2.294   4.189 -0.5165 -0.1612  0.8902
  499MOL0     C67237   2.822   2.318   4.126  0.4053 -0.9306 -0.3550
  499MOL0     O67238   2.749   2.422   4.185 -0.2832  0.7395  0.1667
  499MOL0     C67239   2.606   2.408   4.208  0.3233 -0.1828 -0.8726
  499MOL0     C67240   2.530   2.529   4.272  0.3167 -0.6080  0.9703
  499MOL0     C67241   2.549   2.642   4.173  0.1060 -0.7885 -0.0446
  499MOL0     C67242   2.543   2.781   4.242 -0.3075 -1.0581  0.3444
  499MOL0     C67243   2.536   2.898   4.140  0.0984 -0.6683 -0.1447
  499MOL0     C67244   2.676   2.942   4.079  0.0547  0.5233 -0.1823
  499MOL0     C67245   2.669   3.079   4.026 -0.4145 -0.5254  0.0674
  499MOL0     C67246   2.724   3.194   4.104 -0.0180  0.4159 -0.7547
  499MOL0     N67247   2.866   3.183   4.111 -0.0811  0.2967  0.0568
  499MOL0     C67248   2.961   3.172   4.010  0.1349  0.0476  0.4917
  499MOL0     C67249   3.089   3.166   4.071 -0.1245 -0.4042  0.6299
  499MOL0     C67250   3.226   3.163   3.999  0.3733  0.4832  0.7584
  499MOL0     C67251   3.269   3.022   3.963 -0.3263 -0.8755 -0.8213
  499MOL0     C67252   3.218   2.971   3.835  0.7057 -0.9887  0.6995
  499MOL0     C67253   3.227   2.818   3.832  0.3555  0.4250 -0.0885
  499MOL0     O67254   3.367   2.779   3.832  0.0626  0.2784 -0.6841
  499MOL0     C67255   3.399   2.656   3.883  0.0731 -0.0774  0.3469
  499MOL0     C67256   3.326   2.538   3.871  1.4497  0.1973 -0.3033
  499MOL0     C67257   3.377   2.411   3.906  0.3375  0.1955 -0.7177
  499MOL0     C67258   3.276   2.295   3.884  0.0446 -0.6871 -0.5184
  499MOL0     C67259   3.493   2.393   3.981  0.0149 -0.0022  1.1305
  499MOL0     C67260   3.549   2.266   4.029 -0.7153  0.1239  0.0846
  499MOL0     O67261   3.558   2.152   3.952 -0.0070  0.2730  0.5215
  499MOL0     C67262   3.634   2.041   3.988  0.0677  0.8629 -0.0405
  499MOL0     C67263   3.558   1.935   4.031 -0.1549  0.1238  0.0588
  499MOL0     C67264   3.620   1.812   4.056 -0.2115 -0.5994  0.5045
  499MOL0     C67265   3.760   1.797   4.033  0.1863 -0.1287 -0.4418
  499MOL0     O67266   3.826   1.677   4.061  0.3109  0.6812 -0.0191
  499MOL0     C67267   3.766   1.557   4.040  1.1557  0.7811  0.2234
  499MOL0     C67268   3.885   1.456   4.023  0.6153 -0.0538 -1.0593
  499MOL0     C67269   3.855   1.320   4.060  0.0533  0.4707  0.3845
  499MOL0     C67270   3.854   1.294   4.210  0.5972  0.1068 -0.0293
  499MOL0     C67271   3.839   1.145   4.258  0.8599 -0.7879  0.5468
  499MOL0     C67272   3.880   1.140   4.408  0.0804  0.5494  0.0586
  499MOL0     C67273   3.877   0.997   4.442 -0.0539 -0.0259  0.2705
  499MOL0     C67274   3.849   0.973   4.590 -0.0966  0.9071  0.5684
  499MOL0    Cl67275   3.792   0.806   4.608  0.0125 -0.1816  0.2648
  499MOL0     C67276   3.836   1.901   3.991  0.3067  0.0171 -0.0620
  499MOL0     C67277   3.771   2.028   3.975 -0.3989 -0.9127  0.5032
  499MOL0     O67278   3.605   2.280   4.140 -0.2749  0.8835  0.0410
  499MOL0     C67279   3.563   2.510   4.010 -0.1840  0.5104 -0.5643
  499MOL0     C67280   3.511   2.639   3.967 -0.8935 -1.0904 -0.1251
  499MOL0     N67281   3.065   3.183   4.203 -0.5608 -0.0646  1.4385
  499MOL0     N67282   2.942   3.199   4.224  1.0716 -0.4595  0.0221
  499MOL0     C67283   2.758   2.222   4.045 -0.2299 -0.5970 -0.4246
  499MOL0     C67284   2.832   2.104   4.012 -0.2619  0.3623 -0.5973
  499MOL0     C67285   3.190   1.846   3.862  0.7231 -1.4001 -0.0634
  499MOL0     C67286   3.247   1.764   3.961 -0.3571 -0.3663 -0.2127
  499MOL0     C67287   3.334   1.663   3.928  0.2737  0.8907  0.2478
  499MOL0     C67288   3.375   1.642   3.795  0.3426  0.2107  0.9404
  499MOL0     O67289   3.496   1.570   3.785 -0.3987 -0.5329  0.4423
  499MOL0     C67290   3.570   1.553   3.656  0.3471  0.3378 -0.0614
  499MOL0     C67291   3.641   1.693   3.629 -0.8215 -0.0500  0.0459
  499MOL0     C67292   3.719   1.692   3.496  0.5398  0.1456  0.9848
  499MOL0     C67293   3.868   1.676   3.508  0.2436 -0.1474  1.8272
  499MOL0     C67294   3.917   1.537   3.461  0.5447  0.4807  0.0156
  499MOL0     C67295   3.934   1.426   3.423  0.9852  0.4284  1.0511
  499MOL0     C67296   3.315   1.722   3.691  1.3038 -0.3974  0.4948
  499MOL0     C67297   3.216   1.813   3.729  0.0316 -0.0621 -0.5851
  499MOL0     H67298   3.106   2.166   4.214  0.1545 -0.2722  0.1800
  499MOL0     H67299   2.981   2.369   4.256 -2.5324  1.8795 -0.0067
  499MOL0     H67300   2.562   2.391   4.110  0.4943 -0.9608 -0.8154
  499MOL0     H67301   2.579   2.321   4.267 -0.0037 -0.7965 -1.9069
  499MOL0     H67302   2.426   2.495   4.271  0.2326 -0.3994 -1.4758
  499MOL0     H67303   2.562   2.547   4.375 -3.6775  2.8276  1.9062
  499MOL0     H67304   2.640   2.637   4.114 -0.0356  3.1629 -0.9367
  499MOL0     H67305   2.464   2.633   4.104 -0.5511  1.1575  0.4327
  499MOL0     H67306   2.445   2.776   4.292 -1.0312  1.3624 -0.6942
  499MOL0     H67307   2.627   2.792   4.312  1.2315 -0.6527 -1.4917
  499MOL0     H67308   2.484   2.876   4.046  3.2128 -0.2288 -2.1060
  499MOL0     H67309   2.487   2.984   4.187  0.3121  0.6353 -2.1565
  499MOL0     H67310   2.744   2.931   4.164 -2.9860  0.0424  2.3452
  499MOL0     H67311   2.708   2.875   3.998  1.0137  2.9436 -1.9204
  499MOL0     H67312   2.710   3.066   3.926  0.8617 -1.7274  0.7103
  499MOL0     H67313   2.562   3.098   4.010 -0.3290 -2.2084 -3.3660
  499MOL0     H67314   2.675   3.202   4.201 -1.9362  0.0913 -1.6524
  499MOL0     H67315   2.694   3.286   4.052 -1.5768  0.7292  0.6243
  499MOL0     H67316   2.935   3.171   3.904 -0.2803  3.1270  0.4699
  499MOL0     H67317   3.227   3.223   3.908  1.5419 -0.0560  0.3960
  499MOL0     H67318   3.309   3.211   4.052  0.0486  2.5887 -0.5189
  499MOL0     H67319   3.247   2.959   4.049  0.1552  0.5323  0.3812
  499MOL0     H67320   3.378   3.022   3.972 -0.4881  1.3949  2.9100
  499MOL0     H67321   3.270   3.019   3.752 -3.5990  0.2791 -1.5920
  499MOL0     H67322   3.113   3.001   3.828  0.9438  1.1673  3.7709
  499MOL0     H67323   3.177   2.777   3.744 -3.5875  2.9322  0.7323
  499MOL0     H67324   3.164   2.767   3.905 -0.4094 -0.5283 -1.3784
  499MOL0     H67325   3.229   2.532   3.823  0.8067 -0.1739  0.9803
  499MOL0     H67326   3.229   2.310   3.786 -0.1484  1.1984 -0.1769
  499MOL0     H67327   3.327   2.198   3.888 -0.8502 -1.2647 -2.0643
  499MOL0     H67328   3.206   2.293   3.968  1.5230  0.5160  0.8076
  499MOL0     H67329   3.450   1.934   4.041 -0.0899  0.5036  0.8571
  499MOL0     H67330   3.552   1.729   4.072  3.5874 -4.5978 -2.0308
  499MOL0     H67331   3.705   1.529   4.127  0.5144  3.2448  0.6299
  499MOL0     H67332   3.694   1.559   3.958 -0.0932  3.0105  1.2677
  499MOL0     H67333   3.918   1.452   3.919  0.0542  1.2274 -1.3051
  499MOL0     H67334   3.970   1.486   4.085  1.3743 -0.2901 -1.9611
  499MOL0     H67335   3.944   1.272   4.016 -1.5725 -1.8099 -0.6524
  499MOL0     H67336   3.770   1.274   4.009 -1.6717  3.3698  0.4406
  499MOL0     H67337   3.936   1.343   4.264  0.2333 -0.3727  0.9900
  499MOL0     H67338   3.776   1.361   4.247  2.1198  1.1837  1.3710
  499MOL0     H67339   3.896   1.082   4.189 -1.2234 -4.0924  1.6099
  499MOL0     H67340   3.736   1.109   4.255  0.8871 -0.8507 -2.2187
  499MOL0     H67341   3.981   1.183   4.413  0.2955 -0.0797  1.5299
  499MOL0     H67342   3.815   1.203   4.470 -0.2449 -0.3883  0.6803
  499MOL0     H67343   3.969   0.950   4.406 -1.6449 -3.5249  0.3596
  499MOL0     H67344   3.786   0.960   4.393 -1.7544  5.0450 -0.9718
  499MOL0     H67345   3.771   1.033   4.637  0.4374  1.9098  0.2103
  499MOL0     H67346   3.948   0.987   4.634  1.7029 -0.4742 -2.6449
  499MOL0     H67347   3.943   1.898   3.973  1.1770  1.1825  3.9626
  499MOL0     H67348   3.843   2.106   3.950 -0.2828 -1.7491 -2.0768
  499MOL0     H67349   3.656   2.499   4.066  0.8332  0.0889 -2.2670
  499MOL0     H67350   3.572   2.725   3.993  0.1788 -1.4296 -1.4006
  499MOL0     H67351   2.657   2.239   4.010 -0.7296 -2.9522 -0.2641
  499MOL0     H67352   2.785   2.031   3.947 -2.0010 -0.9725  1.9591
  499MOL0     H67353   3.219   1.789   4.063  0.5672  3.2039 -0.7082
  499MOL0     H67354   3.379   1.602   4.006 -0.3769 -1.0626 -0.8265
  499MOL0     H67355   3.653   1.485   3.677 -0.3103 -1.0099 -1.5570
  499MOL0     H67356   3.501   1.520   3.578  0.0199 -0.2903  0.4870
  499MOL0     H67357   3.710   1.729   3.707 -3.3558 -1.9362  3.4609
  499MOL0     H67358   3.572   1.775   3.607  1.5347  2.2859  0.8290
  499MOL0     H67359   3.708   1.784   3.438 -1.9612 -0.3641  0.5445
  499MOL0     H67360   3.672   1.616   3.433  0.3794  0.4185  0.7712
  499MOL0     H67361   3.909   1.691   3.609  2.7839 -0.1736  0.8813
  499MOL0     H67362   3.920   1.752   3.450  0.5985 -1.6845  0.0514
  499MOL0     H67363   3.951   1.323   3.400  2.3522  1.1562 -1.6047
  499MOL0     H67364   3.335   1.719   3.584 -1.6375 -1.2667 -0.1247
  499MOL0     H67365   3.169   1.869   3.649 -5.3179  0.5098  2.4992
  500MOL0     O67366   1.104  10.069   6.790 -0.6816  0.9819  0.2919
  500MOL0     C67367   1.197  10.032   6.715  0.1297  0.5261 -0.6666
  500MOL0     O67368   1.293  10.121   6.653  0.0420  0.1175 -0.2021
  500MOL0     C67369   1.315  10.257   6.687  0.1199 -0.3318 -0.6526
  500MOL0     C67370   1.247  10.344   6.782  0.9026 -0.8633  0.8313
  500MOL0     C67371   1.284  10.479   6.793 -0.9972 -0.0863  0.1133
  500MOL0     C67372   1.411  10.516   6.732 -0.1413  0.3512  0.2724
  500MOL0     O67373   1.445  10.648   6.743  0.0967 -0.4779  0.3424
  500MOL0     C67374   1.576  10.686   6.736 -0.1309 -0.4857  0.2221
  500MOL0     C67375   1.582  10.835   6.678  1.0860  0.6406  0.0158
  500MOL0     C67376   1.516  10.853   6.542 -0.0190 -0.1423 -0.2956
  500MOL0     C67377   1.580  10.759   6.442 -0.7723 -0.0700  0.1721
  500MOL0     C67378   1.596  10.818   6.304 -1.0911  0.0026  0.3825
  500MOL0     C67379   1.464  10.809   6.242  0.8366 -0.8852  0.4969
  500MOL0     C67380   1.475  10.886   6.100  0.2319  0.3070  0.1112
  500MOL0     C67381   1.336  10.900   6.035  0.2399  1.3024  0.0115
  500MOL0     N67382   1.281  10.770   5.997 -0.0899  0.8092 -0.4833
  500MOL0     C67383   1.340  10.677   5.913  0.1231 -0.1401 -0.1103
  500MOL0     C67384   1.260  10.569   5.918 -0.1103  0.6476 -0.2953
  500MOL0     C67385   1.259  10.445   5.824 -0.4819  0.6957 -0.7062
  500MOL0     C67386   1.334  10.327   5.895 -0.0455  0.3035 -0.2878
  500MOL0     C67387   1.463  10.297   5.822 -0.9177 -0.3980  0.0288
  500MOL0     C67388   1.565  10.405   5.822 -0.7314  0.7677 -0.1175
  500MOL0     O67389   1.585  10.460   5.950 -0.3937 -0.0838 -0.3354
  500MOL0     C67390   1.671  10.401   6.031 -0.9862 -0.0489 -1.1554
  500MOL0     C67391   1.696  10.464   6.150 -0.4758 -0.6416  0.5649
  500MOL0     C67392   1.807  10.422   6.239 -0.8045  0.4016 -0.3238
  500MOL0     C67393   1.839  10.518   6.360 -0.3527  1.0498  0.3218
  500MOL0     C67394   1.889  10.302   6.207  0.0797 -0.1710 -0.6395
  500MOL0     C67395   2.009  10.243   6.270  0.2779  0.2275 -0.1024
  500MOL0     O67396   2.087  10.140   6.208 -0.1247 -0.2989  0.2138
  500MOL0     C67397   2.214  10.128   6.251  0.8959 -0.0937  0.3755
  500MOL0     C67398   2.250  10.092   6.379 -0.8355 -0.5511  0.6207
  500MOL0     C67399   2.383  10.082   6.420 -0.9526  0.8151  0.1680
  500MOL0     C67400   2.485  10.103   6.325 -0.3001 -0.1599  0.8285
  500MOL0     O67401   2.616  10.097   6.367  1.1683 -0.0000 -0.4487
  500MOL0     C67402   2.719  10.032   6.292 -1.4869  0.0679  0.4149
  500MOL0     C67403   2.847  10.032   6.381 -0.0190  0.4747  0.2359
  500MOL0     C67404   2.838   9.922   6.488 -0.1972 -0.7728  0.5358
  500MOL0     C67405   2.974   9.912   6.567 -0.5263  0.4282 -0.0311
  500MOL0     C67406   2.930   9.852   6.698 -0.6146 -0.3493  0.5409
  500MOL0     C67407   3.052   9.854   6.791  0.4787 -0.4339  0.4566
  500MOL0     C67408   3.016   9.766   6.910 -0.5366 -0.7804 -0.2277
  500MOL0     C67409   3.115   9.779   7.016 -0.1414  0.0877  0.2890
  500MOL0    Cl67410   3.087   9.641   7.126 -0.3797 -0.0821  0.3903
  500MOL0     C67411   2.450  10.124   6.190  0.0816  0.1017  0.5479
  500MOL0     C67412   2.314  10.146   6.152 -0.4764 -0.7747 -0.8941
  500MOL0     O67413   2.024  10.281   6.383  0.5869 -0.4944 -1.2204
  500MOL0     C67414   1.847  10.239   6.094  0.4767  0.9632  0.4996
  500MOL0     C67415   1.743  10.279   6.008  0.0144  0.2549  0.5210
  500MOL0     N67416   1.162  10.594   6.006 -1.5714 -0.6786 -0.6459
  500MOL0     N67417   1.168  10.713   6.045 -0.2070 -0.2115 -1.0446
  500MOL0     C67418   1.475  10.437   6.643 -0.0968  0.5684  0.3201
  500MOL0     C67419   1.422  10.316   6.616 -0.3621 -0.0618 -0.1261
  500MOL0     C67420   1.205   9.887   6.691  0.4273 -0.3100  0.1186
  500MOL0     C67421   1.278   9.839   6.577 -0.0201 -0.0902 -0.4275
  500MOL0     C67422   1.296   9.705   6.562  0.2717 -0.2123  0.6893
  500MOL0     C67423   1.238   9.612   6.642  0.2493  0.3863  0.4629
  500MOL0     O67424   1.273   9.480   6.629  0.5412 -0.7626  0.0741
  500MOL0     C67425   1.174   9.383   6.609 -0.0088  0.6778  1.1327
  500MOL0     C67426   1.214   9.246   6.646 -0.0395 -0.8339  0.5197
  500MOL0     C67427   1.110   9.144   6.617  0.1053  0.1762 -0.5354
  500MOL0     C67428   1.169   9.008   6.598  1.2361 -0.2021  0.6186
  500MOL0     C67429   1.069   8.900   6.595  0.8592  0.2585  0.4170
  500MOL0     C67430   1.003   8.798   6.582 -0.4216  1.3191 -0.8100
  500MOL0     C67431   1.176   9.662   6.757 -0.1945  0.2568  0.6590
  500MOL0     C67432   1.155   9.793   6.774  0.0257 -0.3336 -0.4630
  500MOL0     H67433   1.158  10.318   6.838  0.4231  2.4683  1.8307
  500MOL0     H67434   1.241  10.556   6.856  1.5740  1.0780  0.5727
  500MOL0     H67435   1.618  10.684   6.837 -0.6744  3.7406  0.7218
  500MOL0     H67436   1.645  10.624   6.678  2.2872  0.1801  2.2291
  500MOL0     H67437   1.534  10.895   6.755 -2.3926 -1.9054  0.1070
  500MOL0     H67438   1.687  10.856   6.661  1.3931 -0.0381  0.9593
  500MOL0     H67439   1.409  10.831   6.546  0.3038 -1.6047  1.5890
  500MOL0     H67440   1.519  10.958   6.512 -3.8981 -0.2594 -1.7960
  500MOL0     H67441   1.675  10.722   6.482 -0.3763  2.8912  2.2988
  500MOL0     H67442   1.512  10.674   6.455  1.8798 -2.3359  0.3060
  500MOL0     H67443   1.633  10.921   6.313  0.1024 -0.3415 -0.4660
  500MOL0     H67444   1.666  10.754   6.251 -3.2663 -0.0005 -2.7483
  500MOL0     H67445   1.435  10.705   6.223 -2.4758 -0.0923  0.5604
  500MOL0     H67446   1.389  10.856   6.306  0.8910  1.1801 -0.8618
  500MOL0     H67447   1.514  10.986   6.120  1.9940 -0.0162 -1.4207
  500MOL0     H67448   1.541  10.838   6.027 -4.2018  0.9374 -4.9040
  500MOL0     H67449   1.347  10.961   5.945 -0.2803  1.8520  0.3130
  500MOL0     H67450   1.270  10.947   6.108  0.0452  0.0646  0.6416
  500MOL0     H67451   1.421  10.685   5.842  0.6392 -2.8679  0.0870
  500MOL0     H67452   1.162  10.405   5.794  0.7389 -0.5377 -3.3272
  500MOL0     H67453   1.318  10.479   5.738  3.8944 -0.7911  1.4095
  500MOL0     H67454   1.272  10.237   5.904 -1.4195  1.3478  1.3125
  500MOL0     H67455   1.361  10.356   5.997 -1.1259 -2.9371  1.0471
  500MOL0     H67456   1.433  10.284   5.718 -1.2027  2.1511 -0.2876
  500MOL0     H67457   1.514  10.214   5.872  0.9119  1.1001  0.7737
  500MOL0     H67458   1.534  10.483   5.752  1.5636  0.6353 -1.3709
  500MOL0     H67459   1.653  10.358   5.775 -0.7550 -0.1777  0.7490
  500MOL0     H67460   1.642  10.558   6.161 -0.7340 -0.4873 -1.5926
  500MOL0     H67461   1.816  10.622   6.338 -0.2517  0.6516 -1.8910
  500MOL0     H67462   1.782  10.482   6.447 -2.7335 -0.1102 -1.5810
  500MOL0     H67463   1.947  10.510   6.376 -0.3083  0.9877 -0.0082
  500MOL0     H67464   2.178  10.078   6.459  0.0433  2.6342  2.1555
  500MOL0     H67465   2.420  10.051   6.517  1.3957  0.5550 -0.7479
  500MOL0     H67466   2.705   9.936   6.241 -1.4238  2.6672 -5.3001
  500MOL0     H67467   2.744  10.093   6.205  1.4942 -2.0955 -0.4143
  500MOL0     H67468   2.932  10.015   6.313  2.3636 -0.4918  3.2525
  500MOL0     H67469   2.853  10.127   6.433 -0.9378 -0.1698  1.5683
  500MOL0     H67470   2.815   9.825   6.443 -0.4896  0.0901 -1.2893
  500MOL0     H67471   2.755   9.952   6.554 -2.1811 -1.0163 -1.7138
  500MOL0     H67472   3.048   9.847   6.518 -1.4586 -2.2452  1.8236
  500MOL0     H67473   3.017  10.010   6.586 -3.5552  2.1432 -1.4212
  500MOL0     H67474   2.897   9.749   6.678 -1.4702 -0.1564  0.9562
  500MOL0     H67475   2.843   9.908   6.733 -0.0615  0.9472 -0.0782
  500MOL0     H67476   3.139   9.812   6.742 -1.1768 -1.3704 -1.8689
  500MOL0     H67477   3.077   9.957   6.819  0.0453  0.8238 -3.1965
  500MOL0     H67478   3.031   9.668   6.863 -0.6333  0.6060 -3.4314
  500MOL0     H67479   2.913   9.780   6.942 -0.5096 -0.2250 -0.3850
  500MOL0     H67480   3.097   9.873   7.069 -4.1347 -0.5669  0.3858
  500MOL0     H67481   3.217   9.784   6.976 -0.1339  0.5163  0.3568
  500MOL0     H67482   2.534  10.142   6.123  2.2901 -0.1068  3.0619
  500MOL0     H67483   2.290  10.179   6.052 -0.6529 -1.2874 -1.0227
  500MOL0     H67484   1.901  10.152   6.058 -1.1802 -0.1871  0.6748
  500MOL0     H67485   1.712  10.214   5.927 -0.2081  2.5297 -1.3163
  500MOL0     H67486   1.561  10.470   6.586  1.3790  1.1527  2.6954
  500MOL0     H67487   1.474  10.249   6.548  1.8734 -1.6094  2.8668
  500MOL0     H67488   1.314   9.912   6.506  1.2333  2.1591  2.3088
  500MOL0     H67489   1.352   9.678   6.473 -1.3396  1.9266 -1.1090
  500MOL0     H67490   1.093   9.421   6.673 -0.2260  1.8639  0.1925
  500MOL0     H67491   1.134   9.387   6.507 -1.5881  0.3281  1.7044
  500MOL0     H67492   1.258   9.245   6.747 -1.5470  0.8080  1.2617
  500MOL0     H67493   1.306   9.229   6.589  1.4096 -0.1128  2.5101
  500MOL0     H67494   1.061   9.171   6.523  0.6521 -0.8430 -1.1279
  500MOL0     H67495   1.029   9.150   6.690  0.5497  1.2259 -0.1035
  500MOL0     H67496   1.235   8.995   6.684 -1.0048  4.6527  3.5311
  500MOL0     H67497   1.221   9.011   6.502 -0.5163  2.5003 -0.3766
  500MOL0     H67498   0.935   8.715   6.583 -2.1316  2.4305  4.4488
  500MOL0     H67499   1.145   9.586   6.829 -1.0528 -1.6917 -1.6349
  500MOL0     H67500   1.113   9.823   6.869  1.6725 -0.5202  0.3645
  501MOL0     O67501  11.171   8.453   7.351 -0.0591  0.1004 -0.5297
  501MOL0     C67502  11.199   8.431   7.473  0.8648 -0.0118  1.2786
  501MOL0     O67503  11.291   8.340   7.508 -0.4715 -0.8321  0.0563
  501MOL0     C67504  11.374   8.274   7.421  0.1758  0.1687  0.6501
  501MOL0     C67505  11.482   8.346   7.350 -0.2763  0.3222  0.0086
  501MOL0     C67506  11.569   8.276   7.267 -0.0439 -0.1824  0.4274
  501MOL0     C67507  11.536   8.140   7.240  0.0714  0.3665 -1.5345
  501MOL0     O67508  11.619   8.077   7.154  0.2852 -0.1417  0.2661
  501MOL0     C67509  11.692   8.157   7.048 -0.0604 -0.5683 -0.0362
  501MOL0     C67510  11.737   8.068   6.923  0.5833 -0.1886  0.1379
  501MOL0     C67511  11.842   7.964   6.957  1.0300 -0.0723  0.1296
  501MOL0     C67512  11.918   7.921   6.824 -0.1805 -0.3000 -1.0175
  501MOL0     C67513  12.023   7.810   6.855 -0.2329  0.4638  0.1163
  501MOL0     C67514  12.099   7.745   6.730  0.1527 -0.8934 -0.1296
  501MOL0     C67515  12.244   7.803   6.716 -0.7400  0.5003  0.2282
  501MOL0     C67516  12.246   7.935   6.641  0.0477  0.4703 -1.0274
  501MOL0     N67517  12.187   7.910   6.510  0.0333 -0.3928  0.0200
  501MOL0     C67518  12.235   7.829   6.407  0.5014 -0.7550  0.4758
  501MOL0     C67519  12.146   7.840   6.304 -0.6061 -0.4223 -0.0149
  501MOL0     C67520  12.142   7.749   6.188 -0.4804  0.3600 -0.2634
  501MOL0     C67521  12.091   7.818   6.055 -0.2307 -0.2922 -0.7838
  501MOL0     C67522  12.048   7.715   5.951  0.4518 -0.3387  1.0863
  501MOL0     C67523  11.967   7.780   5.827  0.0031 -1.0561 -0.4033
  501MOL0     O67524  12.053   7.787   5.716  0.4020  0.3417  0.6308
  501MOL0     C67525  12.008   7.848   5.607 -0.1921 -0.4583  0.2332
  501MOL0     C67526  11.911   7.948   5.613  0.4103  0.9051  0.6720
  501MOL0     C67527  11.858   8.006   5.495 -0.6789  0.1149  0.1532
  501MOL0     C67528  11.752   8.107   5.502 -0.5426 -0.1347  0.5333
  501MOL0     C67529  11.912   7.968   5.377 -0.3753  0.6583  0.7644
  501MOL0     C67530  11.868   8.021   5.240  0.0029 -0.4968  0.1864
  501MOL0     O67531  11.957   8.048   5.147 -0.4534  0.3684 -0.1973
  501MOL0     C67532  11.915   8.054   5.013  0.3664 -0.2984 -0.4627
  501MOL0     C67533  11.960   7.945   4.938 -0.0116 -0.0441  0.2387
  501MOL0     C67534  11.924   7.942   4.803  0.2117 -0.0677 -0.2518
  501MOL0     C67535  11.839   8.048   4.743 -0.5614 -0.3511  0.4890
  501MOL0     O67536  11.812   8.057   4.611  0.1160  0.2796 -0.8017
  501MOL0     C67537  11.927   8.069   4.523  0.6050 -1.2703  0.2004
  501MOL0     C67538  11.982   8.210   4.515 -0.3106  0.2609 -0.7024
  501MOL0     C67539  12.092   8.211   4.404  0.4306  0.1425  0.2023
  501MOL0     C67540  12.189   8.329   4.428 -0.0355 -0.1592  1.0648
  501MOL0     C67541  12.334   8.336   4.360 -0.1306  0.1380  0.0683
  501MOL0     C67542  12.431   8.223   4.395 -0.0577 -0.2148 -0.2324
  501MOL0     C67543  12.566   8.279   4.339 -0.1832  0.6303 -0.0538
  501MOL0     C67544  12.653   8.298   4.461 -0.0599 -0.3776 -0.7441
  501MOL0    Cl67545  12.741   8.455   4.454 -0.0263  0.2446  0.2199
  501MOL0     C67546  11.791   8.152   4.821 -0.3273  0.3520  0.1704
  501MOL0     C67547  11.831   8.159   4.960  0.0283 -0.2708 -0.3761
  501MOL0     O67548  11.741   8.030   5.224  0.6902  0.1640 -0.3323
  501MOL0     C67549  12.017   7.878   5.365 -0.1421  0.2769 -0.5670
  501MOL0     C67550  12.063   7.814   5.483  0.3140  0.1681 -0.6706
  501MOL0     N67551  12.057   7.934   6.330 -0.1169  0.2929  0.0714
  501MOL0     N67552  12.083   7.975   6.455  0.4700  0.1274 -0.2228
  501MOL0     C67553  11.418   8.070   7.282  0.7679 -0.5689  0.1305
  501MOL0     C67554  11.344   8.137   7.382 -0.1081 -0.4153 -0.4163
  501MOL0     C67555  11.144   8.521   7.575 -1.0324  0.2235 -0.5398
  501MOL0     C67556  11.044   8.616   7.546  0.9662  0.6301 -0.7588
  501MOL0     C67557  10.987   8.701   7.641  0.0248  0.2456  0.6352
  501MOL0     C67558  11.025   8.700   7.771  0.1221 -0.1241  0.1474
  501MOL0     O67559  10.961   8.770   7.872  0.7144  0.9478 -0.6055
  501MOL0     C67560  10.915   8.909   7.849 -0.6104 -0.2292 -0.5505
  501MOL0     C67561  10.802   8.927   7.948  0.4441 -1.1847  0.2472
  501MOL0     C67562  10.750   9.073   7.979  0.8583 -0.4884 -0.4831
  501MOL0     C67563  10.844   9.185   8.019  1.1635 -0.3064 -0.5335
  501MOL0     C67564  10.886   9.181   8.154  0.3975  0.5856 -0.7325
  501MOL0     C67565  10.918   9.168   8.271  0.3391 -0.0573  0.2967
  501MOL0     C67566  11.119   8.593   7.803 -0.4380 -0.6069 -0.2846
  501MOL0     C67567  11.174   8.511   7.708 -0.3281  0.5990 -0.9441
  501MOL0     H67568  11.512   8.448   7.370  0.7583 -0.2630  1.6997
  501MOL0     H67569  11.658   8.320   7.223 -0.1744 -0.5476 -0.2144
  501MOL0     H67570  11.632   8.236   7.003  1.1223 -0.2242 -1.0722
  501MOL0     H67571  11.782   8.201   7.091 -1.7156 -1.0080  4.4437
  501MOL0     H67572  11.641   8.026   6.891 -1.9319  4.9604 -0.2356
  501MOL0     H67573  11.764   8.145   6.850 -0.7834  0.5532  0.3705
  501MOL0     H67574  11.910   7.997   7.036  1.4741  1.2406 -0.7589
  501MOL0     H67575  11.790   7.881   7.005 -0.7239  1.2522  0.6556
  501MOL0     H67576  11.842   7.889   6.752 -3.8387  0.0459  2.3875
  501MOL0     H67577  11.968   8.000   6.767  0.7602 -1.2446 -1.5678
  501MOL0     H67578  12.095   7.856   6.923  1.3468  1.4025 -2.0727
  501MOL0     H67579  11.973   7.725   6.902  0.7454 -0.3579 -0.2936
  501MOL0     H67580  12.107   7.636   6.736  1.2960 -1.2129 -4.4725
  501MOL0     H67581  12.037   7.758   6.641  0.0359 -1.7799 -0.1869
  501MOL0     H67582  12.285   7.817   6.817 -0.8360  2.8093 -0.0008
  501MOL0     H67583  12.304   7.737   6.654 -3.6126 -0.4485 -1.7783
  501MOL0     H67584  12.348   7.970   6.621  0.3020  0.5240  0.3140
  501MOL0     H67585  12.191   8.006   6.703 -0.4678  0.9092 -1.9608
  501MOL0     H67586  12.316   7.758   6.427  1.1613  0.4827  2.5403
  501MOL0     H67587  12.239   7.700   6.173 -1.5482 -2.4684  1.3389
  501MOL0     H67588  12.064   7.674   6.205 -0.6447  0.2858 -1.3058
  501MOL0     H67589  12.171   7.879   6.013 -0.2357  3.8005  4.1611
  501MOL0     H67590  12.010   7.881   6.093  0.4275  1.4381 -2.1129
  501MOL0     H67591  11.981   7.644   6.003  1.6158 -3.2385 -1.0982
  501MOL0     H67592  12.137   7.658   5.923 -0.7463 -1.5058 -0.4902
  501MOL0     H67593  11.934   7.877   5.864  1.0360 -1.2384  1.0902
  501MOL0     H67594  11.879   7.719   5.804 -0.4499  0.1182 -1.9443
  501MOL0     H67595  11.865   7.975   5.707  1.0029 -0.1101  1.2806
  501MOL0     H67596  11.720   8.119   5.606 -0.0049  1.8152  0.5097
  501MOL0     H67597  11.776   8.208   5.466  1.5130 -1.6432 -2.7201
  501MOL0     H67598  11.667   8.085   5.437  1.0216 -1.4277 -1.1515
  501MOL0     H67599  12.025   7.871   4.983 -0.5978 -1.7502 -1.5832
  501MOL0     H67600  11.946   7.851   4.749  0.1278 -0.9991  1.2336
  501MOL0     H67601  12.001   7.994   4.551  0.5964 -1.9856 -1.5453
  501MOL0     H67602  11.886   8.047   4.424 -3.6394  0.1940  1.4472
  501MOL0     H67603  11.906   8.287   4.496  0.7627  1.6657  0.5209
  501MOL0     H67604  12.030   8.225   4.612 -1.8561 -1.9063  0.4615
  501MOL0     H67605  12.050   8.211   4.303  1.8023  2.4053 -0.4635
  501MOL0     H67606  12.154   8.121   4.402 -0.7665 -0.7129  0.5403
  501MOL0     H67607  12.141   8.425   4.404  3.1117  1.8091  2.0580
  501MOL0     H67608  12.200   8.346   4.535 -0.0988  2.5687  0.7034
  501MOL0     H67609  12.389   8.426   4.387 -1.1382  1.8861 -3.1408
  501MOL0     H67610  12.314   8.331   4.252 -0.6721 -1.2475  0.2154
  501MOL0     H67611  12.437   8.198   4.502  0.9349 -2.3984 -0.7451
  501MOL0     H67612  12.402   8.131   4.343 -2.6253  1.8138 -2.7155
  501MOL0     H67613  12.557   8.365   4.271 -2.1915  1.7014  1.4354
  501MOL0     H67614  12.593   8.194   4.276 -0.8608  1.2221 -1.1810
  501MOL0     H67615  12.723   8.214   4.470 -3.2233 -3.5149 -2.7060
  501MOL0     H67616  12.603   8.306   4.558  1.0679 -0.4517 -0.1296
  501MOL0     H67617  11.731   8.231   4.777 -1.8319  0.2429  1.8814
  501MOL0     H67618  11.794   8.231   5.033 -0.3379 -2.2399  1.4609
  501MOL0     H67619  12.054   7.837   5.271  3.2711 -2.1670  1.6114
  501MOL0     H67620  12.134   7.732   5.474  0.6587  0.5469 -1.5984
  501MOL0     H67621  11.389   7.968   7.258 -0.4080  0.3084 -2.5695
  501MOL0     H67622  11.270   8.077   7.433 -0.7499  1.3236  0.7810
  501MOL0     H67623  11.005   8.601   7.446 -1.0543 -1.7012  0.2714
  501MOL0     H67624  10.901   8.759   7.610 -0.1809 -0.8374 -0.9223
  501MOL0     H67625  10.999   8.975   7.872  0.5942 -2.6205  2.6140
  501MOL0     H67626  10.870   8.916   7.750 -0.1698 -1.8265 -0.8933
  501MOL0     H67627  10.823   8.876   8.042  2.6353 -0.1752  0.3684
  501MOL0     H67628  10.718   8.878   7.898 -0.6288 -0.6444  1.4468
  501MOL0     H67629  10.685   9.053   8.064  2.0761 -1.2736  0.2895
  501MOL0     H67630  10.693   9.100   7.889 -1.7203 -1.6084  0.7046
  501MOL0     H67631  10.798   9.281   7.992  2.7123  0.0016 -2.3338
  501MOL0     H67632  10.938   9.187   7.963  2.3190 -0.5005  1.3419
  501MOL0     H67633  10.957   9.130   8.363  2.1423 -1.2238 -0.8697
  501MOL0     H67634  11.149   8.581   7.906  2.2191  2.3124 -0.5623
  501MOL0     H67635  11.240   8.430   7.738  0.8542  2.3931  1.7953
  502MOL0     O67636   8.704   8.379   8.111 -1.0401 -0.1486  0.1904
  502MOL0     C67637   8.668   8.307   8.200  0.4587 -0.1709 -1.0958
  502MOL0     O67638   8.682   8.334   8.329 -0.5951 -0.5451  0.6976
  502MOL0     C67639   8.757   8.453   8.349  1.1069  0.1874  0.4257
  502MOL0     C67640   8.687   8.549   8.411  0.0500  0.5687 -0.4434
  502MOL0     C67641   8.738   8.682   8.437 -0.0390  0.8166 -0.1290
  502MOL0     C67642   8.872   8.709   8.396  0.1028  0.0788 -0.9181
  502MOL0     O67643   8.936   8.833   8.420  0.3411  0.1169 -0.4538
  502MOL0     C67644   8.981   8.893   8.289  0.0071  0.5729  0.0421
  502MOL0     C67645   8.939   9.035   8.302  0.1554  0.5979 -1.1758
  502MOL0     C67646   8.784   9.049   8.303 -1.5319 -0.3417 -0.3441
  502MOL0     C67647   8.713   9.025   8.167  1.4337 -0.8403 -0.2210
  502MOL0     C67648   8.557   9.061   8.168 -0.4248  0.1423 -0.8323
  502MOL0     C67649   8.498   9.065   8.031  0.8592 -0.3524 -0.0792
  502MOL0     C67650   8.345   9.107   8.039  0.6080 -0.4994  0.3055
  502MOL0     C67651   8.272   9.093   7.906 -0.0753  0.2504 -0.2021
  502MOL0     N67652   8.266   8.951   7.856 -0.1209  0.2428 -0.1834
  502MOL0     C67653   8.368   8.879   7.785  0.3303  0.2294 -0.5285
  502MOL0     C67654   8.312   8.758   7.772  0.2442  0.1787 -0.4088
  502MOL0     C67655   8.363   8.624   7.709 -0.2560 -1.0196 -0.5872
  502MOL0     C67656   8.509   8.627   7.664 -0.4244  0.3194  0.9016
  502MOL0     C67657   8.600   8.560   7.761 -0.5116  0.6998  0.3906
  502MOL0     C67658   8.590   8.619   7.899 -0.1799  0.1689  0.1283
  502MOL0     O67659   8.632   8.761   7.903 -0.2088  0.2441  0.2780
  502MOL0     C67660   8.772   8.791   7.898  0.8002  0.1356 -1.0002
  502MOL0     C67661   8.801   8.924   7.868 -0.5647  0.5392 -0.2896
  502MOL0     C67662   8.936   8.964   7.877 -0.0656 -0.4513  1.2807
  502MOL0     C67663   8.972   9.104   7.831 -0.1455  0.3747 -0.4694
  502MOL0     C67664   9.037   8.872   7.913  0.1416 -0.2627  0.4723
  502MOL0     C67665   9.165   8.907   7.957  0.6290  1.6257  0.1239
  502MOL0     O67666   9.270   8.820   7.929 -0.4268  0.6807  0.1742
  502MOL0     C67667   9.374   8.827   8.019  0.6348 -0.4155 -0.7135
  502MOL0     C67668   9.365   8.775   8.146 -0.1029 -0.8173 -0.2066
  502MOL0     C67669   9.477   8.790   8.235  0.3900 -0.4370 -1.3116
  502MOL0     C67670   9.588   8.871   8.199 -0.2916  0.7406  0.6060
  502MOL0     O67671   9.693   8.904   8.284  0.1902  0.4464  0.2298
  502MOL0     C67672   9.739   8.789   8.363 -0.1984 -0.6165  0.2748
  502MOL0     C67673   9.864   8.826   8.434  0.3806 -0.0916  0.5069
  502MOL0     C67674   9.987   8.854   8.350  0.1622 -0.6497  0.0243
  502MOL0     C67675  10.117   8.847   8.438 -0.4236  0.1062  0.1963
  502MOL0     C67676  10.238   8.844   8.335  0.3226 -0.6122  0.1011
  502MOL0     C67677  10.369   8.836   8.418 -0.0148  0.1210  0.1595
  502MOL0     C67678  10.497   8.870   8.342 -0.2604  0.0519  0.1155
  502MOL0     C67679  10.622   8.840   8.424 -0.5654 -0.4418  0.1348
  502MOL0    Cl67680  10.607   8.912   8.582 -0.1553  0.1464 -0.1244
  502MOL0     C67681   9.591   8.928   8.074 -0.6296 -0.1501  0.4643
  502MOL0     C67682   9.487   8.900   7.980  0.0599  0.4346  0.0320
  502MOL0     O67683   9.173   8.999   8.040 -0.6218 -0.0501 -0.1796
  502MOL0     C67684   9.000   8.736   7.937 -0.5258 -0.6920  0.2030
  502MOL0     C67685   8.868   8.693   7.925  0.1903  0.2305 -0.6319
  502MOL0     N67686   8.176   8.763   7.816 -0.0840 -0.6834 -0.3149
  502MOL0     N67687   8.151   8.876   7.863 -0.5271  0.6678 -0.4582
  502MOL0     C67688   8.942   8.605   8.326 -0.1235 -1.0254  0.8513
  502MOL0     C67689   8.882   8.482   8.312 -0.0263  0.8567 -0.8016
  502MOL0     C67690   8.586   8.192   8.162 -0.1328  0.9798  0.1511
  502MOL0     C67691   8.561   8.154   8.025 -0.9380  0.7195  0.0800
  502MOL0     C67692   8.487   8.040   7.993 -0.4453  0.3586 -0.6249
  502MOL0     C67693   8.449   7.947   8.095 -0.0305  0.5406 -0.4807
  502MOL0     O67694   8.398   7.821   8.077 -0.5853  0.1326  0.1103
  502MOL0     C67695   8.363   7.786   7.941 -0.9938 -0.8902  0.7180
  502MOL0     C67696   8.274   7.658   7.911  0.6726 -0.2100 -0.4318
  502MOL0     C67697   8.163   7.687   7.805 -0.2525  0.9131 -0.2817
  502MOL0     C67698   8.205   7.655   7.662  0.5293 -0.5475  0.4508
  502MOL0     C67699   8.124   7.737   7.572  0.8631  0.7048  0.0046
  502MOL0     C67700   8.066   7.791   7.481  0.6169 -0.3394  0.1791
  502MOL0     C67701   8.470   7.988   8.230 -1.4425  0.7794 -0.3186
  502MOL0     C67702   8.529   8.111   8.260  0.3580  0.6398 -0.5364
  502MOL0     H67703   8.582   8.532   8.434 -0.7086  1.6815 -2.6983
  502MOL0     H67704   8.667   8.753   8.478 -2.6665 -0.6602 -1.7769
  502MOL0     H67705   9.084   8.863   8.270 -1.1127 -2.5618 -1.8333
  502MOL0     H67706   8.927   8.848   8.205 -0.9386 -2.4017  2.0820
  502MOL0     H67707   8.994   9.073   8.389  4.8421  1.8364 -4.3171
  502MOL0     H67708   8.990   9.082   8.217  3.3945 -2.4398 -1.1607
  502MOL0     H67709   8.739   8.984   8.379  0.9922  0.1266  1.6668
  502MOL0     H67710   8.767   9.155   8.324  1.6070  0.0895  0.4538
  502MOL0     H67711   8.770   9.095   8.104  0.4331 -0.2093 -0.4427
  502MOL0     H67712   8.743   8.924   8.136  4.3877 -0.4376  0.9367
  502MOL0     H67713   8.494   8.987   8.218 -0.8271  1.0574  0.0452
  502MOL0     H67714   8.546   9.155   8.222 -0.0591 -0.6836  0.7496
  502MOL0     H67715   8.545   9.139   7.965  2.3480 -2.5630 -1.6328
  502MOL0     H67716   8.516   8.968   7.986  3.2651 -0.0012 -0.0197
  502MOL0     H67717   8.284   9.050   8.110 -0.7432 -0.5902 -0.9046
  502MOL0     H67718   8.322   9.208   8.074 -2.1010 -0.7207 -0.6592
  502MOL0     H67719   8.298   9.168   7.831 -1.5895 -0.9088 -1.9725
  502MOL0     H67720   8.167   9.117   7.929  0.6451  0.6672  3.2011
  502MOL0     H67721   8.462   8.914   7.742  0.6399  0.8679  0.6427
  502MOL0     H67722   8.338   8.540   7.774 -1.4119  1.8183  2.9872
  502MOL0     H67723   8.294   8.621   7.624 -0.4943 -0.7459 -0.4062
  502MOL0     H67724   8.536   8.730   7.637 -3.0297  0.4359 -1.8928
  502MOL0     H67725   8.524   8.570   7.572  1.0341  2.1746 -0.0944
  502MOL0     H67726   8.704   8.571   7.727  0.0621  1.2829  2.2069
  502MOL0     H67727   8.565   8.456   7.762  0.6500  0.2964  0.6495
  502MOL0     H67728   8.650   8.557   7.966  1.8076  0.1398 -1.6045
  502MOL0     H67729   8.486   8.626   7.934 -0.5477 -2.2925 -0.2908
  502MOL0     H67730   8.724   8.988   7.827 -0.1509 -0.2693 -2.4860
  502MOL0     H67731   9.073   9.113   7.789  0.9328 -1.5164  1.5635
  502MOL0     H67732   8.887   9.138   7.770 -2.4312 -0.8960  1.8033
  502MOL0     H67733   8.961   9.160   7.925 -2.4669  1.4789 -1.3138
  502MOL0     H67734   9.268   8.745   8.183  0.7564 -2.1796  1.0415
  502MOL0     H67735   9.466   8.749   8.335 -1.8171  0.1981 -1.2315
  502MOL0     H67736   9.658   8.763   8.432 -1.0834  1.9318  0.3233
  502MOL0     H67737   9.757   8.712   8.288 -3.1508  0.9860 -2.3441
  502MOL0     H67738   9.840   8.922   8.480  2.6441  1.4769 -1.2834
  502MOL0     H67739   9.884   8.749   8.508 -0.9490 -0.8393  0.1211
  502MOL0     H67740   9.996   8.956   8.311  2.1444 -1.8942 -3.1624
  502MOL0     H67741   9.984   8.796   8.258 -2.6687  0.3444 -0.6244
  502MOL0     H67742  10.120   8.936   8.502 -3.4152  0.2639  0.2873
  502MOL0     H67743  10.115   8.753   8.495  1.8611  1.3604  2.5664
  502MOL0     H67744  10.241   8.936   8.276  0.4842  0.4889  1.7534
  502MOL0     H67745  10.237   8.761   8.265 -1.4329  0.5153 -1.3022
  502MOL0     H67746  10.358   8.911   8.497 -0.3664  0.6870 -0.4158
  502MOL0     H67747  10.380   8.740   8.468  1.6885 -0.0296 -0.4167
  502MOL0     H67748  10.498   8.980   8.336 -1.5046  0.1118  0.6940
  502MOL0     H67749  10.495   8.825   8.243 -1.4821 -2.3770  1.1518
  502MOL0     H67750  10.716   8.876   8.380 -1.3573 -1.8235 -2.9652
  502MOL0     H67751  10.628   8.732   8.439  0.8295 -0.3811  0.1975
  502MOL0     H67752   9.671   8.993   8.040 -3.1916  3.5790  0.9805
  502MOL0     H67753   9.489   8.957   7.887  1.9052  0.2147 -0.0976
  502MOL0     H67754   9.079   8.664   7.954 -1.8019 -1.6943  2.1717
  502MOL0     H67755   8.843   8.590   7.949 -0.9759  0.7020  0.2452
  502MOL0     H67756   9.049   8.604   8.308 -0.2532  2.1627 -0.7735
  502MOL0     H67757   8.936   8.395   8.275 -0.7365  1.8389 -4.4849
  502MOL0     H67758   8.602   8.216   7.946 -1.9173  1.0360 -0.1958
  502MOL0     H67759   8.493   8.021   7.886  3.6349  0.5396 -0.5710
  502MOL0     H67760   8.306   7.872   7.905 -1.5996  0.5033  4.5359
  502MOL0     H67761   8.443   7.765   7.869 -3.0208 -3.2971 -1.0045
  502MOL0     H67762   8.217   7.635   8.002 -0.5107  0.3433 -1.0153
  502MOL0     H67763   8.346   7.578   7.892  1.5173 -0.1224  2.0697
  502MOL0     H67764   8.132   7.791   7.818 -1.5755  0.2211  3.2210
  502MOL0     H67765   8.074   7.633   7.841  0.0623  1.1763  0.9150
  502MOL0     H67766   8.186   7.549   7.641 -1.0904 -0.3917  1.0640
  502MOL0     H67767   8.309   7.673   7.632 -0.2980 -0.5074 -2.7834
  502MOL0     H67768   7.994   7.838   7.417  0.0005 -0.4686  0.7711
  502MOL0     H67769   8.440   7.932   8.318  1.2329  0.9890  0.8338
  502MOL0     H67770   8.547   8.150   8.359 -0.6913  4.2319 -1.5883
  503MOL0     O67771   5.014   1.426   3.895  0.6476 -0.1879  0.2495
  503MOL0     C67772   4.895   1.412   3.866  0.1860 -0.9091  0.1085
  503MOL0     O67773   4.816   1.525   3.824 -0.5821  1.5196 -0.7582
  503MOL0     C67774   4.861   1.655   3.829  0.5392  0.7073  0.4647
  503MOL0     C67775   4.947   1.695   3.927  0.0707  0.0891 -0.5799
  503MOL0     C67776   4.972   1.840   3.935 -0.3675  0.4973  0.4232
  503MOL0     C67777   4.923   1.931   3.854 -0.1084 -0.4705  0.8964
  503MOL0     O67778   4.967   2.068   3.870 -0.3254  0.1370  0.1138
  503MOL0     C67779   4.885   2.176   3.816 -0.4415  0.3264  0.1150
  503MOL0     C67780   4.746   2.185   3.882  0.2289  1.6310 -0.0546
  503MOL0     C67781   4.681   2.317   3.856  0.7400 -1.4408 -0.5272
  503MOL0     C67782   4.537   2.341   3.911 -0.1569  0.2742  0.7180
  503MOL0     C67783   4.457   2.445   3.842 -0.1048 -0.5890  0.5768
  503MOL0     C67784   4.409   2.393   3.702 -0.4892 -0.0144  0.6521
  503MOL0     C67785   4.300   2.476   3.629 -0.0655  0.2271 -1.0158
  503MOL0     C67786   4.367   2.602   3.578 -0.3561 -1.3533 -0.1829
  503MOL0     N67787   4.264   2.700   3.524 -1.1250  0.7388  0.4034
  503MOL0     C67788   4.163   2.762   3.590 -0.4622 -0.4168 -0.0534
  503MOL0     C67789   4.120   2.852   3.496  0.9930 -0.2293  0.3291
  503MOL0     C67790   4.008   2.948   3.529  0.6633 -0.9708 -0.2108
  503MOL0     C67791   4.066   3.054   3.631 -0.3107 -0.2304  0.5623
  503MOL0     C67792   4.182   3.144   3.586  0.4922  0.1422 -0.0934
  503MOL0     C67793   4.324   3.084   3.611  0.0469  0.5456 -1.3673
  503MOL0     O67794   4.321   2.980   3.711 -0.0664  0.2751  1.1184
  503MOL0     C67795   4.441   2.932   3.735 -0.5325 -0.5366  0.3152
  503MOL0     C67796   4.477   2.914   3.873  0.8232 -1.1730 -0.3764
  503MOL0     C67797   4.590   2.860   3.924 -0.9937 -0.7715 -0.9972
  503MOL0     C67798   4.620   2.846   4.082 -0.1501 -0.2086  0.2489
  503MOL0     C67799   4.682   2.813   3.829  0.3825  0.4625 -0.0828
  503MOL0     C67800   4.817   2.764   3.855 -0.6754  0.0931 -0.4018
  503MOL0     O67801   4.918   2.828   3.784  0.2100 -0.1229  0.1393
  503MOL0     C67802   5.030   2.756   3.759 -0.4800  0.4605 -0.1877
  503MOL0     C67803   5.040   2.615   3.750  0.0991 -0.4745  0.6687
  503MOL0     C67804   5.163   2.555   3.731 -0.7256 -0.0119 -0.0702
  503MOL0     C67805   5.278   2.624   3.716 -0.9314  0.0738  0.1733
  503MOL0     O67806   5.393   2.544   3.711 -0.0087 -0.8092 -0.2254
  503MOL0     C67807   5.521   2.607   3.713 -0.7177  0.5162 -0.6669
  503MOL0     C67808   5.620   2.497   3.751  0.4394 -0.4107  0.1734
  503MOL0     C67809   5.766   2.562   3.760  0.1260 -0.1215  0.0701
  503MOL0     C67810   5.875   2.454   3.792  0.5327 -0.1689  1.3946
  503MOL0     C67811   6.005   2.526   3.837 -0.0187 -0.7111 -0.8089
  503MOL0     C67812   6.123   2.434   3.883  0.6795 -0.4093 -0.3749
  503MOL0     C67813   6.264   2.484   3.835 -0.2235 -0.3426  0.0868
  503MOL0     C67814   6.383   2.394   3.870  0.5520  0.6792  0.8508
  503MOL0    Cl67815   6.453   2.410   4.031 -0.0730 -0.5019  0.5184
  503MOL0     C67816   5.270   2.760   3.735 -0.0989  0.4382  0.4713
  503MOL0     C67817   5.143   2.828   3.754 -0.1642  0.1432  0.2006
  503MOL0     O67818   4.831   2.668   3.928 -0.1182  0.6448  0.6110
  503MOL0     C67819   4.645   2.808   3.693  0.7113 -1.2575 -0.0670
  503MOL0     C67820   4.527   2.868   3.640 -0.7753 -1.4539 -0.5006
  503MOL0     N67821   4.205   2.848   3.386 -0.5011 -0.4274  1.1554
  503MOL0     N67822   4.290   2.750   3.403 -0.4095 -0.2315  0.0010
  503MOL0     C67823   4.831   1.886   3.752 -0.1412  1.5587 -0.5095
  503MOL0     C67824   4.796   1.742   3.748  0.3050 -0.2706 -0.0423
  503MOL0     C67825   4.850   1.275   3.861 -0.0554  0.4381 -0.6486
  503MOL0     C67826   4.933   1.167   3.910 -0.1391 -0.2435 -0.2655
  503MOL0     C67827   4.882   1.033   3.913  0.0090  0.1072  0.5214
  503MOL0     C67828   4.748   1.010   3.884 -1.0071 -0.5643  1.0435
  503MOL0     O67829   4.694   0.887   3.887  0.3100  0.4129 -0.6621
  503MOL0     C67830   4.760   0.777   3.945 -0.7146 -0.3042  0.2297
  503MOL0     C67831   4.675   0.672   4.001 -0.7617 -0.3174  0.8568
  503MOL0     C67832   4.581   0.734   4.112  0.2297  0.6901  0.2113
  503MOL0     C67833   4.482   0.621   4.143 -0.0601  0.0594 -0.1539
  503MOL0     C67834   4.543   0.496   4.196  0.2802 -0.8606  0.6567
  503MOL0     C67835   4.580   0.380   4.232 -0.5336 -0.7919  0.2491
  503MOL0     C67836   4.674   1.111   3.821 -0.3949  0.3136 -0.0481
  503MOL0     C67837   4.723   1.236   3.810  0.0020  0.6404  0.6540
  503MOL0     H67838   4.996   1.638   4.005 -0.3064  1.6944  0.9055
  503MOL0     H67839   5.045   1.870   4.009  0.0012  2.1919 -0.5580
  503MOL0     H67840   4.930   2.275   3.827 -0.5258  0.4543 -0.6176
  503MOL0     H67841   4.870   2.154   3.710  0.3972 -1.4697  0.3355
  503MOL0     H67842   4.693   2.099   3.839  0.2879  2.2348 -1.3987
  503MOL0     H67843   4.760   2.160   3.987  0.7519 -0.2420 -0.5259
  503MOL0     H67844   4.731   2.401   3.905 -1.7914  0.3556 -0.8249
  503MOL0     H67845   4.690   2.335   3.748  0.1435 -0.4438 -0.4231
  503MOL0     H67846   4.485   2.245   3.907  3.3606 -1.7922  0.9411
  503MOL0     H67847   4.543   2.375   4.015 -3.2900 -2.2761  1.8954
  503MOL0     H67848   4.377   2.462   3.915  0.4798 -0.2260  1.1427
  503MOL0     H67849   4.512   2.538   3.833  0.7499 -1.1978 -0.7931
  503MOL0     H67850   4.496   2.382   3.635 -1.5679  0.0129 -0.8085
  503MOL0     H67851   4.374   2.289   3.704  0.4924 -0.3604  2.5203
  503MOL0     H67852   4.257   2.421   3.545 -0.3409 -0.4609 -0.4351
  503MOL0     H67853   4.216   2.505   3.692 -0.3930  1.8103 -2.1381
  503MOL0     H67854   4.430   2.566   3.496 -1.4098 -0.7683 -1.2880
  503MOL0     H67855   4.425   2.640   3.663 -0.1914 -2.2004  0.0913
  503MOL0     H67856   4.122   2.741   3.688 -0.1571  1.8144  0.6111
  503MOL0     H67857   3.987   3.005   3.437  0.4522 -1.3607 -0.4067
  503MOL0     H67858   3.918   2.893   3.559 -1.4853  1.9423 -0.8470
  503MOL0     H67859   4.098   3.012   3.727  0.0678  1.2173  1.0910
  503MOL0     H67860   3.983   3.124   3.649  0.6547  2.6560 -4.2727
  503MOL0     H67861   4.178   3.235   3.647 -0.2430  0.3220 -0.3943
  503MOL0     H67862   4.157   3.180   3.485 -3.0840  3.2068  1.6241
  503MOL0     H67863   4.388   3.166   3.645 -1.0393  1.0005 -0.3364
  503MOL0     H67864   4.364   3.035   3.522  0.1421 -0.4287 -0.8068
  503MOL0     H67865   4.400   2.932   3.947  0.2032 -1.1182 -1.0174
  503MOL0     H67866   4.559   2.914   4.142 -2.8053 -1.0352 -1.3392
  503MOL0     H67867   4.592   2.741   4.100  1.3550 -0.9547 -1.4372
  503MOL0     H67868   4.728   2.857   4.094  0.3772 -0.9351 -2.8831
  503MOL0     H67869   4.949   2.556   3.758  0.0084 -0.5497 -0.6506
  503MOL0     H67870   5.170   2.451   3.702  0.0088 -0.0005  0.0402
  503MOL0     H67871   5.540   2.660   3.619 -0.3145  0.6028 -0.5366
  503MOL0     H67872   5.520   2.671   3.802  1.8118  0.8257 -0.8014
  503MOL0     H67873   5.599   2.445   3.844 -0.3656  1.8603  1.3422
  503MOL0     H67874   5.625   2.422   3.671 -0.8005 -0.1773 -0.1488
  503MOL0     H67875   5.765   2.632   3.844  2.8989  0.7159 -0.5262
  503MOL0     H67876   5.787   2.615   3.667  1.1185  2.3285  1.5878
  503MOL0     H67877   5.837   2.399   3.879  0.5009  0.5209  1.8259
  503MOL0     H67878   5.904   2.393   3.706  0.7287  1.0486  0.5785
  503MOL0     H67879   5.975   2.591   3.920 -0.0593  1.2956 -2.3264
  503MOL0     H67880   6.044   2.596   3.762 -0.0113 -1.1102 -1.1816
  503MOL0     H67881   6.123   2.423   3.992 -2.4254 -0.3641 -0.2894
  503MOL0     H67882   6.102   2.331   3.852 -1.1636 -0.5716  1.2412
  503MOL0     H67883   6.277   2.576   3.894  3.9063  0.0326 -1.0885
  503MOL0     H67884   6.266   2.497   3.727 -0.3697 -0.9931  0.0003
  503MOL0     H67885   6.459   2.392   3.791  0.0636 -1.3495  0.3795
  503MOL0     H67886   6.346   2.291   3.876  2.3279  0.0795  2.3811
  503MOL0     H67887   5.367   2.809   3.736 -0.5787  1.4202  1.1456
  503MOL0     H67888   5.164   2.935   3.755  1.5754 -0.0815 -2.6788
  503MOL0     H67889   4.723   2.763   3.633  0.5598 -2.6809  0.7640
  503MOL0     H67890   4.521   2.872   3.532  1.4364 -1.3675 -0.6708
  503MOL0     H67891   4.799   1.952   3.673 -1.2503  1.9095  0.2170
  503MOL0     H67892   4.724   1.711   3.673 -1.1205  1.7033  0.4114
  503MOL0     H67893   5.038   1.168   3.940 -0.5582  0.0473  1.3075
  503MOL0     H67894   4.951   0.951   3.928 -0.7075 -0.0753  3.3368
  503MOL0     H67895   4.828   0.726   3.876 -0.8284  0.8319 -0.7351
  503MOL0     H67896   4.822   0.810   4.029 -0.6555 -0.6439  0.3237
  503MOL0     H67897   4.735   0.589   4.040 -2.2752 -2.5054 -1.2200
  503MOL0     H67898   4.625   0.637   3.911  1.2970  1.3043 -1.0252
  503MOL0     H67899   4.533   0.829   4.085 -0.5569  0.0925 -0.5719
  503MOL0     H67900   4.643   0.752   4.200  2.4173  0.4431 -1.1927
  503MOL0     H67901   4.430   0.587   4.053  3.3707 -2.1972 -1.5056
  503MOL0     H67902   4.412   0.661   4.216  0.5165  1.8286 -0.5184
  503MOL0     H67903   4.636   0.292   4.256 -1.4857 -1.8652 -1.3057
  503MOL0     H67904   4.582   1.073   3.778  1.3005 -4.6577  0.0129
  503MOL0     H67905   4.665   1.308   3.753  1.0802  0.5372 -0.5992
  504MOL0     O67906  11.454   4.646  10.437 -0.1429 -0.6769  0.3525
  504MOL0     C67907  11.573   4.628  10.460  0.3601  0.5729 -0.2948
  504MOL0     O67908  11.665   4.622  10.364 -0.3271  0.1591 -0.3566
  504MOL0     C67909  11.614   4.650  10.237  1.0025 -0.4706 -0.2662
  504MOL0     C67910  11.551   4.554  10.167 -0.3282  0.2216  0.7346
  504MOL0     C67911  11.517   4.574  10.036 -0.7386 -1.4428 -0.5023
  504MOL0     C67912  11.553   4.695   9.974  0.1766 -0.1615  1.6076
  504MOL0     O67913  11.514   4.714   9.837  0.5651 -0.2489 -0.4105
  504MOL0     C67914  11.614   4.744   9.749 -0.1059 -0.0660 -0.4146
  504MOL0     C67915  11.573   4.743   9.599  0.2757 -0.6573  0.3215
  504MOL0     C67916  11.472   4.641   9.559  0.2207 -0.3509  0.2177
  504MOL0     C67917  11.522   4.497   9.594  0.6796  0.0710 -0.8195
  504MOL0     C67918  11.452   4.396   9.511  0.2995  0.8387  0.3456
  504MOL0     C67919  11.530   4.356   9.390  1.4255  0.2739 -0.3997
  504MOL0     C67920  11.442   4.308   9.274  0.1117 -0.2797  0.2556
  504MOL0     C67921  11.539   4.262   9.174  0.7429 -0.2987  1.0323
  504MOL0     N67922  11.480   4.231   9.049 -0.0969 -0.9485 -0.0135
  504MOL0     C67923  11.476   4.109   8.993  0.9677 -0.3128 -0.3118
  504MOL0     C67924  11.402   4.123   8.882 -0.2831  0.1646  0.5550
  504MOL0     C67925  11.371   4.019   8.770 -1.2189 -0.3210  0.1199
  504MOL0     C67926  11.489   3.964   8.700 -0.2320 -0.3161  0.2745
  504MOL0     C67927  11.587   4.071   8.646  0.1901 -0.2330 -0.1941
  504MOL0     C67928  11.736   4.029   8.609 -0.1018 -0.5596 -0.1885
  504MOL0     O67929  11.818   4.002   8.724  0.2490  0.0631 -0.0047
  504MOL0     C67930  11.853   4.100   8.820 -0.4605 -0.6860  0.7417
  504MOL0     C67931  11.889   4.067   8.948 -0.5429 -0.5157  0.0196
  504MOL0     C67932  11.918   4.165   9.048 -0.3091  0.4718 -0.3242
  504MOL0     C67933  11.953   4.109   9.185 -0.3129 -0.6048  0.2883
  504MOL0     C67934  11.885   4.303   9.027  0.5318 -0.2269  0.2894
  504MOL0     C67935  11.897   4.411   9.126  0.0383  0.6220  0.1436
  504MOL0     O67936  11.918   4.538   9.069 -0.2080 -0.0098 -0.7246
  504MOL0     C67937  11.947   4.644   9.148 -0.3143  0.3282 -0.4004
  504MOL0     C67938  12.079   4.680   9.175  0.4334  0.4814  0.6108
  504MOL0     C67939  12.110   4.790   9.251 -0.4535  0.4490 -0.0657
  504MOL0     C67940  12.009   4.865   9.310  1.0878  0.1175 -0.6800
  504MOL0     O67941  12.034   4.973   9.386  0.1803 -0.4666 -0.0121
  504MOL0     C67942  12.085   5.089   9.316 -1.1368 -0.5816  0.7745
  504MOL0     C67943  11.986   5.144   9.211 -1.0796  0.4630 -0.0920
  504MOL0     C67944  12.025   5.296   9.178 -0.2453  0.6572 -0.4796
  504MOL0     C67945  11.932   5.356   9.073 -0.4373 -0.6725  0.0853
  504MOL0     C67946  11.908   5.510   9.074 -0.4015  0.3058 -0.4228
  504MOL0     C67947  12.029   5.597   9.022  0.3130 -0.2709 -0.7175
  504MOL0     C67948  12.001   5.742   9.067 -0.3056 -1.1023 -0.3299
  504MOL0     C67949  12.062   5.763   9.195  0.0643 -0.5921 -0.2222
  504MOL0    Cl67950  12.229   5.796   9.184  0.0028 -0.1178  0.0263
  504MOL0     C67951  11.873   4.832   9.287 -0.4554 -1.1173 -0.7197
  504MOL0     C67952  11.843   4.724   9.200  0.4051 -0.2775  0.2702
  504MOL0     O67953  11.886   4.400   9.251  0.1215  0.0813 -0.0396
  504MOL0     C67954  11.838   4.336   8.895  0.3540 -0.3771 -0.4860
  504MOL0     C67955  11.824   4.241   8.792 -0.3924  0.2934  0.3504
  504MOL0     N67956  11.359   4.252   8.877  0.4169 -0.3327 -0.0235
  504MOL0     N67957  11.398   4.320   8.978  0.1354  0.0932 -0.3812
  504MOL0     C67958  11.618   4.792  10.047  1.8447  0.7158 -0.6036
  504MOL0     C67959  11.647   4.779  10.179 -0.7065 -0.0800  0.4260
  504MOL0     C67960  11.613   4.606  10.599  0.1780  0.0662  0.5718
  504MOL0     C67961  11.728   4.647  10.649 -0.0261 -0.3390 -0.2956
  504MOL0     C67962  11.765   4.624  10.787 -0.6146 -0.0047 -0.2250
  504MOL0     C67963  11.679   4.546  10.870 -0.0484 -0.2214  0.1297
  504MOL0     O67964  11.706   4.510  11.001 -0.7950 -0.6677 -0.4687
  504MOL0     C67965  11.833   4.539  11.048 -0.4568 -0.6177  0.2314
  504MOL0     C67966  11.854   4.527  11.196  0.2921  0.9029 -0.4976
  504MOL0     C67967  11.985   4.591  11.242  0.1370  0.3820 -0.3259
  504MOL0     C67968  12.015   4.576  11.389  0.0424  0.4270  0.3630
  504MOL0     C67969  12.150   4.624  11.425 -0.0874  0.2051  0.2047
  504MOL0     C67970  12.254   4.685  11.455  1.2595 -0.2469 -0.9652
  504MOL0     C67971  11.563   4.509  10.827 -0.4415 -0.2028  1.6243
  504MOL0     C67972  11.525   4.538  10.691  0.4353 -0.9075 -0.1329
  504MOL0     H67973  11.528   4.461  10.218 -2.1675  1.2113  1.8349
  504MOL0     H67974  11.461   4.498   9.982 -1.4421 -0.0080 -1.8480
  504MOL0     H67975  11.672   4.835   9.767 -0.2370  0.0865 -0.7496
  504MOL0     H67976  11.684   4.660   9.742  0.1368  0.1693 -0.9459
  504MOL0     H67977  11.519   4.835   9.573 -1.0582 -1.0782  1.4974
  504MOL0     H67978  11.666   4.734   9.543  0.3622  0.0513  0.3415
  504MOL0     H67979  11.371   4.655   9.597 -0.0460  0.3422 -0.7197
  504MOL0     H67980  11.463   4.635   9.450  0.8177 -0.3024  0.1597
  504MOL0     H67981  11.629   4.479   9.575  0.2375 -1.6309 -1.9311
  504MOL0     H67982  11.497   4.493   9.700 -2.9313  1.0570 -1.5057
  504MOL0     H67983  11.437   4.313   9.580 -0.0571  0.6219  0.0106
  504MOL0     H67984  11.353   4.429   9.477  1.4461  1.2290 -2.9482
  504MOL0     H67985  11.592   4.437   9.350  1.7202 -0.4285 -1.3980
  504MOL0     H67986  11.604   4.282   9.420  4.3526  3.0199 -0.2806
  504MOL0     H67987  11.377   4.229   9.313  0.3658  0.1611  1.6359
  504MOL0     H67988  11.377   4.390   9.241 -0.9017 -0.4903  1.6584
  504MOL0     H67989  11.583   4.168   9.210  1.9690  0.1337  0.7320
  504MOL0     H67990  11.616   4.336   9.152 -2.6676  2.9208 -1.2271
  504MOL0     H67991  11.519   4.016   9.030 -1.0617 -0.6933  1.2928
  504MOL0     H67992  11.309   3.941   8.813 -3.7797  0.8289 -1.2763
  504MOL0     H67993  11.309   4.061   8.691  3.1189  1.6027 -2.6796
  504MOL0     H67994  11.457   3.898   8.619  0.1895  1.7203 -1.6547
  504MOL0     H67995  11.551   3.914   8.775  2.2337 -0.9382 -2.0272
  504MOL0     H67996  11.591   4.154   8.718  0.3773 -0.8908  0.5658
  504MOL0     H67997  11.528   4.105   8.560 -1.5807  2.7085  1.9719
  504MOL0     H67998  11.777   4.107   8.544  1.1355 -2.1152 -1.3631
  504MOL0     H67999  11.726   3.939   8.549  0.3320 -1.5960  1.2334
  504MOL0     H68000  11.908   3.968   8.989  1.3526 -0.3297 -0.3199
  504MOL0     H68001  11.894   4.152   9.266 -0.6601  0.4316 -0.4936
  504MOL0     H68002  11.943   4.000   9.191  2.4764 -1.1654 -2.5097
  504MOL0     H68003  12.055   4.138   9.211  0.5321 -3.3018  0.2352
  504MOL0     H68004  12.161   4.625   9.130 -1.6366 -2.2030 -0.2114
  504MOL0     H68005  12.211   4.811   9.284 -1.4387  0.4214  3.3477
  504MOL0     H68006  12.105   5.164   9.394 -1.8732  2.1763 -1.5114
  504MOL0     H68007  12.181   5.065   9.271 -1.4449 -0.6382  0.1467
  504MOL0     H68008  12.010   5.089   9.120 -1.0043  1.2276 -0.5395
  504MOL0     H68009  11.878   5.137   9.224 -1.1294  1.3830  0.0770
  504MOL0     H68010  12.128   5.295   9.142  1.1106  0.3870  2.9691
  504MOL0     H68011  12.017   5.352   9.272 -1.4592 -0.7681  0.3067
  504MOL0     H68012  11.954   5.330   8.969  4.6502  1.5220  0.3229
  504MOL0     H68013  11.830   5.322   9.091 -0.8566 -1.6499 -3.3672
  504MOL0     H68014  11.865   5.544   9.169  2.0712  1.4811  0.3521
  504MOL0     H68015  11.835   5.522   8.993  0.2990 -0.1411 -1.1298
  504MOL0     H68016  12.126   5.566   9.061  0.6904  0.7568 -0.7940
  504MOL0     H68017  12.028   5.605   8.912  1.3762 -0.3775 -0.7430
  504MOL0     H68018  11.892   5.755   9.076 -0.0047  1.1372  0.5877
  504MOL0     H68019  12.038   5.814   8.995 -0.1857  0.1816  0.9703
  504MOL0     H68020  12.039   5.680   9.261 -1.7002  0.4239  0.5103
  504MOL0     H68021  12.014   5.849   9.243  0.2212 -0.9851  0.6417
  504MOL0     H68022  11.796   4.893   9.334  1.5792  0.2646  1.0606
  504MOL0     H68023  11.739   4.702   9.177 -0.4362  1.0851  2.4456
  504MOL0     H68024  11.822   4.439   8.865 -0.7711 -0.2833  0.3887
  504MOL0     H68025  11.798   4.264   8.689  4.0295  2.2498 -0.5411
  504MOL0     H68026  11.651   4.884  10.000 -1.9579  2.4890 -0.1182
  504MOL0     H68027  11.712   4.849  10.229  1.4235  0.1767 -2.4258
  504MOL0     H68028  11.787   4.717  10.590 -1.2064  0.0163 -1.1060
  504MOL0     H68029  11.864   4.660  10.814 -0.3530 -2.0761  1.8856
  504MOL0     H68030  11.904   4.469  11.003 -2.3495 -1.8181 -1.0390
  504MOL0     H68031  11.859   4.642  11.021  3.8080 -1.7875 -0.9341
  504MOL0     H68032  11.841   4.419  11.207  0.8590  0.4475 -3.5069
  504MOL0     H68033  11.765   4.576  11.235 -2.7190 -2.6381 -2.2948
  504MOL0     H68034  11.982   4.700  11.226 -2.6751  0.6544  1.4803
  504MOL0     H68035  12.067   4.549  11.182 -0.7149 -0.0714 -1.1920
  504MOL0     H68036  12.025   4.468  11.405  1.0930  0.0292 -2.3420
  504MOL0     H68037  11.931   4.622  11.442  2.2639  0.3534  4.3369
  504MOL0     H68038  12.346   4.732  11.485  1.6070  0.4990 -2.9674
  504MOL0     H68039  11.509   4.438  10.890  0.2997  0.7558  3.4009
  504MOL0     H68040  11.434   4.506  10.640  0.6280 -0.9663 -0.4373
  505MOL0     O68041   4.808   5.481   3.764  0.3855  0.2691  0.4810
  505MOL0     C68042   4.780   5.425   3.658 -0.1658 -0.4380 -0.0359
  505MOL0     O68043   4.818   5.466   3.535  0.3109  0.1251  0.7566
  505MOL0     C68044   4.836   5.600   3.530 -0.2354 -0.3350  0.8440
  505MOL0     C68045   4.745   5.696   3.584  0.1149  0.5239 -1.6421
  505MOL0     C68046   4.755   5.832   3.560 -0.4393  0.1153  0.4568
  505MOL0     C68047   4.863   5.877   3.484 -0.2023  0.2506  0.2423
  505MOL0     O68048   4.882   6.008   3.447 -1.6935  0.6444 -0.2759
  505MOL0     C68049   4.782   6.109   3.439  0.1734 -0.5556  0.0970
  505MOL0     C68050   4.853   6.237   3.439  0.3125 -0.0078 -0.4182
  505MOL0     C68051   4.777   6.346   3.382  0.5265  0.8364 -0.5980
  505MOL0     C68052   4.845   6.484   3.360  0.4375 -0.8588  0.6695
  505MOL0     C68053   4.950   6.474   3.245 -0.7229 -0.0239  0.1899
  505MOL0     C68054   5.081   6.555   3.255 -0.1628 -0.5257  0.2832
  505MOL0     C68055   5.064   6.693   3.193 -0.6397  0.3913  0.5837
  505MOL0     C68056   5.176   6.785   3.212 -0.4386 -0.5157 -0.8391
  505MOL0     N68057   5.304   6.730   3.156  0.6219  0.8859 -0.0254
  505MOL0     C68058   5.341   6.735   3.027 -0.2704  0.0966 -0.2966
  505MOL0     C68059   5.479   6.713   3.029  0.9001  0.7908  0.4101
  505MOL0     C68060   5.582   6.710   2.919 -1.3561 -0.0405  0.7436
  505MOL0     C68061   5.521   6.735   2.784 -0.9463  0.3189  1.6791
  505MOL0     C68062   5.628   6.717   2.672  0.1286 -0.0823  0.9851
  505MOL0     C68063   5.558   6.760   2.533  0.1106 -0.5717 -0.4338
  505MOL0     O68064   5.503   6.893   2.547  0.2529 -0.3441  0.3162
  505MOL0     C68065   5.435   6.946   2.434  0.0195 -0.0439 -0.9395
  505MOL0     C68066   5.426   6.879   2.312  0.3070  0.5777  0.1210
  505MOL0     C68067   5.364   6.930   2.197  0.0709 -0.2277 -0.2656
  505MOL0     C68068   5.363   6.853   2.065 -0.2541 -0.5963  0.1945
  505MOL0     C68069   5.300   7.063   2.215  0.9220  0.5335  0.1070
  505MOL0     C68070   5.231   7.141   2.107  0.1318 -0.2100 -0.1039
  505MOL0     O68071   5.207   7.274   2.147  0.1665 -0.5454  0.8712
  505MOL0     C68072   5.179   7.353   2.035  0.0063 -0.3379 -0.8773
  505MOL0     C68073   5.046   7.344   1.987  0.5400  0.0554 -1.2180
  505MOL0     C68074   4.996   7.424   1.884  0.0711  0.6177  0.4335
  505MOL0     C68075   5.082   7.515   1.829  0.2844 -0.3671 -0.1876
  505MOL0     O68076   5.049   7.590   1.721  0.2902 -0.2369 -0.0154
  505MOL0     C68077   4.914   7.588   1.670 -0.5523  0.1426  1.2517
  505MOL0     C68078   4.915   7.683   1.543 -0.3434 -0.5123  0.1603
  505MOL0     C68079   4.811   7.633   1.440 -0.7458  0.0686 -0.6498
  505MOL0     C68080   4.685   7.578   1.506 -0.1431  0.7895 -0.2866
  505MOL0     C68081   4.577   7.557   1.400 -0.3370  0.7339 -0.8065
  505MOL0     C68082   4.470   7.461   1.462 -0.0069  0.4169  0.4302
  505MOL0     C68083   4.384   7.393   1.355 -0.0041 -0.5802  0.3496
  505MOL0     C68084   4.304   7.265   1.396 -0.0846 -0.3381 -1.1566
  505MOL0    Cl68085   4.239   7.185   1.271  0.4440 -0.2869 -0.0056
  505MOL0     C68086   5.212   7.524   1.876  0.0792 -0.0895 -0.6464
  505MOL0     C68087   5.265   7.449   1.981  0.5896  0.0662  0.8417
  505MOL0     O68088   5.192   7.091   2.001  0.5299  0.4197  0.6032
  505MOL0     C68089   5.324   7.125   2.338 -0.1216 -0.0428  0.1853
  505MOL0     C68090   5.382   7.073   2.451  0.6646  1.1094  0.5776
  505MOL0     N68091   5.511   6.704   3.164  0.6656 -0.3787 -0.4733
  505MOL0     N68092   5.406   6.720   3.240 -0.3147 -0.3110 -0.0504
  505MOL0     C68093   4.968   5.788   3.438 -0.2490  0.7206  0.4377
  505MOL0     C68094   4.951   5.651   3.461  0.0751  0.2189 -0.0572
  505MOL0     C68095   4.699   5.302   3.666 -0.3161  0.2956  0.2499
  505MOL0     C68096   4.670   5.224   3.554  0.2783 -0.2920  0.0369
  505MOL0     C68097   4.585   5.113   3.561  0.4533  0.8829  0.2394
  505MOL0     C68098   4.552   5.066   3.689  0.0457  1.0461 -0.1279
  505MOL0     O68099   4.475   4.951   3.692 -0.4142 -0.4371  0.6218
  505MOL0     C68100   4.472   4.870   3.810  0.7601 -0.6247 -0.2132
  505MOL0     C68101   4.600   4.801   3.844  0.1805  0.3643 -0.1797
  505MOL0     C68102   4.568   4.682   3.940 -0.4253 -0.4562 -0.2973
  505MOL0     C68103   4.558   4.553   3.855 -0.2516 -0.0069 -0.0751
  505MOL0     C68104   4.540   4.441   3.960 -0.5643 -0.1540 -0.1320
  505MOL0     C68105   4.523   4.359   4.048 -0.1053  1.0971  0.5495
  505MOL0     C68106   4.583   5.135   3.800  0.6388  0.4933 -0.0952
  505MOL0     C68107   4.659   5.251   3.792 -0.3038  0.3705 -0.5185
  505MOL0     H68108   4.657   5.662   3.638  3.1381 -0.1178  3.5421
  505MOL0     H68109   4.694   5.912   3.601  2.2909  0.7954  3.6041
  505MOL0     H68110   4.720   6.091   3.351  0.1767 -2.5668  0.4744
  505MOL0     H68111   4.708   6.112   3.519  0.0146  3.6862  0.0527
  505MOL0     H68112   4.875   6.267   3.542 -0.7896 -2.9650  0.7972
  505MOL0     H68113   4.951   6.237   3.390  1.5671 -0.5885  1.9260
  505MOL0     H68114   4.722   6.327   3.289 -2.4486  1.3217  0.9261
  505MOL0     H68115   4.694   6.367   3.450  0.4782  1.8887 -0.9643
  505MOL0     H68116   4.775   6.568   3.347  2.7080  1.0911  0.4129
  505MOL0     H68117   4.899   6.488   3.454 -1.9578 -2.8127  2.2481
  505MOL0     H68118   4.983   6.369   3.239  0.1028  0.0205  2.8484
  505MOL0     H68119   4.898   6.484   3.149  0.5270  0.7676 -0.4435
  505MOL0     H68120   5.130   6.576   3.350 -1.3137  1.4074  0.5087
  505MOL0     H68121   5.150   6.497   3.193 -0.2216  1.8559 -2.2094
  505MOL0     H68122   5.052   6.684   3.084  0.4061 -1.2840  0.5773
  505MOL0     H68123   4.971   6.733   3.234 -1.9667 -1.8914 -0.0478
  505MOL0     H68124   5.190   6.806   3.319  1.2592 -0.3408 -1.0561
  505MOL0     H68125   5.153   6.875   3.155  0.2291 -2.3311 -4.2363
  505MOL0     H68126   5.284   6.754   2.937  0.3986 -0.4318 -0.8483
  505MOL0     H68127   5.655   6.787   2.942 -1.5649 -0.4638  3.0570
  505MOL0     H68128   5.627   6.610   2.917  2.3823  1.4855 -1.0349
  505MOL0     H68129   5.474   6.834   2.778 -0.7115  0.4124 -2.9673
  505MOL0     H68130   5.443   6.659   2.769 -2.1082  1.7856 -0.2376
  505MOL0     H68131   5.673   6.617   2.674  0.3949  0.0455  1.3811
  505MOL0     H68132   5.714   6.781   2.692 -0.0573  0.3748  0.3579
  505MOL0     H68133   5.485   6.681   2.511 -2.0437  1.1736  0.0784
  505MOL0     H68134   5.640   6.770   2.462  0.6516  2.6895  0.4705
  505MOL0     H68135   5.476   6.784   2.296  0.3959  0.4761  0.9840
  505MOL0     H68136   5.464   6.812   2.056  0.0973 -0.1375  1.6938
  505MOL0     H68137   5.288   6.773   2.071 -1.7462  0.8581  1.9392
  505MOL0     H68138   5.350   6.920   1.980  3.3213  0.4353  0.3135
  505MOL0     H68139   4.979   7.274   2.036 -1.2015  2.4828  0.1032
  505MOL0     H68140   4.892   7.409   1.856  0.4899 -1.3939 -0.2483
  505MOL0     H68141   4.895   7.487   1.634  1.1913  0.6323 -1.3269
  505MOL0     H68142   4.841   7.607   1.749  2.1570  2.3536  3.4705
  505MOL0     H68143   4.891   7.781   1.586 -2.2270 -0.5247 -0.7941
  505MOL0     H68144   5.006   7.702   1.485 -1.5213  0.7600 -1.3684
  505MOL0     H68145   4.859   7.556   1.378 -0.5311 -1.4886  1.3503
  505MOL0     H68146   4.790   7.724   1.383 -1.1356  0.2597 -0.2065
  505MOL0     H68147   4.716   7.480   1.544  1.2595  1.4943  0.4534
  505MOL0     H68148   4.645   7.640   1.586 -2.3934  0.4071 -1.0363
  505MOL0     H68149   4.626   7.498   1.322  1.0778 -0.3900  0.8482
  505MOL0     H68150   4.524   7.648   1.370 -4.1690 -1.3061 -0.8838
  505MOL0     H68151   4.526   7.383   1.514  1.1586 -0.5394 -2.0638
  505MOL0     H68152   4.418   7.527   1.532  1.6718 -0.9256  3.1107
  505MOL0     H68153   4.438   7.361   1.266 -1.7362  0.9773 -1.3511
  505MOL0     H68154   4.315   7.469   1.317 -1.6937  0.0346  4.1400
  505MOL0     H68155   4.215   7.299   1.451  0.5811 -1.0959  0.4643
  505MOL0     H68156   4.355   7.194   1.462 -2.1255 -0.6621  0.2038
  505MOL0     H68157   5.289   7.588   1.833  4.8546 -1.9627  3.9075
  505MOL0     H68158   5.362   7.449   2.030  0.5290 -2.5336  1.1456
  505MOL0     H68159   5.279   7.223   2.341 -1.7842 -0.7780  0.5826
  505MOL0     H68160   5.390   7.134   2.540  0.2829  1.0935  0.6263
  505MOL0     H68161   5.056   5.829   3.388  1.2639 -1.0791  1.4917
  505MOL0     H68162   5.029   5.588   3.418  1.0776  2.0796 -1.1257
  505MOL0     H68163   4.718   5.248   3.460 -1.2874  0.8098 -0.5187
  505MOL0     H68164   4.565   5.056   3.472  0.2761  1.3084  0.0007
  505MOL0     H68165   4.455   4.916   3.907 -0.8231 -4.4084  1.4822
  505MOL0     H68166   4.386   4.803   3.801 -1.0949  1.6387  0.0024
  505MOL0     H68167   4.671   4.867   3.894  0.0393  3.2767 -3.4569
  505MOL0     H68168   4.637   4.760   3.750 -1.2923  1.4767 -1.3003
  505MOL0     H68169   4.471   4.688   3.991  1.4262 -1.1580  3.6288
  505MOL0     H68170   4.635   4.676   4.026 -2.2913  2.2183  1.5378
  505MOL0     H68171   4.654   4.552   3.803  0.6970 -2.0321  1.5254
  505MOL0     H68172   4.480   4.546   3.779 -1.5933  1.0961  1.1425
  505MOL0     H68173   4.510   4.280   4.119 -2.6044  1.1511  0.2348
  505MOL0     H68174   4.557   5.117   3.904  0.2789  0.2938 -0.2171
  505MOL0     H68175   4.689   5.300   3.884 -0.3224 -0.3031 -0.1504
  506MOL0     O68176   9.410   4.178   0.775 -0.2908 -0.5633  0.6340
  506MOL0     C68177   9.350   4.077   0.739  0.2419 -0.4126 -1.2816
  506MOL0     O68178   9.357   4.021   0.613 -0.3088  0.1578 -0.2053
  506MOL0     C68179   9.414   4.083   0.505 -0.6458  1.0675 -0.2705
  506MOL0     C68180   9.514   4.017   0.446  0.1552  0.5694  0.5549
  506MOL0     C68181   9.583   4.070   0.338 -0.2219 -0.0481 -0.0198
  506MOL0     C68182   9.549   4.193   0.297 -0.2116 -1.0565 -0.2419
  506MOL0     O68183   9.629   4.248   0.200  0.4984 -0.2417  0.6348
  506MOL0     C68184   9.581   4.357   0.124  0.8594 -0.7285 -0.4753
  506MOL0     C68185   9.682   4.400   0.018  0.5800 -0.2837  0.1531
  506MOL0     C68186   9.704   4.301  -0.095  0.2604  0.4452  0.7239
  506MOL0     C68187   9.819   4.344  -0.189  0.8803 -1.0453 -0.3481
  506MOL0     C68188   9.892   4.233  -0.262 -0.6287 -0.0694  0.8658
  506MOL0     C68189   9.792   4.163  -0.349 -0.5151 -0.1123  0.5828
  506MOL0     C68190   9.736   4.256  -0.454  0.2814  0.1454 -0.1488
  506MOL0     C68191   9.654   4.183  -0.554  0.2582  1.4975 -0.6754
  506MOL0     N68192   9.585   4.056  -0.506 -0.0749 -0.1568 -0.0825
  506MOL0     C68193   9.634   3.927  -0.521  0.6281 -0.3422 -0.2781
  506MOL0     C68194   9.523   3.864  -0.486  0.7527  0.1641 -0.0737
  506MOL0     C68195   9.481   3.715  -0.519 -0.8206  0.1897 -0.1706
  506MOL0     C68196   9.474   3.703  -0.668  0.1983  0.4333  0.5283
  506MOL0     C68197   9.366   3.785  -0.728  0.3950  1.0178  1.2374
  506MOL0     C68198   9.220   3.747  -0.679  0.2577 -0.8339 -0.4432
  506MOL0     O68199   9.125   3.810  -0.748  1.3329 -0.0572 -0.9514
  506MOL0     C68200   9.119   3.951  -0.735  0.7058 -0.1009 -1.4096
  506MOL0     C68201   9.079   4.034  -0.835  0.2592 -0.0697  0.3965
  506MOL0     C68202   9.054   4.173  -0.818  0.4838 -0.1821  0.0310
  506MOL0     C68203   8.992   4.254  -0.936 -0.0388  0.2142  0.3273
  506MOL0     C68204   9.090   4.238  -0.704 -0.4167 -0.4141  0.2300
  506MOL0     C68205   9.096   4.389  -0.684  0.2633  0.1780  0.4263
  506MOL0     O68206   9.034   4.429  -0.568  0.3190  0.2750  0.3230
  506MOL0     C68207   8.987   4.557  -0.556  0.0400 -0.3931 -0.3452
  506MOL0     C68208   8.937   4.629  -0.673 -0.7575  0.0883  0.0892
  506MOL0     C68209   8.888   4.756  -0.650 -0.0231 -0.6680 -0.1330
  506MOL0     C68210   8.892   4.821  -0.528 -0.5733 -0.5993 -0.0171
  506MOL0     O68211   8.835   4.942  -0.505 -0.9833  0.0533 -0.5089
  506MOL0     C68212   8.883   5.065  -0.562  0.7354 -0.1839  0.1200
  506MOL0     C68213   8.795   5.126  -0.680 -0.3031 -0.0950  0.9295
  506MOL0     C68214   8.833   5.270  -0.730 -0.4254  0.7916  0.2560
  506MOL0     C68215   8.821   5.385  -0.626 -0.4755  0.1587 -0.2225
  506MOL0     C68216   8.818   5.526  -0.686  0.2561 -1.0631 -1.0948
  506MOL0     C68217   8.795   5.629  -0.580 -0.2263  0.4581 -0.2324
  506MOL0     C68218   8.787   5.768  -0.641 -0.6418  0.7018 -0.3345
  506MOL0     C68219   8.713   5.875  -0.574  1.2043  0.5012  0.4137
  506MOL0    Cl68220   8.748   6.036  -0.649  0.4613  0.1235  0.1153
  506MOL0     C68221   8.938   4.745  -0.417 -1.1407 -0.6327  0.6955
  506MOL0     C68222   8.988   4.617  -0.431  0.0739  0.0055  0.2250
  506MOL0     O68223   9.164   4.452  -0.768  1.0770 -0.8656 -0.5962
  506MOL0     C68224   9.148   4.154  -0.608 -0.2421 -0.3112 -0.3051
  506MOL0     C68225   9.157   4.015  -0.623  0.3449  0.0308 -0.9211
  506MOL0     N68226   9.435   3.945  -0.427  0.0391  0.3212  0.0935
  506MOL0     N68227   9.468   4.062  -0.442  0.3671  0.4169  0.7130
  506MOL0     C68228   9.439   4.261   0.353 -0.3963 -0.2910  0.2121
  506MOL0     C68229   9.366   4.207   0.456 -0.2414 -0.5142 -0.6608
  506MOL0     C68230   9.267   4.005   0.839  0.3023 -0.5717  0.9605
  506MOL0     C68231   9.291   4.031   0.973  1.1224  0.1558  0.7862
  506MOL0     C68232   9.209   3.974   1.069  0.2346  0.9807 -0.2958
  506MOL0     C68233   9.111   3.881   1.034 -0.4695  1.3456  0.1796
  506MOL0     O68234   9.026   3.824   1.122 -0.4020  0.1181  0.3510
  506MOL0     C68235   9.059   3.831   1.264  0.1078  0.1829 -0.6011
  506MOL0     C68236   9.184   3.749   1.299 -0.7903  0.2291  0.2494
  506MOL0     C68237   9.216   3.740   1.444  0.5600  0.0004  0.4497
  506MOL0     C68238   9.326   3.634   1.475  0.5127  0.1461  0.1427
  506MOL0     C68239   9.325   3.607   1.619 -0.5055 -0.2534 -1.5495
  506MOL0     C68240   9.329   3.594   1.741 -0.0240 -0.2384  0.7477
  506MOL0     C68241   9.088   3.856   0.891  0.0761 -0.0340 -0.9187
  506MOL0     C68242   9.162   3.929   0.795 -0.4357 -0.0141  0.7644
  506MOL0     H68243   9.550   3.918   0.471  4.3576  1.3239 -1.6364
  506MOL0     H68244   9.661   4.015   0.286 -1.7468 -1.8821 -0.4630
  506MOL0     H68245   9.484   4.346   0.074 -0.1130 -1.3762  1.4857
  506MOL0     H68246   9.576   4.446   0.188  0.7831 -0.8736 -0.2808
  506MOL0     H68247   9.647   4.488  -0.036  1.7008  0.8223  1.1553
  506MOL0     H68248   9.773   4.430   0.072 -0.0534 -0.8997  1.6207
  506MOL0     H68249   9.742   4.209  -0.050 -0.3711  0.4126  1.2002
  506MOL0     H68250   9.615   4.294  -0.158  1.8572  4.0463 -2.3096
  506MOL0     H68251   9.784   4.422  -0.257  0.4670 -0.5014  0.4774
  506MOL0     H68252   9.900   4.389  -0.131  2.8076 -3.2152 -1.2062
  506MOL0     H68253   9.956   4.283  -0.336 -2.7076 -0.8471 -1.5892
  506MOL0     H68254   9.944   4.163  -0.195 -1.6299 -1.5506  0.1414
  506MOL0     H68255   9.841   4.086  -0.409  1.5851  0.2274  1.7723
  506MOL0     H68256   9.717   4.105  -0.294 -0.8120 -1.8537 -1.5125
  506MOL0     H68257   9.671   4.329  -0.404 -0.8138 -1.1555  0.4209
  506MOL0     H68258   9.808   4.308  -0.517 -0.0738  2.6186  1.3607
  506MOL0     H68259   9.714   4.136  -0.633 -3.2752 -3.2717 -0.9597
  506MOL0     H68260   9.575   4.245  -0.598 -1.8406 -1.4919 -1.4055
  506MOL0     H68261   9.715   3.881  -0.577 -1.3563 -1.0027 -2.8160
  506MOL0     H68262   9.559   3.651  -0.479 -0.8857  0.7391  0.8714
  506MOL0     H68263   9.383   3.687  -0.479 -1.2887  1.5047 -0.3419
  506MOL0     H68264   9.456   3.601  -0.701  1.1910  0.9723 -1.8443
  506MOL0     H68265   9.566   3.738  -0.717 -0.2332 -1.6408 -1.9284
  506MOL0     H68266   9.370   3.791  -0.837 -1.5633  0.4205  1.0981
  506MOL0     H68267   9.392   3.886  -0.695  2.3422  0.7247  0.7057
  506MOL0     H68268   9.206   3.757  -0.571 -0.5715 -0.2880 -0.5851
  506MOL0     H68269   9.203   3.640  -0.695 -1.9470 -0.3801 -1.5938
  506MOL0     H68270   9.055   4.003  -0.936 -1.3412 -0.9546  1.0116
  506MOL0     H68271   8.919   4.184  -0.977 -0.8374  2.4825 -2.4001
  506MOL0     H68272   8.943   4.349  -0.917 -0.0098  0.4158 -0.5800
  506MOL0     H68273   9.073   4.281  -1.005  0.4750 -1.1996  0.3245
  506MOL0     H68274   8.943   4.584  -0.771 -0.1550  1.3767 -0.4808
  506MOL0     H68275   8.852   4.811  -0.736  4.1676  1.5532 -0.7523
  506MOL0     H68276   8.894   5.136  -0.480  0.7649  0.3576 -0.3453
  506MOL0     H68277   8.985   5.044  -0.594  0.4626  0.3840 -1.1801
  506MOL0     H68278   8.792   5.053  -0.761 -2.1220  0.3049  0.6021
  506MOL0     H68279   8.690   5.117  -0.650 -0.6644  0.4945 -0.1115
  506MOL0     H68280   8.761   5.280  -0.812 -1.5912 -2.9508  0.6374
  506MOL0     H68281   8.936   5.270  -0.769 -0.5103 -2.0338 -0.1538
  506MOL0     H68282   8.729   5.369  -0.569 -1.1571  1.9510 -0.7556
  506MOL0     H68283   8.911   5.373  -0.564  0.9141  2.5286 -1.6231
  506MOL0     H68284   8.729   5.533  -0.750 -1.6448 -2.0171  1.3108
  506MOL0     H68285   8.904   5.556  -0.746  1.0164  0.7663  0.7883
  506MOL0     H68286   8.700   5.611  -0.528 -1.3671  4.4058 -0.6325
  506MOL0     H68287   8.876   5.622  -0.506 -1.8686 -0.4913  1.6014
  506MOL0     H68288   8.752   5.775  -0.745  1.7255  2.5425 -1.1073
  506MOL0     H68289   8.888   5.802  -0.662 -0.6040  0.1688 -1.0691
  506MOL0     H68290   8.739   5.871  -0.468 -2.0943 -2.0040  1.2509
  506MOL0     H68291   8.606   5.862  -0.588  0.5654  2.2464  2.8860
  506MOL0     H68292   8.937   4.782  -0.315  2.7881  0.1555  0.5968
  506MOL0     H68293   9.027   4.567  -0.343  1.9086 -0.4880 -0.8282
  506MOL0     H68294   9.183   4.193  -0.513 -1.3273  1.0100 -0.4227
  506MOL0     H68295   9.203   3.957  -0.544  0.8538 -1.5510 -2.3111
  506MOL0     H68296   9.410   4.364   0.331  0.6280  0.1134  0.6901
  506MOL0     H68297   9.291   4.273   0.497  1.3587  2.0589 -1.6389
  506MOL0     H68298   9.378   4.087   1.005  1.4764 -0.5878  1.1379
  506MOL0     H68299   9.233   4.005   1.170 -1.5083  0.6301  0.2502
  506MOL0     H68300   9.071   3.934   1.298 -0.7642  0.1939 -0.2942
  506MOL0     H68301   8.973   3.797   1.322  0.6481 -0.9463 -0.4370
  506MOL0     H68302   9.264   3.789   1.236 -1.5863  2.5384  0.6430
  506MOL0     H68303   9.156   3.649   1.263 -1.3864 -0.5874  2.7532
  506MOL0     H68304   9.130   3.690   1.488  0.9087 -1.9197 -0.9162
  506MOL0     H68305   9.225   3.841   1.485  0.9975  0.9108 -1.6991
  506MOL0     H68306   9.424   3.652   1.429 -0.1747 -2.0250 -2.4512
  506MOL0     H68307   9.291   3.550   1.415 -0.5615  1.8923 -1.8026
  506MOL0     H68308   9.319   3.596   1.848 -0.3082  1.2329  0.7265
  506MOL0     H68309   8.993   3.810   0.866 -0.9659  1.4869  0.0739
  506MOL0     H68310   9.135   3.927   0.689 -1.4413 -0.6561  1.0150
  507MOL0     O68311   5.026   7.918   3.076 -0.0724  0.1318  0.2602
  507MOL0     C68312   5.127   7.981   3.090  0.0221 -0.9720  0.2394
  507MOL0     O68313   5.193   8.001   3.204 -0.6557  0.8216 -0.0757
  507MOL0     C68314   5.153   7.962   3.335 -0.3587  0.2000  0.8433
  507MOL0     C68315   5.050   7.873   3.367  0.3348  0.1403  0.2105
  507MOL0     C68316   5.025   7.833   3.493 -0.4234 -0.2362 -0.8101
  507MOL0     C68317   5.089   7.900   3.607 -0.2265 -0.2241 -0.1036
  507MOL0     O68318   5.062   7.854   3.741  0.4089  0.3666  0.6299
  507MOL0     C68319   4.960   7.760   3.771 -0.4306 -0.7587 -0.1774
  507MOL0     C68320   4.915   7.782   3.916 -0.0613  0.0755  0.5461
  507MOL0     C68321   5.018   7.706   4.007  0.6142  0.3660 -0.2285
  507MOL0     C68322   4.994   7.728   4.157  0.7404 -0.7153  0.3463
  507MOL0     C68323   4.902   7.633   4.222  0.1092  0.2900  0.2617
  507MOL0     C68324   4.887   7.660   4.375  0.2150 -0.3048 -0.2492
  507MOL0     C68325   5.002   7.621   4.477  0.0678  0.4587  0.5800
  507MOL0     C68326   5.020   7.471   4.475  0.0444  0.1562 -0.2143
  507MOL0     N68327   5.050   7.426   4.617  0.5053 -0.7416 -0.0213
  507MOL0     C68328   5.083   7.504   4.723  0.0916  0.1844 -0.2289
  507MOL0     C68329   5.076   7.428   4.836 -0.0180 -0.0668  0.4698
  507MOL0     C68330   5.074   7.458   4.987 -0.9092 -0.6467  1.1620
  507MOL0     C68331   5.188   7.389   5.055  0.5265 -0.1308  0.3099
  507MOL0     C68332   5.196   7.427   5.205  0.0386 -0.2763  1.3337
  507MOL0     C68333   5.070   7.424   5.286  0.6975  0.2260  0.2375
  507MOL0     O68334   4.971   7.523   5.249  0.4420  0.1753  0.4955
  507MOL0     C68335   4.853   7.522   5.323 -0.6323  0.2486  0.3997
  507MOL0     C68336   4.821   7.438   5.427  0.1798  0.4022  0.3037
  507MOL0     C68337   4.706   7.451   5.496  0.5540  0.1858 -0.2898
  507MOL0     C68338   4.685   7.357   5.614 -0.0929 -0.9141 -1.1058
  507MOL0     C68339   4.614   7.551   5.461 -0.0386 -0.1174  0.6544
  507MOL0     C68340   4.483   7.570   5.528  0.2491  0.3871 -0.5388
  507MOL0     O68341   4.419   7.445   5.550 -0.2067 -0.8648  0.0319
  507MOL0     C68342   4.294   7.429   5.593  0.0857  0.0114  0.5578
  507MOL0     C68343   4.242   7.303   5.547 -0.3337  0.1838  0.6276
  507MOL0     C68344   4.103   7.276   5.569  0.6617  0.3003 -1.0505
  507MOL0     C68345   4.013   7.373   5.619 -0.5428  0.0168 -0.1938
  507MOL0     O68346   3.885   7.336   5.605 -0.2042  0.0736 -0.8427
  507MOL0     C68347   3.790   7.437   5.644 -0.1882 -0.1300 -0.5530
  507MOL0     C68348   3.645   7.413   5.609  0.2278  0.0437  0.8334
  507MOL0     C68349   3.575   7.368   5.740 -0.4042  1.1054  0.5797
  507MOL0     C68350   3.451   7.277   5.697 -0.6844 -0.4998 -0.1306
  507MOL0     C68351   3.355   7.228   5.804  1.3011 -0.1832  0.2713
  507MOL0     C68352   3.272   7.337   5.870 -0.7887  0.1751  0.0212
  507MOL0     C68353   3.153   7.364   5.796 -0.2115 -0.1892 -0.0224
  507MOL0     C68354   3.052   7.464   5.866 -0.3505  0.2752 -0.4089
  507MOL0    Cl68355   3.144   7.609   5.910 -0.0380  0.2264  0.6859
  507MOL0     C68356   4.065   7.485   5.667 -0.5994  0.2907 -0.5552
  507MOL0     C68357   4.204   7.518   5.648 -0.2463 -0.3681  0.0880
  507MOL0     O68358   4.433   7.680   5.521 -0.0947 -0.1771 -0.5488
  507MOL0     C68359   4.649   7.645   5.362 -0.6453  0.6174 -0.5083
  507MOL0     C68360   4.769   7.627   5.289  0.8859 -1.3478 -1.2303
  507MOL0     N68361   5.031   7.301   4.788  0.2300 -0.3821 -0.7630
  507MOL0     N68362   5.013   7.302   4.660  0.9015 -0.2255  0.1449
  507MOL0     C68363   5.191   7.998   3.575 -0.2250 -0.1586  0.5112
  507MOL0     C68364   5.223   8.027   3.442  0.6385  0.4715 -0.0705
  507MOL0     C68365   5.165   8.073   2.977  0.0520  0.3596  1.0425
  507MOL0     C68366   5.058   8.119   2.896  0.4915 -0.4256  0.4338
  507MOL0     C68367   5.072   8.226   2.803  0.5189  0.2155  0.9682
  507MOL0     C68368   5.191   8.295   2.798 -0.7347  0.0331 -0.9250
  507MOL0     O68369   5.188   8.405   2.716 -0.2730 -0.2802 -0.9756
  507MOL0     C68370   5.308   8.406   2.628  0.3663  0.6158 -0.2756
  507MOL0     C68371   5.289   8.498   2.511  0.1515  0.5015 -0.4507
  507MOL0     C68372   5.421   8.565   2.456  0.2089 -0.7932  0.2411
  507MOL0     C68373   5.389   8.661   2.340 -0.0434 -0.5005  0.2877
  507MOL0     C68374   5.361   8.800   2.386 -0.0858 -0.2575 -0.8403
  507MOL0     C68375   5.338   8.915   2.407  0.7889  0.1227 -0.2755
  507MOL0     C68376   5.302   8.249   2.876  0.1114 -0.6048  0.5911
  507MOL0     C68377   5.286   8.136   2.963  0.0126 -1.0459  0.5301
  507MOL0     H68378   4.988   7.824   3.292 -0.4153  0.1274  0.8285
  507MOL0     H68379   4.941   7.768   3.517 -1.3225  0.3051 -2.3895
  507MOL0     H68380   4.870   7.769   3.709 -0.4079 -3.3367 -0.7147
  507MOL0     H68381   4.985   7.655   3.749 -2.0909 -1.8147  2.4797
  507MOL0     H68382   4.914   7.888   3.943  1.4395  0.1510  0.3989
  507MOL0     H68383   4.819   7.737   3.946 -0.2617  0.5859  0.6769
  507MOL0     H68384   5.018   7.601   3.980  0.2875  0.8383 -2.1942
  507MOL0     H68385   5.117   7.749   3.987  1.0632 -1.1115 -1.3415
  507MOL0     H68386   5.093   7.708   4.199  1.7528 -0.6962 -1.9059
  507MOL0     H68387   4.971   7.832   4.185  2.8259  0.3321 -1.5345
  507MOL0     H68388   4.808   7.657   4.171  0.7848  2.2742 -0.1198
  507MOL0     H68389   4.936   7.530   4.203  1.1252  0.8805 -1.2937
  507MOL0     H68390   4.871   7.767   4.385  1.1894 -0.3493  2.6088
  507MOL0     H68391   4.803   7.599   4.411 -0.8584  0.9918 -0.4576
  507MOL0     H68392   5.098   7.667   4.453 -0.1820  0.5921 -0.1816
  507MOL0     H68393   4.970   7.657   4.575  0.0872 -0.4253  0.9230
  507MOL0     H68394   5.106   7.431   4.419  0.8597  0.7968  0.5523
  507MOL0     H68395   4.928   7.418   4.448 -1.2986  0.8056  2.7778
  507MOL0     H68396   5.125   7.605   4.727 -2.1348  1.2150 -1.2724
  507MOL0     H68397   5.084   7.563   5.015  1.1595 -0.7045  0.7772
  507MOL0     H68398   4.981   7.428   5.036  0.7033 -3.4516  2.6865
  507MOL0     H68399   5.272   7.426   4.997 -1.7162  1.1702 -2.3325
  507MOL0     H68400   5.193   7.280   5.048  1.7918 -0.1999  1.6533
  507MOL0     H68401   5.245   7.525   5.210  1.6418 -0.8014 -1.6714
  507MOL0     H68402   5.266   7.354   5.246  3.7491  1.9104 -0.5755
  507MOL0     H68403   5.098   7.456   5.386  2.1720  1.3746 -0.4965
  507MOL0     H68404   5.029   7.325   5.264  0.9674  0.9139 -4.4738
  507MOL0     H68405   4.889   7.357   5.450 -0.1279 -1.3936 -4.1575
  507MOL0     H68406   4.613   7.283   5.579 -2.2060  0.1781  0.6899
  507MOL0     H68407   4.778   7.313   5.649 -0.8929 -2.0164 -0.3042
  507MOL0     H68408   4.641   7.409   5.699 -1.0666 -1.0754 -1.4933
  507MOL0     H68409   4.296   7.219   5.505 -3.7926 -1.8766 -0.0281
  507MOL0     H68410   4.058   7.179   5.554 -4.8294  2.5871 -1.9864
  507MOL0     H68411   3.793   7.448   5.752  3.3788 -1.7119 -0.3346
  507MOL0     H68412   3.806   7.537   5.603 -0.3422  0.6861  1.3173
  507MOL0     H68413   3.613   7.511   5.571  3.4230 -0.1272 -2.9730
  507MOL0     H68414   3.629   7.331   5.539 -2.5903 -0.8741  2.3798
  507MOL0     H68415   3.531   7.451   5.796 -3.7530 -0.4425  0.5164
  507MOL0     H68416   3.646   7.304   5.794 -0.0161 -0.7387 -1.9393
  507MOL0     H68417   3.384   7.337   5.636  0.0227  1.4781  0.9279
  507MOL0     H68418   3.490   7.189   5.645  1.5520  0.9943 -1.1028
  507MOL0     H68419   3.415   7.185   5.885  0.8728  1.5860  1.5994
  507MOL0     H68420   3.295   7.149   5.759  2.6229  0.5265 -3.0169
  507MOL0     H68421   3.246   7.301   5.970 -1.3725  3.7878  1.3249
  507MOL0     H68422   3.330   7.429   5.882 -0.0853 -0.2276 -0.2062
  507MOL0     H68423   3.094   7.274   5.775  0.3904 -0.4035 -0.8285
  507MOL0     H68424   3.190   7.406   5.702 -0.3482  0.6799  0.3128
  507MOL0     H68425   3.029   7.430   5.967 -0.2986 -2.5486 -1.2627
  507MOL0     H68426   2.963   7.475   5.803 -1.7779 -3.3048  0.7668
  507MOL0     H68427   4.000   7.556   5.718 -3.4204 -2.5169  0.1194
  507MOL0     H68428   4.225   7.611   5.699 -0.4308 -0.5726  0.5413
  507MOL0     H68429   4.581   7.724   5.333 -0.7818  0.3824 -0.8376
  507MOL0     H68430   4.798   7.695   5.209  2.8778  1.3019  1.5404
  507MOL0     H68431   5.250   8.050   3.650 -1.8206  1.2397  0.8680
  507MOL0     H68432   5.295   8.106   3.421  1.5521 -0.8819 -2.3422
  507MOL0     H68433   4.952   8.097   2.901 -0.2434  2.2351 -1.3950
  507MOL0     H68434   4.987   8.249   2.739  1.7097  2.0862 -0.0430
  507MOL0     H68435   5.399   8.436   2.681  1.8039 -1.6475 -1.3458
  507MOL0     H68436   5.319   8.308   2.581 -4.4242  0.8648 -2.5373
  507MOL0     H68437   5.231   8.583   2.548 -4.5141 -2.3435 -0.4021
  507MOL0     H68438   5.226   8.456   2.433 -0.2963  3.5572 -1.8446
  507MOL0     H68439   5.486   8.485   2.418  2.9189  0.1224  2.5658
  507MOL0     H68440   5.481   8.620   2.529  0.6643 -0.0345 -0.6998
  507MOL0     H68441   5.306   8.621   2.282 -0.5874 -0.5669  1.0979
  507MOL0     H68442   5.474   8.679   2.273 -1.3048  1.9591 -0.7779
  507MOL0     H68443   5.296   9.013   2.414 -2.3978 -1.2284  1.5583
  507MOL0     H68444   5.386   8.317   2.885 -1.6057  1.6751  0.3139
  507MOL0     H68445   5.377   8.105   3.014  1.6753  0.7890 -1.1281
  508MOL0     O68446   2.743   6.422   2.540  0.0442  0.5910 -0.1068
  508MOL0     C68447   2.823   6.400   2.454  0.1315 -0.4032 -0.2154
  508MOL0     O68448   2.879   6.491   2.369  0.2285  0.5955 -0.0041
  508MOL0     C68449   2.860   6.629   2.369  0.1763 -0.0142  1.1695
  508MOL0     C68450   2.791   6.712   2.454 -0.2681  0.2295 -1.3786
  508MOL0     C68451   2.797   6.848   2.457 -0.1327  0.4265  0.1472
  508MOL0     C68452   2.862   6.912   2.355 -0.4648 -0.4843  0.2257
  508MOL0     O68453   2.869   7.050   2.347  0.1337 -0.2920 -1.2334
  508MOL0     C68454   2.879   7.139   2.464 -0.6412 -0.2907 -0.2507
  508MOL0     C68455   3.005   7.100   2.546  0.6138  1.0306  0.7484
  508MOL0     C68456   3.138   7.147   2.484  0.2776  0.6300 -0.9711
  508MOL0     C68457   3.251   7.107   2.572 -0.2149  0.9420 -0.3357
  508MOL0     C68458   3.383   7.172   2.516  0.3486 -0.3771 -0.2311
  508MOL0     C68459   3.499   7.150   2.616  0.1033 -0.1392 -0.8102
  508MOL0     C68460   3.640   7.197   2.568  0.5975 -0.3303 -1.1186
  508MOL0     C68461   3.638   7.347   2.545  0.4938  0.8627  0.3797
  508MOL0     N68462   3.675   7.423   2.667  0.0004 -0.2285 -0.0846
  508MOL0     C68463   3.727   7.550   2.651 -0.3435 -0.1047 -0.9651
  508MOL0     C68464   3.712   7.603   2.780 -0.4840  0.7129 -0.0971
  508MOL0     C68465   3.755   7.745   2.823  0.1450  0.4719 -0.2028
  508MOL0     C68466   3.667   7.859   2.753  0.2794  0.1901 -0.1896
  508MOL0     C68467   3.679   7.995   2.822 -0.2625 -0.7957  0.3807
  508MOL0     C68468   3.821   8.061   2.813 -0.1047 -0.2696 -1.4972
  508MOL0     O68469   3.841   8.119   2.682 -0.2302 -0.0108 -0.8750
  508MOL0     C68470   3.955   8.193   2.662 -0.4125  0.3984  0.8670
  508MOL0     C68471   4.002   8.270   2.767 -0.3501  0.8048 -0.8858
  508MOL0     C68472   4.115   8.354   2.753 -0.7653 -0.7393  0.0698
  508MOL0     C68473   4.154   8.453   2.863  0.1542  0.0975  0.2060
  508MOL0     C68474   4.190   8.351   2.630  0.5076 -0.3969 -0.7455
  508MOL0     C68475   4.305   8.444   2.592 -0.3957  0.8185  0.1421
  508MOL0     O68476   4.337   8.457   2.460 -0.0933 -0.0095  0.0364
  508MOL0     C68477   4.410   8.559   2.403  0.5745  1.4781 -0.0970
  508MOL0     C68478   4.450   8.680   2.471 -0.2139  0.2167 -0.0894
  508MOL0     C68479   4.511   8.780   2.400  1.0020 -0.0958  0.6360
  508MOL0     C68480   4.544   8.764   2.266  0.0832 -0.6325 -0.5964
  508MOL0     O68481   4.617   8.856   2.200  0.0572 -0.1670 -0.0019
  508MOL0     C68482   4.552   8.885   2.070 -0.5631  0.4611  0.0961
  508MOL0     C68483   4.618   8.995   1.994  0.6479  0.5589  0.7217
  508MOL0     C68484   4.772   9.006   2.015 -0.1352  0.1941  0.1518
  508MOL0     C68485   4.855   8.872   2.003  1.0349  0.1553 -0.2688
  508MOL0     C68486   5.001   8.883   1.965  0.0816 -0.3851 -0.0577
  508MOL0     C68487   5.094   8.773   2.025 -0.3549  0.5842  0.6469
  508MOL0     C68488   5.219   8.760   1.930 -0.3413  0.0940 -0.1688
  508MOL0     C68489   5.293   8.885   1.920  0.0307  0.7398 -1.1382
  508MOL0    Cl68490   5.443   8.856   1.843 -0.3658  0.0898 -0.1210
  508MOL0     C68491   4.515   8.639   2.200 -0.1794  0.4798 -0.1427
  508MOL0     C68492   4.440   8.537   2.264 -0.1978 -0.3033 -0.2941
  508MOL0     O68493   4.372   8.486   2.687 -0.2490  0.1961  0.7756
  508MOL0     C68494   4.142   8.268   2.529 -0.6306 -0.3471  0.7943
  508MOL0     C68495   4.018   8.199   2.537  0.4462  0.9023 -0.2590
  508MOL0     N68496   3.658   7.505   2.867  0.2995 -0.1623 -0.0690
  508MOL0     N68497   3.635   7.399   2.794  0.4344 -0.2161  0.3290
  508MOL0     C68498   2.922   6.835   2.253 -0.0095  0.5153 -0.0643
  508MOL0     C68499   2.918   6.697   2.262  0.2285  0.9295  0.4038
  508MOL0     C68500   2.865   6.259   2.450 -0.1311 -0.7519 -0.3609
  508MOL0     C68501   2.965   6.223   2.352 -0.0191  0.8256  0.6669
  508MOL0     C68502   3.020   6.096   2.366  0.3484 -1.0871 -0.5935
  508MOL0     C68503   2.982   5.998   2.466 -0.7648 -0.5883  0.5675
  508MOL0     O68504   3.032   5.881   2.455  0.1383 -0.1085  0.2816
  508MOL0     C68505   3.041   5.795   2.576  0.4882 -0.1777 -0.1099
  508MOL0     C68506   3.158   5.698   2.556 -0.1971 -0.2042 -0.2944
  508MOL0     C68507   3.195   5.633   2.691 -0.0442  0.1756  0.3141
  508MOL0     C68508   3.338   5.564   2.686 -0.1962 -0.5601 -0.6741
  508MOL0     C68509   3.325   5.440   2.616 -0.1663 -0.2254  0.4709
  508MOL0     C68510   3.307   5.342   2.548 -0.6136  0.1854  0.3303
  508MOL0     C68511   2.879   6.031   2.552  0.5547 -0.4757 -0.4073
  508MOL0     C68512   2.827   6.165   2.548  0.1334  0.1233 -0.7602
  508MOL0     H68513   2.740   6.668   2.540  4.3164 -1.9346  0.5657
  508MOL0     H68514   2.760   6.909   2.539  0.5173 -1.5918  2.0428
  508MOL0     H68515   2.880   7.247   2.448 -0.8187 -0.3703 -0.7989
  508MOL0     H68516   2.790   7.127   2.528 -0.2805 -0.6231  0.2016
  508MOL0     H68517   2.989   7.137   2.648 -0.2605 -1.7403  1.7111
  508MOL0     H68518   3.006   6.992   2.558  0.2001  1.0984  1.4550
  508MOL0     H68519   3.158   7.104   2.386  2.2814 -0.7363 -0.0291
  508MOL0     H68520   3.132   7.255   2.470 -0.4282  0.7160 -0.1033
  508MOL0     H68521   3.236   7.139   2.676 -1.9810 -0.0116 -0.2638
  508MOL0     H68522   3.268   6.999   2.570  3.1686  1.1042  3.9568
  508MOL0     H68523   3.402   7.134   2.416  3.3924  0.9476 -0.2558
  508MOL0     H68524   3.360   7.278   2.507 -1.2356 -0.8503 -2.6100
  508MOL0     H68525   3.486   7.193   2.716  0.8674  0.2117 -0.8556
  508MOL0     H68526   3.503   7.045   2.648 -1.2147  0.5275  1.9095
  508MOL0     H68527   3.719   7.173   2.640  2.1819  1.9583 -1.9592
  508MOL0     H68528   3.675   7.143   2.480  0.8401 -3.1113  0.5469
  508MOL0     H68529   3.536   7.380   2.526 -0.7547 -1.8036  1.8151
  508MOL0     H68530   3.701   7.365   2.458 -3.3539  0.4075 -2.7653
  508MOL0     H68531   3.769   7.599   2.564  2.3292 -2.7499 -1.3631
  508MOL0     H68532   3.747   7.765   2.930  0.3482 -1.2516  0.1661
  508MOL0     H68533   3.857   7.762   2.789 -0.7061  1.4360 -2.5046
  508MOL0     H68534   3.562   7.834   2.738  0.0301  0.2747  1.2709
  508MOL0     H68535   3.714   7.875   2.656 -0.8295  1.7312 -0.5195
  508MOL0     H68536   3.661   7.989   2.929  2.1670  4.0956  1.3586
  508MOL0     H68537   3.599   8.056   2.777  0.8722 -0.7210 -1.6713
  508MOL0     H68538   3.901   7.987   2.820  1.4696  1.4249 -0.5688
  508MOL0     H68539   3.828   8.126   2.900 -0.5963 -3.8618  1.4667
  508MOL0     H68540   3.940   8.277   2.856  0.2445  0.2484 -0.4216
  508MOL0     H68541   4.260   8.446   2.890  0.2520  0.5852 -0.0393
  508MOL0     H68542   4.121   8.553   2.832  1.0833  1.5112  3.3100
  508MOL0     H68543   4.104   8.430   2.958 -0.2784 -0.9251 -0.2571
  508MOL0     H68544   4.436   8.697   2.578 -0.7065  0.4641 -0.1919
  508MOL0     H68545   4.530   8.874   2.452  0.1068  0.1481  0.5316
  508MOL0     H68546   4.564   8.795   2.010 -0.8542 -0.2275  1.0558
  508MOL0     H68547   4.451   8.912   2.102 -0.7553 -0.9923  0.7684
  508MOL0     H68548   4.597   8.984   1.887 -1.0552 -0.8398  1.1531
  508MOL0     H68549   4.577   9.088   2.035 -0.3458  0.6672 -0.4654
  508MOL0     H68550   4.796   9.062   2.106 -2.5994 -1.4388  1.9374
  508MOL0     H68551   4.801   9.066   1.928  0.9226 -3.4096 -2.1788
  508MOL0     H68552   4.839   8.818   2.098 -2.2616  3.1146  1.0755
  508MOL0     H68553   4.815   8.810   1.922  1.9190  0.1060 -0.6759
  508MOL0     H68554   5.034   8.981   2.000 -0.8602 -0.3194  0.6846
  508MOL0     H68555   5.020   8.878   1.857 -0.3890 -1.8400 -0.0980
  508MOL0     H68556   5.121   8.799   2.127 -1.0618  0.2194  0.9308
  508MOL0     H68557   5.032   8.683   2.020 -2.7477  2.1986 -2.0503
  508MOL0     H68558   5.189   8.731   1.829  2.5506  1.4515 -1.5197
  508MOL0     H68559   5.295   8.690   1.966  1.4930  1.0516 -1.9487
  508MOL0     H68560   5.322   8.914   2.022  2.6673  0.9444 -1.8767
  508MOL0     H68561   5.226   8.956   1.870 -1.9773  1.2108  1.9015
  508MOL0     H68562   4.539   8.620   2.096 -2.2148 -1.2159 -0.3708
  508MOL0     H68563   4.419   8.440   2.221  2.3167 -0.6871 -0.8052
  508MOL0     H68564   4.199   8.278   2.438  1.9697  2.2887  2.5320
  508MOL0     H68565   3.975   8.147   2.452  0.9562 -0.4154  0.2651
  508MOL0     H68566   2.974   6.897   2.182 -3.0251  1.5731 -1.5338
  508MOL0     H68567   2.961   6.633   2.186 -1.2979 -0.0477  0.3235
  508MOL0     H68568   2.985   6.301   2.279 -2.1204  0.7115 -0.0704
  508MOL0     H68569   3.092   6.067   2.290  0.9294  1.5032 -1.1081
  508MOL0     H68570   3.066   5.865   2.656 -0.8173  0.3612 -0.1505
  508MOL0     H68571   2.948   5.746   2.605 -1.0147  4.7652  5.3825
  508MOL0     H68572   3.248   5.750   2.521  1.4365 -2.9857 -0.5202
  508MOL0     H68573   3.136   5.634   2.470  0.7325  1.9060 -2.2016
  508MOL0     H68574   3.115   5.563   2.719  0.1999  0.2798  1.3345
  508MOL0     H68575   3.200   5.719   2.758 -1.2112  1.3999 -1.0970
  508MOL0     H68576   3.358   5.542   2.792 -1.7455  3.2572  0.5756
  508MOL0     H68577   3.405   5.634   2.637 -1.1731  0.8046 -0.1119
  508MOL0     H68578   3.300   5.250   2.492  3.1024  0.4209 -0.8058
  508MOL0     H68579   2.845   5.955   2.623 -0.0658 -2.3492 -2.5902
  508MOL0     H68580   2.762   6.189   2.632 -1.2317 -0.6451 -1.5565
  509MOL0     O68581   8.174   5.567   1.574 -0.0913  0.3134  0.1195
  509MOL0     C68582   8.237   5.560   1.470  0.3809  0.3314  0.5134
  509MOL0     O68583   8.283   5.661   1.387 -0.9090  0.0683 -0.1135
  509MOL0     C68584   8.203   5.773   1.379  0.8109 -1.1008 -0.3335
  509MOL0     C68585   8.266   5.896   1.377 -0.1853  0.0189  0.1236
  509MOL0     C68586   8.196   6.009   1.354 -0.8795 -0.6199  0.1965
  509MOL0     C68587   8.061   6.005   1.324 -0.7493 -0.9964  0.3746
  509MOL0     O68588   8.006   6.124   1.299 -0.0324  0.9366  0.2520
  509MOL0     C68589   8.042   6.175   1.169  0.6836  0.2773  0.4701
  509MOL0     C68590   7.929   6.165   1.065 -0.1077  0.0468 -0.2068
  509MOL0     C68591   7.896   6.019   1.011  0.2419 -0.2708  0.6321
  509MOL0     C68592   8.001   5.966   0.914 -0.5791 -0.6306  0.0244
  509MOL0     C68593   7.963   5.825   0.869  0.3173  0.0616 -0.7113
  509MOL0     C68594   8.075   5.771   0.790 -0.5976  0.3933 -0.3229
  509MOL0     C68595   8.216   5.763   0.851 -0.1142  0.3415  0.9409
  509MOL0     C68596   8.235   5.691   0.990 -0.3681  0.9623  1.1804
  509MOL0     N68597   8.383   5.684   1.010  0.1025 -0.0721 -0.3918
  509MOL0     C68598   8.439   5.774   1.101  0.1070 -0.6883  0.0910
  509MOL0     C68599   8.536   5.695   1.152  0.3223 -0.2716 -0.7076
  509MOL0     C68600   8.627   5.742   1.264 -1.3667  0.6969  0.7720
  509MOL0     C68601   8.720   5.864   1.235 -0.1824  1.4427  0.5331
  509MOL0     C68602   8.639   5.992   1.223  0.5640 -0.1956  0.3830
  509MOL0     C68603   8.716   6.112   1.286  0.3904 -1.1749 -0.4160
  509MOL0     O68604   8.821   6.158   1.197  0.3799  0.2603  0.0940
  509MOL0     C68605   8.919   6.230   1.257 -0.4739 -0.2099  0.1783
  509MOL0     C68606   8.912   6.313   1.363  0.6177 -1.0584  0.4062
  509MOL0     C68607   9.004   6.407   1.398 -0.0712  0.1918  0.0849
  509MOL0     C68608   8.959   6.499   1.512  0.2971  0.2205  0.2612
  509MOL0     C68609   9.120   6.421   1.319  0.5875  0.8708 -0.9870
  509MOL0     C68610   9.233   6.524   1.355  0.4572  0.1085 -0.3912
  509MOL0     O68611   9.342   6.544   1.274 -0.4105 -0.2368  0.1289
  509MOL0     C68612   9.418   6.664   1.286  0.4198 -0.5722  0.8098
  509MOL0     C68613   9.487   6.707   1.402  0.2751  0.4138 -0.1834
  509MOL0     C68614   9.551   6.832   1.413  0.8142  1.2266  1.0384
  509MOL0     C68615   9.547   6.921   1.303  0.4372  0.0935 -0.4783
  509MOL0     O68616   9.610   7.047   1.308  0.4991  0.5206  0.3607
  509MOL0     C68617   9.620   7.110   1.440  0.1634  0.4530  0.3230
  509MOL0     C68618   9.655   7.261   1.415  0.8196  0.7965 -0.7897
  509MOL0     C68619   9.778   7.283   1.326  0.0161 -0.6911  0.9451
  509MOL0     C68620   9.828   7.436   1.340  0.7224 -0.0634 -0.5181
  509MOL0     C68621   9.739   7.528   1.267  0.3756  0.5501 -0.4278
  509MOL0     C68622   9.796   7.670   1.305  0.1396 -0.6063 -0.2885
  509MOL0     C68623   9.697   7.774   1.251 -0.7608 -0.3825 -0.0152
  509MOL0     C68624   9.727   7.917   1.283 -0.1701  0.2240  0.0307
  509MOL0    Cl68625   9.837   7.998   1.156  0.0983  0.0004 -0.4387
  509MOL0     C68626   9.475   6.879   1.182 -0.3619  0.2645 -1.0372
  509MOL0     C68627   9.412   6.752   1.175  0.8550 -0.1929  0.1239
  509MOL0     O68628   9.219   6.592   1.455 -0.2154 -0.7263 -0.2402
  509MOL0     C68629   9.145   6.325   1.221 -1.0016  0.1066 -0.0424
  509MOL0     C68630   9.045   6.233   1.186 -0.3736 -0.4347  0.0670
  509MOL0     N68631   8.541   5.575   1.098  0.6932  0.6840  0.1943
  509MOL0     N68632   8.448   5.566   1.009  0.1008  0.3969  0.4051
  509MOL0     C68633   7.998   5.886   1.321  0.6974 -0.1875 -0.2872
  509MOL0     C68634   8.066   5.767   1.352  0.7900  0.7156  0.2985
  509MOL0     C68635   8.298   5.421   1.446  0.9342  1.0331 -0.5563
  509MOL0     C68636   8.239   5.293   1.478  0.9380  0.4947 -0.0156
  509MOL0     C68637   8.309   5.169   1.451 -0.3947  0.0421 -0.2712
  509MOL0     C68638   8.440   5.171   1.401  0.2033  0.4451 -0.4729
  509MOL0     O68639   8.514   5.065   1.381 -0.4396  0.0036 -0.1963
  509MOL0     C68640   8.657   5.065   1.414  0.8739 -0.8929  0.5900
  509MOL0     C68641   8.664   5.108   1.562 -0.3281 -0.2260  0.4540
  509MOL0     C68642   8.787   5.033   1.613  0.2476  0.7548  0.7932
  509MOL0     C68643   8.819   5.059   1.757 -0.1583  0.0485 -0.5273
  509MOL0     C68644   8.919   4.959   1.793 -0.6805 -0.7620  0.0655
  509MOL0     C68645   8.999   4.868   1.824 -0.5177 -0.9812 -0.0820
  509MOL0     C68646   8.493   5.294   1.365  0.2049  0.1512 -0.7913
  509MOL0     C68647   8.427   5.416   1.383 -0.0996 -0.3756 -0.1807
  509MOL0     H68648   8.375   5.897   1.384 -0.2737 -0.7231  2.0633
  509MOL0     H68649   8.242   6.107   1.351 -1.3354 -0.4034  0.3281
  509MOL0     H68650   8.079   6.277   1.181  0.7912  0.2102  0.7223
  509MOL0     H68651   8.125   6.116   1.130 -1.3035 -2.2970 -0.1270
  509MOL0     H68652   7.834   6.199   1.108 -0.3034 -1.1154  0.3098
  509MOL0     H68653   7.952   6.230   0.980  1.8942 -0.9418 -0.4616
  509MOL0     H68654   7.885   5.944   1.091  2.7089 -0.3194  1.0013
  509MOL0     H68655   7.806   6.024   0.950  1.2783 -4.1046 -1.5688
  509MOL0     H68656   8.025   6.031   0.830  4.5886 -2.4985 -0.2938
  509MOL0     H68657   8.088   5.961   0.981  0.3000  1.2390 -0.8873
  509MOL0     H68658   7.948   5.757   0.954 -1.8977 -2.0298 -2.6364
  509MOL0     H68659   7.871   5.830   0.811 -1.2087  2.6636  1.6382
  509MOL0     H68660   8.042   5.674   0.752 -0.6930  1.2945 -2.7095
  509MOL0     H68661   8.080   5.835   0.702 -1.6260 -1.7317 -2.0303
  509MOL0     H68662   8.277   5.719   0.772 -2.5511  1.4110 -1.7094
  509MOL0     H68663   8.250   5.867   0.864 -1.3762  0.5141  3.6407
  509MOL0     H68664   8.196   5.589   0.994  5.0914 -1.8392 -3.5104
  509MOL0     H68665   8.190   5.753   1.069  0.4505  1.3589  1.3463
  509MOL0     H68666   8.405   5.874   1.126  1.5436 -0.2746  0.4295
  509MOL0     H68667   8.564   5.761   1.352  0.9226 -0.8699  2.9087
  509MOL0     H68668   8.687   5.654   1.290  0.4133  0.8384 -2.3456
  509MOL0     H68669   8.788   5.850   1.151  0.4221  1.8690  0.9425
  509MOL0     H68670   8.780   5.866   1.326  1.2172  2.4563 -0.3671
  509MOL0     H68671   8.544   6.000   1.277  0.4424  0.7503  0.0410
  509MOL0     H68672   8.607   6.019   1.122  2.0614  3.6750  0.8030
  509MOL0     H68673   8.754   6.073   1.381 -2.2353 -0.9869  0.7933
  509MOL0     H68674   8.644   6.194   1.293 -1.0439 -2.3375 -1.1249
  509MOL0     H68675   8.826   6.308   1.430  1.2322 -1.5508  1.1857
  509MOL0     H68676   8.957   6.602   1.475  4.2292 -0.2990 -1.9200
  509MOL0     H68677   8.864   6.473   1.560  0.7421 -0.0893  0.9761
  509MOL0     H68678   9.035   6.495   1.590  1.5933  0.0116 -0.9661
  509MOL0     H68679   9.494   6.641   1.488 -1.1958  1.0894  0.4907
  509MOL0     H68680   9.601   6.863   1.504 -2.7953  2.7082  2.7175
  509MOL0     H68681   9.524   7.103   1.491 -1.1352 -1.0171 -2.1641
  509MOL0     H68682   9.697   7.055   1.496 -0.8884 -0.4051  0.9475
  509MOL0     H68683   9.570   7.299   1.358  1.0110  1.7993 -0.4261
  509MOL0     H68684   9.674   7.306   1.513  1.8707  0.4604 -0.8253
  509MOL0     H68685   9.739   7.267   1.225 -0.2208  0.7676  0.7874
  509MOL0     H68686   9.852   7.209   1.359 -2.1221 -2.3586  2.2553
  509MOL0     H68687   9.833   7.457   1.447 -1.9774 -2.2063  0.1694
  509MOL0     H68688   9.924   7.451   1.291  0.7853 -0.9977 -0.7013
  509MOL0     H68689   9.636   7.505   1.296  0.7330 -3.5250 -1.7348
  509MOL0     H68690   9.740   7.512   1.158 -0.9249 -0.0605 -0.3698
  509MOL0     H68691   9.802   7.688   1.413  1.8457  0.0801 -0.4652
  509MOL0     H68692   9.896   7.669   1.262  0.0554  1.2482 -0.5666
  509MOL0     H68693   9.598   7.745   1.288 -0.8350  0.2660  0.3100
  509MOL0     H68694   9.687   7.769   1.142 -2.9963  3.3927 -0.1530
  509MOL0     H68695   9.768   7.931   1.384  1.5185  2.5113 -0.8942
  509MOL0     H68696   9.627   7.962   1.290 -0.5885 -0.6231 -0.3251
  509MOL0     H68697   9.464   6.955   1.105  0.0352 -0.4300 -1.7899
  509MOL0     H68698   9.359   6.725   1.084  0.9308  1.9519 -0.6271
  509MOL0     H68699   9.236   6.316   1.161 -1.1843  2.6165 -0.8058
  509MOL0     H68700   9.054   6.153   1.112  1.7213  0.2539 -0.4907
  509MOL0     H68701   7.891   5.894   1.304  1.1491  0.5704 -3.2181
  509MOL0     H68702   8.004   5.678   1.357  0.6758  0.7770 -0.0163
  509MOL0     H68703   8.132   5.300   1.499 -0.0155  0.6985 -4.0359
  509MOL0     H68704   8.266   5.073   1.478  1.4947 -0.9032 -0.4696
  509MOL0     H68705   8.693   4.962   1.406  1.3799 -0.5946 -2.9189
  509MOL0     H68706   8.718   5.131   1.350 -1.3496  1.5060  0.7823
  509MOL0     H68707   8.571   5.086   1.615  0.3543  1.3624  2.4225
  509MOL0     H68708   8.667   5.215   1.584 -1.8288  0.2410 -1.3524
  509MOL0     H68709   8.874   5.062   1.553 -0.5859 -0.1474 -0.9242
  509MOL0     H68710   8.764   4.927   1.597  0.2407  0.9022 -0.1870
  509MOL0     H68711   8.727   5.053   1.815  0.3154  0.7403  0.3216
  509MOL0     H68712   8.854   5.162   1.766 -0.3115 -0.0898  3.0874
  509MOL0     H68713   9.067   4.790   1.852 -0.9947 -0.5782  2.4416
  509MOL0     H68714   8.595   5.292   1.328  0.6469  3.2224 -0.0872
  509MOL0     H68715   8.487   5.503   1.356  2.7895 -2.0085  0.5717
  510MOL0     O68716  10.867   3.335   6.059  0.5210  0.0269  0.4536
  510MOL0     C68717  10.801   3.260   5.983 -0.4489 -0.6652 -0.4051
  510MOL0     O68718  10.859   3.145   5.926  0.0765 -0.2345 -0.3744
  510MOL0     C68719  10.987   3.113   5.935 -0.4706  0.1616 -0.2208
  510MOL0     C68720  11.104   3.192   5.933  0.1486  0.0177  0.2329
  510MOL0     C68721  11.238   3.139   5.944  1.2170 -0.0318  1.0580
  510MOL0     C68722  11.248   3.001   5.948  1.0607 -0.3998  0.0047
  510MOL0     O68723  11.369   2.950   5.961 -0.1271  0.0950 -0.3910
  510MOL0     C68724  11.443   2.967   6.083  1.0174  0.7906 -0.8064
  510MOL0     C68725  11.587   3.004   6.053 -0.8412 -0.0770  0.4851
  510MOL0     C68726  11.628   3.141   6.119 -0.1742 -0.2316 -0.4509
  510MOL0     C68727  11.588   3.254   6.035 -0.3761  0.2213  0.3525
  510MOL0     C68728  11.674   3.379   6.062  0.0315  0.4620 -0.0811
  510MOL0     C68729  11.640   3.510   5.971 -0.2473  0.9077 -1.2575
  510MOL0     C68730  11.752   3.616   5.992  0.4372 -0.5179  0.1609
  510MOL0     C68731  11.731   3.729   5.892  0.5767 -0.1530 -0.0656
  510MOL0     N68732  11.812   3.851   5.922 -0.5604  0.5898  0.1353
  510MOL0     C68733  11.842   3.902   6.046 -0.8866  0.3574 -0.1722
  510MOL0     C68734  11.899   4.020   6.015 -0.5958  0.5339 -0.5925
  510MOL0     C68735  11.940   4.123   6.117  0.7604  0.0156  0.7863
  510MOL0     C68736  11.825   4.233   6.128  0.1263  0.1662  1.0390
  510MOL0     C68737  11.841   4.336   6.234  0.4186  0.7202  0.3852
  510MOL0     C68738  11.956   4.440   6.219 -0.1119 -1.2168  0.2631
  510MOL0     O68739  12.087   4.380   6.185  0.5253 -0.1105 -1.0150
  510MOL0     C68740  12.186   4.444   6.105  0.3616  0.6830  0.6777
  510MOL0     C68741  12.168   4.576   6.063 -0.2551 -0.0691 -1.0121
  510MOL0     C68742  12.272   4.637   5.987 -0.1219  0.1351 -0.1162
  510MOL0     C68743  12.260   4.784   5.950  0.5033  0.2700 -0.1586
  510MOL0     C68744  12.386   4.565   5.956  0.1620  0.0305 -0.6733
  510MOL0     C68745  12.502   4.612   5.881 -0.4689 -0.6393  0.1462
  510MOL0     O68746  12.563   4.734   5.925  0.2036  0.5601  0.0304
  510MOL0     C68747  12.688   4.761   5.868  0.3291  0.0606  0.3702
  510MOL0     C68748  12.801   4.673   5.864 -0.3054 -0.4962 -0.1956
  510MOL0     C68749  12.925   4.721   5.828  0.2794  0.7843 -0.9581
  510MOL0     C68750  12.938   4.857   5.776 -0.3697  0.1885 -0.7953
  510MOL0     O68751  13.045   4.907   5.719  0.6641  0.7466 -0.0618
  510MOL0     C68752  13.138   4.808   5.671 -0.1567 -1.2225  0.3994
  510MOL0     C68753  13.259   4.891   5.613  0.6127 -0.0688 -0.3010
  510MOL0     C68754  13.335   4.935   5.738  0.9180  0.3962 -0.2765
  510MOL0     C68755  13.421   5.050   5.695  0.1861  0.5662 -0.1685
  510MOL0     C68756  13.528   5.022   5.584  0.7339  0.2782 -0.3412
  510MOL0     C68757  13.598   5.152   5.547 -0.2121 -0.7857 -0.0458
  510MOL0     C68758  13.683   5.139   5.424  0.2453  0.2446 -0.6812
  510MOL0     C68759  13.696   5.273   5.345 -0.8596 -0.5020  0.2065
  510MOL0    Cl68760  13.753   5.397   5.452 -0.2944 -0.7296 -0.4185
  510MOL0     C68761  12.820   4.941   5.779  0.2834  1.0077  0.8346
  510MOL0     C68762  12.694   4.893   5.829  0.3324 -0.3619  0.1756
  510MOL0     O68763  12.532   4.554   5.778  0.5274  0.4785  0.8117
  510MOL0     C68764  12.397   4.429   5.999 -0.0970 -0.4853  0.0977
  510MOL0     C68765  12.295   4.369   6.072  0.1824  0.4790 -0.3079
  510MOL0     N68766  11.908   4.040   5.881 -0.4196 -0.5007  0.5408
  510MOL0     N68767  11.861   3.937   5.824  0.3798 -0.3603 -0.4075
  510MOL0     C68768  11.137   2.920   5.934  0.4293  0.1783  0.3597
  510MOL0     C68769  11.010   2.979   5.931  0.7934  0.2157 -0.0165
  510MOL0     C68770  10.653   3.296   5.962 -0.1066 -0.2571  0.5830
  510MOL0     C68771  10.564   3.217   5.890 -0.2776  0.2722 -0.8152
  510MOL0     C68772  10.427   3.247   5.893  1.0381  0.0619 -0.2757
  510MOL0     C68773  10.371   3.359   5.948 -0.4643  0.5424  0.7820
  510MOL0     O68774  10.242   3.375   5.927 -0.1936  0.1221  0.3639
  510MOL0     C68775  10.170   3.484   5.977  0.2953 -0.8519  1.3777
  510MOL0     C68776  10.142   3.593   5.870  0.5146  0.2916 -0.8321
  510MOL0     C68777  10.261   3.682   5.855 -0.1211 -0.6992  0.5654
  510MOL0     C68778  10.243   3.793   5.750 -0.5921  0.5521  0.4326
  510MOL0     C68779  10.369   3.869   5.734  0.4391 -0.3520  1.0195
  510MOL0     C68780  10.458   3.950   5.717  0.2748  0.2117  0.1454
  510MOL0     C68781  10.462   3.445   6.003 -0.7595  0.8671  0.1375
  510MOL0     C68782  10.602   3.418   6.013  0.5856 -0.2380 -0.4483
  510MOL0     H68783  11.099   3.300   5.929 -2.2575 -0.0407 -0.0673
  510MOL0     H68784  11.326   3.202   5.955  1.9246 -0.2874 -2.1091
  510MOL0     H68785  11.391   3.032   6.154  0.0170  2.8786 -3.2619
  510MOL0     H68786  11.449   2.864   6.118 -1.6219  1.1820  1.2170
  510MOL0     H68787  11.649   2.926   6.097  2.1191  0.1789 -2.7887
  510MOL0     H68788  11.605   3.005   5.945  3.7019  0.9432  1.0541
  510MOL0     H68789  11.576   3.155   6.214  1.9329 -1.0246  0.8889
  510MOL0     H68790  11.737   3.130   6.129  0.0014 -1.6413 -3.0846
  510MOL0     H68791  11.610   3.222   5.933  0.5676 -1.3070  1.0146
  510MOL0     H68792  11.480   3.272   6.041 -0.7923 -1.0494 -1.9370
  510MOL0     H68793  11.661   3.402   6.168  2.0745  2.6882 -0.2280
  510MOL0     H68794  11.780   3.356   6.049 -0.2289 -0.0415 -1.4332
  510MOL0     H68795  11.625   3.492   5.864 -0.6111  2.4898 -1.4975
  510MOL0     H68796  11.547   3.559   6.002  0.0101  2.5896 -2.9599
  510MOL0     H68797  11.746   3.646   6.097 -1.8447  0.3560 -0.1651
  510MOL0     H68798  11.853   3.581   5.969  1.4983  2.1892  0.2828
  510MOL0     H68799  11.622   3.741   5.897  0.7856  1.4015  2.0807
  510MOL0     H68800  11.761   3.676   5.801  3.2651 -2.8167  2.1664
  510MOL0     H68801  11.817   3.859   6.142 -0.3900 -1.8485 -0.9571
  510MOL0     H68802  11.969   4.074   6.211  1.6068 -0.3877  0.3236
  510MOL0     H68803  12.026   4.171   6.069 -0.6092 -0.0782 -1.9178
  510MOL0     H68804  11.738   4.169   6.149  0.7427 -1.4421 -0.9891
  510MOL0     H68805  11.810   4.279   6.030 -0.4222 -1.8672  0.1218
  510MOL0     H68806  11.846   4.301   6.338 -1.8031  1.6678  0.8634
  510MOL0     H68807  11.753   4.401   6.229  0.2573  0.7152  2.2666
  510MOL0     H68808  11.953   4.510   6.303  0.5308  0.4143 -1.0259
  510MOL0     H68809  11.918   4.508   6.142  0.8616 -0.1620  0.6879
  510MOL0     H68810  12.089   4.640   6.100 -1.1000 -1.7717  0.2976
  510MOL0     H68811  12.157   4.821   5.952  0.2696 -0.3541 -0.4171
  510MOL0     H68812  12.329   4.846   6.009  0.0532 -0.4189  1.1511
  510MOL0     H68813  12.286   4.792   5.845  1.3627 -0.3896 -0.0094
  510MOL0     H68814  12.791   4.566   5.879 -1.5250 -0.2078  1.1816
  510MOL0     H68815  12.997   4.641   5.836  0.1930  0.8069  0.3881
  510MOL0     H68816  13.186   4.744   5.745  2.6644 -1.3691 -1.4175
  510MOL0     H68817  13.094   4.746   5.592 -2.7562  1.5501 -0.5196
  510MOL0     H68818  13.320   4.826   5.550 -1.7744 -2.9783  0.1411
  510MOL0     H68819  13.223   4.977   5.556  1.8260  1.0413  0.5587
  510MOL0     H68820  13.394   4.852   5.777  2.6638  1.5478 -0.3426
  510MOL0     H68821  13.263   4.967   5.814  0.2556  1.4467 -1.3171
  510MOL0     H68822  13.352   5.130   5.666  1.1971  0.1999 -4.1517
  510MOL0     H68823  13.478   5.081   5.783  1.1173 -0.1725 -0.4898
  510MOL0     H68824  13.478   4.983   5.495 -2.0073  2.0627  0.2978
  510MOL0     H68825  13.602   4.951   5.622  1.8832  1.1460 -0.9085
  510MOL0     H68826  13.526   5.231   5.522 -3.1128 -3.3388 -0.4081
  510MOL0     H68827  13.658   5.183   5.634  1.2867 -0.8565 -1.0261
  510MOL0     H68828  13.642   5.052   5.372 -2.1433 -0.9515  2.8626
  510MOL0     H68829  13.786   5.116   5.454 -0.1569 -0.6042  0.1202
  510MOL0     H68830  13.605   5.312   5.297 -0.6849 -0.3399  0.0035
  510MOL0     H68831  13.772   5.253   5.269 -0.1247  4.4688 -0.6748
  510MOL0     H68832  12.827   5.035   5.725  1.8391 -0.1570 -1.1091
  510MOL0     H68833  12.610   4.961   5.819 -0.7692 -1.6760  0.3134
  510MOL0     H68834  12.486   4.379   5.959  0.3892  0.4491 -0.0082
  510MOL0     H68835  12.302   4.269   6.115  1.9948  0.6651 -0.0736
  510MOL0     H68836  11.144   2.812   5.933 -0.6972  0.0926 -0.3112
  510MOL0     H68837  10.920   2.919   5.941 -0.0790  1.3522 -0.7738
  510MOL0     H68838  10.581   3.133   5.824 -1.6998  2.0547 -3.6603
  510MOL0     H68839  10.360   3.188   5.831 -0.2950  3.4189 -2.2837
  510MOL0     H68840  10.069   3.449   6.000 -1.8517  2.1315 -2.3208
  510MOL0     H68841  10.218   3.527   6.066  2.4668  0.2891 -0.2302
  510MOL0     H68842  10.060   3.659   5.899 -0.4020  1.0846 -4.7176
  510MOL0     H68843  10.117   3.543   5.776  0.5532 -0.7847 -0.2939
  510MOL0     H68844  10.354   3.628   5.837  0.3254  0.3369 -0.3760
  510MOL0     H68845  10.282   3.717   5.957 -1.4010 -1.1709  1.0077
  510MOL0     H68846  10.157   3.847   5.791 -2.6475 -2.2814  0.1192
  510MOL0     H68847  10.204   3.744   5.660 -2.5710 -1.3507  2.2029
  510MOL0     H68848  10.549   4.005   5.715  0.4163  0.1523  2.4207
  510MOL0     H68849  10.425   3.536   6.049  0.5736  1.0698  0.8601
  510MOL0     H68850  10.666   3.491   6.062  0.8350 -1.2890  0.8615
  511MOL0     O68851   8.921   8.595   6.364  0.6693  0.2594 -0.8564
  511MOL0     C68852   9.024   8.534   6.389  0.9457 -0.2637  0.4584
  511MOL0     O68853   9.072   8.416   6.329  0.6340 -0.3060 -0.2257
  511MOL0     C68854   9.017   8.370   6.212 -0.4723 -0.1560 -0.5678
  511MOL0     C68855   9.125   8.328   6.132 -0.1600 -0.7302 -0.1540
  511MOL0     C68856   9.084   8.275   6.005  0.7184  0.4247 -0.6099
  511MOL0     C68857   8.944   8.271   5.962 -0.7547 -0.2618  0.3301
  511MOL0     O68858   8.905   8.242   5.833  0.5548 -0.3004 -0.7141
  511MOL0     C68859   8.771   8.179   5.826  0.0561 -0.5091 -0.1594
  511MOL0     C68860   8.749   8.102   5.693 -0.0623 -0.2226  1.3493
  511MOL0     C68861   8.824   7.969   5.683 -0.3898  0.3914  0.3071
  511MOL0     C68862   8.807   7.881   5.558  0.3496  0.7108 -0.4226
  511MOL0     C68863   8.844   7.735   5.583 -0.0911  1.0378  0.0310
  511MOL0     C68864   8.998   7.728   5.612 -0.8036 -0.4103 -0.9450
  511MOL0     C68865   9.050   7.734   5.763  0.0057  0.1187 -0.4590
  511MOL0     C68866   9.205   7.736   5.780  0.7003 -0.0905  0.0166
  511MOL0     N68867   9.253   7.869   5.762  0.7444 -0.8138 -0.0134
  511MOL0     C68868   9.262   7.939   5.647  0.5591 -0.5781  0.2413
  511MOL0     C68869   9.336   8.049   5.680 -0.1047 -0.1906  0.3837
  511MOL0     C68870   9.378   8.159   5.582 -0.5624  0.8951  0.3667
  511MOL0     C68871   9.276   8.270   5.590 -0.3751 -0.2223 -0.0748
  511MOL0     C68872   9.128   8.222   5.554  0.6349 -0.0524 -0.5349
  511MOL0     C68873   9.102   8.191   5.410 -0.3386 -0.0376 -0.0543
  511MOL0     O68874   9.158   8.066   5.367  0.5077 -0.0149 -0.2392
  511MOL0     C68875   9.155   8.022   5.235  0.8114  0.8120  0.6093
  511MOL0     C68876   9.077   8.080   5.130  0.5059 -0.0469  0.0655
  511MOL0     C68877   9.065   8.028   5.004 -0.0362  0.3142 -0.5047
  511MOL0     C68878   8.976   8.100   4.906 -0.0512  0.5046  0.7687
  511MOL0     C68879   9.130   7.900   4.971 -0.2587 -0.4695  0.1557
  511MOL0     C68880   9.126   7.832   4.840  0.2090 -0.4054 -0.0781
  511MOL0     O68881   9.186   7.705   4.838 -0.5613  0.0204  0.3908
  511MOL0     C68882   9.171   7.632   4.720  0.3405  0.1838  0.4062
  511MOL0     C68883   9.046   7.586   4.676  0.5226 -0.0687  0.4194
  511MOL0     C68884   9.035   7.511   4.561  1.0782 -0.2129 -0.1738
  511MOL0     C68885   9.131   7.509   4.465  0.0584  0.1448  0.7218
  511MOL0     O68886   9.127   7.447   4.344 -0.5689  0.4927 -0.3472
  511MOL0     C68887   8.991   7.414   4.300 -0.1742 -0.3698 -0.3472
  511MOL0     C68888   8.999   7.344   4.167  0.6365  0.0945  0.2791
  511MOL0     C68889   9.052   7.197   4.183  0.3637  0.5854 -0.0873
  511MOL0     C68890   8.980   7.113   4.285 -0.8188 -0.1508  0.5940
  511MOL0     C68891   9.015   6.968   4.280  0.6923  0.5667  0.7465
  511MOL0     C68892   9.001   6.899   4.411 -0.1845  0.2310 -0.3149
  511MOL0     C68893   9.051   6.756   4.386 -0.1210 -0.2916 -0.2078
  511MOL0     C68894   9.021   6.643   4.492 -0.0655  0.5290 -0.2460
  511MOL0    Cl68895   8.849   6.589   4.442 -0.8218 -0.3260 -0.2658
  511MOL0     C68896   9.253   7.564   4.505  0.2741 -0.2960 -0.2897
  511MOL0     C68897   9.275   7.622   4.632 -0.6642 -1.3866 -1.0168
  511MOL0     O68898   9.059   7.876   4.749 -0.5945 -0.1800 -0.6688
  511MOL0     C68899   9.220   7.849   5.077  0.4943  0.3874  0.6860
  511MOL0     C68900   9.222   7.903   5.209 -0.3666  0.6854 -0.5374
  511MOL0     N68901   9.337   8.048   5.820  0.4361 -0.8717  0.2759
  511MOL0     N68902   9.289   7.940   5.864 -0.3282 -0.7317  0.3071
  511MOL0     C68903   8.843   8.318   6.053  0.0589 -0.0499 -0.0535
  511MOL0     C68904   8.883   8.361   6.175  0.7130 -0.2286  0.0367
  511MOL0     C68905   9.083   8.570   6.523  0.5847 -0.3718 -0.7488
  511MOL0     C68906   9.019   8.659   6.615  0.5261  0.6511 -0.6612
  511MOL0     C68907   9.078   8.692   6.732 -0.1857  0.6030  0.7660
  511MOL0     C68908   9.211   8.661   6.750  0.4574  0.2227 -0.3989
  511MOL0     O68909   9.268   8.720   6.867  0.1995  0.2154 -0.3797
  511MOL0     C68910   9.399   8.674   6.905 -0.5606 -0.1066 -0.0557
  511MOL0     C68911   9.435   8.730   7.046 -1.0824 -0.1002 -0.9199
  511MOL0     C68912   9.484   8.874   7.037 -0.4492  0.6300  0.8631
  511MOL0     C68913   9.498   8.947   7.173  0.2569  1.1350  0.5153
  511MOL0     C68914   9.624   8.917   7.245  0.2819  0.1591 -0.4110
  511MOL0     C68915   9.732   8.878   7.292  0.4843  0.5659 -1.1971
  511MOL0     C68916   9.283   8.577   6.661 -0.6830  0.5531 -0.9174
  511MOL0     C68917   9.218   8.527   6.552  0.2695  0.2197  0.7378
  511MOL0     H68918   9.230   8.341   6.159 -0.3684  1.4273 -0.2045
  511MOL0     H68919   9.172   8.245   5.950  2.0256  0.1618  1.5085
  511MOL0     H68920   8.757   8.111   5.911 -0.2534  1.9115  1.8449
  511MOL0     H68921   8.696   8.257   5.837  2.3493  1.8645 -0.3476
  511MOL0     H68922   8.642   8.085   5.679  0.4683 -1.8577 -1.6292
  511MOL0     H68923   8.774   8.165   5.607  2.9402 -1.9542  0.8275
  511MOL0     H68924   8.926   7.990   5.717 -1.8584  2.4009  4.2204
  511MOL0     H68925   8.776   7.910   5.761 -0.5668 -0.0433 -0.1302
  511MOL0     H68926   8.709   7.887   5.509 -0.3637  1.0309  1.0085
  511MOL0     H68927   8.887   7.918   5.493  1.3492  0.7781  0.7965
  511MOL0     H68928   8.787   7.693   5.666  0.4460 -1.5639 -0.8291
  511MOL0     H68929   8.815   7.670   5.500  0.6457 -0.6384  1.0480
  511MOL0     H68930   9.041   7.633   5.581  0.0365 -0.2665 -0.2791
  511MOL0     H68931   9.047   7.814   5.566 -1.2315 -1.0819 -2.7216
  511MOL0     H68932   9.001   7.814   5.819  1.9308  1.3733 -0.4587
  511MOL0     H68933   9.019   7.636   5.801 -0.4283  0.1493 -0.7304
  511MOL0     H68934   9.264   7.672   5.714 -0.0854 -0.9106  0.0947
  511MOL0     H68935   9.225   7.710   5.885 -2.9373  1.4308  1.2903
  511MOL0     H68936   9.231   7.921   5.545  2.3675  3.1483 -1.1368
  511MOL0     H68937   9.482   8.187   5.605 -0.3063 -0.4840  0.9509
  511MOL0     H68938   9.377   8.134   5.476 -0.3221 -1.1165  0.8085
  511MOL0     H68939   9.310   8.344   5.516  1.0824  0.1123  0.8854
  511MOL0     H68940   9.274   8.326   5.684  2.0542  0.5665 -0.4143
  511MOL0     H68941   9.060   8.306   5.575  1.3624  0.1455  1.2464
  511MOL0     H68942   9.103   8.143   5.625  1.0325  0.7958  0.5879
  511MOL0     H68943   9.139   8.274   5.349  0.6791 -2.4434 -3.0096
  511MOL0     H68944   8.996   8.178   5.387  0.1624 -3.6397 -0.9616
  511MOL0     H68945   9.020   8.169   5.153  1.3737  0.4938  0.1916
  511MOL0     H68946   9.028   8.139   4.818 -2.6922 -1.8300 -2.0411
  511MOL0     H68947   8.893   8.035   4.878  0.0952  1.0843 -1.1966
  511MOL0     H68948   8.926   8.186   4.951 -1.3768  1.5804 -2.4845
  511MOL0     H68949   8.967   7.574   4.750  1.4109 -0.0888  1.3960
  511MOL0     H68950   8.948   7.449   4.540  1.3682 -0.2485 -1.3620
  511MOL0     H68951   8.939   7.345   4.367  0.8881 -0.5506  0.3001
  511MOL0     H68952   8.927   7.504   4.301  0.5525  0.1430  0.4277
  511MOL0     H68953   8.895   7.332   4.133  0.4921  1.0237  0.3631
  511MOL0     H68954   9.055   7.403   4.094 -0.5646  2.6029  1.2578
  511MOL0     H68955   9.152   7.207   4.227 -0.1278  1.3659  0.8909
  511MOL0     H68956   9.052   7.139   4.090  0.6229 -0.5636  0.5994
  511MOL0     H68957   9.014   7.150   4.382 -1.0554  0.2593  0.5235
  511MOL0     H68958   8.872   7.112   4.270 -0.5235 -2.3746 -2.3205
  511MOL0     H68959   9.116   6.952   4.240 -0.2219 -0.7423 -1.1584
  511MOL0     H68960   8.939   6.929   4.212  2.0241  1.6523 -1.4559
  511MOL0     H68961   9.055   6.959   4.485 -2.0092  1.7568 -0.1282
  511MOL0     H68962   8.901   6.906   4.456  0.2951  2.5942  0.5197
  511MOL0     H68963   9.161   6.761   4.382 -0.1840  2.3407 -0.1708
  511MOL0     H68964   9.005   6.733   4.289 -0.7393 -0.3872  0.1044
  511MOL0     H68965   9.034   6.674   4.596  1.8462  1.0601 -0.6101
  511MOL0     H68966   9.086   6.557   4.472 -2.1036 -1.1462 -0.0668
  511MOL0     H68967   9.331   7.562   4.430 -0.1074 -2.6296 -0.6844
  511MOL0     H68968   9.369   7.673   4.649 -0.5785 -1.5980 -0.8579
  511MOL0     H68969   9.274   7.760   5.049 -1.0646 -0.1963 -0.5996
  511MOL0     H68970   9.283   7.853   5.283  0.2319 -2.6184 -3.0136
  511MOL0     H68971   8.738   8.330   6.028  0.3818  0.2446 -1.3213
  511MOL0     H68972   8.807   8.392   6.247  0.2833 -5.0204  2.0790
  511MOL0     H68973   8.912   8.678   6.608 -0.1239 -0.8536  2.7330
  511MOL0     H68974   9.018   8.743   6.807 -0.4802  1.1228  0.1826
  511MOL0     H68975   9.386   8.566   6.911 -1.4511  0.0599  1.9547
  511MOL0     H68976   9.470   8.697   6.825 -0.7567  1.3261  0.1441
  511MOL0     H68977   9.517   8.666   7.078  0.4364  0.7492 -2.9311
  511MOL0     H68978   9.349   8.722   7.113 -2.5836  1.4750 -2.5511
  511MOL0     H68979   9.408   8.924   6.976  0.7128  2.0399  0.5029
  511MOL0     H68980   9.574   8.890   6.976 -2.8072  3.6417 -2.2437
  511MOL0     H68981   9.413   8.908   7.231  1.2879 -1.8944  0.1743
  511MOL0     H68982   9.481   9.053   7.153  0.9600  0.6165 -3.8072
  511MOL0     H68983   9.820   8.849   7.347 -1.6955 -4.3838  0.2034
  511MOL0     H68984   9.382   8.548   6.693 -1.9722 -1.0486  2.0477
  511MOL0     H68985   9.257   8.453   6.484 -1.7705 -0.1395 -0.1193
  512MOL0     O68986  11.391  11.170   4.282  0.3246  0.2458  0.5682
  512MOL0     C68987  11.345  11.059   4.254  1.4771  0.2239 -0.2560
  512MOL0     O68988  11.318  10.958   4.357  0.2748 -0.4934  0.1943
  512MOL0     C68989  11.370  10.979   4.484 -0.2271  0.2537  0.5556
  512MOL0     C68990  11.420  10.855   4.536  0.1261  0.3216 -0.1564
  512MOL0     C68991  11.490  10.854   4.659  0.3333  0.1354 -0.2639
  512MOL0     C68992  11.495  10.970   4.732 -0.6167 -0.9584  0.2200
  512MOL0     O68993  11.565  10.978   4.855 -0.7889 -0.6642 -0.4643
  512MOL0     C68994  11.688  10.907   4.859 -0.2460  0.0732 -0.0183
  512MOL0     C68995  11.754  10.986   4.966  0.0788 -0.1418 -0.5068
  512MOL0     C68996  11.695  10.975   5.102  0.0739  0.7873  0.8324
  512MOL0     C68997  11.760  11.062   5.203  0.1891  0.7079  0.1279
  512MOL0     C68998  11.677  11.068   5.336 -0.8067  0.5614 -0.8108
  512MOL0     C68999  11.751  11.158   5.441 -0.2253  0.7845  0.5251
  512MOL0     C69000  11.777  11.309   5.402  0.4157 -0.2206  0.4042
  512MOL0     C69001  11.656  11.399   5.427  0.9265 -0.5335  0.2624
  512MOL0     N69002  11.620  11.398   5.571  0.1561 -0.2605 -0.0561
  512MOL0     C69003  11.531  11.312   5.620  0.1681 -0.3353  0.1664
  512MOL0     C69004  11.525  11.343   5.749  0.1724 -0.4919 -0.0307
  512MOL0     C69005  11.441  11.290   5.858 -0.1032 -0.8240  0.3737
  512MOL0     C69006  11.299  11.259   5.793 -0.1744  0.1391 -0.5644
  512MOL0     C69007  11.289  11.105   5.758  0.6281  0.6359  0.1671
  512MOL0     C69008  11.188  11.062   5.649  0.1491 -0.3932 -0.1709
  512MOL0     O69009  11.260  11.070   5.522  0.0651 -0.3804  0.4798
  512MOL0     C69010  11.218  11.155   5.418  0.3165  0.1920  1.2598
  512MOL0     C69011  11.281  11.140   5.285 -0.2921  0.5726  0.0019
  512MOL0     C69012  11.267  11.226   5.176 -0.4063 -0.1336 -0.2031
  512MOL0     C69013  11.357  11.200   5.060  0.1302  0.0755 -0.1618
  512MOL0     C69014  11.180  11.343   5.190  0.3123  0.5547  0.2668
  512MOL0     C69015  11.158  11.440   5.079  0.0605  0.5228 -0.3173
  512MOL0     O69016  11.026  11.471   5.052 -0.7753 -0.7516 -0.2607
  512MOL0     C69017  10.996  11.574   4.961 -0.1321  0.2251  0.2252
  512MOL0     C69018  11.040  11.588   4.826  0.7044 -0.0889 -0.3269
  512MOL0     C69019  11.002  11.697   4.741 -0.3864  0.4408 -0.4440
  512MOL0     C69020  10.920  11.799   4.781  1.1468  0.1109 -0.2746
  512MOL0     O69021  10.893  11.895   4.690  1.0102  0.4410  0.3579
  512MOL0     C69022  10.874  12.018   4.751 -0.0432 -1.0479  0.1484
  512MOL0     C69023  10.875  12.145   4.671  0.2081 -0.7271 -0.1365
  512MOL0     C69024  10.746  12.157   4.589  0.7038  0.2925 -0.3310
  512MOL0     C69025  10.724  12.278   4.509 -0.1036 -0.2242  0.0289
  512MOL0     C69026  10.584  12.277   4.432 -0.7214 -0.0841 -1.3109
  512MOL0     C69027  10.551  12.419   4.361  0.6875  0.7668 -1.1967
  512MOL0     C69028  10.677  12.506   4.331  0.6089  0.1475 -0.4165
  512MOL0     C69029  10.632  12.639   4.270 -0.5288  0.1473  0.3460
  512MOL0    Cl69030  10.538  12.735   4.395  0.3103 -0.2436  0.0916
  512MOL0     C69031  10.877  11.782   4.917 -0.8833  0.2952 -0.2680
  512MOL0     C69032  10.904  11.676   5.003  0.5327  0.2828 -0.1860
  512MOL0     O69033  11.247  11.478   5.012  0.4236  0.5456 -0.4573
  512MOL0     C69034  11.099  11.349   5.310 -0.0443  0.2647 -0.4042
  512MOL0     C69035  11.127  11.263   5.422 -0.0926 -0.4026  0.3197
  512MOL0     N69036  11.618  11.447   5.777  0.9114  0.0414  0.6173
  512MOL0     N69037  11.671  11.484   5.662  0.5797  0.2446  0.3908
  512MOL0     C69038  11.431  11.087   4.687 -1.2067  0.2243 -1.1256
  512MOL0     C69039  11.369  11.095   4.562 -0.7748  0.4744  0.1513
  512MOL0     C69040  11.320  11.033   4.112 -0.6270 -0.2788  0.1683
  512MOL0     C69041  11.385  11.106   4.013 -0.1982  1.0012  0.3853
  512MOL0     C69042  11.337  11.096   3.883 -0.2345 -0.3284  0.4158
  512MOL0     C69043  11.227  11.018   3.847 -0.3977 -1.1810  0.6629
  512MOL0     O69044  11.175  11.012   3.720 -0.4229  0.2495 -0.5135
  512MOL0     C69045  11.229  11.091   3.609  0.9386  0.0535 -0.6755
  512MOL0     C69046  11.145  11.067   3.491 -0.1774 -0.1222  0.7866
  512MOL0     C69047  11.124  10.925   3.427 -0.1407 -0.3966  0.5265
  512MOL0     C69048  11.045  10.950   3.297 -0.7041  0.4227 -0.9149
  512MOL0     C69049  11.035  10.830   3.212  0.2884 -0.1323 -0.0849
  512MOL0     C69050  11.030  10.733   3.145  0.3295 -0.5644  0.0738
  512MOL0     C69051  11.168  10.934   3.943 -0.2430 -0.3558  0.0225
  512MOL0     C69052  11.223  10.929   4.078 -0.5961 -0.6476  0.7393
  512MOL0     H69053  11.421  10.761   4.482  3.8761  1.1362 -1.7826
  512MOL0     H69054  11.525  10.757   4.693  1.4410  0.2516 -1.0475
  512MOL0     H69055  11.680  10.806   4.899  0.4150  1.1513  3.1355
  512MOL0     H69056  11.733  10.919   4.760 -3.0790  0.0740 -1.3926
  512MOL0     H69057  11.860  10.959   4.972  0.7344  2.3845  1.0502
  512MOL0     H69058  11.765  11.091   4.935 -2.6871  0.3560 -0.0430
  512MOL0     H69059  11.591  11.004   5.087  0.1381 -0.0373 -1.4874
  512MOL0     H69060  11.688  10.875   5.145  1.9492 -0.7667 -2.1360
  512MOL0     H69061  11.864  11.031   5.221  0.4339 -0.8363 -3.1791
  512MOL0     H69062  11.761  11.157   5.150  3.4360  0.8576  0.2094
  512MOL0     H69063  11.580  11.114   5.316  0.6222  2.9426 -2.9803
  512MOL0     H69064  11.671  10.964   5.368  2.9725 -0.5733 -3.0398
  512MOL0     H69065  11.704  11.143   5.538  0.5891  1.7799  1.0899
  512MOL0     H69066  11.850  11.118   5.467 -0.7609 -1.5687 -0.7590
  512MOL0     H69067  11.851  11.351   5.470  0.7589 -3.2271  2.1007
  512MOL0     H69068  11.811  11.308   5.298 -0.9212 -0.1834 -0.0600
  512MOL0     H69069  11.576  11.380   5.355  0.0345  0.5373  0.9376
  512MOL0     H69070  11.682  11.500   5.394  2.1098 -1.1953 -0.9337
  512MOL0     H69071  11.491  11.227   5.566  3.2509 -1.4336 -0.6113
  512MOL0     H69072  11.499  11.216   5.914  1.6884 -1.5510 -2.2090
  512MOL0     H69073  11.432  11.375   5.925  0.7117  1.5902 -2.3648
  512MOL0     H69074  11.274  11.325   5.709 -3.9252 -0.0601  0.2483
  512MOL0     H69075  11.230  11.272   5.876  1.3699 -1.0484  0.9614
  512MOL0     H69076  11.267  11.056   5.853  2.0506 -0.2513  0.0697
  512MOL0     H69077  11.386  11.059   5.739  1.2955  2.3622 -0.7728
  512MOL0     H69078  11.087  11.105   5.649 -0.1216 -1.0104  0.3865
  512MOL0     H69079  11.173  10.954   5.659  1.9905 -0.8580 -1.8332
  512MOL0     H69080  11.335  11.046   5.274 -0.2954  0.3945  1.2832
  512MOL0     H69081  11.459  11.237   5.079  0.2762 -2.1365  5.5576
  512MOL0     H69082  11.381  11.094   5.049  3.3922  0.5507  1.0207
  512MOL0     H69083  11.306  11.246   4.976 -0.8922  1.9841  1.4278
  512MOL0     H69084  11.090  11.503   4.781  2.9052  0.4911  0.8950
  512MOL0     H69085  11.050  11.683   4.644  1.3399 -1.3106  0.6015
  512MOL0     H69086  10.780  12.012   4.808  0.4771  1.2344  1.3658
  512MOL0     H69087  10.955  12.036   4.822  0.5848 -2.2678 -0.2219
  512MOL0     H69088  10.875  12.226   4.744  0.2941  1.0683 -2.0418
  512MOL0     H69089  10.971  12.158   4.619 -0.6876  1.8932 -1.2952
  512MOL0     H69090  10.663  12.140   4.658  0.2159  0.6902 -0.8070
  512MOL0     H69091  10.740  12.071   4.522  0.8753 -0.2199  0.3047
  512MOL0     H69092  10.741  12.374   4.560  1.3602 -0.4486  0.0083
  512MOL0     H69093  10.799  12.285   4.429 -1.8517  1.0254 -1.6070
  512MOL0     H69094  10.504  12.245   4.501 -0.4244  0.2181 -0.8219
  512MOL0     H69095  10.592  12.210   4.347 -1.0769  0.8433 -2.0921
  512MOL0     H69096  10.486  12.402   4.275 -2.9589  0.1533  1.3947
  512MOL0     H69097  10.478  12.482   4.414  1.0572  0.1287  0.1331
  512MOL0     H69098  10.755  12.457   4.271 -1.0989 -2.2101 -0.8711
  512MOL0     H69099  10.713  12.529   4.432 -1.2698 -0.9834  0.5730
  512MOL0     H69100  10.575  12.614   4.180 -1.9807  0.9459  1.0170
  512MOL0     H69101  10.719  12.699   4.242  0.7902 -2.2075 -0.8938
  512MOL0     H69102  10.803  11.851   4.955 -0.4038  0.8946 -0.4049
  512MOL0     H69103  10.859  11.665   5.102  0.7374 -3.3675 -0.3446
  512MOL0     H69104  11.018  11.417   5.332 -2.5569 -2.7081  0.1628
  512MOL0     H69105  11.058  11.283   5.503 -1.2743 -1.4363 -0.4074
  512MOL0     H69106  11.444  11.176   4.748  1.1562 -1.9538  1.9023
  512MOL0     H69107  11.328  11.186   4.520  1.0681 -0.0419 -3.0665
  512MOL0     H69108  11.472  11.168   4.033  0.2074  0.1348  1.4564
  512MOL0     H69109  11.387  11.160   3.812 -1.0718 -0.4827 -0.3318
  512MOL0     H69110  11.217  11.198   3.627 -1.4841 -0.4928  1.4053
  512MOL0     H69111  11.333  11.064   3.585  1.0327 -2.0373  1.7901
  512MOL0     H69112  11.178  11.142   3.419  3.4770 -4.5020 -2.7881
  512MOL0     H69113  11.049  11.102   3.530 -0.1437 -0.1257  0.8734
  512MOL0     H69114  11.073  10.869   3.506  0.0439 -0.3386  0.6871
  512MOL0     H69115  11.215  10.870   3.402 -0.1871  0.1410 -0.9061
  512MOL0     H69116  11.103  11.027   3.245  0.1668  0.7718  0.4999
  512MOL0     H69117  10.944  10.987   3.318 -0.0773  1.1151  1.1729
  512MOL0     H69118  11.016  10.649   3.081 -3.1539  0.1332 -0.2837
  512MOL0     H69119  11.081  10.872   3.920 -1.7242  1.1024  1.3995
  512MOL0     H69120  11.175  10.877   4.161 -1.2801 -1.9924 -0.4614
  513MOL0     O69121   3.087   3.942   2.732 -0.7448  0.1383 -0.8891
  513MOL0     C69122   3.188   4.005   2.707 -1.6683 -0.5791  0.7028
  513MOL0     O69123   3.211   4.148   2.730  0.4945 -0.1254  0.9332
  513MOL0     C69124   3.106   4.227   2.742  0.7337 -0.4092 -0.1627
  513MOL0     C69125   2.982   4.217   2.667 -0.8428  0.3497 -0.3241
  513MOL0     C69126   2.871   4.305   2.687  0.4439 -0.4522 -0.5683
  513MOL0     C69127   2.885   4.393   2.793  0.4165  0.1126  0.5455
  513MOL0     O69128   2.770   4.453   2.837 -0.6422  0.0119 -0.3828
  513MOL0     C69129   2.779   4.566   2.932 -0.7455 -0.5088 -0.5818
  513MOL0     C69130   2.647   4.643   2.934 -0.5909 -0.3142 -0.0195
  513MOL0     C69131   2.654   4.755   3.037 -0.4382 -0.9076 -0.1811
  513MOL0     C69132   2.733   4.870   2.989 -0.4490 -0.3889  0.2972
  513MOL0     C69133   2.723   4.990   3.081 -0.8107 -0.1625 -0.0692
  513MOL0     C69134   2.790   4.967   3.217 -0.7597 -0.6799  0.0441
  513MOL0     C69135   2.792   5.093   3.309  0.3442  0.7261 -0.0569
  513MOL0     C69136   2.906   5.196   3.270  0.2947  1.3173  0.1335
  513MOL0     N69137   2.878   5.325   3.335  0.2294  0.4531  0.3163
  513MOL0     C69138   2.863   5.337   3.471 -0.7947 -0.9533 -0.5854
  513MOL0     C69139   2.841   5.468   3.480  0.4526  0.4339 -0.1556
  513MOL0     C69140   2.818   5.553   3.604  0.2253  0.5089 -0.2774
  513MOL0     C69141   2.669   5.516   3.646 -0.7818 -0.7473  0.7111
  513MOL0     C69142   2.598   5.633   3.714  1.2691  0.1327  1.1330
  513MOL0     C69143   2.445   5.638   3.687 -0.8455 -0.1650 -0.1968
  513MOL0     O69144   2.390   5.532   3.770 -0.5226 -0.1212 -0.2738
  513MOL0     C69145   2.340   5.560   3.890 -0.6208  0.0670 -0.0860
  513MOL0     C69146   2.231   5.647   3.908  0.3833  0.0892  0.3230
  513MOL0     C69147   2.167   5.661   4.033  0.3940 -0.2043  0.6508
  513MOL0     C69148   2.028   5.708   4.023  0.1093  0.2453 -0.1816
  513MOL0     C69149   2.229   5.602   4.145  1.1485 -0.2983 -0.6577
  513MOL0     C69150   2.189   5.637   4.286 -0.3422  0.2231  0.1874
  513MOL0     O69151   2.226   5.549   4.383  0.3822  0.6296  0.3684
  513MOL0     C69152   2.265   5.595   4.505  0.1988 -0.2848  0.5645
  513MOL0     C69153   2.384   5.551   4.550 -0.2078 -0.1046 -0.8352
  513MOL0     C69154   2.431   5.582   4.678  0.5104 -0.5631  0.0985
  513MOL0     C69155   2.352   5.675   4.756  0.3215  0.2415 -0.4180
  513MOL0     O69156   2.384   5.729   4.874  0.7661 -0.0021 -0.2346
  513MOL0     C69157   2.522   5.707   4.920  0.2324 -1.0468 -0.0580
  513MOL0     C69158   2.541   5.775   5.046 -0.7151 -0.6849  0.3763
  513MOL0     C69159   2.596   5.914   5.046 -0.1708  0.1698  0.3294
  513MOL0     C69160   2.754   5.911   5.018 -0.2994  0.0753  0.3697
  513MOL0     C69161   2.813   6.041   5.048 -0.2310  0.2637  0.0968
  513MOL0     C69162   2.727   6.171   5.018  0.3694 -0.4623  0.3569
  513MOL0     C69163   2.701   6.188   4.861 -0.9201 -0.4269 -0.1130
  513MOL0     C69164   2.578   6.268   4.839 -0.0001  0.9827 -0.7446
  513MOL0    Cl69165   2.611   6.434   4.884  0.5537 -0.2650  0.1691
  513MOL0     C69166   2.225   5.715   4.710  0.1789 -0.1189  0.5476
  513MOL0     C69167   2.188   5.679   4.585  0.0640 -0.5491 -1.3759
  513MOL0     O69168   2.143   5.754   4.304 -0.1612  0.4599  0.4673
  513MOL0     C69169   2.347   5.530   4.136  0.5361 -0.3438 -0.5910
  513MOL0     C69170   2.396   5.504   4.003 -0.3471 -0.0300 -0.5639
  513MOL0     N69171   2.819   5.528   3.355 -0.6482  0.0280 -0.3834
  513MOL0     N69172   2.845   5.439   3.266  0.1098  0.7155 -0.6118
  513MOL0     C69173   3.001   4.407   2.860 -0.5185  0.1206  0.0371
  513MOL0     C69174   3.114   4.326   2.836 -0.2950 -0.5164 -0.8845
  513MOL0     C69175   3.304   3.928   2.653  0.3080  0.4938  0.3389
  513MOL0     C69176   3.318   3.782   2.671 -0.7197  0.1358  0.1210
  513MOL0     C69177   3.426   3.704   2.610 -0.4784  0.1115  0.9601
  513MOL0     C69178   3.521   3.783   2.537  0.0581 -0.6278  0.9928
  513MOL0     O69179   3.639   3.715   2.492 -0.3473 -0.9485  0.7334
  513MOL0     C69180   3.760   3.782   2.490  0.1860 -0.9574 -0.2330
  513MOL0     C69181   3.878   3.690   2.518 -0.6706 -0.8176 -0.2745
  513MOL0     C69182   4.007   3.770   2.482 -0.6992  0.8989  1.0379
  513MOL0     C69183   4.129   3.672   2.515  0.6178 -0.3523 -0.4573
  513MOL0     C69184   4.132   3.551   2.444  0.3894  0.0242  0.0808
  513MOL0     C69185   4.109   3.453   2.382  0.6374 -0.3531 -0.0515
  513MOL0     C69186   3.514   3.922   2.527  0.9506  0.9200  0.6753
  513MOL0     C69187   3.402   3.989   2.584 -0.6362 -0.3915  0.7162
  513MOL0     H69188   2.989   4.138   2.592 -0.6849  0.5879 -0.5624
  513MOL0     H69189   2.783   4.291   2.625 -1.1855  1.1178  1.2707
  513MOL0     H69190   2.807   4.542   3.035  0.7179  1.9029 -0.3336
  513MOL0     H69191   2.857   4.637   2.904  0.1404 -1.1819  0.1106
  513MOL0     H69192   2.636   4.668   2.828 -0.5328 -0.7543 -0.1274
  513MOL0     H69193   2.570   4.570   2.961 -0.3748 -1.4096 -2.1859
  513MOL0     H69194   2.550   4.785   3.052 -0.9939 -1.4457 -2.5054
  513MOL0     H69195   2.698   4.712   3.127 -1.0826 -0.8385  0.1673
  513MOL0     H69196   2.841   4.853   2.983 -0.3261  0.4127  0.1594
  513MOL0     H69197   2.686   4.901   2.895 -0.5178 -0.7222  0.2174
  513MOL0     H69198   2.763   5.080   3.033 -0.1557 -1.5111 -2.2268
  513MOL0     H69199   2.618   5.018   3.098  0.0080  1.7306  2.4856
  513MOL0     H69200   2.739   4.885   3.269 -2.5758 -0.6895 -1.6553
  513MOL0     H69201   2.893   4.937   3.195 -0.8040  1.4999 -3.9226
  513MOL0     H69202   2.691   5.134   3.305 -0.3584 -1.0073 -1.0636
  513MOL0     H69203   2.796   5.052   3.410 -1.8989  1.0198  0.1968
  513MOL0     H69204   2.922   5.199   3.162  3.5247 -1.3100  0.4084
  513MOL0     H69205   2.992   5.153   3.321 -2.1053 -3.7850  0.4988
  513MOL0     H69206   2.879   5.265   3.551  0.0564  0.6364  0.7399
  513MOL0     H69207   2.888   5.524   3.683  1.7092  1.1133 -1.3032
  513MOL0     H69208   2.830   5.657   3.573  1.3152 -0.1465 -2.2771
  513MOL0     H69209   2.680   5.418   3.694  3.6505 -0.7575  0.1336
  513MOL0     H69210   2.616   5.500   3.552  0.5239 -3.3699  0.3233
  513MOL0     H69211   2.635   5.724   3.666 -0.0237 -0.2136 -0.6270
  513MOL0     H69212   2.617   5.631   3.822 -0.7063 -0.1523  1.5053
  513MOL0     H69213   2.417   5.604   3.587  0.8409 -4.0124  0.4461
  513MOL0     H69214   2.410   5.739   3.710  3.7336  1.0096  2.9993
  513MOL0     H69215   2.194   5.700   3.820 -0.3751  0.2247  0.7144
  513MOL0     H69216   2.017   5.813   4.052  3.3389  0.2716  1.3585
  513MOL0     H69217   1.997   5.704   3.918  0.6701 -4.3894 -0.3754
  513MOL0     H69218   1.955   5.662   4.090 -0.5614  1.9242  0.3044
  513MOL0     H69219   2.443   5.480   4.492 -1.0426 -0.7307 -0.9354
  513MOL0     H69220   2.536   5.562   4.695  1.4259  2.7032 -0.9598
  513MOL0     H69221   2.529   5.600   4.939  1.0006 -0.9009  0.5112
  513MOL0     H69222   2.604   5.722   4.849  2.1846 -3.5193  1.5154
  513MOL0     H69223   2.446   5.765   5.098  0.6994 -3.5362  2.6969
  513MOL0     H69224   2.610   5.709   5.099  0.1479 -1.0255 -1.1220
  513MOL0     H69225   2.577   5.948   5.149  1.8971  2.0966  0.1702
  513MOL0     H69226   2.552   5.978   4.970  0.9179 -1.4237 -1.7255
  513MOL0     H69227   2.785   5.840   5.096 -0.0372  1.2829  1.4019
  513MOL0     H69228   2.779   5.880   4.916 -0.6373  0.7292  0.0774
  513MOL0     H69229   2.909   6.047   4.997  0.2698  2.2715  1.1657
  513MOL0     H69230   2.834   6.028   5.154  1.2274 -1.0679 -0.3154
  513MOL0     H69231   2.628   6.164   5.065 -0.2224  4.4250  0.3955
  513MOL0     H69232   2.781   6.257   5.059 -0.8819  1.1215 -1.1820
  513MOL0     H69233   2.688   6.090   4.815 -1.0484  0.4920 -2.1746
  513MOL0     H69234   2.787   6.238   4.814  0.1086 -0.9250  1.1770
  513MOL0     H69235   2.498   6.229   4.903 -0.5562 -0.5295 -2.2700
  513MOL0     H69236   2.547   6.273   4.734  0.5608  1.4513 -0.8963
  513MOL0     H69237   2.161   5.782   4.766  2.1223 -0.4178  3.3269
  513MOL0     H69238   2.097   5.733   4.561  0.8917  1.6506  0.0784
  513MOL0     H69239   2.404   5.492   4.219 -0.2857 -0.2400  0.0297
  513MOL0     H69240   2.472   5.427   3.997  0.8269  1.1994 -3.4625
  513MOL0     H69241   3.025   4.468   2.946 -1.1839 -1.9150  1.7614
  513MOL0     H69242   3.202   4.346   2.896 -1.5300  1.6517  0.3570
  513MOL0     H69243   3.258   3.720   2.737  2.2651 -0.9861  2.0096
  513MOL0     H69244   3.449   3.600   2.633  2.1319  0.4864  0.3753
  513MOL0     H69245   3.767   3.832   2.393 -2.2601 -2.9069 -1.5396
  513MOL0     H69246   3.759   3.855   2.572  1.3596 -0.4824 -0.6229
  513MOL0     H69247   3.866   3.599   2.459 -2.3048  0.5671 -2.2178
  513MOL0     H69248   3.891   3.656   2.621 -1.1562 -1.0006 -0.2716
  513MOL0     H69249   4.016   3.872   2.520 -1.6067  1.5529 -0.4133
  513MOL0     H69250   3.999   3.781   2.373  0.6348 -1.2585  0.6568
  513MOL0     H69251   4.125   3.657   2.623  0.2551  0.4824 -0.3420
  513MOL0     H69252   4.222   3.728   2.499  0.7776  0.1694  1.9392
  513MOL0     H69253   4.082   3.376   2.312  2.8447 -2.8489  1.6817
  513MOL0     H69254   3.584   3.981   2.468  0.8758 -0.1427 -0.5191
  513MOL0     H69255   3.400   4.097   2.568 -0.3776 -0.6520 -1.3724
  514MOL0     O69256   9.056   2.152   8.929 -0.0612 -0.4493 -0.0919
  514MOL0     C69257   9.091   2.060   8.855 -0.1203  0.1176 -0.9413
  514MOL0     O69258   9.011   1.984   8.767  0.6879  0.0013 -0.1422
  514MOL0     C69259   8.889   2.034   8.732  0.0701  0.2314  1.1630
  514MOL0     C69260   8.776   1.963   8.761 -0.2300  0.6329 -0.4405
  514MOL0     C69261   8.657   2.014   8.713  0.1454 -1.8726 -0.0020
  514MOL0     C69262   8.636   2.139   8.635 -0.6856 -0.5608 -0.6976
  514MOL0     O69263   8.520   2.203   8.598  0.0132 -0.6813 -1.0069
  514MOL0     C69264   8.406   2.129   8.617 -0.0245 -0.7937 -0.0782
  514MOL0     C69265   8.291   2.226   8.654  0.3142 -0.6216 -0.3698
  514MOL0     C69266   8.290   2.284   8.796 -0.6929 -0.4294 -0.3780
  514MOL0     C69267   8.407   2.387   8.807  0.7816  0.0192  0.2971
  514MOL0     C69268   8.532   2.336   8.892  0.5743  0.5414 -0.4961
  514MOL0     C69269   8.659   2.414   8.861  0.5012 -0.1496  1.5918
  514MOL0     C69270   8.770   2.396   8.970 -0.6346 -0.7223 -0.0380
  514MOL0     C69271   8.890   2.485   8.955  0.6409  0.8440 -0.5248
  514MOL0     N69272   8.965   2.498   9.077  0.2464  0.3223 -0.0383
  514MOL0     C69273   8.976   2.396   9.177  0.1244 -0.4020  0.3821
  514MOL0     C69274   9.082   2.431   9.254  0.4418 -0.1082 -0.5552
  514MOL0     C69275   9.137   2.360   9.371 -0.7435  0.6387 -0.4635
  514MOL0     C69276   9.236   2.266   9.322  0.3309  0.3012  0.1629
  514MOL0     C69277   9.322   2.219   9.448  0.7139 -0.6403  0.1094
  514MOL0     C69278   9.428   2.121   9.400 -0.0579  0.8542 -0.3360
  514MOL0     O69279   9.372   1.986   9.399 -0.2224  0.2771 -0.0217
  514MOL0     C69280   9.456   1.880   9.359 -0.4949  0.1814 -0.6016
  514MOL0     C69281   9.398   1.750   9.343  0.9254 -0.5563 -0.6016
  514MOL0     C69282   9.468   1.636   9.316 -0.0251  0.9941 -0.2467
  514MOL0     C69283   9.397   1.502   9.305  0.7818  0.3388  0.1885
  514MOL0     C69284   9.612   1.658   9.305 -0.4231  0.4766  0.1293
  514MOL0     C69285   9.700   1.537   9.286  0.4853 -0.3065 -0.3574
  514MOL0     O69286   9.808   1.563   9.219  0.2905  0.2917  0.2073
  514MOL0     C69287   9.931   1.501   9.237 -0.7561  0.7505  1.0928
  514MOL0     C69288   9.972   1.451   9.363 -0.7287 -0.9302  0.0616
  514MOL0     C69289  10.089   1.377   9.375  0.4409  0.3569  0.0606
  514MOL0     C69290  10.175   1.359   9.267  0.4934 -0.3297  0.4871
  514MOL0     O69291  10.297   1.290   9.267  0.2889  0.0279  0.3601
  514MOL0     C69292  10.290   1.146   9.298 -1.0486  0.2718 -0.0770
  514MOL0     C69293  10.354   1.122   9.440  0.6491  0.2510 -0.3272
  514MOL0     C69294  10.387   0.972   9.443  0.2300 -0.0872  0.3804
  514MOL0     C69295  10.466   0.941   9.577  0.1960 -0.4375 -0.5876
  514MOL0     C69296  10.473   0.801   9.625 -0.3786  0.1595 -0.5435
  514MOL0     C69297  10.560   0.780   9.744 -0.2749  0.5104  0.9059
  514MOL0     C69298  10.493   0.672   9.835 -0.3052  0.4161  0.6805
  514MOL0     C69299  10.557   0.672   9.970  0.1617 -0.6986 -0.4382
  514MOL0    Cl69300  10.499   0.537  10.066 -0.1572 -0.5285  0.3988
  514MOL0     C69301  10.130   1.403   9.145  0.2577 -0.8709 -0.2503
  514MOL0     C69302  10.015   1.477   9.127  0.3901 -0.4137 -0.6906
  514MOL0     O69303   9.665   1.425   9.319 -0.1308 -0.5999 -0.0715
  514MOL0     C69304   9.667   1.784   9.326  0.0725 -0.7092  1.2910
  514MOL0     C69305   9.589   1.893   9.336  0.2640 -0.1210  0.6524
  514MOL0     N69306   9.123   2.555   9.213 -0.1148  0.0937  0.1473
  514MOL0     N69307   9.052   2.593   9.110 -0.3047  0.4333 -0.0274
  514MOL0     C69308   8.756   2.202   8.596  0.9361 -0.5425 -0.8202
  514MOL0     C69309   8.877   2.149   8.648 -0.0402  0.5869 -0.7370
  514MOL0     C69310   9.229   2.007   8.868 -0.2590 -0.7227 -0.1472
  514MOL0     C69311   9.284   1.946   8.745  0.2967  0.3563  0.6993
  514MOL0     C69312   9.428   1.925   8.746  0.4368  0.4490 -0.7702
  514MOL0     C69313   9.510   1.962   8.852 -0.7404  0.5822 -0.6035
  514MOL0     O69314   9.646   1.955   8.863 -0.6258 -1.0176  0.6256
  514MOL0     C69315   9.687   1.858   8.955  0.7552 -0.5726  0.2845
  514MOL0     C69316   9.834   1.819   8.946 -1.1561  0.3229 -0.3635
  514MOL0     C69317   9.928   1.939   8.982  0.8111  0.6485  0.0461
  514MOL0     C69318   9.904   1.995   9.119 -0.3171 -0.0510 -0.9347
  514MOL0     C69319   9.834   2.118   9.115 -0.7585 -0.8565 -0.3123
  514MOL0     C69320   9.785   2.232   9.109  0.9142 -0.1063  0.4766
  514MOL0     C69321   9.442   2.015   8.971 -0.8239 -1.0328 -0.1716
  514MOL0     C69322   9.316   2.051   8.973 -0.2901  0.0581 -0.1217
  514MOL0     H69323   8.780   1.871   8.818 -2.4391  2.8913  3.8942
  514MOL0     H69324   8.574   1.945   8.729  0.4185 -1.9196  1.3294
  514MOL0     H69325   8.397   2.074   8.523 -1.0416 -1.5589  0.4455
  514MOL0     H69326   8.409   2.059   8.701  3.1692  0.8949  1.4132
  514MOL0     H69327   8.285   2.312   8.587  2.0924  0.7401  1.0954
  514MOL0     H69328   8.200   2.165   8.653  1.0732 -1.8202  0.5236
  514MOL0     H69329   8.195   2.337   8.802 -1.1746 -0.9713 -2.3859
  514MOL0     H69330   8.308   2.208   8.872  2.3923 -0.0499 -0.5865
  514MOL0     H69331   8.432   2.413   8.704  2.1766 -1.1955  0.3149
  514MOL0     H69332   8.369   2.477   8.857  0.3030 -0.0808  0.1206
  514MOL0     H69333   8.501   2.340   8.997 -2.7100  0.8009 -1.3600
  514MOL0     H69334   8.553   2.231   8.870  2.6234  0.9355 -0.5664
  514MOL0     H69335   8.700   2.389   8.762  0.4812  2.9606  0.7122
  514MOL0     H69336   8.633   2.519   8.846 -1.9190 -0.7862  0.8656
  514MOL0     H69337   8.728   2.405   9.071 -0.9619  0.7799 -0.2812
  514MOL0     H69338   8.805   2.293   8.961  1.8722 -0.1296  1.8720
  514MOL0     H69339   8.849   2.584   8.935 -0.6357  0.4901  0.2474
  514MOL0     H69340   8.958   2.445   8.879  2.8051 -0.3694  1.9010
  514MOL0     H69341   8.923   2.301   9.183 -1.3502  0.2497 -1.3076
  514MOL0     H69342   9.183   2.441   9.427 -1.7633  2.6729 -2.4279
  514MOL0     H69343   9.065   2.303   9.430  1.0957  0.2516  1.5621
  514MOL0     H69344   9.293   2.319   9.246 -0.5731  1.5317  0.3230
  514MOL0     H69345   9.185   2.180   9.277 -0.9214  0.8631  0.4467
  514MOL0     H69346   9.265   2.179   9.532 -0.7732 -1.0172 -1.0297
  514MOL0     H69347   9.378   2.305   9.484  0.3305 -0.1047 -0.5417
  514MOL0     H69348   9.507   2.114   9.476  0.1160 -1.0749 -0.6458
  514MOL0     H69349   9.473   2.156   9.307  0.3171  1.4345  0.0581
  514MOL0     H69350   9.291   1.735   9.336  0.8726 -2.8084  2.5512
  514MOL0     H69351   9.293   1.516   9.336 -0.0469  1.7055 -2.8347
  514MOL0     H69352   9.390   1.470   9.201 -1.7194 -1.2292  0.7402
  514MOL0     H69353   9.442   1.413   9.350 -2.3020 -1.5443 -0.1275
  514MOL0     H69354   9.912   1.478   9.450  0.6576 -0.3577  0.8745
  514MOL0     H69355  10.112   1.328   9.469  0.3658 -0.1486 -0.1834
  514MOL0     H69356  10.186   1.114   9.307 -0.5767 -1.8096 -1.3676
  514MOL0     H69357  10.347   1.090   9.223  2.7111  0.6328  2.2672
  514MOL0     H69358  10.442   1.187   9.453  1.2576 -0.3743 -1.2224
  514MOL0     H69359  10.270   1.141   9.508  1.0747  3.7771 -0.5758
  514MOL0     H69360  10.451   0.956   9.355  1.0987  0.9081  0.8166
  514MOL0     H69361  10.294   0.915   9.435  0.0671  0.0472  1.2166
  514MOL0     H69362  10.570   0.977   9.578  0.4034 -0.8829  2.3026
  514MOL0     H69363  10.407   0.996   9.651  0.0493 -0.3440 -0.7749
  514MOL0     H69364  10.502   0.743   9.537  3.1854 -0.1470  0.6857
  514MOL0     H69365  10.370   0.773   9.651 -0.7070  3.0099  1.7931
  514MOL0     H69366  10.661   0.740   9.732 -1.0345 -1.9007  1.9400
  514MOL0     H69367  10.582   0.877   9.790 -2.9055  2.4212 -1.5110
  514MOL0     H69368  10.501   0.576   9.782  0.6407  2.1202 -2.5394
  514MOL0     H69369  10.387   0.697   9.836 -0.5363  0.2715 -3.2928
  514MOL0     H69370  10.546   0.760  10.034  2.2910 -0.1530 -0.7424
  514MOL0     H69371  10.665   0.658   9.959  0.2088 -0.7820  0.1314
  514MOL0     H69372  10.181   1.374   9.054 -0.1995 -0.8464 -0.5160
  514MOL0     H69373   9.988   1.510   9.028  1.3644 -0.3477 -0.9524
  514MOL0     H69374   9.773   1.804   9.328 -0.0902  2.7578 -4.0371
  514MOL0     H69375   9.639   1.986   9.361  0.7831 -0.0923 -0.4060
  514MOL0     H69376   8.755   2.292   8.536  0.8622  0.2478  0.3248
  514MOL0     H69377   8.974   2.194   8.635  1.0354 -0.6829  2.1211
  514MOL0     H69378   9.220   1.916   8.663 -0.3131 -0.8349  1.5693
  514MOL0     H69379   9.463   1.886   8.651 -1.0715  0.3960 -1.3290
  514MOL0     H69380   9.660   1.889   9.057 -1.2360  1.2432 -0.7082
  514MOL0     H69381   9.643   1.763   8.922  2.7364  0.1777 -5.8383
  514MOL0     H69382   9.859   1.782   8.846  0.8833  1.1373 -0.2021
  514MOL0     H69383   9.857   1.736   9.013  1.2453 -0.2482 -1.7835
  514MOL0     H69384   9.914   2.011   8.901 -0.5407 -0.9658 -1.2336
  514MOL0     H69385  10.033   1.921   8.956  0.1303 -1.3712 -1.5163
  514MOL0     H69386   9.999   2.011   9.170  0.1391  1.9250 -2.2873
  514MOL0     H69387   9.852   1.915   9.173 -0.5857  0.1693 -0.8684
  514MOL0     H69388   9.739   2.329   9.105  1.1681  0.0144  0.5014
  514MOL0     H69389   9.492   2.038   9.065 -3.4171  0.3179  0.9634
  514MOL0     H69390   9.277   2.091   9.066 -1.4585 -0.9718 -0.1310
  515MOL0     O69391  10.392   4.213   0.850  0.2204  0.3745 -0.3022
  515MOL0     C69392  10.425   4.296   0.941 -0.1319  0.4516  0.1349
  515MOL0     O69393  10.554   4.358   0.943 -0.1843 -0.0947 -0.6387
  515MOL0     C69394  10.625   4.353   0.828  0.0871 -0.0111  0.2753
  515MOL0     C69395  10.576   4.413   0.706  0.3358 -0.5228 -0.6271
  515MOL0     C69396  10.646   4.402   0.587  0.2207  0.4419 -0.2276
  515MOL0     C69397  10.762   4.331   0.576 -0.1781 -0.4241  0.2256
  515MOL0     O69398  10.837   4.328   0.458  0.0047 -0.2457  0.3102
  515MOL0     C69399  10.819   4.433   0.352  0.5036 -0.2232  1.1669
  515MOL0     C69400  10.875   4.565   0.405 -0.0818  0.5537 -0.1748
  515MOL0     C69401  10.940   4.650   0.292  0.1106 -0.5601 -0.6957
  515MOL0     C69402  11.069   4.589   0.219  0.7143 -0.5186  0.6465
  515MOL0     C69403  11.196   4.592   0.314  1.2003  0.4116  0.4568
  515MOL0     C69404  11.262   4.727   0.342  0.3339  0.3407  0.2560
  515MOL0     C69405  11.292   4.817   0.224 -0.5393 -0.1209 -0.6235
  515MOL0     C69406  11.333   4.956   0.267  0.6626  0.0490  0.0988
  515MOL0     N69407  11.468   4.960   0.324 -0.3685 -0.1511 -0.4125
  515MOL0     C69408  11.583   4.967   0.243 -0.4941  0.4310  0.2864
  515MOL0     C69409  11.670   5.008   0.339  0.5683  0.5278 -0.3452
  515MOL0     C69410  11.820   5.014   0.319  0.2734 -0.5243  0.0607
  515MOL0     C69411  11.866   5.155   0.263  1.6952 -0.3866  0.6565
  515MOL0     C69412  11.924   5.248   0.363 -0.1261  0.1313 -0.1230
  515MOL0     C69413  12.056   5.202   0.418 -2.0223  0.4442  1.1798
  515MOL0     O69414  12.050   5.124   0.541 -0.3037 -0.4751  0.4390
  515MOL0     C69415  12.165   5.087   0.606 -0.2852  1.2068 -0.7640
  515MOL0     C69416  12.158   4.976   0.683 -0.0629  0.0589 -0.6768
  515MOL0     C69417  12.270   4.926   0.751 -0.0130 -0.4367  1.1720
  515MOL0     C69418  12.250   4.810   0.837 -0.3586 -0.9274 -0.2400
  515MOL0     C69419  12.399   4.984   0.722  0.7053 -0.5721  0.7328
  515MOL0     C69420  12.524   4.912   0.763 -0.9778  0.0192 -0.2010
  515MOL0     O69421  12.513   4.783   0.822 -0.1428  0.0937 -0.0796
  515MOL0     C69422  12.635   4.739   0.874  0.9229  0.3295 -0.9083
  515MOL0     C69423  12.678   4.750   1.008  0.7299  0.0664 -0.3009
  515MOL0     C69424  12.785   4.682   1.046 -0.4920  0.3907 -0.1388
  515MOL0     C69425  12.871   4.611   0.964 -0.5479 -0.5017  0.2383
  515MOL0     O69426  12.988   4.551   0.994  0.3847  0.4752 -0.1657
  515MOL0     C69427  13.074   4.612   1.095  0.0311  0.3585  0.9220
  515MOL0     C69428  13.117   4.507   1.203  0.1793  0.1010  0.2983
  515MOL0     C69429  13.268   4.509   1.218  0.4127  0.4008  0.1638
  515MOL0     C69430  13.330   4.446   1.096 -0.1261  0.7373 -0.8772
  515MOL0     C69431  13.487   4.468   1.111 -0.6469  0.4779 -0.0224
  515MOL0     C69432  13.556   4.333   1.069 -0.6611  0.0223 -1.0367
  515MOL0     C69433  13.568   4.331   0.915 -0.6594  0.0048 -0.0541
  515MOL0     C69434  13.610   4.190   0.855 -0.5700  0.7138 -0.2271
  515MOL0    Cl69435  13.616   4.190   0.676 -0.2019 -0.2981  0.0027
  515MOL0     C69436  12.843   4.629   0.823 -1.3807  0.1949  1.1194
  515MOL0     C69437  12.719   4.685   0.772 -0.9867  0.2889 -0.8038
  515MOL0     O69438  12.629   4.965   0.737 -0.3089 -0.6951  0.3080
  515MOL0     C69439  12.407   5.102   0.644  0.3216  0.7133  1.2015
  515MOL0     C69440  12.287   5.157   0.588 -0.8644  0.3817 -0.0155
  515MOL0     N69441  11.621   5.025   0.466 -0.3579  0.0403  0.5132
  515MOL0     N69442  11.495   4.988   0.456 -0.1818 -0.2357 -0.2863
  515MOL0     C69443  10.819   4.282   0.690 -0.0742 -0.0218 -0.7600
  515MOL0     C69444  10.753   4.288   0.820 -0.2521 -0.1701  0.2881
  515MOL0     C69445  10.325   4.330   1.032  0.5044 -0.6161 -0.4046
  515MOL0     C69446  10.321   4.463   1.084 -0.3603  0.1350 -0.9607
  515MOL0     C69447  10.235   4.503   1.191  0.0181 -0.1114  0.3201
  515MOL0     C69448  10.144   4.413   1.231 -0.5429 -0.1782 -0.2836
  515MOL0     O69449  10.055   4.452   1.327  0.9176  0.0513  0.4350
  515MOL0     C69450   9.952   4.355   1.360 -0.0158  0.8163 -0.0383
  515MOL0     C69451   9.872   4.405   1.480  1.1153 -0.2377 -0.0212
  515MOL0     C69452   9.766   4.297   1.506  0.2219  0.7021  0.4329
  515MOL0     C69453   9.689   4.311   1.644  0.6911 -0.3781 -0.3961
  515MOL0     C69454   9.603   4.438   1.639 -0.7240 -0.9071  0.7419
  515MOL0     C69455   9.537   4.534   1.601 -0.3980  0.4474 -0.5959
  515MOL0     C69456  10.135   4.286   1.168 -0.2462  0.6734 -0.0353
  515MOL0     C69457  10.230   4.240   1.084 -0.5293 -1.0188  1.3519
  515MOL0     H69458  10.486   4.473   0.696 -0.4353 -1.8036 -1.8190
  515MOL0     H69459  10.592   4.449   0.505 -2.2360  0.4116  1.2854
  515MOL0     H69460  10.868   4.402   0.259 -2.3035 -2.6633  0.3080
  515MOL0     H69461  10.712   4.440   0.328  0.9174  0.7937 -0.5751
  515MOL0     H69462  10.802   4.625   0.460 -0.2028  0.0634  0.2029
  515MOL0     H69463  10.955   4.549   0.477 -0.6793  1.5038  0.7238
  515MOL0     H69464  10.870   4.668   0.211 -0.4507 -1.5810 -0.4586
  515MOL0     H69465  10.989   4.740   0.330  0.4053 -0.7911 -0.5267
  515MOL0     H69466  11.058   4.489   0.175  1.0297 -0.1706 -0.2500
  515MOL0     H69467  11.089   4.650   0.131 -0.3312  0.7952  1.2727
  515MOL0     H69468  11.177   4.542   0.409  2.8968 -0.0510  0.5830
  515MOL0     H69469  11.276   4.528   0.275  0.1835  0.4015 -1.7936
  515MOL0     H69470  11.195   4.767   0.419  0.5337 -2.6123  2.1093
  515MOL0     H69471  11.356   4.700   0.392  0.4033  1.8771  1.0495
  515MOL0     H69472  11.358   4.769   0.150 -0.0414  0.1378 -0.3527
  515MOL0     H69473  11.201   4.840   0.168  0.8219  3.0131 -1.7946
  515MOL0     H69474  11.260   4.981   0.344  0.5951 -2.9549  1.1301
  515MOL0     H69475  11.331   5.026   0.183 -2.0620 -1.0751 -0.8706
  515MOL0     H69476  11.590   4.930   0.141 -3.9316 -4.0661  1.3617
  515MOL0     H69477  11.878   4.997   0.410  2.4441 -0.9448 -1.2963
  515MOL0     H69478  11.848   4.934   0.248 -3.0685 -1.9910  0.2376
  515MOL0     H69479  11.783   5.196   0.205  0.7522 -2.1046  0.7235
  515MOL0     H69480  11.934   5.148   0.178 -1.1263  3.5643 -2.3330
  515MOL0     H69481  11.857   5.264   0.448 -2.7983 -2.3743 -1.5351
  515MOL0     H69482  11.958   5.343   0.321  3.6583 -0.3870  1.4089
  515MOL0     H69483  12.108   5.299   0.426 -1.0751  0.1663 -0.9924
  515MOL0     H69484  12.106   5.148   0.337 -0.8501  2.1499  0.6948
  515MOL0     H69485  12.064   4.926   0.706 -0.8178  1.5184 -0.4320
  515MOL0     H69486  12.145   4.804   0.867 -0.3986  2.3068  0.5575
  515MOL0     H69487  12.278   4.712   0.796 -0.4384 -1.2125  0.3650
  515MOL0     H69488  12.313   4.827   0.925  3.0109 -1.1255 -2.4288
  515MOL0     H69489  12.625   4.809   1.081  0.8999  0.4633 -0.4950
  515MOL0     H69490  12.804   4.682   1.153  0.0263  0.6978 -0.2255
  515MOL0     H69491  13.154   4.659   1.037 -2.1324  1.3053 -1.4468
  515MOL0     H69492  13.021   4.686   1.155 -0.6997 -1.2203  2.3304
  515MOL0     H69493  13.057   4.520   1.294 -0.4282  1.1715 -0.2367
  515MOL0     H69494  13.082   4.410   1.166  0.8879  0.3226 -1.0035
  515MOL0     H69495  13.302   4.454   1.306 -1.9820 -2.1880 -0.4073
  515MOL0     H69496  13.286   4.616   1.234 -1.5971  1.0459 -1.4625
  515MOL0     H69497  13.295   4.345   1.074  0.0905  0.8851 -1.9169
  515MOL0     H69498  13.299   4.501   1.007 -2.8753  1.9493  0.7220
  515MOL0     H69499  13.505   4.502   1.213 -2.6482  2.4416 -0.2411
  515MOL0     H69500  13.525   4.547   1.047 -2.2170 -0.3711 -2.1376
  515MOL0     H69501  13.652   4.339   1.121 -0.4024  1.3034 -1.6241
  515MOL0     H69502  13.511   4.246   1.117  0.4156  0.7463  1.4751
  515MOL0     H69503  13.641   4.408   0.887  0.5327 -0.2967  2.0441
  515MOL0     H69504  13.475   4.358   0.865 -0.6427  1.2941  0.5827
  515MOL0     H69505  13.540   4.119   0.898  0.2828 -1.5729 -2.3835
  515MOL0     H69506  13.710   4.166   0.893 -1.2730 -2.5859 -0.2281
  515MOL0     H69507  12.919   4.597   0.751 -2.2398 -1.9012  1.0787
  515MOL0     H69508  12.693   4.707   0.668  1.7943  1.1340 -1.4131
  515MOL0     H69509  12.498   5.152   0.610 -1.0342  3.8789  1.8337
  515MOL0     H69510  12.305   5.247   0.529  0.8123  1.7108  2.3260
  515MOL0     H69511  10.904   4.216   0.681 -0.5542 -0.8978  0.8133
  515MOL0     H69512  10.800   4.226   0.896 -1.9226 -1.2144  0.5181
  515MOL0     H69513  10.374   4.544   1.034 -0.9055  0.1994 -1.4527
  515MOL0     H69514  10.253   4.604   1.228  0.1645 -0.5813  1.5462
  515MOL0     H69515   9.881   4.350   1.277  0.2245 -1.3886 -0.1782
  515MOL0     H69516   9.987   4.251   1.366 -1.2393  0.1501 -2.6757
  515MOL0     H69517   9.819   4.494   1.447  4.4803  2.8327  2.0971
  515MOL0     H69518   9.926   4.419   1.574 -1.8453 -1.4195  2.0192
  515MOL0     H69519   9.813   4.198   1.501 -1.3476 -0.0615  0.0236
  515MOL0     H69520   9.702   4.290   1.417 -1.5649 -1.0086  1.7714
  515MOL0     H69521   9.754   4.318   1.732 -0.1205 -1.3762  0.3070
  515MOL0     H69522   9.617   4.231   1.661 -2.4914  1.7177 -2.9099
  515MOL0     H69523   9.477   4.613   1.561  0.7049  1.8109  0.3594
  515MOL0     H69524  10.050   4.221   1.185  1.6101 -1.4841  1.6514
  515MOL0     H69525  10.235   4.135   1.056 -2.0494 -0.7347 -0.1613
  516MOL0     O69526   9.605   2.882   9.634  0.0962  0.6152  0.0901
  516MOL0     C69527   9.658   2.966   9.698 -0.1074 -0.0609 -0.0208
  516MOL0     O69528   9.782   2.960   9.753  0.7808 -0.9665 -0.6088
  516MOL0     C69529   9.856   2.844   9.749  0.4794  0.5288 -1.3768
  516MOL0     C69530   9.895   2.778   9.633 -0.9487 -0.0244 -0.1820
  516MOL0     C69531   9.981   2.673   9.631  0.0622 -0.3591  0.9151
  516MOL0     C69532  10.026   2.621   9.753  0.9270  0.4088 -0.1449
  516MOL0     O69533  10.098   2.498   9.756 -0.6470 -0.9468  1.1623
  516MOL0     C69534  10.225   2.508   9.825  0.4312  0.3477 -0.2027
  516MOL0     C69535  10.323   2.581   9.727  0.6761 -0.8874 -0.8569
  516MOL0     C69536  10.453   2.622   9.800  0.5831  1.0689 -0.4328
  516MOL0     C69537  10.560   2.667   9.704 -0.4512 -0.6216 -0.3972
  516MOL0     C69538  10.699   2.678   9.770 -0.0883 -0.3583  0.5980
  516MOL0     C69539  10.808   2.736   9.665  0.1806  0.7207  0.3159
  516MOL0     C69540  10.944   2.754   9.717 -0.3205  0.3303 -0.5600
  516MOL0     C69541  11.033   2.624   9.709  0.4439 -0.4074 -0.4501
  516MOL0     N69542  11.161   2.633   9.783  0.2651 -0.1273 -0.2684
  516MOL0     C69543  11.238   2.740   9.807 -0.2500 -0.0712 -0.1230
  516MOL0     C69544  11.339   2.694   9.887 -0.9273  0.4412  0.9996
  516MOL0     C69545  11.453   2.778   9.935 -0.9447 -0.0097 -1.0012
  516MOL0     C69546  11.580   2.702   9.991 -0.8140  0.0403 -0.0524
  516MOL0     C69547  11.681   2.666   9.885  0.1760  0.6365 -1.2918
  516MOL0     C69548  11.645   2.540   9.802 -0.4087 -0.7432  0.0787
  516MOL0     O69549  11.651   2.425   9.887 -0.3937 -0.5255  0.4922
  516MOL0     C69550  11.674   2.310   9.822 -0.4828  0.5029 -1.3723
  516MOL0     C69551  11.611   2.253   9.712 -0.4554  0.9542 -0.8206
  516MOL0     C69552  11.624   2.114   9.667 -0.2084 -0.3434  0.5330
  516MOL0     C69553  11.549   2.070   9.555  1.0634  0.4305 -0.1599
  516MOL0     C69554  11.701   2.032   9.744  0.7730  1.5431 -0.4447
  516MOL0     C69555  11.720   1.887   9.729 -0.4956  0.7107 -0.8993
  516MOL0     O69556  11.787   1.820   9.831  0.8854  0.1118  0.3781
  516MOL0     C69557  11.867   1.717   9.795  0.1329 -0.5464 -0.5384
  516MOL0     C69558  11.825   1.583   9.810 -0.4987  0.0487  0.3919
  516MOL0     C69559  11.917   1.484   9.767 -0.6216  0.3778  1.1846
  516MOL0     C69560  12.037   1.516   9.691  0.1041  0.0747 -1.0936
  516MOL0     O69561  12.125   1.422   9.654 -0.2299  0.4984  0.5289
  516MOL0     C69562  12.068   1.304   9.606  0.1130  0.0261  0.9522
  516MOL0     C69563  12.166   1.214   9.534 -0.8575 -0.5409  0.6244
  516MOL0     C69564  12.108   1.081   9.487  0.8418 -1.0232 -0.0277
  516MOL0     C69565  12.197   1.002   9.390 -0.4001  0.2197 -0.0678
  516MOL0     C69566  12.129   0.869   9.349  0.8174 -1.0722 -0.1827
  516MOL0     C69567  12.140   0.835   9.193 -0.3291 -0.3440 -1.4131
  516MOL0     C69568  12.263   0.758   9.173  0.1721 -0.6175 -0.3028
  516MOL0     C69569  12.294   0.756   9.025 -0.7360 -0.4790 -0.1067
  516MOL0    Cl69570  12.249   0.611   8.946 -0.2758 -0.2239  0.0876
  516MOL0     C69571  12.065   1.648   9.686 -0.1183 -0.7204 -0.9324
  516MOL0     C69572  11.985   1.756   9.725  0.6099  0.5353 -0.7093
  516MOL0     O69573  11.689   1.841   9.623  0.0078 -0.6074 -0.2903
  516MOL0     C69574  11.766   2.086   9.860  0.3302  0.3093  0.1279
  516MOL0     C69575  11.747   2.220   9.893 -0.2847  0.2174 -0.4519
  516MOL0     N69576  11.308   2.563   9.918 -0.8914 -0.8239 -0.5245
  516MOL0     N69577  11.195   2.526   9.865 -0.4856 -0.5274  0.0959
  516MOL0     C69578   9.985   2.678   9.880 -0.9618  0.3146  0.1504
  516MOL0     C69579   9.887   2.785   9.878 -0.1301  0.2841  0.6410
  516MOL0     C69580   9.593   3.103   9.701 -0.1784 -0.1686  0.1228
  516MOL0     C69581   9.457   3.112   9.695  1.0022 -0.0057 -0.4907
  516MOL0     C69582   9.398   3.236   9.724 -0.2959 -0.8361 -0.5690
  516MOL0     C69583   9.465   3.343   9.785 -0.9230 -0.0779  0.1781
  516MOL0     O69584   9.404   3.448   9.842  0.3003  0.5153  0.4994
  516MOL0     C69585   9.310   3.522   9.761  0.1049  0.2425  0.1803
  516MOL0     C69586   9.372   3.566   9.628 -0.0992 -0.6840 -0.6332
  516MOL0     C69587   9.486   3.677   9.660  0.3879  0.6465 -0.8879
  516MOL0     C69588   9.516   3.767   9.538  0.6355  1.3549  0.5065
  516MOL0     C69589   9.398   3.857   9.507  0.5964 -0.5834  0.5033
  516MOL0     C69590   9.317   3.941   9.480  0.4017  0.8529  0.7269
  516MOL0     C69591   9.603   3.326   9.792  0.2048  0.1184 -0.4840
  516MOL0     C69592   9.666   3.203   9.752 -0.3075 -0.1552  0.5995
  516MOL0     H69593   9.865   2.824   9.539 -0.5113  1.3232  0.3051
  516MOL0     H69594  10.021   2.634   9.538 -2.6585 -1.6295  0.1904
  516MOL0     H69595  10.212   2.570   9.914 -3.0434 -1.2359  0.5578
  516MOL0     H69596  10.263   2.408   9.846 -1.4678  0.0914  2.5071
  516MOL0     H69597  10.339   2.520   9.638  1.0476 -3.2201  0.7319
  516MOL0     H69598  10.269   2.663   9.678  1.3112 -1.2761 -2.2700
  516MOL0     H69599  10.438   2.701   9.875  1.3495  1.4738 -0.6937
  516MOL0     H69600  10.477   2.529   9.851 -2.8811  0.0057 -0.4642
  516MOL0     H69601  10.577   2.585   9.633 -2.5740  0.1752 -1.9605
  516MOL0     H69602  10.519   2.752   9.648  2.3118 -0.0515 -1.7299
  516MOL0     H69603  10.695   2.751   9.851  2.2813  3.0281 -2.0162
  516MOL0     H69604  10.730   2.586   9.821  0.9628 -0.4754 -0.1990
  516MOL0     H69605  10.813   2.664   9.583 -0.2458 -0.1383  1.0184
  516MOL0     H69606  10.776   2.833   9.628 -1.7821  0.2796  0.7426
  516MOL0     H69607  10.998   2.836   9.670 -0.6388  1.8017  1.4756
  516MOL0     H69608  10.933   2.780   9.823 -1.6930 -1.1651 -0.2885
  516MOL0     H69609  11.050   2.598   9.604  0.8662  2.1839 -1.1042
  516MOL0     H69610  10.983   2.537   9.753 -1.2662 -0.4377 -2.3057
  516MOL0     H69611  11.239   2.844   9.777  2.2108 -0.6904 -2.5252
  516MOL0     H69612  11.494   2.847   9.861  0.7854 -0.9174 -0.9277
  516MOL0     H69613  11.409   2.842  10.012 -0.6855 -3.7278  2.6327
  516MOL0     H69614  11.550   2.615  10.051 -1.3014  1.8969  2.5881
  516MOL0     H69615  11.632   2.770  10.059 -1.8389  1.1856 -0.3814
  516MOL0     H69616  11.770   2.634   9.941  1.3795 -3.0200 -4.8029
  516MOL0     H69617  11.700   2.751   9.819  0.0460  0.2994 -1.7648
  516MOL0     H69618  11.721   2.533   9.723 -0.5288 -0.4440 -0.0671
  516MOL0     H69619  11.543   2.549   9.763 -0.5049  2.1796  0.7435
  516MOL0     H69620  11.540   2.306   9.649 -1.1607 -0.1286 -0.9624
  516MOL0     H69621  11.611   2.019   9.482 -1.0846 -3.0096  0.1817
  516MOL0     H69622  11.461   2.013   9.587  1.1463  0.7342  0.6284
  516MOL0     H69623  11.502   2.155   9.504 -2.9762 -1.4450  0.0504
  516MOL0     H69624  11.732   1.563   9.863 -0.8761  1.4129  0.2812
  516MOL0     H69625  11.890   1.381   9.785 -1.3375 -0.3193 -2.9128
  516MOL0     H69626  12.028   1.243   9.687 -1.4650 -0.1908  0.0403
  516MOL0     H69627  11.989   1.335   9.537 -1.1097 -1.4421  1.6530
  516MOL0     H69628  12.208   1.263   9.445 -0.4583  1.2597  1.7488
  516MOL0     H69629  12.259   1.208   9.591  1.0114 -0.3958 -2.1855
  516MOL0     H69630  12.012   1.099   9.437 -0.8492 -1.2396  2.9313
  516MOL0     H69631  12.086   1.016   9.572  4.2811 -3.9253 -1.0835
  516MOL0     H69632  12.217   1.065   9.304  1.6121  0.9048  0.8531
  516MOL0     H69633  12.298   0.974   9.421  1.2374  3.0988 -2.3911
  516MOL0     H69634  12.025   0.873   9.381  1.2005 -0.5560  1.0490
  516MOL0     H69635  12.168   0.786   9.409 -1.4412 -1.0661  1.4061
  516MOL0     H69636  12.050   0.788   9.154 -0.8718  0.0262 -0.6334
  516MOL0     H69637  12.141   0.931   9.140 -2.0384 -0.1293 -1.1199
  516MOL0     H69638  12.270   0.658   9.219  0.6053  0.1624  1.4005
  516MOL0     H69639  12.344   0.820   9.213 -1.7395  1.5403  0.4026
  516MOL0     H69640  12.402   0.772   9.016 -0.3338 -2.0914  1.3549
  516MOL0     H69641  12.237   0.837   8.979 -2.5887 -0.5053  2.0049
  516MOL0     H69642  12.157   1.670   9.632  0.4588 -0.7000  0.0264
  516MOL0     H69643  12.014   1.858   9.702 -0.1989  0.3246 -2.9034
  516MOL0     H69644  11.834   2.026   9.919  1.6612  2.9538  1.4609
  516MOL0     H69645  11.792   2.254   9.986  0.4838 -0.3905 -0.5860
  516MOL0     H69646  10.022   2.651   9.979 -0.7367  2.3832  0.6853
  516MOL0     H69647   9.849   2.838   9.965 -1.2282 -3.0406  2.3789
  516MOL0     H69648   9.381   3.043   9.660 -1.2049  2.4550 -0.8825
  516MOL0     H69649   9.289   3.246   9.723 -0.3213 -0.6477  0.8362
  516MOL0     H69650   9.223   3.459   9.739  2.4765 -2.4204 -2.4235
  516MOL0     H69651   9.279   3.613   9.813  1.9645  1.4548 -0.7313
  516MOL0     H69652   9.280   3.603   9.582  0.1781 -1.6532 -2.0037
  516MOL0     H69653   9.417   3.488   9.566  0.6234 -1.1690  0.4662
  516MOL0     H69654   9.578   3.631   9.697 -1.6244 -2.7581  0.3630
  516MOL0     H69655   9.441   3.746   9.733  2.0890  2.7037 -1.7023
  516MOL0     H69656   9.562   3.705   9.461 -0.3357  1.2719 -0.0195
  516MOL0     H69657   9.590   3.842   9.569  0.1945  2.6001 -1.2714
  516MOL0     H69658   9.236   4.004   9.448  0.7985  1.4765  0.9294
  516MOL0     H69659   9.658   3.402   9.846  1.0155 -3.0118  3.6781
  516MOL0     H69660   9.774   3.196   9.765 -0.5585 -0.7876  2.5941
  517MOL0     O69661   4.417   9.808   9.821  0.4086  0.4006  0.1233
  517MOL0     C69662   4.423   9.865   9.930 -0.7578  0.6633  0.5371
  517MOL0     O69663   4.320   9.929   9.998 -0.2530 -0.7303  0.1261
  517MOL0     C69664   4.186   9.936   9.965  0.2099 -0.4016  0.8132
  517MOL0     C69665   4.108  10.040  10.019  0.2523 -0.7296 -0.1491
  517MOL0     C69666   3.979  10.076   9.986  0.2603  0.4415  0.3947
  517MOL0     C69667   3.921  10.007   9.882  0.0833 -0.0498  0.5302
  517MOL0     O69668   3.790  10.018   9.834 -1.2448 -0.0221 -0.4579
  517MOL0     C69669   3.763  10.140   9.771 -0.6936  0.1070 -0.3515
  517MOL0     C69670   3.653  10.123   9.675  0.5104  0.3291 -0.2344
  517MOL0     C69671   3.507  10.116   9.723  0.1362  0.4408 -0.3399
  517MOL0     C69672   3.455  10.249   9.787 -0.1256 -0.2898 -0.1054
  517MOL0     C69673   3.302  10.234   9.825 -0.7968 -1.4210 -0.5920
  517MOL0     C69674   3.270  10.347   9.930  0.1080  0.8072 -0.1455
  517MOL0     C69675   3.128  10.359   9.987  0.9157 -0.2049 -0.1243
  517MOL0     C69676   3.022  10.372   9.873 -1.0985  0.0624 -0.4526
  517MOL0     N69677   3.043  10.491   9.783  0.4267  0.2973 -0.3470
  517MOL0     C69678   3.126  10.511   9.681  0.1503  0.1170  0.2252
  517MOL0     C69679   3.119  10.647   9.655 -0.2484  0.0107 -0.0003
  517MOL0     C69680   3.210  10.722   9.566 -0.6479  0.2034 -0.2807
  517MOL0     C69681   3.163  10.764   9.426  1.0204 -0.1502  0.2057
  517MOL0     C69682   3.265  10.834   9.337 -0.1849 -0.5141 -0.0875
  517MOL0     C69683   3.397  10.764   9.326  0.4830 -0.1846  0.1024
  517MOL0     O69684   3.475  10.845   9.244 -1.3779  0.0855 -0.3809
  517MOL0     C69685   3.594  10.796   9.205 -0.6258 -0.2112  0.0344
  517MOL0     C69686   3.644  10.839   9.092 -1.0325 -0.5059  0.0878
  517MOL0     C69687   3.777  10.834   9.051 -0.2534  0.0680 -0.1650
  517MOL0     C69688   3.829  10.924   8.939  0.0757  0.0830 -0.9621
  517MOL0     C69689   3.875  10.770   9.137 -0.5963  0.2151  0.3578
  517MOL0     C69690   4.018  10.744   9.117  0.4443 -0.8941  0.3692
  517MOL0     O69691   4.081  10.688   9.219 -0.1602  0.4790  0.3464
  517MOL0     C69692   4.219  10.681   9.211  0.0102 -0.6474 -0.1730
  517MOL0     C69693   4.283  10.554   9.212  0.4319 -1.0408  0.0612
  517MOL0     C69694   4.426  10.555   9.228 -0.5521 -0.0284 -0.8800
  517MOL0     C69695   4.504  10.675   9.219  0.6705  0.7762 -0.4903
  517MOL0     O69696   4.639  10.656   9.230 -0.1653  0.5065  1.3568
  517MOL0     C69697   4.727  10.744   9.286  0.1944 -0.7233  0.5334
  517MOL0     C69698   4.881  10.706   9.278  0.5981  0.0561  0.2197
  517MOL0     C69699   4.901  10.576   9.352  0.1933  0.6545  0.6822
  517MOL0     C69700   5.037  10.522   9.327 -0.0549 -0.4085 -0.0758
  517MOL0     C69701   5.037  10.425   9.209  0.0512  0.0050  0.1525
  517MOL0     C69702   5.025  10.277   9.227 -0.5462 -0.2687 -0.1286
  517MOL0     C69703   5.154  10.225   9.307 -1.5993  0.2977  0.2658
  517MOL0     C69704   5.168  10.073   9.322  0.1862  0.5906  0.0991
  517MOL0    Cl69705   5.010  10.030   9.390 -0.6530  0.0794 -0.1182
  517MOL0     C69706   4.434  10.798   9.208  0.3805  0.4320 -0.3982
  517MOL0     C69707   4.298  10.799   9.213 -0.4539 -0.4332  0.4740
  517MOL0     O69708   4.072  10.760   9.007 -0.4688  0.7004 -0.1646
  517MOL0     C69709   3.812  10.730   9.261 -1.2895 -1.3562 -0.1109
  517MOL0     C69710   3.683  10.748   9.292 -0.2052  0.5426 -0.8171
  517MOL0     N69711   3.025  10.706   9.741  0.0007  0.5127  0.6551
  517MOL0     N69712   2.986  10.607   9.815 -0.3378 -0.4524 -0.3345
  517MOL0     C69713   3.991   9.901   9.816  0.5852  1.1923 -0.1118
  517MOL0     C69714   4.119   9.863   9.864 -0.3004 -0.0682 -0.2023
  517MOL0     C69715   4.560   9.895   9.993  1.0212  0.6641  0.1664
  517MOL0     C69716   4.676   9.895   9.916 -0.1035 -0.3322 -0.6820
  517MOL0     C69717   4.798   9.902   9.981 -0.4388  0.3757 -0.5018
  517MOL0     C69718   4.818   9.903  10.117 -0.9082 -0.5298  0.2899
  517MOL0     O69719   4.945   9.905  10.166  0.0607  0.1790 -0.1902
  517MOL0     C69720   4.960   9.867  10.307  0.0659  0.0492 -0.2296
  517MOL0     C69721   5.117   9.862  10.363  1.2213 -0.1334 -0.9313
  517MOL0     C69722   5.119   9.906  10.512 -0.0020  1.2192  0.1191
  517MOL0     C69723   5.210  10.031  10.546  0.1569  0.3899 -0.8239
  517MOL0     C69724   5.228  10.070  10.686  0.1455  0.2604  0.0199
  517MOL0     C69725   5.232  10.109  10.806  0.2329 -0.2760 -0.0757
  517MOL0     C69726   4.699   9.910  10.195  0.4429 -0.7927  0.4628
  517MOL0     C69727   4.572   9.905  10.134  0.0092 -0.3521 -0.4247
  517MOL0     H69728   4.165  10.106  10.084  1.7567 -2.0825 -0.0086
  517MOL0     H69729   3.939  10.153  10.052  2.3774  0.2728  1.9658
  517MOL0     H69730   3.747  10.232   9.829 -1.9445  0.7478 -1.6437
  517MOL0     H69731   3.848  10.171   9.711  0.6977 -0.3280  1.3069
  517MOL0     H69732   3.674  10.205   9.606 -1.7280  1.3940  0.2449
  517MOL0     H69733   3.673  10.028   9.624 -2.3876 -0.5211  0.0437
  517MOL0     H69734   3.435  10.082   9.648 -3.1232 -2.2761  3.5510
  517MOL0     H69735   3.499  10.035   9.797 -0.1044  1.2781  0.5702
  517MOL0     H69736   3.523  10.256   9.872 -0.5613  1.5690  0.1409
  517MOL0     H69737   3.479  10.335   9.724  2.3479 -0.8120  0.0536
  517MOL0     H69738   3.231  10.257   9.745 -1.0926 -1.6298 -0.3936
  517MOL0     H69739   3.277  10.135   9.866  0.5557 -0.6602  2.3369
  517MOL0     H69740   3.330  10.329  10.019 -0.4405  1.5073  0.3831
  517MOL0     H69741   3.302  10.445   9.894  0.4181  0.4450 -0.8888
  517MOL0     H69742   3.113  10.261  10.034  0.5414 -1.0250 -1.8395
  517MOL0     H69743   3.119  10.444  10.054  0.0775 -2.8651  3.4222
  517MOL0     H69744   2.930  10.389   9.931 -0.6555  0.4196  0.1478
  517MOL0     H69745   3.008  10.278   9.819 -2.3633  0.7253 -1.3358
  517MOL0     H69746   3.184  10.433   9.633 -1.0131 -2.5417  2.8405
  517MOL0     H69747   3.253  10.808   9.617 -2.5195  1.0037  0.0198
  517MOL0     H69748   3.289  10.651   9.538 -0.0999  1.1276 -1.1296
  517MOL0     H69749   3.072  10.823   9.434  0.1617 -1.6947  2.5458
  517MOL0     H69750   3.124  10.672   9.382 -0.6433 -0.7044  2.7013
  517MOL0     H69751   3.278  10.940   9.364 -1.9743 -0.2936  0.0531
  517MOL0     H69752   3.226  10.837   9.235  0.9240  2.0012 -0.5191
  517MOL0     H69753   3.375  10.660   9.298  0.4549 -0.1766  0.0956
  517MOL0     H69754   3.440  10.761   9.427  0.7351  1.2807  0.0620
  517MOL0     H69755   3.582  10.906   9.034  0.1381  0.8921  0.3714
  517MOL0     H69756   3.755  11.003   8.920 -1.3377 -0.0768  2.8171
  517MOL0     H69757   3.925  10.971   8.962 -0.1022 -0.0533  0.1109
  517MOL0     H69758   3.850  10.857   8.856  3.3989 -0.1001 -0.1137
  517MOL0     H69759   4.230  10.461   9.197 -0.4253 -0.1093 -4.1864
  517MOL0     H69760   4.467  10.454   9.231 -1.7507 -0.5556 -1.2983
  517MOL0     H69761   4.704  10.834   9.229 -2.7072 -2.5299 -1.3988
  517MOL0     H69762   4.709  10.763   9.392  1.5146 -3.6932  1.3954
  517MOL0     H69763   4.906  10.706   9.171  1.3582  1.6283  0.3623
  517MOL0     H69764   4.937  10.786   9.327  0.4314 -0.0482  0.5853
  517MOL0     H69765   4.818  10.504   9.347  0.7446  0.0855 -1.3350
  517MOL0     H69766   4.899  10.598   9.459 -0.2467  2.4763  0.3381
  517MOL0     H69767   5.102  10.609   9.312 -0.1777  0.2314  2.5004
  517MOL0     H69768   5.075  10.472   9.417  2.2946 -1.5461 -1.6201
  517MOL0     H69769   5.133  10.438   9.160 -0.0063 -1.3538 -0.3735
  517MOL0     H69770   4.965  10.458   9.134  1.6913 -0.2776 -1.5957
  517MOL0     H69771   4.938  10.266   9.293 -0.7290  3.4423  0.4193
  517MOL0     H69772   5.013  10.230   9.128  1.4128 -0.3707 -0.3569
  517MOL0     H69773   5.153  10.259   9.411  0.4026 -1.1725  0.8115
  517MOL0     H69774   5.243  10.266   9.258 -0.4751 -2.3280 -0.0279
  517MOL0     H69775   5.252  10.049   9.387  0.7808 -0.3892 -0.9958
  517MOL0     H69776   5.192  10.025   9.227  0.3775 -2.1842  1.4659
  517MOL0     H69777   4.487  10.892   9.196  0.8716  0.0579 -1.3218
  517MOL0     H69778   4.247  10.894   9.206  1.7788  1.0502  2.6541
  517MOL0     H69779   3.878  10.689   9.337 -0.2825 -0.4854 -0.5066
  517MOL0     H69780   3.664  10.714   9.393 -0.5766 -0.0635 -1.0895
  517MOL0     H69781   3.949   9.847   9.731  1.7921  0.9922 -0.6062
  517MOL0     H69782   4.169   9.781   9.814  0.6009  2.1307 -3.1736
  517MOL0     H69783   4.678   9.867   9.811  3.2366 -3.7749  0.0506
  517MOL0     H69784   4.881   9.889   9.913 -0.7046 -0.2521 -0.7155
  517MOL0     H69785   4.904   9.937  10.369  0.3459  0.6085 -0.6084
  517MOL0     H69786   4.910   9.771  10.325 -1.3864  0.9757  0.8553
  517MOL0     H69787   5.181   9.932  10.309  3.9385 -1.9853 -0.3201
  517MOL0     H69788   5.159   9.761  10.353  1.2379 -0.1868 -0.3295
  517MOL0     H69789   5.152   9.823  10.576 -3.1041 -1.1682 -1.1063
  517MOL0     H69790   5.023   9.922  10.562 -1.7106 -2.4511 -1.5537
  517MOL0     H69791   5.159  10.117  10.503  1.1285  1.1582 -0.4921
  517MOL0     H69792   5.310  10.024  10.502  0.6169  3.0558 -0.3443
  517MOL0     H69793   5.217  10.121  10.912  0.3658 -2.9857  0.3302
  517MOL0     H69794   4.712   9.913  10.302  0.4171  0.0025  0.4520
  517MOL0     H69795   4.481   9.903  10.193 -2.3033  2.5307 -3.5429
  518MOL0     O69796   3.411  11.423   7.594 -0.0317  0.6208  0.4172
  518MOL0     C69797   3.318  11.351   7.569  0.6680  0.8407 -0.7249
  518MOL0     O69798   3.282  11.311   7.444  0.0155 -0.7760 -0.2006
  518MOL0     C69799   3.326  11.393   7.338  0.2204  0.2109 -1.5373
  518MOL0     C69800   3.279  11.526   7.327  0.2072  0.6753  0.3152
  518MOL0     C69801   3.333  11.603   7.226 -0.1496 -0.3210 -1.0691
  518MOL0     C69802   3.444  11.561   7.151  0.4462  0.5081  0.1528
  518MOL0     O69803   3.518  11.638   7.060 -0.7610 -1.0248 -0.1708
  518MOL0     C69804   3.466  11.767   7.035  0.3863  0.3123  1.0619
  518MOL0     C69805   3.549  11.854   6.936 -0.0455 -0.8892  0.3061
  518MOL0     C69806   3.693  11.872   6.984  0.0654  0.1233  0.1722
  518MOL0     C69807   3.774  11.949   6.883  0.3845  0.3250 -0.8155
  518MOL0     C69808   3.905  11.978   6.955  0.8306  0.9831 -0.1744
  518MOL0     C69809   3.989  12.078   6.880  0.7098  0.0497 -0.1494
  518MOL0     C69810   3.934  12.218   6.881 -0.7818 -0.2974  1.0971
  518MOL0     C69811   4.045  12.319   6.826  0.0784 -0.2625 -0.6365
  518MOL0     N69812   4.163  12.342   6.918 -0.0624 -1.2349 -0.2168
  518MOL0     C69813   4.171  12.431   7.025 -0.3896  0.1294  0.4559
  518MOL0     C69814   4.303  12.420   7.064 -0.2146 -0.6197 -0.2166
  518MOL0     C69815   4.375  12.522   7.141 -0.0726 -0.2746 -0.2039
  518MOL0     C69816   4.280  12.636   7.184 -0.6867 -0.7136 -0.1357
  518MOL0     C69817   4.356  12.737   7.267  0.1612 -0.9048 -0.1488
  518MOL0     C69818   4.272  12.847   7.326  0.1054 -0.2645  0.0417
  518MOL0     O69819   4.154  12.811   7.399  0.3104 -0.2836  0.0229
  518MOL0     C69820   4.182  12.742   7.515  0.2804 -0.5132 -0.6187
  518MOL0     C69821   4.305  12.726   7.570 -0.3114 -0.2639  0.6113
  518MOL0     C69822   4.327  12.632   7.670  0.3504 -1.0592  0.3740
  518MOL0     C69823   4.459  12.637   7.747 -0.8458  0.1794  0.6504
  518MOL0     C69824   4.217  12.554   7.711 -0.1654 -1.2540 -0.9863
  518MOL0     C69825   4.228  12.459   7.829  0.7340  0.1987  0.3715
  518MOL0     O69826   4.114  12.448   7.890  0.3432  0.2221 -0.1079
  518MOL0     C69827   4.082  12.363   7.993 -0.0621  0.6943 -0.6975
  518MOL0     C69828   3.959  12.391   8.056 -0.1430 -1.5075 -1.2343
  518MOL0     C69829   3.917  12.326   8.176  0.0162  0.7779  0.2326
  518MOL0     C69830   3.986  12.210   8.217  0.2071 -0.2822  0.6246
  518MOL0     O69831   3.927  12.146   8.320  0.2222  0.6304 -1.1793
  518MOL0     C69832   3.974  12.188   8.446 -1.0661 -0.0324  0.3001
  518MOL0     C69833   3.935  12.108   8.572 -0.1885 -0.5753 -0.4207
  518MOL0     C69834   3.790  12.109   8.609  0.3415  0.2137 -0.2042
  518MOL0     C69835   3.698  12.007   8.550 -0.6405 -0.1145 -0.8435
  518MOL0     C69836   3.555  12.065   8.539 -0.2670  0.3666  0.1514
  518MOL0     C69837   3.465  11.943   8.511 -0.0469 -0.8386 -1.0827
  518MOL0     C69838   3.439  11.900   8.364  0.1247  0.2165  0.6720
  518MOL0     C69839   3.347  11.783   8.363  0.0466  0.1442 -0.7015
  518MOL0    Cl69840   3.272  11.758   8.205  0.1895  0.1751  0.5014
  518MOL0     C69841   4.102  12.172   8.150  0.4982 -0.7706  0.6509
  518MOL0     C69842   4.156  12.251   8.043 -0.2662 -0.2902  0.3410
  518MOL0     O69843   4.329  12.390   7.850  0.3232  0.5835  0.2678
  518MOL0     C69844   4.087  12.567   7.656 -0.5388 -0.8468 -0.7132
  518MOL0     C69845   4.069  12.664   7.561 -0.3379 -0.6329 -0.5376
  518MOL0     N69846   4.372  12.337   6.974 -0.3435  0.2654 -0.4434
  518MOL0     N69847   4.289  12.295   6.890  0.6879 -0.6901 -0.2645
  518MOL0     C69848   3.498  11.432   7.173  0.1358  0.2190 -0.0530
  518MOL0     C69849   3.432  11.345   7.263  0.7441 -0.7658  0.0240
  518MOL0     C69850   3.260  11.281   7.691  0.5136  1.5214  0.5336
  518MOL0     C69851   3.151  11.197   7.693  0.3450 -0.5740  0.2745
  518MOL0     C69852   3.100  11.152   7.814  0.5542  0.2281 -0.9751
  518MOL0     C69853   3.165  11.175   7.939  0.0233 -0.3553 -0.0010
  518MOL0     O69854   3.123  11.128   8.061  0.0288 -0.0569  0.4176
  518MOL0     C69855   3.013  11.039   8.071 -0.0328 -0.4010  0.3451
  518MOL0     C69856   3.003  10.961   8.201 -0.8868 -0.6210  0.8883
  518MOL0     C69857   2.907  10.848   8.205 -0.1008  0.7160  0.4845
  518MOL0     C69858   2.757  10.891   8.215 -0.1074 -0.2568 -0.7046
  518MOL0     C69859   2.693  10.927   8.087  0.5895  0.0108  0.2319
  518MOL0     C69860   2.616  10.953   7.993  0.8274  1.0768 -0.0717
  518MOL0     C69861   3.272  11.251   7.933 -0.5550 -0.7939  0.0056
  518MOL0     C69862   3.318  11.307   7.820  0.7768 -1.0648  0.4401
  518MOL0     H69863   3.201  11.555   7.397  0.2425  1.2443  0.1244
  518MOL0     H69864   3.300  11.707   7.221  0.7762  0.0134 -0.5263
  518MOL0     H69865   3.364  11.754   6.999  0.5343  0.2198  0.6696
  518MOL0     H69866   3.456  11.817   7.132  1.9433  1.6146  0.5955
  518MOL0     H69867   3.556  11.803   6.839 -1.1353 -1.7256  0.6391
  518MOL0     H69868   3.499  11.950   6.919  0.3667 -0.6993  0.1768
  518MOL0     H69869   3.696  11.903   7.088 -1.3120 -1.9914  0.9179
  518MOL0     H69870   3.727  11.768   6.981  0.2815  0.1991 -0.0168
  518MOL0     H69871   3.789  11.890   6.792 -1.8120  1.7517 -2.1842
  518MOL0     H69872   3.708  12.032   6.856 -1.7083 -0.8760  0.3038
  518MOL0     H69873   3.889  12.013   7.057 -2.2427 -1.4082  0.3025
  518MOL0     H69874   3.963  11.885   6.949  0.1911  0.5582  0.2220
  518MOL0     H69875   4.092  12.071   6.917  1.9186 -1.9592 -3.4562
  518MOL0     H69876   4.004  12.053   6.775 -1.7424 -0.5367 -0.4227
  518MOL0     H69877   3.860  12.230   6.801  1.8008  3.5575 -1.0214
  518MOL0     H69878   3.887  12.247   6.975  1.0505 -0.2524  2.0287
  518MOL0     H69879   3.999  12.413   6.797  0.9251 -0.3001 -2.2430
  518MOL0     H69880   4.093  12.294   6.730 -1.3429 -4.7785 -0.3939
  518MOL0     H69881   4.101  12.500   7.072  0.0867  0.2656  0.9684
  518MOL0     H69882   4.434  12.482   7.225 -1.4736 -1.6036  0.1796
  518MOL0     H69883   4.448  12.562   7.070  0.6698 -3.0189 -1.0876
  518MOL0     H69884   4.201  12.590   7.243  1.7962 -1.5264  2.8164
  518MOL0     H69885   4.237  12.685   7.096 -1.0406 -0.5492  0.1248
  518MOL0     H69886   4.427  12.787   7.199 -2.6879  1.3342 -1.7083
  518MOL0     H69887   4.412  12.704   7.355  2.0948 -0.0969 -1.0130
  518MOL0     H69888   4.246  12.917   7.246  2.2155  1.4055  0.7154
  518MOL0     H69889   4.330  12.913   7.391 -0.6494 -0.2231  0.6861
  518MOL0     H69890   4.383  12.796   7.543  0.1242 -0.3743  1.5681
  518MOL0     H69891   4.534  12.709   7.714  0.8474  0.0638  3.7946
  518MOL0     H69892   4.449  12.671   7.851  2.1765 -0.2595  1.1810
  518MOL0     H69893   4.497  12.535   7.738 -1.2708  0.2190 -2.9795
  518MOL0     H69894   3.895  12.470   8.019 -1.5196 -2.4858 -0.9903
  518MOL0     H69895   3.820  12.344   8.222 -0.2284 -0.0736  0.0809
  518MOL0     H69896   4.083  12.185   8.443 -1.0134  1.7495 -1.2225
  518MOL0     H69897   3.946  12.293   8.459 -3.3730 -0.7875  2.3336
  518MOL0     H69898   3.968  12.003   8.563 -2.3760 -1.1309 -5.7775
  518MOL0     H69899   3.995  12.142   8.656  2.4761 -1.2191 -1.9290
  518MOL0     H69900   3.754  12.212   8.603  1.6265  0.7154  0.2977
  518MOL0     H69901   3.784  12.090   8.716 -1.2314  3.0004  0.2760
  518MOL0     H69902   3.744  11.978   8.455  1.3227 -1.1656  0.3575
  518MOL0     H69903   3.706  11.917   8.612  0.2054 -0.2809 -1.1856
  518MOL0     H69904   3.546  12.133   8.454 -1.5075 -0.7512 -0.6649
  518MOL0     H69905   3.523  12.121   8.627 -0.4178  4.1360 -2.1086
  518MOL0     H69906   3.498  11.866   8.581  0.9820  1.5643  1.2323
  518MOL0     H69907   3.361  11.964   8.539 -1.2431 -0.8083 -4.8561
  518MOL0     H69908   3.527  11.874   8.306 -2.2763 -2.5668 -2.0737
  518MOL0     H69909   3.387  11.981   8.312 -1.0868  0.1104  1.6606
  518MOL0     H69910   3.269  11.795   8.438  1.4670 -0.7501  0.9911
  518MOL0     H69911   3.402  11.693   8.394  1.6520  1.1487 -0.5262
  518MOL0     H69912   4.149  12.081   8.184  0.1316 -1.3674 -0.3929
  518MOL0     H69913   4.248  12.221   7.993 -0.2661  0.5344 -0.1795
  518MOL0     H69914   4.005  12.501   7.682 -2.3329  1.0401 -1.3167
  518MOL0     H69915   3.976  12.656   7.505 -0.2924 -0.2131 -0.6737
  518MOL0     H69916   3.586  11.402   7.117 -0.7581  1.9427 -2.5682
  518MOL0     H69917   3.459  11.241   7.279  0.4361 -0.9232 -0.4735
  518MOL0     H69918   3.106  11.164   7.599  1.2722 -1.2210  0.0438
  518MOL0     H69919   3.009  11.092   7.807  0.1024  0.5722  1.1150
  518MOL0     H69920   2.921  11.096   8.059 -0.8244 -1.4276  1.4085
  518MOL0     H69921   3.033  10.969   7.990 -0.1650 -0.7536  0.6185
  518MOL0     H69922   2.993  11.036   8.280 -0.1605 -0.2529  0.6422
  518MOL0     H69923   3.104  10.923   8.221  0.0939  2.5270  2.5511
  518MOL0     H69924   2.924  10.804   8.304  1.8594  0.9467  0.2769
  518MOL0     H69925   2.931  10.780   8.123  0.4279  0.0870  1.1392
  518MOL0     H69926   2.754  10.981   8.278  3.3053  0.7923 -1.8188
  518MOL0     H69927   2.714  10.811   8.276 -0.8094 -0.4931 -1.4946
  518MOL0     H69928   2.542  10.950   7.915 -0.2074  2.9040  0.7670
  518MOL0     H69929   3.319  11.278   8.027 -0.1899 -0.5905 -0.2329
  518MOL0     H69930   3.397  11.381   7.831  0.8863 -0.7801 -1.8269
  519MOL0     O69931   2.411  10.966  10.208 -0.2058 -0.3976 -0.0639
  519MOL0     C69932   2.490  11.037  10.272  0.5687  0.3496  0.5586
  519MOL0     O69933   2.453  11.138  10.357  0.2739 -0.4264  1.0319
  519MOL0     C69934   2.332  11.207  10.345 -0.3998  0.4585  0.5659
  519MOL0     C69935   2.295  11.266  10.467 -0.1851  0.0577  0.2231
  519MOL0     C69936   2.175  11.342  10.483 -0.1604 -0.3638  0.4618
  519MOL0     C69937   2.094  11.356  10.368  0.2211 -0.3744  1.0793
  519MOL0     O69938   1.969  11.412  10.361 -0.8625 -0.0496 -0.4640
  519MOL0     C69939   1.939  11.534  10.437 -0.8613 -0.2726 -0.1465
  519MOL0     C69940   1.784  11.526  10.467 -0.1893 -1.0797  0.0390
  519MOL0     C69941   1.692  11.547  10.340  0.0875 -0.3373  0.1901
  519MOL0     C69942   1.706  11.693  10.306  0.0896  0.2461 -0.7834
  519MOL0     C69943   1.598  11.741  10.202  0.0641  0.5119 -0.4386
  519MOL0     C69944   1.461  11.721  10.263  0.2298  0.4652 -0.3858
  519MOL0     C69945   1.348  11.805  10.200 -0.1215  1.5172  0.2554
  519MOL0     C69946   1.209  11.757  10.249  0.0300 -0.6168  0.3709
  519MOL0     N69947   1.108  11.838  10.181  0.1929  1.1809  0.5512
  519MOL0     C69948   1.053  11.959  10.229 -0.2233 -0.1248  0.1349
  519MOL0     C69949   0.963  11.992  10.132  0.2248 -0.3801 -0.0345
  519MOL0     C69950   0.880  12.118  10.110  0.2486  0.5237  0.0179
  519MOL0     C69951   0.959  12.240  10.093 -0.2007  0.3310 -0.9035
  519MOL0     C69952   1.066  12.248   9.984  0.5101  0.7013  0.6109
  519MOL0     C69953   1.202  12.213  10.028  1.2793  0.5418  0.9365
  519MOL0     O69954   1.264  12.322  10.090 -0.4488 -0.3625  0.9608
  519MOL0     C69955   1.387  12.310  10.144 -0.7350 -0.8475 -0.5515
  519MOL0     C69956   1.446  12.428  10.187  0.0257  0.0215 -0.1193
  519MOL0     C69957   1.569  12.430  10.249  0.1508  0.0109  0.6005
  519MOL0     C69958   1.628  12.562  10.279 -0.1856 -0.6817 -0.0325
  519MOL0     C69959   1.643  12.309  10.262 -0.1696  0.2735  0.2987
  519MOL0     C69960   1.787  12.306  10.301  0.5974  0.2134  0.4474
  519MOL0     O69961   1.876  12.242  10.223 -0.0798 -1.4220 -0.2849
  519MOL0     C69962   2.001  12.222  10.274 -0.0117  0.1817 -0.9150
  519MOL0     C69963   2.097  12.324  10.298  0.0364 -0.5576 -1.1985
  519MOL0     C69964   2.225  12.300  10.355 -0.0372  0.4077  0.0708
  519MOL0     C69965   2.264  12.160  10.375 -0.3461 -0.0865 -0.1588
  519MOL0     O69966   2.375  12.105  10.428  0.2794 -0.2934 -0.3168
  519MOL0     C69967   2.455  12.187  10.514 -0.7770 -0.1354 -0.0871
  519MOL0     C69968   2.572  12.254  10.437 -0.3408 -0.4531  0.0109
  519MOL0     C69969   2.701  12.178  10.450 -2.2858 -0.7925  0.2298
  519MOL0     C69970   2.805  12.259  10.542 -0.5923  0.0460 -0.5576
  519MOL0     C69971   2.774  12.214  10.678 -0.4458 -0.8323 -1.2594
  519MOL0     C69972   2.884  12.238  10.785  0.0025 -1.1578  0.4632
  519MOL0     C69973   2.897  12.374  10.860 -0.0155  0.5064  0.6653
  519MOL0     C69974   2.900  12.492  10.768 -0.3313 -0.1202 -0.0205
  519MOL0    Cl69975   3.045  12.518  10.652  0.2570 -0.3650  0.5414
  519MOL0     C69976   2.175  12.062  10.347  0.4963  0.2122 -0.1469
  519MOL0     C69977   2.050  12.090  10.294  0.1528 -0.4208 -0.2202
  519MOL0     O69978   1.810  12.359  10.410 -0.5089  0.0356 -0.1824
  519MOL0     C69979   1.586  12.190  10.203  0.5353 -0.4664 -0.8142
  519MOL0     C69980   1.454  12.186  10.150  0.4316 -0.4297  0.5588
  519MOL0     N69981   0.950  11.885  10.038 -0.2629 -0.7975  0.2091
  519MOL0     N69982   1.039  11.788  10.069 -0.2973 -0.4068  0.5266
  519MOL0     C69983   2.137  11.303  10.244 -0.4464 -0.4854 -0.2147
  519MOL0     C69984   2.253  11.227  10.227  0.5608  0.3880 -0.2426
  519MOL0     C69985   2.629  11.011  10.248  0.3169  0.3971  0.8092
  519MOL0     C69986   2.724  11.053  10.343  0.2309 -0.1807  0.7222
  519MOL0     C69987   2.858  11.017  10.329  0.0753 -0.6488  0.3428
  519MOL0     C69988   2.899  10.921  10.233  0.6023 -0.6663  0.4951
  519MOL0     O69989   3.031  10.915  10.219  0.3415 -0.3139  0.8954
  519MOL0     C69990   3.087  10.832  10.113  0.6439  0.7091 -0.1186
  519MOL0     C69991   3.227  10.828  10.143 -0.7240  0.0897 -0.8445
  519MOL0     C69992   3.303  10.717  10.062  0.5564  0.2639  0.7709
  519MOL0     C69993   3.328  10.771   9.918  0.9096 -0.7481  0.3656
  519MOL0     C69994   3.418  10.696   9.835 -0.8598  0.3988 -0.7688
  519MOL0     C69995   3.501  10.638   9.778 -0.1934  0.6832  0.1277
  519MOL0     C69996   2.802  10.884  10.134 -0.0291  0.1595  0.1322
  519MOL0     C69997   2.667  10.919  10.142  0.1409 -0.6991 -0.2203
  519MOL0     H69998   2.371  11.247  10.542  0.6022 -0.1722 -0.6247
  519MOL0     H69999   2.131  11.364  10.579  1.1967 -0.1820  1.0624
  519MOL0     H70000   1.992  11.529  10.533 -1.1098  0.0746  0.0121
  519MOL0     H70001   1.976  11.626  10.391  2.2429 -0.3428  1.8844
  519MOL0     H70002   1.761  11.442  10.532 -0.1837  1.1320  3.1122
  519MOL0     H70003   1.769  11.614  10.530 -1.5217 -1.2660  0.0076
  519MOL0     H70004   1.710  11.481  10.255 -1.2024 -0.1502 -0.2482
  519MOL0     H70005   1.590  11.525  10.374  0.3026  0.6980  1.6175
  519MOL0     H70006   1.708  11.759  10.393 -2.5533 -0.4845 -0.0795
  519MOL0     H70007   1.809  11.712  10.273  0.8014 -0.1277  1.1053
  519MOL0     H70008   1.619  11.847  10.182  0.8758  0.2857 -0.8332
  519MOL0     H70009   1.610  11.684  10.110 -2.2896  0.5216 -0.8268
  519MOL0     H70010   1.434  11.618  10.238  0.3544 -0.2204  2.0363
  519MOL0     H70011   1.453  11.734  10.371  1.6959 -0.5670 -0.1217
  519MOL0     H70012   1.373  11.906  10.234 -0.5963  1.5862  0.4013
  519MOL0     H70013   1.351  11.807  10.091 -1.6565  0.3045  0.1454
  519MOL0     H70014   1.196  11.788  10.353 -1.0446 -0.5694  0.2338
  519MOL0     H70015   1.200  11.648  10.245  2.2350 -0.8461  0.5394
  519MOL0     H70016   1.068  12.000  10.328 -0.9974  0.7493 -0.0922
  519MOL0     H70017   0.811  12.111  10.026 -2.0473  0.0516  1.8237
  519MOL0     H70018   0.829  12.128  10.206  3.7362  1.1849  1.9575
  519MOL0     H70019   1.004  12.255  10.192 -3.8788  2.2795  0.6724
  519MOL0     H70020   0.887  12.321  10.083 -0.8123  0.0234  0.6179
  519MOL0     H70021   1.066  12.350   9.944  0.0413  2.3257  4.3422
  519MOL0     H70022   1.033  12.183   9.903  0.5430  1.8457 -0.3512
  519MOL0     H70023   1.266  12.200   9.940  0.4058  0.1173  0.3542
  519MOL0     H70024   1.194  12.123  10.089  0.7564  1.3936  2.1700
  519MOL0     H70025   1.392  12.521  10.172 -1.4062 -0.5727  1.1756
  519MOL0     H70026   1.721  12.574  10.223 -0.3092 -1.4645 -0.4102
  519MOL0     H70027   1.563  12.646  10.250 -0.0012 -0.6216 -0.2714
  519MOL0     H70028   1.668  12.566  10.381 -1.4254 -0.5533  0.4743
  519MOL0     H70029   2.074  12.429  10.280  0.7609  0.1240  1.3794
  519MOL0     H70030   2.299  12.373  10.383  1.0081 -0.6652  0.2005
  519MOL0     H70031   2.398  12.260  10.572  1.8416  2.7805 -0.8950
  519MOL0     H70032   2.501  12.131  10.597  0.1777  1.5262  0.5590
  519MOL0     H70033   2.545  12.263  10.331 -3.0014 -0.2882  0.6316
  519MOL0     H70034   2.585  12.354  10.479  0.7139 -1.5417  2.4157
  519MOL0     H70035   2.751  12.167  10.354 -0.8672 -1.9133  1.0619
  519MOL0     H70036   2.701  12.075  10.486  0.4798  0.2190  3.6873
  519MOL0     H70037   2.906  12.222  10.521 -0.0530 -0.8314  2.9000
  519MOL0     H70038   2.812  12.368  10.529  1.7627  0.1145  0.7945
  519MOL0     H70039   2.766  12.105  10.675 -2.7137 -0.7917  0.5189
  519MOL0     H70040   2.675  12.249  10.708 -0.6353 -2.2470 -0.1074
  519MOL0     H70041   2.871  12.158  10.859 -1.4264 -0.7686  0.6544
  519MOL0     H70042   2.984  12.231  10.741  0.3488 -4.8060  1.4498
  519MOL0     H70043   2.984  12.361  10.925 -0.5301 -1.0774  1.0792
  519MOL0     H70044   2.807  12.378  10.923  0.5792 -1.0770  1.6874
  519MOL0     H70045   2.895  12.578  10.835  0.1207 -0.2726  0.2121
  519MOL0     H70046   2.817  12.494  10.696  2.0735 -1.6035 -3.0732
  519MOL0     H70047   2.208  11.958  10.345 -0.1161  0.0200 -1.6233
  519MOL0     H70048   1.979  12.009  10.278  1.8446 -1.7898 -1.2209
  519MOL0     H70049   1.653  12.105  10.207  1.3558  0.2101  0.6397
  519MOL0     H70050   1.414  12.102  10.093 -0.2269  0.0594  0.2872
  519MOL0     H70051   2.073  11.325  10.159 -2.7350 -1.0302  1.2561
  519MOL0     H70052   2.279  11.191  10.128 -0.7248 -0.4815 -0.2930
  519MOL0     H70053   2.701  11.129  10.417 -0.9159 -0.1143  0.3306
  519MOL0     H70054   2.916  11.082  10.394  3.0555 -1.7096 -1.0928
  519MOL0     H70055   3.042  10.732  10.103 -0.5885  0.9559  2.2906
  519MOL0     H70056   3.073  10.870  10.011  1.6436  0.3950 -0.3877
  519MOL0     H70057   3.234  10.806  10.250 -1.4912  3.6288  0.0513
  519MOL0     H70058   3.269  10.928  10.131  0.3619 -0.3865 -1.1748
  519MOL0     H70059   3.251  10.622  10.050  2.0098 -0.3675 -0.9694
  519MOL0     H70060   3.401  10.702  10.106 -0.1346 -0.7826  2.0037
  519MOL0     H70061   3.368  10.871   9.937  3.5300 -1.6242 -0.1820
  519MOL0     H70062   3.233  10.781   9.865  0.6263 -1.7360  0.6723
  519MOL0     H70063   3.578  10.579   9.733 -2.7049 -2.6622 -0.1657
  519MOL0     H70064   2.832  10.832  10.043 -0.5734  1.8836 -1.0731
  519MOL0     H70065   2.602  10.871  10.070 -0.8936 -1.8275  1.4029
  520MOL0     O70066   3.097  11.069   5.617 -0.2532 -0.0432 -1.2351
  520MOL0     C70067   3.130  10.946   5.616  0.8472 -0.4281  0.3489
  520MOL0     O70068   3.121  10.866   5.723 -0.1445  0.5843  0.1328
  520MOL0     C70069   3.081  10.897   5.852  0.7953 -1.1410  0.0160
  520MOL0     C70070   3.040  10.790   5.930  0.4234 -0.1622 -0.7528
  520MOL0     C70071   2.984  10.809   6.057  0.6852 -0.6975 -0.4285
  520MOL0     C70072   2.982  10.939   6.114 -0.2875  0.2950 -0.0249
  520MOL0     O70073   2.927  10.962   6.232 -0.2974 -0.0052  0.3627
  520MOL0     C70074   2.951  10.879   6.359 -0.6479 -0.3546  0.8128
  520MOL0     C70075   2.926  10.979   6.474  0.5203 -0.2056 -0.4167
  520MOL0     C70076   3.043  11.077   6.470  0.0903  0.4228  0.4157
  520MOL0     C70077   3.030  11.198   6.574  0.5006 -0.4689 -0.8397
  520MOL0     C70078   2.968  11.320   6.488 -0.6978  0.7226 -0.4406
  520MOL0     C70079   2.917  11.423   6.583 -0.5135  0.2948  1.0545
  520MOL0     C70080   2.805  11.506   6.508  0.1711  0.5076  0.2843
  520MOL0     C70081   2.855  11.638   6.457 -0.6704 -0.3193  0.3201
  520MOL0     N70082   2.856  11.744   6.562 -0.0172 -0.3544  0.6656
  520MOL0     C70083   2.922  11.867   6.547 -0.7114  0.4258 -0.1498
  520MOL0     C70084   2.921  11.916   6.671 -0.6280  0.7503  1.0180
  520MOL0     C70085   2.977  12.041   6.718 -0.6361  0.3413  0.5667
  520MOL0     C70086   2.957  12.169   6.638 -0.6295 -0.3176  0.0372
  520MOL0     C70087   2.989  12.285   6.732  0.4860 -0.8262 -0.7092
  520MOL0     C70088   2.996  12.410   6.647  0.6618 -0.4464 -0.4908
  520MOL0     O70089   3.115  12.415   6.569 -0.4546  0.7338  0.5162
  520MOL0     C70090   3.157  12.528   6.515 -0.1621 -0.7340 -0.0681
  520MOL0     C70091   3.290  12.553   6.535 -0.4240  0.3421 -0.9769
  520MOL0     C70092   3.339  12.679   6.497  0.7876  0.7130 -1.2170
  520MOL0     C70093   3.487  12.693   6.522 -0.6620  0.8961 -0.4052
  520MOL0     C70094   3.250  12.777   6.442 -0.8405 -0.1122  0.3156
  520MOL0     C70095   3.297  12.900   6.379  0.2079 -0.8688 -0.3647
  520MOL0     O70096   3.196  12.989   6.338  0.5597  0.2538 -0.4938
  520MOL0     C70097   3.216  13.116   6.275  0.3649  0.1621  0.1095
  520MOL0     C70098   3.127  13.156   6.173 -0.2463  0.4706  0.2449
  520MOL0     C70099   3.130  13.280   6.116  0.7945  0.6693 -0.8917
  520MOL0     C70100   3.233  13.363   6.144 -0.4233  0.6847 -0.0616
  520MOL0     O70101   3.224  13.485   6.081  0.4912 -0.5195 -0.0014
  520MOL0     C70102   3.335  13.584   6.096  0.3477  0.1098 -0.0340
  520MOL0     C70103   3.329  13.690   5.983 -0.1687 -0.0885 -0.0666
  520MOL0     C70104   3.417  13.820   5.999  0.5641 -0.2807 -0.7993
  520MOL0     C70105   3.456  13.887   5.865  0.4843  0.4672 -0.4617
  520MOL0     C70106   3.512  14.030   5.877 -0.2326 -0.2111 -0.7975
  520MOL0     C70107   3.585  14.075   5.741 -0.3087  0.4500  0.1671
  520MOL0     C70108   3.686  14.191   5.773  0.9877 -1.6377 -0.0366
  520MOL0     C70109   3.616  14.321   5.793 -0.2187  0.8656 -0.3651
  520MOL0    Cl70110   3.660  14.434   5.649  0.0371 -0.8888 -0.1643
  520MOL0     C70111   3.330  13.330   6.244  0.0980  0.0479  0.0597
  520MOL0     C70112   3.319  13.207   6.315 -0.5225 -0.6850  0.8253
  520MOL0     O70113   3.421  12.927   6.366  0.0548 -0.5971  0.2447
  520MOL0     C70114   3.114  12.749   6.434 -0.1931 -0.7127  0.1525
  520MOL0     C70115   3.073  12.630   6.480  0.7414 -0.4913  0.4783
  520MOL0     N70116   2.863  11.825   6.761 -0.1395 -0.4791 -0.0731
  520MOL0     N70117   2.838  11.721   6.696 -0.0426 -0.6074 -0.5998
  520MOL0     C70118   3.022  11.042   6.033 -0.0517 -0.7567 -0.5233
  520MOL0     C70119   3.068  11.030   5.902 -0.1870  0.7319 -0.0845
  520MOL0     C70120   3.190  10.884   5.497 -0.1210 -0.8468  0.1259
  520MOL0     C70121   3.193  10.744   5.473  1.0267  0.0588  0.7750
  520MOL0     C70122   3.240  10.685   5.353 -0.4656 -0.3583  0.1253
  520MOL0     C70123   3.298  10.773   5.259  0.1704 -0.1663 -0.4497
  520MOL0     O70124   3.344  10.723   5.143  0.1097 -0.0098  0.1351
  520MOL0     C70125   3.465  10.652   5.159 -0.4467  0.1511 -0.1009
  520MOL0     C70126   3.584  10.726   5.133 -0.0297 -0.9233  0.4223
  520MOL0     C70127   3.713  10.629   5.118 -0.1779  0.6676  0.0755
  520MOL0     C70128   3.833  10.732   5.096  0.4926 -0.2528  0.1533
  520MOL0     C70129   3.958  10.658   5.132  0.3213  0.3430  0.0780
  520MOL0     C70130   4.046  10.586   5.169  0.2098 -0.6294  0.0131
  520MOL0     C70131   3.289  10.910   5.281  0.3444 -0.3536  0.3146
  520MOL0     C70132   3.245  10.966   5.394  0.4250 -0.4156 -1.0660
  520MOL0     H70133   3.026  10.689   5.892 -0.4847 -0.2676 -0.1790
  520MOL0     H70134   2.948  10.722   6.110  0.1825  0.2839  0.9065
  520MOL0     H70135   2.888  10.789   6.369  0.5862 -1.3801 -0.2752
  520MOL0     H70136   3.054  10.845   6.362 -0.9018 -2.7185 -4.5415
  520MOL0     H70137   2.830  11.023   6.447 -0.1661 -1.3385  0.1136
  520MOL0     H70138   2.906  10.939   6.573 -1.8518  2.9760  0.5552
  520MOL0     H70139   3.141  11.032   6.485  0.9089  1.4433 -1.5314
  520MOL0     H70140   3.048  11.124   6.371  3.5563  1.5047  0.9694
  520MOL0     H70141   2.986  11.168   6.670  1.1474  2.5937  0.5219
  520MOL0     H70142   3.128  11.234   6.606 -0.4949  2.9781 -1.3505
  520MOL0     H70143   3.036  11.356   6.411  1.6909 -1.5526  0.4437
  520MOL0     H70144   2.879  11.281   6.439 -0.6436 -0.2854  0.2288
  520MOL0     H70145   2.876  11.380   6.674 -3.0161  2.8174  1.2494
  520MOL0     H70146   2.996  11.496   6.604 -0.4370  0.6372 -0.2657
  520MOL0     H70147   2.746  11.452   6.434 -0.1194  0.3863  0.6026
  520MOL0     H70148   2.729  11.517   6.586  0.4968  1.3250  0.4958
  520MOL0     H70149   2.793  11.673   6.374 -0.0383 -0.1995 -0.1124
  520MOL0     H70150   2.960  11.633   6.427 -1.0594  0.3760 -1.2064
  520MOL0     H70151   2.957  11.904   6.451  1.5179  0.0601  0.4490
  520MOL0     H70152   2.931  12.061   6.816  2.2077 -0.6898  2.2283
  520MOL0     H70153   3.085  12.029   6.721 -0.8474 -3.6379 -1.6787
  520MOL0     H70154   2.856  12.185   6.600  0.2261 -1.4198 -3.0805
  520MOL0     H70155   3.033  12.158   6.560 -0.2436 -0.5050  0.4334
  520MOL0     H70156   3.082  12.269   6.787  1.2091  1.7232 -1.1062
  520MOL0     H70157   2.921  12.293   6.818  2.0600  0.0582  0.5016
  520MOL0     H70158   2.988  12.506   6.700  2.7517 -1.5787  2.1574
  520MOL0     H70159   2.901  12.416   6.593 -1.2238  0.5225  2.6329
  520MOL0     H70160   3.362  12.483   6.577  0.4933  2.2553  0.7991
  520MOL0     H70161   3.531  12.614   6.584  0.5960  0.5238 -1.7320
  520MOL0     H70162   3.542  12.695   6.427 -2.6227 -2.0297 -1.7599
  520MOL0     H70163   3.509  12.783   6.580  1.9898  1.0365 -1.4699
  520MOL0     H70164   3.047  13.084   6.161  1.2970 -1.2603 -0.1471
  520MOL0     H70165   3.062  13.314   6.038  0.8411  1.6254 -0.5296
  520MOL0     H70166   3.314  13.639   6.188 -2.1833 -0.3473 -0.2632
  520MOL0     H70167   3.435  13.540   6.104  0.2932  0.0858  0.6435
  520MOL0     H70168   3.345  13.651   5.882 -3.5910 -0.0587 -0.7577
  520MOL0     H70169   3.226  13.725   5.973 -0.4806 -0.8037  0.5283
  520MOL0     H70170   3.507  13.798   6.056 -0.2155 -0.2020  0.5104
  520MOL0     H70171   3.367  13.892   6.064  2.7347 -0.6575  1.3849
  520MOL0     H70172   3.529  13.825   5.813 -1.5098  0.7222 -3.9045
  520MOL0     H70173   3.369  13.884   5.798 -0.8057 -2.5152  1.1519
  520MOL0     H70174   3.585  14.029   5.958 -2.6720  3.2770  1.7545
  520MOL0     H70175   3.432  14.099   5.907  1.3673  0.8948  1.1820
  520MOL0     H70176   3.638  13.990   5.698 -0.2704  2.6272 -4.7184
  520MOL0     H70177   3.510  14.106   5.668 -0.6609  1.2120  0.8343
  520MOL0     H70178   3.756  14.196   5.689  0.3703  3.4669 -0.5374
  520MOL0     H70179   3.749  14.162   5.858  1.0638 -0.5574  0.2890
  520MOL0     H70180   3.660  14.364   5.883  0.5980 -3.2945  1.4511
  520MOL0     H70181   3.512  14.297   5.814  0.6366 -1.8964  1.2480
  520MOL0     H70182   3.402  13.397   6.290  2.3111 -1.3618 -1.1370
  520MOL0     H70183   3.395  13.178   6.388  3.3616  0.9982 -2.2000
  520MOL0     H70184   3.039  12.816   6.392 -1.4525 -2.5819 -0.7196
  520MOL0     H70185   2.968  12.607   6.466  0.5123  0.4419  0.5881
  520MOL0     H70186   3.022  11.141   6.077  1.9606 -0.4900 -1.0109
  520MOL0     H70187   3.088  11.122   5.848  1.8973  1.4840  1.8217
  520MOL0     H70188   3.134  10.678   5.536  1.0008 -2.2855 -1.5659
  520MOL0     H70189   3.240  10.579   5.331  2.9256 -0.8590  1.8663
  520MOL0     H70190   3.467  10.594   5.251 -1.3557 -0.8348 -0.6762
  520MOL0     H70191   3.448  10.573   5.086 -2.2457 -0.3822  0.8422
  520MOL0     H70192   3.594  10.789   5.222  0.6239 -1.4549  0.7351
  520MOL0     H70193   3.576  10.792   5.046  0.4550  1.6219  2.1934
  520MOL0     H70194   3.696  10.559   5.036  0.4956  1.2158 -0.5531
  520MOL0     H70195   3.732  10.572   5.209 -0.0770  0.6938  0.0705
  520MOL0     H70196   3.828  10.818   5.163  2.7878  0.5391 -0.5898
  520MOL0     H70197   3.833  10.766   4.992  2.3234  3.2392  1.1331
  520MOL0     H70198   4.132  10.525   5.187  1.6678  0.2371 -3.2418
  520MOL0     H70199   3.339  10.970   5.206 -1.2460 -3.4999 -3.6866
  520MOL0     H70200   3.238  11.074   5.409  0.3636 -0.6210  0.5920
  521MOL0     O70201   4.091  10.623   5.611  0.2384  0.0448  0.1505
  521MOL0     C70202   4.033  10.545   5.535 -0.3623  0.4510 -0.2236
  521MOL0     O70203   3.914  10.563   5.483 -0.0815  0.0428  0.4321
  521MOL0     C70204   3.854  10.688   5.479 -0.3585  0.2323 -0.1121
  521MOL0     C70205   3.919  10.810   5.457 -0.6118 -0.5138  0.0519
  521MOL0     C70206   3.854  10.935   5.458  0.7095  0.0260 -0.2989
  521MOL0     C70207   3.714  10.934   5.475 -0.4169  0.1773 -0.5582
  521MOL0     O70208   3.649  11.057   5.476  0.1324  0.2241  0.4477
  521MOL0     C70209   3.613  11.112   5.607  0.4790 -0.3784  0.9708
  521MOL0     C70210   3.551  11.244   5.575 -0.1870 -0.3823  0.4424
  521MOL0     C70211   3.518  11.328   5.696  0.5405  0.1794  0.2467
  521MOL0     C70212   3.427  11.240   5.801 -0.2058 -0.0152  0.0400
  521MOL0     C70213   3.366  11.321   5.920 -0.4271 -0.1086  0.1183
  521MOL0     C70214   3.466  11.430   5.966 -0.1263  0.7477 -0.3938
  521MOL0     C70215   3.453  11.505   6.098  0.5421  0.0530 -0.3053
  521MOL0     C70216   3.594  11.563   6.125  0.1490 -0.9501  0.5074
  521MOL0     N70217   3.638  11.509   6.257 -0.1880  0.3093  0.0819
  521MOL0     C70218   3.584  11.527   6.379 -0.0051  0.7768 -0.5182
  521MOL0     C70219   3.653  11.450   6.479  0.0656  0.0408 -0.8406
  521MOL0     C70220   3.625  11.437   6.627 -0.5364 -0.9075 -0.3929
  521MOL0     C70221   3.699  11.547   6.709  0.2193 -0.0493  0.4525
  521MOL0     C70222   3.839  11.553   6.679 -0.9395  0.0581  0.3717
  521MOL0     C70223   3.923  11.423   6.712 -0.8418 -0.4593 -0.1614
  521MOL0     O70224   3.918  11.383   6.849  0.2115  0.3589 -0.9602
  521MOL0     C70225   4.010  11.452   6.925 -0.5084 -0.4680 -0.4989
  521MOL0     C70226   4.150  11.440   6.922 -0.4989  0.1643  0.2203
  521MOL0     C70227   4.240  11.523   6.997  0.2455  0.8626  0.7102
  521MOL0     C70228   4.392  11.517   6.998  1.0351 -0.1324 -0.4286
  521MOL0     C70229   4.180  11.596   7.100 -0.8632 -1.0701  0.5614
  521MOL0     C70230   4.243  11.671   7.203  0.5574 -0.5476  0.3797
  521MOL0     O70231   4.200  11.644   7.324  0.2775 -0.0385 -0.0989
  521MOL0     C70232   4.249  11.676   7.442  0.2903 -0.7585  0.6545
  521MOL0     C70233   4.336  11.785   7.471  1.2227 -0.2270 -0.1762
  521MOL0     C70234   4.386  11.809   7.606 -0.6077 -0.1558  0.0769
  521MOL0     C70235   4.357  11.720   7.708 -0.7633 -1.1621  1.2227
  521MOL0     O70236   4.405  11.738   7.837 -0.1799  0.8650 -0.1549
  521MOL0     C70237   4.434  11.869   7.877 -0.5025 -0.5162 -0.1513
  521MOL0     C70238   4.516  11.880   8.010 -0.5150  1.3066 -1.0080
  521MOL0     C70239   4.640  11.786   8.009 -0.6560 -0.6228 -0.7615
  521MOL0     C70240   4.756  11.836   8.105  0.6056  1.4607  0.3203
  521MOL0     C70241   4.889  11.760   8.088 -0.3750 -0.3460  0.3794
  521MOL0     C70242   4.901  11.629   8.158 -0.4773 -1.3298  0.6219
  521MOL0     C70243   4.912  11.641   8.303 -0.2016  0.1517  0.6732
  521MOL0     C70244   5.013  11.738   8.350  0.3933  0.1178  0.1745
  521MOL0    Cl70245   5.178  11.668   8.309 -0.0431  0.2811 -0.0390
  521MOL0     C70246   4.270  11.612   7.675 -0.4517  0.0450 -0.5078
  521MOL0     C70247   4.216  11.589   7.549  0.4679  0.3878 -0.2787
  521MOL0     O70248   4.331  11.748   7.175 -0.2393 -0.9138  0.1213
  521MOL0     C70249   4.042  11.605   7.108  0.4745 -0.0574  0.2267
  521MOL0     C70250   3.953  11.543   7.023 -0.5400  0.0033  0.2764
  521MOL0     N70251   3.760  11.400   6.414 -0.3714 -0.0063 -1.0465
  521MOL0     N70252   3.747  11.430   6.284  0.3824  0.0051 -1.0219
  521MOL0     C70253   3.649  10.807   5.496  0.1515 -0.0281 -0.6693
  521MOL0     C70254   3.720  10.693   5.503 -0.1878  0.3870  0.5955
  521MOL0     C70255   4.100  10.419   5.501 -0.0494  0.7116 -1.0751
  521MOL0     C70256   4.190  10.366   5.583  0.5265 -0.2547  0.1756
  521MOL0     C70257   4.244  10.234   5.555 -0.6448  0.2206  0.1355
  521MOL0     C70258   4.211  10.167   5.436  0.5538  0.4078 -0.1604
  521MOL0     O70259   4.271  10.048   5.402 -0.6247  0.8745 -0.3019
  521MOL0     C70260   4.249   9.985   5.275  0.2406  0.0776 -0.3280
  521MOL0     C70261   4.350  10.046   5.180 -0.5986 -0.1954  0.8041
  521MOL0     C70262   4.464   9.941   5.148  0.1427 -0.9289 -0.3840
  521MOL0     C70263   4.570  10.002   5.056  0.1186 -0.0612  1.1788
  521MOL0     C70264   4.697   9.930   5.079 -0.7623 -0.6947  0.8227
  521MOL0     C70265   4.801   9.871   5.080 -1.1118  0.6246  0.4857
  521MOL0     C70266   4.115  10.226   5.350 -0.3681  0.0893 -1.4109
  521MOL0     C70267   4.061  10.345   5.387 -0.7188 -0.7729  0.0129
  521MOL0     H70268   4.022  10.796   5.425  0.1753 -0.4894  2.3421
  521MOL0     H70269   3.906  11.029   5.446 -2.7920  2.3292  1.0676
  521MOL0     H70270   3.535  11.047   5.647  1.6974 -0.7106  2.8951
  521MOL0     H70271   3.697  11.123   5.676  0.6377 -0.5061  0.8001
  521MOL0     H70272   3.624  11.310   5.529 -1.2586  2.1671  2.1853
  521MOL0     H70273   3.464  11.230   5.510  0.2751  1.6855 -0.6860
  521MOL0     H70274   3.616  11.335   5.744  0.2236 -1.8332  1.3276
  521MOL0     H70275   3.469  11.421   5.668 -2.0466 -1.3693 -0.8018
  521MOL0     H70276   3.352  11.187   5.742  1.2769 -1.3538 -0.7218
  521MOL0     H70277   3.491  11.156   5.831  4.7241  3.2623 -0.2723
  521MOL0     H70278   3.284  11.380   5.877  0.7444 -0.5079 -2.9313
  521MOL0     H70279   3.325  11.261   6.002  0.4800  1.7296  2.0055
  521MOL0     H70280   3.563  11.379   5.962 -0.0359  0.9818 -1.3625
  521MOL0     H70281   3.472  11.507   5.889  2.2412  2.7826  1.6466
  521MOL0     H70282   3.378  11.585   6.104 -0.8013 -1.2658  2.2767
  521MOL0     H70283   3.418  11.440   6.178  0.1893  1.0867  0.4083
  521MOL0     H70284   3.599  11.673   6.126  3.3195 -0.9034 -1.9970
  521MOL0     H70285   3.678  11.547   6.056  1.5203  3.4339  0.8191
  521MOL0     H70286   3.490  11.582   6.386 -0.1598  0.6307 -1.3735
  521MOL0     H70287   3.516  11.451   6.628 -0.2791  1.4835 -0.0581
  521MOL0     H70288   3.656  11.341   6.670  1.0875  0.4303  1.5897
  521MOL0     H70289   3.692  11.541   6.818  2.7310 -1.4801  0.6183
  521MOL0     H70290   3.646  11.639   6.683  1.9069  0.6181 -0.8015
  521MOL0     H70291   3.869  11.646   6.727 -2.3443  1.6314 -1.6301
  521MOL0     H70292   3.852  11.569   6.571 -0.3300  0.3171  0.4816
  521MOL0     H70293   4.025  11.432   6.674  0.3416 -2.3925  2.2869
  521MOL0     H70294   3.889  11.334   6.658 -0.4619 -0.1687 -0.8896
  521MOL0     H70295   4.181  11.362   6.853 -2.3656 -1.4127  1.0658
  521MOL0     H70296   4.430  11.615   6.969 -3.8554  2.4022  0.6219
  521MOL0     H70297   4.434  11.502   7.098 -1.2212 -1.8899  0.3515
  521MOL0     H70298   4.424  11.438   6.929 -2.4058 -1.2547 -0.9219
  521MOL0     H70299   4.358  11.857   7.393  2.6069  0.9656  1.2559
  521MOL0     H70300   4.445  11.898   7.627  1.8388 -2.0025  1.5450
  521MOL0     H70301   4.503  11.917   7.808 -0.7536  0.8120  0.4984
  521MOL0     H70302   4.345  11.932   7.865 -1.7023 -2.2354 -0.6282
  521MOL0     H70303   4.538  11.987   8.017 -0.4727  1.6575 -4.6719
  521MOL0     H70304   4.451  11.853   8.094 -1.1632  0.6171 -1.7242
  521MOL0     H70305   4.686  11.783   7.910  2.1510 -2.2712  0.4414
  521MOL0     H70306   4.617  11.681   8.033  0.1490 -0.9497 -1.3830
  521MOL0     H70307   4.770  11.942   8.082 -1.9490  1.3205 -2.3653
  521MOL0     H70308   4.719  11.835   8.208 -0.1040 -2.0703  0.1420
  521MOL0     H70309   4.980  11.818   8.104  0.8042 -1.9085 -0.4131
  521MOL0     H70310   4.899  11.749   7.980 -1.9385  1.9812 -0.0850
  521MOL0     H70311   4.826  11.557   8.125  0.6984 -2.3280  0.0346
  521MOL0     H70312   4.997  11.587   8.125 -0.1262 -0.6102  0.7005
  521MOL0     H70313   4.940  11.539   8.330  0.8217 -0.2240 -1.5254
  521MOL0     H70314   4.817  11.669   8.349 -0.5948 -1.7412  1.0846
  521MOL0     H70315   4.993  11.737   8.458  2.2712  1.9649  0.6037
  521MOL0     H70316   4.999  11.842   8.319 -0.5534  0.5139  1.7843
  521MOL0     H70317   4.252  11.535   7.750 -1.1186  0.2401 -0.4592
  521MOL0     H70318   4.160  11.498   7.535  2.7477 -1.4300  1.4911
  521MOL0     H70319   3.995  11.664   7.186 -0.4108  1.5681 -1.4570
  521MOL0     H70320   3.847  11.554   7.040 -0.3288  5.5959 -0.1378
  521MOL0     H70321   3.541  10.802   5.497  0.1155 -2.0918 -3.5515
  521MOL0     H70322   3.669  10.597   5.513  0.8395 -0.5439 -2.0574
  521MOL0     H70323   4.205  10.422   5.675  2.4044  2.2492 -1.5361
  521MOL0     H70324   4.319  10.194   5.623  0.2063 -2.8420 -2.4006
  521MOL0     H70325   4.272   9.880   5.295 -1.1053  0.0099  1.1359
  521MOL0     H70326   4.146   9.991   5.237  0.3530  1.2967 -0.4780
  521MOL0     H70327   4.391  10.139   5.220 -1.1645  1.1557 -1.5873
  521MOL0     H70328   4.312  10.081   5.084  1.3126  0.2250  0.1682
  521MOL0     H70329   4.422   9.850   5.104 -1.2995  0.0467 -1.1057
  521MOL0     H70330   4.503   9.913   5.247 -0.3460 -2.1184 -0.5037
  521MOL0     H70331   4.592  10.104   5.089  3.3324  0.4480 -1.9986
  521MOL0     H70332   4.540  10.005   4.951 -1.5116 -0.4554  1.6080
  521MOL0     H70333   4.893   9.816   5.081  0.3169  2.7298 -2.2934
  521MOL0     H70334   4.074  10.192   5.256 -2.3395 -1.2365 -0.1656
  521MOL0     H70335   3.993  10.378   5.310 -0.3636 -0.8177 -0.3256
  522MOL0     O70336   7.402   5.386  10.021  0.9545 -0.7522  0.3454
  522MOL0     C70337   7.480   5.307   9.964 -0.4867 -0.0198  0.0125
  522MOL0     O70338   7.608   5.285  10.002  0.0688  0.0977 -0.1385
  522MOL0     C70339   7.677   5.347  10.095 -0.4699 -0.5660 -0.3616
  522MOL0     C70340   7.647   5.464  10.163  0.3155  0.6951 -0.0547
  522MOL0     C70341   7.739   5.504  10.265  1.3409 -0.2162 -0.4050
  522MOL0     C70342   7.865   5.448  10.278 -1.3932 -0.7278 -0.3486
  522MOL0     O70343   7.955   5.493  10.371  0.0847  0.4370 -0.6985
  522MOL0     C70344   8.084   5.531  10.339 -0.2431 -0.2255 -0.3432
  522MOL0     C70345   8.122   5.663  10.419  0.1248 -0.7040  0.0170
  522MOL0     C70346   8.079   5.664  10.566 -0.2463  0.3087  0.0970
  522MOL0     C70347   7.938   5.712  10.599  0.5378 -0.4131  0.6968
  522MOL0     C70348   7.937   5.744  10.745  0.6119 -0.5052 -0.4911
  522MOL0     C70349   7.813   5.823  10.804 -0.7628  1.2547  0.3212
  522MOL0     C70350   7.680   5.747  10.808  0.9187  0.0801 -0.0918
  522MOL0     C70351   7.564   5.830  10.864 -0.1699 -0.4180 -0.0997
  522MOL0     N70352   7.578   5.850  11.000 -1.0787 -0.9151 -0.4599
  522MOL0     C70353   7.619   5.968  11.058 -0.2415  0.7406 -0.0666
  522MOL0     C70354   7.621   5.935  11.195  0.2477  0.1438  0.0605
  522MOL0     C70355   7.680   6.031  11.303 -0.3984 -0.5872  1.2938
  522MOL0     C70356   7.591   6.059  11.413  0.7525 -0.7277  0.0776
  522MOL0     C70357   7.470   6.146  11.370 -0.0848 -0.9106  0.3448
  522MOL0     C70358   7.356   6.096  11.276 -0.3100 -0.5947  0.7589
  522MOL0     O70359   7.386   6.142  11.143 -0.2262 -0.0589 -0.6440
  522MOL0     C70360   7.305   6.117  11.035  0.3102  1.0094  0.1495
  522MOL0     C70361   7.314   6.187  10.918  0.1573  0.2420  0.6824
  522MOL0     C70362   7.223   6.172  10.809 -0.2416  0.2628 -0.4632
  522MOL0     C70363   7.248   6.271  10.701 -0.5380 -0.5518  0.6937
  522MOL0     C70364   7.114   6.092  10.826 -0.2654  0.2858  0.0482
  522MOL0     C70365   7.015   6.069  10.712  0.4880  0.5222 -0.5729
  522MOL0     O70366   6.915   5.970  10.731  0.1944  0.1958 -0.5822
  522MOL0     C70367   6.846   5.924  10.620 -0.7902 -0.1976 -0.7826
  522MOL0     C70368   6.713   5.960  10.589  0.4064  0.7262 -0.4301
  522MOL0     C70369   6.638   5.891  10.495  0.3206  0.4495  0.1193
  522MOL0     C70370   6.697   5.798  10.416  0.4006  0.4772  1.0430
  522MOL0     O70371   6.627   5.735  10.307  0.3592 -0.3466 -0.0916
  522MOL0     C70372   6.573   5.817  10.204  0.3072  0.6743  1.3714
  522MOL0     C70373   6.463   5.761  10.119 -0.9766 -1.0759 -0.5143
  522MOL0     C70374   6.535   5.690   9.995 -0.9455 -0.3661 -0.6452
  522MOL0     C70375   6.458   5.565   9.958  0.0480 -0.0568  0.4185
  522MOL0     C70376   6.488   5.490   9.821 -0.0829  0.0488  0.4430
  522MOL0     C70377   6.421   5.583   9.723  0.2988 -0.0006  0.4889
  522MOL0     C70378   6.434   5.545   9.577 -0.0100 -0.8555  0.1459
  522MOL0     C70379   6.356   5.653   9.496 -0.0729  0.4051 -0.0962
  522MOL0    Cl70380   6.368   5.657   9.320  0.4121  0.2581  0.2578
  522MOL0     C70381   6.835   5.762  10.436 -0.4868 -0.3446 -0.0352
  522MOL0     C70382   6.908   5.829  10.534  0.0995  1.0769 -0.0084
  522MOL0     O70383   7.014   6.147  10.612 -0.2178  0.6733 -0.4029
  522MOL0     C70384   7.091   6.023  10.943 -0.4817 -0.0831 -0.5534
  522MOL0     C70385   7.189   6.035  11.048  0.0745 -0.4562  0.0125
  522MOL0     N70386   7.575   5.814  11.216 -0.3377  0.4943  0.0204
  522MOL0     N70387   7.564   5.755  11.101  0.4879 -0.9576 -0.4216
  522MOL0     C70388   7.887   5.328  10.212  0.1109 -0.5114 -0.5441
  522MOL0     C70389   7.794   5.284  10.125  0.3888 -0.3241  0.0235
  522MOL0     C70390   7.419   5.234   9.850  0.3375  0.2808 -0.7634
  522MOL0     C70391   7.303   5.276   9.786 -0.4745  0.7787 -0.0772
  522MOL0     C70392   7.261   5.206   9.674 -0.0487 -0.0675 -0.0678
  522MOL0     C70393   7.325   5.095   9.631  0.1338 -0.1247  0.4901
  522MOL0     O70394   7.293   5.034   9.512 -0.4618 -0.2419 -0.2497
  522MOL0     C70395   7.173   5.074   9.434 -0.0075  0.0845  0.6092
  522MOL0     C70396   7.173   4.976   9.318 -0.0698  0.1600  0.7509
  522MOL0     C70397   7.299   4.992   9.235 -0.3655  0.0522 -0.1823
  522MOL0     C70398   7.278   4.931   9.094 -0.5827  0.7348 -0.2182
  522MOL0     C70399   7.411   4.923   9.032  0.5731  1.1194  0.4338
  522MOL0     C70400   7.521   4.893   9.002 -0.3117 -0.5053 -0.7244
  522MOL0     C70401   7.435   5.041   9.706 -0.4864  0.0039  0.2518
  522MOL0     C70402   7.484   5.113   9.815  0.6356  0.8730 -0.1117
  522MOL0     H70403   7.563   5.528  10.137 -1.5709 -0.8717  1.7985
  522MOL0     H70404   7.713   5.590  10.327 -0.7915  0.9857 -2.7806
  522MOL0     H70405   8.157   5.450  10.355  1.9374  1.1961 -2.3544
  522MOL0     H70406   8.104   5.560  10.235 -1.3513 -0.7522 -0.7112
  522MOL0     H70407   8.224   5.697  10.398 -0.9064  2.1083 -0.9769
  522MOL0     H70408   8.068   5.749  10.378  0.6897 -0.8311 -1.0111
  522MOL0     H70409   8.098   5.561  10.599  2.0345  0.5156 -0.3974
  522MOL0     H70410   8.137   5.741  10.618 -0.5040  0.1379  0.6385
  522MOL0     H70411   7.903   5.795  10.537 -0.3310 -1.0043  0.3788
  522MOL0     H70412   7.865   5.640  10.563 -0.8811  1.5817 -0.6494
  522MOL0     H70413   7.952   5.644  10.785  0.6162 -0.3190 -0.0204
  522MOL0     H70414   8.021   5.812  10.767  0.8743 -1.8812  3.5024
  522MOL0     H70415   7.826   5.848  10.910  1.0881 -0.8079  0.6579
  522MOL0     H70416   7.800   5.918  10.752  1.9265  1.6490  0.1952
  522MOL0     H70417   7.650   5.726  10.705 -1.0493  1.8106  0.0717
  522MOL0     H70418   7.699   5.657  10.867  1.7619  0.0561 -0.4001
  522MOL0     H70419   7.471   5.775  10.850 -0.8698  0.2505  1.5968
  522MOL0     H70420   7.554   5.927  10.816 -3.9275 -0.1227  1.0047
  522MOL0     H70421   7.653   6.064  11.019  1.2640  1.2236  2.2250
  522MOL0     H70422   7.763   5.981  11.353 -1.1260 -0.8160  2.2923
  522MOL0     H70423   7.719   6.122  11.256  0.7260 -1.4574  0.4826
  522MOL0     H70424   7.625   6.103  11.507 -1.8041 -1.2004  1.3094
  522MOL0     H70425   7.540   5.970  11.450 -3.5168  0.3366 -2.4605
  522MOL0     H70426   7.495   6.251  11.349  1.0507 -1.2900 -0.2316
  522MOL0     H70427   7.428   6.155  11.471 -0.1341  1.8566  0.1566
  522MOL0     H70428   7.265   6.144  11.314 -0.3255  0.5223 -0.6135
  522MOL0     H70429   7.350   5.987  11.283  3.4400 -0.9468  0.1325
  522MOL0     H70430   7.376   6.274  10.903 -0.6991  0.2392 -4.6719
  522MOL0     H70431   7.257   6.221  10.604 -2.0412 -0.9995  0.7636
  522MOL0     H70432   7.164   6.341  10.704  1.4567  2.0372  0.5941
  522MOL0     H70433   7.334   6.333  10.728  1.5377 -3.5761  1.5711
  522MOL0     H70434   6.659   6.036  10.644  0.3448  1.1937 -1.1258
  522MOL0     H70435   6.536   5.914  10.469  0.6133  0.9074 -0.6826
  522MOL0     H70436   6.539   5.911  10.247  0.4243  2.0306 -1.3615
  522MOL0     H70437   6.657   5.847  10.141  0.5957 -2.5650  0.0031
  522MOL0     H70438   6.403   5.683  10.167 -2.0838 -0.7439 -1.3107
  522MOL0     H70439   6.404   5.839  10.070  2.1087 -0.0175 -2.8081
  522MOL0     H70440   6.638   5.661  10.018 -0.8195 -0.0664 -0.8210
  522MOL0     H70441   6.536   5.758   9.910 -2.3285  0.5195  0.0091
  522MOL0     H70442   6.468   5.488  10.035  0.2278 -0.0035  0.4486
  522MOL0     H70443   6.352   5.591   9.961  0.3731  1.6397 -1.0935
  522MOL0     H70444   6.443   5.390   9.823  0.3127 -0.1840  3.7013
  522MOL0     H70445   6.596   5.489   9.803  0.0707 -2.3912  1.0898
  522MOL0     H70446   6.316   5.589   9.754  0.2229 -1.6809  0.6587
  522MOL0     H70447   6.466   5.681   9.739 -2.1539  1.1332  0.9499
  522MOL0     H70448   6.392   5.446   9.557 -1.4421 -0.4442  1.0089
  522MOL0     H70449   6.542   5.541   9.558  0.2341 -1.0341  1.4627
  522MOL0     H70450   6.383   5.752   9.531 -0.7240 -0.3282  2.7100
  522MOL0     H70451   6.251   5.650   9.528  0.0851 -0.1710  0.3957
  522MOL0     H70452   6.878   5.689  10.368 -3.2067 -1.9732 -0.1650
  522MOL0     H70453   7.013   5.810  10.555 -0.7883 -2.6498  2.1957
  522MOL0     H70454   7.006   5.958  10.960 -2.1880  2.2455  0.3767
  522MOL0     H70455   7.164   5.987  11.142 -1.4936  0.3278  0.0262
  522MOL0     H70456   7.977   5.268  10.208  0.0318 -0.8302  1.6076
  522MOL0     H70457   7.799   5.179  10.098  1.6996 -0.5027  0.8482
  522MOL0     H70458   7.256   5.370   9.811 -1.1347  0.7228 -1.0568
  522MOL0     H70459   7.179   5.256   9.624 -0.3604  0.8365  1.2973
  522MOL0     H70460   7.084   5.049   9.492 -0.0071  2.0644  1.5208
  522MOL0     H70461   7.178   5.180   9.410  1.1965 -0.4215 -1.6245
  522MOL0     H70462   7.082   4.984   9.258  1.5387  2.2923 -1.6133
  522MOL0     H70463   7.175   4.875   9.361  0.8258  0.4472  1.4234
  522MOL0     H70464   7.383   4.954   9.295 -2.9460 -1.8960  2.5520
  522MOL0     H70465   7.317   5.098   9.217 -1.3130  0.6076  1.7734
  522MOL0     H70466   7.206   4.975   9.025  0.2871 -1.4253 -2.6997
  522MOL0     H70467   7.239   4.830   9.111 -2.7090  1.1196 -2.2943
  522MOL0     H70468   7.626   4.886   8.980  0.8669  3.7228  2.3128
  522MOL0     H70469   7.484   4.950   9.672  2.1587  0.1320  3.1795
  522MOL0     H70470   7.563   5.065   9.872 -2.2250 -2.0068  1.7389
  523MOL0     O70471   4.225   5.890   2.894  0.0180  0.2453 -0.9061
  523MOL0     C70472   4.104   5.899   2.927 -0.3499  0.0026  0.2366
  523MOL0     O70473   4.022   5.795   2.961  1.1364  0.5499  0.8899
  523MOL0     C70474   4.059   5.666   2.921 -0.0327  0.3171  0.9529
  523MOL0     C70475   4.103   5.632   2.787 -0.2424 -0.1029 -0.5506
  523MOL0     C70476   4.116   5.502   2.757  0.1934 -0.3496  1.2249
  523MOL0     C70477   4.091   5.396   2.848  0.5135  1.4674 -0.4231
  523MOL0     O70478   4.100   5.259   2.815  0.0672  0.1945 -0.0441
  523MOL0     C70479   4.072   5.218   2.685  0.2353 -0.4065 -0.3843
  523MOL0     C70480   4.051   5.063   2.676 -0.0253 -1.0671 -1.0707
  523MOL0     C70481   4.165   4.980   2.728  0.3744  0.4438  0.4965
  523MOL0     C70482   4.316   5.023   2.691  0.3927 -0.2681  0.1001
  523MOL0     C70483   4.415   4.928   2.734  1.0324  0.1751  0.6480
  523MOL0     C70484   4.557   4.960   2.686  0.0923 -0.2259 -0.0971
  523MOL0     C70485   4.621   5.066   2.776  0.1866 -0.6756  0.4735
  523MOL0     C70486   4.770   5.053   2.767 -0.7437  0.0159  0.4790
  523MOL0     N70487   4.833   5.181   2.754  0.5589  0.1589 -1.1929
  523MOL0     C70488   4.966   5.184   2.730 -0.2441  0.5160 -0.0594
  523MOL0     C70489   4.994   5.313   2.707  0.8864  0.1544 -0.5921
  523MOL0     C70490   5.118   5.377   2.661 -0.4910 -0.1005 -0.1833
  523MOL0     C70491   5.230   5.274   2.601 -0.3091 -0.2399  0.5740
  523MOL0     C70492   5.366   5.330   2.629 -0.3603  0.0263  1.5115
  523MOL0     C70493   5.464   5.228   2.577  1.0350 -0.7648 -0.4039
  523MOL0     O70494   5.595   5.255   2.634 -0.5174 -0.0858  0.2625
  523MOL0     C70495   5.681   5.336   2.567 -0.2746 -0.0834 -0.1864
  523MOL0     C70496   5.796   5.369   2.643 -0.4040 -0.2874 -0.0907
  523MOL0     C70497   5.893   5.460   2.594 -0.3781  0.0430 -1.1066
  523MOL0     C70498   6.007   5.482   2.695 -0.3059  0.9409  0.0818
  523MOL0     C70499   5.881   5.519   2.464  0.6271  0.1691 -0.1684
  523MOL0     C70500   5.968   5.617   2.411  0.5858  1.2393  0.4349
  523MOL0     O70501   5.911   5.687   2.298  0.7849  0.3823 -0.0427
  523MOL0     C70502   5.994   5.780   2.236  0.7788  0.5635 -0.6145
  523MOL0     C70503   6.101   5.737   2.167 -0.0405  1.0142  0.0281
  523MOL0     C70504   6.175   5.823   2.095  0.1765  1.0121  0.3939
  523MOL0     C70505   6.155   5.961   2.095  0.1926  0.1060 -0.0187
  523MOL0     O70506   6.230   6.037   2.007  0.0531  0.8923  0.2890
  523MOL0     C70507   6.270   6.164   2.056 -0.0284  0.1426  0.5237
  523MOL0     C70508   6.380   6.210   1.966  0.3961 -0.3569 -0.2544
  523MOL0     C70509   6.432   6.361   1.988  0.7788  0.0724 -0.6751
  523MOL0     C70510   6.544   6.349   2.093  0.1084 -0.2009  0.1659
  523MOL0     C70511   6.613   6.486   2.120  0.3911  0.2031 -0.8848
  523MOL0     C70512   6.675   6.554   2.002  0.5102  0.2624  0.5428
  523MOL0     C70513   6.787   6.479   1.937 -0.5351 -0.9508  0.0700
  523MOL0     C70514   6.864   6.564   1.839 -0.7030 -0.1092  0.1516
  523MOL0    Cl70515   6.746   6.616   1.717  0.2919 -0.0038  0.1860
  523MOL0     C70516   6.047   6.005   2.170  0.2249  0.1624 -0.6554
  523MOL0     C70517   5.961   5.917   2.238  0.3379  0.1700  0.0898
  523MOL0     O70518   6.082   5.632   2.455 -0.4830  0.1829 -0.0900
  523MOL0     C70519   5.760   5.485   2.394 -1.0348  0.3937  0.6368
  523MOL0     C70520   5.667   5.397   2.444  0.3794  0.5378 -0.5954
  523MOL0     N70521   4.877   5.379   2.725 -0.0959  0.6920  0.5589
  523MOL0     N70522   4.787   5.298   2.750  0.2941 -0.3370 -0.8509
  523MOL0     C70523   4.045   5.428   2.976 -0.3685 -0.7542 -0.1194
  523MOL0     C70524   4.025   5.564   3.011  0.6962  0.4501  0.3221
  523MOL0     C70525   4.054   6.040   2.951 -0.5394 -0.5133  0.1228
  523MOL0     C70526   3.925   6.071   2.974  0.6194  0.4866  0.2762
  523MOL0     C70527   3.883   6.203   2.986 -0.1707  1.1572 -0.0178
  523MOL0     C70528   3.961   6.314   2.974  0.2412  1.0266 -0.5678
  523MOL0     O70529   3.907   6.443   2.989  0.5237  0.3624 -0.0011
  523MOL0     C70530   3.884   6.469   3.127  0.3466 -0.7092  0.2211
  523MOL0     C70531   3.736   6.513   3.133  0.5814  0.4308 -0.9187
  523MOL0     C70532   3.633   6.407   3.124  0.2987  0.0307 -0.0564
  523MOL0     C70533   3.633   6.317   3.245 -0.5519 -0.4932  0.1890
  523MOL0     C70534   3.534   6.220   3.238 -0.5238  0.7953 -0.2237
  523MOL0     C70535   3.437   6.145   3.212 -0.4035 -0.4132  0.1227
  523MOL0     C70536   4.095   6.292   2.949  0.4055  0.7324 -0.2577
  523MOL0     C70537   4.148   6.150   2.944 -0.8119  0.2791 -0.5319
  523MOL0     H70538   4.123   5.706   2.710  0.1479 -1.5628 -1.9133
  523MOL0     H70539   4.157   5.476   2.660 -0.4965  0.9499  0.5696
  523MOL0     H70540   3.990   5.281   2.647  0.8352  1.6797  1.6202
  523MOL0     H70541   4.160   5.249   2.628  1.4203  1.3837  2.2645
  523MOL0     H70542   3.974   5.029   2.746  0.0374  1.2640  0.2350
  523MOL0     H70543   4.030   5.044   2.570 -0.3001 -0.3210 -1.1590
  523MOL0     H70544   4.149   4.981   2.836 -2.4541  2.2371  0.1585
  523MOL0     H70545   4.153   4.874   2.702 -0.8587  0.9946 -1.3738
  523MOL0     H70546   4.320   5.031   2.582 -3.9893  1.0420 -0.1584
  523MOL0     H70547   4.341   5.120   2.736  1.9306 -0.3383 -0.5297
  523MOL0     H70548   4.408   4.925   2.843 -1.6383  0.4362  0.5473
  523MOL0     H70549   4.392   4.831   2.690  2.8786  0.4050 -0.9848
  523MOL0     H70550   4.611   4.867   2.707 -1.1816 -0.8972  0.3620
  523MOL0     H70551   4.553   4.993   2.582  2.3219  0.3512 -0.0603
  523MOL0     H70552   4.594   5.165   2.736  2.0946 -0.4911 -0.4343
  523MOL0     H70553   4.584   5.052   2.878 -0.0913 -0.0261  0.4717
  523MOL0     H70554   4.800   5.006   2.674  0.6093 -0.2708  1.0422
  523MOL0     H70555   4.807   5.004   2.858 -1.7890  0.9379  1.4323
  523MOL0     H70556   5.037   5.103   2.722 -0.3256  0.3261  1.0295
  523MOL0     H70557   5.103   5.466   2.599  1.1138 -1.1913 -2.2598
  523MOL0     H70558   5.153   5.431   2.750  0.5594  1.7963 -1.6658
  523MOL0     H70559   5.202   5.260   2.496 -1.1148  2.5839  0.3241
  523MOL0     H70560   5.225   5.183   2.661 -1.8871  1.1150  2.6185
  523MOL0     H70561   5.385   5.342   2.736  0.3810  2.6346  1.1459
  523MOL0     H70562   5.370   5.420   2.567  0.0268 -1.8327 -1.3659
  523MOL0     H70563   5.460   5.222   2.468  2.8432  1.7065 -0.6862
  523MOL0     H70564   5.432   5.134   2.623 -1.5883  1.8464  3.8054
  523MOL0     H70565   5.798   5.322   2.741  2.3658 -2.2188 -0.9547
  523MOL0     H70566   6.108   5.497   2.656 -1.3779  2.5491 -2.2675
  523MOL0     H70567   5.981   5.573   2.750 -1.0082 -0.1496  1.6521
  523MOL0     H70568   6.012   5.396   2.764  1.7767  0.2060 -0.9002
  523MOL0     H70569   6.118   5.630   2.159 -2.5469  0.4493  1.3727
  523MOL0     H70570   6.248   5.776   2.030 -3.9915 -3.4478 -1.7123
  523MOL0     H70571   6.186   6.234   2.052  1.7032  2.3530  0.8695
  523MOL0     H70572   6.297   6.166   2.162  0.2047  1.1704  0.4556
  523MOL0     H70573   6.457   6.133   1.973 -0.5860 -1.1852  2.2685
  523MOL0     H70574   6.347   6.210   1.861  2.2221 -0.5815 -0.8751
  523MOL0     H70575   6.358   6.425   2.036  2.8790  0.1947  2.7466
  523MOL0     H70576   6.480   6.389   1.893  0.9624 -2.8732 -1.5797
  523MOL0     H70577   6.502   6.313   2.187  0.2917  1.0479  0.7521
  523MOL0     H70578   6.623   6.284   2.054 -0.3597  0.3677 -1.8321
  523MOL0     H70579   6.688   6.459   2.196  0.2400  1.4871 -0.2434
  523MOL0     H70580   6.533   6.551   2.157  0.0662 -0.0408 -1.1466
  523MOL0     H70581   6.592   6.567   1.932  1.5141 -0.5555 -0.8497
  523MOL0     H70582   6.727   6.644   2.035  0.6668 -0.2863  1.8446
  523MOL0     H70583   6.743   6.398   1.877 -1.5150 -1.0814  0.9187
  523MOL0     H70584   6.867   6.452   2.007  0.0267 -1.6867 -0.8325
  523MOL0     H70585   6.949   6.515   1.789 -0.9662  0.5772 -1.0037
  523MOL0     H70586   6.910   6.654   1.879 -1.6180  0.4393 -0.0239
  523MOL0     H70587   6.035   6.113   2.175  6.8026  1.2786 -1.0217
  523MOL0     H70588   5.874   5.959   2.288  0.2561 -0.9154  0.8863
  523MOL0     H70589   5.748   5.527   2.294  1.2046  2.1637  1.0325
  523MOL0     H70590   5.571   5.381   2.397  0.1872  2.5352 -0.9529
  523MOL0     H70591   4.021   5.355   3.053 -0.1880  1.4684  2.1448
  523MOL0     H70592   3.991   5.587   3.112 -3.1077  0.0739 -0.7551
  523MOL0     H70593   3.862   5.983   2.983  1.4958  0.0016  2.3673
  523MOL0     H70594   3.775   6.211   2.994 -0.3203 -0.4222 -0.0929
  523MOL0     H70595   3.899   6.384   3.195  0.8642 -1.3091 -0.6263
  523MOL0     H70596   3.953   6.550   3.152  0.4693 -0.1968 -1.6655
  523MOL0     H70597   3.724   6.572   3.041  2.4508 -1.6874 -2.6280
  523MOL0     H70598   3.720   6.572   3.224  0.7863 -0.4009 -0.3394
  523MOL0     H70599   3.643   6.347   3.033  1.0719 -3.0928  1.9323
  523MOL0     H70600   3.533   6.450   3.128 -0.9732 -2.6057 -0.8431
  523MOL0     H70601   3.614   6.380   3.333  3.6397 -1.7190  2.2177
  523MOL0     H70602   3.728   6.263   3.251 -0.5479 -0.7594 -1.6987
  523MOL0     H70603   3.352   6.084   3.188  0.4375 -0.6950 -2.4380
  523MOL0     H70604   4.152   6.382   2.930  0.5063  0.3283 -2.1199
  523MOL0     H70605   4.254   6.131   2.937 -0.4379  0.4746  2.8812
  524MOL0     O70606  10.758  11.423   7.402 -0.5045  0.5856  0.5458
  524MOL0     C70607  10.692  11.342   7.467 -0.2372  0.3684 -0.3108
  524MOL0     O70608  10.741  11.271   7.585  0.4709  0.2266  0.5958
  524MOL0     C70609  10.878  11.276   7.615 -0.1089  1.4546 -0.9032
  524MOL0     C70610  10.909  11.265   7.745  0.8779  0.0277 -0.7650
  524MOL0     C70611  11.045  11.271   7.794  0.2036  0.6176  0.1803
  524MOL0     C70612  11.148  11.312   7.705  0.9472 -0.0125 -0.3095
  524MOL0     O70613  11.268  11.329   7.767 -0.5526  0.1789 -0.3636
  524MOL0     C70614  11.344  11.440   7.715  0.8675 -0.8010 -0.1813
  524MOL0     C70615  11.471  11.459   7.799 -0.3742  0.1555  0.3082
  524MOL0     C70616  11.578  11.363   7.741  0.1269  0.1199  1.8338
  524MOL0     C70617  11.710  11.349   7.818  0.1729  0.2839  0.1103
  524MOL0     C70618  11.815  11.284   7.721 -0.1689 -0.6086 -0.7652
  524MOL0     C70619  11.924  11.202   7.806 -0.7071  0.1013  1.0474
  524MOL0     C70620  12.035  11.164   7.704 -0.7496  0.1878  0.0036
  524MOL0     C70621  12.119  11.277   7.643 -0.1802  1.0820 -0.4140
  524MOL0     N70622  12.173  11.363   7.740 -0.7463 -0.4872 -0.2212
  524MOL0     C70623  12.269  11.328   7.836 -0.5215 -0.5695  0.6683
  524MOL0     C70624  12.275  11.431   7.911  0.0901 -0.6897  0.3551
  524MOL0     C70625  12.374  11.445   8.023  0.0760 -0.1451 -0.4446
  524MOL0     C70626  12.437  11.586   8.017 -0.3507 -0.6095 -1.1202
  524MOL0     C70627  12.554  11.599   7.918 -0.6026  0.6749  0.0036
  524MOL0     C70628  12.532  11.521   7.789 -0.0928 -0.6203 -0.0242
  524MOL0     O70629  12.640  11.552   7.705 -0.2997 -0.3257 -0.7375
  524MOL0     C70630  12.628  11.526   7.572 -0.0216  0.1271  0.6799
  524MOL0     C70631  12.742  11.552   7.499 -0.7014  0.3437  0.4126
  524MOL0     C70632  12.752  11.536   7.356  0.0836 -0.4668  0.4840
  524MOL0     C70633  12.882  11.587   7.307  0.0039 -0.0931 -0.5275
  524MOL0     C70634  12.647  11.474   7.293  0.3063 -0.0452  0.8543
  524MOL0     C70635  12.647  11.460   7.144  0.7800  0.0905  0.6188
  524MOL0     O70636  12.766  11.424   7.093  0.2216 -0.3267  1.0018
  524MOL0     C70637  12.779  11.407   6.958 -0.0115  0.0820  0.3391
  524MOL0     C70638  12.817  11.281   6.921 -0.5293 -0.7972 -0.5124
  524MOL0     C70639  12.834  11.248   6.788  0.7816  0.6725  0.5377
  524MOL0     C70640  12.824  11.345   6.684  0.1687  0.1367 -1.1699
  524MOL0     O70641  12.851  11.316   6.559  0.2242  0.2777  0.3771
  524MOL0     C70642  12.994  11.299   6.541 -0.3378 -0.4090  0.7851
  524MOL0     C70643  13.025  11.299   6.390  0.3384  0.4884 -0.2857
  524MOL0     C70644  12.985  11.435   6.333 -0.7095  0.1621 -0.0619
  524MOL0     C70645  13.019  11.443   6.180 -0.9213  0.0999  0.6380
  524MOL0     C70646  12.923  11.376   6.089 -0.4199  1.2034 -0.6935
  524MOL0     C70647  13.001  11.367   5.957  1.0967  0.5290  0.4404
  524MOL0     C70648  12.900  11.306   5.852  0.7370 -0.2010  0.0074
  524MOL0     C70649  12.949  11.312   5.706 -0.7018  1.0111 -0.1593
  524MOL0    Cl70650  12.837  11.257   5.583 -0.0779 -0.3552  0.4298
  524MOL0     C70651  12.798  11.474   6.720  0.5782  0.1143  0.7429
  524MOL0     C70652  12.770  11.510   6.857  0.1119 -0.6791 -0.0225
  524MOL0     O70653  12.546  11.488   7.088  0.2171 -0.5711 -0.1413
  524MOL0     C70654  12.537  11.446   7.362  0.5858  1.5370 -0.8642
  524MOL0     C70655  12.527  11.471   7.500  0.2171 -0.0518  0.6386
  524MOL0     N70656  12.190  11.530   7.871 -0.6725 -0.0606  0.2889
  524MOL0     N70657  12.128  11.486   7.770  0.1417 -0.3459 -0.4377
  524MOL0     C70658  11.116  11.316   7.565 -0.2481  0.1055 -0.5808
  524MOL0     C70659  10.984  11.295   7.527 -0.0565  0.7727  0.8735
  524MOL0     C70660  10.549  11.320   7.431 -0.1288  0.7182 -0.2055
  524MOL0     C70661  10.466  11.234   7.505  0.0754  0.4049  1.0330
  524MOL0     C70662  10.329  11.235   7.475  0.2958  0.9958 -0.5581
  524MOL0     C70663  10.274  11.288   7.362 -0.6277 -0.2496  0.0334
  524MOL0     O70664  10.146  11.271   7.316  0.0623  0.0851 -0.1132
  524MOL0     C70665  10.051  11.188   7.383  0.1526 -0.0653 -0.8491
  524MOL0     C70666  10.037  11.053   7.304  0.0655 -1.4057 -0.6456
  524MOL0     C70667  10.112  10.942   7.386 -0.6311 -0.2086  0.5630
  524MOL0     C70668  10.094  10.806   7.334 -0.0112  0.8968 -0.6345
  524MOL0     C70669  10.128  10.795   7.188  0.0013  0.1092 -0.6147
  524MOL0     C70670  10.147  10.792   7.067  0.2567 -0.9695 -0.4295
  524MOL0     C70671  10.353  11.362   7.286 -0.8016 -1.0920  0.1558
  524MOL0     C70672  10.491  11.390   7.320  0.4080  0.8765 -0.0468
  524MOL0     H70673  10.833  11.241   7.819 -0.4453  1.9953 -1.3890
  524MOL0     H70674  11.082  11.271   7.896 -1.1023  2.1596  0.7002
  524MOL0     H70675  11.360  11.424   7.608  2.2704 -3.9362  0.3697
  524MOL0     H70676  11.289  11.534   7.725 -0.7355 -1.7024 -0.2021
  524MOL0     H70677  11.506  11.562   7.789 -0.3566  0.2169  0.9344
  524MOL0     H70678  11.469  11.441   7.907  3.0887 -0.2947  0.4077
  524MOL0     H70679  11.527  11.270   7.716 -0.3382  0.8699 -0.1606
  524MOL0     H70680  11.609  11.405   7.645 -0.4304 -1.4337  0.9374
  524MOL0     H70681  11.739  11.446   7.861 -1.1776  0.9619 -0.4622
  524MOL0     H70682  11.684  11.278   7.897 -1.5387 -0.4038 -1.0217
  524MOL0     H70683  11.778  11.224   7.637 -2.0660 -0.6685  0.0737
  524MOL0     H70684  11.868  11.371   7.681  1.5673 -1.5999 -0.7342
  524MOL0     H70685  11.963  11.268   7.884  1.2492  0.7647 -0.4234
  524MOL0     H70686  11.884  11.116   7.860  0.9191 -1.2066  0.2324
  524MOL0     H70687  12.101  11.093   7.756 -1.2958 -0.4611 -0.1810
  524MOL0     H70688  12.000  11.112   7.614  2.5104  1.2678 -2.0852
  524MOL0     H70689  12.065  11.344   7.576 -0.8844  0.2190 -0.7361
  524MOL0     H70690  12.200  11.240   7.579  1.3119  3.2514  0.1398
  524MOL0     H70691  12.326  11.236   7.844 -2.2906 -1.8544 -0.5992
  524MOL0     H70692  12.323  11.438   8.120 -1.3650 -1.7921 -1.2787
  524MOL0     H70693  12.454  11.371   8.024  0.8003  0.6176 -0.4170
  524MOL0     H70694  12.457  11.615   8.120 -1.6232  0.4978 -1.1586
  524MOL0     H70695  12.360  11.659   7.989 -2.1278 -1.9799 -0.0862
  524MOL0     H70696  12.635  11.562   7.981 -0.2906  2.3514  0.6425
  524MOL0     H70697  12.565  11.706   7.895 -1.1661  0.3091 -2.2036
  524MOL0     H70698  12.443  11.560   7.740 -0.7738 -4.1940 -1.9748
  524MOL0     H70699  12.525  11.414   7.815 -0.1045 -1.5071 -3.3034
  524MOL0     H70700  12.821  11.597   7.558 -2.5185  2.1115  1.6344
  524MOL0     H70701  12.953  11.524   7.362  0.5221 -0.1758 -1.2723
  524MOL0     H70702  12.887  11.579   7.198  3.0644  2.4427 -0.7259
  524MOL0     H70703  12.904  11.688   7.342  0.9343 -0.6967  0.7254
  524MOL0     H70704  12.819  11.210   7.003 -4.4964  3.8168  4.3121
  524MOL0     H70705  12.868  11.147   6.767 -2.8236 -0.4412 -0.7704
  524MOL0     H70706  13.049  11.378   6.592  0.9311 -1.2672  0.7839
  524MOL0     H70707  13.021  11.199   6.576 -1.7151 -0.9584  0.3590
  524MOL0     H70708  13.130  11.271   6.377  0.4341  0.5969  0.2291
  524MOL0     H70709  12.972  11.220   6.336 -0.3539  1.4205 -0.9986
  524MOL0     H70710  13.027  11.515   6.394 -2.3115  1.8080 -1.0333
  524MOL0     H70711  12.879  11.458   6.341 -0.1216  2.8072  0.9616
  524MOL0     H70712  13.050  11.537   6.135 -0.4473 -0.5939 -0.5150
  524MOL0     H70713  13.110  11.384   6.189  1.0785  2.1303 -3.6014
  524MOL0     H70714  12.826  11.424   6.076 -0.8505  0.1956 -1.2741
  524MOL0     H70715  12.917  11.282   6.143  3.9015  1.5779  0.8528
  524MOL0     H70716  13.043  11.462   5.925 -1.9931  2.1493  0.8035
  524MOL0     H70717  13.082  11.297   5.978  2.2586  1.4854 -0.6767
  524MOL0     H70718  12.802  11.354   5.856  2.0733  2.7189  0.4023
  524MOL0     H70719  12.886  11.204   5.887  0.4309 -0.2033 -0.1150
  524MOL0     H70720  13.035  11.244   5.702 -0.1888  1.7076 -1.1522
  524MOL0     H70721  12.985  11.410   5.676  2.3802  0.0628  0.0727
  524MOL0     H70722  12.804  11.546   6.639 -2.2138 -2.3557 -1.8812
  524MOL0     H70723  12.752  11.615   6.874  3.2739  0.1771 -1.1794
  524MOL0     H70724  12.457  11.398   7.306  0.6734  0.9448 -0.4917
  524MOL0     H70725  12.428  11.459   7.544 -0.0441 -2.6882 -0.4504
  524MOL0     H70726  11.183  11.335   7.482  0.1948  0.7471 -0.0941
  524MOL0     H70727  10.980  11.292   7.418  2.3297  0.1644  0.7465
  524MOL0     H70728  10.488  11.175   7.593  0.1259  0.0628  0.7910
  524MOL0     H70729  10.272  11.169   7.541  2.9188 -1.4492 -0.5280
  524MOL0     H70730  10.059  11.174   7.491 -0.0719 -0.8701 -0.9331
  524MOL0     H70731   9.957  11.244   7.374  1.0658  1.4009 -1.8798
  524MOL0     H70732  10.071  11.067   7.201 -0.3753  1.4443 -0.4934
  524MOL0     H70733   9.930  11.031   7.303 -1.1668  3.4613  0.0679
  524MOL0     H70734  10.088  10.954   7.492 -1.1444  1.0052  0.3343
  524MOL0     H70735  10.218  10.968   7.379 -0.5562 -0.8135 -3.8944
  524MOL0     H70736   9.989  10.776   7.343 -0.0452  1.6010  3.5458
  524MOL0     H70737  10.159  10.733   7.385 -0.4941  0.7433 -0.2284
  524MOL0     H70738  10.174  10.777   6.964  3.8555  0.5171  0.1357
  524MOL0     H70739  10.334  11.410   7.191  0.6362 -0.9217 -0.0616
  524MOL0     H70740  10.547  11.456   7.256  0.5728  1.2891  0.5158
  525MOL0     O70741   4.695   5.420   1.016  0.2068  0.2196  0.9087
  525MOL0     C70742   4.603   5.498   1.010  1.4844  0.6398 -0.1552
  525MOL0     O70743   4.522   5.525   0.905 -0.1241 -0.5780  0.4134
  525MOL0     C70744   4.540   5.453   0.787  0.5102  0.8934  0.5853
  525MOL0     C70745   4.636   5.502   0.698 -0.7874 -0.6851  0.3353
  525MOL0     C70746   4.655   5.450   0.572  0.0568  0.7391 -0.7032
  525MOL0     C70747   4.575   5.334   0.534  0.1604  0.6683 -0.8991
  525MOL0     O70748   4.586   5.279   0.408 -0.4758  0.2491 -0.0438
  525MOL0     C70749   4.515   5.334   0.297  0.2023 -0.1566 -0.1772
  525MOL0     C70750   4.530   5.241   0.173 -0.3803  0.4353  0.2563
  525MOL0     C70751   4.681   5.257   0.134  0.9246 -1.0525 -0.0649
  525MOL0     C70752   4.717   5.146   0.033  0.1951 -1.1279 -1.0810
  525MOL0     C70753   4.863   5.148  -0.018  0.2517 -0.3933 -0.0969
  525MOL0     C70754   4.972   5.148   0.089  0.8093  0.1819  0.7852
  525MOL0     C70755   5.105   5.150   0.014 -1.1908 -0.4739  0.2864
  525MOL0     C70756   5.229   5.151   0.105 -0.8160  0.2971  0.1886
  525MOL0     N70757   5.350   5.155   0.029 -0.5881 -1.5083  0.3733
  525MOL0     C70758   5.388   5.073  -0.074 -0.5590  0.5202  0.1966
  525MOL0     C70759   5.518   5.112  -0.099 -0.0048  0.6337 -0.5586
  525MOL0     C70760   5.615   5.031  -0.187 -0.0933 -0.1522  0.0454
  525MOL0     C70761   5.688   4.917  -0.112 -0.2967  0.3187 -0.4614
  525MOL0     C70762   5.603   4.792  -0.078  0.9413  0.2162  0.1753
  525MOL0     C70763   5.532   4.715  -0.187  0.1738 -0.0241  0.0541
  525MOL0     O70764   5.457   4.606  -0.129  0.2039 -0.0158 -0.0453
  525MOL0     C70765   5.404   4.507  -0.212  0.0698  0.0904  0.5293
  525MOL0     C70766   5.447   4.486  -0.347  0.4659  0.9093  0.8196
  525MOL0     C70767   5.384   4.381  -0.423 -0.6818 -0.1943 -0.1873
  525MOL0     C70768   5.438   4.362  -0.561 -0.8846  0.0204  0.4733
  525MOL0     C70769   5.286   4.296  -0.366 -0.1045  0.7005  0.3332
  525MOL0     C70770   5.238   4.174  -0.430  1.0570 -0.2301  0.0318
  525MOL0     O70771   5.208   4.183  -0.563 -0.0521 -1.4792  0.7200
  525MOL0     C70772   5.161   4.073  -0.629  0.3625  0.3177 -0.3283
  525MOL0     C70773   5.233   3.951  -0.636 -0.1611 -0.9791 -0.2444
  525MOL0     C70774   5.176   3.844  -0.691  0.2572 -0.6166  0.0438
  525MOL0     C70775   5.040   3.840  -0.743  0.2302  0.3004 -1.2245
  525MOL0     O70776   4.985   3.719  -0.771  0.4068  1.3526  0.1639
  525MOL0     C70777   4.910   3.724  -0.887  0.0658 -0.3073  0.8939
  525MOL0     C70778   4.954   3.606  -0.981  0.1439  0.3117  0.8920
  525MOL0     C70779   4.875   3.616  -1.113 -0.5890  0.5711 -0.2249
  525MOL0     C70780   4.727   3.604  -1.091 -0.6061 -0.0645 -0.7328
  525MOL0     C70781   4.647   3.569  -1.220 -1.0715  0.2428 -0.0552
  525MOL0     C70782   4.496   3.605  -1.197 -0.0030 -0.6032 -0.1565
  525MOL0     C70783   4.445   3.738  -1.260  0.4371  0.0995 -0.9023
  525MOL0     C70784   4.471   3.748  -1.409  0.3316  0.6953 -0.3605
  525MOL0    Cl70785   4.545   3.896  -1.461 -0.6918 -0.0248 -0.0024
  525MOL0     C70786   4.968   3.962  -0.734  0.0642 -0.6537 -0.8368
  525MOL0     C70787   5.034   4.076  -0.691  0.2722  0.3290  0.0925
  525MOL0     O70788   5.204   4.081  -0.356  0.1137  0.4043  0.3639
  525MOL0     C70789   5.262   4.313  -0.233  0.5315  0.1538  0.0847
  525MOL0     C70790   5.311   4.420  -0.155  0.3413  0.0664 -0.6545
  525MOL0     N70791   5.550   5.212  -0.011 -0.2944 -0.0463 -0.1130
  525MOL0     N70792   5.447   5.254   0.050  0.0700  0.5157 -0.5165
  525MOL0     C70793   4.478   5.279   0.617  0.6783 -0.3051 -0.4398
  525MOL0     C70794   4.461   5.334   0.745  0.3557 -0.3940 -0.2514
  525MOL0     C70795   4.583   5.577   1.136 -0.3966 -0.2617  0.6302
  525MOL0     C70796   4.661   5.555   1.253 -0.1029  0.8090 -0.4221
  525MOL0     C70797   4.644   5.626   1.365 -0.6334 -0.4323  0.4192
  525MOL0     C70798   4.540   5.715   1.373  0.2620  0.3686 -0.6013
  525MOL0     O70799   4.515   5.785   1.495 -0.5266 -0.5423  0.1787
  525MOL0     C70800   4.382   5.849   1.518  0.3997  0.6384  0.6123
  525MOL0     C70801   4.398   5.902   1.660  0.1558  0.7237  1.2287
  525MOL0     C70802   4.263   5.916   1.731  0.1704  0.2251  0.4216
  525MOL0     C70803   4.269   5.985   1.870  0.8875 -0.0663 -0.1168
  525MOL0     C70804   4.331   6.113   1.859 -0.3616  0.5085 -0.2203
  525MOL0     C70805   4.394   6.214   1.836 -0.1578  0.3358  0.3126
  525MOL0     C70806   4.473   5.748   1.258  0.7909 -0.1768  0.6361
  525MOL0     C70807   4.488   5.681   1.142  0.4126  0.0766  0.4909
  525MOL0     H70808   4.704   5.580   0.731 -2.7752  0.1084  2.8966
  525MOL0     H70809   4.734   5.486   0.508  0.9727  1.1978  0.6338
  525MOL0     H70810   4.410   5.350   0.324 -0.8979  1.2467 -4.4183
  525MOL0     H70811   4.559   5.433   0.283 -2.8235  1.2283 -0.5603
  525MOL0     H70812   4.522   5.138   0.210  0.3509  0.1025 -0.4805
  525MOL0     H70813   4.449   5.260   0.102 -0.3788 -0.7741 -0.0867
  525MOL0     H70814   4.708   5.354   0.090  2.2130 -0.8040  1.1933
  525MOL0     H70815   4.740   5.243   0.225  2.8889 -2.3640 -1.4621
  525MOL0     H70816   4.681   5.057   0.085 -1.0306  0.3757  0.7615
  525MOL0     H70817   4.663   5.145  -0.062  0.1832 -1.3037 -1.0718
  525MOL0     H70818   4.869   5.060  -0.082  2.0349 -1.6596  1.6479
  525MOL0     H70819   4.875   5.228  -0.091  0.4828 -0.5770 -0.2640
  525MOL0     H70820   4.949   5.232   0.155  1.2455 -0.5172  1.8710
  525MOL0     H70821   4.980   5.062   0.156 -1.5528  2.4078  4.2422
  525MOL0     H70822   5.110   5.060  -0.048 -4.4794  0.8999 -2.2287
  525MOL0     H70823   5.118   5.237  -0.052 -1.7438 -1.6600 -1.4461
  525MOL0     H70824   5.216   5.057   0.159 -1.8543  0.2858 -0.0604
  525MOL0     H70825   5.229   5.231   0.180 -2.0062  1.2470 -0.7885
  525MOL0     H70826   5.326   4.993  -0.115  0.0345  1.4446 -2.7383
  525MOL0     H70827   5.559   4.992  -0.272 -2.3558 -0.7892  1.7260
  525MOL0     H70828   5.693   5.096  -0.228 -1.4468  3.3868  2.5616
  525MOL0     H70829   5.715   4.950  -0.011 -3.1657 -3.0978  1.6826
  525MOL0     H70830   5.781   4.891  -0.163 -0.3439  1.3616 -1.1153
  525MOL0     H70831   5.530   4.833  -0.008 -0.4633 -1.2092 -0.4039
  525MOL0     H70832   5.666   4.718  -0.027  1.3147  2.2154  2.8170
  525MOL0     H70833   5.618   4.681  -0.245  0.5229 -0.9145  1.0562
  525MOL0     H70834   5.471   4.777  -0.254  1.7710  0.9511 -0.5450
  525MOL0     H70835   5.527   4.546  -0.390  1.0064 -0.8613 -0.8283
  525MOL0     H70836   5.501   4.447  -0.590 -0.9736  0.0390  0.3268
  525MOL0     H70837   5.484   4.265  -0.581 -0.3439  0.0646  1.4794
  525MOL0     H70838   5.347   4.365  -0.623 -2.7029 -1.9920  2.8444
  525MOL0     H70839   5.334   3.950  -0.598  0.0978  0.0753 -0.8754
  525MOL0     H70840   5.218   3.744  -0.697 -0.1239 -0.6683 -3.5787
  525MOL0     H70841   4.804   3.707  -0.865 -0.8167 -3.0554 -4.0613
  525MOL0     H70842   4.916   3.822  -0.936 -4.8129 -1.2247 -2.2124
  525MOL0     H70843   5.059   3.615  -1.010  0.0088 -0.6889  0.0446
  525MOL0     H70844   4.935   3.511  -0.929  1.3431 -0.2951  0.2660
  525MOL0     H70845   4.901   3.531  -1.177 -2.3294 -0.4744  0.3923
  525MOL0     H70846   4.888   3.715  -1.158  1.4142  0.8873  0.9614
  525MOL0     H70847   4.691   3.531  -1.018 -1.9254  0.6959 -0.5871
  525MOL0     H70848   4.686   3.698  -1.052 -0.7056 -0.8549  1.2039
  525MOL0     H70849   4.670   3.463  -1.233  0.9530  0.7042 -0.6682
  525MOL0     H70850   4.683   3.634  -1.301 -3.6566  1.4151 -0.3672
  525MOL0     H70851   4.426   3.525  -1.222  2.4169 -3.4114  1.3811
  525MOL0     H70852   4.486   3.615  -1.088  2.2582 -0.0068  0.0382
  525MOL0     H70853   4.501   3.811  -1.201 -0.3057  0.4788 -0.6545
  525MOL0     H70854   4.338   3.737  -1.238  0.5125 -1.8880 -0.4248
  525MOL0     H70855   4.378   3.749  -1.466 -1.9387  2.0389  3.0099
  525MOL0     H70856   4.532   3.662  -1.437 -2.2089 -1.3479  0.0320
  525MOL0     H70857   4.862   3.969  -0.753 -0.1991 -2.9413 -0.5105
  525MOL0     H70858   4.974   4.165  -0.702 -1.9780 -1.2883 -1.3582
  525MOL0     H70859   5.187   4.248  -0.188  0.3875 -0.7704 -1.4176
  525MOL0     H70860   5.275   4.446  -0.056  0.9349  0.7888 -0.6167
  525MOL0     H70861   4.411   5.202   0.579 -0.1674  0.3562 -0.3230
  525MOL0     H70862   4.379   5.300   0.807 -0.5144  2.1812  0.1302
  525MOL0     H70863   4.741   5.482   1.245  1.2638  2.2941 -1.0121
  525MOL0     H70864   4.700   5.599   1.454 -2.5462  0.2470  1.8990
  525MOL0     H70865   4.364   5.924   1.440  1.2748 -0.6793 -0.9124
  525MOL0     H70866   4.292   5.787   1.519 -0.2082  1.1385 -3.4065
  525MOL0     H70867   4.441   6.002   1.657  1.3857  0.1891 -0.0690
  525MOL0     H70868   4.458   5.835   1.722  1.4052  1.5013  0.8858
  525MOL0     H70869   4.219   5.816   1.740 -1.5993  1.0159  1.0089
  525MOL0     H70870   4.203   5.988   1.675 -1.7790 -0.1290  1.9487
  525MOL0     H70871   4.323   5.918   1.936  1.0420 -2.5317 -2.5581
  525MOL0     H70872   4.168   6.003   1.909  0.8948  2.0716 -0.9109
  525MOL0     H70873   4.445   6.302   1.803  1.5731  0.0118  1.9386
  525MOL0     H70874   4.386   5.813   1.261  0.6796 -0.3383  2.8697
  525MOL0     H70875   4.411   5.695   1.066  0.5409 -1.5618  0.0221
  526MOL0     O70876   9.228   5.204   2.046 -0.0028 -0.0351 -0.1624
  526MOL0     C70877   9.242   5.221   2.168  0.5698 -0.2680  0.1844
  526MOL0     O70878   9.225   5.327   2.234 -0.3439 -0.8751 -0.5018
  526MOL0     C70879   9.176   5.439   2.170 -0.6960 -1.0994 -1.0781
  526MOL0     C70880   9.042   5.462   2.167 -0.6171 -0.4070 -0.8717
  526MOL0     C70881   8.991   5.574   2.112 -0.6238 -0.3581 -0.7152
  526MOL0     C70882   9.073   5.671   2.061  0.2340 -0.5656  0.2616
  526MOL0     O70883   9.038   5.790   1.995 -0.3984  0.6160  0.5698
  526MOL0     C70884   8.908   5.817   1.949  0.8358 -1.3424  0.5254
  526MOL0     C70885   8.896   5.949   1.865 -0.2802 -0.0467 -0.3046
  526MOL0     C70886   8.973   5.939   1.734 -0.8593  0.1762  0.2378
  526MOL0     C70887   9.059   6.064   1.691 -0.4892  0.5178 -0.0211
  526MOL0     C70888   9.091   6.078   1.536 -0.8097  0.4926 -0.3053
  526MOL0     C70889   9.144   5.947   1.480  0.1991  0.2085 -0.0616
  526MOL0     C70890   9.191   5.952   1.332 -0.2213  0.6707 -0.1917
  526MOL0     C70891   9.261   5.824   1.281  0.5060 -0.5376 -0.7680
  526MOL0     N70892   9.274   5.826   1.132 -0.0127  0.1873 -0.2104
  526MOL0     C70893   9.315   5.934   1.061 -0.0354  0.4724 -0.0481
  526MOL0     C70894   9.350   5.889   0.941 -0.6138  0.6698 -0.0047
  526MOL0     C70895   9.408   5.977   0.825  0.7656  0.2265  0.0452
  526MOL0     C70896   9.549   6.002   0.859 -0.2841 -0.3329  1.1174
  526MOL0     C70897   9.621   6.084   0.741 -0.3699  1.2765 -0.3034
  526MOL0     C70898   9.757   6.140   0.796  0.3789  0.5254  0.3750
  526MOL0     O70899   9.725   6.242   0.889  0.1457 -0.8091 -0.4166
  526MOL0     C70900   9.820   6.312   0.958 -0.6433  0.2597  0.2119
  526MOL0     C70901   9.778   6.392   1.064  0.0848  1.0373 -0.2076
  526MOL0     C70902   9.868   6.468   1.139 -0.2432 -0.2015  0.0710
  526MOL0     C70903   9.798   6.561   1.237 -0.0414  0.1599  0.6457
  526MOL0     C70904  10.010   6.454   1.119 -0.1096  0.3282  0.0984
  526MOL0     C70905  10.112   6.528   1.203  0.5407  0.2543 -0.1044
  526MOL0     O70906  10.239   6.524   1.156 -0.8746  0.4265 -0.0986
  526MOL0     C70907  10.338   6.576   1.220  0.6878  0.2578 -0.2024
  526MOL0     C70908  10.374   6.536   1.341 -0.3158 -0.1199 -0.5267
  526MOL0     C70909  10.487   6.580   1.415  0.4027  0.3859  0.1292
  526MOL0     C70910  10.541   6.706   1.372 -0.6339 -0.7849  0.6052
  526MOL0     O70911  10.641   6.778   1.425 -0.1678 -0.0549  0.0896
  526MOL0     C70912  10.751   6.701   1.484  0.8730 -0.5066  0.0877
  526MOL0     C70913  10.874   6.771   1.418  0.6042 -0.8979 -0.4954
  526MOL0     C70914  10.952   6.858   1.517 -0.8673 -0.8343  0.2220
  526MOL0     C70915  11.083   6.914   1.455 -1.0729  0.7974 -0.5269
  526MOL0     C70916  11.159   7.014   1.547  0.2122 -0.4393  0.1896
  526MOL0     C70917  11.312   7.019   1.528 -0.1492 -0.1016  0.7021
  526MOL0     C70918  11.384   7.102   1.627 -0.7205 -0.7068 -0.2436
  526MOL0     C70919  11.538   7.082   1.624 -0.4161  0.0466  0.3916
  526MOL0    Cl70920  11.627   7.229   1.684  0.1678  0.1738 -0.1073
  526MOL0     C70921  10.499   6.753   1.240  1.1273 -0.2502 -0.9956
  526MOL0     C70922  10.394   6.690   1.169  1.0070  0.0792  0.7846
  526MOL0     O70923  10.074   6.584   1.307 -0.3880 -0.3280 -0.0417
  526MOL0     C70924  10.049   6.380   1.006  0.2505 -0.7831  0.2613
  526MOL0     C70925   9.959   6.316   0.927  0.5408 -0.2887 -0.3115
  526MOL0     N70926   9.342   5.751   0.946  1.0050  1.2438 -0.4719
  526MOL0     N70927   9.301   5.714   1.058 -0.0168 -0.3852  0.9977
  526MOL0     C70928   9.210   5.655   2.065  1.3046  0.6411 -0.3378
  526MOL0     C70929   9.268   5.541   2.127  0.0088  0.1892 -0.1276
  526MOL0     C70930   9.283   5.102   2.251  0.4650 -0.2221 -0.3816
  526MOL0     C70931   9.275   4.970   2.208 -0.5260  0.0726  0.8706
  526MOL0     C70932   9.309   4.858   2.286  0.5573 -0.4311 -0.6826
  526MOL0     C70933   9.353   4.871   2.418  0.4036 -0.3270 -0.0503
  526MOL0     O70934   9.373   4.768   2.500  0.0176  0.6252 -0.0469
  526MOL0     C70935   9.503   4.767   2.562 -0.8989  0.4514 -0.6725
  526MOL0     C70936   9.579   4.640   2.503  0.9355 -0.4466 -0.3175
  526MOL0     C70937   9.580   4.649   2.354  0.1752  0.2197  0.0968
  526MOL0     C70938   9.649   4.532   2.289 -0.4804 -0.5614 -1.0373
  526MOL0     C70939   9.623   4.536   2.142  0.5107 -0.8756  0.2425
  526MOL0     C70940   9.616   4.546   2.017 -0.2488  0.7738  0.2656
  526MOL0     C70941   9.360   5.002   2.467 -0.9793 -0.0598 -0.0520
  526MOL0     C70942   9.308   5.115   2.394  0.1045 -0.6230  0.2668
  526MOL0     H70943   8.980   5.382   2.205 -2.0398  1.5567  1.1871
  526MOL0     H70944   8.883   5.582   2.104 -1.0575 -4.3908 -0.8990
  526MOL0     H70945   8.868   5.731   1.894 -2.6603 -0.3446  1.2486
  526MOL0     H70946   8.839   5.819   2.034 -1.7350 -0.7972 -1.4631
  526MOL0     H70947   8.795   5.991   1.855  0.1588  1.2984  0.6516
  526MOL0     H70948   8.945   6.028   1.922  2.7585 -0.4015 -2.1718
  526MOL0     H70949   9.047   5.859   1.730 -2.4737 -1.3358 -1.4491
  526MOL0     H70950   8.896   5.912   1.661 -1.5745 -2.9069  1.9276
  526MOL0     H70951   9.013   6.150   1.741  0.3470  0.0959  1.5339
  526MOL0     H70952   9.160   6.053   1.731 -0.6309 -1.1087 -0.0302
  526MOL0     H70953   8.990   6.098   1.501 -1.8896 -1.3065  1.5722
  526MOL0     H70954   9.158   6.164   1.526  1.2043 -0.5876  2.3980
  526MOL0     H70955   9.236   5.923   1.534  1.2138 -1.3098 -2.2710
  526MOL0     H70956   9.064   5.873   1.473  0.0927  0.3312 -0.1380
  526MOL0     H70957   9.101   5.977   1.275 -0.3050  2.7375  0.7395
  526MOL0     H70958   9.251   6.042   1.315 -2.2558  1.8521 -1.4710
  526MOL0     H70959   9.204   5.734   1.304 -1.9567  1.0267 -0.3627
  526MOL0     H70960   9.361   5.812   1.325 -0.4356  2.2055  2.5464
  526MOL0     H70961   9.317   6.040   1.085 -0.8573  0.1627  1.5194
  526MOL0     H70962   9.407   5.933   0.724  0.3073 -0.7445  0.4602
  526MOL0     H70963   9.338   6.061   0.815 -1.0902 -1.4708 -2.8872
  526MOL0     H70964   9.599   5.905   0.865 -1.1374 -0.8425  0.2738
  526MOL0     H70965   9.557   6.056   0.953 -1.6354  1.7193  0.1340
  526MOL0     H70966   9.560   6.166   0.701  0.1340  1.8582  0.1053
  526MOL0     H70967   9.643   6.005   0.668 -1.9022 -0.8204  1.3741
  526MOL0     H70968   9.808   6.182   0.710  0.9151  0.8359  0.8420
  526MOL0     H70969   9.818   6.066   0.849 -1.5572 -0.1457  1.7751
  526MOL0     H70970   9.671   6.399   1.082  0.1706  3.0622 -0.1859
  526MOL0     H70971   9.784   6.514   1.335  0.5065 -1.9286 -0.2230
  526MOL0     H70972   9.852   6.656   1.236 -1.9533  1.2984 -0.3493
  526MOL0     H70973   9.699   6.579   1.194  0.8651  2.4165 -0.6693
  526MOL0     H70974  10.323   6.446   1.376  0.2135 -0.1959  0.0697
  526MOL0     H70975  10.519   6.525   1.502 -0.0457  1.5499  1.0653
  526MOL0     H70976  10.755   6.716   1.592 -1.4835  0.5362  0.0843
  526MOL0     H70977  10.764   6.595   1.459  0.2490 -0.2513 -1.4063
  526MOL0     H70978  10.934   6.704   1.356  0.5393 -1.7942  0.4045
  526MOL0     H70979  10.836   6.853   1.355  0.3532  1.2265  2.2352
  526MOL0     H70980  10.978   6.803   1.607 -2.1097 -2.0124 -0.1083
  526MOL0     H70981  10.905   6.951   1.551  2.4903  1.1949 -0.2364
  526MOL0     H70982  11.149   6.828   1.440 -1.8753 -0.1888  1.2408
  526MOL0     H70983  11.053   6.959   1.360  2.4600  1.7287 -1.3184
  526MOL0     H70984  11.151   6.995   1.655 -0.1850  0.2926  0.2987
  526MOL0     H70985  11.129   7.115   1.517  1.0101 -0.5427 -1.0316
  526MOL0     H70986  11.335   6.913   1.547  1.0756 -0.0455 -0.3393
  526MOL0     H70987  11.343   7.043   1.426 -2.4639 -1.7855 -0.5154
  526MOL0     H70988  11.354   7.084   1.731  0.4997  0.1882  0.2853
  526MOL0     H70989  11.345   7.202   1.608  0.6620  0.2675  1.6163
  526MOL0     H70990  11.571   7.058   1.522 -1.8934 -0.6967  0.0660
  526MOL0     H70991  11.569   6.999   1.689  0.2141 -0.9285 -1.0957
  526MOL0     H70992  10.543   6.841   1.193 -1.8795  2.5450  0.9902
  526MOL0     H70993  10.366   6.710   1.067  2.4928 -2.2690 -0.1737
  526MOL0     H70994  10.154   6.382   0.978  0.4325 -0.0214  0.9611
  526MOL0     H70995   9.998   6.262   0.841 -3.8230 -0.0325 -2.7283
  526MOL0     H70996   9.267   5.734   2.018  0.8046  1.3799  0.2840
  526MOL0     H70997   9.374   5.519   2.137 -0.0701  0.8744  4.6756
  526MOL0     H70998   9.232   4.953   2.109 -1.9389 -1.2480  1.6591
  526MOL0     H70999   9.278   4.759   2.255 -3.5734  0.2761  0.6704
  526MOL0     H71000   9.563   4.851   2.528  1.4627 -0.7015  0.3960
  526MOL0     H71001   9.494   4.752   2.670 -0.0484 -1.4856 -0.8280
  526MOL0     H71002   9.524   4.549   2.529 -0.1669 -0.3988 -2.2831
  526MOL0     H71003   9.681   4.643   2.543  0.9844 -0.6202 -0.4269
  526MOL0     H71004   9.629   4.743   2.329 -0.4538  0.9282  1.4494
  526MOL0     H71005   9.474   4.649   2.328 -0.5616 -1.1432  2.7793
  526MOL0     H71006   9.614   4.439   2.334  0.4986  0.1856  1.4478
  526MOL0     H71007   9.758   4.541   2.296 -0.4772  1.5580 -2.7200
  526MOL0     H71008   9.593   4.580   1.918  2.5409  2.8888  0.2238
  526MOL0     H71009   9.387   5.024   2.570  0.3440 -2.2449  0.1268
  526MOL0     H71010   9.307   5.209   2.448  3.7453  1.4574 -2.7608
  527MOL0     O71011   7.514   9.444  10.929 -0.9859 -0.1123 -0.5006
  527MOL0     C71012   7.505   9.450  10.810  1.6930  0.4063 -0.1750
  527MOL0     O71013   7.572   9.535  10.730 -0.4950  0.3979 -1.0708
  527MOL0     C71014   7.692   9.588  10.769  0.8854  0.2422  0.9643
  527MOL0     C71015   7.782   9.541  10.873 -0.3303  0.8206  0.2355
  527MOL0     C71016   7.887   9.625  10.899 -0.4289 -1.0593 -1.0795
  527MOL0     C71017   7.927   9.747  10.838 -0.1757  0.1952 -0.2291
  527MOL0     O71018   8.040   9.824  10.855 -0.1263  0.3499 -0.6159
  527MOL0     C71019   8.128   9.791  10.959 -0.8882 -0.3533 -1.0846
  527MOL0     C71020   8.255   9.876  10.949  0.3981  0.4497  0.0511
  527MOL0     C71021   8.236  10.028  10.968 -0.1191  0.5025  0.8106
  527MOL0     C71022   8.369  10.100  10.956  0.3237 -0.6598 -0.3881
  527MOL0     C71023   8.359  10.255  10.943 -0.6849  0.2809  0.1955
  527MOL0     C71024   8.491  10.327  10.927  0.5190  0.0936 -0.7866
  527MOL0     C71025   8.477  10.479  10.924 -0.3576  0.4848  0.6360
  527MOL0     C71026   8.603  10.564  10.905 -0.0746 -0.1815  0.0367
  527MOL0     N71027   8.573  10.701  10.873  0.1337  0.2633 -0.4690
  527MOL0     C71028   8.655  10.806  10.919 -0.1931  0.3176 -0.0541
  527MOL0     C71029   8.578  10.912  10.874  0.4476  0.0386 -0.4343
  527MOL0     C71030   8.615  11.054  10.901  0.4924 -0.1113 -0.9573
  527MOL0     C71031   8.631  11.090  11.044  0.6893 -0.0100 -0.7194
  527MOL0     C71032   8.497  11.104  11.126  0.0240  0.6846 -0.1473
  527MOL0     C71033   8.529  11.162  11.260  1.8347 -0.9732 -0.6406
  527MOL0     O71034   8.429  11.260  11.296  0.6547  0.0947 -0.9409
  527MOL0     C71035   8.320  11.214  11.376  0.6602 -0.7331  0.6278
  527MOL0     C71036   8.336  11.135  11.489  0.7519  0.5668  0.5493
  527MOL0     C71037   8.224  11.091  11.568  0.4409 -0.3569  0.4849
  527MOL0     C71038   8.239  11.001  11.686 -0.3706  0.0290 -0.1676
  527MOL0     C71039   8.094  11.131  11.522  0.1773 -0.9235 -0.8815
  527MOL0     C71040   7.975  11.079  11.592  0.6716  0.3928 -0.0078
  527MOL0     O71041   7.928  10.960  11.555  0.0022  0.2971 -0.3173
  527MOL0     C71042   7.830  10.887  11.626  0.0743  0.0854  0.1443
  527MOL0     C71043   7.741  10.937  11.731 -0.2936  0.1664  0.6958
  527MOL0     C71044   7.661  10.841  11.793 -0.5834 -0.0052 -0.7210
  527MOL0     C71045   7.668  10.704  11.766  0.1300  0.0311 -0.1154
  527MOL0     O71046   7.605  10.609  11.844  0.1339 -0.5141 -0.2605
  527MOL0     C71047   7.555  10.643  11.976  0.4177  0.1093  0.3110
  527MOL0     C71048   7.655  10.690  12.079 -0.4261 -0.2326 -0.9067
  527MOL0     C71049   7.574  10.732  12.207  0.0902 -1.0205 -0.1090
  527MOL0     C71050   7.671  10.792  12.314 -0.1890  0.3055 -0.3653
  527MOL0     C71051   7.749  10.911  12.273  0.4664  0.1006 -0.3816
  527MOL0     C71052   7.669  11.039  12.242  0.2898 -0.0821 -0.1447
  527MOL0     C71053   7.756  11.174  12.218 -0.1088  0.6439 -0.4174
  527MOL0     C71054   7.655  11.283  12.201  0.8368 -0.0414 -1.1373
  527MOL0    Cl71055   7.590  11.334  12.361  0.3902 -0.0232  0.1753
  527MOL0     C71056   7.758  10.663  11.660 -0.4421 -0.0461 -0.2201
  527MOL0     C71057   7.829  10.757  11.589 -0.2381  0.4033  0.2825
  527MOL0     O71058   7.916  11.163  11.654  0.0725 -0.5772 -0.0058
  527MOL0     C71059   8.078  11.212  11.410 -0.9156  0.9790  0.0482
  527MOL0     C71060   8.190  11.257  11.343  0.1092 -0.3829 -0.8941
  527MOL0     N71061   8.464  10.876  10.801 -0.1830 -0.1648 -0.0179
  527MOL0     N71062   8.460  10.742  10.807 -0.0081  0.2567 -0.0084
  527MOL0     C71063   7.847   9.776  10.736 -0.5301 -0.8864 -0.2648
  527MOL0     C71064   7.728   9.704  10.696  0.8503  1.0097 -0.0723
  527MOL0     C71065   7.397   9.366  10.746  0.0171  0.9030 -0.6129
  527MOL0     C71066   7.391   9.352  10.604 -0.0101 -1.2792  0.7235
  527MOL0     C71067   7.278   9.305  10.542  0.5664  0.1262 -0.3598
  527MOL0     C71068   7.163   9.255  10.610 -0.5306 -1.0795 -1.3497
  527MOL0     O71069   7.047   9.213  10.551  0.2340 -0.2800  0.4326
  527MOL0     C71070   6.970   9.107  10.622 -0.1120 -0.1953  0.1359
  527MOL0     C71071   6.888   9.019  10.524 -0.7823 -0.1546  0.2263
  527MOL0     C71072   6.831   8.898  10.592  0.4055 -0.7197 -0.1775
  527MOL0     C71073   6.719   8.832  10.507 -0.6771  0.5005 -0.4192
  527MOL0     C71074   6.761   8.825  10.365 -0.0121  0.6845  0.6697
  527MOL0     C71075   6.794   8.825  10.246 -0.8701  0.6164  0.0139
  527MOL0     C71076   7.185   9.244  10.749 -0.2973  0.0368  0.6122
  527MOL0     C71077   7.296   9.301  10.821  0.1557 -0.3982 -1.0076
  527MOL0     H71078   7.764   9.455  10.936 -1.1700  0.6247 -0.2577
  527MOL0     H71079   7.952   9.592  10.980  0.0589 -0.7406 -1.3402
  527MOL0     H71080   8.075   9.813  11.052 -1.9597 -0.0103 -1.7551
  527MOL0     H71081   8.161   9.687  10.967 -0.6307 -0.2889 -1.2980
  527MOL0     H71082   8.315   9.841  11.034 -0.6523  0.1770  0.6903
  527MOL0     H71083   8.298   9.851  10.851 -1.9319 -1.7133 -0.5378
  527MOL0     H71084   8.187  10.071  10.880  0.0076  5.0174  2.6964
  527MOL0     H71085   8.182  10.051  11.060 -0.9828 -1.2073  0.7654
  527MOL0     H71086   8.420  10.078  11.051 -0.0896 -0.9112 -0.2195
  527MOL0     H71087   8.425  10.060  10.872  0.8969 -0.3204 -0.1714
  527MOL0     H71088   8.305  10.269  10.849  0.5433 -0.3747 -0.6452
  527MOL0     H71089   8.303  10.305  11.022 -0.3620 -0.5961  0.9911
  527MOL0     H71090   8.548  10.293  11.014 -0.5867 -0.9979 -0.4587
  527MOL0     H71091   8.549  10.298  10.839  2.6729  2.2956 -0.2243
  527MOL0     H71092   8.414  10.484  10.835 -1.0278 -2.5835  0.8349
  527MOL0     H71093   8.407  10.521  10.997 -3.4644 -0.8449 -1.4225
  527MOL0     H71094   8.654  10.518  10.820  0.7670  0.0657  0.4004
  527MOL0     H71095   8.677  10.561  10.985  1.9944  0.3014 -1.7620
  527MOL0     H71096   8.747  10.807  10.976 -1.3707  1.1657  1.9476
  527MOL0     H71097   8.714  11.067  10.857  1.0134 -1.9813 -0.4224
  527MOL0     H71098   8.546  11.123  10.851  1.3318 -1.3804 -4.0979
  527MOL0     H71099   8.680  11.188  11.050 -1.4459  1.2047 -1.9356
  527MOL0     H71100   8.699  11.025  11.101  1.0520 -0.1727 -1.3334
  527MOL0     H71101   8.445  11.008  11.131 -0.1785  0.7771 -0.4155
  527MOL0     H71102   8.435  11.176  11.071  1.0029  1.1185 -0.7111
  527MOL0     H71103   8.615  11.230  11.252  0.1610  2.0994  3.9000
  527MOL0     H71104   8.544  11.079  11.329 -0.3690 -0.4774  0.5192
  527MOL0     H71105   8.436  11.108  11.520  0.6924 -0.8199 -0.3934
  527MOL0     H71106   8.316  10.925  11.673  2.3447  1.7767  3.6036
  527MOL0     H71107   8.281  11.062  11.767  0.4127 -0.1959 -0.4019
  527MOL0     H71108   8.142  10.968  11.725 -0.4260  3.6531  3.4631
  527MOL0     H71109   7.745  11.042  11.760  1.3962  0.3171  0.0030
  527MOL0     H71110   7.597  10.883  11.869 -0.4003  1.6485 -1.4382
  527MOL0     H71111   7.463  10.703  11.973  2.0245  2.7105 -1.9933
  527MOL0     H71112   7.505  10.551  12.009  1.0688 -1.1733 -1.9930
  527MOL0     H71113   7.727  10.609  12.094  1.0235  0.9064 -1.5253
  527MOL0     H71114   7.704  10.778  12.038 -0.1873 -1.3862 -3.2629
  527MOL0     H71115   7.532  10.635  12.235 -3.1496 -1.0231 -4.0157
  527MOL0     H71116   7.493  10.802  12.181  1.9146  0.9240 -0.8060
  527MOL0     H71117   7.603  10.818  12.396  0.1112 -1.7485  0.6156
  527MOL0     H71118   7.739  10.710  12.338 -0.7877 -0.3934 -1.0108
  527MOL0     H71119   7.817  10.890  12.191 -1.3649  1.8690 -2.4781
  527MOL0     H71120   7.819  10.934  12.354  0.0134 -0.3680  0.1513
  527MOL0     H71121   7.618  11.009  12.150  0.6479  3.5768 -1.7038
  527MOL0     H71122   7.607  11.072  12.326  4.3035  6.6112  0.9232
  527MOL0     H71123   7.825  11.163  12.134  2.5965 -0.8072  1.8200
  527MOL0     H71124   7.819  11.189  12.306  0.3972 -2.2158 -0.1860
  527MOL0     H71125   7.574  11.248  12.137  1.4562  0.3121 -2.1552
  527MOL0     H71126   7.702  11.366  12.148  0.0555  0.5293 -0.9415
  527MOL0     H71127   7.769  10.557  11.640  1.2191 -0.2368  1.4579
  527MOL0     H71128   7.888  10.732  11.503 -0.9209  0.7601 -0.3016
  527MOL0     H71129   7.981  11.246  11.376 -0.9787 -1.3455 -2.5012
  527MOL0     H71130   8.195  11.323  11.257  1.0071  1.5033  0.5408
  527MOL0     H71131   7.878   9.859  10.673  0.1903  0.5240  1.8558
  527MOL0     H71132   7.650   9.723  10.623 -0.8368 -4.4761 -0.1392
  527MOL0     H71133   7.469   9.401  10.547 -0.5511  3.3550  3.4470
  527MOL0     H71134   7.287   9.314  10.434 -0.1125  2.5931 -0.2578
  527MOL0     H71135   7.046   9.041  10.665  4.4458  2.5397 -2.8070
  527MOL0     H71136   6.912   9.154  10.701  2.7329  2.6108  0.7424
  527MOL0     H71137   6.958   9.002  10.442 -1.5499  1.4435 -0.8168
  527MOL0     H71138   6.811   9.088  10.488 -1.8338 -0.6096  1.5080
  527MOL0     H71139   6.776   8.907  10.686  1.2632 -2.3383  0.5142
  527MOL0     H71140   6.915   8.831  10.606 -0.1268 -1.0911  1.4622
  527MOL0     H71141   6.626   8.890  10.508 -0.3051  1.1300 -1.5187
  527MOL0     H71142   6.698   8.735  10.552  1.8949 -0.0628 -0.2610
  527MOL0     H71143   6.809   8.831  10.140 -2.6509 -0.1226 -0.3352
  527MOL0     H71144   7.112   9.199  10.816  1.6893 -1.1521  2.0774
  527MOL0     H71145   7.316   9.308  10.928  2.8142  0.4222 -1.4706
  528MOL0     O71146   1.378   7.655   1.163  0.0021  0.1005  0.5146
  528MOL0     C71147   1.268   7.703   1.133  0.9907  0.3234 -0.1778
  528MOL0     O71148   1.250   7.817   1.064 -0.4809 -0.1515  0.7879
  528MOL0     C71149   1.354   7.899   1.011 -0.2720  0.2339 -0.2438
  528MOL0     C71150   1.368   7.904   0.869 -0.3918  0.1284 -0.2525
  528MOL0     C71151   1.472   7.984   0.819 -0.5902 -0.1031  0.1050
  528MOL0     C71152   1.555   8.055   0.906 -0.1163 -0.2262 -0.1143
  528MOL0     O71153   1.639   8.152   0.851  0.6277  0.1130  0.0223
  528MOL0     C71154   1.587   8.239   0.754 -0.0865  0.1026 -0.5697
  528MOL0     C71155   1.474   8.334   0.810  0.6564 -0.2674  0.4098
  528MOL0     C71156   1.481   8.484   0.755 -0.5907 -0.4442 -0.9789
  528MOL0     C71157   1.579   8.577   0.833  1.2603  0.3883  0.5660
  528MOL0     C71158   1.583   8.715   0.761  0.4078 -0.2511 -0.4104
  528MOL0     C71159   1.658   8.813   0.862 -0.2411  0.0994  0.1331
  528MOL0     C71160   1.692   8.941   0.794 -0.6245 -0.0208  0.9438
  528MOL0     C71161   1.836   8.965   0.771 -0.3595 -0.5706  1.0571
  528MOL0     N71162   1.881   8.860   0.670 -0.3433  0.0549 -0.3668
  528MOL0     C71163   1.912   8.899   0.539  0.1816 -0.9622 -1.3107
  528MOL0     C71164   1.980   8.792   0.492 -0.4346 -0.3644  1.5342
  528MOL0     C71165   2.025   8.778   0.341  0.5843 -0.7216 -0.9159
  528MOL0     C71166   2.015   8.632   0.291  0.4093  0.3756 -0.1368
  528MOL0     C71167   2.081   8.602   0.151 -0.0127 -0.5492  0.7067
  528MOL0     C71168   1.985   8.629   0.028 -0.3747 -0.4038  0.3366
  528MOL0     O71169   1.893   8.517   0.050 -0.4192  0.2901  0.0469
  528MOL0     C71170   1.770   8.544  -0.013  0.4942  0.6922  0.0227
  528MOL0     C71171   1.667   8.462   0.034 -0.3832  0.4831 -0.8691
  528MOL0     C71172   1.536   8.483  -0.008  0.4616  0.0771  0.7054
  528MOL0     C71173   1.426   8.426   0.093  0.5338  0.3342 -0.2933
  528MOL0     C71174   1.505   8.578  -0.106  0.5341 -0.6200  1.2284
  528MOL0     C71175   1.371   8.593  -0.165 -0.5936  0.4741 -0.0429
  528MOL0     O71176   1.286   8.484  -0.165  0.6561  0.3656 -0.4304
  528MOL0     C71177   1.166   8.508  -0.230  0.1120  0.1907 -0.3895
  528MOL0     C71178   1.056   8.537  -0.161  0.0571  0.0567  0.5274
  528MOL0     C71179   0.934   8.570  -0.211 -0.4134  0.3967  0.4039
  528MOL0     C71180   0.924   8.575  -0.342  1.1989 -0.3118 -0.1705
  528MOL0     O71181   0.806   8.629  -0.393 -0.1634 -0.0707  0.2842
  528MOL0     C71182   0.816   8.715  -0.512  0.0945  0.4947 -0.2833
  528MOL0     C71183   0.736   8.839  -0.505  0.8290 -0.1212 -0.8699
  528MOL0     C71184   0.732   8.915  -0.368 -0.2136  1.1079  0.6948
  528MOL0     C71185   0.659   9.039  -0.392  0.9812  0.4372  0.1584
  528MOL0     C71186   0.505   9.041  -0.386 -0.3938  0.0772 -1.0440
  528MOL0     C71187   0.460   9.180  -0.443 -0.4799 -0.1096  0.3684
  528MOL0     C71188   0.310   9.198  -0.410 -0.3688  0.1416  0.2660
  528MOL0     C71189   0.246   9.326  -0.469 -0.2895  0.0425 -0.3755
  528MOL0    Cl71190   0.276   9.344  -0.638  0.4129  0.5388  0.0926
  528MOL0     C71191   1.033   8.545  -0.422 -0.1224  0.8154  1.1311
  528MOL0     C71192   1.154   8.497  -0.366  0.3956  0.2721  0.6605
  528MOL0     O71193   1.347   8.708  -0.204  0.2285  0.6580 -0.3614
  528MOL0     C71194   1.606   8.669  -0.144 -0.2752 -0.4774 -0.6256
  528MOL0     C71195   1.741   8.642  -0.107 -0.0058  0.0247  0.0158
  528MOL0     N71196   2.013   8.704   0.590  0.7928  1.0247  0.4425
  528MOL0     N71197   1.955   8.747   0.699  0.0245 -0.4608 -0.1884
  528MOL0     C71198   1.546   8.052   1.043  1.0017  0.2481 -0.0091
  528MOL0     C71199   1.444   7.974   1.098  0.3123  0.4440 -0.3540
  528MOL0     C71200   1.152   7.642   1.207  0.5980  1.0216  0.1617
  528MOL0     C71201   1.025   7.695   1.186 -0.3961 -0.2185  0.1241
  528MOL0     C71202   0.916   7.657   1.263 -0.1955  0.0642 -1.0313
  528MOL0     C71203   0.927   7.535   1.340  0.4482 -0.3201  1.4261
  528MOL0     O71204   0.824   7.477   1.415  0.3625  0.3812 -0.2562
  528MOL0     C71205   0.697   7.554   1.420 -0.5788  0.9060  0.1317
  528MOL0     C71206   0.608   7.488   1.532 -0.0937  0.0142  0.4352
  528MOL0     C71207   0.533   7.363   1.476 -0.1891  0.0929 -0.0709
  528MOL0     C71208   0.467   7.276   1.587  1.4888  0.0205 -0.5370
  528MOL0     C71209   0.409   7.152   1.520 -0.1736 -0.1651  0.1642
  528MOL0     C71210   0.379   7.056   1.456 -1.4361  0.0334  0.4141
  528MOL0     C71211   1.048   7.466   1.338  0.2596 -1.2355 -0.2070
  528MOL0     C71212   1.164   7.519   1.273  0.2745  0.3351 -1.7697
  528MOL0     H71213   1.316   7.846   0.794  0.5052  0.4734 -1.1673
  528MOL0     H71214   1.481   7.989   0.711  0.8726 -0.2089  0.2033
  528MOL0     H71215   1.675   8.288   0.710  2.0808 -1.1342  2.0995
  528MOL0     H71216   1.549   8.189   0.665 -0.7851 -2.2475  0.9703
  528MOL0     H71217   1.377   8.302   0.771  0.6516  1.0808 -0.7416
  528MOL0     H71218   1.478   8.329   0.919  0.1834  2.2435  0.5970
  528MOL0     H71219   1.511   8.474   0.651  0.9990  4.7608 -1.2886
  528MOL0     H71220   1.386   8.537   0.747  1.1668  2.7994 -2.0556
  528MOL0     H71221   1.530   8.604   0.927  1.0239 -0.5942  0.7371
  528MOL0     H71222   1.675   8.536   0.865  1.2275 -0.8505 -0.8058
  528MOL0     H71223   1.632   8.702   0.664  0.6409 -0.5695 -0.2503
  528MOL0     H71224   1.477   8.739   0.745  0.6722 -0.1782 -2.3311
  528MOL0     H71225   1.626   8.830   0.965  2.4018  0.2308  1.0105
  528MOL0     H71226   1.756   8.765   0.867  0.0253 -0.2055 -4.1966
  528MOL0     H71227   1.641   8.944   0.698 -0.3425  0.7469  0.8075
  528MOL0     H71228   1.656   9.031   0.845 -1.6334  1.4250 -2.0733
  528MOL0     H71229   1.901   8.957   0.858  3.6698  1.5599 -1.4824
  528MOL0     H71230   1.860   9.065   0.735  2.6871 -0.3773  3.3164
  528MOL0     H71231   1.875   8.988   0.488  0.7985  0.1716  0.1390
  528MOL0     H71232   1.958   8.842   0.283  0.2730 -0.8642 -0.7199
  528MOL0     H71233   2.123   8.823   0.324  0.4893  0.2366  0.7866
  528MOL0     H71234   1.912   8.595   0.286  0.2424  0.9781 -1.5740
  528MOL0     H71235   2.079   8.568   0.352 -0.6339 -0.6992 -0.1423
  528MOL0     H71236   2.124   8.502   0.139 -2.9141 -1.6694 -1.5652
  528MOL0     H71237   2.165   8.670   0.140  1.0748 -2.2502 -3.3644
  528MOL0     H71238   2.024   8.635  -0.073  1.3812 -1.1418  0.9233
  528MOL0     H71239   1.937   8.726   0.042 -1.1388 -0.7833  0.4432
  528MOL0     H71240   1.690   8.390   0.111  1.8875  1.6037 -0.3828
  528MOL0     H71241   1.363   8.511   0.119  0.3173 -0.2244  1.0925
  528MOL0     H71242   1.369   8.349   0.039  2.4389 -1.3889 -0.0112
  528MOL0     H71243   1.474   8.382   0.181 -1.5736  1.0142  1.2819
  528MOL0     H71244   1.073   8.529  -0.054  3.2593 -0.0846  0.1097
  528MOL0     H71245   0.851   8.590  -0.145 -0.2019  3.3548 -0.0551
  528MOL0     H71246   0.922   8.733  -0.530  0.7219 -0.1948  2.2558
  528MOL0     H71247   0.786   8.656  -0.599 -0.0710  1.5282 -0.9382
  528MOL0     H71248   0.750   8.906  -0.590 -0.7609  1.3488 -0.0393
  528MOL0     H71249   0.632   8.804  -0.501 -1.4790  5.6772  2.8835
  528MOL0     H71250   0.832   8.953  -0.344 -0.4673  3.5720 -1.6413
  528MOL0     H71251   0.685   8.855  -0.289 -2.6966 -0.6510 -1.9197
  528MOL0     H71252   0.678   9.101  -0.304  0.1363  1.7482 -0.5508
  528MOL0     H71253   0.692   9.092  -0.482 -1.4568 -1.6845 -2.1560
  528MOL0     H71254   0.464   9.031  -0.285 -3.1974 -1.3352 -2.1948
  528MOL0     H71255   0.458   8.963  -0.447 -0.6391  0.9463 -2.0070
  528MOL0     H71256   0.515   9.259  -0.390  1.2877 -2.6685  2.6824
  528MOL0     H71257   0.481   9.181  -0.550  1.4858  2.8390  0.6591
  528MOL0     H71258   0.292   9.195  -0.302 -2.9303 -2.4129 -0.0847
  528MOL0     H71259   0.254   9.107  -0.434 -0.0982 -0.3812  1.5308
  528MOL0     H71260   0.293   9.402  -0.405 -0.6688 -1.2979  1.6072
  528MOL0     H71261   0.139   9.333  -0.450 -0.2917  0.5891 -0.5981
  528MOL0     H71262   1.032   8.548  -0.531 -0.9335 -2.0589  0.9812
  528MOL0     H71263   1.237   8.464  -0.428  1.2482 -1.0618  2.4024
  528MOL0     H71264   1.583   8.744  -0.219  0.8906  1.7180  1.0632
  528MOL0     H71265   1.818   8.699  -0.157  1.0533 -0.1826  1.3566
  528MOL0     H71266   1.620   8.115   1.091  2.0562 -1.5998  0.8628
  528MOL0     H71267   1.436   7.948   1.203 -1.6345  2.7933  0.1588
  528MOL0     H71268   0.999   7.779   1.122  0.1470  0.1128  0.3221
  528MOL0     H71269   0.819   7.707   1.270 -0.3142 -0.4087  1.4691
  528MOL0     H71270   0.719   7.656   1.452  0.0921  0.2271  1.9842
  528MOL0     H71271   0.651   7.545   1.321 -1.7891 -1.8107  0.8365
  528MOL0     H71272   0.534   7.558   1.572  0.0485  0.9979 -0.9449
  528MOL0     H71273   0.671   7.461   1.617  0.7497 -3.1284 -1.0103
  528MOL0     H71274   0.600   7.298   1.419  1.6225  0.0903  1.9619
  528MOL0     H71275   0.452   7.399   1.411  0.7233  1.6603 -0.4097
  528MOL0     H71276   0.396   7.323   1.656  0.3899 -3.8747  1.2632
  528MOL0     H71277   0.550   7.245   1.653 -0.2017 -2.9245  0.3786
  528MOL0     H71278   0.347   6.974   1.394  0.0970 -1.8030  1.9293
  528MOL0     H71279   1.046   7.366   1.380 -5.7766 -1.4480 -0.1644
  528MOL0     H71280   1.265   7.478   1.284 -0.3349 -0.9634 -0.6531
  529MOL0     O71281   7.802   5.019   5.956  0.5134 -0.1999  0.1203
  529MOL0     C71282   7.791   5.079   6.066  0.5609 -0.0277  1.2388
  529MOL0     O71283   7.757   5.198   6.078 -0.3124  0.1544  0.1955
  529MOL0     C71284   7.716   5.277   5.970 -0.4040 -0.3136 -0.4190
  529MOL0     C71285   7.813   5.340   5.893  0.3936  0.5890  0.1141
  529MOL0     C71286   7.776   5.429   5.789  0.4343  0.2251 -0.1811
  529MOL0     C71287   7.643   5.454   5.759  0.0116 -1.2580 -0.3187
  529MOL0     O71288   7.601   5.540   5.661  0.5294  0.8771  0.1217
  529MOL0     C71289   7.688   5.604   5.561 -0.5262  0.2417  0.6139
  529MOL0     C71290   7.601   5.674   5.458  1.1344 -0.2491 -0.9370
  529MOL0     C71291   7.527   5.799   5.514  1.5434 -1.1377  0.2130
  529MOL0     C71292   7.416   5.829   5.408  0.6065  0.0524 -0.0717
  529MOL0     C71293   7.458   5.886   5.276  0.6770 -0.1858  0.3900
  529MOL0     C71294   7.531   6.012   5.301  0.4241 -1.0817 -0.3211
  529MOL0     C71295   7.556   6.086   5.169 -0.4453 -0.7152  0.4729
  529MOL0     C71296   7.605   5.989   5.043  0.7366 -0.1440 -0.0320
  529MOL0     N71297   7.744   5.952   5.057 -0.1585 -0.7784 -0.6248
  529MOL0     C71298   7.846   5.990   4.980 -0.6058  0.3907  0.3492
  529MOL0     C71299   7.948   5.901   5.003  0.1860  0.4213  0.6017
  529MOL0     C71300   8.076   5.902   4.935  0.4920 -0.5629  0.2860
  529MOL0     C71301   8.100   5.768   4.853  0.3370 -0.2568  0.6923
  529MOL0     C71302   8.245   5.750   4.794  0.0220 -1.0249  0.2775
  529MOL0     C71303   8.249   5.619   4.715  0.7287  0.0941 -0.0015
  529MOL0     O71304   8.185   5.616   4.580 -0.3041  0.1287  0.3868
  529MOL0     C71305   8.256   5.559   4.473  0.4267 -0.0759  0.1144
  529MOL0     C71306   8.238   5.612   4.347 -0.6996 -0.5250 -0.0834
  529MOL0     C71307   8.301   5.557   4.229  0.6802  0.3663 -0.3409
  529MOL0     C71308   8.287   5.638   4.099 -0.9208  0.8517  0.1365
  529MOL0     C71309   8.379   5.436   4.234  0.6846  0.2526  0.0695
  529MOL0     C71310   8.462   5.361   4.125  0.7230  0.4294 -0.5334
  529MOL0     O71311   8.460   5.228   4.139  0.8752  0.1360 -0.1187
  529MOL0     C71312   8.504   5.143   4.048  0.6952  0.0353  1.2103
  529MOL0     C71313   8.494   5.167   3.908  0.4975  0.8711 -0.7721
  529MOL0     C71314   8.541   5.079   3.815  0.5997  0.8564 -0.4863
  529MOL0     C71315   8.619   4.971   3.861  0.4598  0.6579  0.1515
  529MOL0     O71316   8.688   4.910   3.772 -0.2098  0.5343 -0.0755
  529MOL0     C71317   8.639   4.776   3.750  0.6481  0.0375  0.1509
  529MOL0     C71318   8.722   4.719   3.628  0.9312 -0.4051  0.0847
  529MOL0     C71319   8.839   4.652   3.696  0.5429  0.0699 -0.8230
  529MOL0     C71320   8.936   4.622   3.577 -0.6807  0.8182 -0.4845
  529MOL0     C71321   9.066   4.555   3.614  0.1355  0.0288 -1.7727
  529MOL0     C71322   9.059   4.404   3.607  0.0397 -0.2762  0.4199
  529MOL0     C71323   9.203   4.340   3.623  0.4155 -0.4544  1.1506
  529MOL0     C71324   9.258   4.352   3.764 -0.0279  1.0020  0.0312
  529MOL0    Cl71325   9.426   4.288   3.753 -0.1416  0.7185  0.6689
  529MOL0     C71326   8.639   4.951   3.991  0.1581  0.2790  0.5110
  529MOL0     C71327   8.572   5.034   4.086 -0.0274 -0.8027 -0.1445
  529MOL0     O71328   8.500   5.422   4.028 -0.3043 -0.2969  0.2109
  529MOL0     C71329   8.399   5.387   4.373 -0.4319 -0.1415 -0.0007
  529MOL0     C71330   8.336   5.444   4.485  0.2174  0.3971  0.1786
  529MOL0     N71331   7.894   5.815   5.108  0.2940 -0.5838  0.2015
  529MOL0     N71332   7.783   5.847   5.137  0.2435  1.1423 -0.4358
  529MOL0     C71333   7.545   5.385   5.826  0.7795  0.5940 -0.1125
  529MOL0     C71334   7.579   5.293   5.930  0.4789  0.8947  0.9916
  529MOL0     C71335   7.833   5.006   6.182 -0.1290  0.1633 -0.6535
  529MOL0     C71336   7.887   4.877   6.163  0.7918 -0.5555  0.2288
  529MOL0     C71337   7.895   4.793   6.273  0.5336 -0.6205 -0.4501
  529MOL0     C71338   7.878   4.848   6.408  0.0066 -0.9019  0.0989
  529MOL0     O71339   7.897   4.789   6.529  0.2352  0.6742 -0.5851
  529MOL0     C71340   7.916   4.645   6.518 -0.2685  0.6061 -1.5527
  529MOL0     C71341   7.937   4.601   6.670  0.6746  0.5909  0.5462
  529MOL0     C71342   8.065   4.642   6.745  0.0340  1.0117 -0.8105
  529MOL0     C71343   8.046   4.637   6.894 -0.0368  0.8956 -0.0139
  529MOL0     C71344   8.168   4.671   6.975 -0.4675  0.8126  0.0493
  529MOL0     C71345   8.273   4.697   7.033  0.4589  0.4043  0.2966
  529MOL0     C71346   7.840   4.983   6.423  0.8835  0.1497  0.6446
  529MOL0     C71347   7.828   5.059   6.305  0.1572 -0.0235 -0.3191
  529MOL0     H71348   7.916   5.342   5.929  0.1562  3.3321  0.8784
  529MOL0     H71349   7.850   5.487   5.734  3.0750 -0.8336  2.0053
  529MOL0     H71350   7.739   5.678   5.623 -0.5352 -1.5115  2.8632
  529MOL0     H71351   7.767   5.538   5.523 -0.3067 -0.3273  1.9922
  529MOL0     H71352   7.667   5.676   5.372  2.0095 -1.4295 -0.3230
  529MOL0     H71353   7.530   5.604   5.413 -0.1260  0.6153 -0.3770
  529MOL0     H71354   7.481   5.789   5.613 -3.4269  1.4928 -1.4312
  529MOL0     H71355   7.595   5.882   5.532 -0.4869  0.2010  2.4257
  529MOL0     H71356   7.360   5.736   5.400 -2.5816  1.2200  4.4726
  529MOL0     H71357   7.351   5.900   5.459  1.1118  0.6703 -0.2708
  529MOL0     H71358   7.517   5.820   5.211  0.4906 -0.9431  0.9748
  529MOL0     H71359   7.374   5.912   5.211 -0.2563 -2.3771  0.6184
  529MOL0     H71360   7.470   6.076   5.364 -1.2087 -0.3860 -2.4944
  529MOL0     H71361   7.628   5.995   5.348  1.1977  1.1275 -1.0219
  529MOL0     H71362   7.463   6.141   5.153  1.5145  3.0217  0.7252
  529MOL0     H71363   7.632   6.160   5.197 -0.8053  0.0801 -0.5796
  529MOL0     H71364   7.605   6.044   4.948 -1.0015  1.8933  1.0529
  529MOL0     H71365   7.537   5.906   5.029  0.7818 -0.0371 -0.9280
  529MOL0     H71366   7.839   6.071   4.908 -0.2190  0.7169  0.6716
  529MOL0     H71367   8.092   5.985   4.866 -0.5478 -0.0558  0.6535
  529MOL0     H71368   8.146   5.909   5.018 -1.7297  3.4448  2.0957
  529MOL0     H71369   8.030   5.759   4.769 -0.3366 -2.4757  1.4112
  529MOL0     H71370   8.078   5.683   4.918  1.6755 -1.3074 -0.2022
  529MOL0     H71371   8.307   5.745   4.885 -0.1380 -2.9401  0.3223
  529MOL0     H71372   8.296   5.827   4.736  1.7948 -1.5906  1.0078
  529MOL0     H71373   8.213   5.533   4.770 -2.0087  1.1085 -0.0582
  529MOL0     H71374   8.358   5.608   4.703  0.6355 -0.6743 -0.1692
  529MOL0     H71375   8.181   5.704   4.335 -1.5107 -0.9646  0.3797
  529MOL0     H71376   8.381   5.676   4.057  0.3339 -0.2290  1.8366
  529MOL0     H71377   8.255   5.574   4.016 -2.1142  0.7744  0.6473
  529MOL0     H71378   8.230   5.731   4.112  2.4041  3.2808 -1.1937
  529MOL0     H71379   8.428   5.250   3.882  2.4178  2.3340 -1.2430
  529MOL0     H71380   8.527   5.090   3.708  2.5927 -1.4993 -1.0945
  529MOL0     H71381   8.642   4.712   3.838  0.5171 -2.2367 -1.4272
  529MOL0     H71382   8.535   4.785   3.719  1.1164  2.9923 -0.9475
  529MOL0     H71383   8.652   4.646   3.584 -0.7560  0.4976  1.1592
  529MOL0     H71384   8.746   4.795   3.553  2.1617  1.2883  2.0979
  529MOL0     H71385   8.828   4.556   3.748  0.8622 -0.6570 -2.0722
  529MOL0     H71386   8.889   4.723   3.762  1.9161 -0.4710 -1.2614
  529MOL0     H71387   8.894   4.550   3.505  2.3855 -1.5392 -0.1301
  529MOL0     H71388   8.973   4.715   3.533  3.4812 -0.4706 -0.1082
  529MOL0     H71389   9.097   4.598   3.710  2.9300  0.0972 -2.6036
  529MOL0     H71390   9.146   4.591   3.548  1.8534 -1.4870 -0.5913
  529MOL0     H71391   8.998   4.368   3.690  0.0588  0.4913  0.7763
  529MOL0     H71392   9.019   4.378   3.509  1.1643 -0.9848  0.1309
  529MOL0     H71393   9.278   4.390   3.561 -2.0861  2.0816 -0.0447
  529MOL0     H71394   9.195   4.234   3.600  0.4793 -0.5760  1.6723
  529MOL0     H71395   9.203   4.296   3.840 -0.3334  0.6058 -0.4764
  529MOL0     H71396   9.259   4.458   3.791 -3.0799  1.1698 -0.1774
  529MOL0     H71397   8.708   4.877   4.030  1.9042  2.5486  1.9874
  529MOL0     H71398   8.576   5.016   4.193 -0.1697 -4.0902 -0.5867
  529MOL0     H71399   8.464   5.302   4.385 -1.2193 -0.9932 -1.4674
  529MOL0     H71400   8.352   5.410   4.587  1.8594  0.4294 -0.0455
  529MOL0     H71401   7.439   5.386   5.802  0.4762  2.4759  1.1121
  529MOL0     H71402   7.494   5.251   5.983  0.8592 -1.8760 -0.4557
  529MOL0     H71403   7.905   4.843   6.061 -0.5647 -1.7903  0.3729
  529MOL0     H71404   7.920   4.688   6.262 -2.3748 -1.4543 -0.0374
  529MOL0     H71405   7.829   4.586   6.488 -1.2073 -2.1141  4.8787
  529MOL0     H71406   8.012   4.626   6.469 -0.0520  0.5463 -1.1102
  529MOL0     H71407   7.921   4.493   6.685 -0.5900  0.6503 -0.2783
  529MOL0     H71408   7.860   4.656   6.725  1.6550  3.3582 -0.6663
  529MOL0     H71409   8.085   4.749   6.742  0.5693  0.9199 -0.7158
  529MOL0     H71410   8.148   4.582   6.706  0.5030 -0.3048  1.9333
  529MOL0     H71411   8.007   4.538   6.921  0.0478  1.2068  1.3002
  529MOL0     H71412   7.965   4.705   6.922  0.2011  0.7159  1.1421
  529MOL0     H71413   8.344   4.726   7.107  0.0645  3.5470 -0.4274
  529MOL0     H71414   7.825   5.041   6.514  0.2203  1.9192 -0.5196
  529MOL0     H71415   7.779   5.154   6.323  0.3077  0.0806 -0.4516
  530MOL0     O71416  10.434   9.659   2.884 -0.9695 -0.2012  0.3266
  530MOL0     C71417  10.423   9.665   2.759 -0.1234  0.3806 -0.4703
  530MOL0     O71418  10.533   9.652   2.674 -0.5414 -0.0758  0.1738
  530MOL0     C71419  10.655   9.636   2.734  1.6228  0.3075  0.3736
  530MOL0     C71420  10.713   9.745   2.807  0.6569  0.2849 -0.0463
  530MOL0     C71421  10.843   9.730   2.855  0.2738  1.2141 -0.3333
  530MOL0     C71422  10.914   9.606   2.839 -0.7408  0.6136  0.6597
  530MOL0     O71423  11.046   9.593   2.873  0.4447 -0.1746  0.0554
  530MOL0     C71424  11.107   9.672   2.987  0.1416 -0.8510 -0.0531
  530MOL0     C71425  11.249   9.623   3.033 -0.0724  0.6747  0.2230
  530MOL0     C71426  11.300   9.704   3.147  0.7109 -0.0512 -0.5683
  530MOL0     C71427  11.442   9.678   3.193  0.8528  0.9190 -0.4803
  530MOL0     C71428  11.471   9.729   3.335 -0.4822  0.3748  0.2749
  530MOL0     C71429  11.615   9.715   3.385  0.0691 -0.0625 -0.5157
  530MOL0     C71430  11.652   9.576   3.432 -0.3711  0.1837 -1.0147
  530MOL0     C71431  11.580   9.538   3.572 -0.1918  0.5066 -0.8737
  530MOL0     N71432  11.654   9.437   3.644  0.4566  1.2437  0.6840
  530MOL0     C71433  11.704   9.320   3.584  0.3255  0.2530  0.7060
  530MOL0     C71434  11.756   9.250   3.680  0.3505  0.9024 -1.4689
  530MOL0     C71435  11.830   9.116   3.657  1.0769 -0.5890  0.0471
  530MOL0     C71436  11.813   9.052   3.515 -0.0235  0.7024 -0.2485
  530MOL0     C71437  11.867   8.906   3.506  0.2711 -0.0615 -0.4130
  530MOL0     C71438  11.787   8.814   3.605 -0.1091 -0.0429 -0.5529
  530MOL0     O71439  11.647   8.802   3.616  0.7962 -0.1908  0.1991
  530MOL0     C71440  11.591   8.781   3.739 -0.1065 -0.4089 -0.2778
  530MOL0     C71441  11.450   8.798   3.748 -0.8977  0.0527 -0.0764
  530MOL0     C71442  11.380   8.797   3.867 -0.5529 -0.0399  1.2934
  530MOL0     C71443  11.231   8.812   3.861 -0.4487 -0.2133  0.1132
  530MOL0     C71444  11.453   8.750   3.978  0.3550  0.7992 -0.7095
  530MOL0     C71445  11.387   8.738   4.110  0.5288  0.6249  0.0894
  530MOL0     O71446  11.452   8.675   4.206 -0.2594  0.0100 -0.0307
  530MOL0     C71447  11.392   8.651   4.326 -0.4939 -0.1420 -0.1736
  530MOL0     C71448  11.323   8.527   4.346 -0.3231 -0.6635 -0.5281
  530MOL0     C71449  11.280   8.487   4.464 -0.7808  0.0978  0.3651
  530MOL0     C71450  11.281   8.582   4.567  0.5209 -0.2063 -0.7010
  530MOL0     O71451  11.202   8.547   4.677  0.5884  1.2615 -0.4505
  530MOL0     C71452  11.168   8.656   4.768  0.3897  0.2573  0.5209
  530MOL0     C71453  11.064   8.602   4.872 -0.9139 -0.6223  0.6004
  530MOL0     C71454  11.102   8.475   4.948 -0.4598  0.5253 -0.3130
  530MOL0     C71455  11.035   8.455   5.082 -0.4308  0.4261  0.4003
  530MOL0     C71456  11.066   8.322   5.149  0.1922  0.0853  0.1800
  530MOL0     C71457  10.964   8.298   5.261  0.2127 -1.0331 -0.4760
  530MOL0     C71458  10.978   8.155   5.317 -0.0627  0.1239 -0.6013
  530MOL0     C71459  10.885   8.131   5.438  0.5571 -0.5620 -1.0908
  530MOL0    Cl71460  10.723   8.093   5.382  0.6515 -0.3606 -0.6603
  530MOL0     C71461  11.344   8.702   4.552 -0.3819 -0.5400  0.7032
  530MOL0     C71462  11.406   8.740   4.434  0.5156  0.2500  0.4216
  530MOL0     O71463  11.273   8.777   4.129 -0.6566 -0.9654 -0.1498
  530MOL0     C71464  11.591   8.724   3.977  0.0367  0.5671  0.6916
  530MOL0     C71465  11.656   8.751   3.863  0.2000  1.2047  0.0100
  530MOL0     N71466  11.751   9.326   3.793  0.6836  0.1866 -1.0776
  530MOL0     N71467  11.691   9.434   3.771 -0.8402 -1.5538  0.0083
  530MOL0     C71468  10.857   9.510   2.753  0.5661 -0.3485  0.0858
  530MOL0     C71469  10.724   9.514   2.710 -0.2130 -0.1006  0.0699
  530MOL0     C71470  10.294   9.708   2.706 -0.5930  0.3988  0.3213
  530MOL0     C71471  10.198   9.758   2.790  0.1222  1.5887  0.0186
  530MOL0     C71472  10.069   9.791   2.750  0.0300 -0.1514 -0.3594
  530MOL0     C71473  10.044   9.790   2.608  0.7546  0.3232 -0.3555
  530MOL0     O71474   9.929   9.816   2.552 -0.0538  0.3506  0.9541
  530MOL0     C71475   9.837   9.900   2.620  0.2349 -0.5187 -0.1591
  530MOL0     C71476   9.718   9.956   2.537 -0.6850 -0.8020 -0.2436
  530MOL0     C71477   9.619   9.852   2.486 -0.6601 -0.3169 -0.1566
  530MOL0     C71478   9.499   9.917   2.424  0.2510 -0.5635 -0.1694
  530MOL0     C71479   9.405   9.820   2.357  0.4367  0.0642 -0.3240
  530MOL0     C71480   9.320   9.736   2.328  0.8862 -0.4520 -0.3477
  530MOL0     C71481  10.141   9.723   2.533 -1.0193 -0.4557  0.4888
  530MOL0     C71482  10.267   9.699   2.573 -0.7834  0.0694  0.2942
  530MOL0     H71483  10.656   9.837   2.816 -1.2477 -0.8931  0.7277
  530MOL0     H71484  10.888   9.820   2.896 -0.5950  0.8257  1.6167
  530MOL0     H71485  11.137   9.770   2.949 -1.6722 -0.7036 -1.2417
  530MOL0     H71486  11.032   9.695   3.063 -1.3573 -0.2666 -1.6338
  530MOL0     H71487  11.251   9.519   3.068 -2.2246 -0.0646 -1.5981
  530MOL0     H71488  11.311   9.633   2.944 -2.1080 -0.0513 -1.3463
  530MOL0     H71489  11.290   9.810   3.121 -3.1315 -0.1091  0.1148
  530MOL0     H71490  11.240   9.695   3.238 -0.0444  1.9147 -0.8246
  530MOL0     H71491  11.461   9.570   3.194  0.0009  0.6348  3.4077
  530MOL0     H71492  11.516   9.720   3.124 -0.0820 -0.1487 -2.2202
  530MOL0     H71493  11.447   9.834   3.351 -2.3643 -0.2861  2.2019
  530MOL0     H71494  11.410   9.677   3.410 -1.5623  0.1346 -0.7441
  530MOL0     H71495  11.687   9.736   3.306  1.3460 -1.7149  0.1411
  530MOL0     H71496  11.642   9.783   3.467  0.9122 -2.1149  1.0018
  530MOL0     H71497  11.621   9.504   3.356  0.8186 -0.2775 -1.0784
  530MOL0     H71498  11.759   9.561   3.443 -0.3935 -0.3406 -1.4654
  530MOL0     H71499  11.472   9.522   3.565 -1.0969  4.4240  0.6985
  530MOL0     H71500  11.585   9.623   3.642  0.5268 -1.3783  1.4879
  530MOL0     H71501  11.687   9.296   3.479 -0.3557 -1.1465  1.1115
  530MOL0     H71502  11.933   9.141   3.684  0.1999  3.0939  0.5309
  530MOL0     H71503  11.791   9.048   3.733  0.6014 -0.2284  0.1340
  530MOL0     H71504  11.874   9.117   3.452  0.5781 -1.8054 -2.4542
  530MOL0     H71505  11.708   9.034   3.487 -0.2113  1.7971 -0.3096
  530MOL0     H71506  11.975   8.902   3.523 -0.0475 -1.2257  1.7147
  530MOL0     H71507  11.843   8.865   3.408  1.8527 -1.8492 -0.1172
  530MOL0     H71508  11.830   8.837   3.703  1.1321 -0.5393 -0.9644
  530MOL0     H71509  11.807   8.710   3.578 -2.7843 -1.3763  2.0470
  530MOL0     H71510  11.401   8.807   3.651 -0.3011 -2.4383 -0.6770
  530MOL0     H71511  11.197   8.910   3.895 -2.3249  0.0571 -2.2314
  530MOL0     H71512  11.201   8.790   3.758  0.2369  1.5545 -0.5035
  530MOL0     H71513  11.175   8.733   3.913 -0.9017  2.3105  3.8187
  530MOL0     H71514  11.308   8.447   4.275  2.3681 -0.4820 -1.4352
  530MOL0     H71515  11.231   8.390   4.466 -1.6505  0.4372 -1.8798
  530MOL0     H71516  11.259   8.694   4.815  0.5828  0.4218  0.0213
  530MOL0     H71517  11.124   8.736   4.707  1.1939 -0.6570 -1.3526
  530MOL0     H71518  11.044   8.688   4.936  2.3494  0.4155  0.4140
  530MOL0     H71519  10.973   8.586   4.813  1.3026  1.1083 -3.7779
  530MOL0     H71520  11.203   8.468   4.987 -0.4270 -1.2433 -0.6009
  530MOL0     H71521  11.085   8.379   4.897  0.6122  0.2081 -0.0972
  530MOL0     H71522  11.062   8.534   5.153 -0.6434 -0.9650  2.1013
  530MOL0     H71523  10.927   8.465   5.066 -0.1313  1.2620 -1.3270
  530MOL0     H71524  11.168   8.313   5.187  1.0572  3.8229 -0.8794
  530MOL0     H71525  11.051   8.246   5.072  2.1336  1.1970 -1.3796
  530MOL0     H71526  10.991   8.370   5.339  1.4405 -0.0007 -1.7816
  530MOL0     H71527  10.861   8.317   5.231 -1.2925 -2.0872  3.4048
  530MOL0     H71528  11.076   8.144   5.364 -1.0000 -2.8322  0.9245
  530MOL0     H71529  10.966   8.079   5.239 -1.7697  1.0380 -1.2956
  530MOL0     H71530  10.892   8.216   5.507  1.6726 -1.7932  0.3830
  530MOL0     H71531  10.928   8.047   5.493 -0.4628 -1.6574 -1.9202
  530MOL0     H71532  11.339   8.770   4.636 -1.1117 -0.1875  0.3838
  530MOL0     H71533  11.450   8.838   4.424  0.6565  0.1202 -0.2714
  530MOL0     H71534  11.650   8.687   4.060  0.0445 -1.7010 -0.2313
  530MOL0     H71535  11.764   8.741   3.865  0.1457  0.3027 -0.9444
  530MOL0     H71536  10.927   9.433   2.723 -0.3230 -1.1272 -0.0165
  530MOL0     H71537  10.683   9.443   2.640 -1.4352  0.7900 -0.1594
  530MOL0     H71538  10.225   9.777   2.893 -0.7033 -2.2175  1.1208
  530MOL0     H71539   9.989   9.812   2.819 -0.1683 -3.1248  0.4527
  530MOL0     H71540   9.788   9.849   2.703 -2.2482  0.9041 -0.6684
  530MOL0     H71541   9.894   9.985   2.660  1.6434 -1.5379  0.1025
  530MOL0     H71542   9.755   9.992   2.441  2.0983 -3.0028 -0.1490
  530MOL0     H71543   9.672  10.040   2.589  2.3305  3.1380 -3.2716
  530MOL0     H71544   9.583   9.793   2.571 -0.5490  0.4331  0.4169
  530MOL0     H71545   9.665   9.781   2.416  3.0262 -0.4108  2.0763
  530MOL0     H71546   9.521   9.992   2.347 -1.3017  1.9953  1.6836
  530MOL0     H71547   9.456   9.982   2.501  0.3968  2.3749 -2.4031
  530MOL0     H71548   9.253   9.659   2.297 -0.2605  1.2482 -2.4089
  530MOL0     H71549  10.122   9.706   2.428 -0.6156  0.3210  0.2860
  530MOL0     H71550  10.347   9.660   2.512  2.1050  2.1460  2.4666
  531MOL0     O71551   6.512   9.239   2.135  0.1186 -0.2033  0.8294
  531MOL0     C71552   6.507   9.136   2.063 -0.5897  0.6355  1.8639
  531MOL0     O71553   6.567   9.015   2.072 -0.2103 -0.8014 -0.7917
  531MOL0     C71554   6.669   8.996   2.159 -0.9272  0.2234 -0.6414
  531MOL0     C71555   6.767   9.084   2.205 -0.8285 -0.2379  0.0590
  531MOL0     C71556   6.847   9.042   2.315  0.3323  0.6138 -0.1884
  531MOL0     C71557   6.851   8.912   2.357  0.4561  0.9055  0.4908
  531MOL0     O71558   6.950   8.875   2.449  0.2085 -0.4038  0.8530
  531MOL0     C71559   6.989   8.736   2.466  0.1137  0.6511 -0.4817
  531MOL0     C71560   7.066   8.726   2.592  0.8151  0.0835 -0.1417
  531MOL0     C71561   7.188   8.813   2.593  0.2568 -0.5869 -0.2080
  531MOL0     C71562   7.184   8.951   2.648 -0.1143 -1.0103 -0.3060
  531MOL0     C71563   7.331   9.010   2.624 -0.2710 -0.5514 -0.6111
  531MOL0     C71564   7.338   9.169   2.638 -0.3746  0.4015 -0.0503
  531MOL0     C71565   7.480   9.220   2.629 -0.7193  0.5748  0.1498
  531MOL0     C71566   7.566   9.188   2.748  0.4333 -0.3391 -0.2323
  531MOL0     N71567   7.699   9.225   2.685  0.0445  1.0908 -0.2650
  531MOL0     C71568   7.773   9.332   2.715  0.1546 -0.3904  0.7015
  531MOL0     C71569   7.892   9.319   2.653  0.2006 -0.5659  0.0118
  531MOL0     C71570   8.004   9.412   2.659 -0.6439  0.3086  0.0201
  531MOL0     C71571   8.080   9.418   2.794  0.4063 -0.2095 -0.4460
  531MOL0     C71572   8.182   9.534   2.782  0.3512 -0.1887 -0.1873
  531MOL0     C71573   8.221   9.585   2.924 -0.1713  0.7807 -0.6929
  531MOL0     O71574   8.305   9.697   2.920 -1.1187  0.8074 -0.5168
  531MOL0     C71575   8.439   9.685   2.879 -0.3772 -0.2482 -0.3120
  531MOL0     C71576   8.509   9.805   2.869 -0.6042 -0.4076  0.2175
  531MOL0     C71577   8.645   9.807   2.827 -0.6876  0.1528  0.0569
  531MOL0     C71578   8.715   9.934   2.793  0.2428 -0.7657  0.7949
  531MOL0     C71579   8.726   9.689   2.813  0.1212 -0.7583 -0.8479
  531MOL0     C71580   8.878   9.671   2.798  0.7161 -0.2301 -0.3629
  531MOL0     O71581   8.958   9.771   2.844 -0.4337 -0.9803 -1.4853
  531MOL0     C71582   9.092   9.759   2.852 -0.4456  0.9753 -1.2840
  531MOL0     C71583   9.178   9.707   2.749  0.8361 -0.6023 -0.1062
  531MOL0     C71584   9.314   9.707   2.764  0.5210  0.6737  0.4638
  531MOL0     C71585   9.377   9.757   2.884 -1.4341  0.1760 -0.9135
  531MOL0     O71586   9.519   9.766   2.885  0.3405 -0.0253  0.2822
  531MOL0     C71587   9.572   9.810   3.007 -0.2318 -0.1111  0.2703
  531MOL0     C71588   9.723   9.833   2.994  0.4764  0.0262  0.2045
  531MOL0     C71589   9.773   9.833   3.137 -0.8011 -0.5106 -0.3313
  531MOL0     C71590   9.908   9.907   3.139 -0.5764  0.8888 -0.1760
  531MOL0     C71591   9.973   9.908   3.271  0.3475  0.1162 -0.2510
  531MOL0     C71592  10.112   9.963   3.253 -0.7274 -0.9046  0.4992
  531MOL0     C71593  10.183   9.995   3.389 -0.4837  0.7956  0.0064
  531MOL0     C71594  10.331  10.020   3.359 -0.3566  0.0631  0.5497
  531MOL0    Cl71595  10.343  10.164   3.251 -0.1683  0.2023 -0.5159
  531MOL0     C71596   9.293   9.792   2.986 -0.0564  0.3864  0.3563
  531MOL0     C71597   9.155   9.789   2.979 -0.8687 -0.4042  0.8004
  531MOL0     O71598   8.917   9.563   2.762 -0.3947 -0.2178 -0.9425
  531MOL0     C71599   8.649   9.568   2.825  0.5452  0.1251 -0.2844
  531MOL0     C71600   8.516   9.566   2.861  0.0804  0.1169  0.7940
  531MOL0     N71601   7.896   9.191   2.594  0.2775 -0.9271 -0.3360
  531MOL0     N71602   7.784   9.134   2.623  0.6043  0.8882  0.2067
  531MOL0     C71603   6.765   8.822   2.301 -0.0025  0.2004 -0.7075
  531MOL0     C71604   6.674   8.862   2.210 -0.1477  0.5553 -0.5238
  531MOL0     C71605   6.411   9.146   1.945 -0.6198  0.3439  1.0746
  531MOL0     C71606   6.360   9.033   1.883 -0.3326  0.1501  0.2374
  531MOL0     C71607   6.274   9.046   1.776  0.1022  0.1500 -0.1752
  531MOL0     C71608   6.220   9.172   1.735 -0.2578  0.2914 -1.5976
  531MOL0     O71609   6.113   9.187   1.654 -0.1582 -0.0309  0.7963
  531MOL0     C71610   6.029   9.072   1.625 -0.0794  0.2870  0.8002
  531MOL0     C71611   5.916   9.116   1.526  0.1636 -0.6225  0.0055
  531MOL0     C71612   5.786   9.045   1.533 -0.4443  0.4450 -0.1271
  531MOL0     C71613   5.787   8.903   1.473  0.6341 -0.7489 -0.4488
  531MOL0     C71614   5.868   8.811   1.553  0.0225 -0.0591 -0.5851
  531MOL0     C71615   5.943   8.726   1.598 -0.2214 -0.6290 -0.4736
  531MOL0     C71616   6.271   9.283   1.797 -0.5266  0.0296 -1.0257
  531MOL0     C71617   6.362   9.273   1.902  0.8571  0.4207  0.5552
  531MOL0     H71618   6.776   9.175   2.147 -2.7062  1.2222  1.8838
  531MOL0     H71619   6.924   9.113   2.344  1.8268 -0.7683 -0.6550
  531MOL0     H71620   6.900   8.674   2.480  1.8940 -1.4498  2.6937
  531MOL0     H71621   7.043   8.692   2.383 -0.5862  2.3673 -1.9257
  531MOL0     H71622   6.993   8.746   2.670 -0.0186  3.5814 -1.6000
  531MOL0     H71623   7.099   8.622   2.601  0.0972 -0.0886  0.5306
  531MOL0     H71624   7.273   8.771   2.648  3.1051  4.2482 -0.4107
  531MOL0     H71625   7.231   8.821   2.492 -0.4131 -1.4970 -0.5880
  531MOL0     H71626   7.108   9.015   2.602 -0.9815 -1.5972  0.2841
  531MOL0     H71627   7.152   8.957   2.752  0.1767 -1.3711 -0.1943
  531MOL0     H71628   7.409   8.962   2.684  0.1263  0.3981 -0.3355
  531MOL0     H71629   7.346   8.991   2.517 -1.5083  1.1858 -1.1354
  531MOL0     H71630   7.290   9.205   2.546 -1.7809 -2.9438 -0.7661
  531MOL0     H71631   7.281   9.215   2.720 -1.4710  0.9841 -1.1106
  531MOL0     H71632   7.528   9.183   2.538  2.8827  0.1291  2.0572
  531MOL0     H71633   7.482   9.330   2.622  1.0535  0.7448  2.0755
  531MOL0     H71634   7.556   9.081   2.768  0.1321 -0.1765  0.5269
  531MOL0     H71635   7.553   9.264   2.825  0.6040 -2.6920  2.2842
  531MOL0     H71636   7.730   9.412   2.774 -1.7297 -1.1993  0.4988
  531MOL0     H71637   8.069   9.404   2.572 -1.6112  1.2975 -0.8226
  531MOL0     H71638   7.961   9.513   2.655  0.7884  0.9349  0.0029
  531MOL0     H71639   8.133   9.325   2.818 -1.7444 -0.9859  1.7496
  531MOL0     H71640   8.011   9.445   2.874  3.3831  2.7876  1.3545
  531MOL0     H71641   8.133   9.622   2.738  0.2441  0.5751  1.3998
  531MOL0     H71642   8.268   9.502   2.723 -0.6184 -0.6479 -1.4056
  531MOL0     H71643   8.265   9.506   2.985 -2.8237 -0.1410  0.1718
  531MOL0     H71644   8.128   9.614   2.972 -0.3045  0.9428 -1.0481
  531MOL0     H71645   8.449   9.894   2.883  0.3221  0.0978  1.0513
  531MOL0     H71646   8.649  10.010   2.835  0.3993 -0.4327  0.4460
  531MOL0     H71647   8.804   9.952   2.855  0.9663 -3.4770  0.6740
  531MOL0     H71648   8.733   9.944   2.686 -0.5624  1.5522  0.8326
  531MOL0     H71649   9.143   9.655   2.661  2.4710 -2.3250  0.1984
  531MOL0     H71650   9.375   9.656   2.690 -0.6196  0.7507 -0.5459
  531MOL0     H71651   9.535   9.910   3.029  0.1130  0.9028 -3.1767
  531MOL0     H71652   9.566   9.723   3.073  1.7475 -0.4380  0.0977
  531MOL0     H71653   9.776   9.751   2.945  0.5871  0.8531 -1.1004
  531MOL0     H71654   9.752   9.923   2.939  0.8876 -0.2544 -0.0394
  531MOL0     H71655   9.783   9.727   3.163 -1.5100 -0.6806 -0.7153
  531MOL0     H71656   9.710   9.878   3.215 -0.4032 -1.4622  0.5583
  531MOL0     H71657   9.973   9.850   3.071  0.7073 -1.5135  2.8143
  531MOL0     H71658   9.901  10.007   3.095  1.8773  0.9919 -0.5063
  531MOL0     H71659   9.980   9.811   3.321  2.0284  0.9039  1.1258
  531MOL0     H71660   9.920   9.988   3.323 -1.4829 -0.6088 -0.8848
  531MOL0     H71661  10.181   9.898   3.199  3.5124  2.0890  1.7813
  531MOL0     H71662  10.110  10.059   3.200  3.5275 -1.2000 -0.5289
  531MOL0     H71663  10.171   9.903   3.448 -2.5365  1.4834  0.7519
  531MOL0     H71664  10.136  10.076   3.446 -0.5805 -1.3460  3.2128
  531MOL0     H71665  10.371   9.930   3.312 -2.6980 -0.1297 -1.2734
  531MOL0     H71666  10.378  10.031   3.457 -2.3591 -2.3602  1.9042
  531MOL0     H71667   9.343   9.813   3.080  2.3770 -1.9837 -0.2436
  531MOL0     H71668   9.090   9.817   3.061 -0.6093 -1.5452  1.4185
  531MOL0     H71669   8.697   9.473   2.801 -2.6599 -1.8329  0.4378
  531MOL0     H71670   8.470   9.472   2.889  3.0577 -1.4199  0.9135
  531MOL0     H71671   6.756   8.721   2.339  1.2793  0.2150 -0.2896
  531MOL0     H71672   6.617   8.777   2.174 -0.4812 -0.4972  2.2338
  531MOL0     H71673   6.400   8.934   1.901 -3.3372 -1.4060 -0.8383
  531MOL0     H71674   6.236   8.956   1.729 -0.5523 -0.1595  0.9185
  531MOL0     H71675   6.082   8.986   1.582  0.3414 -0.0524  1.9508
  531MOL0     H71676   5.985   9.036   1.718 -1.2177  1.0938  0.5787
  531MOL0     H71677   5.955   9.120   1.424  2.2581  2.5183  0.7811
  531MOL0     H71678   5.888   9.217   1.555 -3.4155 -1.0914 -1.2651
  531MOL0     H71679   5.705   9.096   1.480 -1.4335 -2.4123 -1.5723
  531MOL0     H71680   5.750   9.056   1.636 -1.6843  1.5561 -0.6508
  531MOL0     H71681   5.822   8.903   1.370 -4.2289 -0.3502 -2.3685
  531MOL0     H71682   5.683   8.869   1.477  0.5166 -0.3229  0.3854
  531MOL0     H71683   6.024   8.664   1.630  0.3685  0.9181  1.2547
  531MOL0     H71684   6.247   9.384   1.764  1.5127 -0.3331 -4.0743
  531MOL0     H71685   6.392   9.369   1.941 -2.3479  1.1412  1.5968
  532MOL0     O71686   0.587   2.925   3.317  0.3827  0.1600 -0.4654
  532MOL0     C71687   0.684   2.953   3.251 -0.4486  0.2469  0.2474
  532MOL0     O71688   0.684   2.978   3.116 -0.0911 -0.1196 -1.0704
  532MOL0     C71689   0.569   2.984   3.046  0.0685  0.0455 -0.2848
  532MOL0     C71690   0.570   3.071   2.936 -0.0097 -0.0190  0.6912
  532MOL0     C71691   0.451   3.086   2.860  0.3545  0.2449  1.0925
  532MOL0     C71692   0.343   3.000   2.881  0.5539 -0.3210  0.1961
  532MOL0     O71693   0.239   3.011   2.796 -0.1419  1.0736  0.6460
  532MOL0     C71694   0.113   2.952   2.837 -0.1674 -0.0991  0.2505
  532MOL0     C71695   0.015   2.963   2.718  0.3911 -0.1607  0.7377
  532MOL0     C71696  -0.117   2.904   2.769 -0.6227 -0.1886 -0.1895
  532MOL0     C71697  -0.217   2.897   2.653  0.0101  0.2006 -0.7265
  532MOL0     C71698  -0.340   2.834   2.707  0.2003 -0.1201 -0.8168
  532MOL0     C71699  -0.447   2.924   2.777 -0.9306 -0.7807 -0.6654
  532MOL0     C71700  -0.581   2.854   2.795  0.5293 -0.2281 -0.1613
  532MOL0     C71701  -0.678   2.967   2.861 -0.1537  0.8556  0.3699
  532MOL0     N71702  -0.737   3.070   2.778 -0.2152  0.3317  0.1626
  532MOL0     C71703  -0.766   3.198   2.821 -0.8938 -0.3562 -0.2188
  532MOL0     C71704  -0.799   3.263   2.708 -0.6871  0.2862 -0.4526
  532MOL0     C71705  -0.831   3.410   2.707  0.6560 -0.9474 -0.6279
  532MOL0     C71706  -0.726   3.521   2.696 -0.4239 -0.0331  0.0853
  532MOL0     C71707  -0.667   3.545   2.555 -0.0372  0.2870  0.1530
  532MOL0     C71708  -0.766   3.586   2.443 -0.0744  0.5286  0.2257
  532MOL0     O71709  -0.702   3.582   2.315 -0.8456 -1.0349  0.0391
  532MOL0     C71710  -0.741   3.669   2.214  0.3656  1.2955 -0.5709
  532MOL0     C71711  -0.861   3.736   2.204 -0.3236 -0.1879  1.2597
  532MOL0     C71712  -0.883   3.836   2.107  0.2383  0.3839 -0.1230
  532MOL0     C71713  -1.014   3.898   2.116 -0.2321 -0.6090  0.0029
  532MOL0     C71714  -0.780   3.883   2.018 -1.1401 -0.0327 -0.0474
  532MOL0     C71715  -0.792   3.992   1.924 -0.8223 -0.4990 -0.1360
  532MOL0     O71716  -0.693   4.002   1.836 -0.5081  0.3761  0.2762
  532MOL0     C71717  -0.660   4.127   1.789  0.1627 -0.1079  0.2948
  532MOL0     C71718  -0.542   4.192   1.828  0.8041  0.9205  0.4726
  532MOL0     C71719  -0.498   4.305   1.764  0.2076 -0.5700  0.0190
  532MOL0     C71720  -0.578   4.368   1.672  0.5300  0.0656  0.5828
  532MOL0     O71721  -0.534   4.478   1.613 -0.3836 -0.0032 -0.2829
  532MOL0     C71722  -0.635   4.569   1.586 -0.4368  0.8070 -0.4080
  532MOL0     C71723  -0.572   4.700   1.558  0.9398 -0.3615 -0.3285
  532MOL0     C71724  -0.682   4.795   1.495 -0.4722  0.1120 -0.3409
  532MOL0     C71725  -0.616   4.931   1.487 -0.3778  1.0072  0.2613
  532MOL0     C71726  -0.717   5.047   1.498  0.3976 -0.3967  0.5109
  532MOL0     C71727  -0.633   5.178   1.490  0.0911 -0.2285 -0.4896
  532MOL0     C71728  -0.555   5.227   1.612  0.4336  0.3998  0.0485
  532MOL0     C71729  -0.515   5.380   1.593 -0.3224 -0.0791 -1.7453
  532MOL0    Cl71730  -0.660   5.491   1.595  0.0640 -0.2618 -0.3511
  532MOL0     C71731  -0.703   4.301   1.627  0.0093 -0.5061 -0.3871
  532MOL0     C71732  -0.742   4.181   1.691  0.0842 -1.6827  1.0927
  532MOL0     O71733  -0.893   4.058   1.925  0.0064 -0.7562 -0.0597
  532MOL0     C71734  -0.667   3.799   2.018  0.0899 -1.5822  0.4388
  532MOL0     C71735  -0.649   3.701   2.111 -0.2328 -0.1053 -1.2245
  532MOL0     N71736  -0.775   3.174   2.599 -0.3946 -1.2050  1.3354
  532MOL0     N71737  -0.738   3.059   2.646 -0.2588  0.6642  0.4911
  532MOL0     C71738   0.348   2.907   2.988 -0.7070 -0.1000 -0.4031
  532MOL0     C71739   0.461   2.901   3.062  0.4905  0.1572  0.3424
  532MOL0     C71740   0.812   2.910   3.300  0.1179  0.6849  0.2530
  532MOL0     C71741   0.926   2.899   3.216 -0.7518  1.3148  0.1362
  532MOL0     C71742   1.055   2.856   3.255  0.1220  0.1159 -0.5934
  532MOL0     C71743   1.075   2.831   3.387  0.3704 -0.7137  0.6680
  532MOL0     O71744   1.205   2.789   3.417  0.4098 -0.5145  0.0326
  532MOL0     C71745   1.262   2.844   3.530 -0.0004  0.0143  0.0790
  532MOL0     C71746   1.305   2.987   3.521 -0.5629 -0.5791  0.1827
  532MOL0     C71747   1.409   3.021   3.414 -1.6730  0.3151  0.3919
  532MOL0     C71748   1.372   3.004   3.266  0.5736 -0.8815 -0.5863
  532MOL0     C71749   1.465   3.070   3.177 -0.2167 -0.4654 -1.0846
  532MOL0     C71750   1.547   3.109   3.102  0.2697 -1.7601  0.2021
  532MOL0     C71751   0.969   2.842   3.471 -0.1270  0.1161  0.1446
  532MOL0     C71752   0.840   2.874   3.431 -0.3922 -1.2863 -0.0040
  532MOL0     H71753   0.655   3.138   2.924 -1.6280  1.8013 -1.1876
  532MOL0     H71754   0.459   3.176   2.801  2.6683 -0.2140  0.6045
  532MOL0     H71755   0.128   2.843   2.844 -1.3279 -0.4166 -1.4375
  532MOL0     H71756   0.071   2.997   2.927 -0.5339 -0.8428  0.4638
  532MOL0     H71757   0.007   3.068   2.689 -1.8652  0.0074  1.7364
  532MOL0     H71758   0.053   2.905   2.634  0.8564 -0.6190  1.2596
  532MOL0     H71759  -0.095   2.798   2.787  2.4023  0.2434 -0.7885
  532MOL0     H71760  -0.154   2.957   2.857  3.2332  0.2153  1.3801
  532MOL0     H71761  -0.232   2.999   2.617 -0.8633 -0.4337 -2.2716
  532MOL0     H71762  -0.187   2.833   2.570  1.0121  2.1884 -1.9657
  532MOL0     H71763  -0.390   2.781   2.625 -1.2739 -0.9161  0.5301
  532MOL0     H71764  -0.323   2.760   2.786  2.9709  1.9068  0.6325
  532MOL0     H71765  -0.401   2.965   2.868  2.5626  0.2224 -2.6950
  532MOL0     H71766  -0.458   3.013   2.714  1.4811  2.2960  2.7703
  532MOL0     H71767  -0.615   2.814   2.699 -0.0024 -0.4903  0.1372
  532MOL0     H71768  -0.568   2.766   2.857  1.9540 -0.9307 -1.3798
  532MOL0     H71769  -0.610   3.018   2.931  0.2727  0.6925  0.0809
  532MOL0     H71770  -0.765   2.918   2.906 -1.3731  1.6851 -1.0156
  532MOL0     H71771  -0.768   3.247   2.918  0.1056  0.5487 -0.6391
  532MOL0     H71772  -0.909   3.430   2.633  1.4224 -0.9351 -1.4580
  532MOL0     H71773  -0.879   3.414   2.805 -0.3996 -3.3267 -0.9911
  532MOL0     H71774  -0.637   3.492   2.752  1.3785  1.9141 -1.5959
  532MOL0     H71775  -0.750   3.616   2.744  2.9900  0.8791  0.2332
  532MOL0     H71776  -0.620   3.449   2.532 -2.8702 -0.7658 -1.8034
  532MOL0     H71777  -0.591   3.623   2.567  0.1376 -0.1249  1.9489
  532MOL0     H71778  -0.804   3.686   2.463 -4.7606 -0.7947 -0.7987
  532MOL0     H71779  -0.844   3.510   2.455 -0.5242  0.8452 -0.5936
  532MOL0     H71780  -0.938   3.702   2.274  1.6015 -1.8496  2.7178
  532MOL0     H71781  -1.081   3.830   2.168 -2.0629  1.5368  0.6341
  532MOL0     H71782  -1.031   4.000   2.153 -2.8612 -0.9206 -0.1415
  532MOL0     H71783  -1.061   3.906   2.018 -0.6451  2.9049  0.3528
  532MOL0     H71784  -0.492   4.167   1.920 -1.3470 -1.2125  1.1680
  532MOL0     H71785  -0.417   4.371   1.795 -0.9511  1.3469 -0.8519
  532MOL0     H71786  -0.685   4.530   1.497  0.3151 -1.8377  0.2303
  532MOL0     H71787  -0.711   4.578   1.665 -1.5635  0.0778 -1.3773
  532MOL0     H71788  -0.545   4.743   1.655  0.3017  1.4185 -0.9090
  532MOL0     H71789  -0.487   4.682   1.492  1.3741 -0.1924  0.1780
  532MOL0     H71790  -0.770   4.795   1.561 -1.2264 -0.6932 -1.3140
  532MOL0     H71791  -0.719   4.763   1.397 -3.3878  1.2085  0.2937
  532MOL0     H71792  -0.535   4.943   1.559  1.9183 -0.7606 -1.8798
  532MOL0     H71793  -0.560   4.934   1.393  2.5402  2.4934  1.9342
  532MOL0     H71794  -0.774   5.063   1.591  2.4154  2.5431  1.3960
  532MOL0     H71795  -0.789   5.049   1.416 -0.4072  2.7305  1.1528
  532MOL0     H71796  -0.575   5.182   1.398 -1.5357 -0.2038 -1.5425
  532MOL0     H71797  -0.713   5.252   1.475 -0.6589 -0.4079  2.0505
  532MOL0     H71798  -0.468   5.164   1.630  2.2411  2.9727  0.9594
  532MOL0     H71799  -0.606   5.223   1.708  5.3028  0.2853  2.9253
  532MOL0     H71800  -0.447   5.406   1.511  0.2747  2.3632 -0.5520
  532MOL0     H71801  -0.449   5.407   1.676 -0.3421 -4.3789 -0.0464
  532MOL0     H71802  -0.760   4.334   1.540  1.1148  0.4136 -0.7944
  532MOL0     H71803  -0.825   4.118   1.660 -0.9439 -0.6510  1.6431
  532MOL0     H71804  -0.587   3.826   1.950  0.1490 -0.3294  0.9746
  532MOL0     H71805  -0.553   3.652   2.095  2.5838  4.0368  1.0592
  532MOL0     H71806   0.266   2.846   3.025 -0.4988 -0.8847 -1.2026
  532MOL0     H71807   0.449   2.831   3.145  0.0410  0.5773  0.6357
  532MOL0     H71808   0.908   2.927   3.113 -0.2517  2.4308  0.3363
  532MOL0     H71809   1.136   2.843   3.184  3.8724 -3.1930  3.7005
  532MOL0     H71810   1.185   2.817   3.603 -2.9314 -4.9013 -4.0717
  532MOL0     H71811   1.355   2.794   3.559  2.2958  2.2084 -2.8550
  532MOL0     H71812   1.360   3.024   3.608  0.6367  1.2088 -1.2513
  532MOL0     H71813   1.214   3.045   3.508  0.6263  1.1505 -0.8096
  532MOL0     H71814   1.504   2.967   3.424  0.1041  2.8042 -1.6889
  532MOL0     H71815   1.431   3.128   3.420 -2.8175  0.6067 -0.2591
  532MOL0     H71816   1.276   3.057   3.259  0.0273 -1.5613  1.2971
  532MOL0     H71817   1.366   2.896   3.247 -0.1428 -1.2022  1.2106
  532MOL0     H71818   1.627   3.133   3.034 -0.2010  3.3880  1.0194
  532MOL0     H71819   0.989   2.820   3.576  0.2065 -1.5658 -0.2480
  532MOL0     H71820   0.766   2.893   3.508  0.7160  0.4094  0.7057
  533MOL0     O71821   1.659   6.202   4.126 -0.0174  1.1969 -0.4120
  533MOL0     C71822   1.761   6.156   4.175 -0.8225 -0.0458  1.0013
  533MOL0     O71823   1.890   6.219   4.167 -0.2382 -0.0375  0.7307
  533MOL0     C71824   1.909   6.306   4.062 -0.0871  0.1761  1.2453
  533MOL0     C71825   2.002   6.405   4.073  0.1719 -0.5245 -0.1924
  533MOL0     C71826   2.026   6.484   3.966  0.1895 -0.5810  0.6530
  533MOL0     C71827   1.968   6.459   3.841 -0.5500 -1.2493 -0.5504
  533MOL0     O71828   2.009   6.526   3.722  0.3753 -0.8375 -0.3515
  533MOL0     C71829   2.014   6.671   3.726 -1.1531  1.0097 -0.4264
  533MOL0     C71830   2.139   6.717   3.655 -0.0886  0.4572 -1.1322
  533MOL0     C71831   2.135   6.683   3.498 -0.8623 -0.9736  0.1753
  533MOL0     C71832   2.224   6.568   3.449 -0.7801  0.1166 -0.1843
  533MOL0     C71833   2.237   6.561   3.298  0.1810 -0.2722 -0.3339
  533MOL0     C71834   2.309   6.447   3.260 -0.3411  1.0468  0.3269
  533MOL0     C71835   2.278   6.394   3.117 -0.1346  0.7703  0.0673
  533MOL0     C71836   2.325   6.487   3.009  0.1486  0.6163 -0.3128
  533MOL0     N71837   2.317   6.429   2.876  0.8217  0.3163  0.0605
  533MOL0     C71838   2.198   6.424   2.806 -0.2236  0.6650 -0.3153
  533MOL0     C71839   2.208   6.328   2.706  0.9568  1.5500 -0.0266
  533MOL0     C71840   2.116   6.270   2.607 -0.0250  0.4884 -0.0046
  533MOL0     C71841   1.995   6.356   2.588 -0.2362 -0.2873 -0.5998
  533MOL0     C71842   1.866   6.331   2.666  0.1885 -0.6374 -0.0848
  533MOL0     C71843   1.737   6.353   2.586 -0.1423  0.1226  0.2900
  533MOL0     O71844   1.719   6.503   2.584 -0.6732 -0.1598  0.5401
  533MOL0     C71845   1.770   6.567   2.476  0.7869 -0.4880  0.1364
  533MOL0     C71846   1.793   6.701   2.505  0.1239  0.2806  0.0597
  533MOL0     C71847   1.867   6.794   2.426 -0.1105 -0.1845  0.5969
  533MOL0     C71848   1.911   6.922   2.490 -0.6183  0.8838 -0.4850
  533MOL0     C71849   1.913   6.755   2.297 -0.6508  0.7031 -0.4873
  533MOL0     C71850   1.990   6.831   2.195 -0.4831 -0.2083  0.1711
  533MOL0     O71851   2.042   6.765   2.088 -0.1929  0.0247  0.4665
  533MOL0     C71852   2.060   6.831   1.969 -0.1451  0.6058 -0.3642
  533MOL0     C71853   1.972   6.919   1.917  0.2207 -0.7439 -0.7823
  533MOL0     C71854   2.006   6.993   1.806  0.0580  0.1853  0.7400
  533MOL0     C71855   2.125   6.966   1.731 -0.3844 -0.1087 -0.1401
  533MOL0     O71856   2.160   7.044   1.623 -1.0073  0.4759 -0.0649
  533MOL0     C71857   2.279   7.124   1.624  0.0450 -0.0749 -0.5139
  533MOL0     C71858   2.249   7.273   1.654 -0.2570 -0.0288 -0.8393
  533MOL0     C71859   2.366   7.345   1.721 -0.2783  0.0938 -0.0534
  533MOL0     C71860   2.461   7.411   1.619  0.6748 -0.7152 -0.2971
  533MOL0     C71861   2.598   7.457   1.679  0.1900  0.4745 -0.1472
  533MOL0     C71862   2.583   7.562   1.783 -0.1551 -0.4097  0.5168
  533MOL0     C71863   2.714   7.649   1.812  0.1281 -0.7096  0.4567
  533MOL0     C71864   2.707   7.771   1.720 -0.9221  0.3037 -0.0551
  533MOL0    Cl71865   2.850   7.869   1.763 -0.0399 -0.5201 -0.2844
  533MOL0     C71866   2.214   6.875   1.794 -0.3243  0.1379  0.2860
  533MOL0     C71867   2.184   6.804   1.909 -0.1017 -0.5257  0.6985
  533MOL0     O71868   1.988   6.955   2.209 -0.2408  0.0265  0.3063
  533MOL0     C71869   1.880   6.621   2.265 -1.0706 -0.9398 -0.4010
  533MOL0     C71870   1.812   6.528   2.350 -0.2165 -0.3792 -0.2368
  533MOL0     N71871   2.343   6.277   2.721 -0.0443 -0.2288 -0.3038
  533MOL0     N71872   2.400   6.338   2.820 -0.1470 -0.6151  1.2362
  533MOL0     C71873   1.893   6.352   3.826  0.7083  0.3155  0.3892
  533MOL0     C71874   1.857   6.276   3.942  0.9897 -0.7460  0.7619
  533MOL0     C71875   1.732   6.024   4.241  0.0327  0.2857 -0.5674
  533MOL0     C71876   1.832   5.959   4.317 -0.8678 -0.4777  0.5826
  533MOL0     C71877   1.821   5.826   4.357  0.5389  0.8200  0.9321
  533MOL0     C71878   1.706   5.755   4.344  0.6390 -0.4316  0.7829
  533MOL0     O71879   1.698   5.618   4.366 -0.9802 -0.4593 -0.0111
  533MOL0     C71880   1.823   5.545   4.360  0.2451 -0.8048  0.0104
  533MOL0     C71881   1.860   5.494   4.496  0.8041  0.3007 -0.4447
  533MOL0     C71882   1.752   5.401   4.558  0.2361  0.5518  0.3797
  533MOL0     C71883   1.793   5.337   4.688  0.0854  0.8517  0.4622
  533MOL0     C71884   1.820   5.435   4.789 -0.1001 -0.6248  0.6691
  533MOL0     C71885   1.823   5.510   4.879 -0.8016 -0.2862  0.2353
  533MOL0     C71886   1.591   5.821   4.284  0.8823  0.1687 -0.3772
  533MOL0     C71887   1.611   5.948   4.230 -0.2174  0.5191 -0.0394
  533MOL0     H71888   2.047   6.428   4.169  1.0849 -3.4395  0.1834
  533MOL0     H71889   2.107   6.556   3.970 -3.2071  3.9313 -2.2224
  533MOL0     H71890   1.938   6.726   3.670  0.5046  0.5825 -3.3043
  533MOL0     H71891   2.022   6.695   3.832  0.6304  1.2464 -0.5830
  533MOL0     H71892   2.143   6.825   3.672 -0.4002  0.3045 -0.0741
  533MOL0     H71893   2.225   6.668   3.701  1.5516  5.4713  1.8822
  533MOL0     H71894   2.039   6.651   3.458 -0.6767 -0.3280 -0.8250
  533MOL0     H71895   2.172   6.770   3.443 -2.2910 -1.2423 -1.2962
  533MOL0     H71896   2.320   6.571   3.501 -1.3394  1.7651  0.8679
  533MOL0     H71897   2.176   6.474   3.477 -3.5444  1.5208  0.2450
  533MOL0     H71898   2.133   6.561   3.263 -0.3830  3.5697  0.8749
  533MOL0     H71899   2.284   6.648   3.251  3.5627  0.3460  3.5943
  533MOL0     H71900   2.418   6.454   3.271  0.0347  0.0029 -2.0556
  533MOL0     H71901   2.281   6.364   3.325  1.9120 -0.5882 -0.6853
  533MOL0     H71902   2.317   6.292   3.117 -3.6950 -0.7626 -1.6239
  533MOL0     H71903   2.169   6.387   3.108 -0.3175  1.9761  0.9979
  533MOL0     H71904   2.426   6.525   3.032  0.7187 -0.4976 -0.8782
  533MOL0     H71905   2.257   6.572   3.011  0.4526  0.9473 -2.3492
  533MOL0     H71906   2.105   6.474   2.832 -0.4713  1.3125 -2.2479
  533MOL0     H71907   2.166   6.257   2.511 -1.5382 -1.7226 -0.5714
  533MOL0     H71908   2.084   6.170   2.637  0.9367  0.1726 -0.0233
  533MOL0     H71909   1.963   6.345   2.484  0.0841  2.8534 -1.1307
  533MOL0     H71910   2.017   6.463   2.594 -0.2912 -0.3580  1.6635
  533MOL0     H71911   1.873   6.402   2.749  2.0679 -1.4495  0.5046
  533MOL0     H71912   1.874   6.228   2.702 -1.0751 -0.6437  0.2260
  533MOL0     H71913   1.652   6.301   2.630 -1.7399  3.4475  1.4525
  533MOL0     H71914   1.753   6.314   2.485 -2.0471  1.6550 -0.6680
  533MOL0     H71915   1.779   6.726   2.610  2.4051  1.2135  0.2001
  533MOL0     H71916   1.894   6.923   2.598  0.7786 -1.4253 -0.1860
  533MOL0     H71917   2.017   6.945   2.474  0.1255  1.4770  3.9284
  533MOL0     H71918   1.858   7.009   2.451  0.7520  2.5423  1.1397
  533MOL0     H71919   1.874   6.949   1.952  0.4928  0.1794 -0.7826
  533MOL0     H71920   1.930   7.064   1.775 -1.8468 -1.1002  2.2650
  533MOL0     H71921   2.348   7.077   1.695  0.8765  0.0775 -1.1995
  533MOL0     H71922   2.341   7.126   1.534  0.1286  0.3604 -0.4496
  533MOL0     H71923   2.221   7.327   1.564 -0.1370  1.0121 -0.2720
  533MOL0     H71924   2.163   7.272   1.721 -2.3788  3.1884 -3.2253
  533MOL0     H71925   2.422   7.272   1.780  0.4530 -2.5764 -3.7059
  533MOL0     H71926   2.327   7.423   1.787 -2.8200 -0.8272 -0.3270
  533MOL0     H71927   2.478   7.344   1.534  2.3342 -1.2760  0.4141
  533MOL0     H71928   2.417   7.502   1.578  2.3416 -0.6404 -2.0368
  533MOL0     H71929   2.661   7.499   1.600  1.5607 -0.7375  0.2789
  533MOL0     H71930   2.648   7.364   1.705  0.1506  0.8992  1.5882
  533MOL0     H71931   2.513   7.635   1.744  0.0310 -1.4040 -1.8709
  533MOL0     H71932   2.533   7.524   1.872 -2.3102 -0.0025 -0.4774
  533MOL0     H71933   2.812   7.601   1.807  0.8839  0.5269  2.1790
  533MOL0     H71934   2.719   7.684   1.916  0.7428  4.4200 -1.0126
  533MOL0     H71935   2.613   7.825   1.730 -2.2491 -1.6255 -1.3942
  533MOL0     H71936   2.707   7.735   1.617  0.0486  1.2665 -0.4122
  533MOL0     H71937   2.307   6.859   1.741  0.2064  0.0242  1.2129
  533MOL0     H71938   2.264   6.746   1.953  2.4123  1.5782 -0.8201
  533MOL0     H71939   1.892   6.587   2.162  1.2696  1.0439 -0.8794
  533MOL0     H71940   1.786   6.426   2.325 -0.5789 -0.0823 -1.1032
  533MOL0     H71941   1.850   6.342   3.726  2.6863  2.2366 -0.7582
  533MOL0     H71942   1.793   6.193   3.911  1.5029  0.1877 -3.3483
  533MOL0     H71943   1.931   6.002   4.323 -0.7884 -0.6884  0.8326
  533MOL0     H71944   1.903   5.781   4.411  1.5465  0.8077 -0.5463
  533MOL0     H71945   1.796   5.455   4.305 -2.9997 -0.5991  1.0486
  533MOL0     H71946   1.911   5.591   4.315  0.3169 -0.4279  0.5254
  533MOL0     H71947   1.876   5.564   4.578 -1.8510 -3.5288  3.7611
  533MOL0     H71948   1.959   5.447   4.488  0.0327 -1.9587  2.1297
  533MOL0     H71949   1.737   5.313   4.494  2.5634 -0.3552  0.9756
  533MOL0     H71950   1.658   5.456   4.559  1.4436  2.7795 -0.3907
  533MOL0     H71951   1.883   5.275   4.686 -0.3212  0.1978  1.3258
  533MOL0     H71952   1.718   5.267   4.727 -2.1654  1.5969 -2.2071
  533MOL0     H71953   1.827   5.574   4.965 -1.3663 -1.4843  1.1931
  533MOL0     H71954   1.512   5.749   4.265  0.5832  0.1348  0.8528
  533MOL0     H71955   1.531   5.993   4.171  0.1351  0.3786 -0.6248
  534MOL0     O71956   6.609  11.279   1.398  0.9695 -0.2442 -0.1444
  534MOL0     C71957   6.619  11.284   1.274  0.5251 -0.3663 -1.1158
  534MOL0     O71958   6.549  11.384   1.193 -0.9273  0.2895 -0.3444
  534MOL0     C71959   6.490  11.492   1.254  0.0830 -0.1895  0.9405
  534MOL0     C71960   6.547  11.560   1.358  0.1488  0.3046 -0.3037
  534MOL0     C71961   6.489  11.668   1.420  1.3631  0.1579  0.4474
  534MOL0     C71962   6.364  11.713   1.362 -0.0707 -0.1731  0.2411
  534MOL0     O71963   6.295  11.816   1.418  0.8236 -0.3758  0.3368
  534MOL0     C71964   6.373  11.931   1.444 -0.5497  0.9329  0.1097
  534MOL0     C71965   6.283  12.053   1.419  0.2505 -0.4122 -0.4804
  534MOL0     C71966   6.355  12.184   1.440 -0.2581  0.7232 -0.2626
  534MOL0     C71967   6.490  12.195   1.369 -0.4031 -0.7217  0.1555
  534MOL0     C71968   6.557  12.334   1.364  0.2063 -0.8349  0.2002
  534MOL0     C71969   6.692  12.330   1.293 -0.2534  0.3734  0.5962
  534MOL0     C71970   6.762  12.471   1.281  0.0036  0.6056 -0.5107
  534MOL0     C71971   6.846  12.513   1.402 -0.5032  0.1183  0.2600
  534MOL0     N71972   6.967  12.431   1.407 -0.8835 -0.0500  0.1616
  534MOL0     C71973   7.006  12.333   1.496  0.3160 -0.6244 -0.3984
  534MOL0     C71974   7.133  12.300   1.449  0.7111  0.7475  0.2807
  534MOL0     C71975   7.238  12.209   1.485 -0.3563 -0.5328 -0.0613
  534MOL0     C71976   7.268  12.205   1.637  0.6319 -0.2184  0.2887
  534MOL0     C71977   7.386  12.296   1.681  0.0854  0.9129  0.7976
  534MOL0     C71978   7.459  12.240   1.800 -0.1923 -0.0444  0.0701
  534MOL0     O71979   7.539  12.350   1.850  0.1380 -0.7199  0.0004
  534MOL0     C71980   7.528  12.367   1.994 -0.3893 -0.0627  0.0749
  534MOL0     C71981   7.652  12.364   2.067 -0.9467  0.0478 -1.1123
  534MOL0     C71982   7.648  12.369   2.210 -0.9216 -0.2882 -0.0008
  534MOL0     C71983   7.778  12.349   2.287 -1.0309 -0.2612 -0.0628
  534MOL0     C71984   7.526  12.378   2.277 -0.9984 -0.4996 -0.2355
  534MOL0     C71985   7.514  12.402   2.425  0.3647  0.4841 -0.0575
  534MOL0     O71986   7.397  12.365   2.480  0.5906 -0.4095  0.3805
  534MOL0     C71987   7.370  12.389   2.617 -0.4270 -0.7867 -0.3650
  534MOL0     C71988   7.300  12.277   2.678 -0.0330  0.8835 -0.2141
  534MOL0     C71989   7.277  12.278   2.809  0.4362 -0.4517  0.6218
  534MOL0     C71990   7.287  12.405   2.879 -0.7014 -0.5126 -0.0692
  534MOL0     O71991   7.241  12.403   3.011 -0.6603 -0.3146  0.5620
  534MOL0     C71992   7.241  12.524   3.092 -0.4759  1.0391 -1.1302
  534MOL0     C71993   7.156  12.487   3.205 -0.4309 -0.6372  0.8796
  534MOL0     C71994   7.013  12.468   3.170 -0.5633 -0.2194  0.4642
  534MOL0     C71995   6.927  12.586   3.153 -0.7445  0.2275 -0.1531
  534MOL0     C71996   6.780  12.553   3.158 -0.3989  0.4337 -0.4200
  534MOL0     C71997   6.704  12.683   3.159  0.2548 -0.1973 -0.3476
  534MOL0     C71998   6.548  12.655   3.145 -1.1175  0.1211 -0.8630
  534MOL0     C71999   6.462  12.765   3.207 -0.1247  0.8472 -0.9086
  534MOL0    Cl72000   6.521  12.803   3.376  0.0602  0.4705  0.1516
  534MOL0     C72001   7.350  12.519   2.822  0.1005  0.4517 -0.6435
  534MOL0     C72002   7.392  12.510   2.687 -1.5846  0.0352 -0.4680
  534MOL0     O72003   7.601  12.457   2.484 -0.7095  0.3387 -0.3520
  534MOL0     C72004   7.411  12.380   2.192  0.0886 -0.6599 -0.4434
  534MOL0     C72005   7.404  12.384   2.051 -1.0548 -0.4806  0.2448
  534MOL0     N72006   7.156  12.367   1.336 -0.1918 -0.0681 -0.4225
  534MOL0     N72007   7.056  12.444   1.310 -0.1395 -0.4794  0.7395
  534MOL0     C72008   6.301  11.647   1.251 -0.0136  0.1310 -0.4203
  534MOL0     C72009   6.374  11.535   1.197 -0.1503 -0.1760  0.1450
  534MOL0     C72010   6.696  11.178   1.220  0.6649 -0.4683  0.9002
  534MOL0     C72011   6.739  11.066   1.283  1.0030  0.1937  0.3292
  534MOL0     C72012   6.814  10.962   1.221  0.5573  0.6133  0.3572
  534MOL0     C72013   6.839  10.966   1.088 -0.8000 -0.2713  0.0472
  534MOL0     O72014   6.928  10.871   1.046 -0.2174  0.2025 -0.1455
  534MOL0     C72015   7.022  10.908   0.936  0.3742 -0.0607  0.2144
  534MOL0     C72016   7.148  10.823   0.953  1.2107 -0.8139 -0.0611
  534MOL0     C72017   7.246  10.882   1.052  0.5378  0.0847 -0.2113
  534MOL0     C72018   7.298  11.021   1.007 -1.2396  0.7189  0.0739
  534MOL0     C72019   7.427  11.067   1.071  0.5262 -0.6816  0.5555
  534MOL0     C72020   7.534  11.103   1.112  0.3461  0.6606  0.1808
  534MOL0     C72021   6.796  11.075   1.016 -0.6097  0.0278 -0.8370
  534MOL0     C72022   6.719  11.178   1.080 -0.2968 -1.0819 -0.8308
  534MOL0     H72023   6.651  11.549   1.385  0.1664  2.2548  0.6008
  534MOL0     H72024   6.527  11.729   1.502  0.2932  0.0300  1.0632
  534MOL0     H72025   6.395  11.904   1.548  0.0316 -2.2452 -0.7374
  534MOL0     H72026   6.469  11.934   1.393  1.0167 -0.2883  2.7357
  534MOL0     H72027   6.247  12.064   1.316 -1.0051  3.6452  0.2428
  534MOL0     H72028   6.196  12.049   1.485 -0.4098  0.1272 -1.3078
  534MOL0     H72029   6.287  12.267   1.418  0.3784  1.3691  0.1723
  534MOL0     H72030   6.374  12.181   1.547  0.7622  0.6869 -0.4351
  534MOL0     H72031   6.558  12.124   1.418  1.1493  1.1803  0.8995
  534MOL0     H72032   6.491  12.167   1.263  2.8832  3.7269 -1.2579
  534MOL0     H72033   6.500  12.397   1.295  0.0465 -0.0403  1.0415
  534MOL0     H72034   6.559  12.397   1.454 -0.4478  2.7504 -2.0876
  534MOL0     H72035   6.757  12.257   1.342  1.6745  2.5338  1.4590
  534MOL0     H72036   6.665  12.294   1.193  2.6049 -0.0126 -0.1182
  534MOL0     H72037   6.818  12.473   1.187 -4.0035 -1.9964 -3.2845
  534MOL0     H72038   6.680  12.543   1.268 -1.6589 -1.0988  0.0218
  534MOL0     H72039   6.786  12.485   1.489 -1.5412  2.0699  0.2302
  534MOL0     H72040   6.861  12.622   1.401 -1.6169  0.3182  1.9533
  534MOL0     H72041   6.969  12.306   1.594  3.8160  1.7984  1.8145
  534MOL0     H72042   7.222  12.106   1.453  0.8148 -0.9815  0.7395
  534MOL0     H72043   7.324  12.242   1.427 -1.7632 -1.7272 -3.0185
  534MOL0     H72044   7.293  12.102   1.663  0.8597 -0.2293  0.0426
  534MOL0     H72045   7.179  12.230   1.694 -0.1280 -0.1854 -0.8744
  534MOL0     H72046   7.350  12.396   1.705  0.8471  1.3900  0.0165
  534MOL0     H72047   7.458  12.300   1.598 -3.2588 -3.0801 -2.7902
  534MOL0     H72048   7.519  12.153   1.773 -2.1929 -0.6452 -2.9644
  534MOL0     H72049   7.381  12.200   1.866 -2.6257  1.0954 -1.9543
  534MOL0     H72050   7.740  12.339   2.010 -0.0924  0.8289 -0.1740
  534MOL0     H72051   7.768  12.305   2.387 -6.1473  1.0179  0.3033
  534MOL0     H72052   7.833  12.272   2.233  2.6841  0.8610  1.7254
  534MOL0     H72053   7.842  12.437   2.303 -1.4783 -0.3534  2.8584
  534MOL0     H72054   7.293  12.181   2.628  1.9134 -0.8909  2.5907
  534MOL0     H72055   7.229  12.198   2.864  0.1232 -0.8910 -0.2553
  534MOL0     H72056   7.338  12.539   3.141  0.0927 -2.2116 -1.0497
  534MOL0     H72057   7.205  12.608   3.031 -0.6847  0.0843 -2.3396
  534MOL0     H72058   7.182  12.393   3.255 -1.7351 -0.8351  1.2249
  534MOL0     H72059   7.172  12.563   3.282 -1.7532  0.2187  0.3441
  534MOL0     H72060   6.973  12.417   3.258 -1.4875 -1.1161 -0.4440
  534MOL0     H72061   6.993  12.408   3.081  0.1103  0.4678 -0.1604
  534MOL0     H72062   6.947  12.639   3.247  1.6462  0.0680 -0.5122
  534MOL0     H72063   6.947  12.649   3.066  1.1724  1.2217  0.9428
  534MOL0     H72064   6.758  12.502   3.253  4.6023 -0.3651  0.6043
  534MOL0     H72065   6.757  12.495   3.068 -2.5404  1.0142 -0.3075
  534MOL0     H72066   6.738  12.725   3.254 -0.0734  0.2528 -0.4285
  534MOL0     H72067   6.736  12.747   3.077 -0.2264  2.0793  1.1570
  534MOL0     H72068   6.526  12.561   3.196  0.7806 -0.9901 -1.9490
  534MOL0     H72069   6.518  12.645   3.040  1.3779  1.3930 -1.7791
  534MOL0     H72070   6.357  12.737   3.215  0.4711 -1.0622  2.2296
  534MOL0     H72071   6.459  12.863   3.160  3.8052  2.0154  0.8406
  534MOL0     H72072   7.359  12.600   2.893 -2.3489  0.5390 -0.3275
  534MOL0     H72073   7.439  12.602   2.655 -1.6803  1.0186  2.0051
  534MOL0     H72074   7.314  12.404   2.235  0.2970 -0.3901 -0.1206
  534MOL0     H72075   7.309  12.403   2.002 -1.4197 -4.6798 -1.1457
  534MOL0     H72076   6.217  11.701   1.208 -1.1343  1.3168  2.9220
  534MOL0     H72077   6.337  11.488   1.107  3.1289 -4.3608  0.6114
  534MOL0     H72078   6.724  11.064   1.391  1.5875 -1.0961  0.4048
  534MOL0     H72079   6.847  10.871   1.269  0.3584  0.2606 -0.1628
  534MOL0     H72080   6.971  10.889   0.841  3.1354  1.8108 -1.8212
  534MOL0     H72081   7.037  11.017   0.934 -0.5372  0.0789 -2.4082
  534MOL0     H72082   7.200  10.808   0.858  3.2664  0.1905  0.8629
  534MOL0     H72083   7.123  10.727   1.000  2.1380  0.1488  2.5624
  534MOL0     H72084   7.337  10.822   1.060  3.1866  3.9077  1.3166
  534MOL0     H72085   7.195  10.906   1.145  1.7970  2.0597  0.0353
  534MOL0     H72086   7.220  11.094   1.032 -1.2613 -0.1250  2.6652
  534MOL0     H72087   7.322  11.019   0.900 -1.5735 -1.7285 -0.0011
  534MOL0     H72088   7.632  11.146   1.124  1.1918 -0.9993 -0.3323
  534MOL0     H72089   6.812  11.090   0.910 -0.4865  0.1547 -0.8015
  534MOL0     H72090   6.687  11.260   1.017  0.8119 -0.7158 -0.9485
  535MOL0     O72091   1.922   1.507   1.349  0.5851  0.2719 -0.8285
  535MOL0     C72092   1.924   1.414   1.268 -0.8206  1.1330  0.1160
  535MOL0     O72093   2.031   1.376   1.187  0.3720  0.5445 -0.8272
  535MOL0     C72094   2.144   1.443   1.192  0.6029  0.9353  0.3427
  535MOL0     C72095   2.255   1.391   1.255  0.6971  0.3275 -0.1400
  535MOL0     C72096   2.386   1.450   1.247  0.3188 -1.0851  0.6407
  535MOL0     C72097   2.403   1.579   1.194 -0.4731  0.6464  1.2291
  535MOL0     O72098   2.522   1.655   1.196 -0.8745  0.1419 -0.6453
  535MOL0     C72099   2.638   1.607   1.263 -0.3438 -0.0598  0.1735
  535MOL0     C72100   2.748   1.715   1.258 -0.4077 -0.3697  0.4362
  535MOL0     C72101   2.866   1.702   1.342 -0.0764 -0.5658 -0.1863
  535MOL0     C72102   2.964   1.599   1.267  0.6944 -0.0708 -0.3110
  535MOL0     C72103   3.083   1.550   1.353  0.5051  0.5957 -0.1507
  535MOL0     C72104   3.167   1.440   1.278  0.5139  0.2720 -0.6415
  535MOL0     C72105   3.258   1.378   1.384  1.1107 -0.1923  0.1199
  535MOL0     C72106   3.381   1.311   1.327 -0.4244  0.2182  0.3146
  535MOL0     N72107   3.488   1.285   1.427  0.6944 -0.6482 -0.2341
  535MOL0     C72108   3.482   1.256   1.561  0.7213 -0.0228 -0.1912
  535MOL0     C72109   3.610   1.272   1.610  0.5486 -0.0927 -0.3645
  535MOL0     C72110   3.659   1.238   1.750 -0.1849  0.8941 -0.2146
  535MOL0     C72111   3.749   1.118   1.769  0.0451  0.2838 -1.9693
  535MOL0     C72112   3.668   0.985   1.746  0.2183 -0.5123 -0.2079
  535MOL0     C72113   3.761   0.866   1.721  0.1283 -0.4928  0.6788
  535MOL0     O72114   3.682   0.746   1.736 -1.0700 -0.7181 -0.7095
  535MOL0     C72115   3.727   0.636   1.670 -0.7584 -0.5443 -0.3155
  535MOL0     C72116   3.690   0.609   1.539  0.5154 -0.1131  0.7024
  535MOL0     C72117   3.727   0.489   1.476 -0.0002 -0.0479 -0.6013
  535MOL0     C72118   3.691   0.474   1.331  0.1275  0.0797 -0.3428
  535MOL0     C72119   3.813   0.397   1.545  0.3040 -0.0918 -0.1321
  535MOL0     C72120   3.854   0.265   1.489  0.0504  0.4458  0.7732
  535MOL0     O72121   3.757   0.180   1.425  0.0736 -0.3580  0.1343
  535MOL0     C72122   3.793   0.068   1.352 -0.4994 -1.1591  0.3392
  535MOL0     C72123   3.889  -0.029   1.392 -0.0200  1.0822 -0.0533
  535MOL0     C72124   3.899  -0.149   1.324 -0.6276 -0.2127  0.1427
  535MOL0     C72125   3.829  -0.164   1.207 -0.4606 -0.4966  0.2028
  535MOL0     O72126   3.849  -0.284   1.141  0.9724 -0.1072 -0.6404
  535MOL0     C72127   3.839  -0.285   0.992  0.2461  0.1491  0.3169
  535MOL0     C72128   3.966  -0.348   0.924  0.0045  0.0407  0.2874
  535MOL0     C72129   4.092  -0.284   0.971 -0.9097 -0.0815 -0.5478
  535MOL0     C72130   4.179  -0.391   1.041 -0.3296  0.5859 -0.1964
  535MOL0     C72131   4.314  -0.330   1.070 -0.0213 -0.5420 -0.7235
  535MOL0     C72132   4.342  -0.311   1.223  0.0379 -0.3126  0.8103
  535MOL0     C72133   4.254  -0.197   1.267 -0.2029  0.7348 -0.0387
  535MOL0     C72134   4.292  -0.150   1.403 -0.3729 -0.2864 -0.1969
  535MOL0    Cl72135   4.356  -0.276   1.510 -0.0727 -0.0467 -0.3513
  535MOL0     C72136   3.743  -0.063   1.155 -0.0949  0.3685  0.4184
  535MOL0     C72137   3.717   0.043   1.234  0.0451 -0.3077 -0.1149
  535MOL0     O72138   3.978   0.245   1.490  0.1686  0.0921 -0.6384
  535MOL0     C72139   3.860   0.434   1.678 -0.1240  0.1954 -0.6014
  535MOL0     C72140   3.815   0.553   1.737 -0.0996  0.4706  0.3509
  535MOL0     N72141   3.688   1.319   1.506 -1.1220  0.7087 -0.0634
  535MOL0     N72142   3.612   1.337   1.400  0.1934  1.5986  0.0443
  535MOL0     C72143   2.290   1.631   1.128 -0.5134 -0.0607 -0.5998
  535MOL0     C72144   2.161   1.563   1.127 -0.5184 -0.0688  0.7035
  535MOL0     C72145   1.806   1.333   1.243  0.4087  0.2674 -0.2908
  535MOL0     C72146   1.705   1.315   1.343  0.2204  0.4981  0.3453
  535MOL0     C72147   1.593   1.230   1.324  0.5742 -0.5096 -0.1030
  535MOL0     C72148   1.578   1.152   1.204 -0.1880  0.0894 -1.3187
  535MOL0     O72149   1.478   1.060   1.189  0.3481 -0.6750  0.1427
  535MOL0     C72150   1.350   1.121   1.200 -0.3501 -0.1420  0.7061
  535MOL0     C72151   1.253   1.004   1.240 -0.2803  0.5646 -0.5851
  535MOL0     C72152   1.125   1.058   1.298  0.0608  0.6383 -0.9360
  535MOL0     C72153   1.016   0.953   1.309 -0.1295  0.2845  0.4351
  535MOL0     C72154   0.892   1.013   1.351  0.4634  0.2893 -0.3444
  535MOL0     C72155   0.802   1.081   1.403  0.1784  0.6073 -0.8217
  535MOL0     C72156   1.675   1.171   1.099  0.5575  0.0633  0.4307
  535MOL0     C72157   1.787   1.259   1.118 -0.8263  1.0567  0.4859
  535MOL0     H72158   2.248   1.296   1.307 -0.3018  1.7589  2.5465
  535MOL0     H72159   2.475   1.402   1.287  1.2037 -1.6575 -1.8491
  535MOL0     H72160   2.622   1.594   1.370  2.2113 -2.0838  0.4047
  535MOL0     H72161   2.683   1.512   1.231  2.6823  1.9139 -1.9324
  535MOL0     H72162   2.786   1.714   1.155 -0.8785 -1.0920  0.2582
  535MOL0     H72163   2.712   1.817   1.272  1.9206  0.6291 -0.3603
  535MOL0     H72164   2.913   1.800   1.352 -1.1005  0.2346 -2.5532
  535MOL0     H72165   2.839   1.665   1.441 -1.9381  2.3217  0.4844
  535MOL0     H72166   2.899   1.514   1.243 -0.0960  0.8855 -1.6232
  535MOL0     H72167   3.004   1.643   1.176  0.6075 -1.6115 -1.1190
  535MOL0     H72168   3.145   1.640   1.357  3.2405 -1.0358 -2.3802
  535MOL0     H72169   3.043   1.515   1.449 -0.6571 -1.3738 -1.2662
  535MOL0     H72170   3.101   1.369   1.228  0.7301  1.1637 -2.2503
  535MOL0     H72171   3.232   1.468   1.194  3.2976 -3.2576  0.0633
  535MOL0     H72172   3.296   1.459   1.447  1.5215  1.1540 -1.7940
  535MOL0     H72173   3.211   1.300   1.445  0.8443 -1.9041 -2.1408
  535MOL0     H72174   3.419   1.380   1.251 -0.5385 -0.3894 -0.3029
  535MOL0     H72175   3.364   1.216   1.275  1.0767 -0.6133  1.2584
  535MOL0     H72176   3.401   1.228   1.627  1.2577  0.4235  0.6827
  535MOL0     H72177   3.709   1.328   1.786  2.5830  0.3145 -2.2244
  535MOL0     H72178   3.562   1.213   1.794 -0.4468 -1.2494 -1.8253
  535MOL0     H72179   3.774   1.117   1.875 -1.0998  1.8803 -1.6350
  535MOL0     H72180   3.834   1.121   1.701  1.0600  0.8394 -0.7068
  535MOL0     H72181   3.597   0.979   1.663  0.4004 -0.9363 -0.3347
  535MOL0     H72182   3.612   0.962   1.838 -1.1280  2.4048 -0.1866
  535MOL0     H72183   3.840   0.872   1.796 -0.3857  0.2940  1.1745
  535MOL0     H72184   3.804   0.866   1.621 -0.7479  1.2008  0.2616
  535MOL0     H72185   3.632   0.677   1.478 -1.2792 -1.9511  0.2662
  535MOL0     H72186   3.601   0.412   1.339 -0.9961  1.6754 -0.1432
  535MOL0     H72187   3.664   0.567   1.280  1.6293  0.2236 -0.9404
  535MOL0     H72188   3.769   0.419   1.277 -0.7184 -2.1207  0.5638
  535MOL0     H72189   3.955  -0.015   1.477  3.0104 -2.5993 -1.5288
  535MOL0     H72190   3.961  -0.223   1.373  0.5295  0.1834 -0.6856
  535MOL0     H72191   3.747  -0.338   0.967 -1.8297  3.4980  0.1062
  535MOL0     H72192   3.835  -0.186   0.946 -0.3776 -0.5593 -1.2047
  535MOL0     H72193   3.962  -0.456   0.943  1.3417  0.2935  2.2718
  535MOL0     H72194   3.954  -0.327   0.817  1.1633  2.7150  0.6055
  535MOL0     H72195   4.072  -0.205   1.044  1.2333  1.8209 -1.8932
  535MOL0     H72196   4.155  -0.229   0.901 -0.8659  1.7979  0.8782
  535MOL0     H72197   4.133  -0.430   1.133  1.9627  0.2636  0.8845
  535MOL0     H72198   4.195  -0.480   0.979 -0.4034  1.2545 -1.1815
  535MOL0     H72199   4.344  -0.238   1.019 -3.0958  2.8899  3.0456
  535MOL0     H72200   4.389  -0.396   1.026  1.9489  1.3911 -0.4014
  535MOL0     H72201   4.333  -0.402   1.283  2.0912 -0.5261  0.8851
  535MOL0     H72202   4.447  -0.279   1.227  0.1989  0.9591 -4.9367
  535MOL0     H72203   4.152  -0.234   1.266 -0.3328  0.8943  1.9348
  535MOL0     H72204   4.256  -0.105   1.207 -0.0202  0.7531 -0.0067
  535MOL0     H72205   4.202  -0.112   1.452 -0.0353 -2.5312  2.4066
  535MOL0     H72206   4.366  -0.069   1.404  2.2775 -2.4046  3.7415
  535MOL0     H72207   3.683  -0.074   1.065 -0.4411 -0.7976  0.7697
  535MOL0     H72208   3.645   0.118   1.202  0.0152  1.4449  3.4767
  535MOL0     H72209   3.930   0.369   1.729  0.6943  3.2054  2.4957
  535MOL0     H72210   3.839   0.577   1.840  1.2837  2.1998 -0.3110
  535MOL0     H72211   2.300   1.730   1.085  4.1169 -0.1166 -0.2203
  535MOL0     H72212   2.077   1.601   1.071  1.0427 -0.8308 -2.4116
  535MOL0     H72213   1.716   1.359   1.441 -1.9516  1.4908  0.2028
  535MOL0     H72214   1.521   1.222   1.405  2.5567 -0.5760  1.7570
  535MOL0     H72215   1.351   1.187   1.287 -2.0669 -2.6751  2.7833
  535MOL0     H72216   1.318   1.156   1.101 -0.4870 -1.3620  0.3026
  535MOL0     H72217   1.307   0.946   1.315  0.3451  2.1764  0.2762
  535MOL0     H72218   1.249   0.927   1.163  0.2327 -0.4592  0.3956
  535MOL0     H72219   1.083   1.149   1.255  0.0413  1.6814  1.1496
  535MOL0     H72220   1.154   1.100   1.395  0.7342  0.3442 -1.0061
  535MOL0     H72221   1.044   0.876   1.382 -0.2475  1.6559  1.9790
  535MOL0     H72222   0.999   0.907   1.211  0.8158  2.6066 -0.9034
  535MOL0     H72223   0.725   1.133   1.456 -0.3883  0.3824 -1.4033
  535MOL0     H72224   1.663   1.110   1.010 -1.0029  0.8806  0.0521
  535MOL0     H72225   1.862   1.267   1.040  1.2142  2.0412  2.4403
  536MOL0     O72226   9.370   7.524   2.131  0.1369  0.2511  0.4386
  536MOL0     C72227   9.409   7.462   2.033 -1.4997 -0.2928  0.6123
  536MOL0     O72228   9.330   7.378   1.964 -0.4742 -1.2004  0.4332
  536MOL0     C72229   9.190   7.385   1.970 -0.0613  0.2311  0.7430
  536MOL0     C72230   9.121   7.277   1.906 -0.1663 -0.2027  1.0703
  536MOL0     C72231   8.974   7.279   1.893  0.0894 -0.0949  0.1330
  536MOL0     C72232   8.897   7.388   1.946 -0.1263  1.0786 -0.1992
  536MOL0     O72233   8.755   7.391   1.940 -0.2161 -0.2355 -0.6542
  536MOL0     C72234   8.685   7.307   2.034 -0.4237 -0.7387 -0.1721
  536MOL0     C72235   8.631   7.406   2.142 -0.0110  0.2934 -0.0779
  536MOL0     C72236   8.556   7.525   2.067 -0.9303 -0.1822 -0.8830
  536MOL0     C72237   8.529   7.645   2.166 -0.8321  0.3643  0.0300
  536MOL0     C72238   8.439   7.604   2.290  0.8841  0.4049 -0.1442
  536MOL0     C72239   8.418   7.715   2.394  0.1477 -0.5598  0.6261
  536MOL0     C72240   8.545   7.767   2.479  0.1382  0.3575 -0.2758
  536MOL0     C72241   8.614   7.647   2.551  0.2519 -0.6128  0.3388
  536MOL0     N72242   8.732   7.697   2.625 -0.1442  1.0672 -0.5431
  536MOL0     C72243   8.850   7.690   2.563 -0.8141 -0.3120 -1.1282
  536MOL0     C72244   8.946   7.720   2.656  0.3091  0.1123  0.6039
  536MOL0     C72245   9.087   7.768   2.633  1.2904  0.7539  0.1407
  536MOL0     C72246   9.178   7.646   2.596  0.4546 -0.1337  1.0040
  536MOL0     C72247   9.309   7.689   2.526  1.1037  0.2668 -0.2748
  536MOL0     C72248   9.300   7.755   2.390 -0.3021 -0.1959 -0.0984
  536MOL0     O72249   9.273   7.892   2.394  0.6115  0.3383 -0.3331
  536MOL0     C72250   9.361   7.963   2.311 -0.3245 -0.0860  0.5500
  536MOL0     C72251   9.299   8.077   2.252 -0.5501 -1.1367  0.7442
  536MOL0     C72252   9.385   8.166   2.183 -0.3570  0.1792 -0.4162
  536MOL0     C72253   9.328   8.281   2.123  0.4757  0.2602 -0.1854
  536MOL0     C72254   9.518   8.134   2.159 -0.4460  1.2217 -0.4039
  536MOL0     C72255   9.595   8.222   2.075 -0.4028 -0.2640  0.1309
  536MOL0     O72256   9.639   8.344   2.123  0.4315  0.2957  0.2694
  536MOL0     C72257   9.733   8.413   2.046  0.4396  0.7820  0.4440
  536MOL0     C72258   9.701   8.537   1.999 -0.8218  0.0188  0.2285
  536MOL0     C72259   9.802   8.617   1.949 -0.1469  0.8798  0.0839
  536MOL0     C72260   9.934   8.575   1.943 -0.0096  0.4469 -0.1511
  536MOL0     O72261  10.027   8.675   1.896  0.2580  0.2725 -0.0379
  536MOL0     C72262  10.120   8.627   1.803  0.0506 -0.1261  0.2563
  536MOL0     C72263  10.213   8.734   1.741 -0.4353  0.0971  0.3258
  536MOL0     C72264  10.346   8.666   1.692 -0.9490  0.1965  0.1544
  536MOL0     C72265  10.328   8.599   1.551  0.8221  0.3928  0.4592
  536MOL0     C72266  10.460   8.515   1.517  0.7236  0.2196  0.6085
  536MOL0     C72267  10.568   8.608   1.479 -1.0092 -0.9952  0.3451
  536MOL0     C72268  10.692   8.526   1.425 -0.3256  0.6845 -0.4191
  536MOL0     C72269  10.808   8.617   1.368  0.1759 -0.2442  0.1629
  536MOL0    Cl72270  10.756   8.721   1.233  0.0102  0.1868 -0.0989
  536MOL0     C72271   9.965   8.440   1.976 -0.6535 -0.4390 -0.6141
  536MOL0     C72272   9.864   8.361   2.036  0.5716 -0.4556 -0.5944
  536MOL0     O72273   9.607   8.177   1.965 -0.0132 -0.8743 -0.1311
  536MOL0     C72274   9.583   8.027   2.222 -0.7542  0.6186 -0.9279
  536MOL0     C72275   9.502   7.948   2.307 -0.5124 -0.6113 -0.1995
  536MOL0     N72276   8.881   7.723   2.772  0.5091 -0.8662 -0.3872
  536MOL0     N72277   8.759   7.697   2.756  0.0069 -0.5820 -0.3438
  536MOL0     C72278   8.966   7.497   2.000  0.2018 -0.0308  0.0598
  536MOL0     C72279   9.104   7.497   2.023 -0.4644 -1.1264  0.0893
  536MOL0     C72280   9.548   7.491   1.980 -0.0344 -0.0754 -0.9298
  536MOL0     C72281   9.580   7.458   1.850  0.1266  0.3605 -0.8268
  536MOL0     C72282   9.705   7.487   1.804  0.1403 -0.0192  0.2970
  536MOL0     C72283   9.799   7.551   1.883 -0.8056  0.4506 -0.3566
  536MOL0     O72284   9.928   7.557   1.825 -0.0015 -0.0010 -0.3616
  536MOL0     C72285  10.029   7.625   1.910  0.3487 -0.1658  0.0994
  536MOL0     C72286  10.172   7.606   1.843  0.8954 -0.3882  0.0149
  536MOL0     C72287  10.166   7.577   1.694  0.4957 -0.0822  0.3851
  536MOL0     C72288  10.111   7.695   1.610  0.6324  0.3580  0.1714
  536MOL0     C72289  10.163   7.695   1.472  0.0305  0.0819  0.5838
  536MOL0     C72290  10.190   7.689   1.351  0.7726 -0.4584  0.1626
  536MOL0     C72291   9.764   7.593   2.009 -0.1759 -0.3239 -0.2307
  536MOL0     C72292   9.643   7.566   2.061 -0.7147  1.4791  0.3245
  536MOL0     H72293   9.182   7.200   1.860 -1.9587 -1.0535  0.0241
  536MOL0     H72294   8.921   7.203   1.837  2.6265 -0.7422 -1.5705
  536MOL0     H72295   8.602   7.256   1.984 -1.3607 -1.6989  2.2081
  536MOL0     H72296   8.745   7.227   2.081 -3.0319 -4.7073 -2.9171
  536MOL0     H72297   8.566   7.353   2.212  1.5632 -0.3799  0.9114
  536MOL0     H72298   8.712   7.439   2.208 -1.0501  1.3421  0.7169
  536MOL0     H72299   8.609   7.567   1.982  1.6058 -0.7013  0.3500
  536MOL0     H72300   8.462   7.480   2.033 -0.1695 -2.3040 -0.3142
  536MOL0     H72301   8.623   7.688   2.201 -1.2078  1.4452 -0.2453
  536MOL0     H72302   8.486   7.719   2.098  2.0595  0.8952 -1.3854
  536MOL0     H72303   8.339   7.590   2.249  0.4220  0.6065  0.8832
  536MOL0     H72304   8.482   7.512   2.329  1.2329  1.0249  0.9835
  536MOL0     H72305   8.373   7.808   2.357  2.4972  0.9057  1.2335
  536MOL0     H72306   8.353   7.664   2.465  0.4670  0.3493  1.6009
  536MOL0     H72307   8.611   7.816   2.405 -1.2230  3.9310  0.6718
  536MOL0     H72308   8.504   7.831   2.557  1.7690 -0.9540  1.7707
  536MOL0     H72309   8.645   7.566   2.485 -0.0547 -0.5017  0.0555
  536MOL0     H72310   8.545   7.616   2.631 -0.2603  0.9312  0.5234
  536MOL0     H72311   8.856   7.656   2.460 -1.4769 -1.1905 -0.8851
  536MOL0     H72312   9.084   7.835   2.547  1.6982 -0.5383 -0.9066
  536MOL0     H72313   9.134   7.816   2.720  0.8831 -2.2187  2.1805
  536MOL0     H72314   9.128   7.583   2.521  2.4237 -2.0412  1.1812
  536MOL0     H72315   9.207   7.586   2.682  1.1753 -0.7513  0.3444
  536MOL0     H72316   9.365   7.597   2.509 -0.4367 -0.7559  0.0230
  536MOL0     H72317   9.363   7.749   2.600  4.7857 -1.3819 -1.3696
  536MOL0     H72318   9.226   7.705   2.327  2.1151 -1.3732 -2.2100
  536MOL0     H72319   9.395   7.726   2.343 -0.1554  0.8590 -0.4737
  536MOL0     H72320   9.192   8.090   2.254 -0.9214 -2.2182 -3.2805
  536MOL0     H72321   9.220   8.287   2.136  0.8459  4.3270  3.1008
  536MOL0     H72322   9.355   8.374   2.174 -3.7517  1.6351 -0.0977
  536MOL0     H72323   9.361   8.287   2.019  0.5424 -1.6657 -0.3226
  536MOL0     H72324   9.605   8.584   2.020  0.3244  3.7678 -1.9502
  536MOL0     H72325   9.784   8.722   1.928  1.4293  1.6657  2.3593
  536MOL0     H72326  10.185   8.555   1.854 -0.3320 -0.9553 -0.3977
  536MOL0     H72327  10.053   8.586   1.727 -2.2613  3.6834  0.0086
  536MOL0     H72328  10.159   8.791   1.664  3.1990  0.8367 -1.8930
  536MOL0     H72329  10.233   8.815   1.813 -0.5268  1.9516 -1.6227
  536MOL0     H72330  10.386   8.587   1.756  3.8177  1.3541 -0.9643
  536MOL0     H72331  10.418   8.747   1.707 -0.7822 -0.3310  2.5040
  536MOL0     H72332  10.241   8.534   1.566  1.6646 -0.4492  1.9520
  536MOL0     H72333  10.303   8.676   1.478 -0.7360 -0.9045 -0.4350
  536MOL0     H72334  10.430   8.441   1.442 -2.6363  0.7209  1.2834
  536MOL0     H72335  10.493   8.465   1.608 -0.1650 -0.8030  0.3875
  536MOL0     H72336  10.526   8.679   1.406  2.3364 -0.2222 -1.0276
  536MOL0     H72337  10.598   8.660   1.571  0.1634 -0.8795 -0.0872
  536MOL0     H72338  10.663   8.451   1.350  4.4976  0.1403 -2.0667
  536MOL0     H72339  10.733   8.470   1.509 -2.5775 -1.9277 -0.9032
  536MOL0     H72340  10.879   8.543   1.331 -1.2340 -1.7531  0.3359
  536MOL0     H72341  10.847   8.681   1.447  1.4342 -0.0761 -0.5773
  536MOL0     H72342  10.061   8.397   1.950  0.4635  1.7774 -0.3522
  536MOL0     H72343   9.876   8.260   2.073  1.5724  0.8493  3.1667
  536MOL0     H72344   9.684   7.994   2.199 -0.7768 -0.0438 -0.1176
  536MOL0     H72345   9.565   7.874   2.356  1.8714 -0.1144 -2.2958
  536MOL0     H72346   8.901   7.582   2.019 -0.8290 -0.3335 -1.8521
  536MOL0     H72347   9.154   7.588   2.055  1.4726 -1.4438 -1.7510
  536MOL0     H72348   9.502   7.412   1.790  0.0858 -2.1739  1.0569
  536MOL0     H72349   9.719   7.463   1.699 -1.6226 -2.9134  0.6108
  536MOL0     H72350  10.005   7.731   1.924  0.5288 -0.0025 -0.7466
  536MOL0     H72351  10.034   7.586   2.012  0.3721 -1.3359 -0.3314
  536MOL0     H72352  10.217   7.518   1.889 -1.6239 -0.9794  1.4878
  536MOL0     H72353  10.241   7.691   1.846 -1.0118  1.1979  1.7956
  536MOL0     H72354  10.119   7.488   1.651  2.5966 -0.9326 -0.2799
  536MOL0     H72355  10.269   7.567   1.658  0.2393  3.4802 -1.7984
  536MOL0     H72356  10.121   7.799   1.645 -0.8772  0.9865 -1.1658
  536MOL0     H72357  10.002   7.690   1.607  0.5628  1.3210  0.6157
  536MOL0     H72358  10.208   7.696   1.246  0.0564 -2.4915 -0.1389
  536MOL0     H72359   9.826   7.655   2.073 -0.9020 -1.5941  1.7902
  536MOL0     H72360   9.616   7.580   2.166  0.5448  1.2036  0.7024
  537MOL0     O72361   8.341   5.197   2.591  0.0240  0.0694  0.0597
  537MOL0     C72362   8.374   5.308   2.549 -0.6147  0.4310 -0.5718
  537MOL0     O72363   8.473   5.397   2.605  0.4239  1.6436  0.7226
  537MOL0     C72364   8.538   5.340   2.709 -0.5523  0.2714  0.6595
  537MOL0     C72365   8.473   5.340   2.831 -1.0857 -0.5447  1.1136
  537MOL0     C72366   8.536   5.267   2.929 -0.4067 -0.0619 -0.2757
  537MOL0     C72367   8.659   5.212   2.914 -0.5733 -0.0126 -0.3342
  537MOL0     O72368   8.713   5.153   3.031  0.5129 -0.3972 -0.0533
  537MOL0     C72369   8.856   5.156   3.036  0.2184 -0.2383  0.0321
  537MOL0     C72370   8.889   5.107   3.178  0.1910 -0.2152  0.4667
  537MOL0     C72371   8.855   5.205   3.292  0.8261 -0.1118 -0.7643
  537MOL0     C72372   8.955   5.194   3.407 -0.4200 -0.2421 -0.1130
  537MOL0     C72373   8.985   5.051   3.450  0.6001 -0.2719  0.0047
  537MOL0     C72374   9.046   5.050   3.589 -0.9416  0.3016 -0.6101
  537MOL0     C72375   9.157   5.140   3.626 -0.0890  0.1551  0.3733
  537MOL0     C72376   9.303   5.092   3.571  0.7425 -0.0345 -0.5712
  537MOL0     N72377   9.406   5.193   3.600 -0.0514  0.0353  0.6566
  537MOL0     C72378   9.490   5.241   3.500 -0.8855  0.2443 -0.1023
  537MOL0     C72379   9.608   5.274   3.562 -0.8917 -0.6096  0.7976
  537MOL0     C72380   9.739   5.330   3.490 -0.7749  0.5185  0.4610
  537MOL0     C72381   9.802   5.214   3.410 -1.0874  0.1462 -0.9844
  537MOL0     C72382   9.733   5.177   3.277 -0.2600  0.0825  0.0445
  537MOL0     C72383   9.743   5.280   3.161  0.0949  0.1611 -1.0040
  537MOL0     O72384   9.638   5.275   3.065 -0.2603 -0.2078 -0.4819
  537MOL0     C72385   9.666   5.367   2.955  0.1971  0.3130 -0.1950
  537MOL0     C72386   9.779   5.454   2.944 -0.8953  0.3436  0.4194
  537MOL0     C72387   9.803   5.549   2.844  0.4376 -0.9588  0.8565
  537MOL0     C72388   9.929   5.624   2.826 -0.2862  0.4588  0.1289
  537MOL0     C72389   9.703   5.560   2.742 -0.5383 -0.5216  0.4441
  537MOL0     C72390   9.699   5.676   2.647 -0.3068  0.0554  0.1955
  537MOL0     O72391   9.695   5.647   2.516 -0.7458  0.2408  0.0189
  537MOL0     C72392   9.643   5.735   2.422  0.9879 -0.4925 -0.0982
  537MOL0     C72393   9.723   5.797   2.330  0.1931  0.2799  0.1603
  537MOL0     C72394   9.666   5.864   2.224  0.0189 -0.0375 -0.1136
  537MOL0     C72395   9.533   5.892   2.228  0.7324 -0.5206  0.0386
  537MOL0     O72396   9.485   5.984   2.143  0.4649 -0.7497  0.0069
  537MOL0     C72397   9.347   6.029   2.152  0.0231  0.7976 -0.3709
  537MOL0     C72398   9.319   6.154   2.062  0.0844  0.0890 -0.1247
  537MOL0     C72399   9.419   6.169   1.944 -0.6606 -1.0433 -0.0133
  537MOL0     C72400   9.388   6.305   1.873  0.0203  0.1928 -0.9034
  537MOL0     C72401   9.482   6.333   1.755  0.4713 -0.2583 -0.0507
  537MOL0     C72402   9.451   6.248   1.634 -0.1456  0.3018  0.0659
  537MOL0     C72403   9.561   6.263   1.525 -0.5046  1.1164 -0.9972
  537MOL0     C72404   9.510   6.216   1.383  0.0774 -0.1720 -0.4099
  537MOL0    Cl72405   9.509   6.045   1.378 -0.3896  0.4059  0.1859
  537MOL0     C72406   9.447   5.832   2.325 -0.7364 -0.3016  0.2974
  537MOL0     C72407   9.506   5.742   2.414 -0.1829 -0.3114 -0.0264
  537MOL0     O72408   9.688   5.789   2.688 -0.4278  0.4938  0.2765
  537MOL0     C72409   9.593   5.471   2.754 -0.1775 -0.1572 -0.0713
  537MOL0     C72410   9.577   5.368   2.850  0.6024 -0.8039 -0.5160
  537MOL0     N72411   9.591   5.251   3.696 -0.2207 -0.0796 -0.7611
  537MOL0     N72412   9.479   5.192   3.714 -0.4747  0.1249 -0.0043
  537MOL0     C72413   8.717   5.212   2.790  0.3995  0.7954 -0.4709
  537MOL0     C72414   8.657   5.276   2.685  0.1403  0.6295 -0.7126
  537MOL0     C72415   8.314   5.343   2.414  0.0143  0.3888  1.0213
  537MOL0     C72416   8.195   5.279   2.360 -0.5200  0.5315  0.9505
  537MOL0     C72417   8.129   5.333   2.244  0.1517 -0.3682 -0.1251
  537MOL0     C72418   8.190   5.439   2.174  0.1010  0.4680  0.1563
  537MOL0     O72419   8.135   5.480   2.050 -0.2623 -0.0373 -0.6137
  537MOL0     C72420   8.061   5.396   1.967  0.6456  0.7121 -0.0598
  537MOL0     C72421   8.123   5.271   1.914 -0.4374  0.8277  0.5004
  537MOL0     C72422   8.227   5.280   1.805 -0.9058 -0.6127 -0.7945
  537MOL0     C72423   8.363   5.349   1.841 -0.0130  0.7286 -0.2614
  537MOL0     C72424   8.421   5.284   1.961  1.0219  0.6955 -0.9233
  537MOL0     C72425   8.451   5.237   2.067 -0.1606 -0.0624 -0.9609
  537MOL0     C72426   8.305   5.501   2.225  0.0811 -0.1532  0.9105
  537MOL0     C72427   8.355   5.459   2.345  0.1381 -0.5358 -0.5885
  537MOL0     H72428   8.374   5.384   2.826 -0.0624  1.7677 -1.5795
  537MOL0     H72429   8.480   5.282   3.020  0.1681  1.1541 -0.0969
  537MOL0     H72430   8.909   5.097   2.960 -2.0726  2.0609 -3.6960
  537MOL0     H72431   8.890   5.259   3.021 -0.4869 -0.2690 -2.0917
  537MOL0     H72432   8.830   5.016   3.191 -0.2030 -0.5084 -2.6327
  537MOL0     H72433   8.994   5.076   3.177  0.5735  0.9838  1.3776
  537MOL0     H72434   8.842   5.310   3.264 -1.7067 -0.5028 -1.3064
  537MOL0     H72435   8.758   5.183   3.338  0.0712  2.1890 -1.0947
  537MOL0     H72436   9.053   5.235   3.383 -0.6857  1.2198  1.1143
  537MOL0     H72437   8.922   5.265   3.484  1.0667 -1.1464  1.4591
  537MOL0     H72438   8.881   5.017   3.458  0.2496  0.9546  1.0166
  537MOL0     H72439   9.042   4.988   3.381  1.2827 -0.6477  0.8847
  537MOL0     H72440   8.966   5.070   3.661  3.1093 -0.4741  4.6464
  537MOL0     H72441   9.075   4.947   3.614  1.4599  0.4614 -2.4052
  537MOL0     H72442   9.128   5.242   3.599 -3.0054 -1.2296 -2.3628
  537MOL0     H72443   9.173   5.121   3.733 -0.2778  1.1204  0.5898
  537MOL0     H72444   9.308   5.075   3.463  0.2816  1.1455 -0.7936
  537MOL0     H72445   9.325   4.994   3.613  2.0523  0.9013  1.0252
  537MOL0     H72446   9.459   5.235   3.396 -2.9869 -1.9426  0.5483
  537MOL0     H72447   9.720   5.424   3.436 -5.2870  1.9659  3.9204
  537MOL0     H72448   9.807   5.360   3.570 -3.9330 -0.5479  3.8191
  537MOL0     H72449   9.796   5.135   3.485 -2.7560 -2.0433 -3.2710
  537MOL0     H72450   9.907   5.238   3.393 -0.2964 -1.2723  1.4269
  537MOL0     H72451   9.629   5.146   3.289  0.5908 -2.7912  0.7663
  537MOL0     H72452   9.771   5.080   3.243  0.7889  0.5012 -0.0065
  537MOL0     H72453   9.845   5.274   3.122  0.7386  1.1550  0.4269
  537MOL0     H72454   9.725   5.380   3.202 -1.5891 -1.1467  1.7193
  537MOL0     H72455   9.860   5.447   3.016 -1.7490 -2.8702  1.2443
  537MOL0     H72456  10.004   5.572   2.766  1.1571 -0.6055  2.6880
  537MOL0     H72457   9.915   5.723   2.780  1.5331  1.0332  0.7463
  537MOL0     H72458   9.979   5.637   2.922  0.7624 -2.5407  0.1018
  537MOL0     H72459   9.830   5.782   2.322 -0.1994 -2.2519 -1.6375
  537MOL0     H72460   9.734   5.906   2.151  1.7389 -0.2939  1.2897
  537MOL0     H72461   9.282   5.950   2.113  0.4494  0.5388 -0.5696
  537MOL0     H72462   9.315   6.048   2.254 -3.9380 -0.6583 -1.1675
  537MOL0     H72463   9.218   6.159   2.020 -0.8411 -1.6146  1.7363
  537MOL0     H72464   9.317   6.252   2.111 -4.0009  0.9168 -1.4917
  537MOL0     H72465   9.399   6.083   1.880  0.5744 -1.3653 -0.0009
  537MOL0     H72466   9.523   6.169   1.978 -0.9522  2.0280  1.1830
  537MOL0     H72467   9.286   6.284   1.839 -0.0876 -1.8298  0.4864
  537MOL0     H72468   9.390   6.386   1.946  1.6247  1.1616 -1.9771
  537MOL0     H72469   9.581   6.316   1.799  0.8308  0.0049 -0.7350
  537MOL0     H72470   9.482   6.438   1.723  2.0217 -0.6460 -1.5084
  537MOL0     H72471   9.451   6.148   1.677  1.5931  0.6083  0.8853
  537MOL0     H72472   9.356   6.283   1.592  0.0941  0.4006 -0.3981
  537MOL0     H72473   9.641   6.201   1.566 -3.2553 -0.8180  1.9610
  537MOL0     H72474   9.594   6.367   1.517 -1.4885  1.5013 -0.2685
  537MOL0     H72475   9.563   6.253   1.294 -0.5595  1.4748 -0.1332
  537MOL0     H72476   9.410   6.258   1.371 -0.0770  0.0763  1.4828
  537MOL0     H72477   9.340   5.846   2.339 -1.0259 -1.0571 -1.0576
  537MOL0     H72478   9.430   5.682   2.463  0.7383 -2.4417 -1.0478
  537MOL0     H72479   9.510   5.481   2.685 -1.4349 -1.1260  1.2410
  537MOL0     H72480   9.488   5.306   2.857  0.6759 -1.0855 -1.8108
  537MOL0     H72481   8.801   5.143   2.781  0.6058  0.8920  0.5799
  537MOL0     H72482   8.697   5.262   2.585  1.9548 -1.6577  0.2369
  537MOL0     H72483   8.153   5.203   2.426 -2.9083  1.5543  0.7347
  537MOL0     H72484   8.038   5.281   2.215  0.1197  0.7179 -2.1536
  537MOL0     H72485   7.971   5.372   2.024  1.3256 -1.0733  0.3229
  537MOL0     H72486   8.029   5.446   1.875 -2.1012 -1.1938 -0.2465
  537MOL0     H72487   8.048   5.209   1.864  0.9550 -0.1442 -0.4351
  537MOL0     H72488   8.151   5.223   2.008 -1.6285  1.0134  0.9790
  537MOL0     H72489   8.177   5.332   1.723 -0.8151 -1.2425 -1.2540
  537MOL0     H72490   8.265   5.186   1.764 -0.8283 -1.5963  1.3763
  537MOL0     H72491   8.341   5.452   1.869 -1.3485 -0.3629  3.2462
  537MOL0     H72492   8.430   5.349   1.754  0.8781  3.7063  0.3143
  537MOL0     H72493   8.471   5.204   2.167 -1.4430 -0.2054 -0.7348
  537MOL0     H72494   8.371   5.560   2.163 -0.7046 -2.0038 -1.8978
  537MOL0     H72495   8.441   5.509   2.388 -1.6360 -0.8693  3.7959
  538MOL0     O72496   3.847   7.710   3.554  0.3462  0.1331  0.3791
  538MOL0     C72497   3.727   7.715   3.590 -1.1408  0.2205  0.8542
  538MOL0     O72498   3.650   7.817   3.566  0.0358 -0.0326 -0.4200
  538MOL0     C72499   3.685   7.915   3.474  0.1311 -0.0820  0.1380
  538MOL0     C72500   3.707   7.873   3.347 -0.1644  0.2280  0.3394
  538MOL0     C72501   3.724   7.971   3.241  0.0371  0.6849  0.3559
  538MOL0     C72502   3.745   8.107   3.270  0.2142  0.1853 -0.4875
  538MOL0     O72503   3.769   8.198   3.167  0.0945  0.5436  0.3395
  538MOL0     C72504   3.833   8.330   3.194  0.5007  0.0633 -0.9194
  538MOL0     C72505   3.978   8.315   3.255 -0.0491  0.6657  0.1476
  538MOL0     C72506   4.022   8.435   3.319  0.0408 -0.3323 -0.5540
  538MOL0     C72507   4.154   8.416   3.396  0.6207  0.1422 -0.0914
  538MOL0     C72508   4.190   8.531   3.492  0.1559  0.1869 -0.7662
  538MOL0     C72509   4.345   8.527   3.520 -0.5828  0.4368 -0.4459
  538MOL0     C72510   4.401   8.392   3.581 -0.1317  0.2741  0.0777
  538MOL0     C72511   4.547   8.405   3.649 -0.3922  0.2858 -0.3675
  538MOL0     N72512   4.574   8.516   3.740  0.1299  0.4686 -0.7621
  538MOL0     C72513   4.543   8.516   3.872 -0.5474  0.8182 -0.2307
  538MOL0     C72514   4.578   8.634   3.920  0.6255 -0.0672 -0.3354
  538MOL0     C72515   4.557   8.685   4.063 -0.0335 -0.2231  0.0579
  538MOL0     C72516   4.476   8.814   4.079 -0.4852  0.4028  0.3748
  538MOL0     C72517   4.315   8.816   4.058 -0.3372  0.3805  0.5247
  538MOL0     C72518   4.247   8.947   4.090  0.0333  0.2534  0.1854
  538MOL0     O72519   4.248   8.964   4.238 -0.1676 -0.3602 -0.4642
  538MOL0     C72520   4.174   9.079   4.273 -0.1160  0.2716  0.4185
  538MOL0     C72521   4.158   9.196   4.198  0.9900  0.6178 -0.1940
  538MOL0     C72522   4.092   9.309   4.250  0.3006 -0.2252 -0.5312
  538MOL0     C72523   4.071   9.427   4.149 -0.2179 -0.6503  0.1951
  538MOL0     C72524   4.050   9.308   4.381  0.2300  0.2912  0.0782
  538MOL0     C72525   3.970   9.416   4.443  0.0482 -0.2406 -0.3182
  538MOL0     O72526   3.887   9.491   4.365  0.1043  0.3828 -0.3411
  538MOL0     C72527   3.815   9.599   4.419  1.5614 -0.2591 -0.2854
  538MOL0     C72528   3.844   9.732   4.382 -0.1033 -1.3657  0.7864
  538MOL0     C72529   3.762   9.838   4.436  0.4432 -0.3717 -0.4303
  538MOL0     C72530   3.663   9.817   4.541 -0.0111 -0.6821 -0.1521
  538MOL0     O72531   3.576   9.906   4.588  0.3073  0.4849 -0.6992
  538MOL0     C72532   3.605  10.041   4.572  0.1170 -0.4306 -0.1223
  538MOL0     C72533   3.543  10.099   4.444  0.1430 -0.1448  0.2344
  538MOL0     C72534   3.409  10.191   4.461  0.8919  0.0209  0.4933
  538MOL0     C72535   3.354  10.233   4.321 -0.2218  0.6490 -0.7546
  538MOL0     C72536   3.279  10.366   4.330  0.6247  1.1246 -0.6094
  538MOL0     C72537   3.144  10.356   4.397 -0.6756  0.6048 -0.2654
  538MOL0     C72538   3.042  10.273   4.327 -0.3578 -0.3691 -0.1337
  538MOL0     C72539   2.899  10.338   4.309 -0.1549  0.2513  1.0921
  538MOL0    Cl72540   2.809  10.203   4.240 -0.1390 -0.1618 -0.1994
  538MOL0     C72541   3.646   9.680   4.571  0.1027  0.6150 -0.2063
  538MOL0     C72542   3.709   9.577   4.505 -0.6467 -0.3209  1.0198
  538MOL0     O72543   3.985   9.442   4.561  0.9535  0.3186  0.3259
  538MOL0     C72544   4.083   9.202   4.457 -0.2806 -0.2979  0.2949
  538MOL0     C72545   4.137   9.088   4.400  0.0080 -0.9631 -0.1980
  538MOL0     N72546   4.642   8.704   3.821  0.4151  1.0083 -0.4117
  538MOL0     N72547   4.634   8.631   3.712  0.1010 -0.1231 -0.2125
  538MOL0     C72548   3.715   8.146   3.401  0.2488  0.2993 -0.2858
  538MOL0     C72549   3.686   8.055   3.496 -0.4451  0.2931  0.4506
  538MOL0     C72550   3.674   7.623   3.690 -0.2719  0.0288  0.1877
  538MOL0     C72551   3.528   7.618   3.720  0.5524 -0.5169 -0.4078
  538MOL0     C72552   3.466   7.513   3.789 -0.3871  1.0293  0.7273
  538MOL0     C72553   3.546   7.405   3.839  0.1616 -0.2259  0.1326
  538MOL0     O72554   3.481   7.306   3.909  0.7305 -0.6585  0.0766
  538MOL0     C72555   3.543   7.189   3.958 -0.7906 -0.3591 -0.4528
  538MOL0     C72556   3.578   7.194   4.113 -0.7007 -0.5861  1.3083
  538MOL0     C72557   3.502   7.294   4.196  0.3150 -0.7795  0.0182
  538MOL0     C72558   3.556   7.293   4.343  0.2034 -0.5821  0.4478
  538MOL0     C72559   3.689   7.342   4.349  0.8057 -0.4840 -0.1641
  538MOL0     C72560   3.798   7.389   4.342 -0.5496 -0.6519  0.2262
  538MOL0     C72561   3.689   7.408   3.818 -0.1115  0.5700 -0.0775
  538MOL0     C72562   3.751   7.519   3.749  0.2522  0.3599  0.7951
  538MOL0     H72563   3.704   7.766   3.328  1.7359  0.4658 -1.7032
  538MOL0     H72564   3.745   7.933   3.142  0.8990 -1.1617  1.1937
  538MOL0     H72565   3.847   8.378   3.097  0.8924 -1.5222 -1.6913
  538MOL0     H72566   3.770   8.394   3.257  1.8331 -0.9360  1.5931
  538MOL0     H72567   3.974   8.227   3.319 -0.9292  1.0346  0.6174
  538MOL0     H72568   4.046   8.281   3.176  2.1227 -1.6029  2.8030
  538MOL0     H72569   4.027   8.526   3.257 -3.9714  0.6114  0.2422
  538MOL0     H72570   3.949   8.460   3.396  2.3498  3.1502  0.7262
  538MOL0     H72571   4.149   8.333   3.468  2.2214 -0.2202 -0.3673
  538MOL0     H72572   4.228   8.401   3.317 -0.9408  3.5916 -2.4571
  538MOL0     H72573   4.179   8.632   3.453 -0.9510  0.0781 -0.7754
  538MOL0     H72574   4.136   8.538   3.587 -0.0120  3.3782 -0.9999
  538MOL0     H72575   4.402   8.548   3.429  2.7887 -1.1346  1.1412
  538MOL0     H72576   4.374   8.604   3.592 -0.7643 -0.1863  0.3072
  538MOL0     H72577   4.329   8.359   3.656 -0.3143 -3.1299 -1.4036
  538MOL0     H72578   4.400   8.313   3.505 -1.3714 -0.1825  0.5434
  538MOL0     H72579   4.620   8.415   3.568 -1.8822  3.6176 -1.4924
  538MOL0     H72580   4.580   8.313   3.698 -0.7457  0.1325 -0.4122
  538MOL0     H72581   4.494   8.443   3.936 -0.3995 -0.2365 -1.2813
  538MOL0     H72582   4.503   8.607   4.117 -1.4100  0.0504 -0.8745
  538MOL0     H72583   4.652   8.703   4.114 -0.9606 -1.8622  2.5980
  538MOL0     H72584   4.520   8.890   4.013 -1.9595  0.6988 -0.3096
  538MOL0     H72585   4.501   8.852   4.178  3.5153 -0.3526 -0.1604
  538MOL0     H72586   4.271   8.740   4.123  0.2672 -0.3823  0.0562
  538MOL0     H72587   4.285   8.791   3.956 -1.6374  0.2341  0.9240
  538MOL0     H72588   4.141   8.956   4.062  0.8142  3.6043 -2.3236
  538MOL0     H72589   4.300   9.033   4.049 -0.9845  0.6477 -0.3487
  538MOL0     H72590   4.196   9.199   4.097 -2.5925 -4.0056 -2.0146
  538MOL0     H72591   4.085   9.525   4.195  0.3268 -0.8947  0.5609
  538MOL0     H72592   4.147   9.428   4.070 -0.1266 -0.5381  0.2837
  538MOL0     H72593   3.978   9.410   4.095  0.3511 -1.6102 -0.5032
  538MOL0     H72594   3.913   9.745   4.299  2.4345 -3.9217  2.3053
  538MOL0     H72595   3.779   9.939   4.401  3.1666 -0.6272 -0.0885
  538MOL0     H72596   3.574  10.106   4.655 -0.6678 -0.5864 -0.2832
  538MOL0     H72597   3.712  10.064   4.572 -0.0679  0.6089  1.5794
  538MOL0     H72598   3.612  10.169   4.397 -2.7029  1.2923 -2.1649
  538MOL0     H72599   3.522  10.014   4.379 -0.3867  1.2927 -1.5739
  538MOL0     H72600   3.442  10.282   4.513  0.3454  0.2045  0.5181
  538MOL0     H72601   3.327  10.148   4.519  0.6279  2.6393  2.2032
  538MOL0     H72602   3.437  10.266   4.258  1.2532  1.1101  1.3444
  538MOL0     H72603   3.289  10.156   4.277 -1.5495  0.2765  1.6682
  538MOL0     H72604   3.276  10.406   4.228  0.7532 -0.8033 -1.4153
  538MOL0     H72605   3.332  10.432   4.399  4.8513  1.2481 -3.5861
  538MOL0     H72606   3.153  10.307   4.494 -1.4992  1.2738  0.1689
  538MOL0     H72607   3.108  10.459   4.410 -0.1443  0.6262  1.2157
  538MOL0     H72608   3.038  10.169   4.361  0.0755  0.4547  2.6754
  538MOL0     H72609   3.080  10.267   4.225 -0.2561 -2.1139 -0.0206
  538MOL0     H72610   2.884  10.421   4.238  0.2131  0.5965  1.4118
  538MOL0     H72611   2.857  10.363   4.407 -0.7367 -0.0105  0.9123
  538MOL0     H72612   3.592   9.633   4.652  0.7673  0.9934  0.4705
  538MOL0     H72613   3.679   9.477   4.535  2.7905 -1.6441  0.5189
  538MOL0     H72614   4.060   9.199   4.563 -3.7804  2.0614 -0.2392
  538MOL0     H72615   4.162   9.005   4.466 -1.8488 -2.2942 -1.0672
  538MOL0     H72616   3.705   8.254   3.402  1.7090  0.6730 -4.5240
  538MOL0     H72617   3.671   8.099   3.594 -0.3233  2.8633 -0.6017
  538MOL0     H72618   3.476   7.710   3.696  0.5325  0.3445  2.5449
  538MOL0     H72619   3.358   7.500   3.792 -0.1327 -5.1063 -1.3983
  538MOL0     H72620   3.468   7.111   3.943 -1.0037 -1.2066  3.6710
  538MOL0     H72621   3.634   7.168   3.902 -0.1586  1.6585 -0.2606
  538MOL0     H72622   3.682   7.225   4.124 -1.7011  2.5250  2.8746
  538MOL0     H72623   3.576   7.094   4.159 -1.0296 -0.9551  0.5256
  538MOL0     H72624   3.398   7.261   4.194 -0.9221  2.6164  1.4602
  538MOL0     H72625   3.505   7.395   4.154  0.1903 -0.4848  0.7172
  538MOL0     H72626   3.564   7.189   4.376 -2.2734 -0.2292  2.5269
  538MOL0     H72627   3.487   7.326   4.421  1.0457  0.0235  0.9563
  538MOL0     H72628   3.899   7.425   4.349 -0.4050 -0.8686 -0.5663
  538MOL0     H72629   3.761   7.332   3.848 -0.3407 -0.1227 -1.2073
  538MOL0     H72630   3.859   7.515   3.736  0.1430  0.4796 -0.1508
  539MOL0     O72631   4.298  10.332   6.852 -0.0413  0.4353  0.6120
  539MOL0     C72632   4.232  10.317   6.746  0.4755 -0.4159 -0.4445
  539MOL0     O72633   4.109  10.357   6.733  0.5183 -0.2055  0.5512
  539MOL0     C72634   4.052  10.402   6.852 -0.3900  0.8875 -0.7847
  539MOL0     C72635   3.966  10.321   6.925  0.0391 -0.1366 -0.2019
  539MOL0     C72636   3.896  10.368   7.034  0.4199 -0.8153  0.2771
  539MOL0     C72637   3.891  10.510   7.065  0.2980  0.0869  0.0231
  539MOL0     O72638   3.823  10.560   7.182 -0.6359 -0.0499  0.9748
  539MOL0     C72639   3.802  10.461   7.287 -0.0655  0.3625  0.5532
  539MOL0     C72640   3.774  10.524   7.422  0.1316  0.3094  0.1464
  539MOL0     C72641   3.898  10.555   7.502 -0.5173  0.4283  0.3240
  539MOL0     C72642   3.879  10.645   7.622 -0.4844 -0.2149  0.2229
  539MOL0     C72643   3.890  10.797   7.602 -0.1843  0.4596 -0.3255
  539MOL0     C72644   4.043  10.841   7.573 -0.4513 -0.3849  0.0838
  539MOL0     C72645   4.042  10.992   7.542 -0.1246  0.2465  0.3477
  539MOL0     C72646   4.170  11.062   7.511 -1.4884 -0.3077 -0.9595
  539MOL0     N72647   4.265  10.963   7.448 -0.4543  0.1199 -0.1497
  539MOL0     C72648   4.251  10.946   7.314  0.0719  0.0119 -0.2634
  539MOL0     C72649   4.367  10.890   7.270 -0.2561  0.4030 -0.2170
  539MOL0     C72650   4.389  10.849   7.122 -0.3474 -0.1563 -0.0698
  539MOL0     C72651   4.429  10.697   7.115 -0.3387  0.1559 -0.3235
  539MOL0     C72652   4.506  10.679   6.982 -0.6094  0.0067 -0.1378
  539MOL0     C72653   4.414  10.651   6.866 -0.1395 -0.0681  1.3181
  539MOL0     O72654   4.459  10.688   6.731 -0.4277 -0.4450 -0.3784
  539MOL0     C72655   4.476  10.828   6.712 -0.0895  0.4317 -0.8265
  539MOL0     C72656   4.588  10.873   6.640  0.6347  1.1150  0.5973
  539MOL0     C72657   4.611  11.012   6.617  0.2876  1.0135 -0.8572
  539MOL0     C72658   4.740  11.039   6.546 -0.5355 -0.9340  0.4339
  539MOL0     C72659   4.517  11.109   6.648 -0.0110  0.1224  0.6296
  539MOL0     C72660   4.501  11.250   6.604 -1.0977 -0.2398 -0.4068
  539MOL0     O72661   4.593  11.306   6.527 -0.0358  0.5296 -0.0047
  539MOL0     C72662   4.629  11.439   6.542 -1.0066 -0.1146 -1.8393
  539MOL0     C72663   4.667  11.504   6.424 -0.4116 -0.0381  0.1806
  539MOL0     C72664   4.734  11.626   6.439 -0.6172 -0.4491 -0.3040
  539MOL0     C72665   4.744  11.696   6.566 -0.0100 -0.9826 -0.0321
  539MOL0     O72666   4.796  11.825   6.583  0.8083 -0.1584 -0.2901
  539MOL0     C72667   4.844  11.909   6.478  0.3316  0.2266 -0.2333
  539MOL0     C72668   4.896  12.037   6.547  0.4842 -0.9870  0.3649
  539MOL0     C72669   4.778  12.114   6.614 -0.3469 -0.6862 -0.3471
  539MOL0     C72670   4.820  12.253   6.661 -0.7613  0.6143  0.1494
  539MOL0     C72671   4.709  12.307   6.749  0.4384 -0.6092 -0.0770
  539MOL0     C72672   4.703  12.461   6.770 -0.4482  0.2647  0.8294
  539MOL0     C72673   4.807  12.519   6.846 -0.7046 -0.0602 -0.0429
  539MOL0     C72674   4.788  12.670   6.852 -0.2962  0.9297 -0.6589
  539MOL0    Cl72675   4.627  12.726   6.940  0.3768 -0.3586 -0.0751
  539MOL0     C72676   4.680  11.633   6.672 -0.0918  0.8573 -0.2549
  539MOL0     C72677   4.646  11.498   6.671 -0.2996 -0.4984  0.3394
  539MOL0     O72678   4.400  11.312   6.636 -0.4208  0.8112 -0.2234
  539MOL0     C72679   4.415  11.066   6.738  1.0638  0.2490 -0.2024
  539MOL0     C72680   4.389  10.931   6.763  0.5585 -1.8153 -0.0796
  539MOL0     N72681   4.441  10.860   7.381 -0.4023 -0.1482 -1.0324
  539MOL0     N72682   4.384  10.913   7.487 -0.3639 -0.3743 -0.2379
  539MOL0     C72683   3.970  10.594   6.981 -0.1748 -1.1931 -0.2700
  539MOL0     C72684   4.048  10.542   6.882 -0.2253 -0.2224  0.6364
  539MOL0     C72685   4.292  10.258   6.630 -0.7712 -0.2300  0.2939
  539MOL0     C72686   4.426  10.296   6.599  0.6986 -0.8115  0.3921
  539MOL0     C72687   4.497  10.234   6.485 -0.0153 -0.4829  0.2673
  539MOL0     C72688   4.425  10.152   6.398  0.7772 -0.0013  1.2260
  539MOL0     O72689   4.492  10.102   6.281 -0.4316  0.1097  0.7061
  539MOL0     C72690   4.406  10.036   6.184 -0.5819  0.2366  0.4419
  539MOL0     C72691   4.487  10.023   6.049  0.6127 -1.1844  0.0938
  539MOL0     C72692   4.597   9.927   6.067  0.2558 -1.0679  0.2252
  539MOL0     C72693   4.653   9.897   5.930  0.4822 -0.4007 -0.8708
  539MOL0     C72694   4.763   9.801   5.947 -0.4714 -0.1766 -0.1358
  539MOL0     C72695   4.851   9.728   5.972  0.5623 -0.0237  0.0357
  539MOL0     C72696   4.289  10.118   6.432 -0.0541 -0.9200  0.3609
  539MOL0     C72697   4.231  10.169   6.547  0.2463  0.3738 -0.2907
  539MOL0     H72698   3.958  10.214   6.904 -0.0626 -0.1405 -0.1455
  539MOL0     H72699   3.827  10.297   7.078  0.4948 -0.7058  0.5715
  539MOL0     H72700   3.718  10.400   7.253 -1.7682  2.6889  0.3492
  539MOL0     H72701   3.894  10.405   7.307 -0.8191 -0.7664  0.9477
  539MOL0     H72702   3.728  10.621   7.400  0.4147  0.0996 -1.5301
  539MOL0     H72703   3.707  10.461   7.482 -1.2192 -0.0802 -1.6474
  539MOL0     H72704   3.942  10.467   7.550 -0.2265  1.1792  1.4719
  539MOL0     H72705   3.961  10.605   7.428  0.4051 -0.1035  0.7309
  539MOL0     H72706   3.779  10.628   7.663 -0.9158 -0.0760 -0.7363
  539MOL0     H72707   3.964  10.615   7.684 -0.4592 -2.7601 -0.9150
  539MOL0     H72708   3.829  10.819   7.514 -0.4624  1.0538  0.0085
  539MOL0     H72709   3.844  10.844   7.689 -2.3220 -2.4662  0.2629
  539MOL0     H72710   4.115  10.835   7.655 -0.3928 -0.3897  0.0313
  539MOL0     H72711   4.068  10.776   7.489 -0.1253 -0.9602  0.6201
  539MOL0     H72712   3.977  10.999   7.454  2.2148  2.4368 -1.3328
  539MOL0     H72713   3.988  11.043   7.623  0.1638  0.0760  0.6538
  539MOL0     H72714   4.208  11.091   7.610  0.4919 -3.3732 -0.6993
  539MOL0     H72715   4.168  11.148   7.443  3.1335 -0.8142 -2.0767
  539MOL0     H72716   4.159  10.975   7.263 -0.0606  3.6870  1.7267
  539MOL0     H72717   4.302  10.859   7.055  1.0045  1.6981 -1.6754
  539MOL0     H72718   4.460  10.914   7.069  1.0603 -0.6069  1.2029
  539MOL0     H72719   4.339  10.638   7.137 -0.6699  1.8120  3.7103
  539MOL0     H72720   4.510  10.685   7.188  1.7623  1.8660 -2.2340
  539MOL0     H72721   4.568  10.591   6.996  0.4767  0.8412  0.4997
  539MOL0     H72722   4.576  10.761   6.966  1.0493 -1.3969 -0.3239
  539MOL0     H72723   4.320  10.701   6.888  0.4400  1.0094  1.4047
  539MOL0     H72724   4.392  10.544   6.864 -0.8277  0.0667  1.6321
  539MOL0     H72725   4.665  10.814   6.590  1.6942  1.7808  1.3951
  539MOL0     H72726   4.760  10.958   6.476 -1.3843 -1.8984  1.2747
  539MOL0     H72727   4.733  11.130   6.486 -0.6774 -2.5134 -2.1018
  539MOL0     H72728   4.813  11.057   6.625  1.0359  0.7342 -1.3028
  539MOL0     H72729   4.640  11.469   6.325 -2.0659 -5.3749  2.1668
  539MOL0     H72730   4.769  11.679   6.352 -1.7577  0.1951 -0.3973
  539MOL0     H72731   4.923  11.857   6.425  2.8220  2.6615  0.8582
  539MOL0     H72732   4.758  11.925   6.411  1.7528  2.4272 -1.6642
  539MOL0     H72733   4.988  12.013   6.600  2.2179  1.1360 -1.5159
  539MOL0     H72734   4.932  12.100   6.465 -1.9821 -0.8567 -0.7323
  539MOL0     H72735   4.739  12.057   6.699  1.6710  0.4473  1.4247
  539MOL0     H72736   4.701  12.118   6.536 -1.5958 -3.4178  0.6149
  539MOL0     H72737   4.910  12.241   6.723  0.2133  2.3563 -0.8505
  539MOL0     H72738   4.859  12.324   6.588 -1.4042  0.3813 -0.4279
  539MOL0     H72739   4.710  12.258   6.846  3.7670  0.7819  0.7058
  539MOL0     H72740   4.610  12.284   6.708  0.5503 -0.7691 -0.2627
  539MOL0     H72741   4.694  12.508   6.672  0.8363 -3.0889 -1.0735
  539MOL0     H72742   4.607  12.477   6.821 -0.7597  0.4640  0.1942
  539MOL0     H72743   4.904  12.499   6.800 -0.8519  0.2267 -0.4804
  539MOL0     H72744   4.815  12.483   6.949 -1.1265  0.3203  0.1276
  539MOL0     H72745   4.799  12.716   6.753  2.2201  1.0380 -0.3968
  539MOL0     H72746   4.869  12.697   6.921 -1.3114 -1.9988  1.9062
  539MOL0     H72747   4.680  11.675   6.772 -0.8754 -4.0486  2.1321
  539MOL0     H72748   4.615  11.444   6.760  2.4024  2.0950  3.0953
  539MOL0     H72749   4.335  11.128   6.776  1.3537 -0.2276  1.2149
  539MOL0     H72750   4.302  10.911   6.826  0.6865 -2.3192 -0.0599
  539MOL0     H72751   3.975  10.701   7.000  2.8526 -0.7979 -2.4480
  539MOL0     H72752   4.107  10.608   6.818 -2.1634  0.5935 -0.3763
  539MOL0     H72753   4.475  10.366   6.665 -0.7230  1.7379 -1.1152
  539MOL0     H72754   4.603  10.241   6.463 -0.0424 -0.6484  0.0926
  539MOL0     H72755   4.381   9.937   6.223  0.4248  0.5388  1.9423
  539MOL0     H72756   4.313  10.091   6.169 -0.8648 -0.2430  0.4141
  539MOL0     H72757   4.522  10.119   6.012 -1.9670  1.1270  3.0976
  539MOL0     H72758   4.419   9.983   5.973  3.3298 -2.0816 -2.0256
  539MOL0     H72759   4.554   9.831   6.098 -3.2930  0.1006 -0.6007
  539MOL0     H72760   4.679   9.958   6.133  1.0943 -1.3533 -0.6568
  539MOL0     H72761   4.684   9.992   5.885 -1.0034  1.1151  1.1318
  539MOL0     H72762   4.577   9.858   5.862 -1.5974  2.4165 -0.3123
  539MOL0     H72763   4.934   9.661   5.982  0.7748  0.0079 -1.3175
  539MOL0     H72764   4.218  10.065   6.370 -1.8636 -0.2330  1.7795
  539MOL0     H72765   4.133  10.138   6.581  0.4251  1.1178  0.9376
  540MOL0     O72766   6.682   0.071   3.869  0.1391  0.0556 -0.3350
  540MOL0     C72767   6.615   0.062   3.767  0.7002 -0.1136 -0.1564
  540MOL0     O72768   6.642  -0.011   3.664  0.2716  0.2196 -0.5472
  540MOL0     C72769   6.750  -0.097   3.647  0.0549 -0.0087 -0.0657
  540MOL0     C72770   6.743  -0.176   3.534 -0.4697 -0.1795 -0.0593
  540MOL0     C72771   6.852  -0.267   3.495 -0.1197 -0.5015 -0.7892
  540MOL0     C72772   6.968  -0.271   3.575  0.3809 -0.1943  0.7228
  540MOL0     O72773   7.078  -0.350   3.541 -0.4825  0.0452 -0.5076
  540MOL0     C72774   7.104  -0.395   3.401  0.8869  0.0878 -0.9982
  540MOL0     C72775   7.032  -0.530   3.380 -0.4816  0.7986  1.2134
  540MOL0     C72776   7.088  -0.624   3.267 -0.5724  0.3329  0.6807
  540MOL0     C72777   7.035  -0.578   3.137 -0.2748 -0.1445  0.1365
  540MOL0     C72778   7.118  -0.594   3.011  0.9928 -0.5900  0.5595
  540MOL0     C72779   7.162  -0.739   2.978  0.1344  0.3713 -0.2183
  540MOL0     C72780   7.041  -0.829   2.964 -0.5366  0.5441  0.1635
  540MOL0     C72781   7.096  -0.978   2.937 -0.2847  0.6088 -0.2830
  540MOL0     N72782   6.975  -1.064   2.908 -0.6610 -0.2187  0.3303
  540MOL0     C72783   6.884  -1.118   2.998 -0.5372 -0.2823 -0.2018
  540MOL0     C72784   6.784  -1.177   2.930  0.1388 -0.4198 -0.9580
  540MOL0     C72785   6.672  -1.256   2.996  0.0111 -0.4877  0.2103
  540MOL0     C72786   6.613  -1.374   2.906 -0.2918 -0.7869 -0.4549
  540MOL0     C72787   6.501  -1.454   2.983 -0.2757  0.3795  1.1064
  540MOL0     C72788   6.423  -1.524   2.874  0.0425 -0.6878 -0.6205
  540MOL0     O72789   6.486  -1.649   2.836  0.1791  0.4822  0.1364
  540MOL0     C72790   6.494  -1.748   2.927 -0.2401  0.0841  0.0182
  540MOL0     C72791   6.579  -1.854   2.885  0.1509 -0.5229 -0.0056
  540MOL0     C72792   6.594  -1.968   2.957 -1.3744  0.4036 -0.1878
  540MOL0     C72793   6.660  -2.080   2.882 -0.4681 -0.7518  0.6821
  540MOL0     C72794   6.531  -1.977   3.089  0.7270  0.6676 -0.0874
  540MOL0     C72795   6.523  -2.111   3.167 -0.1690 -1.5931  0.5058
  540MOL0     O72796   6.564  -2.226   3.106 -0.0548  0.2012 -0.4153
  540MOL0     C72797   6.568  -2.339   3.186 -0.2809  0.1255  0.0814
  540MOL0     C72798   6.463  -2.381   3.275  0.0908 -0.5451  0.1219
  540MOL0     C72799   6.479  -2.501   3.350 -0.0293 -1.2305  0.7216
  540MOL0     C72800   6.589  -2.577   3.320 -0.2066  0.8656  0.4110
  540MOL0     O72801   6.596  -2.701   3.384  0.4494  0.6952 -0.4486
  540MOL0     C72802   6.478  -2.765   3.434  1.0929  0.6115  0.0392
  540MOL0     C72803   6.475  -2.737   3.587 -0.5652  0.3538 -0.8694
  540MOL0     C72804   6.324  -2.695   3.639  0.0916 -1.0061  0.6058
  540MOL0     C72805   6.308  -2.696   3.787  0.4961  0.0166 -0.2312
  540MOL0     C72806   6.224  -2.815   3.840 -0.4029  0.3521  0.6726
  540MOL0     C72807   6.214  -2.822   3.998 -0.3507 -0.6181 -0.6209
  540MOL0     C72808   6.179  -2.684   4.065  0.8387  0.1525 -0.4890
  540MOL0     C72809   6.041  -2.642   4.008  1.0594  0.5975  0.6254
  540MOL0    Cl72810   5.915  -2.753   4.068 -0.0424 -0.2309 -0.1140
  540MOL0     C72811   6.691  -2.543   3.227  0.9356 -0.0275  0.0719
  540MOL0     C72812   6.678  -2.418   3.166 -0.2936 -0.9417  0.9665
  540MOL0     O72813   6.480  -2.097   3.282 -0.2904 -0.2035  1.4178
  540MOL0     C72814   6.465  -1.865   3.139  0.1361 -0.2700  0.1252
  540MOL0     C72815   6.442  -1.753   3.055  0.8779  0.7534 -0.6780
  540MOL0     N72816   6.820  -1.165   2.797  0.7542 -0.8386 -0.2903
  540MOL0     N72817   6.929  -1.102   2.783  0.1477 -1.4417 -0.0742
  540MOL0     C72818   6.967  -0.206   3.699 -0.2760  1.2052 -0.6184
  540MOL0     C72819   6.862  -0.121   3.735 -0.4684  0.1425  0.3219
  540MOL0     C72820   6.493   0.148   3.747 -0.0085  0.9829 -0.1248
  540MOL0     C72821   6.443   0.236   3.846 -0.1236 -0.0453  0.9455
  540MOL0     C72822   6.329   0.306   3.840 -0.4343  0.4868 -0.2527
  540MOL0     C72823   6.240   0.276   3.727 -0.1444  0.5017  0.2972
  540MOL0     O72824   6.119   0.336   3.700  0.1365 -0.0445 -0.1777
  540MOL0     C72825   6.045   0.411   3.803  0.2830 -0.5838 -0.0339
  540MOL0     C72826   6.100   0.553   3.812 -0.4031 -0.5047 -0.5221
  540MOL0     C72827   6.129   0.628   3.681 -0.0553  0.0407  0.2440
  540MOL0     C72828   6.002   0.652   3.599  0.8551  0.2473  0.9332
  540MOL0     C72829   5.895   0.722   3.668 -0.0480 -0.5455  0.2677
  540MOL0     C72830   5.811   0.784   3.729 -0.3604 -0.3605 -0.4617
  540MOL0     C72831   6.283   0.183   3.626 -0.0622 -0.7507 -0.4707
  540MOL0     C72832   6.403   0.124   3.638 -0.7609  0.2395  0.1508
  540MOL0     H72833   6.657  -0.155   3.472 -0.7279 -0.6812  0.1215
  540MOL0     H72834   6.848  -0.327   3.404  0.9661 -2.4507  0.3745
  540MOL0     H72835   7.060  -0.325   3.329 -1.9290 -0.1413  0.3492
  540MOL0     H72836   7.211  -0.390   3.379  0.6519  0.6012 -2.0632
  540MOL0     H72837   7.041  -0.577   3.478 -1.6457  1.3852  1.6230
  540MOL0     H72838   6.924  -0.518   3.371 -0.4042  0.4879 -0.4748
  540MOL0     H72839   7.197  -0.615   3.266 -0.3421 -0.8626  3.7462
  540MOL0     H72840   7.061  -0.726   3.296 -2.2125  0.2555 -0.9688
  540MOL0     H72841   6.934  -0.619   3.122 -0.7346  0.6629  0.9134
  540MOL0     H72842   7.015  -0.470   3.131 -2.1614 -0.4495  0.2523
  540MOL0     H72843   7.054  -0.564   2.927 -1.8331 -0.9197  2.4582
  540MOL0     H72844   7.206  -0.529   3.008 -0.3933  1.3978  0.9312
  540MOL0     H72845   7.206  -0.735   2.878 -1.2479 -2.9025 -1.0626
  540MOL0     H72846   7.233  -0.775   3.053 -0.6489 -3.4256 -1.0978
  540MOL0     H72847   6.977  -0.827   3.052 -3.3321 -0.2715 -1.6998
  540MOL0     H72848   6.980  -0.802   2.878 -2.4827  0.2930  1.4184
  540MOL0     H72849   7.136  -1.015   3.032  1.8120 -3.1845 -2.3939
  540MOL0     H72850   7.182  -0.978   2.870 -1.0254  1.0009 -1.2584
  540MOL0     H72851   6.898  -1.113   3.106  1.1732 -0.8273 -0.3639
  540MOL0     H72852   6.707  -1.286   3.095  5.3582  2.3215 -0.4580
  540MOL0     H72853   6.585  -1.190   3.010 -0.1281 -0.4812 -0.6738
  540MOL0     H72854   6.698  -1.438   2.881  2.4799  2.2767  0.5304
  540MOL0     H72855   6.579  -1.330   2.812 -0.4533  2.3968  0.9841
  540MOL0     H72856   6.438  -1.380   3.033 -0.0735 -0.5538  2.7834
  540MOL0     H72857   6.547  -1.515   3.061  0.6734 -3.4868 -2.1143
  540MOL0     H72858   6.409  -1.457   2.789  0.1977  3.9372  2.6039
  540MOL0     H72859   6.322  -1.540   2.912  0.2301 -2.7642 -0.9046
  540MOL0     H72860   6.651  -1.845   2.804  2.3217 -2.6223  1.5265
  540MOL0     H72861   6.728  -2.038   2.808 -0.7511  2.5272  2.1102
  540MOL0     H72862   6.704  -2.154   2.950  3.3642  0.9542  0.3163
  540MOL0     H72863   6.590  -2.142   2.825  0.0751 -0.2779 -0.5273
  540MOL0     H72864   6.375  -2.320   3.283 -1.7231 -3.1196  1.1516
  540MOL0     H72865   6.398  -2.533   3.415  1.3449 -2.2302  2.0370
  540MOL0     H72866   6.388  -2.744   3.377  0.5773  0.5248  0.7988
  540MOL0     H72867   6.489  -2.874   3.422 -0.4342  0.0899  2.4903
  540MOL0     H72868   6.521  -2.822   3.637  0.5314 -1.0789 -4.0628
  540MOL0     H72869   6.540  -2.653   3.613  0.4759 -1.5870  3.6501
  540MOL0     H72870   6.240  -2.749   3.594  1.7119 -1.5853 -1.9998
  540MOL0     H72871   6.306  -2.590   3.617  0.8632 -0.0783  3.8197
  540MOL0     H72872   6.408  -2.709   3.829 -0.2566 -1.4374  1.2146
  540MOL0     H72873   6.274  -2.600   3.827 -1.0080  0.3514 -2.1949
  540MOL0     H72874   6.271  -2.909   3.810 -1.7939 -0.7170  1.6672
  540MOL0     H72875   6.127  -2.824   3.789  0.4257 -1.7205 -0.6610
  540MOL0     H72876   6.136  -2.896   4.016  1.8051 -2.3495  2.6044
  540MOL0     H72877   6.305  -2.851   4.052 -0.1367 -0.1091 -0.6993
  540MOL0     H72878   6.253  -2.608   4.042  0.6430  0.6135  0.3669
  540MOL0     H72879   6.172  -2.691   4.174 -3.7477 -0.4216 -0.5897
  540MOL0     H72880   6.035  -2.658   3.900 -1.0626 -0.2240  0.8056
  540MOL0     H72881   6.007  -2.542   4.038  0.3919  0.3573  0.7074
  540MOL0     H72882   6.769  -2.612   3.199  2.9854  2.0830  0.2965
  540MOL0     H72883   6.747  -2.368   3.098 -2.3375 -1.4736 -1.6986
  540MOL0     H72884   6.442  -1.860   3.245 -0.5897 -1.2442  0.0310
  540MOL0     H72885   6.387  -1.670   3.098  0.0138 -1.7926  3.6075
  540MOL0     H72886   7.039  -0.235   3.776 -2.0307  2.1619  1.5099
  540MOL0     H72887   6.858  -0.088   3.838 -1.4770 -0.6934  0.5705
  540MOL0     H72888   6.500   0.264   3.934  0.4533  2.4087 -0.1157
  540MOL0     H72889   6.322   0.381   3.918  0.4588 -2.2102  2.6131
  540MOL0     H72890   5.938   0.403   3.779  1.1673 -1.6070 -4.5866
  540MOL0     H72891   6.063   0.360   3.898 -1.8638 -1.3324  0.0299
  540MOL0     H72892   6.194   0.559   3.867 -0.0091  2.2849 -1.3952
  540MOL0     H72893   6.028   0.604   3.878  1.1796 -0.6263  1.3896
  540MOL0     H72894   6.190   0.570   3.611  0.3241 -0.4897  0.9950
  540MOL0     H72895   6.184   0.721   3.694  2.5019 -0.9790 -2.3021
  540MOL0     H72896   5.967   0.552   3.575  0.7382 -0.5845  4.1265
  540MOL0     H72897   6.019   0.713   3.509 -1.7269 -0.7878 -0.3511
  540MOL0     H72898   5.740   0.837   3.789  2.9109  1.4402  2.1795
  540MOL0     H72899   6.233   0.173   3.530  2.5064  0.8175 -2.1110
  540MOL0     H72900   6.433   0.059   3.557  2.8291  0.1541  1.3824
  541MOL0     O72901   1.250   6.261   6.244  0.7580  0.7190  0.0333
  541MOL0     C72902   1.322   6.343   6.184 -0.5012  0.2086 -0.0693
  541MOL0     O72903   1.372   6.452   6.254 -0.1047  0.1189  0.0557
  541MOL0     C72904   1.379   6.437   6.390  0.5935 -0.0846 -0.8078
  541MOL0     C72905   1.322   6.539   6.465  0.2837  0.0301  0.1812
  541MOL0     C72906   1.332   6.532   6.599 -0.0747 -0.2440  0.3987
  541MOL0     C72907   1.378   6.415   6.671  0.6420 -0.0978  0.5674
  541MOL0     O72908   1.378   6.408   6.804 -0.2968  1.2335 -0.3057
  541MOL0     C72909   1.331   6.515   6.881  0.2034  0.4216 -0.6182
  541MOL0     C72910   1.171   6.536   6.880  0.0873  0.7229  0.0740
  541MOL0     C72911   1.118   6.423   6.961 -0.2401  0.8730 -0.1035
  541MOL0     C72912   0.987   6.475   7.025  0.9637 -0.2093 -0.8873
  541MOL0     C72913   0.995   6.588   7.133  0.2980 -0.4239  0.1494
  541MOL0     C72914   0.859   6.611   7.211  0.7613  0.6600  0.1203
  541MOL0     C72915   0.852   6.742   7.289  0.5954  0.5897 -0.2825
  541MOL0     C72916   0.699   6.769   7.319  0.4448 -0.3313  0.0325
  541MOL0     N72917   0.691   6.865   7.428 -0.2816  1.0115  0.8075
  541MOL0     C72918   0.664   6.819   7.563  0.1984 -0.6790  0.1844
  541MOL0     C72919   0.639   6.940   7.625 -0.3118  0.4396 -0.6809
  541MOL0     C72920   0.615   6.950   7.769  0.5400 -0.3643 -0.1891
  541MOL0     C72921   0.735   6.984   7.844  0.9332  0.2832  0.7756
  541MOL0     C72922   0.706   7.012   7.991  1.4227  0.0156  1.2237
  541MOL0     C72923   0.829   7.064   8.059 -0.6640 -0.8281  0.5133
  541MOL0     O72924   0.814   7.075   8.207 -0.1164  0.0966  0.0792
  541MOL0     C72925   0.875   7.191   8.250 -1.0046 -0.2470  1.1365
  541MOL0     C72926   0.802   7.290   8.316 -0.2993 -0.5883 -0.2556
  541MOL0     C72927   0.858   7.409   8.349 -0.3378  0.4671 -0.2581
  541MOL0     C72928   0.766   7.508   8.425 -0.0479  0.1468 -0.3242
  541MOL0     C72929   0.994   7.435   8.317 -0.8587 -0.5418 -0.2418
  541MOL0     C72930   1.063   7.559   8.357 -0.0768 -0.0858 -0.3292
  541MOL0     O72931   1.199   7.556   8.381  0.1763 -0.0983 -0.1411
  541MOL0     C72932   1.244   7.679   8.413  0.6939 -0.4465 -0.4699
  541MOL0     C72933   1.240   7.723   8.544 -0.4894  0.2822 -0.5716
  541MOL0     C72934   1.297   7.848   8.579  0.5935  0.1433 -0.6071
  541MOL0     C72935   1.367   7.927   8.482  0.3923  1.0910  0.1179
  541MOL0     O72936   1.449   8.031   8.509  0.4414  0.5947 -0.2938
  541MOL0     C72937   1.426   8.105   8.635 -0.5721  0.1246 -0.1600
  541MOL0     C72938   1.285   8.194   8.637 -0.7524  0.4445 -0.1254
  541MOL0     C72939   1.263   8.251   8.502  0.3848  0.3160  1.2418
  541MOL0     C72940   1.156   8.360   8.498  0.0914 -0.1395 -0.2923
  541MOL0     C72941   1.092   8.401   8.365  1.0215 -0.0704  0.9414
  541MOL0     C72942   0.982   8.511   8.390  0.3777 -0.0463  0.3406
  541MOL0     C72943   0.878   8.520   8.271 -0.8179  0.6874  0.2824
  541MOL0     C72944   0.920   8.458   8.134 -0.6914  0.1392  0.9617
  541MOL0    Cl72945   0.776   8.476   8.040 -0.2973 -0.1285  0.0732
  541MOL0     C72946   1.369   7.875   8.351 -0.5265 -0.2497  0.1961
  541MOL0     C72947   1.314   7.753   8.316 -0.1875 -0.4371 -0.2687
  541MOL0     O72948   0.998   7.664   8.344 -1.4108  0.2811 -0.2412
  541MOL0     C72949   1.075   7.338   8.255 -0.6196 -0.3846 -0.7316
  541MOL0     C72950   1.013   7.213   8.231 -0.1251 -0.5738  0.3263
  541MOL0     N72951   0.659   7.050   7.538 -0.3704  0.1371 -0.7879
  541MOL0     N72952   0.685   6.996   7.420  0.1256 -0.6999  0.1209
  541MOL0     C72953   1.413   6.299   6.595 -0.0036 -0.2407 -0.8670
  541MOL0     C72954   1.420   6.312   6.459  0.4506  0.4656  0.5103
  541MOL0     C72955   1.327   6.333   6.043  0.4107  0.5198  0.4132
  541MOL0     C72956   1.238   6.254   5.967  0.1117  0.4857  0.6756
  541MOL0     C72957   1.257   6.240   5.833 -0.1111  0.3721  0.0468
  541MOL0     C72958   1.371   6.290   5.761 -0.2695  0.0967 -0.4008
  541MOL0     O72959   1.370   6.271   5.626 -0.3126 -0.0110  0.6770
  541MOL0     C72960   1.493   6.297   5.555 -0.1358  0.0417 -0.4442
  541MOL0     C72961   1.506   6.223   5.418 -0.2766 -0.1169 -0.0386
  541MOL0     C72962   1.451   6.299   5.297 -0.4182 -0.1802  0.6559
  541MOL0     C72963   1.455   6.222   5.162  0.4476 -0.3537 -0.3085
  541MOL0     C72964   1.394   6.086   5.159 -0.2789 -0.1341  0.1001
  541MOL0     C72965   1.345   5.975   5.167 -0.4109  0.0915 -0.0142
  541MOL0     C72966   1.465   6.365   5.841  0.1011  0.2285  0.8800
  541MOL0     C72967   1.439   6.393   5.977  0.3004  0.6539 -0.0533
  541MOL0     H72968   1.281   6.626   6.414  1.4067  0.3183 -0.2470
  541MOL0     H72969   1.293   6.620   6.648 -0.0296 -1.2760  2.4006
  541MOL0     H72970   1.356   6.492   6.985 -1.1412 -1.7214 -0.7302
  541MOL0     H72971   1.379   6.611   6.858 -0.8335  0.3846 -3.2716
  541MOL0     H72972   1.157   6.632   6.930  1.1865 -0.6218  3.2165
  541MOL0     H72973   1.128   6.533   6.780 -0.0493  1.0991  0.1213
  541MOL0     H72974   1.089   6.338   6.899  0.7946 -0.2091  0.8667
  541MOL0     H72975   1.178   6.376   7.039 -0.1350  1.1424 -0.0187
  541MOL0     H72976   0.922   6.498   6.940  0.3465  0.3618 -0.2854
  541MOL0     H72977   0.943   6.388   7.075  2.1432 -1.5911 -2.1811
  541MOL0     H72978   1.078   6.564   7.200 -1.3174  0.7758  2.7195
  541MOL0     H72979   1.015   6.680   7.078 -0.1179  0.0075  0.7062
  541MOL0     H72980   0.773   6.624   7.144 -0.1001  0.5189  1.1652
  541MOL0     H72981   0.852   6.540   7.294  2.3893  0.5993  0.2261
  541MOL0     H72982   0.907   6.739   7.384 -0.7688 -1.9535  0.5035
  541MOL0     H72983   0.888   6.824   7.226 -1.0266  0.6083 -1.2385
  541MOL0     H72984   0.640   6.681   7.344  1.0870 -1.2437 -1.5008
  541MOL0     H72985   0.647   6.807   7.230 -1.1745 -1.8076  0.3171
  541MOL0     H72986   0.662   6.719   7.607  1.1563 -2.2069 -2.9060
  541MOL0     H72987   0.529   7.015   7.790  1.1197  1.2966 -2.5919
  541MOL0     H72988   0.580   6.851   7.801 -1.8704  0.3495 -0.3925
  541MOL0     H72989   0.767   7.078   7.798 -0.9850 -0.6583 -2.8871
  541MOL0     H72990   0.810   6.907   7.825 -0.4444 -0.8332 -0.4419
  541MOL0     H72991   0.672   6.924   8.046  0.0817 -0.3978 -0.1739
  541MOL0     H72992   0.636   7.096   8.001  2.5936  0.8564  2.6941
  541MOL0     H72993   0.857   7.158   8.012 -2.7324 -2.0075 -3.5363
  541MOL0     H72994   0.907   6.989   8.042 -0.0966 -0.7059  2.3196
  541MOL0     H72995   0.695   7.286   8.336  0.0551  4.7331  5.7457
  541MOL0     H72996   0.665   7.466   8.440  1.2764 -2.3921  2.7745
  541MOL0     H72997   0.816   7.527   8.520  1.3047 -0.5233 -0.8762
  541MOL0     H72998   0.753   7.603   8.373  1.1985  1.0222  0.8951
  541MOL0     H72999   1.195   7.661   8.622 -0.3542  1.3935  0.4210
  541MOL0     H73000   1.292   7.887   8.680 -1.9039  1.5458 -1.1888
  541MOL0     H73001   1.425   8.032   8.716 -1.7505 -1.3178 -1.4232
  541MOL0     H73002   1.503   8.182   8.646 -0.3127  0.3093 -2.7238
  541MOL0     H73003   1.200   8.127   8.649 -1.2051  0.9062 -0.6825
  541MOL0     H73004   1.287   8.257   8.726  1.1216  0.1538  0.0837
  541MOL0     H73005   1.237   8.166   8.440  2.5424  1.8683 -2.0966
  541MOL0     H73006   1.359   8.294   8.470 -1.1609  1.8460 -1.7103
  541MOL0     H73007   1.078   8.338   8.572  2.3361  1.2028  2.7086
  541MOL0     H73008   1.204   8.451   8.534  2.4194 -1.5188  0.3602
  541MOL0     H73009   1.046   8.306   8.333  2.0072 -0.1093 -0.4459
  541MOL0     H73010   1.160   8.438   8.287 -2.5678  2.7360 -1.1827
  541MOL0     H73011   0.930   8.495   8.485  0.8134  0.7800  0.7276
  541MOL0     H73012   1.029   8.610   8.398 -0.3782  0.3139  0.4355
  541MOL0     H73013   0.857   8.627   8.263 -2.2331  0.3731 -0.7965
  541MOL0     H73014   0.780   8.478   8.296 -0.1047  0.0494  2.2487
  541MOL0     H73015   0.956   8.356   8.146 -0.1729  0.1190 -0.5447
  541MOL0     H73016   0.999   8.519   8.089  1.3220  0.2376  4.3329
  541MOL0     H73017   1.427   7.934   8.280  1.3363 -0.3517  1.5443
  541MOL0     H73018   1.323   7.736   8.209  0.6057  1.8560 -0.6065
  541MOL0     H73019   1.183   7.353   8.247 -0.5772 -0.7296 -0.8254
  541MOL0     H73020   1.084   7.136   8.205  0.9774  0.4872  0.1276
  541MOL0     H73021   1.442   6.205   6.639  0.4669  0.0275 -0.6033
  541MOL0     H73022   1.453   6.223   6.407 -2.2369 -1.8570  2.5233
  541MOL0     H73023   1.149   6.207   6.008  1.3979 -1.7401  1.0937
  541MOL0     H73024   1.180   6.184   5.782 -3.6179  3.2675  1.7346
  541MOL0     H73025   1.497   6.406   5.550 -1.3865  0.5277  4.5634
  541MOL0     H73026   1.582   6.256   5.605 -0.1638 -0.8474 -1.0976
  541MOL0     H73027   1.449   6.130   5.423 -0.3933 -0.1419 -1.6326
  541MOL0     H73028   1.610   6.195   5.399  0.5094  3.1551 -1.2918
  541MOL0     H73029   1.522   6.382   5.291  0.5549 -1.1059 -1.8288
  541MOL0     H73030   1.351   6.336   5.316 -0.3659  1.2965 -1.6050
  541MOL0     H73031   1.561   6.205   5.141  0.1508 -2.0908 -0.6137
  541MOL0     H73032   1.413   6.283   5.081 -0.1607  0.1883  0.4038
  541MOL0     H73033   1.343   5.868   5.168  3.1706 -0.1079 -0.3530
  541MOL0     H73034   1.561   6.391   5.796 -0.6109  2.4142  0.4866
  541MOL0     H73035   1.512   6.449   6.034  1.3215  1.1534 -1.7545
  542MOL0     O73036   4.655   2.938   1.997  0.2730 -0.5037  0.6303
  542MOL0     C73037   4.723   3.039   2.012  0.1394  0.2929  1.1500
  542MOL0     O73038   4.704   3.135   2.101  0.3494  0.0030 -0.7593
  542MOL0     C73039   4.612   3.121   2.202  0.6690 -0.2024 -0.1093
  542MOL0     C73040   4.514   3.218   2.217 -0.8227  0.5632 -0.1040
  542MOL0     C73041   4.413   3.207   2.312  0.1757  0.6697  0.4729
  542MOL0     C73042   4.407   3.097   2.381 -0.4939  0.4861 -0.5077
  542MOL0     O73043   4.311   3.090   2.478 -0.7072 -0.5995 -0.7081
  542MOL0     C73044   4.187   3.051   2.423 -0.2152  0.6639  0.7246
  542MOL0     C73045   4.105   3.013   2.549 -0.8252 -0.1500 -0.1011
  542MOL0     C73046   3.961   2.971   2.525 -0.7184 -0.4760  0.8917
  542MOL0     C73047   3.865   3.075   2.475  0.7937 -0.1277  0.5147
  542MOL0     C73048   3.863   3.222   2.522  0.5532  0.2400 -0.3806
  542MOL0     C73049   3.833   3.239   2.671  0.0267  0.8073 -0.6356
  542MOL0     C73050   3.840   3.387   2.704 -0.0479 -0.7995 -0.4153
  542MOL0     C73051   3.781   3.428   2.843  0.2440  0.4549 -0.0287
  542MOL0     N73052   3.801   3.563   2.880  0.5157  0.4659 -0.3474
  542MOL0     C73053   3.715   3.671   2.865 -0.4315  0.2053 -0.7212
  542MOL0     C73054   3.758   3.770   2.943 -0.1102  0.2817 -0.7112
  542MOL0     C73055   3.686   3.893   2.969 -0.8155  0.1672  0.0085
  542MOL0     C73056   3.537   3.882   2.936 -0.1025 -0.0378 -0.5017
  542MOL0     C73057   3.438   3.993   2.990  0.4603  0.3912  0.0257
  542MOL0     C73058   3.482   4.135   2.966 -0.0942  0.2093  0.1595
  542MOL0     O73059   3.599   4.154   3.037 -0.2382 -1.2737  0.3303
  542MOL0     C73060   3.643   4.285   3.041  0.3853 -0.0311  0.5194
  542MOL0     C73061   3.784   4.309   3.039 -0.5687 -0.1226 -1.0230
  542MOL0     C73062   3.842   4.439   3.044 -0.3555  0.2718  0.2903
  542MOL0     C73063   3.982   4.452   3.062 -0.0543  0.4731  0.7813
  542MOL0     C73064   3.749   4.543   3.069  0.2867  0.5537 -0.1690
  542MOL0     C73065   3.783   4.687   3.108 -0.0795  0.2994 -0.5052
  542MOL0     O73066   3.695   4.761   3.187  0.0123  0.1816 -0.3456
  542MOL0     C73067   3.683   4.896   3.152 -0.3661  0.5954  0.1139
  542MOL0     C73068   3.793   4.977   3.175 -0.0331 -0.1608 -0.6277
  542MOL0     C73069   3.801   5.101   3.107 -0.3647 -0.0514 -0.0176
  542MOL0     C73070   3.691   5.162   3.054 -0.7221  0.4946  0.0652
  542MOL0     O73071   3.700   5.299   3.030 -0.0180  0.3916  1.0787
  542MOL0     C73072   3.631   5.357   2.919 -0.1096  1.0454  0.2529
  542MOL0     C73073   3.674   5.494   2.886  0.7809  0.2478  0.0054
  542MOL0     C73074   3.660   5.590   3.006 -0.1114 -0.1549 -0.7649
  542MOL0     C73075   3.662   5.736   2.972  0.3942  0.4890  0.2735
  542MOL0     C73076   3.631   5.826   3.097  0.1512  0.1313 -0.7328
  542MOL0     C73077   3.730   5.808   3.216 -0.8314  0.0690 -0.7517
  542MOL0     C73078   3.697   5.900   3.339  0.3795  0.0789  0.6971
  542MOL0     C73079   3.814   5.965   3.424 -0.9874 -0.2394  0.1265
  542MOL0    Cl73080   3.905   6.067   3.316  0.1479 -0.1442  0.1189
  542MOL0     C73081   3.570   5.085   3.038  0.1436  1.3875 -0.2542
  542MOL0     C73082   3.574   4.952   3.077  0.5529 -0.4798 -0.3161
  542MOL0     O73083   3.878   4.739   3.048 -0.2922 -0.3629  0.0690
  542MOL0     C73084   3.609   4.525   3.067 -0.1694  0.6424  0.6328
  542MOL0     C73085   3.558   4.391   3.053  0.1061 -0.1955 -0.4098
  542MOL0     N73086   3.871   3.727   3.011 -0.1070  0.4244  0.7042
  542MOL0     N73087   3.894   3.604   2.970  0.4597  0.5749  0.1943
  542MOL0     C73088   4.501   2.990   2.363 -0.2619 -0.3005 -0.2557
  542MOL0     C73089   4.606   3.006   2.274 -0.6950 -0.6583  0.3392
  542MOL0     C73090   4.830   3.072   1.916 -1.1310 -0.2386  0.0478
  542MOL0     C73091   4.842   3.008   1.793 -1.0549 -0.8116  0.7577
  542MOL0     C73092   4.953   3.047   1.712  0.5611 -0.5220  0.7425
  542MOL0     C73093   5.038   3.140   1.737  0.0781 -0.1294  0.0564
  542MOL0     O73094   5.143   3.168   1.652  0.2455 -0.1884  0.2825
  542MOL0     C73095   5.122   3.151   1.507  0.2144  0.9920 -0.2412
  542MOL0     C73096   5.223   3.235   1.432  0.8760 -0.1415 -0.0769
  542MOL0     C73097   5.340   3.141   1.405 -0.1548  0.4984 -0.2688
  542MOL0     C73098   5.451   3.224   1.322  0.7228 -0.6243  0.6622
  542MOL0     C73099   5.563   3.138   1.280 -0.6529 -0.4520  0.3199
  542MOL0     C73100   5.670   3.075   1.250  0.0784  0.1995  0.0693
  542MOL0     C73101   5.029   3.202   1.854  0.0512  0.6139  1.0544
  542MOL0     C73102   4.925   3.166   1.945 -0.2332 -0.2172 -0.4257
  542MOL0     H73103   4.533   3.307   2.159  2.5852 -1.3798 -2.3226
  542MOL0     H73104   4.339   3.287   2.307  0.9789  1.3579 -1.6060
  542MOL0     H73105   4.134   3.125   2.361  1.7837 -0.1356 -2.1506
  542MOL0     H73106   4.196   2.962   2.360  1.0485  2.4740 -1.8324
  542MOL0     H73107   4.163   2.929   2.590 -0.2067  0.5516  0.4950
  542MOL0     H73108   4.107   3.099   2.617 -1.1166 -0.8716  0.8474
  542MOL0     H73109   3.956   2.882   2.462 -4.1566 -1.1258  1.8836
  542MOL0     H73110   3.908   2.930   2.611 -2.0866 -0.9301 -0.1364
  542MOL0     H73111   3.887   3.087   2.368  2.8722 -0.0277  0.9136
  542MOL0     H73112   3.766   3.030   2.493  0.8047 -1.4235 -2.0398
  542MOL0     H73113   3.964   3.262   2.510  1.0284 -0.4392  1.0724
  542MOL0     H73114   3.788   3.279   2.468  2.8728  2.3298 -1.6018
  542MOL0     H73115   3.733   3.203   2.697  1.0461 -2.8467 -1.2101
  542MOL0     H73116   3.912   3.183   2.724 -1.1763  0.3052  0.6940
  542MOL0     H73117   3.944   3.422   2.698 -0.8292  3.2304  3.7002
  542MOL0     H73118   3.791   3.450   2.630  1.8886  3.0968  1.3174
  542MOL0     H73119   3.829   3.359   2.912  2.8336  2.1578  0.0036
  542MOL0     H73120   3.675   3.401   2.846  0.5062 -0.5367  2.0304
  542MOL0     H73121   3.623   3.688   2.809 -2.4071  1.1731  2.5297
  542MOL0     H73122   3.698   3.922   3.073  0.3095 -0.7011  0.1364
  542MOL0     H73123   3.707   3.977   2.901 -1.9688  1.3058  1.0133
  542MOL0     H73124   3.490   3.789   2.969 -1.6133  1.2851  1.3251
  542MOL0     H73125   3.537   3.886   2.827  1.9022  2.6526 -0.5236
  542MOL0     H73126   3.424   3.988   3.099 -1.2466  3.5257  0.0509
  542MOL0     H73127   3.340   3.989   2.942  0.5100 -0.3890 -0.0205
  542MOL0     H73128   3.399   4.198   3.002  1.1478  0.3190  3.0623
  542MOL0     H73129   3.490   4.154   2.859 -0.4367 -2.7109 -0.4696
  542MOL0     H73130   3.838   4.215   3.042  2.7194  1.5962  2.8993
  542MOL0     H73131   4.021   4.442   2.960 -1.1001  2.1684  0.1842
  542MOL0     H73132   4.021   4.541   3.113  3.7188 -1.7329  2.2188
  542MOL0     H73133   4.032   4.368   3.111  0.9714 -0.2089 -1.2719
  542MOL0     H73134   3.884   4.942   3.222  0.6865  1.7959 -0.4632
  542MOL0     H73135   3.899   5.148   3.116 -1.3913  2.4094 -0.9381
  542MOL0     H73136   3.661   5.285   2.842 -0.7594  1.5055 -0.4419
  542MOL0     H73137   3.522   5.345   2.926  0.0125 -0.4252  0.0934
  542MOL0     H73138   3.779   5.490   2.857 -0.3468  0.1774 -4.9910
  542MOL0     H73139   3.619   5.532   2.799  1.8552 -0.5225 -1.0269
  542MOL0     H73140   3.738   5.560   3.076  0.0382  3.1038  0.6404
  542MOL0     H73141   3.565   5.563   3.053  1.0237 -2.4909  0.3284
  542MOL0     H73142   3.760   5.764   2.933 -1.5817  3.2879 -3.2734
  542MOL0     H73143   3.588   5.752   2.894 -0.6242  0.3581  1.1815
  542MOL0     H73144   3.530   5.808   3.135 -0.9346  4.3080 -1.1839
  542MOL0     H73145   3.637   5.930   3.064 -0.1633 -0.2732 -2.1496
  542MOL0     H73146   3.720   5.705   3.250 -2.9030  0.9370  1.5665
  542MOL0     H73147   3.833   5.835   3.191 -0.9415  2.4942  0.9832
  542MOL0     H73148   3.621   5.855   3.404 -2.8113  4.5704  0.5310
  542MOL0     H73149   3.639   5.984   3.299  1.2406  0.6146  0.5503
  542MOL0     H73150   3.885   5.893   3.467  1.1971  2.1788  0.8109
  542MOL0     H73151   3.761   6.010   3.508  0.6447  1.1207  0.4872
  542MOL0     H73152   3.496   5.135   2.977 -0.6736  1.6410  0.9129
  542MOL0     H73153   3.488   4.895   3.043  0.8907 -3.6081  3.4512
  542MOL0     H73154   3.536   4.605   3.070  0.9902  1.8664 -1.4974
  542MOL0     H73155   3.450   4.381   3.063  0.0024 -0.7701 -1.9018
  542MOL0     H73156   4.493   2.894   2.412  1.8403 -0.7690 -0.7223
  542MOL0     H73157   4.681   2.930   2.256  0.2935  0.9796 -3.3888
  542MOL0     H73158   4.773   2.933   1.753 -1.6675  1.6207 -3.2486
  542MOL0     H73159   4.949   2.984   1.623 -2.3745  0.2070  0.2398
  542MOL0     H73160   5.109   3.046   1.480 -3.7275  1.4513 -0.6526
  542MOL0     H73161   5.028   3.204   1.488 -0.3911  0.5613  1.3964
  542MOL0     H73162   5.238   3.325   1.493  1.5657 -0.7352  0.6504
  542MOL0     H73163   5.166   3.260   1.342  2.0120 -1.6014 -1.2467
  542MOL0     H73164   5.303   3.057   1.346 -1.3550  2.8802 -3.1879
  542MOL0     H73165   5.389   3.098   1.492 -0.8683 -0.2562 -0.2298
  542MOL0     H73166   5.490   3.299   1.391  1.0329  0.9530 -1.1746
  542MOL0     H73167   5.393   3.266   1.239 -1.0316  0.1452  2.1948
  542MOL0     H73168   5.754   3.012   1.227  0.6209  0.5303  1.0801
  542MOL0     H73169   5.103   3.279   1.868 -0.0583  0.9134  0.0734
  542MOL0     H73170   4.925   3.224   2.037 -1.7384  1.3093 -1.3190
  543MOL0     O73171  11.205   7.783   4.801 -0.0603 -0.0782 -0.8155
  543MOL0     C73172  11.155   7.824   4.909  0.1333 -0.6994  0.4467
  543MOL0     O73173  11.186   7.942   4.972  0.0526 -0.2354  0.5876
  543MOL0     C73174  11.252   8.053   4.913 -0.3235  0.0371 -0.0248
  543MOL0     C73175  11.253   8.086   4.778  0.5929 -0.3540  0.1649
  543MOL0     C73176  11.335   8.199   4.733  0.3135  0.4918  0.2824
  543MOL0     C73177  11.400   8.284   4.825  0.4219 -0.0474  0.1184
  543MOL0     O73178  11.464   8.403   4.780 -0.6542  0.4192  0.9003
  543MOL0     C73179  11.543   8.473   4.872 -0.3125  0.2314  0.3668
  543MOL0     C73180  11.609   8.581   4.780  0.5559  0.1918 -1.7658
  543MOL0     C73181  11.686   8.541   4.652  0.4668 -1.1103 -0.7840
  543MOL0     C73182  11.734   8.668   4.581  0.0046 -0.7230  0.0655
  543MOL0     C73183  11.783   8.622   4.439  0.8398  0.2379 -0.7258
  543MOL0     C73184  11.859   8.723   4.369  0.2823 -0.5887  0.0683
  543MOL0     C73185  12.020   8.719   4.409  0.3214  0.7138 -0.3642
  543MOL0     C73186  12.106   8.829   4.344 -0.1300 -1.1279  0.2142
  543MOL0     N73187  12.252   8.803   4.359  0.2474  0.5328 -0.0983
  543MOL0     C73188  12.347   8.767   4.270 -0.0996 -0.0379 -0.1780
  543MOL0     C73189  12.460   8.739   4.338  0.1458  1.4767 -0.0623
  543MOL0     C73190  12.591   8.695   4.295 -0.0310  0.7299  0.8946
  543MOL0     C73191  12.642   8.752   4.163 -0.1170 -0.0049 -0.3226
  543MOL0     C73192  12.675   8.899   4.188 -0.1022 -0.0919  0.0731
  543MOL0     C73193  12.700   8.972   4.053  0.3926 -0.9352  0.4620
  543MOL0     O73194  12.833   8.960   4.026  0.6574  0.0459  0.2918
  543MOL0     C73195  12.869   8.975   3.897  1.0254 -0.6008 -0.8089
  543MOL0     C73196  12.863   9.096   3.831 -0.9061 -0.5446 -0.0209
  543MOL0     C73197  12.898   9.113   3.690 -0.2027 -0.5683 -0.5702
  543MOL0     C73198  12.897   9.255   3.638 -0.8446 -0.2754  0.9077
  543MOL0     C73199  12.944   8.996   3.623 -0.1050 -0.1049  0.5798
  543MOL0     C73200  12.986   8.998   3.483  0.2811 -0.4898  1.6349
  543MOL0     O73201  13.042   8.879   3.448 -0.7429 -0.5080 -0.4741
  543MOL0     C73202  13.102   8.868   3.328 -0.3133  0.0441  0.2194
  543MOL0     C73203  13.038   8.902   3.209  0.9893  0.1181  0.0484
  543MOL0     C73204  13.109   8.906   3.089 -0.2246  0.4156  0.5483
  543MOL0     C73205  13.235   8.846   3.073  0.1817  0.6297 -0.5232
  543MOL0     O73206  13.304   8.849   2.953  0.3381  0.7645 -0.1212
  543MOL0     C73207  13.419   8.939   2.968 -0.0448  0.8258  0.3848
  543MOL0     C73208  13.392   9.083   2.929  0.9587  0.4709 -0.7335
  543MOL0     C73209  13.420   9.119   2.778  0.6971  0.1868  0.0066
  543MOL0     C73210  13.432   9.266   2.752  0.0497 -0.0357 -0.3610
  543MOL0     C73211  13.476   9.271   2.607  0.1821  1.8830 -0.3383
  543MOL0     C73212  13.554   9.397   2.572  0.7626 -0.3923 -0.8230
  543MOL0     C73213  13.603   9.403   2.430  0.1655 -0.0721  0.2833
  543MOL0     C73214  13.645   9.556   2.413  0.0858  0.6366  0.2390
  543MOL0    Cl73215  13.678   9.583   2.230  0.1476 -0.2252 -0.3515
  543MOL0     C73216  13.299   8.799   3.197  0.6260  0.2798  0.4221
  543MOL0     C73217  13.232   8.812   3.318 -0.2309 -0.4333  0.6334
  543MOL0     O73218  12.972   9.093   3.407 -0.1717  0.0009 -0.1771
  543MOL0     C73219  12.947   8.873   3.691  0.5016 -0.4515 -0.0896
  543MOL0     C73220  12.905   8.868   3.823 -0.6517 -0.3796  0.6736
  543MOL0     N73221  12.415   8.741   4.465 -0.3255  0.6742 -0.2422
  543MOL0     N73222  12.299   8.787   4.483 -0.0609 -0.1198 -0.4427
  543MOL0     C73223  11.403   8.233   4.954 -0.0916 -0.3116 -0.3432
  543MOL0     C73224  11.325   8.129   4.995 -0.6646  1.3926 -0.2391
  543MOL0     C73225  11.070   7.726   4.977  0.0005  0.0485 -0.4239
  543MOL0     C73226  11.021   7.747   5.109  0.7801 -0.1980 -0.6762
  543MOL0     C73227  10.943   7.651   5.170  0.1449 -0.4981  0.5837
  543MOL0     C73228  10.905   7.529   5.100 -0.2072  0.0699  0.0209
  543MOL0     O73229  10.814   7.450   5.165 -0.3380 -0.4030 -0.1923
  543MOL0     C73230  10.840   7.423   5.302  0.4222  0.3378 -0.3165
  543MOL0     C73231  10.768   7.299   5.350  0.0881  0.2236  0.2239
  543MOL0     C73232  10.833   7.174   5.284  0.2971  0.3344 -0.4834
  543MOL0     C73233  10.760   7.036   5.324  0.2280  0.1702 -0.5095
  543MOL0     C73234  10.678   6.982   5.217  0.9082  0.2085  0.9149
  543MOL0     C73235  10.617   6.935   5.117 -0.3290 -0.6631 -0.7014
  543MOL0     C73236  10.938   7.524   4.970  0.2431 -0.6896 -1.0130
  543MOL0     C73237  11.021   7.615   4.909 -0.0912 -0.0469 -0.1990
  543MOL0     H73238  11.205   8.030   4.699  3.3687  0.2257 -2.1149
  543MOL0     H73239  11.333   8.229   4.629 -1.0262  2.1109  0.7419
  543MOL0     H73240  11.474   8.518   4.945  0.5098  2.0358  0.1034
  543MOL0     H73241  11.612   8.419   4.937 -4.2740 -1.2977  3.7498
  543MOL0     H73242  11.533   8.650   4.741  0.3853 -0.8082 -3.3055
  543MOL0     H73243  11.672   8.643   4.845 -0.6431 -2.9719  2.9157
  543MOL0     H73244  11.764   8.466   4.668  0.4845 -0.6961  1.4192
  543MOL0     H73245  11.609   8.490   4.592 -1.5225 -0.5606  1.1827
  543MOL0     H73246  11.672   8.758   4.572  1.2969  0.0653 -1.5519
  543MOL0     H73247  11.815   8.703   4.646 -1.4499  1.0587  1.0248
  543MOL0     H73248  11.837   8.528   4.428  1.2500  0.4504 -0.5735
  543MOL0     H73249  11.693   8.606   4.379  0.8578 -1.6656 -0.3138
  543MOL0     H73250  11.850   8.717   4.260  0.9016  0.0096 -0.0233
  543MOL0     H73251  11.824   8.821   4.402 -0.7817 -1.1751  0.7506
  543MOL0     H73252  12.029   8.736   4.517  1.6707  3.9209 -0.8578
  543MOL0     H73253  12.048   8.618   4.379  1.6028  0.5995  1.0926
  543MOL0     H73254  12.092   8.927   4.390 -1.8239 -0.6860 -1.1407
  543MOL0     H73255  12.070   8.839   4.241 -0.0810 -0.1847  0.2833
  543MOL0     H73256  12.345   8.779   4.162  2.4947  2.1409 -0.1139
  543MOL0     H73257  12.661   8.728   4.373 -0.9487  0.4744  1.8451
  543MOL0     H73258  12.588   8.585   4.288 -0.3368  0.7401  0.8756
  543MOL0     H73259  12.570   8.734   4.082 -1.6056  0.0233  0.9416
  543MOL0     H73260  12.733   8.696   4.139  0.8550  1.5044 -0.3022
  543MOL0     H73261  12.757   8.917   4.258  0.7967  1.7884 -1.3798
  543MOL0     H73262  12.589   8.942   4.240  0.1829  4.7173 -2.8488
  543MOL0     H73263  12.682   9.080   4.055  2.3679 -0.5788  0.8154
  543MOL0     H73264  12.634   8.916   3.986 -3.5720  1.2902  2.1726
  543MOL0     H73265  12.825   9.185   3.879 -1.1384  0.3542 -1.8015
  543MOL0     H73266  12.998   9.282   3.609 -1.3798 -1.1483 -2.1053
  543MOL0     H73267  12.829   9.249   3.553 -0.0235 -1.6089  0.3193
  543MOL0     H73268  12.858   9.334   3.703 -3.6407 -1.3713  0.7402
  543MOL0     H73269  12.937   8.943   3.212  1.3618  1.0796 -0.1715
  543MOL0     H73270  13.048   8.949   3.011 -0.1589 -0.3869  0.0396
  543MOL0     H73271  13.469   8.934   3.065 -1.5901 -0.1224  1.1664
  543MOL0     H73272  13.487   8.885   2.901 -1.9371 -3.0756  1.3383
  543MOL0     H73273  13.288   9.099   2.960  1.2572 -3.2056  3.1881
  543MOL0     H73274  13.461   9.149   2.981  2.9558 -0.4080 -2.1423
  543MOL0     H73275  13.334   9.093   2.716  0.6021  1.0625 -0.2311
  543MOL0     H73276  13.508   9.063   2.745  1.8698  1.8808  0.1784
  543MOL0     H73277  13.335   9.312   2.776 -0.5401 -1.7745  0.7888
  543MOL0     H73278  13.509   9.305   2.819 -1.2548 -1.6382  2.2463
  543MOL0     H73279  13.388   9.271   2.542 -2.2076 -0.8343  2.6517
  543MOL0     H73280  13.533   9.184   2.573 -0.7641 -0.7423  4.0455
  543MOL0     H73281  13.482   9.477   2.588  1.3357  0.1638 -0.9991
  543MOL0     H73282  13.636   9.390   2.645  0.2513 -0.1999 -0.2218
  543MOL0     H73283  13.522   9.394   2.357  0.4607  2.3206 -0.4268
  543MOL0     H73284  13.682   9.330   2.408 -1.8549 -1.9914 -1.0030
  543MOL0     H73285  13.738   9.565   2.471 -0.1607 -0.2745  0.8005
  543MOL0     H73286  13.573   9.625   2.456 -2.4318 -2.8546  2.0667
  543MOL0     H73287  13.394   8.748   3.204  1.1383  0.7478 -2.2163
  543MOL0     H73288  13.291   8.818   3.409 -1.8189 -1.1366  1.7548
  543MOL0     H73289  12.981   8.779   3.648 -0.1766 -1.2695  1.1404
  543MOL0     H73290  12.923   8.770   3.866  2.3407 -0.9931 -1.5796
  543MOL0     H73291  11.444   8.289   5.037  2.1820 -0.8841 -1.0022
  543MOL0     H73292  11.327   8.091   5.096  0.4355 -0.4376 -0.8875
  543MOL0     H73293  11.054   7.836   5.162 -1.5335 -0.2681  1.0571
  543MOL0     H73294  10.894   7.673   5.264  1.0858  1.2411  0.7069
  543MOL0     H73295  10.948   7.413   5.318  0.6569  2.1384 -0.5878
  543MOL0     H73296  10.804   7.506   5.363 -1.9003  0.6886 -2.0246
  543MOL0     H73297  10.661   7.295   5.327  0.1348 -0.0455  0.0522
  543MOL0     H73298  10.769   7.305   5.459 -0.2769 -0.4746  0.2726
  543MOL0     H73299  10.942   7.169   5.297  0.4366  1.6884 -0.9882
  543MOL0     H73300  10.820   7.177   5.175 -0.2008 -2.1061 -0.5599
  543MOL0     H73301  10.699   7.049   5.414 -2.0901 -4.8212 -1.0103
  543MOL0     H73302  10.835   6.965   5.360 -0.0522  0.5880  0.9757
  543MOL0     H73303  10.561   6.881   5.042 -1.5026  1.2628 -1.2870
  543MOL0     H73304  10.909   7.432   4.918 -0.6125 -1.2558  0.4104
  543MOL0     H73305  11.033   7.603   4.802  1.7589 -2.2638  0.1672
  544MOL0     O73306   3.051   7.935   5.570  0.4282  0.2684 -0.2658
  544MOL0     C73307   3.145   8.010   5.552  0.3294 -0.4383  1.1044
  544MOL0     O73308   3.133   8.145   5.545 -0.5563  0.0972  0.0724
  544MOL0     C73309   3.016   8.221   5.537  0.5845  0.2259  0.5847
  544MOL0     C73310   2.894   8.169   5.493  0.0240 -0.6898  0.3700
  544MOL0     C73311   2.786   8.249   5.468 -0.3501 -0.8008  0.2302
  544MOL0     C73312   2.798   8.393   5.493  0.2844  1.3044 -0.7023
  544MOL0     O73313   2.683   8.463   5.464  0.1778  0.1200 -0.4472
  544MOL0     C73314   2.686   8.607   5.487 -0.5249  0.5367  0.8911
  544MOL0     C73315   2.761   8.667   5.362 -0.6804  0.0665 -0.4303
  544MOL0     C73316   2.670   8.778   5.291  1.0153  0.7753  0.8651
  544MOL0     C73317   2.764   8.868   5.204  0.4529  0.4394  0.4152
  544MOL0     C73318   2.705   8.982   5.120 -1.1958  1.0060 -0.1725
  544MOL0     C73319   2.799   9.103   5.108  0.3446  0.2183 -0.2013
  544MOL0     C73320   2.933   9.095   5.036  0.5326  1.0627  0.0691
  544MOL0     C73321   2.922   9.084   4.885  0.7598 -0.0853  0.5398
  544MOL0     N73322   3.033   9.154   4.818  0.3034 -0.5302 -0.8751
  544MOL0     C73323   3.039   9.279   4.759 -0.3700  0.0562  0.0656
  544MOL0     C73324   3.159   9.265   4.685  0.2519  0.5666  0.7810
  544MOL0     C73325   3.203   9.365   4.584  0.1682 -0.8347 -0.3170
  544MOL0     C73326   3.197   9.512   4.636  0.5107  0.6466  0.2069
  544MOL0     C73327   3.278   9.604   4.539 -0.4943 -0.5105  0.6254
  544MOL0     C73328   3.297   9.739   4.609  0.1375  1.0265  0.2099
  544MOL0     O73329   3.170   9.776   4.657 -0.0643 -0.5200  1.0480
  544MOL0     C73330   3.152   9.895   4.716 -0.2502 -0.2756  0.5156
  544MOL0     C73331   3.027   9.948   4.734  0.3850  0.2219 -0.3028
  544MOL0     C73332   2.999  10.061   4.798 -0.1336  0.3751 -0.4761
  544MOL0     C73333   2.856  10.104   4.807  0.9636  0.0904 -0.2765
  544MOL0     C73334   3.094  10.138   4.855  0.1435  0.5816  0.0485
  544MOL0     C73335   3.075  10.264   4.930  0.2393  0.5378 -0.3258
  544MOL0     O73336   2.989  10.356   4.871 -0.6366 -0.1279  0.1072
  544MOL0     C73337   2.968  10.471   4.939 -0.1707  0.0907  0.9480
  544MOL0     C73338   2.861  10.472   5.027  0.7449  0.2980 -1.1614
  544MOL0     C73339   2.816  10.587   5.081  0.7609  0.3435  0.0043
  544MOL0     C73340   2.870  10.713   5.046  0.6363 -0.3922  0.1433
  544MOL0     O73341   2.809  10.817   5.113 -0.7182  0.0398 -0.5044
  544MOL0     C73342   2.829  10.945   5.067 -0.0372 -0.1253 -0.2344
  544MOL0     C73343   2.725  11.027   5.130  0.0970 -0.3174 -0.7391
  544MOL0     C73344   2.728  11.168   5.078 -1.1337  0.1965 -0.0129
  544MOL0     C73345   2.661  11.259   5.184 -1.5988  1.2092 -0.1431
  544MOL0     C73346   2.699  11.401   5.148  0.0616 -0.4331 -0.9200
  544MOL0     C73347   2.679  11.486   5.273 -0.1109 -0.0324  0.9404
  544MOL0     C73348   2.719  11.633   5.236  0.4859 -0.1142  0.3201
  544MOL0     C73349   2.755  11.726   5.349  0.5429 -0.2917  0.5431
  544MOL0    Cl73350   2.609  11.772   5.442 -0.4131 -0.0134 -0.1468
  544MOL0     C73351   2.979  10.714   4.962  0.2833 -0.1059 -0.3220
  544MOL0     C73352   3.024  10.589   4.908 -0.4043  0.1889  0.3909
  544MOL0     O73353   3.134  10.288   5.038  0.2322  0.0846 -0.5808
  544MOL0     C73354   3.234  10.092   4.844  0.3484  0.3460 -0.0410
  544MOL0     C73355   3.258   9.977   4.769 -0.2569  1.1091 -0.8921
  544MOL0     N73356   3.216   9.143   4.702 -0.0236 -0.2897  0.5685
  544MOL0     N73357   3.141   9.083   4.788 -0.1121 -0.0308  0.6142
  544MOL0     C73358   2.915   8.444   5.540 -0.1476 -0.4785  0.1666
  544MOL0     C73359   3.032   8.362   5.556 -0.2562 -0.7239 -0.1737
  544MOL0     C73360   3.279   7.950   5.523  0.7885 -0.3411 -0.1960
  544MOL0     C73361   3.389   8.033   5.480  0.1445 -0.6492 -0.6670
  544MOL0     C73362   3.513   7.991   5.481 -1.0357 -0.0004 -0.6611
  544MOL0     C73363   3.536   7.849   5.509 -1.2851 -0.0417 -0.7388
  544MOL0     O73364   3.657   7.787   5.512 -0.1149 -0.6189  0.2402
  544MOL0     C73365   3.772   7.838   5.454 -0.5222 -1.0168  0.2338
  544MOL0     C73366   3.898   7.750   5.445 -0.4522  0.4297  1.1003
  544MOL0     C73367   3.989   7.798   5.328  0.2781  0.5678 -0.5460
  544MOL0     C73368   4.132   7.749   5.344  0.4662 -0.3995 -0.7202
  544MOL0     C73369   4.140   7.606   5.304  0.2506 -0.3946  0.2636
  544MOL0     C73370   4.146   7.487   5.286 -0.8735 -0.2939  0.2118
  544MOL0     C73371   3.432   7.766   5.548  0.2488 -0.8159 -0.4473
  544MOL0     C73372   3.303   7.815   5.553  0.0864  0.1563 -0.2041
  544MOL0     H73373   2.882   8.063   5.475 -0.7913 -0.4500 -0.6233
  544MOL0     H73374   2.693   8.217   5.422  1.7013 -0.9652 -4.3128
  544MOL0     H73375   2.582   8.638   5.471 -0.2731  0.2951 -1.5493
  544MOL0     H73376   2.716   8.643   5.586 -2.8712  3.8841  0.5458
  544MOL0     H73377   2.847   8.708   5.415 -2.0644  2.2699  0.2654
  544MOL0     H73378   2.780   8.586   5.292 -3.8313  1.2537 -2.9296
  544MOL0     H73379   2.596   8.729   5.227  1.7064 -1.7666  1.8781
  544MOL0     H73380   2.604   8.839   5.353 -2.3956  0.9937 -2.5534
  544MOL0     H73381   2.847   8.908   5.263  0.4198 -1.0957  1.5888
  544MOL0     H73382   2.816   8.796   5.140 -0.1686 -3.4759  3.8639
  544MOL0     H73383   2.684   8.960   5.015 -0.4155  0.1123 -0.1553
  544MOL0     H73384   2.608   9.006   5.164 -2.3256 -1.0543 -1.3560
  544MOL0     H73385   2.744   9.176   5.047 -2.8046 -1.1684  0.7681
  544MOL0     H73386   2.819   9.134   5.211 -3.4844 -1.7986  1.3360
  544MOL0     H73387   2.983   9.189   5.058  0.2071  1.1845  0.3092
  544MOL0     H73388   3.005   9.017   5.063 -1.5608 -0.7475  0.7543
  544MOL0     H73389   2.830   9.133   4.851 -0.1731 -0.9468  1.7066
  544MOL0     H73390   2.920   8.980   4.849  0.1983  0.3139 -0.6410
  544MOL0     H73391   2.964   9.357   4.750 -1.2318 -0.8323 -0.7503
  544MOL0     H73392   3.307   9.339   4.562  1.3835  2.9263  0.1492
  544MOL0     H73393   3.150   9.362   4.489  0.6284  1.2613 -0.6874
  544MOL0     H73394   3.238   9.524   4.737 -1.6542  3.8598  0.8357
  544MOL0     H73395   3.095   9.549   4.644  0.2011 -0.3156  1.0513
  544MOL0     H73396   3.224   9.629   4.447 -0.6862  1.0435  1.1216
  544MOL0     H73397   3.381   9.576   4.515 -0.3786  0.4453 -0.0693
  544MOL0     H73398   3.333   9.816   4.540  0.2340 -1.4968 -2.7907
  544MOL0     H73399   3.358   9.729   4.699 -0.1202  1.7376  0.4704
  544MOL0     H73400   2.942   9.885   4.710  0.2031  0.0618  0.7108
  544MOL0     H73401   2.830  10.162   4.896  1.4909 -0.8081  0.4876
  544MOL0     H73402   2.818  10.168   4.727  0.1010 -1.8698 -1.5369
  544MOL0     H73403   2.779  10.026   4.815 -2.1654  2.8969 -0.8317
  544MOL0     H73404   2.804  10.385   5.056  0.3902  1.1912  1.0976
  544MOL0     H73405   2.740  10.585   5.158  2.0377 -1.8159  1.3268
  544MOL0     H73406   2.927  10.982   5.098 -0.1724  1.0958 -1.1912
  544MOL0     H73407   2.808  10.945   4.960 -3.0337 -2.1850  0.2382
  544MOL0     H73408   2.625  10.984   5.124  0.4514 -0.9798 -2.9309
  544MOL0     H73409   2.751  11.031   5.236 -3.2939  0.4638  0.1853
  544MOL0     H73410   2.682  11.172   4.978  4.6155 -0.9578 -3.1482
  544MOL0     H73411   2.834  11.189   5.061 -0.4260 -1.6895  1.7323
  544MOL0     H73412   2.552  11.262   5.178 -1.8225 -0.0592  2.0620
  544MOL0     H73413   2.695  11.236   5.286 -1.0819  1.6791 -0.2052
  544MOL0     H73414   2.649  11.450   5.064 -0.4118  1.6679  0.5060
  544MOL0     H73415   2.802  11.417   5.114 -0.5409  0.9803 -2.2109
  544MOL0     H73416   2.582  11.483   5.323  1.0166 -0.2641  3.2503
  544MOL0     H73417   2.747  11.442   5.346  0.8978 -0.2524 -0.1002
  544MOL0     H73418   2.644  11.670   5.166  1.2234  1.4821  0.3202
  544MOL0     H73419   2.805  11.624   5.170 -1.0179  0.3111 -1.7730
  544MOL0     H73420   2.790  11.819   5.303  0.6899 -0.4718  0.2925
  544MOL0     H73421   2.824  11.685   5.424  1.3389 -0.8067 -0.4562
  544MOL0     H73422   3.017  10.811   4.932 -0.2474 -0.3732 -1.9580
  544MOL0     H73423   3.105  10.593   4.837 -0.8110  1.3255 -0.0343
  544MOL0     H73424   3.321  10.141   4.885 -1.8654  2.3827  2.5876
  544MOL0     H73425   3.357   9.933   4.764 -0.8152 -0.4191  0.5146
  544MOL0     H73426   2.921   8.550   5.560 -4.0731 -0.5255  2.7569
  544MOL0     H73427   3.137   8.378   5.577 -0.0560 -2.6579  0.4914
  544MOL0     H73428   3.375   8.135   5.446  0.6011 -1.0488 -2.1188
  544MOL0     H73429   3.591   8.059   5.446 -0.4661 -0.4423 -0.2659
  544MOL0     H73430   3.758   7.890   5.358 -1.9850  1.0070  1.4678
  544MOL0     H73431   3.805   7.919   5.520  1.9978 -0.5178 -1.4636
  544MOL0     H73432   3.870   7.644   5.435  1.3064 -0.0292  0.5291
  544MOL0     H73433   3.951   7.760   5.540  1.6017 -2.6897  0.4546
  544MOL0     H73434   3.981   7.905   5.307  2.5228  0.9825  0.4431
  544MOL0     H73435   3.964   7.739   5.239  0.8357 -0.6480  0.0686
  544MOL0     H73436   4.167   7.767   5.446 -2.8180  1.9883  0.1812
  544MOL0     H73437   4.200   7.807   5.280 -0.5930  1.5696 -0.1464
  544MOL0     H73438   4.133   7.383   5.265  1.4401 -0.0707 -3.1617
  544MOL0     H73439   3.441   7.661   5.574 -3.8999 -1.1456  0.2322
  544MOL0     H73440   3.223   7.741   5.557  1.6223 -1.7581 -2.0828
  545MOL0     O73441   2.327   7.833   8.592 -1.5206 -0.1892  0.4729
  545MOL0     C73442   2.379   7.754   8.507  0.3854 -0.6974  0.2295
  545MOL0     O73443   2.386   7.779   8.367 -0.3448  0.2188 -0.2096
  545MOL0     C73444   2.334   7.887   8.309  0.0916  0.0718  0.6456
  545MOL0     C73445   2.359   8.018   8.353 -0.2678  0.9579  0.0300
  545MOL0     C73446   2.304   8.129   8.286  0.2012  0.3385 -0.1736
  545MOL0     C73447   2.227   8.108   8.168  0.7515  0.4242 -1.7604
  545MOL0     O73448   2.168   8.217   8.096 -0.3347  0.8965  0.4439
  545MOL0     C73449   2.137   8.195   7.954  0.3025 -0.2056 -0.0188
  545MOL0     C73450   2.258   8.164   7.864 -0.0836 -0.2614 -0.3328
  545MOL0     C73451   2.208   8.160   7.714  0.1961 -0.9938  0.3462
  545MOL0     C73452   2.331   8.172   7.616  0.5634  0.0164 -1.1919
  545MOL0     C73453   2.282   8.211   7.471 -0.5667 -0.2042  0.7423
  545MOL0     C73454   2.248   8.087   7.396 -0.6946 -0.3106 -0.0977
  545MOL0     C73455   2.191   8.123   7.258  0.9659  0.6944 -0.1145
  545MOL0     C73456   2.279   8.073   7.147 -0.0329 -0.3724 -0.0057
  545MOL0     N73457   2.286   7.926   7.135 -0.0941 -0.1027  0.3820
  545MOL0     C73458   2.202   7.853   7.053  0.4437  0.8432  0.3912
  545MOL0     C73459   2.229   7.722   7.078 -1.0032  0.3439  0.8985
  545MOL0     C73460   2.177   7.598   7.001 -0.7237 -0.5585  0.3162
  545MOL0     C73461   2.107   7.503   7.098 -0.7752  0.2501  0.4549
  545MOL0     C73462   1.974   7.550   7.161  0.5608 -1.0126  0.4602
  545MOL0     C73463   1.904   7.469   7.267  0.2637  0.9570 -0.3385
  545MOL0     O73464   1.800   7.539   7.331  0.4794 -0.0964  0.3984
  545MOL0     C73465   1.824   7.624   7.430  0.2689 -0.5702  0.3731
  545MOL0     C73466   1.953   7.636   7.484  0.8355 -0.2114 -0.1529
  545MOL0     C73467   1.978   7.733   7.578  0.1366 -0.4145 -1.1746
  545MOL0     C73468   2.117   7.762   7.601 -1.0169 -0.5418  0.0056
  545MOL0     C73469   1.880   7.822   7.623  0.6697  0.4721 -1.1521
  545MOL0     C73470   1.902   7.919   7.737 -0.4835  0.8698  0.0879
  545MOL0     O73471   1.805   8.007   7.756 -0.3937  0.5446  0.0830
  545MOL0     C73472   1.781   8.061   7.877  0.4768  0.3500  0.3286
  545MOL0     C73473   1.750   7.985   7.986 -0.9634 -0.0831 -0.5850
  545MOL0     C73474   1.751   8.040   8.111  0.4363 -0.6161  0.0253
  545MOL0     C73475   1.775   8.173   8.135  1.4045 -0.2484 -0.6239
  545MOL0     O73476   1.760   8.214   8.268 -0.4591 -0.6301 -0.0807
  545MOL0     C73477   1.845   8.319   8.310 -0.1382  0.6778 -0.6416
  545MOL0     C73478   1.890   8.304   8.453  0.5996 -0.5394  0.3032
  545MOL0     C73479   1.974   8.417   8.503 -0.6979  0.3885 -0.4195
  545MOL0     C73480   2.118   8.393   8.465  0.1440 -0.2127 -1.2886
  545MOL0     C73481   2.200   8.518   8.439  0.0998 -0.4691  0.4009
  545MOL0     C73482   2.168   8.598   8.305 -0.5162  0.4898  0.2415
  545MOL0     C73483   2.236   8.533   8.182 -0.6684  0.2449  0.4971
  545MOL0     C73484   2.157   8.560   8.052  0.4994  0.0215  0.0004
  545MOL0    Cl73485   2.116   8.737   8.035  0.2188 -0.4743 -0.1242
  545MOL0     C73486   1.793   8.254   8.025 -0.1197  0.1188 -0.5334
  545MOL0     C73487   1.790   8.190   7.897  0.8709 -0.9270  0.1064
  545MOL0     O73488   1.996   7.896   7.818  0.0440  0.1569  0.3808
  545MOL0     C73489   1.754   7.812   7.565  0.0201  0.0236 -1.3040
  545MOL0     C73490   1.730   7.714   7.469 -0.0576  0.7560 -0.3693
  545MOL0     N73491   2.331   7.714   7.169  0.3088 -0.4765  0.8556
  545MOL0     N73492   2.361   7.834   7.207 -0.4528 -0.2463 -0.0880
  545MOL0     C73493   2.214   7.979   8.130  1.2937  0.6770  0.0298
  545MOL0     C73494   2.251   7.866   8.202 -1.2151 -0.5773  0.2239
  545MOL0     C73495   2.431   7.626   8.559 -0.0624  0.7308 -0.0939
  545MOL0     C73496   2.458   7.525   8.477 -0.3248  0.2472  1.1741
  545MOL0     C73497   2.495   7.405   8.536 -0.5721 -0.0771 -0.1151
  545MOL0     C73498   2.505   7.375   8.676  0.7039 -0.3094 -0.5475
  545MOL0     O73499   2.562   7.264   8.732 -0.0693 -0.0854 -0.4757
  545MOL0     C73500   2.642   7.175   8.653 -0.6513 -0.5848  0.2986
  545MOL0     C73501   2.672   7.055   8.739 -0.1090  0.2041 -1.6135
  545MOL0     C73502   2.772   6.959   8.673 -0.1020  0.7768 -0.2624
  545MOL0     C73503   2.861   6.875   8.762 -0.5748  0.0222  0.3292
  545MOL0     C73504   2.949   6.948   8.853 -0.2763  0.7913  0.8222
  545MOL0     C73505   3.024   7.019   8.918  0.6182 -0.6137 -0.0853
  545MOL0     C73506   2.462   7.474   8.756  0.1957 -0.9051 -0.0064
  545MOL0     C73507   2.426   7.599   8.701 -0.1071 -0.0634 -0.0491
  545MOL0     H73508   2.435   8.054   8.423 -0.2138  1.9363 -0.5139
  545MOL0     H73509   2.325   8.228   8.323  1.9671  0.7065 -2.0278
  545MOL0     H73510   2.068   8.112   7.939 -2.1150  1.4625  1.2108
  545MOL0     H73511   2.086   8.284   7.916  1.0637 -0.9583 -3.1394
  545MOL0     H73512   2.339   8.234   7.891  2.7263 -3.3307 -0.1105
  545MOL0     H73513   2.305   8.069   7.891  1.6189  0.0045 -2.0831
  545MOL0     H73514   2.148   8.070   7.701 -4.5779  1.8178  0.5718
  545MOL0     H73515   2.137   8.239   7.686 -0.0207 -1.4835 -0.5078
  545MOL0     H73516   2.406   8.238   7.659  0.7178 -1.4480  0.9418
  545MOL0     H73517   2.376   8.072   7.621  0.0912 -0.1274  0.8148
  545MOL0     H73518   2.197   8.279   7.473  0.6047  1.4263 -1.2124
  545MOL0     H73519   2.350   8.270   7.408  1.3508 -1.9926  1.0199
  545MOL0     H73520   2.344   8.035   7.395 -0.8597 -0.6832  1.2785
  545MOL0     H73521   2.178   8.027   7.455  1.1966 -1.0633  1.4871
  545MOL0     H73522   2.088   8.088   7.245  0.1405  2.6493  0.8246
  545MOL0     H73523   2.187   8.231   7.242  0.9586  0.7240  0.0770
  545MOL0     H73524   2.371   8.131   7.153 -1.9196  2.7514  1.2767
  545MOL0     H73525   2.226   8.096   7.054 -3.4165 -1.4923  1.4846
  545MOL0     H73526   2.116   7.883   6.993 -0.4079 -0.3551  0.9746
  545MOL0     H73527   2.119   7.611   6.909 -0.4967 -1.2710  0.0687
  545MOL0     H73528   2.270   7.557   6.962 -1.0599 -0.4558 -0.6233
  545MOL0     H73529   2.182   7.467   7.169  1.2911  1.2117 -1.1219
  545MOL0     H73530   2.086   7.410   7.043 -3.7251 -0.2746  2.2394
  545MOL0     H73531   1.902   7.546   7.078 -0.9521  1.1775  1.5486
  545MOL0     H73532   1.983   7.653   7.198 -1.0315 -1.0215  0.9568
  545MOL0     H73533   1.988   7.441   7.331  1.8313  2.9086 -1.3994
  545MOL0     H73534   1.861   7.380   7.221  0.7281 -0.9015  2.5590
  545MOL0     H73535   2.039   7.588   7.440  0.5365 -0.6911 -0.2249
  545MOL0     H73536   2.179   7.731   7.516 -0.4522 -1.0661  0.5901
  545MOL0     H73537   2.158   7.862   7.618  2.3715 -1.7832  0.0625
  545MOL0     H73538   2.134   7.718   7.700  1.6696  2.2466  0.9746
  545MOL0     H73539   1.746   7.877   7.976  0.0651 -0.7785  4.2348
  545MOL0     H73540   1.712   7.984   8.195  0.9586  0.3400  0.9320
  545MOL0     H73541   1.938   8.325   8.252  0.2348 -1.8537 -0.4185
  545MOL0     H73542   1.785   8.409   8.298  0.4357  0.9345 -1.7306
  545MOL0     H73543   1.799   8.314   8.513  1.9714  0.0183  2.4069
  545MOL0     H73544   1.949   8.215   8.475  2.6752  0.9135  0.8721
  545MOL0     H73545   1.969   8.423   8.612  1.5035  3.3201 -0.3745
  545MOL0     H73546   1.942   8.517   8.472  3.6081  2.4006  0.8644
  545MOL0     H73547   2.163   8.340   8.549  0.0986  3.0835  0.9900
  545MOL0     H73548   2.114   8.330   8.375 -0.7163 -2.4065  0.1926
  545MOL0     H73549   2.305   8.488   8.445 -0.1025 -0.8751  3.2320
  545MOL0     H73550   2.182   8.590   8.519  0.5772  1.3495 -1.0726
  545MOL0     H73551   2.059   8.592   8.292 -0.5801  1.6573  0.1229
  545MOL0     H73552   2.196   8.703   8.319 -0.2402  0.4389  0.0651
  545MOL0     H73553   2.256   8.426   8.176 -1.2756  0.1836 -0.7827
  545MOL0     H73554   2.332   8.584   8.167 -1.7307  1.5802 -2.5194
  545MOL0     H73555   2.061   8.506   8.053 -0.8170  2.0567 -3.0563
  545MOL0     H73556   2.208   8.518   7.965 -1.9941  0.2107 -1.6567
  545MOL0     H73557   1.819   8.359   8.032  2.1569 -0.3440 -1.1934
  545MOL0     H73558   1.817   8.263   7.821 -1.7379 -0.3297 -0.3420
  545MOL0     H73559   1.676   7.879   7.600 -0.2056 -0.7514 -0.2983
  545MOL0     H73560   1.632   7.705   7.424  0.7983 -1.6935 -1.9179
  545MOL0     H73561   2.169   7.967   8.031  1.2721 -0.5253  0.1681
  545MOL0     H73562   2.234   7.769   8.157  0.4444  0.5291 -3.1775
  545MOL0     H73563   2.458   7.536   8.369  0.8546  1.1489  1.2431
  545MOL0     H73564   2.519   7.317   8.478  0.3401  0.6889 -0.9398
  545MOL0     H73565   2.591   7.138   8.563  1.5945 -5.2347  0.6391
  545MOL0     H73566   2.728   7.232   8.617 -0.1765  1.9175  4.7187
  545MOL0     H73567   2.579   7.011   8.776 -0.4190  1.5161 -0.7942
  545MOL0     H73568   2.723   7.102   8.823  0.0769  2.2005 -2.7808
  545MOL0     H73569   2.826   7.020   8.599  0.0050  2.0023  0.7957
  545MOL0     H73570   2.718   6.889   8.608 -0.6205  1.0770 -0.1592
  545MOL0     H73571   2.927   6.811   8.702 -0.1957  0.8808 -0.1866
  545MOL0     H73572   2.820   6.804   8.834  0.5298  0.5743  1.5474
  545MOL0     H73573   3.071   7.101   8.969 -1.9441  0.5080  0.6329
  545MOL0     H73574   2.457   7.458   8.863  2.5449 -0.1506  0.2860
  545MOL0     H73575   2.396   7.679   8.769 -1.8194 -3.7133  3.9948
  546MOL0     O73576   8.594   5.903   5.637  0.9525 -0.0376 -0.6880
  546MOL0     C73577   8.544   5.813   5.707  0.2282 -0.1531  0.6812
  546MOL0     O73578   8.449   5.823   5.798 -0.0572 -0.0295 -0.3054
  546MOL0     C73579   8.385   5.937   5.830 -0.2938 -0.0609  0.1478
  546MOL0     C73580   8.370   6.056   5.752 -0.0784  0.2140 -0.0718
  546MOL0     C73581   8.284   6.157   5.793  0.1141  0.2193 -0.3131
  546MOL0     C73582   8.190   6.133   5.892  0.2132 -0.6001  0.4946
  546MOL0     O73583   8.084   6.218   5.909 -0.1955 -0.0910 -0.1939
  546MOL0     C73584   8.085   6.292   6.034 -0.9534  0.2054  0.2467
  546MOL0     C73585   7.944   6.352   6.074 -0.4321 -1.5232 -0.9501
  546MOL0     C73586   7.895   6.448   5.963  0.1399 -0.1669 -0.8466
  546MOL0     C73587   7.767   6.519   6.015 -0.2117 -0.7917  0.3061
  546MOL0     C73588   7.725   6.643   5.935  0.6547 -0.2515  0.2032
  546MOL0     C73589   7.659   6.599   5.802 -0.6967  1.2613  0.4805
  546MOL0     C73590   7.601   6.729   5.745 -0.2560 -0.4295 -1.0696
  546MOL0     C73591   7.572   6.713   5.608  0.1055 -0.2430 -0.0148
  546MOL0     N73592   7.512   6.836   5.555  0.4409 -0.6633 -0.6602
  546MOL0     C73593   7.521   6.965   5.610 -0.0060  1.0057  1.4717
  546MOL0     C73594   7.499   7.039   5.499  0.5511 -0.6338  0.8124
  546MOL0     C73595   7.500   7.185   5.491  0.2192 -0.2747 -0.9311
  546MOL0     C73596   7.385   7.258   5.567  0.4504  0.1967 -0.0314
  546MOL0     C73597   7.355   7.404   5.514 -0.1500  0.0201 -0.0248
  546MOL0     C73598   7.263   7.477   5.613  0.2420 -0.2043  0.4408
  546MOL0     O73599   7.146   7.409   5.640 -1.0580  0.4397 -0.2780
  546MOL0     C73600   7.049   7.464   5.726 -0.0488  0.5556  0.6559
  546MOL0     C73601   6.931   7.386   5.738  0.4921 -0.5904  0.2663
  546MOL0     C73602   6.816   7.434   5.797 -0.3416  0.1976 -0.1431
  546MOL0     C73603   6.695   7.337   5.821 -0.6798 -0.1562 -0.3057
  546MOL0     C73604   6.817   7.571   5.835 -0.1345  0.3171  0.3021
  546MOL0     C73605   6.708   7.641   5.908  0.5618  0.7934  0.0425
  546MOL0     O73606   6.694   7.771   5.892  0.7265  0.4884  0.3038
  546MOL0     C73607   6.579   7.838   5.915  0.0512  0.0474 -0.9518
  546MOL0     C73608   6.454   7.784   5.900 -0.7256  0.3025  0.0900
  546MOL0     C73609   6.336   7.864   5.924  0.0869  0.8227  0.2766
  546MOL0     C73610   6.357   7.998   5.962  0.3421 -0.0413 -0.0100
  546MOL0     O73611   6.261   8.090   5.985 -0.1979 -0.8332 -1.1427
  546MOL0     C73612   6.137   8.042   6.017  0.2344 -0.1691  0.4427
  546MOL0     C73613   6.058   8.150   6.089 -0.5762 -0.4597  0.0342
  546MOL0     C73614   6.147   8.263   6.164 -0.2170 -0.9368 -0.4162
  546MOL0     C73615   6.051   8.340   6.256  0.6272  0.2057 -0.9835
  546MOL0     C73616   6.116   8.422   6.370  0.3002  0.4994 -0.3605
  546MOL0     C73617   6.018   8.509   6.446 -0.1352 -0.1734 -0.7516
  546MOL0     C73618   5.909   8.439   6.519  0.9407 -0.3676  0.4412
  546MOL0     C73619   5.967   8.343   6.619 -0.4348  0.9979  0.2282
  546MOL0    Cl73620   5.835   8.256   6.703  0.5373 -0.3032  0.2416
  546MOL0     C73621   6.488   8.050   5.963  0.4989  0.3266 -0.3485
  546MOL0     C73622   6.593   7.969   5.940 -0.3188 -0.0315 -0.4942
  546MOL0     O73623   6.634   7.571   5.972  0.3510 -0.1608 -0.0460
  546MOL0     C73624   6.936   7.648   5.824 -0.1960  0.6545  0.0762
  546MOL0     C73625   7.047   7.595   5.768  0.1551  0.5924  0.4769
  546MOL0     N73626   7.464   6.965   5.392  0.9722 -0.0139  0.5850
  546MOL0     N73627   7.479   6.840   5.428  0.7183  0.0301 -0.0010
  546MOL0     C73628   8.193   6.011   5.964  0.0247  0.5390  0.4695
  546MOL0     C73629   8.298   5.918   5.944  1.3723 -0.0721 -0.4992
  546MOL0     C73630   8.580   5.674   5.679  0.0041  0.3510  0.1249
  546MOL0     C73631   8.510   5.560   5.704  0.2577  0.6768  0.6450
  546MOL0     C73632   8.549   5.435   5.653  0.2921 -0.1628 -0.1916
  546MOL0     C73633   8.674   5.437   5.585  0.4728 -0.4287 -0.1733
  546MOL0     O73634   8.717   5.305   5.566 -0.0007 -1.2667  0.2592
  546MOL0     C73635   8.828   5.294   5.484 -0.4240  0.6777  0.4444
  546MOL0     C73636   8.858   5.140   5.457  0.4681 -0.1304  0.5295
  546MOL0     C73637   8.993   5.135   5.398  0.4232  0.1521 -0.2254
  546MOL0     C73638   9.092   5.121   5.510 -0.0858  0.5003 -0.2076
  546MOL0     C73639   9.088   4.984   5.572  0.1347 -0.7221 -0.9055
  546MOL0     C73640   9.096   4.879   5.630  0.1611 -0.6287 -0.3516
  546MOL0     C73641   8.751   5.548   5.560 -0.1494  0.1375  0.6687
  546MOL0     C73642   8.695   5.663   5.595 -0.0147 -0.6511 -0.6265
  546MOL0     H73643   8.422   6.064   5.657 -0.1722  2.5709  0.0017
  546MOL0     H73644   8.281   6.252   5.740 -0.3042  1.4456  1.8032
  546MOL0     H73645   8.115   6.229   6.118  3.2131  1.8504  0.2143
  546MOL0     H73646   8.153   6.377   6.028 -2.2594  1.3572  1.1038
  546MOL0     H73647   7.864   6.278   6.080  0.0511 -2.1663 -2.1597
  546MOL0     H73648   7.951   6.398   6.173 -3.6865 -0.6184 -1.0203
  546MOL0     H73649   7.962   6.535   5.953 -0.8294  0.4874 -1.8926
  546MOL0     H73650   7.889   6.401   5.865  1.0637  0.4374 -1.2087
  546MOL0     H73651   7.690   6.442   6.010 -1.3778  0.3975 -0.8849
  546MOL0     H73652   7.785   6.551   6.118  1.9740 -0.9876  0.0395
  546MOL0     H73653   7.648   6.699   5.989 -0.0380 -1.3461  0.3617
  546MOL0     H73654   7.811   6.709   5.920  0.1136  0.4291  0.0358
  546MOL0     H73655   7.730   6.548   5.735 -3.3734 -1.6703 -0.3784
  546MOL0     H73656   7.576   6.535   5.833 -0.9018  2.3729  2.3595
  546MOL0     H73657   7.513   6.755   5.805 -0.7126 -4.3887  0.2349
  546MOL0     H73658   7.673   6.810   5.756  1.0752 -1.8729  2.2543
  546MOL0     H73659   7.509   6.626   5.588  1.5479 -1.4342  0.3936
  546MOL0     H73660   7.669   6.688   5.565  2.8959  2.1544  4.1550
  546MOL0     H73661   7.550   6.998   5.709 -1.2878 -0.8006  2.5035
  546MOL0     H73662   7.600   7.217   5.523  0.0473 -0.9573  0.3607
  546MOL0     H73663   7.490   7.223   5.389 -2.7132  1.2337 -0.1954
  546MOL0     H73664   7.410   7.251   5.673  0.1611  2.4622  0.2239
  546MOL0     H73665   7.299   7.192   5.553 -0.3945  1.3991 -0.6166
  546MOL0     H73666   7.318   7.380   5.414  2.1049 -0.6341 -0.7784
  546MOL0     H73667   7.449   7.460   5.512  0.3378 -0.7843 -1.1924
  546MOL0     H73668   7.230   7.570   5.566  0.7386  1.7516  3.6447
  546MOL0     H73669   7.313   7.498   5.708 -0.5114  2.0830  0.3827
  546MOL0     H73670   6.939   7.282   5.708 -1.9531 -0.3744 -1.4672
  546MOL0     H73671   6.600   7.386   5.795 -1.3487  1.1116  3.8818
  546MOL0     H73672   6.700   7.243   5.765 -0.6917  1.1130 -2.5812
  546MOL0     H73673   6.693   7.302   5.924  0.6327  0.9159  0.1129
  546MOL0     H73674   6.442   7.679   5.876 -0.4882 -0.9761  4.5861
  546MOL0     H73675   6.240   7.814   5.927  0.0549  0.9283  1.0344
  546MOL0     H73676   6.078   8.019   5.927 -1.4814  1.4945  1.0752
  546MOL0     H73677   6.145   7.960   6.088  1.3566  0.5417  1.1710
  546MOL0     H73678   5.991   8.194   6.014 -0.8191 -2.1641 -0.7781
  546MOL0     H73679   5.991   8.106   6.163 -0.1728  1.1864  1.4670
  546MOL0     H73680   6.200   8.335   6.100  1.9482 -0.3300  1.8697
  546MOL0     H73681   6.227   8.221   6.226  0.8254  0.3403 -0.8346
  546MOL0     H73682   6.000   8.416   6.196  0.3637 -0.3159 -1.4395
  546MOL0     H73683   5.980   8.272   6.304  2.8687 -1.0983  0.6535
  546MOL0     H73684   6.183   8.490   6.316  0.1772 -0.0772 -1.2524
  546MOL0     H73685   6.172   8.353   6.433 -0.1687 -0.4282 -0.9435
  546MOL0     H73686   6.085   8.569   6.509  1.0477  1.3384 -3.3074
  546MOL0     H73687   5.973   8.576   6.372  1.8764  0.3158 -1.5860
  546MOL0     H73688   5.847   8.380   6.451 -0.7650  0.3943  1.2834
  546MOL0     H73689   5.843   8.513   6.565  3.9656  3.0094 -0.1977
  546MOL0     H73690   6.026   8.400   6.691  2.2324 -1.5359  0.2565
  546MOL0     H73691   6.036   8.269   6.577  2.2510  2.9319  0.9684
  546MOL0     H73692   6.500   8.156   5.978 -1.9438  0.6157 -0.0296
  546MOL0     H73693   6.688   8.022   5.932 -0.7343  1.2195  1.9390
  546MOL0     H73694   6.945   7.754   5.848  0.8500  1.0567 -1.8827
  546MOL0     H73695   7.134   7.658   5.755 -0.8997  2.0206  0.0236
  546MOL0     H73696   8.113   6.001   6.036  2.0909 -0.0059  2.8159
  546MOL0     H73697   8.295   5.825   6.001  2.6342 -1.2648 -2.2779
  546MOL0     H73698   8.421   5.557   5.767  0.7621 -1.8761  1.3722
  546MOL0     H73699   8.503   5.339   5.678 -1.2773  0.3016 -1.1678
  546MOL0     H73700   8.807   5.337   5.385 -0.3450 -3.5073 -1.6222
  546MOL0     H73701   8.910   5.353   5.526 -1.1858  2.5974 -0.6335
  546MOL0     H73702   8.782   5.115   5.383  0.7633  0.4609  0.0125
  546MOL0     H73703   8.847   5.082   5.549  2.0335 -3.1135 -0.9953
  546MOL0     H73704   9.021   5.232   5.356  0.0576  1.0412  1.4766
  546MOL0     H73705   9.011   5.054   5.326  0.5554 -1.5462  1.6342
  546MOL0     H73706   9.079   5.200   5.584  2.2906  0.3531  0.4226
  546MOL0     H73707   9.195   5.134   5.475 -1.1286  0.8518 -3.4551
  546MOL0     H73708   9.102   4.779   5.667 -0.2619 -0.1843  0.9501
  546MOL0     H73709   8.852   5.539   5.522 -0.2764 -2.0321  0.7019
  546MOL0     H73710   8.747   5.747   5.550 -3.3514  1.4455 -0.9053
  547MOL0     O73711   6.297  10.174  10.680  0.3804  0.2180  0.0412
  547MOL0     C73712   6.264  10.247  10.587 -0.7066 -0.5430  0.9179
  547MOL0     O73713   6.312  10.241  10.458  0.5569  0.1583 -0.5580
  547MOL0     C73714   6.402  10.142  10.424 -0.2337  0.7653  0.4186
  547MOL0     C73715   6.490  10.165  10.317  0.9488 -0.4100 -0.9637
  547MOL0     C73716   6.581  10.076  10.273 -0.8091  0.0596  0.7005
  547MOL0     C73717   6.595   9.940  10.333  0.7959 -1.1859 -0.4624
  547MOL0     O73718   6.691   9.861  10.280 -1.0417 -0.2088  0.2973
  547MOL0     C73719   6.720   9.737  10.353  0.4643 -0.0440  0.8619
  547MOL0     C73720   6.834   9.658  10.297  0.6573  0.1561 -1.6618
  547MOL0     C73721   6.803   9.596  10.158  0.0363  0.5619 -0.3772
  547MOL0     C73722   6.917   9.517  10.089  0.7843 -0.9057  0.6175
  547MOL0     C73723   6.923   9.382  10.151 -0.4363  0.5316  1.4458
  547MOL0     C73724   7.053   9.315  10.113 -1.0374 -0.6157  0.5602
  547MOL0     C73725   7.048   9.162  10.129  0.0548 -0.1366  0.0750
  547MOL0     C73726   7.163   9.089  10.060  0.2638  0.1107  0.4888
  547MOL0     N73727   7.159   8.942  10.075 -0.1869  0.0989  0.4529
  547MOL0     C73728   7.174   8.847   9.973 -0.5371  0.2025  0.0967
  547MOL0     C73729   7.149   8.726  10.036 -0.6386 -0.4185  0.0725
  547MOL0     C73730   7.144   8.592   9.966  0.1493  0.9671 -0.1385
  547MOL0     C73731   7.010   8.575   9.891 -0.4962  0.4304 -0.6187
  547MOL0     C73732   6.901   8.513   9.984 -0.7366 -0.5621 -0.2665
  547MOL0     C73733   6.786   8.448   9.897 -1.2766  0.0548 -1.1988
  547MOL0     O73734   6.726   8.538   9.808 -0.1072 -1.0440 -0.2285
  547MOL0     C73735   6.646   8.638   9.852 -0.7051 -0.3380  0.2044
  547MOL0     C73736   6.600   8.672   9.984 -0.5894 -0.2082 -0.1829
  547MOL0     C73737   6.511   8.770  10.010 -0.5833 -0.1233 -0.2755
  547MOL0     C73738   6.477   8.794  10.158 -0.1003  0.7582  0.0111
  547MOL0     C73739   6.447   8.838   9.900  0.1570  0.2369 -0.4866
  547MOL0     C73740   6.341   8.946   9.925 -0.4384  0.0186  1.5462
  547MOL0     O73741   6.274   8.979   9.816 -0.0060  0.3027  0.7846
  547MOL0     C73742   6.191   9.088   9.804  1.2318 -0.1989  0.5748
  547MOL0     C73743   6.232   9.167   9.707  0.0599 -0.4729  0.9596
  547MOL0     C73744   6.173   9.290   9.700  0.1108 -1.0125  0.7596
  547MOL0     C73745   6.084   9.333   9.793 -0.3960  0.2965  0.2960
  547MOL0     O73746   6.034   9.460   9.780 -0.3527  0.0209 -0.2897
  547MOL0     C73747   5.890   9.466   9.793  0.4320  0.7808 -0.7654
  547MOL0     C73748   5.845   9.566   9.693 -0.4704 -0.1990 -0.7470
  547MOL0     C73749   5.689   9.570   9.689  0.8067  0.0745 -0.8202
  547MOL0     C73750   5.616   9.701   9.658 -0.3619  0.1363  0.9237
  547MOL0     C73751   5.477   9.707   9.711 -0.4652 -0.7482 -0.3144
  547MOL0     C73752   5.383   9.619   9.629 -0.0171 -0.2775  0.0673
  547MOL0     C73753   5.394   9.623   9.475 -0.1217  0.2602  0.1375
  547MOL0     C73754   5.265   9.556   9.421 -0.4041  0.2750 -0.5516
  547MOL0    Cl73755   5.258   9.383   9.473 -0.2628 -0.1447  0.4939
  547MOL0     C73756   6.039   9.244   9.895 -0.2750  0.3961 -0.0958
  547MOL0     C73757   6.086   9.110   9.898  0.1665  0.1217 -0.4127
  547MOL0     O73758   6.323   9.004  10.032  0.0097 -0.5758  0.0289
  547MOL0     C73759   6.487   8.811   9.764 -0.6390  0.5816  0.5545
  547MOL0     C73760   6.593   8.721   9.750  0.0413 -0.6020  0.5052
  547MOL0     N73761   7.105   8.748  10.164 -0.4899 -0.0673 -0.1582
  547MOL0     N73762   7.122   8.879  10.190 -0.0988  0.3906 -0.1134
  547MOL0     C73763   6.497   9.912  10.429 -0.0457 -0.4000 -0.6615
  547MOL0     C73764   6.397  10.004  10.475  0.7049  0.0767 -0.6121
  547MOL0     C73765   6.155  10.347  10.623 -0.0409  0.5619  0.3629
  547MOL0     C73766   6.122  10.385  10.750 -0.3313  0.6108  0.5549
  547MOL0     C73767   6.022  10.473  10.777  0.3623  0.2083 -1.0302
  547MOL0     C73768   5.935  10.526  10.679  0.4095  0.0841  1.1895
  547MOL0     O73769   5.830  10.603  10.718 -0.1668 -0.4776  0.1767
  547MOL0     C73770   5.789  10.717  10.643  0.4173 -0.7790 -0.8164
  547MOL0     C73771   5.651  10.684  10.570 -1.0217  0.4756  0.4511
  547MOL0     C73772   5.591  10.811  10.488 -1.1596 -0.0915 -0.5410
  547MOL0     C73773   5.450  10.791  10.431 -0.7137  0.4049  0.1019
  547MOL0     C73774   5.385  10.920  10.395  0.2253  0.5048  0.7653
  547MOL0     C73775   5.351  11.022  10.345 -0.5533  0.1130 -0.2384
  547MOL0     C73776   5.974  10.491  10.547  0.1037  0.9833 -0.5443
  547MOL0     C73777   6.083  10.402  10.512  0.0435  0.2544  0.0126
  547MOL0     H73778   6.490  10.259  10.262  1.6402  2.0684  2.9205
  547MOL0     H73779   6.647  10.101  10.191 -1.6944  0.3445  0.0625
  547MOL0     H73780   6.742   9.762  10.458 -2.4932  0.7169  1.3875
  547MOL0     H73781   6.633   9.672  10.347 -1.1737  2.0136  1.1247
  547MOL0     H73782   6.924   9.720  10.307  1.3357 -1.1880  3.2061
  547MOL0     H73783   6.852   9.570  10.360 -0.0364 -0.6880 -2.6163
  547MOL0     H73784   6.713   9.534  10.162 -0.1912  0.8614 -0.6936
  547MOL0     H73785   6.764   9.678  10.097 -0.6951  0.2877 -0.2917
  547MOL0     H73786   6.920   9.514   9.980  0.5353 -0.1155  0.5823
  547MOL0     H73787   7.009   9.569  10.118 -0.5773  1.5288  0.8182
  547MOL0     H73788   6.922   9.384  10.260 -1.5743  1.7234  1.4337
  547MOL0     H73789   6.845   9.315  10.113 -0.5902  1.9588 -0.9873
  547MOL0     H73790   7.082   9.345  10.012 -0.2593  1.0386  1.2329
  547MOL0     H73791   7.131   9.360  10.175 -1.7806  1.1698  0.2856
  547MOL0     H73792   7.040   9.125  10.231  2.6130 -1.3584 -0.0843
  547MOL0     H73793   6.948   9.134  10.093 -0.7849  0.7696  1.5970
  547MOL0     H73794   7.263   9.125  10.085 -0.9540  1.7157  3.6472
  547MOL0     H73795   7.149   9.102   9.952 -1.9026 -4.2531  0.0037
  547MOL0     H73796   7.186   8.866   9.867 -2.8332  3.1215  0.2267
  547MOL0     H73797   7.236   8.576   9.909 -0.5658 -1.8382 -0.6262
  547MOL0     H73798   7.144   8.514  10.042 -1.3410 -0.0226 -1.1068
  547MOL0     H73799   7.027   8.517   9.800 -2.1067  0.3355 -0.8948
  547MOL0     H73800   6.978   8.670   9.845 -0.6660  0.0681 -1.2627
  547MOL0     H73801   6.858   8.593  10.046  1.7522  0.9219 -0.2814
  547MOL0     H73802   6.941   8.446  10.061 -1.0257  2.1696  2.4881
  547MOL0     H73803   6.704   8.404   9.953 -1.3288  1.3207 -0.2501
  547MOL0     H73804   6.819   8.361   9.839  1.8431  0.4729 -0.2640
  547MOL0     H73805   6.624   8.623  10.078 -1.4765  0.5103  0.4310
  547MOL0     H73806   6.369   8.794  10.177 -0.0546 -2.7013  1.0115
  547MOL0     H73807   6.518   8.717  10.223 -2.2411  0.3336  0.9338
  547MOL0     H73808   6.519   8.890  10.189 -0.7206  0.3486  2.2788
  547MOL0     H73809   6.311   9.144   9.636 -0.9908  1.5471 -1.0002
  547MOL0     H73810   6.202   9.360   9.622  2.2746 -4.0357 -1.3627
  547MOL0     H73811   5.833   9.375   9.774  1.2110  0.3269 -0.9993
  547MOL0     H73812   5.845   9.501   9.887  0.1133  0.4330 -0.7869
  547MOL0     H73813   5.880   9.666   9.719 -0.0697 -0.6855  0.6757
  547MOL0     H73814   5.877   9.528   9.595 -2.4586 -4.5071  0.0721
  547MOL0     H73815   5.656   9.538   9.788 -1.0559 -1.0408 -1.7343
  547MOL0     H73816   5.650   9.501   9.614 -1.0858  2.0017 -1.7073
  547MOL0     H73817   5.662   9.788   9.706 -0.6065  3.0317 -3.4830
  547MOL0     H73818   5.619   9.722   9.551 -0.3214 -0.5294  0.7938
  547MOL0     H73819   5.448   9.813   9.707  1.4316 -0.1920 -0.6957
  547MOL0     H73820   5.473   9.671   9.814  0.7514 -1.7444 -0.5872
  547MOL0     H73821   5.396   9.513   9.653 -0.9187 -0.7612 -1.4450
  547MOL0     H73822   5.282   9.652   9.658 -0.3310 -0.6666 -0.5541
  547MOL0     H73823   5.487   9.574   9.444 -0.4139 -1.4402  1.8284
  547MOL0     H73824   5.403   9.728   9.443  2.0025 -0.4728 -1.9653
  547MOL0     H73825   5.266   9.556   9.311 -2.3829  2.3837 -0.6605
  547MOL0     H73826   5.177   9.611   9.455  0.2829 -0.1013  2.0422
  547MOL0     H73827   5.969   9.280   9.970  0.5157  2.7157 -0.3748
  547MOL0     H73828   6.071   9.032   9.971 -0.6866 -1.6678 -2.3686
  547MOL0     H73829   6.461   8.873   9.679  1.2323  1.2518  0.4411
  547MOL0     H73830   6.632   8.733   9.649 -1.9526  2.9327  0.0033
  547MOL0     H73831   6.495   9.811  10.470  0.6473 -0.3949 -0.6157
  547MOL0     H73832   6.321   9.973  10.545 -2.3255  1.2658 -3.1565
  547MOL0     H73833   6.189  10.348  10.827 -0.5009  1.5725  1.1744
  547MOL0     H73834   6.004  10.503  10.880 -1.6265 -0.6060 -1.0866
  547MOL0     H73835   5.779  10.790  10.724 -1.3041 -0.4307 -1.3147
  547MOL0     H73836   5.868  10.750  10.574 -1.3961  0.0590 -2.6051
  547MOL0     H73837   5.574  10.650  10.640 -0.1082 -0.7445  0.9070
  547MOL0     H73838   5.687  10.598  10.513 -0.5188  0.2692  1.0603
  547MOL0     H73839   5.662  10.845  10.412 -2.1883  2.5196 -0.4378
  547MOL0     H73840   5.592  10.899  10.552  2.1227  0.3417 -0.9930
  547MOL0     H73841   5.383  10.735  10.497 -0.0185 -2.6494 -1.5673
  547MOL0     H73842   5.471  10.725  10.346  0.5677 -2.3138  2.3580
  547MOL0     H73843   5.316  11.116  10.309 -0.6134  0.0350 -0.3834
  547MOL0     H73844   5.908  10.530  10.470  0.9557 -1.3930 -2.5890
  547MOL0     H73845   6.118  10.390  10.409 -0.6732  1.7030 -0.4204
  548MOL0     O73846   4.956   5.293   5.850 -0.0655  0.1255 -0.5440
  548MOL0     C73847   4.961   5.176   5.892 -0.4950  0.5355  0.6053
  548MOL0     O73848   4.888   5.127   5.998 -1.0628  0.2531  0.0744
  548MOL0     C73849   4.788   5.208   6.045  0.4853  0.0850  0.6102
  548MOL0     C73850   4.780   5.241   6.178  0.0389 -0.5782 -0.0799
  548MOL0     C73851   4.691   5.325   6.238  0.2119  0.7250  0.5546
  548MOL0     C73852   4.592   5.384   6.160  0.5363 -0.1113  0.4792
  548MOL0     O73853   4.501   5.457   6.230 -0.0472 -0.1700  0.5229
  548MOL0     C73854   4.404   5.521   6.149  0.3893 -0.3158 -0.1217
  548MOL0     C73855   4.322   5.635   6.214  0.0317  0.4124 -0.0600
  548MOL0     C73856   4.397   5.770   6.217 -0.3196 -0.5641  0.0428
  548MOL0     C73857   4.331   5.893   6.286 -0.6540 -0.1694  1.3676
  548MOL0     C73858   4.307   5.872   6.437  0.1236 -0.3975 -0.1980
  548MOL0     C73859   4.251   6.003   6.510  0.2194  0.3172 -0.8102
  548MOL0     C73860   4.105   6.021   6.468 -0.5105 -0.3145 -0.3924
  548MOL0     C73861   4.054   6.167   6.458  0.0823 -0.1282 -0.1608
  548MOL0     N73862   4.113   6.237   6.336  0.2507  0.3632 -0.2242
  548MOL0     C73863   4.120   6.189   6.208  0.2936 -0.3587 -0.1169
  548MOL0     C73864   4.227   6.257   6.152  0.5455  0.8786 -0.4468
  548MOL0     C73865   4.274   6.245   6.012  0.9033  0.8897  0.5350
  548MOL0     C73866   4.334   6.106   5.960 -0.0937  1.3483 -0.2109
  548MOL0     C73867   4.230   5.997   5.937  0.2458  0.3021  0.2663
  548MOL0     C73868   4.299   5.869   5.877  1.2242 -0.6539 -0.1847
  548MOL0     O73869   4.194   5.775   5.875  0.5655 -0.2399 -0.4838
  548MOL0     C73870   4.234   5.646   5.850  0.7991  0.0625  0.5223
  548MOL0     C73871   4.360   5.617   5.792  0.4666  0.0994 -0.4302
  548MOL0     C73872   4.374   5.489   5.740 -0.0596  0.6967 -0.1397
  548MOL0     C73873   4.475   5.474   5.628  0.1916 -0.5199 -0.1695
  548MOL0     C73874   4.300   5.377   5.784  0.7306  0.8736 -0.4141
  548MOL0     C73875   4.327   5.236   5.753 -0.2073 -0.4043  0.2943
  548MOL0     O73876   4.224   5.142   5.747  1.0206  0.3512  0.6270
  548MOL0     C73877   4.257   5.015   5.696  0.2431  0.4506 -0.5542
  548MOL0     C73878   4.208   4.899   5.759  0.2868  0.0897  0.2672
  548MOL0     C73879   4.236   4.770   5.713  0.5167  0.0119 -2.1218
  548MOL0     C73880   4.291   4.756   5.593  0.3674 -0.1548  0.1434
  548MOL0     O73881   4.317   4.624   5.547 -0.3193 -0.2006  0.9543
  548MOL0     C73882   4.280   4.606   5.407  0.8565 -0.1572 -0.2960
  548MOL0     C73883   4.252   4.449   5.392 -0.2813  0.3687  0.0422
  548MOL0     C73884   4.363   4.345   5.405 -0.2182  0.3255  0.0841
  548MOL0     C73885   4.498   4.389   5.340  0.5908 -0.0199 -0.6995
  548MOL0     C73886   4.528   4.323   5.201  0.0573  1.0230 -0.3861
  548MOL0     C73887   4.652   4.371   5.134 -1.3546  0.6665  0.3448
  548MOL0     C73888   4.777   4.322   5.210 -0.3343  0.7713  0.1392
  548MOL0     C73889   4.896   4.325   5.124 -0.6572  0.8258  0.0023
  548MOL0    Cl73890   4.943   4.495   5.098 -0.0046  0.1700  0.0707
  548MOL0     C73891   4.325   4.869   5.520 -0.7199 -0.3616 -0.1206
  548MOL0     C73892   4.316   4.998   5.577 -0.3873 -0.3444  0.2730
  548MOL0     O73893   4.447   5.210   5.749 -0.0023  0.0912 -0.8323
  548MOL0     C73894   4.189   5.405   5.861  0.2222 -0.1133 -0.0014
  548MOL0     C73895   4.151   5.533   5.889 -0.0713 -0.7765 -0.1650
  548MOL0     N73896   4.280   6.338   6.249 -0.1116  0.4183  0.4577
  548MOL0     N73897   4.206   6.333   6.354  0.5584 -1.1715  0.7180
  548MOL0     C73898   4.590   5.344   6.024 -0.0179  0.1275  0.0853
  548MOL0     C73899   4.691   5.258   5.963 -0.4841 -0.7551  0.2271
  548MOL0     C73900   5.072   5.096   5.844  0.5905  0.2601 -0.1500
  548MOL0     C73901   5.120   4.983   5.916  0.6723 -0.2887 -0.9623
  548MOL0     C73902   5.220   4.894   5.870  0.2747  0.4793 -0.3033
  548MOL0     C73903   5.272   4.921   5.738 -0.4605  0.2339 -0.0144
  548MOL0     O73904   5.358   4.825   5.684 -0.1886  0.0966 -0.6510
  548MOL0     C73905   5.375   4.816   5.545 -0.3802  0.8851 -0.6915
  548MOL0     C73906   5.263   4.776   5.455  0.1937  0.0699 -0.4129
  548MOL0     C73907   5.253   4.626   5.463 -0.2452  0.9831  0.4176
  548MOL0     C73908   5.144   4.553   5.382  0.4671  0.0946  0.0991
  548MOL0     C73909   5.139   4.407   5.399  0.7188 -0.9621  1.2175
  548MOL0     C73910   5.119   4.286   5.425 -0.4779 -0.4469  0.4117
  548MOL0     C73911   5.227   5.031   5.658  0.6141  0.8676 -0.4438
  548MOL0     C73912   5.127   5.119   5.716 -0.4296  0.3630 -0.5564
  548MOL0     H73913   4.844   5.194   6.252  0.0880 -1.0383 -0.4117
  548MOL0     H73914   4.703   5.337   6.345  1.8648 -1.8024  0.7522
  548MOL0     H73915   4.459   5.568   6.067  1.6757  2.4561  2.1088
  548MOL0     H73916   4.336   5.440   6.123  1.4447 -0.9329 -1.0258
  548MOL0     H73917   4.227   5.639   6.160  0.5570 -1.8604 -1.3069
  548MOL0     H73918   4.284   5.608   6.313  0.0556  5.6371  1.6540
  548MOL0     H73919   4.485   5.750   6.280 -0.6423  6.1130  3.4822
  548MOL0     H73920   4.415   5.802   6.114 -2.6545  2.5698  0.4871
  548MOL0     H73921   4.381   5.989   6.268 -1.1863 -0.2680 -1.0200
  548MOL0     H73922   4.240   5.893   6.226  0.9998 -0.4401 -1.3639
  548MOL0     H73923   4.233   5.792   6.440 -0.7248  0.3713  0.0289
  548MOL0     H73924   4.402   5.853   6.488  2.0446  1.5730 -2.7429
  548MOL0     H73925   4.258   5.991   6.619 -2.8771 -1.4588 -0.6849
  548MOL0     H73926   4.306   6.094   6.485 -0.1544  0.4328 -1.2294
  548MOL0     H73927   4.080   5.973   6.373  4.0119 -0.8718 -1.5219
  548MOL0     H73928   4.055   5.969   6.551  0.4418  1.0874  1.1174
  548MOL0     H73929   4.090   6.215   6.549  1.4637  0.3095 -0.9020
  548MOL0     H73930   3.946   6.157   6.453  0.1137 -0.3818 -0.3693
  548MOL0     H73931   4.060   6.105   6.173 -0.9166  0.8535 -1.0624
  548MOL0     H73932   4.190   6.277   5.950 -2.4719  1.0396  4.7634
  548MOL0     H73933   4.358   6.315   6.008  2.3616 -0.5207  3.2746
  548MOL0     H73934   4.403   6.074   6.039 -0.1718 -1.0169 -1.0112
  548MOL0     H73935   4.398   6.120   5.872 -2.2673  1.1844 -1.9089
  548MOL0     H73936   4.167   6.032   5.856  1.8263 -3.4736 -2.9203
  548MOL0     H73937   4.171   5.965   6.024  0.7159  0.9215  0.8255
  548MOL0     H73938   4.389   5.842   5.934  1.5999 -1.5003 -1.1498
  548MOL0     H73939   4.324   5.878   5.771 -3.0700  2.6247 -1.2000
  548MOL0     H73940   4.427   5.696   5.760  0.6040 -0.3018 -1.1444
  548MOL0     H73941   4.470   5.385   5.565  0.2895  0.0953 -1.0718
  548MOL0     H73942   4.474   5.564   5.566  2.2583 -0.0355  0.4049
  548MOL0     H73943   4.573   5.480   5.676 -0.3980 -0.9693  1.1583
  548MOL0     H73944   4.140   4.909   5.843  1.2941  0.4520  1.0560
  548MOL0     H73945   4.213   4.682   5.772  2.7232  0.5353 -0.3476
  548MOL0     H73946   4.186   4.657   5.387  1.0839 -0.2177 -1.5665
  548MOL0     H73947   4.344   4.644   5.327  1.2669  0.5706  0.3595
  548MOL0     H73948   4.169   4.415   5.455 -2.2440  1.6682 -1.7338
  548MOL0     H73949   4.222   4.450   5.287  2.0395 -0.5230 -0.7124
  548MOL0     H73950   4.336   4.246   5.365 -0.0267 -0.7120  2.3760
  548MOL0     H73951   4.378   4.331   5.512  1.0951  1.7602  0.1218
  548MOL0     H73952   4.488   4.495   5.318 -2.7895  0.1211  0.9546
  548MOL0     H73953   4.589   4.375   5.400  1.7902  0.7279 -2.2664
  548MOL0     H73954   4.445   4.342   5.133 -0.2803  3.0718  0.5181
  548MOL0     H73955   4.534   4.218   5.231  0.2225  0.6035 -1.8083
  548MOL0     H73956   4.655   4.344   5.029 -1.8363  3.4984 -0.4725
  548MOL0     H73957   4.653   4.480   5.132  1.5428  0.6954 -0.8697
  548MOL0     H73958   4.766   4.216   5.235 -0.9917  0.3599 -1.7597
  548MOL0     H73959   4.798   4.379   5.301  1.7832  0.2682  0.0175
  548MOL0     H73960   4.876   4.267   5.034 -1.2389 -2.6004  2.1416
  548MOL0     H73961   4.980   4.268   5.166 -0.1721 -0.3442 -2.3915
  548MOL0     H73962   4.377   4.870   5.425  0.7755  1.4018  0.6387
  548MOL0     H73963   4.354   5.090   5.534  0.7248 -0.2729  1.3693
  548MOL0     H73964   4.127   5.324   5.898  1.9336  0.1411  3.8719
  548MOL0     H73965   4.052   5.559   5.924  0.2480 -1.5046  1.3368
  548MOL0     H73966   4.518   5.381   5.952 -0.2736  1.6867  1.0962
  548MOL0     H73967   4.678   5.238   5.857  0.1163 -0.5873  0.1204
  548MOL0     H73968   5.086   4.956   6.016  4.7962 -3.1799 -0.0788
  548MOL0     H73969   5.267   4.816   5.929 -0.6814 -0.3209 -0.5644
  548MOL0     H73970   5.415   4.911   5.510 -3.2991  2.8401  0.8106
  548MOL0     H73971   5.451   4.740   5.526 -0.9227  0.3308 -0.6645
  548MOL0     H73972   5.297   4.799   5.354  0.3200  0.5670 -0.2568
  548MOL0     H73973   5.167   4.826   5.472 -0.4170 -1.6429  1.6358
  548MOL0     H73974   5.253   4.590   5.566  0.9625 -0.6998 -0.1367
  548MOL0     H73975   5.347   4.598   5.416  0.0044  0.8656  0.9793
  548MOL0     H73976   5.159   4.584   5.279  0.7441  1.5105  0.5416
  548MOL0     H73977   5.059   4.609   5.422  0.7052  0.4602  0.0897
  548MOL0     H73978   5.100   4.183   5.445 -0.1247 -0.7057 -0.5219
  548MOL0     H73979   5.265   5.058   5.560 -0.2166 -0.5533 -1.1889
  548MOL0     H73980   5.064   5.188   5.661  1.2230  4.2933  2.0081
  549MOL0     O73981   7.303   3.980   2.342  0.1648  0.5782 -0.2768
  549MOL0     C73982   7.328   4.006   2.220 -0.0877 -0.0329 -0.1682
  549MOL0     O73983   7.370   4.139   2.172 -0.6507 -0.2480 -0.4490
  549MOL0     C73984   7.394   4.234   2.276 -0.0527 -0.6063 -0.6542
  549MOL0     C73985   7.462   4.201   2.398 -0.0200 -0.5619  0.2517
  549MOL0     C73986   7.497   4.306   2.493  0.0717  0.0247 -0.1360
  549MOL0     C73987   7.468   4.434   2.457 -0.5007 -0.3775  1.4885
  549MOL0     O73988   7.501   4.542   2.535 -0.2322 -0.5907 -0.1234
  549MOL0     C73989   7.393   4.627   2.593 -0.2543 -0.5378  0.0016
  549MOL0     C73990   7.441   4.778   2.618 -0.6311 -0.0824 -0.2151
  549MOL0     C73991   7.501   4.856   2.497 -0.3163  0.1920 -0.1229
  549MOL0     C73992   7.408   4.973   2.461 -0.4585 -0.5523  0.2452
  549MOL0     C73993   7.480   5.067   2.371 -0.0214  0.4315 -0.1219
  549MOL0     C73994   7.513   5.008   2.228  0.1525 -0.1362 -0.0869
  549MOL0     C73995   7.615   5.094   2.162 -0.0322 -0.4532 -0.0492
  549MOL0     C73996   7.633   5.039   2.015 -1.4783 -0.1549 -0.3197
  549MOL0     N73997   7.525   5.082   1.927 -0.6644 -0.7929 -0.7698
  549MOL0     C73998   7.412   5.008   1.887 -0.2550  0.3804  0.2501
  549MOL0     C73999   7.374   5.064   1.773  0.4967 -0.0144  0.6200
  549MOL0     C74000   7.250   5.025   1.689 -0.1625 -0.5316  0.2461
  549MOL0     C74001   7.137   4.974   1.782  0.2539 -0.4908  0.0677
  549MOL0     C74002   6.985   4.968   1.742 -0.3180 -0.6236 -1.1997
  549MOL0     C74003   6.955   4.864   1.633 -0.2947 -0.5567 -0.7065
  549MOL0     O74004   7.005   4.906   1.506 -0.2943  0.2690 -0.1846
  549MOL0     C74005   6.945   5.012   1.451 -1.1325  0.4870 -0.3175
  549MOL0     C74006   7.018   5.092   1.366  0.1449  0.4540 -0.4270
  549MOL0     C74007   6.963   5.193   1.283 -0.3488 -0.8672 -0.3012
  549MOL0     C74008   7.057   5.269   1.185 -0.0307  0.6484  0.1236
  549MOL0     C74009   6.827   5.229   1.305  0.4534  0.4411  0.4419
  549MOL0     C74010   6.749   5.334   1.239  0.6953  0.5678  0.3490
  549MOL0     O74011   6.625   5.361   1.280  0.5684 -0.4554  0.0118
  549MOL0     C74012   6.579   5.492   1.263  0.6549  0.8675 -0.1793
  549MOL0     C74013   6.552   5.551   1.138 -0.4488 -0.0293  0.0279
  549MOL0     C74014   6.506   5.685   1.131 -0.5371 -0.6903  0.7985
  549MOL0     C74015   6.505   5.768   1.244 -0.7426  1.0542 -0.9866
  549MOL0     O74016   6.470   5.893   1.247  0.6004  0.5523 -0.4491
  549MOL0     C74017   6.516   5.993   1.150 -0.0444  0.6591 -0.6917
  549MOL0     C74018   6.398   6.084   1.089  0.5009  0.8745 -0.0241
  549MOL0     C74019   6.318   6.142   1.200  0.1070  0.3404  0.4616
  549MOL0     C74020   6.211   6.243   1.158 -0.2074 -0.5835  0.4992
  549MOL0     C74021   6.099   6.252   1.259 -0.2007 -0.3369 -0.2562
  549MOL0     C74022   6.136   6.286   1.408 -1.3815 -0.8011  0.8628
  549MOL0     C74023   6.193   6.432   1.418 -0.8405 -0.0089 -0.1140
  549MOL0     C74024   6.179   6.480   1.564 -0.4229  0.8494  1.3274
  549MOL0    Cl74025   6.288   6.386   1.688 -0.1176 -0.0352  0.0886
  549MOL0     C74026   6.557   5.717   1.360 -0.0936  0.7079  0.4942
  549MOL0     C74027   6.584   5.577   1.376 -0.3701 -0.0788  0.2619
  549MOL0     O74028   6.816   5.410   1.167 -0.1096 -0.5927  0.8976
  549MOL0     C74029   6.760   5.158   1.402  0.6577 -0.4215 -0.0220
  549MOL0     C74030   6.811   5.046   1.471  0.1862  0.2072 -0.0853
  549MOL0     N74031   7.450   5.178   1.758 -0.2726 -0.0768 -0.4522
  549MOL0     N74032   7.536   5.191   1.852 -0.0990  0.0437 -0.0414
  549MOL0     C74033   7.428   4.476   2.327  0.3750 -1.0540  1.0035
  549MOL0     C74034   7.380   4.374   2.238  0.4270  0.4250 -0.2811
  549MOL0     C74035   7.342   3.891   2.124 -0.0578  0.3957  0.6863
  549MOL0     C74036   7.330   3.759   2.161  0.1281  0.5800  0.6150
  549MOL0     C74037   7.346   3.656   2.061  0.8458 -0.4320 -0.5024
  549MOL0     C74038   7.384   3.691   1.926 -0.4611 -0.3671 -0.7798
  549MOL0     O74039   7.417   3.592   1.841  0.5120 -0.8946 -0.2671
  549MOL0     C74040   7.416   3.610   1.697 -0.2346  0.7562  0.3902
  549MOL0     C74041   7.479   3.491   1.617 -0.0537 -0.5824 -0.8404
  549MOL0     C74042   7.415   3.350   1.633 -0.0629 -0.5692  0.6600
  549MOL0     C74043   7.405   3.294   1.781  1.0758 -0.0911  0.1126
  549MOL0     C74044   7.539   3.312   1.846 -0.2477 -0.4972 -0.2631
  549MOL0     C74045   7.648   3.336   1.882 -0.0035 -0.5927  0.5913
  549MOL0     C74046   7.393   3.823   1.894 -0.1133 -0.5618  0.6210
  549MOL0     C74047   7.369   3.920   1.988 -0.4628 -0.0219 -0.1461
  549MOL0     H74048   7.500   4.099   2.393  0.6324 -0.3727  1.2172
  549MOL0     H74049   7.554   4.287   2.584  1.6246 -0.9376 -1.2491
  549MOL0     H74050   7.305   4.637   2.528  1.1314 -2.5782 -2.3871
  549MOL0     H74051   7.355   4.606   2.693 -2.0850  1.5248 -0.1713
  549MOL0     H74052   7.360   4.833   2.666 -1.3443 -2.7632  1.9478
  549MOL0     H74053   7.511   4.770   2.703 -3.7581  1.4245  2.7316
  549MOL0     H74054   7.598   4.895   2.530 -0.4821  0.3202  0.2274
  549MOL0     H74055   7.516   4.788   2.412  0.6701  0.0536  0.1408
  549MOL0     H74056   7.329   4.932   2.398 -1.9822  0.0770  1.6703
  549MOL0     H74057   7.371   5.023   2.551  2.0256  1.5772  0.2037
  549MOL0     H74058   7.416   5.153   2.351  2.9135  2.7662 -0.2681
  549MOL0     H74059   7.570   5.103   2.422  0.6166  0.0477 -0.9542
  549MOL0     H74060   7.550   4.906   2.245 -3.2828 -1.0279  3.5588
  549MOL0     H74061   7.425   5.005   2.163  0.1454 -0.3839 -0.0695
  549MOL0     H74062   7.593   5.201   2.156 -0.3490 -0.5281 -0.2456
  549MOL0     H74063   7.709   5.095   2.218  0.4156  0.7541 -0.7686
  549MOL0     H74064   7.632   4.930   2.021  2.4785 -0.2643  0.6729
  549MOL0     H74065   7.729   5.073   1.976 -0.4575 -0.1775  1.9873
  549MOL0     H74066   7.359   4.921   1.925  0.0680  0.5177  1.0339
  549MOL0     H74067   7.214   5.114   1.636 -1.8259  0.1673  2.4099
  549MOL0     H74068   7.276   4.949   1.614  0.6839 -1.1292  1.1199
  549MOL0     H74069   7.142   5.036   1.872 -0.3405 -0.5688  0.1632
  549MOL0     H74070   7.169   4.873   1.809  0.0593 -0.4900  0.3047
  549MOL0     H74071   6.968   5.069   1.702  3.4241  0.4071 -0.5736
  549MOL0     H74072   6.918   4.954   1.827  2.0302 -1.2467  0.6464
  549MOL0     H74073   6.848   4.840   1.625  0.0157 -2.3117 -0.1384
  549MOL0     H74074   7.012   4.779   1.671 -1.4827 -0.7113  0.8099
  549MOL0     H74075   7.125   5.076   1.371 -0.1917 -1.8386  2.5638
  549MOL0     H74076   7.074   5.373   1.215  1.9691  0.9484 -1.7958
  549MOL0     H74077   7.146   5.206   1.175 -0.9024 -0.6903  0.5655
  549MOL0     H74078   7.024   5.271   1.081 -2.8497  0.0014  0.9361
  549MOL0     H74079   6.562   5.500   1.043  0.4942 -0.6041  0.4237
  549MOL0     H74080   6.464   5.726   1.039  0.2212 -1.2904  0.1673
  549MOL0     H74081   6.575   6.076   1.189  0.0355  1.6495 -2.7879
  549MOL0     H74082   6.576   5.947   1.071  1.8946  0.9985  0.5045
  549MOL0     H74083   6.435   6.166   1.028 -1.3896  1.0103 -1.0611
  549MOL0     H74084   6.348   6.020   1.016  3.7718  0.9048 -2.5289
  549MOL0     H74085   6.388   6.181   1.276  0.2503 -0.7095  0.8903
  549MOL0     H74086   6.294   6.047   1.249  5.0782 -1.5538 -0.1200
  549MOL0     H74087   6.263   6.339   1.160  2.1740 -1.4092 -4.5434
  549MOL0     H74088   6.179   6.227   1.054  0.9959 -0.8238  0.1496
  549MOL0     H74089   6.051   6.154   1.250 -1.0657  0.3038 -4.1501
  549MOL0     H74090   6.034   6.331   1.222 -0.3377 -0.8201 -1.0638
  549MOL0     H74091   6.050   6.275   1.475 -0.8309 -1.0567  1.5473
  549MOL0     H74092   6.217   6.218   1.436  0.3356  0.0724 -1.6982
  549MOL0     H74093   6.141   6.500   1.349  0.0639  1.3331  0.4684
  549MOL0     H74094   6.296   6.436   1.381 -0.6766  1.4428  0.4269
  549MOL0     H74095   6.076   6.468   1.599 -0.1527  0.1634  1.8936
  549MOL0     H74096   6.204   6.586   1.569  0.4405  0.8324 -1.2234
  549MOL0     H74097   6.563   5.775   1.452  1.5326 -0.1548  0.9644
  549MOL0     H74098   6.605   5.534   1.474 -0.6184  3.2433  1.9120
  549MOL0     H74099   6.651   5.158   1.399  0.6363 -2.4585 -1.2528
  549MOL0     H74100   6.757   4.989   1.546  0.8294  0.6208  0.7135
  549MOL0     H74101   7.419   4.580   2.298  1.0611 -1.0545  0.7699
  549MOL0     H74102   7.340   4.393   2.139  0.7657  1.3018 -0.2551
  549MOL0     H74103   7.308   3.724   2.262 -1.7942 -2.3001 -0.6723
  549MOL0     H74104   7.345   3.553   2.095 -1.2362 -0.1346  0.4853
  549MOL0     H74105   7.314   3.607   1.658 -0.5972 -0.6294  1.3713
  549MOL0     H74106   7.471   3.697   1.660  3.0000 -2.1285 -2.3196
  549MOL0     H74107   7.587   3.497   1.632 -0.0042  1.5952 -1.6743
  549MOL0     H74108   7.471   3.521   1.512  0.5275  2.4911 -0.1210
  549MOL0     H74109   7.472   3.277   1.575  0.0167 -1.9432  2.3634
  549MOL0     H74110   7.316   3.362   1.587  0.8382  1.8944 -0.8331
  549MOL0     H74111   7.391   3.186   1.776  3.0318 -0.3393 -1.4079
  549MOL0     H74112   7.328   3.351   1.832  0.3026  2.2695 -3.3445
  549MOL0     H74113   7.746   3.369   1.910  0.9919 -2.6899 -0.1927
  549MOL0     H74114   7.411   3.856   1.792  0.3944  0.2525  0.9616
  549MOL0     H74115   7.371   4.023   1.954  1.5328  0.4601  1.2669
  550MOL0     O74116   1.695   0.408   9.912 -0.3609  0.3859  0.1722
  550MOL0     C74117   1.673   0.485   9.814 -0.2340 -0.1683  0.4187
  550MOL0     O74118   1.769   0.541   9.730 -0.3516 -0.2520 -0.8415
  550MOL0     C74119   1.901   0.538   9.767  0.4959 -0.1852 -0.4392
  550MOL0     C74120   1.931   0.594   9.887 -0.3853 -0.1721 -0.0956
  550MOL0     C74121   2.059   0.609   9.928  0.1956  0.1156  0.0243
  550MOL0     C74122   2.170   0.556   9.852 -0.5396 -0.2732 -0.4766
  550MOL0     O74123   2.302   0.565   9.886  0.3348  0.2515 -0.1438
  550MOL0     C74124   2.352   0.608  10.014 -0.1472  0.2180  0.4730
  550MOL0     C74125   2.500   0.601  10.031  0.5273 -0.0521  0.1275
  550MOL0     C74126   2.548   0.455  10.034  0.7153 -0.4314  0.0794
  550MOL0     C74127   2.693   0.442  10.073 -0.7407  0.4250  0.1904
  550MOL0     C74128   2.748   0.295  10.059 -0.6372 -0.1685  0.4790
  550MOL0     C74129   2.897   0.287  10.029  0.0775 -0.1504  0.2747
  550MOL0     C74130   2.923   0.287   9.878 -0.3565  0.4856  0.1621
  550MOL0     C74131   3.072   0.242   9.846 -0.1847  0.2605  0.1864
  550MOL0     N74132   3.180   0.257   9.952 -0.4778  0.0937  0.7669
  550MOL0     C74133   3.207   0.177  10.061  1.1062 -0.2867 -0.3299
  550MOL0     C74134   3.313   0.239  10.113  0.6087  1.0376  0.3436
  550MOL0     C74135   3.403   0.182  10.213 -0.9731 -0.0988 -0.9701
  550MOL0     C74136   3.429   0.295  10.327  0.7823  0.3571 -0.3305
  550MOL0     C74137   3.498   0.247  10.454  0.0524  0.2815  0.6314
  550MOL0     C74138   3.415   0.141  10.530 -0.7984 -1.2265 -0.7334
  550MOL0     O74139   3.280   0.188  10.557  0.4469  0.3472  0.4404
  550MOL0     C74140   3.199   0.081  10.571 -0.4280 -0.2260 -0.7111
  550MOL0     C74141   3.130   0.036  10.457  0.1498 -0.5473  1.3388
  550MOL0     C74142   3.036  -0.070  10.463  0.4506  0.4629 -0.0197
  550MOL0     C74143   2.974  -0.101  10.328  0.8474 -0.3236  0.1381
  550MOL0     C74144   3.013  -0.137  10.589  0.5199 -0.0179  0.0910
  550MOL0     C74145   2.898  -0.230  10.602 -0.4529  0.8140 -0.0131
  550MOL0     O74146   2.942  -0.355  10.650 -0.0879 -0.2502  0.1900
  550MOL0     C74147   2.845  -0.430  10.712 -0.6382  1.0586  0.8575
  550MOL0     C74148   2.802  -0.547  10.656 -0.4731 -0.0516  0.2294
  550MOL0     C74149   2.706  -0.622  10.718  0.7806  0.2249 -0.2037
  550MOL0     C74150   2.636  -0.566  10.829 -0.3706  0.0701 -0.2154
  550MOL0     O74151   2.531  -0.601  10.909  0.1140  0.4322 -0.5795
  550MOL0     C74152   2.508  -0.738  10.945 -0.3339  0.5282 -0.0068
  550MOL0     C74153   2.375  -0.737  11.021 -0.5910 -0.1913  0.7586
  550MOL0     C74154   2.261  -0.702  10.921 -0.2086 -0.8974 -0.6529
  550MOL0     C74155   2.134  -0.751  10.997 -0.7627 -0.9108 -0.2553
  550MOL0     C74156   2.013  -0.687  10.926 -0.5067  0.5142 -0.3830
  550MOL0     C74157   1.895  -0.769  10.982 -0.2549 -0.8320  0.1867
  550MOL0     C74158   1.764  -0.718  10.944  0.9717 -1.0734 -0.1650
  550MOL0     C74159   1.681  -0.800  10.858  0.9330 -0.2747  0.0539
  550MOL0    Cl74160   1.768  -0.823  10.708  0.2044  0.1928  0.4264
  550MOL0     C74161   2.696  -0.456  10.885 -0.1092 -0.5169  1.0567
  550MOL0     C74162   2.809  -0.392  10.835  0.5552  0.2362  0.7991
  550MOL0     O74163   2.782  -0.205  10.563  0.0043  0.2858 -0.4119
  550MOL0     C74164   3.075  -0.090  10.703 -0.0768 -0.4046 -0.1326
  550MOL0     C74165   3.177   0.007  10.688  0.4077 -0.3396 -0.4751
  550MOL0     N74166   3.323   0.363  10.059 -0.1253 -0.3952 -0.8184
  550MOL0     N74167   3.240   0.379   9.964  0.1123  0.0236 -0.2071
  550MOL0     C74168   2.132   0.482   9.735 -0.7391 -0.6626  0.1156
  550MOL0     C74169   1.997   0.477   9.693  0.1828  0.7642 -0.5125
  550MOL0     C74170   1.538   0.490   9.765 -0.2996  0.5562 -1.1107
  550MOL0     C74171   1.436   0.433   9.837  0.6348  0.0847  0.0833
  550MOL0     C74172   1.303   0.437   9.787 -0.0592  0.8690 -0.2958
  550MOL0     C74173   1.277   0.480   9.652 -0.1044  0.0463 -0.2529
  550MOL0     O74174   1.148   0.470   9.600 -0.2043 -0.6569 -0.1192
  550MOL0     C74175   1.072   0.353   9.619  0.4162 -0.6203  0.2430
  550MOL0     C74176   1.138   0.219   9.607 -0.9857 -0.2730 -0.3369
  550MOL0     C74177   1.242   0.202   9.485  0.6386 -0.1428 -0.6308
  550MOL0     C74178   1.176   0.201   9.346 -1.1931  0.1570  0.4482
  550MOL0     C74179   1.075   0.096   9.349 -0.8872 -0.8577 -0.1675
  550MOL0     C74180   0.993   0.007   9.357  1.2702  0.3617  0.0914
  550MOL0     C74181   1.379   0.536   9.580  0.5917 -0.5455  0.7386
  550MOL0     C74182   1.506   0.555   9.646  0.0648  0.0855 -0.2449
  550MOL0     H74183   1.862   0.639   9.957  1.8319  1.2587  1.2909
  550MOL0     H74184   2.093   0.651  10.023  1.2896 -3.7069  1.4919
  550MOL0     H74185   2.331   0.715  10.021  1.8193  0.6344  0.6778
  550MOL0     H74186   2.296   0.556  10.093  0.5327 -3.4546 -1.2709
  550MOL0     H74187   2.555   0.648   9.950  1.4763  1.2175  1.4592
  550MOL0     H74188   2.528   0.651  10.124  1.8511  0.5478 -0.5691
  550MOL0     H74189   2.491   0.410  10.115  0.1699  1.5786  0.8850
  550MOL0     H74190   2.526   0.410   9.937  1.5844  0.7143 -0.6826
  550MOL0     H74191   2.751   0.506  10.007  0.6535  1.0466  1.9421
  550MOL0     H74192   2.718   0.487  10.170  2.7265 -1.8704  0.5369
  550MOL0     H74193   2.714   0.239  10.147 -0.6459 -0.0791  0.5321
  550MOL0     H74194   2.690   0.257   9.974  0.5874  1.8657 -1.3941
  550MOL0     H74195   2.953   0.361  10.087  0.5712 -0.0883 -0.2720
  550MOL0     H74196   2.929   0.190  10.068 -1.3337  0.1417  2.3282
  550MOL0     H74197   2.858   0.217   9.825  0.8996 -0.5543 -0.0554
  550MOL0     H74198   2.907   0.386   9.833 -0.6391 -0.6816 -2.4832
  550MOL0     H74199   3.108   0.292   9.756  1.0337  0.4714  0.7693
  550MOL0     H74200   3.070   0.134   9.828 -2.5080  0.5070 -1.5513
  550MOL0     H74201   3.181   0.072  10.066 -0.6252 -0.1154 -3.4792
  550MOL0     H74202   3.373   0.091  10.264  2.4691  0.6513  2.9315
  550MOL0     H74203   3.500   0.161  10.166 -2.4892 -1.9679 -3.4878
  550MOL0     H74204   3.331   0.320  10.369  0.1169 -1.4206 -0.7208
  550MOL0     H74205   3.481   0.383  10.288  1.7428 -1.2479 -2.9047
  550MOL0     H74206   3.515   0.333  10.519 -0.8134  0.4580  0.6310
  550MOL0     H74207   3.592   0.200  10.423  1.0721  0.9550  2.5932
  550MOL0     H74208   3.459   0.115  10.626 -2.0849  0.5650  0.4116
  550MOL0     H74209   3.408   0.045  10.477 -2.3168 -1.3895 -0.2837
  550MOL0     H74210   3.152   0.100  10.373 -2.3006 -1.2242  0.0794
  550MOL0     H74211   3.031  -0.040  10.256 -0.6786  2.0408  0.8362
  550MOL0     H74212   2.969  -0.204  10.291  3.6461  0.5155 -3.2007
  550MOL0     H74213   2.873  -0.059  10.336  1.5617  1.4056  0.5946
  550MOL0     H74214   2.812  -0.589  10.556  2.8755  1.0577 -0.0313
  550MOL0     H74215   2.676  -0.718  10.679  0.5765  2.1189 -5.5550
  550MOL0     H74216   2.507  -0.810  10.863  0.1870 -2.4148  2.3754
  550MOL0     H74217   2.588  -0.786  11.003  1.7396 -0.1083 -3.1256
  550MOL0     H74218   2.358  -0.839  11.057 -1.4979 -0.4046 -0.2379
  550MOL0     H74219   2.392  -0.661  11.098  1.4904  0.3941 -0.1843
  550MOL0     H74220   2.266  -0.759  10.828 -1.6033 -1.1985 -0.5705
  550MOL0     H74221   2.258  -0.593  10.915 -0.7268 -0.9320 -1.0497
  550MOL0     H74222   2.126  -0.859  10.985  0.4952 -0.8008 -2.7800
  550MOL0     H74223   2.137  -0.725  11.103  1.0470  1.8359 -0.8774
  550MOL0     H74224   2.020  -0.704  10.818  0.6495  1.2716 -0.4531
  550MOL0     H74225   2.006  -0.579  10.946 -2.3194  0.4319 -0.4263
  550MOL0     H74226   1.914  -0.873  10.955  0.7681 -1.1659  2.0185
  550MOL0     H74227   1.902  -0.778  11.091 -1.6274 -4.4863  0.0943
  550MOL0     H74228   1.765  -0.619  10.898 -0.3705 -0.9310  0.0528
  550MOL0     H74229   1.711  -0.714  11.040  1.2192 -3.2876  0.1132
  550MOL0     H74230   1.587  -0.750  10.832 -0.0062 -2.4186 -0.9357
  550MOL0     H74231   1.641  -0.881  10.920 -2.0942  1.8310  1.0848
  550MOL0     H74232   2.668  -0.402  10.975  2.7892 -0.7316  2.1926
  550MOL0     H74233   2.844  -0.301  10.882 -0.2138  0.7948  0.3074
  550MOL0     H74234   3.050  -0.139  10.796 -2.9115 -1.7506 -1.4820
  550MOL0     H74235   3.226   0.039  10.779  1.7309  1.9969 -1.9070
  550MOL0     H74236   2.216   0.448   9.674 -0.4755 -1.8701  1.1278
  550MOL0     H74237   1.979   0.440   9.593  1.3216  1.5511 -1.0373
  550MOL0     H74238   1.447   0.398   9.938 -2.6532 -0.4114  0.3611
  550MOL0     H74239   1.222   0.386   9.837  1.4716 -0.7269  0.6723
  550MOL0     H74240   1.030   0.351   9.720 -0.0268  0.8776  0.1170
  550MOL0     H74241   0.983   0.352   9.555 -0.4227 -0.7566  1.3799
  550MOL0     H74242   1.065   0.138   9.610 -1.9141  0.4864 -1.7781
  550MOL0     H74243   1.194   0.203   9.700  1.8595  1.0795 -1.6748
  550MOL0     H74244   1.298   0.109   9.501  2.5831  0.6802 -2.2981
  550MOL0     H74245   1.315   0.284   9.486  0.5353 -0.0119 -2.2255
  550MOL0     H74246   1.252   0.178   9.271 -1.5508  0.2220  0.0597
  550MOL0     H74247   1.150   0.298   9.301  1.6299 -0.3411 -2.6202
  550MOL0     H74248   0.914  -0.064   9.371  0.3632  1.4087  0.3703
  550MOL0     H74249   1.367   0.559   9.474  0.0007 -2.2203  0.4137
  550MOL0     H74250   1.581   0.600   9.582  0.5533 -2.2134 -1.3729
  551MOL0     O74251   5.909   7.233   5.657  0.4578 -0.0771  0.4782
  551MOL0     C74252   5.801   7.282   5.633 -0.1289 -1.5801 -0.3841
  551MOL0     O74253   5.737   7.379   5.707 -0.3428  0.1904  0.5331
  551MOL0     C74254   5.802   7.407   5.824 -0.9075  0.1454  0.5451
  551MOL0     C74255   5.864   7.310   5.911  0.5479 -0.3490 -0.3418
  551MOL0     C74256   5.920   7.358   6.037 -0.1394  0.7811  0.4836
  551MOL0     C74257   5.894   7.486   6.082 -0.4700  0.0756  0.0416
  551MOL0     O74258   5.940   7.518   6.199 -0.4703 -0.5894 -0.0388
  551MOL0     C74259   6.037   7.627   6.196  0.5694  0.0971 -1.1211
  551MOL0     C74260   6.110   7.649   6.333 -0.5599  0.8297  0.1202
  551MOL0     C74261   6.173   7.788   6.333  0.6222 -0.1426 -0.7150
  551MOL0     C74262   6.232   7.809   6.462  0.2766 -0.0117  0.2706
  551MOL0     C74263   6.279   7.950   6.476 -0.8608 -0.6809 -0.7825
  551MOL0     C74264   6.327   8.003   6.610 -0.3002  0.1113 -1.1863
  551MOL0     C74265   6.436   7.922   6.689  0.5837  0.2038  0.4958
  551MOL0     C74266   6.504   7.999   6.816  0.4492  0.0151  0.5085
  551MOL0     N74267   6.612   7.931   6.887  0.1172 -0.0678  0.1066
  551MOL0     C74268   6.608   7.849   6.994  0.4538 -0.6011 -0.7729
  551MOL0     C74269   6.736   7.817   7.028 -0.7176 -0.3761 -0.1694
  551MOL0     C74270   6.795   7.720   7.119 -0.3633 -0.0419 -0.3863
  551MOL0     C74271   6.752   7.586   7.068  0.4543  0.3082 -0.8009
  551MOL0     C74272   6.807   7.559   6.931  0.0449 -0.1572  0.3526
  551MOL0     C74273   6.794   7.413   6.892 -1.0307 -1.1017 -0.3753
  551MOL0     O74274   6.655   7.392   6.901 -0.1097 -0.6127  0.3812
  551MOL0     C74275   6.633   7.267   6.949 -0.6822  0.1709  0.2738
  551MOL0     C74276   6.585   7.170   6.861 -0.6263  0.1029 -0.1969
  551MOL0     C74277   6.545   7.045   6.909  0.0279 -0.3681 -0.0194
  551MOL0     C74278   6.458   6.963   6.814  0.1100  0.3868 -0.4103
  551MOL0     C74279   6.564   7.018   7.048 -0.1502  1.4204  0.3564
  551MOL0     C74280   6.522   6.889   7.104 -0.5618 -0.3937 -0.3196
  551MOL0     O74281   6.498   6.890   7.240 -0.7554 -1.1615 -0.9115
  551MOL0     C74282   6.489   6.762   7.301  0.3856  0.6672 -0.7636
  551MOL0     C74283   6.395   6.752   7.407  0.7815 -0.2396 -0.4988
  551MOL0     C74284   6.367   6.621   7.469 -0.6719 -1.1799  0.3867
  551MOL0     C74285   6.460   6.514   7.443 -0.1062 -0.7433  0.1307
  551MOL0     O74286   6.454   6.397   7.508  0.3984 -0.7821 -0.4544
  551MOL0     C74287   6.419   6.396   7.647 -0.0336  0.3297  0.3642
  551MOL0     C74288   6.525   6.481   7.724  1.0542  0.5000 -0.3599
  551MOL0     C74289   6.505   6.468   7.877  0.8136 -0.7361 -0.4137
  551MOL0     C74290   6.620   6.538   7.944  0.5378 -0.5232 -1.1031
  551MOL0     C74291   6.597   6.530   8.097  0.5190 -0.9834  0.4151
  551MOL0     C74292   6.724   6.604   8.158  0.6296 -0.1798  0.1206
  551MOL0     C74293   6.744   6.551   8.293  0.4336 -0.7198 -0.6062
  551MOL0     C74294   6.785   6.400   8.309 -0.4148 -0.2514 -0.0942
  551MOL0    Cl74295   6.909   6.362   8.201 -0.0498 -0.6620  0.1766
  551MOL0     C74296   6.560   6.542   7.356 -1.1920  0.3508  0.2392
  551MOL0     C74297   6.577   6.665   7.289 -0.2685  0.1706  1.2293
  551MOL0     O74298   6.502   6.791   7.035 -0.6130 -0.2521  0.4781
  551MOL0     C74299   6.610   7.114   7.137  0.4113 -0.4015  0.8078
  551MOL0     C74300   6.641   7.237   7.084  0.8785  0.2353  0.0849
  551MOL0     N74301   6.814   7.898   6.943 -0.3276  0.2836 -0.0350
  551MOL0     N74302   6.739   7.969   6.864 -0.8073  0.5605 -0.0896
  551MOL0     C74303   5.830   7.573   5.997 -0.3137  0.6424  0.3880
  551MOL0     C74304   5.782   7.536   5.875  0.1083 -0.8729  0.0516
  551MOL0     C74305   5.727   7.244   5.522  0.2957  0.3561 -0.4591
  551MOL0     C74306   5.738   7.119   5.470  0.3231 -0.0835  0.3556
  551MOL0     C74307   5.658   7.081   5.353 -0.2620 -0.1736 -0.0479
  551MOL0     C74308   5.568   7.168   5.295 -0.8965  0.1634  0.7231
  551MOL0     O74309   5.489   7.141   5.188  0.3381 -0.3273  0.7427
  551MOL0     C74310   5.518   7.029   5.115  0.1365 -0.1548  0.6304
  551MOL0     C74311   5.448   6.908   5.166 -0.4422  0.0569  0.0483
  551MOL0     C74312   5.470   6.785   5.087 -0.0244  0.8095  0.0067
  551MOL0     C74313   5.385   6.657   5.114  0.2416 -0.2073  0.0570
  551MOL0     C74314   5.255   6.656   5.053 -0.5742 -0.7860  0.3513
  551MOL0     C74315   5.152   6.635   4.994  0.2297  0.7889 -0.3286
  551MOL0     C74316   5.566   7.297   5.345  0.5895 -0.6210  0.2112
  551MOL0     C74317   5.631   7.325   5.467  0.0722  0.4896  1.2892
  551MOL0     H74318   5.875   7.207   5.880  3.4361 -0.1214 -0.3943
  551MOL0     H74319   5.978   7.280   6.086 -0.6874 -0.5913 -0.9662
  551MOL0     H74320   6.123   7.611   6.131  1.2106 -1.5351  0.0730
  551MOL0     H74321   5.975   7.716   6.178  2.5102  1.6503 -0.4720
  551MOL0     H74322   6.027   7.645   6.404 -3.0390 -2.2455 -2.6921
  551MOL0     H74323   6.183   7.569   6.350 -2.4275 -0.8418  0.6683
  551MOL0     H74324   6.242   7.818   6.253 -1.1967  2.8192 -1.3431
  551MOL0     H74325   6.089   7.854   6.311 -0.0104 -0.9650 -0.8097
  551MOL0     H74326   6.165   7.784   6.545 -0.2534  2.2397  0.5718
  551MOL0     H74327   6.319   7.744   6.479 -1.5351 -2.1042  2.4175
  551MOL0     H74328   6.354   7.964   6.397 -1.4066  0.2124 -1.1627
  551MOL0     H74329   6.201   8.020   6.445 -0.5388 -0.5262 -1.2580
  551MOL0     H74330   6.371   8.101   6.589 -0.0069  0.1966 -0.2285
  551MOL0     H74331   6.238   8.020   6.673 -0.0597 -2.8309  0.1013
  551MOL0     H74332   6.405   7.819   6.709  5.3340 -1.5396  0.1515
  551MOL0     H74333   6.509   7.908   6.609 -0.8860 -0.0873 -0.8329
  551MOL0     H74334   6.424   8.020   6.886 -1.4795  0.3127 -1.6659
  551MOL0     H74335   6.546   8.090   6.771 -1.7077 -1.5262 -5.5562
  551MOL0     H74336   6.525   7.802   7.045 -0.5122  3.2257  1.6285
  551MOL0     H74337   6.902   7.742   7.117 -0.6267  1.9318  2.0355
  551MOL0     H74338   6.756   7.731   7.221  1.7495 -1.3119  0.6315
  551MOL0     H74339   6.643   7.577   7.076  0.5432  0.3535  0.8445
  551MOL0     H74340   6.787   7.504   7.132  0.9958 -0.5996 -2.2214
  551MOL0     H74341   6.912   7.585   6.914 -0.9810  2.5689 -3.0374
  551MOL0     H74342   6.746   7.614   6.859  0.4225 -0.5198 -0.2652
  551MOL0     H74343   6.849   7.359   6.970  1.4253  1.5310 -0.1178
  551MOL0     H74344   6.836   7.391   6.793  0.3818 -0.1297 -0.0152
  551MOL0     H74345   6.576   7.204   6.758 -3.2571  0.3146  0.0455
  551MOL0     H74346   6.366   6.933   6.865 -0.6608  1.4443 -1.1388
  551MOL0     H74347   6.424   7.029   6.734 -0.0128  1.7303  0.7031
  551MOL0     H74348   6.496   6.874   6.763  0.5090  0.1007  0.3622
  551MOL0     H74349   6.316   6.825   7.417 -2.4982 -3.3824 -1.4429
  551MOL0     H74350   6.286   6.608   7.540 -0.0664  0.1145  1.3633
  551MOL0     H74351   6.311   6.409   7.659 -0.3774 -2.0698  0.4186
  551MOL0     H74352   6.437   6.296   7.689  0.5750 -0.5054 -1.7328
  551MOL0     H74353   6.622   6.442   7.691  1.3452 -0.9873  1.9730
  551MOL0     H74354   6.510   6.587   7.702  2.8986  0.8272 -0.2130
  551MOL0     H74355   6.505   6.363   7.906  3.1300 -0.6521  0.0745
  551MOL0     H74356   6.408   6.509   7.907 -0.3407 -1.6523 -2.6247
  551MOL0     H74357   6.715   6.490   7.918  0.0636 -2.3317  0.3056
  551MOL0     H74358   6.618   6.642   7.909 -1.2051  0.3447  1.3343
  551MOL0     H74359   6.584   6.426   8.129 -1.6974 -1.0555 -0.5656
  551MOL0     H74360   6.507   6.577   8.139  2.1750  0.6658  2.3296
  551MOL0     H74361   6.815   6.588   8.100  1.5470 -1.6685  1.8460
  551MOL0     H74362   6.701   6.710   8.162 -1.7380 -0.5669 -1.4385
  551MOL0     H74363   6.651   6.566   8.349 -2.4432 -1.4053 -4.7619
  551MOL0     H74364   6.819   6.610   8.347 -2.2199  0.7541  1.6890
  551MOL0     H74365   6.703   6.334   8.282  1.4983 -1.5338 -3.3352
  551MOL0     H74366   6.807   6.381   8.415  2.2335  0.1851 -0.4855
  551MOL0     H74367   6.628   6.464   7.324  1.1406  1.6125  1.8021
  551MOL0     H74368   6.656   6.669   7.215 -0.7201  2.7030  0.8158
  551MOL0     H74369   6.612   7.086   7.241 -0.6666  1.6810  1.4387
  551MOL0     H74370   6.667   7.322   7.146  5.5651  0.6520 -2.0041
  551MOL0     H74371   5.806   7.670   6.040 -5.1995 -0.4084  0.6753
  551MOL0     H74372   5.720   7.600   5.814 -0.6987 -1.4200  0.2808
  551MOL0     H74373   5.804   7.049   5.522 -2.6501 -1.7757  2.1242
  551MOL0     H74374   5.670   6.984   5.305 -2.3590 -1.0314  1.0080
  551MOL0     H74375   5.493   7.040   5.009 -0.6980 -1.1895  0.7021
  551MOL0     H74376   5.625   7.010   5.105 -0.1714 -0.8300 -2.2666
  551MOL0     H74377   5.343   6.937   5.155  0.6867  3.8241 -2.4102
  551MOL0     H74378   5.477   6.891   5.270  1.5271 -2.4271 -0.7967
  551MOL0     H74379   5.574   6.758   5.105  0.2734 -0.8464 -3.3708
  551MOL0     H74380   5.474   6.809   4.981  4.6510  2.5010  0.3440
  551MOL0     H74381   5.378   6.654   5.223  1.9428  1.2768  0.2572
  551MOL0     H74382   5.448   6.574   5.082 -1.2686 -2.5511  2.7212
  551MOL0     H74383   5.064   6.606   4.941  1.2416 -0.3174 -1.4924
  551MOL0     H74384   5.500   7.367   5.296  0.0443 -1.1556  0.1653
  551MOL0     H74385   5.616   7.429   5.495 -2.0527  1.0010 -1.3002
  552MOL0     O74386   0.075   2.793   3.168  0.6953 -0.5075  0.1282
  552MOL0     C74387   0.000   2.706   3.216 -0.7305  0.4724 -0.2986
  552MOL0     O74388   0.031   2.600   3.300 -0.4257 -0.5824 -0.7497
  552MOL0     C74389   0.169   2.597   3.327  0.0805  0.1068  0.1720
  552MOL0     C74390   0.252   2.691   3.386  0.0056  0.0392 -0.2458
  552MOL0     C74391   0.383   2.670   3.413 -0.1919 -0.4002  0.6703
  552MOL0     C74392   0.451   2.557   3.377  0.6148 -0.2416  0.0238
  552MOL0     O74393   0.577   2.543   3.422 -0.3468  0.0783  0.0869
  552MOL0     C74394   0.689   2.506   3.343  1.2184 -0.2216  0.2551
  552MOL0     C74395   0.779   2.399   3.396 -0.0274  0.0602 -0.7781
  552MOL0     C74396   0.854   2.467   3.511  0.2658  0.3951 -0.7509
  552MOL0     C74397   0.972   2.389   3.559 -1.0254  0.1619 -0.3575
  552MOL0     C74398   1.037   2.459   3.679  0.0598 -0.4969  0.9536
  552MOL0     C74399   0.978   2.426   3.819  0.0539  0.1364 -0.4498
  552MOL0     C74400   0.985   2.547   3.910  0.5058  0.5902 -0.9755
  552MOL0     C74401   0.905   2.528   4.035 -0.1501  0.3621  0.5757
  552MOL0     N74402   0.927   2.399   4.092 -0.7874 -0.4636 -0.4102
  552MOL0     C74403   1.049   2.347   4.135 -0.0849  0.5119  0.3950
  552MOL0     C74404   1.031   2.209   4.134  0.0756 -0.2779  0.9415
  552MOL0     C74405   1.146   2.115   4.145  0.0191  0.0565  0.3483
  552MOL0     C74406   1.231   2.112   4.278  0.2680 -0.7571  0.1923
  552MOL0     C74407   1.294   1.976   4.312  0.3336 -0.3424 -0.1154
  552MOL0     C74408   1.404   1.989   4.420  0.2171 -0.8507  0.0412
  552MOL0     O74409   1.343   2.002   4.549  0.7041  0.6079 -0.2828
  552MOL0     C74410   1.420   2.024   4.657 -1.4865  0.2951  0.3922
  552MOL0     C74411   1.361   2.060   4.771 -0.5369  0.0371 -0.2378
  552MOL0     C74412   1.419   2.093   4.889 -0.3338 -0.8618 -0.0485
  552MOL0     C74413   1.334   2.140   5.007 -0.2009 -0.3259  0.2506
  552MOL0     C74414   1.561   2.077   4.897  0.3752  0.0485  1.3728
  552MOL0     C74415   1.639   2.096   5.014  0.7528 -0.1907 -0.8210
  552MOL0     O74416   1.764   2.147   4.995  0.2120 -0.3516  0.1872
  552MOL0     C74417   1.834   2.223   5.095 -0.6003  0.3995 -0.0797
  552MOL0     C74418   1.874   2.170   5.218 -0.7953  0.2081 -0.5200
  552MOL0     C74419   1.949   2.248   5.310 -0.2410 -0.8019 -0.9771
  552MOL0     C74420   1.973   2.382   5.281  0.2616 -1.7233 -0.4870
  552MOL0     O74421   2.040   2.457   5.380 -0.6613  0.4718 -0.1155
  552MOL0     C74422   1.964   2.462   5.511  0.3034  0.5570 -0.0722
  552MOL0     C74423   1.887   2.595   5.539 -0.2529 -0.0014  0.7010
  552MOL0     C74424   1.973   2.707   5.596 -1.0994 -0.1197  0.2258
  552MOL0     C74425   1.891   2.814   5.677 -0.2194 -0.9145 -1.0759
  552MOL0     C74426   1.967   2.944   5.708  0.2919 -0.2999 -0.0844
  552MOL0     C74427   2.079   2.922   5.802 -0.7253  0.3899 -0.0108
  552MOL0     C74428   2.151   3.053   5.828 -0.9614 -0.9752 -0.6768
  552MOL0     C74429   2.241   3.058   5.956  0.1356 -0.3093  0.3252
  552MOL0    Cl74430   2.348   2.907   5.981  0.1646 -0.3733  0.2178
  552MOL0     C74431   1.946   2.434   5.154  0.0393 -0.1277  0.1529
  552MOL0     C74432   1.880   2.350   5.060  0.1580  0.2199  0.7176
  552MOL0     O74433   1.597   2.046   5.117  0.9382 -0.2726  0.1301
  552MOL0     C74434   1.636   2.033   4.782 -0.0670  0.0068  0.0366
  552MOL0     C74435   1.566   2.002   4.667  0.2467  0.2924 -0.6939
  552MOL0     N74436   0.902   2.186   4.114 -0.5313  0.2248 -0.5916
  552MOL0     N74437   0.834   2.292   4.101 -0.3258  0.7522  0.2898
  552MOL0     C74438   0.364   2.445   3.334 -0.4404 -0.1351  0.1276
  552MOL0     C74439   0.225   2.467   3.310  0.7483 -0.5664 -0.5165
  552MOL0     C74440  -0.142   2.710   3.169  0.5353  0.6088 -0.3220
  552MOL0     C74441  -0.204   2.826   3.125 -0.2080 -0.4857  0.2703
  552MOL0     C74442  -0.347   2.839   3.099 -0.6249  0.5811 -0.7859
  552MOL0     C74443  -0.431   2.723   3.118  0.9019 -0.1321 -0.4785
  552MOL0     O74444  -0.570   2.725   3.084  0.3112 -1.3164  0.7246
  552MOL0     C74445  -0.658   2.619   3.136 -0.6045 -0.1394  0.8977
  552MOL0     C74446  -0.795   2.685   3.155  0.8453 -0.7132  0.3940
  552MOL0     C74447  -0.808   2.814   3.225 -0.6644  0.0795  0.2817
  552MOL0     C74448  -0.733   2.816   3.367  0.3126 -0.1604  0.1816
  552MOL0     C74449  -0.779   2.703   3.454 -0.0892  0.9529 -0.0831
  552MOL0     C74450  -0.829   2.626   3.538  0.0493  0.2125  0.1361
  552MOL0     C74451  -0.358   2.605   3.146 -0.2458  0.1178 -0.0184
  552MOL0     C74452  -0.224   2.596   3.181  0.5292 -0.4597 -1.0451
  552MOL0     H74453   0.222   2.793   3.410 -0.1743 -0.3133  1.1432
  552MOL0     H74454   0.440   2.747   3.463  0.7437 -0.6662  0.0337
  552MOL0     H74455   0.647   2.460   3.253  0.3632 -0.6007  0.8397
  552MOL0     H74456   0.742   2.597   3.310  1.6465 -0.3725  0.5278
  552MOL0     H74457   0.726   2.312   3.434 -0.4213 -0.3053 -2.0936
  552MOL0     H74458   0.856   2.367   3.326  0.0234 -0.5591 -0.4456
  552MOL0     H74459   0.902   2.560   3.478  1.8566 -0.7147 -1.6793
  552MOL0     H74460   0.793   2.482   3.600  1.3775 -0.8542  0.2558
  552MOL0     H74461   0.965   2.287   3.597  3.0891  0.1049  0.8033
  552MOL0     H74462   1.035   2.383   3.469 -1.2703  1.0649 -0.6034
  552MOL0     H74463   1.146   2.458   3.682  0.1034  0.4059  0.0557
  552MOL0     H74464   1.027   2.567   3.668  0.9191 -0.5843 -1.2783
  552MOL0     H74465   0.880   2.377   3.814  1.1621 -2.1771 -0.6465
  552MOL0     H74466   1.052   2.355   3.856 -0.1683  0.4610  0.6380
  552MOL0     H74467   1.086   2.561   3.949  0.0918 -1.2382  0.9473
  552MOL0     H74468   0.956   2.644   3.867  1.1001  1.5347  0.6862
  552MOL0     H74469   0.802   2.546   4.003 -0.1048  0.4807  0.4968
  552MOL0     H74470   0.922   2.609   4.106  1.6689  0.7487 -0.2570
  552MOL0     H74471   1.148   2.391   4.143 -1.0566  2.5739  1.7860
  552MOL0     H74472   1.113   2.011   4.140  4.5966 -1.5675 -0.8664
  552MOL0     H74473   1.216   2.125   4.062  2.1505 -0.6574  1.9766
  552MOL0     H74474   1.172   2.153   4.360 -2.9367 -1.3689 -1.6694
  552MOL0     H74475   1.306   2.191   4.263  0.2193 -0.1448  2.7969
  552MOL0     H74476   1.326   1.931   4.218  1.7362  0.7631 -0.1946
  552MOL0     H74477   1.222   1.907   4.357  2.3585 -1.2278  2.0383
  552MOL0     H74478   1.468   2.076   4.402  0.3215 -0.9866 -0.2491
  552MOL0     H74479   1.459   1.895   4.410  1.5328  0.0059 -1.2807
  552MOL0     H74480   1.254   2.077   4.781 -0.6810 -2.0454  4.0198
  552MOL0     H74481   1.253   2.205   4.974 -0.8452 -1.7787 -1.1482
  552MOL0     H74482   1.285   2.057   5.058 -4.3611  1.3354 -0.6710
  552MOL0     H74483   1.391   2.201   5.079  1.0549 -1.9342  0.6775
  552MOL0     H74484   1.832   2.070   5.231  2.2796 -1.7075 -3.5873
  552MOL0     H74485   1.977   2.224   5.413 -0.4664 -0.7851 -0.9125
  552MOL0     H74486   1.892   2.382   5.526  1.0887 -0.5592 -1.9835
  552MOL0     H74487   2.022   2.448   5.603 -3.8273  2.0721  3.0841
  552MOL0     H74488   1.852   2.638   5.445  0.7386  0.4330  0.5231
  552MOL0     H74489   1.801   2.570   5.602  0.5584  1.6297  2.5357
  552MOL0     H74490   2.043   2.742   5.520 -0.3137 -0.9713  0.5388
  552MOL0     H74491   2.043   2.660   5.666 -0.2056  0.1481 -0.4810
  552MOL0     H74492   1.805   2.844   5.615 -0.3927  3.1673  0.8679
  552MOL0     H74493   1.855   2.781   5.775 -1.0591 -4.5632 -2.4477
  552MOL0     H74494   1.896   3.011   5.758 -0.3553  0.4743 -1.9736
  552MOL0     H74495   2.006   2.990   5.617 -1.0356  1.9898  0.4348
  552MOL0     H74496   2.037   2.893   5.898 -0.1582  1.1349  0.4778
  552MOL0     H74497   2.136   2.839   5.760 -3.7686 -1.6878 -0.3044
  552MOL0     H74498   2.084   3.138   5.845  2.4520  1.8010  0.3986
  552MOL0     H74499   2.217   3.083   5.745 -1.1347  2.6880  0.3145
  552MOL0     H74500   2.179   3.063   6.046 -1.2123 -0.1922 -0.5821
  552MOL0     H74501   2.301   3.149   5.955  0.2431 -0.3311  1.9526
  552MOL0     H74502   1.976   2.537   5.139  2.8439 -1.0242 -1.0648
  552MOL0     H74503   1.856   2.377   4.958 -2.6506 -2.7379  0.4161
  552MOL0     H74504   1.741   2.008   4.785  0.2226  1.2360  0.8545
  552MOL0     H74505   1.616   1.942   4.591 -1.7519 -1.6604 -0.5882
  552MOL0     H74506   0.417   2.351   3.324  0.9504  0.6298  0.1542
  552MOL0     H74507   0.167   2.388   3.264 -0.2952  1.0357 -2.1294
  552MOL0     H74508  -0.134   2.910   3.128 -2.4011  1.4190  1.7705
  552MOL0     H74509  -0.395   2.932   3.070 -0.2602  0.2344 -2.6163
  552MOL0     H74510  -0.661   2.548   3.053  0.5873  3.6425 -2.7079
  552MOL0     H74511  -0.609   2.588   3.229  0.6072  0.3648  0.4454
  552MOL0     H74512  -0.865   2.610   3.191 -2.3178  0.8424 -2.0036
  552MOL0     H74513  -0.830   2.699   3.053  1.8176  2.2205  0.3618
  552MOL0     H74514  -0.911   2.832   3.259 -0.7579 -0.7368  0.4546
  552MOL0     H74515  -0.767   2.903   3.176 -0.0474  0.9450  2.2466
  552MOL0     H74516  -0.763   2.907   3.418 -3.7382 -0.7973 -0.6926
  552MOL0     H74517  -0.624   2.811   3.360  0.6264 -0.9586  3.6700
  552MOL0     H74518  -0.869   2.561   3.613 -0.5618  0.5004  0.0684
  552MOL0     H74519  -0.409   2.510   3.148  0.1000 -0.0750  1.7786
  552MOL0     H74520  -0.190   2.496   3.206  0.1461 -0.0867  1.2027
  553MOL0     O74521   1.414   2.340   4.014 -0.3114 -0.5117  0.3561
  553MOL0     C74522   1.512   2.389   3.957  0.4807  0.0885 -0.1600
  553MOL0     O74523   1.616   2.459   4.016  0.0826  0.3000  0.0549
  553MOL0     C74524   1.635   2.451   4.156 -0.3905 -0.4127  0.6027
  553MOL0     C74525   1.694   2.562   4.211 -0.7297 -0.7814 -0.1686
  553MOL0     C74526   1.731   2.560   4.347 -0.4515  0.3257  0.3998
  553MOL0     C74527   1.723   2.447   4.426 -0.5280 -0.2524  0.3846
  553MOL0     O74528   1.764   2.433   4.558  0.0165 -0.3413  0.6500
  553MOL0     C74529   1.771   2.547   4.646 -0.1044  0.3815 -0.4873
  553MOL0     C74530   1.923   2.577   4.651  1.6806  0.8370  0.7500
  553MOL0     C74531   1.949   2.713   4.715 -0.8298 -0.6864 -1.5342
  553MOL0     C74532   1.912   2.721   4.872  1.1823 -1.0553  0.0419
  553MOL0     C74533   1.919   2.867   4.920  0.3088  0.3438  0.5397
  553MOL0     C74534   1.888   2.872   5.071 -0.2705  0.5225  0.7843
  553MOL0     C74535   1.888   3.019   5.111 -0.1613  0.1881  0.1809
  553MOL0     C74536   1.884   3.031   5.271  0.4860 -0.5862 -0.1080
  553MOL0     N74537   2.011   3.023   5.342 -0.2886 -0.1757  0.1045
  553MOL0     C74538   2.095   2.913   5.360  0.9447  1.7371  0.9399
  553MOL0     C74539   2.211   2.959   5.413  1.2821 -0.8335  0.5772
  553MOL0     C74540   2.319   2.874   5.456 -0.1609 -1.1192  0.1686
  553MOL0     C74541   2.364   2.761   5.372 -0.7207 -0.3693 -0.8370
  553MOL0     C74542   2.447   2.785   5.247 -0.7679  0.0350 -0.0605
  553MOL0     C74543   2.366   2.797   5.120 -0.2982 -0.5922  0.6781
  553MOL0     O74544   2.294   2.666   5.113 -0.1340  0.0412  0.0753
  553MOL0     C74545   2.287   2.604   4.995 -0.0436 -0.2311  0.8358
  553MOL0     C74546   2.250   2.473   5.001 -0.0399 -0.2240 -0.4359
  553MOL0     C74547   2.230   2.385   4.891 -0.3515 -0.2587 -0.8997
  553MOL0     C74548   2.169   2.243   4.920 -0.2458 -0.4702  0.0763
  553MOL0     C74549   2.241   2.445   4.760  0.8417  0.2190  0.2289
  553MOL0     C74550   2.227   2.365   4.636 -0.0664  0.7528  0.2291
  553MOL0     O74551   2.208   2.434   4.518  0.0247  0.1055  1.4020
  553MOL0     C74552   2.195   2.363   4.399 -0.1883 -0.5204  0.1392
  553MOL0     C74553   2.281   2.256   4.361 -0.3577 -0.1513  0.2290
  553MOL0     C74554   2.261   2.188   4.234  0.0164 -0.3379 -0.4740
  553MOL0     C74555   2.152   2.221   4.156 -0.3776  0.5341  0.6201
  553MOL0     O74556   2.133   2.160   4.033 -0.2944 -0.1509 -0.1944
  553MOL0     C74557   2.238   2.069   3.977  0.1279 -0.5357 -0.3080
  553MOL0     C74558   2.338   2.168   3.912  0.4763 -0.0344  0.4364
  553MOL0     C74559   2.303   2.235   3.776  0.2744  0.6171 -0.2977
  553MOL0     C74560   2.396   2.346   3.746 -0.0346 -0.2334  0.4688
  553MOL0     C74561   2.348   2.441   3.627 -0.4584 -0.0157 -0.3459
  553MOL0     C74562   2.451   2.540   3.567  0.9456  0.1823 -0.3641
  553MOL0     C74563   2.476   2.671   3.661 -0.4990 -0.5814  0.3866
  553MOL0     C74564   2.620   2.674   3.675  0.9402  0.1882  0.3712
  553MOL0    Cl74565   2.675   2.833   3.707 -0.1602  0.1593  0.0180
  553MOL0     C74566   2.066   2.326   4.186  0.0900  0.8412  1.3398
  553MOL0     C74567   2.095   2.396   4.307  0.0215 -0.3127  0.4254
  553MOL0     O74568   2.239   2.237   4.639 -0.6018 -0.2079 -0.9421
  553MOL0     C74569   2.278   2.584   4.748  0.1366 -0.0014  0.3460
  553MOL0     C74570   2.291   2.669   4.866 -0.1475  0.3310  0.6427
  553MOL0     N74571   2.194   3.095   5.434  0.2687  0.4650  0.0176
  553MOL0     N74572   2.077   3.132   5.398 -0.2293  0.1931 -0.1629
  553MOL0     C74573   1.659   2.335   4.373 -0.1964 -0.2232 -1.3154
  553MOL0     C74574   1.606   2.343   4.243  1.1170  0.0606 -0.7833
  553MOL0     C74575   1.498   2.397   3.808  0.5228  0.1052 -0.2485
  553MOL0     C74576   1.592   2.468   3.737  0.1699  0.5621 -0.1827
  553MOL0     C74577   1.579   2.483   3.604 -0.3246  0.9789  0.3814
  553MOL0     C74578   1.477   2.417   3.525 -0.0504 -0.0848  0.4846
  553MOL0     O74579   1.461   2.432   3.386 -0.4845 -0.0805 -1.2127
  553MOL0     C74580   1.447   2.571   3.351  0.4692  0.5291 -0.7476
  553MOL0     C74581   1.406   2.586   3.206  0.3225 -0.4594 -0.2917
  553MOL0     C74582   1.277   2.512   3.173  0.0572 -0.0346  0.1519
  553MOL0     C74583   1.248   2.523   3.025  0.8863  0.3023  0.2651
  553MOL0     C74584   1.335   2.427   2.947 -0.1726 -0.1250 -0.3724
  553MOL0     C74585   1.416   2.344   2.903  0.4549 -0.5401  0.7332
  553MOL0     C74586   1.380   2.344   3.594 -0.5383 -0.4073  0.3499
  553MOL0     C74587   1.384   2.334   3.736 -0.5913 -0.0558  0.0898
  553MOL0     H74588   1.706   2.650   4.149 -1.1026 -0.9318 -0.4560
  553MOL0     H74589   1.767   2.657   4.381  0.7990  0.1142 -0.2644
  553MOL0     H74590   1.722   2.638   4.611  0.8517  1.0763 -0.0518
  553MOL0     H74591   1.738   2.516   4.746  2.5540 -1.2204  0.0023
  553MOL0     H74592   1.984   2.509   4.711 -0.7159 -1.9096  0.2982
  553MOL0     H74593   1.963   2.573   4.549  0.8203 -0.1387  0.4377
  553MOL0     H74594   2.053   2.744   4.700 -0.7302 -0.8923 -1.2823
  553MOL0     H74595   1.899   2.798   4.668  0.5467  1.3990  0.5508
  553MOL0     H74596   1.806   2.697   4.884  1.0886 -1.7497 -1.8778
  553MOL0     H74597   1.959   2.637   4.923 -1.9625 -3.3543 -0.5889
  553MOL0     H74598   2.010   2.907   4.875 -0.7601 -0.7969 -2.9585
  553MOL0     H74599   1.848   2.925   4.861  0.9160 -0.1574 -0.7399
  553MOL0     H74600   1.794   2.821   5.095 -0.0395 -0.1601  0.2889
  553MOL0     H74601   1.978   2.826   5.114  1.4485  1.3177 -1.7253
  553MOL0     H74602   1.971   3.078   5.070  0.6723 -1.5001 -0.6513
  553MOL0     H74603   1.806   3.075   5.065  2.4120  1.4064 -3.3612
  553MOL0     H74604   1.815   2.957   5.312  0.7788 -1.4353 -1.0856
  553MOL0     H74605   1.851   3.133   5.294  1.7538 -0.6886  2.4562
  553MOL0     H74606   2.090   2.816   5.311 -0.0652  1.5990  1.2849
  553MOL0     H74607   2.408   2.936   5.471 -0.4368 -0.4359 -0.8785
  553MOL0     H74608   2.300   2.824   5.551 -0.4192 -1.1164  0.1182
  553MOL0     H74609   2.272   2.705   5.356 -0.3302 -2.0231  1.9640
  553MOL0     H74610   2.432   2.696   5.429  2.3095  2.4236 -1.0104
  553MOL0     H74611   2.509   2.698   5.223  0.1174  1.0913 -1.7739
  553MOL0     H74612   2.498   2.881   5.258 -2.0911  0.4855  3.1199
  553MOL0     H74613   2.429   2.824   5.035 -0.4276  0.7699  0.9817
  553MOL0     H74614   2.290   2.876   5.124  0.5550  0.5054 -2.1545
  553MOL0     H74615   2.249   2.428   5.100 -3.8620  1.0135  0.2579
  553MOL0     H74616   2.151   2.226   5.027 -0.3797 -2.4912 -0.2289
  553MOL0     H74617   2.071   2.240   4.872 -0.2685 -1.0268  0.1599
  553MOL0     H74618   2.234   2.161   4.890  1.7740 -0.1082  2.9903
  553MOL0     H74619   2.374   2.244   4.417  1.7979  4.5052 -1.7906
  553MOL0     H74620   2.335   2.115   4.205  0.4505  0.2934 -0.9690
  553MOL0     H74621   2.264   1.988   4.045 -1.6955 -1.2503 -0.4101
  553MOL0     H74622   2.196   2.012   3.894 -0.2552 -2.7204  1.2890
  553MOL0     H74623   2.352   2.255   3.977  0.9962  0.6456 -0.5632
  553MOL0     H74624   2.437   2.125   3.895  1.7966  4.0860 -5.0045
  553MOL0     H74625   2.197   2.262   3.782 -0.7587 -3.1387  0.8926
  553MOL0     H74626   2.312   2.158   3.700  0.5461 -3.0124  3.0573
  553MOL0     H74627   2.424   2.411   3.829 -0.1768  3.0503 -1.8472
  553MOL0     H74628   2.486   2.300   3.704 -2.4004 -1.6475 -3.6623
  553MOL0     H74629   2.273   2.508   3.670 -0.2028 -0.0157  0.1007
  553MOL0     H74630   2.294   2.380   3.554 -1.6620  2.4142 -1.6088
  553MOL0     H74631   2.548   2.489   3.561  0.3431 -1.2962  1.4677
  553MOL0     H74632   2.412   2.576   3.472 -1.5488  2.0159  1.1999
  553MOL0     H74633   2.416   2.693   3.750  1.2935  1.2858  1.1990
  553MOL0     H74634   2.459   2.767   3.612 -2.8344 -0.4850  1.2885
  553MOL0     H74635   2.673   2.649   3.582  0.2355 -1.1040  0.2884
  553MOL0     H74636   2.656   2.602   3.750  1.4589  0.8888  0.8046
  553MOL0     H74637   1.992   2.340   4.108  1.5027 -2.6198 -0.8287
  553MOL0     H74638   2.036   2.480   4.343  0.7349 -0.4692  2.0335
  553MOL0     H74639   2.289   2.648   4.661 -0.5727  0.7135  0.7651
  553MOL0     H74640   2.305   2.776   4.859 -1.9613  0.8933  3.6536
  553MOL0     H74641   1.663   2.247   4.436  1.9248 -0.2713 -1.4414
  553MOL0     H74642   1.546   2.259   4.208 -0.5400  1.2331 -0.8431
  553MOL0     H74643   1.680   2.497   3.794 -0.4004  0.1240  0.9686
  553MOL0     H74644   1.668   2.526   3.560  0.5903  1.6902  2.7823
  553MOL0     H74645   1.378   2.620   3.421  0.2210  0.4935 -0.9655
  553MOL0     H74646   1.542   2.622   3.368  1.1182 -1.4104  2.3600
  553MOL0     H74647   1.486   2.549   3.141  0.7352  2.0719 -1.3714
  553MOL0     H74648   1.398   2.690   3.171 -2.3203 -1.4211 -2.9646
  553MOL0     H74649   1.199   2.562   3.232  0.7247 -0.2698  1.2709
  553MOL0     H74650   1.287   2.406   3.199  2.2264  0.1668  0.3535
  553MOL0     H74651   1.263   2.624   2.984 -1.1595 -0.5324 -2.9549
  553MOL0     H74652   1.141   2.512   3.004  1.1910 -3.0165 -0.0941
  553MOL0     H74653   1.495   2.273   2.893 -2.1099 -3.5491  0.5415
  553MOL0     H74654   1.306   2.292   3.534 -1.1584  0.2414  0.5483
  553MOL0     H74655   1.312   2.273   3.790  0.2610 -1.1688  0.0040
  554MOL0     O74656   8.022   3.998   7.407  0.2420  0.8313  0.5382
  554MOL0     C74657   8.021   3.936   7.517  0.2618  0.1549  0.0958
  554MOL0     O74658   8.119   3.945   7.621 -0.1010  0.0013 -0.7977
  554MOL0     C74659   8.144   3.833   7.710  0.7683 -0.5031 -1.0208
  554MOL0     C74660   8.147   3.703   7.667  0.1208 -1.0875 -0.5885
  554MOL0     C74661   8.177   3.609   7.759  0.6943  0.4700  0.2176
  554MOL0     C74662   8.208   3.640   7.888 -0.0420  0.0152 -0.2893
  554MOL0     O74663   8.236   3.540   7.975  0.2412  0.6630 -0.6369
  554MOL0     C74664   8.369   3.500   7.959  0.2623  1.0067  0.1050
  554MOL0     C74665   8.450   3.472   8.082 -0.4296 -0.0307 -0.3013
  554MOL0     C74666   8.442   3.590   8.184  0.3675  1.1361  0.3374
  554MOL0     C74667   8.329   3.566   8.294 -1.6486 -0.1178  0.0934
  554MOL0     C74668   8.349   3.445   8.397  0.0367  0.5927  0.1073
  554MOL0     C74669   8.222   3.431   8.479  0.0100 -0.4032 -0.0569
  554MOL0     C74670   8.225   3.306   8.576  0.1686 -0.6115  0.5231
  554MOL0     C74671   8.117   3.315   8.689  0.2119 -0.9729  0.2323
  554MOL0     N74672   8.165   3.230   8.800 -0.5446  0.1756  0.4078
  554MOL0     C74673   8.169   3.093   8.805  0.1484 -0.3294 -0.6323
  554MOL0     C74674   8.217   3.066   8.923 -0.3678  0.0917  0.3595
  554MOL0     C74675   8.265   2.935   8.977 -0.0015 -1.0599 -0.1653
  554MOL0     C74676   8.163   2.835   8.959  0.3630  0.5030  0.1042
  554MOL0     C74677   8.213   2.695   9.000  0.1121  0.3921  1.3434
  554MOL0     C74678   8.099   2.592   9.005  0.6593 -0.7146  0.8460
  554MOL0     O74679   8.044   2.574   8.877 -0.0531 -0.0150 -0.2828
  554MOL0     C74680   7.910   2.632   8.859 -0.1654  0.6461  0.3717
  554MOL0     C74681   7.893   2.711   8.745 -0.2724 -0.7018 -0.0264
  554MOL0     C74682   7.765   2.768   8.710 -0.1736  0.7346  0.5892
  554MOL0     C74683   7.766   2.852   8.586  0.3247 -1.4055  0.2360
  554MOL0     C74684   7.662   2.749   8.798  0.5252 -0.2113 -0.2608
  554MOL0     C74685   7.532   2.812   8.782  0.1570  0.1595 -0.1831
  554MOL0     O74686   7.458   2.824   8.898 -0.2229  0.1395  0.4442
  554MOL0     C74687   7.323   2.835   8.899 -1.3377  0.3209  1.0879
  554MOL0     C74688   7.251   2.904   8.998  0.2253 -0.6739  0.3572
  554MOL0     C74689   7.107   2.900   9.006 -0.4025 -0.1614 -0.2401
  554MOL0     C74690   7.035   2.821   8.916  0.6376 -0.7524 -0.2494
  554MOL0     O74691   6.901   2.813   8.903  0.0087 -1.0143  0.8383
  554MOL0     C74692   6.832   2.849   9.023 -0.7966  0.7747  0.2852
  554MOL0     C74693   6.690   2.821   9.004 -0.1194  0.4701  0.3388
  554MOL0     C74694   6.655   2.675   8.990 -0.6713 -0.2670  0.5781
  554MOL0     C74695   6.500   2.653   8.979  0.2608  0.8487 -0.1560
  554MOL0     C74696   6.465   2.508   8.996 -0.5346  0.0860  0.3770
  554MOL0     C74697   6.492   2.447   9.136 -0.9678 -0.2262  0.0385
  554MOL0     C74698   6.452   2.298   9.132 -0.0677 -0.3073 -0.3867
  554MOL0     C74699   6.455   2.238   9.264  0.4457 -0.8792 -1.1776
  554MOL0    Cl74700   6.387   2.065   9.252 -0.3309 -0.3284  0.1129
  554MOL0     C74701   7.103   2.761   8.820  0.3665 -0.0750  0.8013
  554MOL0     C74702   7.244   2.758   8.807 -0.3097 -0.0571 -0.4730
  554MOL0     O74703   7.493   2.853   8.671  0.3987 -0.0624  0.1147
  554MOL0     C74704   7.674   2.657   8.905  0.5298  0.5027  0.6355
  554MOL0     C74705   7.797   2.603   8.932  1.8919 -0.4824  0.3080
  554MOL0     N74706   8.240   3.183   8.993  0.8260  0.2235 -0.5875
  554MOL0     N74707   8.210   3.281   8.923  0.8818  0.0598  0.8257
  554MOL0     C74708   8.196   3.773   7.939 -1.6515  0.2969  0.2206
  554MOL0     C74709   8.157   3.871   7.845 -0.3547  0.2006 -0.8231
  554MOL0     C74710   7.898   3.858   7.554  0.5253 -0.1409  0.2955
  554MOL0     C74711   7.833   3.869   7.681  0.0507 -0.2601 -0.1848
  554MOL0     C74712   7.706   3.804   7.690  0.0130 -0.1162  0.3704
  554MOL0     C74713   7.648   3.731   7.583  0.2749 -0.4224 -0.2121
  554MOL0     O74714   7.525   3.683   7.572  0.2180 -0.4384 -0.3822
  554MOL0     C74715   7.433   3.701   7.682  0.3218  0.2443  0.3746
  554MOL0     C74716   7.294   3.665   7.648  0.6431  0.0864  0.3030
  554MOL0     C74717   7.224   3.775   7.558  0.1650  0.7206  0.6811
  554MOL0     C74718   7.094   3.715   7.507 -0.9955 -0.1621  0.0744
  554MOL0     C74719   7.000   3.805   7.443 -0.6807 -0.1336 -0.4755
  554MOL0     C74720   6.913   3.872   7.398  0.6396  0.7723  0.1001
  554MOL0     C74721   7.720   3.700   7.467  0.9349 -1.2027 -0.6042
  554MOL0     C74722   7.835   3.775   7.448 -0.0035 -0.0254  0.1741
  554MOL0     H74723   8.152   3.696   7.559  0.8175 -0.0562 -0.6422
  554MOL0     H74724   8.170   3.507   7.722  1.2487  0.5020  0.0088
  554MOL0     H74725   8.371   3.409   7.899  0.8491  0.4344  0.9634
  554MOL0     H74726   8.429   3.571   7.901  2.0954 -1.4235 -1.1636
  554MOL0     H74727   8.415   3.387   8.142  1.3481  0.9459  2.3328
  554MOL0     H74728   8.554   3.451   8.059 -0.8723 -4.7568  1.1273
  554MOL0     H74729   8.531   3.577   8.247 -0.8405 -2.0016  1.6042
  554MOL0     H74730   8.443   3.689   8.138  0.1318  1.4210  0.9369
  554MOL0     H74731   8.322   3.665   8.340 -1.1609 -0.2775  0.5174
  554MOL0     H74732   8.238   3.556   8.234 -0.3650 -2.7663 -1.5680
  554MOL0     H74733   8.368   3.348   8.352 -0.8266  1.4125 -2.1591
  554MOL0     H74734   8.435   3.480   8.456  1.0710  0.6732 -1.4006
  554MOL0     H74735   8.215   3.519   8.543 -4.1653 -2.9075  3.4040
  554MOL0     H74736   8.134   3.427   8.414 -0.1995 -1.3032  0.2661
  554MOL0     H74737   8.227   3.214   8.516  0.3122  1.1159 -2.2612
  554MOL0     H74738   8.314   3.307   8.640 -1.6253 -1.3534  3.1931
  554MOL0     H74739   8.024   3.287   8.639 -0.6345  0.0415  1.1789
  554MOL0     H74740   8.101   3.416   8.729 -1.1200 -1.1505  0.1807
  554MOL0     H74741   8.145   3.025   8.723 -3.6901 -0.3945  0.3373
  554MOL0     H74742   8.350   2.904   8.916  0.8641  2.0455 -0.6926
  554MOL0     H74743   8.290   2.948   9.083 -2.9412 -1.0196  0.6319
  554MOL0     H74744   8.132   2.832   8.854  2.3331  0.4102 -0.5181
  554MOL0     H74745   8.071   2.839   9.019 -0.4864 -1.2072 -1.0207
  554MOL0     H74746   8.263   2.687   9.097  1.4136  3.5637  1.0429
  554MOL0     H74747   8.291   2.674   8.927  0.3473 -0.0594  1.7178
  554MOL0     H74748   8.028   2.622   9.082 -0.5922 -0.4943 -0.3577
  554MOL0     H74749   8.139   2.496   9.039  1.3703  0.0871  2.3895
  554MOL0     H74750   7.984   2.729   8.690 -1.5363  3.3945 -1.1707
  554MOL0     H74751   7.788   2.953   8.621  1.4315 -1.8926  1.0254
  554MOL0     H74752   7.840   2.824   8.511 -0.0559 -3.4201  0.5629
  554MOL0     H74753   7.679   2.847   8.521 -2.0861  1.3481  2.9188
  554MOL0     H74754   7.305   2.982   9.051  1.3801 -1.5620  0.5346
  554MOL0     H74755   7.070   2.980   9.069  2.7273  1.7868 -0.6563
  554MOL0     H74756   6.874   2.793   9.108 -1.9386 -4.6617 -2.3305
  554MOL0     H74757   6.845   2.957   9.039  0.3533  1.0324 -2.0804
  554MOL0     H74758   6.654   2.862   9.098  2.3549  1.9250  0.7521
  554MOL0     H74759   6.670   2.882   8.915  1.2583 -0.2692 -0.5303
  554MOL0     H74760   6.692   2.624   9.079 -3.1878 -1.8157  0.8490
  554MOL0     H74761   6.690   2.635   8.895 -0.2882 -1.5957  1.2575
  554MOL0     H74762   6.450   2.713   9.055  0.8887  2.3426 -0.8740
  554MOL0     H74763   6.453   2.703   8.893  1.1799  0.9041 -0.6372
  554MOL0     H74764   6.528   2.456   8.923 -1.3910  1.4517 -1.3998
  554MOL0     H74765   6.360   2.489   8.975  0.0669  0.4272 -3.9762
  554MOL0     H74766   6.595   2.449   9.172 -2.3243 -1.2517  4.4781
  554MOL0     H74767   6.427   2.499   9.207  0.3323 -0.6357  1.5909
  554MOL0     H74768   6.526   2.242   9.073  1.7845 -3.7943  4.5859
  554MOL0     H74769   6.347   2.298   9.100  0.2621  0.2831 -1.5116
  554MOL0     H74770   6.397   2.301   9.332 -0.5702 -0.5591 -2.2963
  554MOL0     H74771   6.557   2.226   9.302 -0.8688  0.0751  3.1931
  554MOL0     H74772   7.046   2.698   8.752 -0.6742 -1.7751  3.1381
  554MOL0     H74773   7.287   2.680   8.745 -0.4205  0.8635 -1.7543
  554MOL0     H74774   7.590   2.631   8.968  0.4348  0.5294  0.5170
  554MOL0     H74775   7.812   2.538   9.018  1.5186 -2.2224 -0.8806
  554MOL0     H74776   8.216   3.796   8.044  1.7852 -2.1042  0.2751
  554MOL0     H74777   8.140   3.974   7.874  0.4705  0.7566 -2.2224
  554MOL0     H74778   7.872   3.913   7.773 -0.5504 -0.1299  0.0158
  554MOL0     H74779   7.649   3.834   7.777 -3.4540 -2.9000 -0.6824
  554MOL0     H74780   7.472   3.633   7.758 -2.1155 -0.2126  1.2963
  554MOL0     H74781   7.433   3.804   7.719 -2.7384 -0.4799  2.8375
  554MOL0     H74782   7.232   3.659   7.738  2.2385  1.4926  1.5695
  554MOL0     H74783   7.287   3.567   7.600  0.9084  0.5788 -0.7857
  554MOL0     H74784   7.290   3.802   7.475  1.9176 -1.1447  1.3884
  554MOL0     H74785   7.203   3.870   7.608  0.1775  0.6145  0.8894
  554MOL0     H74786   7.049   3.649   7.582  0.5398 -1.0228  0.2757
  554MOL0     H74787   7.130   3.642   7.433 -3.3262 -0.0887 -1.2479
  554MOL0     H74788   6.851   3.956   7.371 -1.7241 -0.7812  0.3967
  554MOL0     H74789   7.670   3.635   7.396  0.1717 -1.5816  0.2630
  554MOL0     H74790   7.885   3.756   7.353 -1.4379 -1.8957 -0.2645
  555MOL0     O74791   5.238   4.397   1.199 -0.6187  0.2319 -0.2879
  555MOL0     C74792   5.153   4.332   1.145 -0.4918 -0.8002 -0.1652
  555MOL0     O74793   5.031   4.321   1.201 -0.1998 -0.0285 -0.1127
  555MOL0     C74794   4.995   4.374   1.320 -0.1926 -0.4734 -0.1157
  555MOL0     C74795   5.041   4.498   1.367  0.9692  0.6038 -0.1650
  555MOL0     C74796   5.002   4.537   1.496 -0.4207  0.1625  0.0784
  555MOL0     C74797   4.926   4.442   1.577 -1.4880 -0.5499 -1.1989
  555MOL0     O74798   4.885   4.474   1.705 -0.3767  0.1188 -0.4403
  555MOL0     C74799   4.828   4.608   1.728  0.7052 -0.1892 -0.0914
  555MOL0     C74800   4.706   4.618   1.819 -0.9309  0.0123 -0.8653
  555MOL0     C74801   4.733   4.539   1.951  0.7592 -0.0084  1.0526
  555MOL0     C74802   4.626   4.552   2.061 -0.5133 -0.7373  0.2427
  555MOL0     C74803   4.634   4.436   2.162 -0.6518  0.0480  0.2987
  555MOL0     C74804   4.527   4.449   2.277 -0.1963 -0.0673  0.5916
  555MOL0     C74805   4.387   4.457   2.227  0.0298  0.0467  0.7484
  555MOL0     C74806   4.294   4.421   2.340 -0.8614 -1.7180 -0.8645
  555MOL0     N74807   4.165   4.494   2.331 -0.2091 -0.4689 -0.5122
  555MOL0     C74808   4.033   4.446   2.320 -0.1331  0.6545  0.1431
  555MOL0     C74809   3.956   4.546   2.351 -0.3741  0.0416  0.1720
  555MOL0     C74810   3.810   4.550   2.324  0.0940 -0.0265 -0.2571
  555MOL0     C74811   3.786   4.604   2.184  0.0809  0.2041  0.3881
  555MOL0     C74812   3.641   4.608   2.153  0.1573 -0.8316  0.7115
  555MOL0     C74813   3.552   4.642   2.276  0.0043 -0.8391 -0.5747
  555MOL0     O74814   3.425   4.673   2.223 -0.9509  0.2178  0.0212
  555MOL0     C74815   3.338   4.740   2.299  0.9400 -0.0108  0.3354
  555MOL0     C74816   3.328   4.711   2.438  0.1405 -1.4667 -0.3063
  555MOL0     C74817   3.249   4.795   2.520 -0.1298 -0.4293 -1.0000
  555MOL0     C74818   3.249   4.763   2.665  0.6566  0.3752 -0.1871
  555MOL0     C74819   3.177   4.899   2.457 -0.0831 -0.3127  0.3149
  555MOL0     C74820   3.079   4.970   2.535 -0.0327 -1.1249 -0.1750
  555MOL0     O74821   3.051   5.100   2.499  0.0895 -0.2441 -0.2909
  555MOL0     C74822   2.982   5.193   2.574 -0.8253  0.0805  0.0009
  555MOL0     C74823   2.960   5.194   2.712  0.2822  0.5862  0.8060
  555MOL0     C74824   2.900   5.306   2.769  0.3958 -0.5266 -0.2872
  555MOL0     C74825   2.854   5.421   2.692 -0.4175  0.3585  1.1142
  555MOL0     O74826   2.798   5.531   2.746 -0.4365  0.3033  0.8845
  555MOL0     C74827   2.813   5.543   2.886  0.5319  0.6234  0.6539
  555MOL0     C74828   2.727   5.648   2.941 -0.4721 -0.2433 -0.2235
  555MOL0     C74829   2.742   5.784   2.883 -0.3325 -0.2481  0.0086
  555MOL0     C74830   2.669   5.900   2.946 -0.1331  0.0822 -0.1716
  555MOL0     C74831   2.516   5.876   2.964  0.3890 -0.6626  0.7971
  555MOL0     C74832   2.422   5.994   2.976 -0.3465  1.0671  0.7719
  555MOL0     C74833   2.279   5.959   3.035 -0.1702 -0.2547 -0.5169
  555MOL0     C74834   2.166   6.057   2.994 -0.7437  0.4157  0.6971
  555MOL0    Cl74835   2.034   6.063   3.106 -0.9154 -0.2441 -0.2506
  555MOL0     C74836   2.856   5.407   2.553 -0.5089 -0.2950 -0.6084
  555MOL0     C74837   2.930   5.300   2.493 -0.3840  0.3540 -0.2396
  555MOL0     O74838   3.022   4.919   2.632  0.1076  1.4738  0.0820
  555MOL0     C74839   3.177   4.919   2.322 -0.1927 -0.9000 -0.1919
  555MOL0     C74840   3.256   4.838   2.241 -1.8304  0.7559  0.3451
  555MOL0     N74841   4.022   4.646   2.407  0.3433 -0.3215 -0.1482
  555MOL0     N74842   4.152   4.615   2.396 -0.0265  0.1488 -0.1942
  555MOL0     C74843   4.887   4.316   1.536 -0.4227 -0.7824 -0.8695
  555MOL0     C74844   4.920   4.286   1.399  0.7224  1.4211  0.0898
  555MOL0     C74845   5.188   4.273   1.013  0.9092  0.9818 -0.4310
  555MOL0     C74846   5.324   4.253   0.977  1.3928  0.4077  0.4183
  555MOL0     C74847   5.361   4.201   0.857  0.7000  0.9794  0.0919
  555MOL0     C74848   5.266   4.176   0.762 -0.5834 -0.2947 -0.5202
  555MOL0     O74849   5.302   4.124   0.648  0.0061 -0.9419 -0.3367
  555MOL0     C74850   5.273   4.189   0.523 -0.0553 -0.8422  0.1937
  555MOL0     C74851   5.284   4.339   0.537 -0.0515  0.0585 -0.0153
  555MOL0     C74852   5.284   4.413   0.411 -0.1012 -0.4842  0.3013
  555MOL0     C74853   5.259   4.561   0.443 -0.0131  0.0198  0.4229
  555MOL0     C74854   5.268   4.621   0.309 -1.5028  0.4840  0.1540
  555MOL0     C74855   5.259   4.648   0.191  0.1400  0.4265 -1.0332
  555MOL0     C74856   5.130   4.199   0.785 -0.3148 -1.0531  0.5040
  555MOL0     C74857   5.087   4.238   0.915  0.1730 -0.2939 -0.2823
  555MOL0     H74858   5.096   4.563   1.300  0.5984 -1.4661 -2.5925
  555MOL0     H74859   5.027   4.634   1.539  0.8024  0.6399 -1.6022
  555MOL0     H74860   4.916   4.657   1.771 -0.0497  0.8295  0.3394
  555MOL0     H74861   4.800   4.672   1.643 -0.4896  1.7127  1.6217
  555MOL0     H74862   4.685   4.721   1.848  0.9332  1.6619 -4.6756
  555MOL0     H74863   4.611   4.586   1.774  0.1595 -5.1446 -0.1528
  555MOL0     H74864   4.746   4.431   1.940  0.0861 -0.1070  1.1365
  555MOL0     H74865   4.829   4.572   1.989  1.1540 -2.0761  1.9681
  555MOL0     H74866   4.648   4.643   2.117  0.0147 -0.5063 -0.3266
  555MOL0     H74867   4.528   4.558   2.012 -1.5442 -1.3133  2.1294
  555MOL0     H74868   4.627   4.343   2.105 -3.1005  0.4296 -0.1662
  555MOL0     H74869   4.726   4.442   2.220 -3.7435  0.4779  5.8489
  555MOL0     H74870   4.538   4.365   2.347 -1.6086  1.1363  2.3432
  555MOL0     H74871   4.543   4.541   2.333  1.8075  0.6842 -1.0953
  555MOL0     H74872   4.358   4.560   2.205 -3.1920 -0.9957 -0.4426
  555MOL0     H74873   4.367   4.387   2.146 -1.4555 -0.7628  1.7634
  555MOL0     H74874   4.333   4.460   2.434 -0.6868 -0.1536 -1.5497
  555MOL0     H74875   4.280   4.313   2.351 -4.3555 -1.2664  0.3360
  555MOL0     H74876   4.000   4.352   2.277 -0.5614  1.4515 -1.3548
  555MOL0     H74877   3.770   4.448   2.329 -0.0952 -0.2400 -3.6835
  555MOL0     H74878   3.758   4.614   2.395 -0.1785 -1.5137  0.9462
  555MOL0     H74879   3.833   4.539   2.110 -2.0049  0.4001 -1.1905
  555MOL0     H74880   3.828   4.704   2.173 -0.8598  0.6504  0.7643
  555MOL0     H74881   3.598   4.518   2.108 -0.4591 -0.0554 -0.3209
  555MOL0     H74882   3.636   4.684   2.074  0.1371 -3.0241 -1.5265
  555MOL0     H74883   3.593   4.733   2.322  3.5962 -1.7454 -1.5962
  555MOL0     H74884   3.546   4.562   2.350  0.5620 -0.3153  0.0567
  555MOL0     H74885   3.375   4.632   2.494  1.0164  0.1987  1.4147
  555MOL0     H74886   3.155   4.711   2.685 -2.0618  2.3527 -5.6689
  555MOL0     H74887   3.335   4.706   2.701 -0.1504 -1.1267 -0.5316
  555MOL0     H74888   3.243   4.851   2.729 -3.7368 -1.0412  1.7181
  555MOL0     H74889   3.008   5.121   2.777 -1.6120 -1.1848  0.3197
  555MOL0     H74890   2.885   5.309   2.877  0.2701 -2.0558 -0.2427
  555MOL0     H74891   2.776   5.463   2.951  1.5075  0.3249  0.8736
  555MOL0     H74892   2.918   5.568   2.907  0.0967  2.0096  1.2450
  555MOL0     H74893   2.630   5.606   2.915  0.6862 -1.1085 -3.6454
  555MOL0     H74894   2.718   5.659   3.050 -0.0744 -0.1228 -0.2001
  555MOL0     H74895   2.714   5.779   2.778 -2.0553  1.1932  0.3527
  555MOL0     H74896   2.847   5.811   2.893 -0.2926 -0.5280  0.3809
  555MOL0     H74897   2.711   5.917   3.046  1.3327  2.6088 -1.1179
  555MOL0     H74898   2.683   5.993   2.890 -3.1293  0.6968 -0.0476
  555MOL0     H74899   2.482   5.826   3.056 -4.6755  0.1419 -0.3677
  555MOL0     H74900   2.477   5.809   2.887 -4.2999 -2.0635  3.8981
  555MOL0     H74901   2.467   6.081   3.023  2.4643  0.3339 -0.3914
  555MOL0     H74902   2.386   6.027   2.878 -0.7080 -1.5422 -0.0719
  555MOL0     H74903   2.287   5.967   3.144  0.6793 -0.9551 -0.5222
  555MOL0     H74904   2.252   5.855   3.017  1.5408 -0.6876 -0.7750
  555MOL0     H74905   2.138   6.030   2.892  3.0885 -0.4912 -0.3015
  555MOL0     H74906   2.200   6.161   2.990 -1.3851  0.5812 -0.9414
  555MOL0     H74907   2.814   5.491   2.499  0.3491  1.9795  2.0194
  555MOL0     H74908   2.934   5.290   2.385 -0.1606 -0.6770 -0.1413
  555MOL0     H74909   3.113   4.999   2.286 -2.1664  0.0193  4.5692
  555MOL0     H74910   3.263   4.860   2.134 -3.9217 -0.9450 -0.2008
  555MOL0     H74911   4.844   4.238   1.600 -1.9238 -1.4862 -2.6231
  555MOL0     H74912   4.883   4.188   1.370  0.3305  1.8855 -1.0170
  555MOL0     H74913   5.405   4.287   1.042  2.2089 -0.1870 -0.2562
  555MOL0     H74914   5.467   4.176   0.853  0.6802 -1.3448  5.4643
  555MOL0     H74915   5.338   4.147   0.446 -0.1082  0.4054 -0.5600
  555MOL0     H74916   5.170   4.165   0.498 -0.5190 -1.7511  2.6487
  555MOL0     H74917   5.377   4.372   0.583 -0.2159  1.6840 -0.7873
  555MOL0     H74918   5.203   4.378   0.600  3.4556  0.1688  5.0354
  555MOL0     H74919   5.202   4.370   0.352  0.3838 -1.0772  0.0520
  555MOL0     H74920   5.380   4.400   0.360  1.0440 -0.4151  2.3325
  555MOL0     H74921   5.340   4.603   0.504 -0.9501  1.1979  0.8866
  555MOL0     H74922   5.172   4.598   0.496 -0.9257 -1.1560 -0.1937
  555MOL0     H74923   5.254   4.695   0.094  3.1698  1.8922 -0.5940
  555MOL0     H74924   5.062   4.180   0.702  2.2567  1.8616 -2.5654
  555MOL0     H74925   4.982   4.245   0.941  0.2104  0.1818 -0.2424
  556MOL0     O74926   9.300   3.249   6.438  0.9171  0.1864  0.2780
  556MOL0     C74927   9.369   3.304   6.349  0.2090 -0.4144  0.3185
  556MOL0     O74928   9.491   3.261   6.307  1.0640 -0.4002  0.0544
  556MOL0     C74929   9.556   3.175   6.391  0.0960 -0.2115 -0.3321
  556MOL0     C74930   9.560   3.033   6.384  1.0756  0.0909 -1.1825
  556MOL0     C74931   9.634   2.957   6.483  0.2124 -0.0637 -0.0830
  556MOL0     C74932   9.692   3.017   6.600  0.7080 -0.3316  0.9416
  556MOL0     O74933   9.750   2.949   6.701  0.1641  0.6807 -0.0376
  556MOL0     C74934   9.848   2.858   6.647  0.1059 -0.3486 -0.1985
  556MOL0     C74935   9.945   2.818   6.754  0.1574  0.2545 -1.2447
  556MOL0     C74936  10.052   2.727   6.702 -0.0775 -0.1920 -0.1194
  556MOL0     C74937  10.174   2.731   6.801 -0.1789  1.1320  0.0538
  556MOL0     C74938  10.291   2.664   6.728  0.4210 -0.2704  0.6462
  556MOL0     C74939  10.411   2.643   6.828 -0.0884  0.2704  0.6460
  556MOL0     C74940  10.516   2.561   6.756 -0.6388  0.3124 -0.2536
  556MOL0     C74941  10.626   2.508   6.861  0.2643 -0.1593  0.2788
  556MOL0     N74942  10.583   2.377   6.924 -0.6637  0.1732 -0.2431
  556MOL0     C74943  10.455   2.322   6.926 -0.6074 -0.4586  0.5937
  556MOL0     C74944  10.450   2.246   7.042  0.3254 -0.6481  0.2834
  556MOL0     C74945  10.321   2.173   7.084  0.1196 -0.2959  0.5023
  556MOL0     C74946  10.227   2.254   7.173  0.4999  0.5558 -1.3316
  556MOL0     C74947  10.192   2.376   7.094 -0.5377 -0.6326 -0.2582
  556MOL0     C74948  10.053   2.429   7.139 -0.0042 -0.5831  0.1775
  556MOL0     O74949   9.984   2.465   7.028  0.8907  0.3432 -0.1013
  556MOL0     C74950   9.865   2.524   7.032  0.5131  0.6950  0.6254
  556MOL0     C74951   9.784   2.565   7.144  0.1916  0.6557 -0.0959
  556MOL0     C74952   9.652   2.615   7.129  0.3241  0.5963  0.0817
  556MOL0     C74953   9.553   2.634   7.244  0.7014 -0.4576  0.2357
  556MOL0     C74954   9.609   2.645   6.997 -0.3640  0.7676  0.4115
  556MOL0     C74955   9.484   2.703   6.957  0.3086 -0.4911 -0.3424
  556MOL0     O74956   9.471   2.772   6.831 -0.8748  0.5268 -1.2314
  556MOL0     C74957   9.347   2.827   6.801  0.1967 -0.8746  0.2283
  556MOL0     C74958   9.345   2.927   6.707  0.6306  0.0783 -0.3373
  556MOL0     C74959   9.236   2.980   6.649  0.3332 -0.9455 -0.4294
  556MOL0     C74960   9.110   2.935   6.682  0.0857 -0.0715 -0.6550
  556MOL0     O74961   8.987   2.986   6.632 -0.1603 -0.5726 -0.0349
  556MOL0     C74962   9.002   3.121   6.579 -0.1610  0.3174  0.0745
  556MOL0     C74963   8.873   3.197   6.542 -0.6450  0.3141  0.0741
  556MOL0     C74964   8.790   3.120   6.434 -0.3488  1.2702  0.0920
  556MOL0     C74965   8.845   3.110   6.299 -0.0205 -0.1089 -0.0529
  556MOL0     C74966   8.739   3.056   6.196 -0.2373  0.3165  0.7101
  556MOL0     C74967   8.797   3.101   6.057  0.3144  0.3018 -0.6456
  556MOL0     C74968   8.696   3.079   5.950 -0.2316  0.2386  0.7099
  556MOL0     C74969   8.638   3.203   5.872  0.3582 -0.1477 -0.0523
  556MOL0    Cl74970   8.761   3.247   5.755 -0.5164 -0.1932  0.5926
  556MOL0     C74971   9.100   2.830   6.772 -0.2940 -0.7041  0.0378
  556MOL0     C74972   9.215   2.773   6.826  0.5930 -0.6187  0.0148
  556MOL0     O74973   9.390   2.674   7.030  0.2462 -0.3249 -0.1861
  556MOL0     C74974   9.685   2.592   6.890 -0.5501 -0.4670 -0.2767
  556MOL0     C74975   9.814   2.543   6.906  0.4673 -0.2631  0.0120
  556MOL0     N74976  10.572   2.260   7.109  0.0334  0.0634 -0.1010
  556MOL0     N74977  10.641   2.338   7.036  0.6168  0.3467 -0.5580
  556MOL0     C74978   9.687   3.157   6.601  0.4263 -0.2635 -0.6347
  556MOL0     C74979   9.623   3.231   6.500 -0.4799 -0.3772  0.3321
  556MOL0     C74980   9.307   3.407   6.266  0.3874  0.5681  0.2861
  556MOL0     C74981   9.356   3.428   6.136  0.3451 -0.4500 -1.1274
  556MOL0     C74982   9.289   3.518   6.051  0.6721 -0.2638 -0.4216
  556MOL0     C74983   9.175   3.589   6.093 -1.0679 -0.1017  0.9336
  556MOL0     O74984   9.122   3.672   6.001  0.3768  0.4535 -0.4791
  556MOL0     C74985   8.987   3.706   5.999  0.1734 -0.3285 -0.0464
  556MOL0     C74986   8.894   3.588   5.980 -0.6797  0.7771 -0.5656
  556MOL0     C74987   8.749   3.620   6.020  0.4943 -0.1991  0.4893
  556MOL0     C74988   8.692   3.744   5.951  0.1211 -0.4019  0.3020
  556MOL0     C74989   8.733   3.869   6.025 -0.4162  0.4738 -0.0174
  556MOL0     C74990   8.747   3.963   6.097  0.1151 -0.1570 -0.3628
  556MOL0     C74991   9.125   3.570   6.222 -0.6266  0.1760 -0.1266
  556MOL0     C74992   9.192   3.478   6.309  0.5747 -0.2761 -0.3773
  556MOL0     H74993   9.505   2.974   6.311  0.7118  0.3892 -1.1529
  556MOL0     H74994   9.642   2.849   6.486  5.7052  0.0862  1.7417
  556MOL0     H74995   9.801   2.773   6.597 -2.1178  2.9275 -4.3224
  556MOL0     H74996   9.901   2.910   6.567 -3.0880  1.1760 -1.5113
  556MOL0     H74997   9.981   2.912   6.795  0.8161 -0.7886  0.6518
  556MOL0     H74998   9.897   2.765   6.836 -2.6915  1.0632 -2.2746
  556MOL0     H74999  10.011   2.628   6.679  0.4857  0.0644 -2.4508
  556MOL0     H75000  10.091   2.766   6.608  1.5646 -0.3841  0.4481
  556MOL0     H75001  10.209   2.828   6.839  1.0784  0.2245  1.3634
  556MOL0     H75002  10.147   2.671   6.888 -1.1340 -1.7888 -2.1147
  556MOL0     H75003  10.254   2.570   6.687  1.0793  0.8103 -2.7103
  556MOL0     H75004  10.318   2.717   6.636 -0.5302 -1.9063 -0.6157
  556MOL0     H75005  10.450   2.739   6.864  0.6223 -0.8038  2.9444
  556MOL0     H75006  10.381   2.590   6.919 -0.7053 -2.2753 -0.9484
  556MOL0     H75007  10.475   2.474   6.703  2.1466 -1.6985  0.6486
  556MOL0     H75008  10.567   2.613   6.674 -0.6508 -0.7372 -0.9506
  556MOL0     H75009  10.671   2.575   6.935  2.3447  0.8232 -1.7439
  556MOL0     H75010  10.718   2.490   6.805  0.3393 -1.3333  0.7368
  556MOL0     H75011  10.375   2.333   6.853 -0.5232 -1.0897  0.3969
  556MOL0     H75012  10.267   2.144   6.993 -2.1468 -0.9838  2.0004
  556MOL0     H75013  10.349   2.081   7.135 -1.0565 -1.0630 -0.1730
  556MOL0     H75014  10.274   2.282   7.267 -0.7514  1.4592 -0.9548
  556MOL0     H75015  10.136   2.195   7.187  2.3632 -2.1483  0.4568
  556MOL0     H75016  10.185   2.368   6.985  0.0823 -1.5350 -0.2395
  556MOL0     H75017  10.265   2.456   7.112 -2.1161  1.5251 -2.6946
  556MOL0     H75018  10.060   2.507   7.215 -2.7638  1.9461 -1.8691
  556MOL0     H75019   9.996   2.347   7.183 -1.8112 -0.4402 -1.7356
  556MOL0     H75020   9.804   2.532   7.245  0.2916  2.4312  0.4891
  556MOL0     H75021   9.611   2.629   7.337 -1.7023 -1.7541  1.7435
  556MOL0     H75022   9.500   2.729   7.235  2.3243  0.3380 -1.8651
  556MOL0     H75023   9.471   2.562   7.240  0.9532 -0.9056  2.2356
  556MOL0     H75024   9.440   2.969   6.676  2.6306 -1.3853  3.2297
  556MOL0     H75025   9.262   3.060   6.580 -1.1613  1.7357  1.8959
  556MOL0     H75026   9.038   3.179   6.665 -1.5476  1.4331 -0.0600
  556MOL0     H75027   9.079   3.109   6.502  2.5989 -3.9090  3.0803
  556MOL0     H75028   8.815   3.218   6.632 -1.5430 -2.9735  0.3959
  556MOL0     H75029   8.907   3.296   6.512 -1.4091  1.1249  1.7605
  556MOL0     H75030   8.687   3.156   6.431 -1.3970 -1.3207  1.2280
  556MOL0     H75031   8.791   3.013   6.457 -2.4328  1.1027 -0.4719
  556MOL0     H75032   8.880   3.207   6.262 -0.3974  0.4788  1.0911
  556MOL0     H75033   8.936   3.049   6.296  0.4972  0.6842 -0.8195
  556MOL0     H75034   8.641   3.102   6.207 -1.0512 -1.0679 -0.5269
  556MOL0     H75035   8.719   2.949   6.197  3.3604 -0.5985 -2.1188
  556MOL0     H75036   8.829   3.206   6.059 -1.2259  0.7878 -0.2014
  556MOL0     H75037   8.882   3.033   6.043  2.5678  3.0120 -1.1218
  556MOL0     H75038   8.610   3.021   5.984  1.3281 -0.6291  3.4582
  556MOL0     H75039   8.741   3.021   5.869  0.9882  0.7863  0.9619
  556MOL0     H75040   8.645   3.286   5.943  2.8031  0.9555 -1.4214
  556MOL0     H75041   8.540   3.187   5.827  0.1276 -1.1736  0.7739
  556MOL0     H75042   9.002   2.787   6.786  0.1403 -1.4772  0.8358
  556MOL0     H75043   9.198   2.692   6.897 -2.0238  0.7849  1.1429
  556MOL0     H75044   9.645   2.590   6.789 -1.7621 -2.8448  0.1772
  556MOL0     H75045   9.875   2.520   6.819  2.2651  3.6623  0.0430
  556MOL0     H75046   9.745   3.212   6.674 -0.6576  1.0236 -0.7027
  556MOL0     H75047   9.607   3.338   6.506  2.1139 -0.0150  3.6140
  556MOL0     H75048   9.450   3.377   6.114 -0.4491 -4.1880  2.7727
  556MOL0     H75049   9.326   3.541   5.951  0.7309 -0.7107 -0.5055
  556MOL0     H75050   8.965   3.739   6.101  0.3112 -0.2108 -0.0554
  556MOL0     H75051   8.960   3.787   5.932 -1.8952  0.0196  1.1274
  556MOL0     H75052   8.921   3.502   6.042 -0.4806 -1.3747 -3.3939
  556MOL0     H75053   8.890   3.549   5.877 -2.3832 -2.2901  0.5149
  556MOL0     H75054   8.735   3.643   6.126  0.7676  3.4634 -0.1235
  556MOL0     H75055   8.683   3.537   5.995 -0.2963  0.6042 -0.1447
  556MOL0     H75056   8.584   3.730   5.952  0.3749 -3.5155 -1.6764
  556MOL0     H75057   8.728   3.739   5.848 -3.6102 -0.9534 -1.1120
  556MOL0     H75058   8.749   4.048   6.161  1.9841 -3.1958  4.1347
  556MOL0     H75059   9.045   3.641   6.242  0.0499  0.5005  1.5828
  556MOL0     H75060   9.159   3.460   6.411  2.5551  1.9113  0.7411
  557MOL0     O75061   0.978   5.977   8.471  0.2181 -0.4909  0.2649
  557MOL0     C75062   1.029   5.875   8.426  0.0028  1.0395  0.0477
  557MOL0     O75063   0.969   5.750   8.402  0.1112 -0.7403 -0.1077
  557MOL0     C75064   0.843   5.718   8.443  0.1873  0.2267 -0.3826
  557MOL0     C75065   0.778   5.621   8.368 -0.2051  1.0300 -0.1307
  557MOL0     C75066   0.647   5.580   8.412 -0.3574  0.1320  0.8115
  557MOL0     C75067   0.595   5.627   8.532  0.3867  1.1318  0.0282
  557MOL0     O75068   0.474   5.593   8.590 -0.1955 -0.5672  0.7347
  557MOL0     C75069   0.390   5.500   8.518 -0.5234  0.0275  0.3046
  557MOL0     C75070   0.283   5.442   8.613 -0.0739  0.8474  0.0261
  557MOL0     C75071   0.319   5.370   8.733  0.7187 -0.2521 -0.0613
  557MOL0     C75072   0.197   5.338   8.821 -0.1862  0.3510  0.4567
  557MOL0     C75073   0.098   5.253   8.745 -0.7795 -0.0076  0.7107
  557MOL0     C75074  -0.035   5.237   8.814 -0.5889  0.7670 -0.2519
  557MOL0     C75075  -0.127   5.134   8.732  0.9077  1.1828  0.1229
  557MOL0     C75076  -0.227   5.034   8.813  0.3370 -0.0914  0.4431
  557MOL0     N75077  -0.278   4.928   8.730  0.9115  0.1756 -0.0593
  557MOL0     C75078  -0.203   4.834   8.661 -0.1534  0.5528  0.5374
  557MOL0     C75079  -0.292   4.767   8.582  0.3127 -1.1432  0.4341
  557MOL0     C75080  -0.247   4.686   8.456 -0.7289 -0.3890 -0.3026
  557MOL0     C75081  -0.157   4.765   8.357 -0.3768 -0.5144 -0.3864
  557MOL0     C75082  -0.092   4.678   8.249  0.1678 -0.7226  0.9965
  557MOL0     C75083   0.022   4.731   8.166  0.2430  0.2336 -0.2500
  557MOL0     O75084   0.092   4.632   8.095  0.6686 -0.5767  0.3126
  557MOL0     C75085   0.208   4.656   8.026 -0.7160 -0.1579  0.3418
  557MOL0     C75086   0.289   4.768   8.048  0.4159  0.3484 -0.1386
  557MOL0     C75087   0.416   4.785   7.994 -0.4424 -0.9561 -0.7015
  557MOL0     C75088   0.490   4.902   8.048 -0.2664  0.3938 -0.1240
  557MOL0     C75089   0.471   4.683   7.909  0.4775  0.0530  0.6971
  557MOL0     C75090   0.606   4.693   7.845  1.1395  0.5986  0.8068
  557MOL0     O75091   0.656   4.567   7.797  0.1632 -0.5407 -0.8239
  557MOL0     C75092   0.776   4.573   7.737  0.4664  0.1953 -0.6623
  557MOL0     C75093   0.796   4.536   7.605  0.7980  0.2560  0.0969
  557MOL0     C75094   0.916   4.532   7.545  0.2908  0.6642 -0.3935
  557MOL0     C75095   1.028   4.560   7.632  0.0074  0.9547  1.0119
  557MOL0     O75096   1.154   4.562   7.603 -0.7177  0.2905  0.8018
  557MOL0     C75097   1.197   4.533   7.475 -0.5990  0.3895 -0.1423
  557MOL0     C75098   1.346   4.498   7.493  0.2961  0.2154 -0.7028
  557MOL0     C75099   1.413   4.443   7.360 -0.9203  0.0182  0.3733
  557MOL0     C75100   1.447   4.564   7.269  0.7648 -0.0760  0.3556
  557MOL0     C75101   1.518   4.517   7.135 -0.2450  0.2913  0.2695
  557MOL0     C75102   1.427   4.425   7.049 -0.3354 -0.5587 -0.3433
  557MOL0     C75103   1.284   4.489   7.018  0.8544  0.0547  0.4068
  557MOL0     C75104   1.223   4.423   6.892  1.2591 -0.2448 -1.2984
  557MOL0    Cl75105   1.336   4.421   6.759  0.5983  0.0395  0.0635
  557MOL0     C75106   1.009   4.614   7.758 -0.5271 -0.5900  0.1097
  557MOL0     C75107   0.883   4.616   7.820  0.5416 -0.0842  0.2132
  557MOL0     O75108   0.648   4.805   7.816  0.3473 -0.4801 -0.2211
  557MOL0     C75109   0.394   4.576   7.892  0.5899  0.5796  0.2337
  557MOL0     C75110   0.264   4.555   7.947  0.7468 -0.4140  1.0099
  557MOL0     N75111  -0.413   4.822   8.611  0.0741 -0.9139 -0.9354
  557MOL0     N75112  -0.408   4.908   8.697  0.3502 -0.7156 -0.1922
  557MOL0     C75113   0.674   5.705   8.616  0.7784  0.4372  0.6144
  557MOL0     C75114   0.801   5.749   8.571 -0.2348 -0.3195 -0.6715
  557MOL0     C75115   1.162   5.882   8.372  0.5652 -1.0812  0.6535
  557MOL0     C75116   1.226   5.768   8.336  0.2564  0.9250 -1.2040
  557MOL0     C75117   1.352   5.768   8.280 -0.9337 -0.0683 -0.9195
  557MOL0     C75118   1.416   5.893   8.253 -0.9108  0.6623 -0.2043
  557MOL0     O75119   1.539   5.900   8.189  1.0510  0.4501  0.2864
  557MOL0     C75120   1.583   6.007   8.105  0.0809 -0.6019 -0.4908
  557MOL0     C75121   1.490   6.059   8.000  0.8633 -0.0208 -0.4693
  557MOL0     C75122   1.451   5.952   7.900 -0.6122 -0.1171 -0.1668
  557MOL0     C75123   1.319   5.988   7.838 -0.0666 -0.3245  0.7167
  557MOL0     C75124   1.328   6.117   7.770 -0.2482 -0.1391  0.2538
  557MOL0     C75125   1.346   6.213   7.701 -0.5399 -0.1600  0.2611
  557MOL0     C75126   1.356   6.006   8.309 -0.3541  0.4902  0.1676
  557MOL0     C75127   1.225   5.998   8.357  0.1953  0.0340  1.0865
  557MOL0     H75128   0.829   5.592   8.277 -2.0172  0.9888 -1.1941
  557MOL0     H75129   0.594   5.509   8.349  0.2789  1.5385 -1.4728
  557MOL0     H75130   0.339   5.553   8.437  0.6975  1.3281  0.3548
  557MOL0     H75131   0.458   5.422   8.483  0.2325  0.2190  1.3079
  557MOL0     H75132   0.218   5.527   8.638  0.0041  1.3955 -1.5191
  557MOL0     H75133   0.221   5.374   8.554  0.3390  0.6826 -0.2192
  557MOL0     H75134   0.364   5.276   8.699 -3.0651 -2.5086  0.6107
  557MOL0     H75135   0.397   5.426   8.786  0.5917 -0.5541  0.4510
  557MOL0     H75136   0.231   5.284   8.909  1.0440 -1.8046 -1.2528
  557MOL0     H75137   0.146   5.433   8.840  0.0809  1.7549 -4.3903
  557MOL0     H75138   0.067   5.291   8.648 -0.6472 -0.1368  0.6190
  557MOL0     H75139   0.143   5.156   8.723 -0.3497  0.1180  1.0169
  557MOL0     H75140  -0.024   5.200   8.917  0.4101 -3.0925 -1.5402
  557MOL0     H75141  -0.092   5.330   8.813 -0.5062  0.8155 -0.4787
  557MOL0     H75142  -0.187   5.203   8.672 -0.7095 -1.7465 -1.8830
  557MOL0     H75143  -0.059   5.071   8.673  1.6128  0.1848  1.9090
  557MOL0     H75144  -0.313   5.076   8.866 -1.4925  1.6462 -3.5393
  557MOL0     H75145  -0.166   4.993   8.894 -0.1630  1.5473  1.7099
  557MOL0     H75146  -0.095   4.823   8.663  0.0711  2.5552  1.8137
  557MOL0     H75147  -0.180   4.613   8.501  1.8940  1.9520 -0.0959
  557MOL0     H75148  -0.329   4.640   8.400 -0.0288 -0.6716 -1.1134
  557MOL0     H75149  -0.072   4.814   8.405 -2.3761  1.2057  1.6805
  557MOL0     H75150  -0.215   4.844   8.307 -2.3894 -1.7465 -0.1103
  557MOL0     H75151  -0.165   4.628   8.185  1.5695  0.9182 -2.0601
  557MOL0     H75152  -0.051   4.606   8.320 -0.5428  2.7484  5.4163
  557MOL0     H75153   0.088   4.783   8.237  0.0082 -0.3421  0.4024
  557MOL0     H75154  -0.001   4.814   8.098  1.2475  0.4948 -0.2843
  557MOL0     H75155   0.263   4.852   8.112  2.2231  0.3728  0.6356
  557MOL0     H75156   0.575   4.877   8.112 -1.1393  0.4081  1.0852
  557MOL0     H75157   0.517   4.943   7.950 -0.8111 -2.8714 -1.8037
  557MOL0     H75158   0.423   4.966   8.105  0.1823 -0.9295  2.0169
  557MOL0     H75159   0.703   4.518   7.552  1.4419 -1.9323 -0.3907
  557MOL0     H75160   0.929   4.487   7.447  0.6499  1.2700 -0.6318
  557MOL0     H75161   1.143   4.451   7.428 -0.2848  0.1527 -0.0914
  557MOL0     H75162   1.190   4.617   7.405 -1.9135  1.2979  1.0313
  557MOL0     H75163   1.396   4.588   7.533  0.6485 -1.3746  2.7989
  557MOL0     H75164   1.368   4.413   7.558 -0.6727 -1.3894 -2.4080
  557MOL0     H75165   1.338   4.382   7.309 -0.5721  0.5528 -0.8130
  557MOL0     H75166   1.505   4.390   7.386  0.1409  1.0379 -1.0927
  557MOL0     H75167   1.356   4.622   7.249  0.7642 -0.3049 -0.3513
  557MOL0     H75168   1.517   4.627   7.324  2.0838 -0.8167 -0.4153
  557MOL0     H75169   1.613   4.469   7.157 -0.1610 -0.2779 -1.2081
  557MOL0     H75170   1.540   4.605   7.073  0.9292 -1.4481 -1.9326
  557MOL0     H75171   1.490   4.399   6.963  0.6486  1.7187 -0.3823
  557MOL0     H75172   1.417   4.327   7.097  0.0798 -1.2772 -1.6904
  557MOL0     H75173   1.307   4.595   7.002 -1.0480  0.3472 -0.7908
  557MOL0     H75174   1.209   4.473   7.096  0.5796 -0.0717  0.1201
  557MOL0     H75175   1.134   4.482   6.867  0.8172 -0.0973  0.4779
  557MOL0     H75176   1.191   4.319   6.906  0.3071  0.3284  1.5353
  557MOL0     H75177   1.098   4.645   7.812 -1.6624  0.5756  1.4145
  557MOL0     H75178   0.876   4.640   7.925 -1.8274 -1.6560  0.4792
  557MOL0     H75179   0.442   4.495   7.838  1.8260 -0.0527  2.1506
  557MOL0     H75180   0.202   4.470   7.923 -1.3161  1.0215  1.0552
  557MOL0     H75181   0.633   5.762   8.699  2.5644  3.4581 -0.4198
  557MOL0     H75182   0.871   5.817   8.621  5.0860 -4.3432 -1.7594
  557MOL0     H75183   1.183   5.669   8.346 -0.4207  1.4308  2.2818
  557MOL0     H75184   1.403   5.677   8.250 -2.0388 -0.8293 -0.5343
  557MOL0     H75185   1.595   6.089   8.177 -1.8298  0.2605 -1.1053
  557MOL0     H75186   1.681   5.985   8.061  0.1247  1.4334 -1.5444
  557MOL0     H75187   1.553   6.136   7.954 -1.7632  2.1355 -0.6948
  557MOL0     H75188   1.405   6.106   8.050  1.1451 -1.5149  1.5211
  557MOL0     H75189   1.437   5.867   7.967  0.8484  0.6071  1.1338
  557MOL0     H75190   1.525   5.924   7.824 -2.0222 -0.9726 -1.2571
  557MOL0     H75191   1.249   5.986   7.922  1.5105 -0.6202  2.0672
  557MOL0     H75192   1.291   5.908   7.769  0.7616  1.9962 -2.5850
  557MOL0     H75193   1.362   6.295   7.634 -3.2726  1.3598  1.3104
  557MOL0     H75194   1.410   6.100   8.303  2.0066 -0.6945  1.7024
  557MOL0     H75195   1.176   6.087   8.395 -1.2564  0.3681 -1.3363
  558MOL0     O75196   0.387  10.860  10.665  0.2292 -0.1102  0.0036
  558MOL0     C75197   0.377  10.743  10.624 -0.6489  0.3637  0.1727
  558MOL0     O75198   0.453  10.640  10.678  0.7992 -0.0620  0.1802
  558MOL0     C75199   0.525  10.665  10.788 -0.5887 -0.8246 -0.1967
  558MOL0     C75200   0.510  10.572  10.897 -0.0332 -0.4845  0.7074
  558MOL0     C75201   0.583  10.596  11.015 -0.5743 -0.3369  1.6392
  558MOL0     C75202   0.675  10.697  11.022 -1.2625 -0.7170  0.4185
  558MOL0     O75203   0.750  10.706  11.142 -0.5310  0.1902  0.0494
  558MOL0     C75204   0.804  10.830  11.196  0.3946  0.0779  0.3500
  558MOL0     C75205   0.888  10.811  11.318 -0.3037 -0.1894 -0.5402
  558MOL0     C75206   0.987  10.704  11.277  0.5319 -0.3200 -0.7168
  558MOL0     C75207   1.112  10.715  11.354  0.1768  1.3460  0.8169
  558MOL0     C75208   1.099  10.636  11.484  0.5664  0.8611  1.0551
  558MOL0     C75209   1.217  10.614  11.558 -0.7556  0.0482 -0.9869
  558MOL0     C75210   1.200  10.561  11.696 -0.5342  0.6708  0.2903
  558MOL0     C75211   1.086  10.449  11.706 -0.6164 -0.0632  0.1280
  558MOL0     N75212   1.072  10.382  11.839 -0.4195 -0.2499 -0.2657
  558MOL0     C75213   0.951  10.356  11.893  1.5594 -0.2393  0.4628
  558MOL0     C75214   0.978  10.253  11.982 -0.1747 -0.2535  0.0378
  558MOL0     C75215   0.869  10.178  12.066 -0.2852 -0.1086 -0.2868
  558MOL0     C75216   0.860  10.030  12.024  0.2097 -0.6882 -0.1374
  558MOL0     C75217   0.768   9.952  12.118  0.2691 -0.5395  0.1568
  558MOL0     C75218   0.743   9.805  12.073  0.3800  0.0239  0.3984
  558MOL0     O75219   0.681   9.733  12.180 -0.0905 -0.0807  0.2680
  558MOL0     C75220   0.706   9.599  12.189  0.5822  1.2573  0.0115
  558MOL0     C75221   0.716   9.517  12.073 -0.0081 -0.1821  0.1953
  558MOL0     C75222   0.763   9.387  12.094 -0.1423  0.1907 -0.2953
  558MOL0     C75223   0.786   9.311  11.976  0.4296  0.0967  0.1564
  558MOL0     C75224   0.783   9.339  12.230 -1.1853  0.1716  0.0942
  558MOL0     C75225   0.832   9.203  12.265 -0.8739  0.1796 -0.4875
  558MOL0     O75226   0.884   9.198  12.392 -0.0069  0.0103  0.4893
  558MOL0     C75227   0.915   9.077  12.452 -0.6542 -0.2085  0.6551
  558MOL0     C75228   0.822   8.975  12.469  0.8100  0.6928 -0.4478
  558MOL0     C75229   0.864   8.848  12.524  0.2437  0.0951 -0.2591
  558MOL0     C75230   0.991   8.828  12.564  0.6403  1.0261  0.3043
  558MOL0     O75231   1.021   8.690  12.603  0.2920 -0.1753 -0.6146
  558MOL0     C75232   1.152   8.640  12.587 -0.5185 -1.2005 -0.6806
  558MOL0     C75233   1.158   8.488  12.564  0.0729  0.0881  0.8128
  558MOL0     C75234   1.093   8.409  12.672 -0.1614 -0.2377 -0.7928
  558MOL0     C75235   1.142   8.263  12.664  0.6887  0.7986  0.6773
  558MOL0     C75236   1.076   8.188  12.786  1.4552 -0.2696  0.0941
  558MOL0     C75237   1.166   8.196  12.911  0.1130  0.5820 -0.9549
  558MOL0     C75238   1.095   8.166  13.050 -0.6503 -0.1905 -0.2211
  558MOL0     C75239   1.201   8.144  13.173  0.0732 -0.6198 -0.7420
  558MOL0    Cl75240   1.267   8.296  13.238 -0.0367  0.3202  0.1754
  558MOL0     C75241   1.079   8.928  12.554 -0.1096 -0.3352 -0.0409
  558MOL0     C75242   1.052   9.050  12.495 -0.4947 -0.3363  0.0451
  558MOL0     O75243   0.822   9.107  12.187 -0.9823  0.3665  0.0532
  558MOL0     C75244   0.775   9.433  12.335  0.3634 -0.1039  0.3312
  558MOL0     C75245   0.729   9.556  12.322 -0.1472 -0.3358 -0.1861
  558MOL0     N75246   1.119  10.227  11.991  0.6512 -0.2204 -0.0727
  558MOL0     N75247   1.165  10.298  11.898 -0.7502  0.0339 -0.7408
  558MOL0     C75248   0.694  10.780  10.915 -0.6357 -0.2966  0.0480
  558MOL0     C75249   0.627  10.761  10.795  1.2032 -0.5612 -0.3331
  558MOL0     C75250   0.288  10.717  10.512 -0.4762  1.2499 -0.9479
  558MOL0     C75251   0.236  10.812  10.425  0.6050 -0.4783 -0.0878
  558MOL0     C75252   0.174  10.774  10.298  0.1404 -0.7394  1.0973
  558MOL0     C75253   0.157  10.637  10.267 -0.1144 -0.1932 -0.7444
  558MOL0     O75254   0.119  10.582  10.146 -0.2426  0.1545  0.2002
  558MOL0     C75255   0.059  10.671  10.045 -0.8130  0.9263  0.5602
  558MOL0     C75256  -0.061  10.743  10.091 -0.3616  0.4410  0.0771
  558MOL0     C75257  -0.185  10.658  10.084  0.0416 -0.1326  0.4096
  558MOL0     C75258  -0.191  10.541  10.182 -0.3073  0.6515  0.3760
  558MOL0     C75259  -0.309  10.450  10.168 -0.4958  0.4408 -0.0198
  558MOL0     C75260  -0.395  10.368  10.186  1.0519 -0.9373 -0.2418
  558MOL0     C75261   0.184  10.550  10.367 -1.1839  0.0698 -0.1887
  558MOL0     C75262   0.255  10.582  10.481 -0.1764  0.9743 -0.3002
  558MOL0     H75263   0.438  10.491  10.899 -0.0446 -0.4854  2.9401
  558MOL0     H75264   0.558  10.540  11.105  2.2223 -1.6645  1.6708
  558MOL0     H75265   0.853  10.878  11.111 -1.1613 -2.2411 -2.0016
  558MOL0     H75266   0.733  10.902  11.239 -0.6885 -0.2496 -0.8303
  558MOL0     H75267   0.942  10.905  11.332 -1.2756  0.5594 -1.6292
  558MOL0     H75268   0.834  10.793  11.412  1.1558  3.6443  1.2748
  558MOL0     H75269   0.947  10.602  11.276  2.9332 -1.3299 -0.5692
  558MOL0     H75270   1.030  10.731  11.180  3.9342  2.0803  1.2364
  558MOL0     H75271   1.184  10.659  11.293 -1.5135  0.1905 -0.1714
  558MOL0     H75272   1.162  10.812  11.362  2.2154  0.7622 -2.6850
  558MOL0     H75273   1.033  10.694  11.549 -1.3403 -0.2282  0.1817
  558MOL0     H75274   1.053  10.542  11.452  0.3552  1.2346  0.2252
  558MOL0     H75275   1.284  10.546  11.503 -0.3537 -1.1148  0.8516
  558MOL0     H75276   1.275  10.704  11.582  2.0427 -1.0341 -3.0241
  558MOL0     H75277   1.298  10.519  11.723 -0.8640 -0.2140  0.1442
  558MOL0     H75278   1.164  10.634  11.770 -1.4784  1.3332 -0.7980
  558MOL0     H75279   1.122  10.380  11.630 -1.2609 -0.6859  0.3760
  558MOL0     H75280   0.990  10.493  11.678 -2.2358 -2.2425  1.8731
  558MOL0     H75281   0.853  10.399  11.880  0.8818 -1.0639  2.3500
  558MOL0     H75282   0.894  10.171  12.172 -2.8924 -2.1623  0.3067
  558MOL0     H75283   0.776  10.236  12.070  0.4684  1.1387  4.2408
  558MOL0     H75284   0.959   9.985  12.029  2.4239  3.5622 -1.2872
  558MOL0     H75285   0.826  10.033  11.920 -2.9463  1.6890  0.7891
  558MOL0     H75286   0.676  10.009  12.105  1.3217  0.9585 -0.9355
  558MOL0     H75287   0.809   9.961  12.220 -1.4208 -0.9666  0.9066
  558MOL0     H75288   0.846   9.768  12.066  0.5352  0.1449  1.7088
  558MOL0     H75289   0.692   9.800  11.977  1.5189 -1.0234 -0.1696
  558MOL0     H75290   0.709   9.556  11.972 -0.6122  3.9202  1.6125
  558MOL0     H75291   0.766   9.368  11.885 -5.2517 -1.5978 -0.0607
  558MOL0     H75292   0.881   9.256  11.967 -0.8557 -1.8756 -3.5929
  558MOL0     H75293   0.704   9.239  11.978  1.5687 -1.4093  4.3790
  558MOL0     H75294   0.717   8.990  12.446  0.2018  1.4416  2.4090
  558MOL0     H75295   0.789   8.770  12.532  1.0288 -0.5495  1.3103
  558MOL0     H75296   1.200   8.692  12.504  2.1953 -0.0644  1.4382
  558MOL0     H75297   1.205   8.669  12.678  1.7581  0.1816 -2.3446
  558MOL0     H75298   1.110   8.468  12.468  5.1673  2.2815 -2.6164
  558MOL0     H75299   1.264   8.464  12.550  0.5989  3.5694 -3.5014
  558MOL0     H75300   0.989   8.408  12.640 -0.7658  2.6563  0.8272
  558MOL0     H75301   1.107   8.447  12.773  2.7341 -2.4530 -0.2115
  558MOL0     H75302   1.107   8.219  12.570 -2.0657  1.4034  1.3234
  558MOL0     H75303   1.251   8.256  12.666  0.7337  1.6611  1.5904
  558MOL0     H75304   1.065   8.085  12.752  0.2998 -0.0723 -0.1969
  558MOL0     H75305   0.972   8.218  12.804  0.7761 -3.2782  1.8003
  558MOL0     H75306   1.251   8.133  12.884  0.9311  2.8839 -4.3545
  558MOL0     H75307   1.203   8.299  12.909 -0.3666  0.8023  0.4227
  558MOL0     H75308   1.035   8.075  13.051 -0.3066 -0.4285  1.4052
  558MOL0     H75309   1.026   8.244  13.084 -1.1149 -0.8499  0.3731
  558MOL0     H75310   1.285   8.091  13.126 -0.3216 -0.1073 -2.0758
  558MOL0     H75311   1.142   8.087  13.245 -1.1708  1.8690  0.3158
  558MOL0     H75312   1.180   8.922  12.593  0.2475 -0.8819 -1.0240
  558MOL0     H75313   1.134   9.119  12.476  0.1861  0.2373  4.1264
  558MOL0     H75314   0.813   9.411  12.434  2.6694 -0.0719 -0.4972
  558MOL0     H75315   0.728   9.617  12.412  0.7672  1.1602 -1.1455
  558MOL0     H75316   0.776  10.850  10.913  0.8816 -1.9990 -1.8177
  558MOL0     H75317   0.655  10.818  10.707  0.9791  0.6064  0.3438
  558MOL0     H75318   0.262  10.915  10.443  2.8535 -0.6561 -1.8378
  558MOL0     H75319   0.147  10.848  10.224 -2.8544 -1.3610  1.4491
  558MOL0     H75320   0.140  10.740  10.023  1.2986 -1.5045  0.2681
  558MOL0     H75321   0.050  10.603   9.960 -2.1399  1.6113  0.1179
  558MOL0     H75322  -0.074  10.836  10.035  0.3365 -0.4405 -1.6063
  558MOL0     H75323  -0.044  10.761  10.198  1.7175  0.8536 -0.2984
  558MOL0     H75324  -0.177  10.615   9.983 -0.6945  0.4671  0.0858
  558MOL0     H75325  -0.277  10.718  10.089 -0.6625 -1.0394 -1.0011
  558MOL0     H75326  -0.185  10.583  10.283  0.9473  2.5748 -0.4315
  558MOL0     H75327  -0.101  10.480  10.173 -1.2686 -1.2329  2.3888
  558MOL0     H75328  -0.469  10.298  10.219 -1.1127  0.4048 -1.9612
  558MOL0     H75329   0.174  10.448  10.332  1.5724  0.7188 -3.3550
  558MOL0     H75330   0.295  10.506  10.548 -0.9484 -0.6413 -1.5930
  559MOL0     O75331   3.827   2.484   2.255  0.8292 -0.2474 -0.2418
  559MOL0     C75332   3.814   2.605   2.286  0.7722 -0.2727  0.3736
  559MOL0     O75333   3.907   2.700   2.281 -1.3532 -0.0082  0.6434
  559MOL0     C75334   4.035   2.651   2.255  0.5174 -0.4302  0.5233
  559MOL0     C75335   4.096   2.704   2.147  0.5196  0.0028  1.2270
  559MOL0     C75336   4.226   2.672   2.109 -0.0560 -0.0963 -0.0391
  559MOL0     C75337   4.291   2.565   2.183  0.6515  0.3055  0.1636
  559MOL0     O75338   4.418   2.519   2.162  0.0861 -0.6560 -0.5750
  559MOL0     C75339   4.513   2.620   2.132  0.4210  0.4955  0.7724
  559MOL0     C75340   4.656   2.563   2.160 -0.9240  0.2695  0.9192
  559MOL0     C75341   4.744   2.638   2.061 -0.9967 -0.0079 -0.4541
  559MOL0     C75342   4.721   2.607   1.905  0.1573  0.0876  0.9177
  559MOL0     C75343   4.862   2.641   1.835  0.6868  0.0193 -0.7167
  559MOL0     C75344   4.858   2.612   1.689 -0.6681 -0.2698 -0.3867
  559MOL0     C75345   4.991   2.661   1.633 -0.0541 -0.0657  0.1596
  559MOL0     C75346   4.988   2.653   1.480 -0.9900  0.4834 -0.7887
  559MOL0     N75347   5.117   2.681   1.423  0.3853  0.7006  0.6517
  559MOL0     C75348   5.133   2.721   1.290 -0.9663 -0.0160  0.2982
  559MOL0     C75349   5.271   2.702   1.268  0.7626  0.6810  1.0547
  559MOL0     C75350   5.341   2.726   1.135  0.0482 -0.3960  0.4424
  559MOL0     C75351   5.394   2.873   1.117  0.4392 -0.3509  0.1212
  559MOL0     C75352   5.476   2.890   0.989 -0.1019  1.1546  0.0784
  559MOL0     C75353   5.402   2.979   0.884  0.9010  0.2692  0.9172
  559MOL0     O75354   5.287   2.928   0.815 -0.2688 -1.1468 -0.6194
  559MOL0     C75355   5.295   2.799   0.761  0.4724  0.5791 -0.8873
  559MOL0     C75356   5.401   2.754   0.675  0.1599 -0.3361  0.2800
  559MOL0     C75357   5.408   2.615   0.629 -0.8198  0.3449  0.4997
  559MOL0     C75358   5.523   2.563   0.545  0.1209  1.1472  0.1287
  559MOL0     C75359   5.300   2.528   0.654 -0.2110 -0.2829 -0.0199
  559MOL0     C75360   5.296   2.393   0.605 -0.8246 -0.0344  0.3000
  559MOL0     O75361   5.313   2.302   0.708 -0.3198  0.2279 -0.4160
  559MOL0     C75362   5.324   2.168   0.682  0.4297 -0.8917 -1.4072
  559MOL0     C75363   5.293   2.093   0.795  0.1709  0.1899  0.2991
  559MOL0     C75364   5.294   1.948   0.791 -0.0896 -0.1212 -0.4228
  559MOL0     C75365   5.331   1.888   0.679  0.4023 -0.4622  0.2752
  559MOL0     O75366   5.313   1.751   0.672  0.1084  0.4138 -0.3831
  559MOL0     C75367   5.354   1.671   0.563  0.1394 -0.4004 -0.1172
  559MOL0     C75368   5.282   1.530   0.563 -0.7504 -0.6447  0.2794
  559MOL0     C75369   5.361   1.424   0.494 -0.0891  0.0525  0.8136
  559MOL0     C75370   5.458   1.349   0.581  0.3672  0.2733 -0.6976
  559MOL0     C75371   5.564   1.268   0.508  0.0781  0.0255  0.3022
  559MOL0     C75372   5.655   1.346   0.406 -0.2357  0.2052  0.0162
  559MOL0     C75373   5.760   1.243   0.348  0.0404  0.5610 -0.5090
  559MOL0     C75374   5.801   1.253   0.201  0.9395 -0.7341 -0.4393
  559MOL0    Cl75375   5.643   1.256   0.112 -0.2907 -0.0084 -0.4731
  559MOL0     C75376   5.382   1.968   0.567 -0.3551  0.0576  0.7607
  559MOL0     C75377   5.376   2.109   0.571 -0.4852  0.4645 -1.3570
  559MOL0     O75378   5.279   2.369   0.482 -0.1490  0.1603  0.2841
  559MOL0     C75379   5.189   2.574   0.728 -0.1667 -0.2857  0.1782
  559MOL0     C75380   5.189   2.708   0.778 -0.7690  0.4637 -0.0832
  559MOL0     N75381   5.337   2.674   1.392 -0.1332 -0.5505  0.8016
  559MOL0     N75382   5.239   2.652   1.477 -0.1262  0.5856 -0.0708
  559MOL0     C75383   4.230   2.510   2.298  0.5223  0.2708  0.4122
  559MOL0     C75384   4.102   2.551   2.333  1.0133  0.6027  0.0026
  559MOL0     C75385   3.684   2.642   2.344 -0.3247 -0.1027 -1.0950
  559MOL0     C75386   3.642   2.774   2.349 -0.0396  0.1824 -0.8053
  559MOL0     C75387   3.521   2.809   2.400  1.1943 -0.7694 -0.3360
  559MOL0     C75388   3.429   2.709   2.443 -0.8431  0.1956  0.5738
  559MOL0     O75389   3.301   2.732   2.485  0.3426 -0.4675 -0.2471
  559MOL0     C75390   3.243   2.864   2.458 -0.4930 -0.0484 -0.2916
  559MOL0     C75391   3.198   2.892   2.311 -0.6873  0.7499  0.2632
  559MOL0     C75392   3.127   2.781   2.236 -0.4089  0.3010 -0.8644
  559MOL0     C75393   3.099   2.827   2.090  0.1459  0.6533 -0.6325
  559MOL0     C75394   3.060   2.722   1.997 -0.3800  0.1748 -0.8311
  559MOL0     C75395   3.032   2.643   1.913  0.0808 -0.3282  0.6259
  559MOL0     C75396   3.463   2.577   2.431 -0.5561  0.5433  0.2377
  559MOL0     C75397   3.590   2.540   2.385  1.1113  0.5074  0.4834
  559MOL0     H75398   4.048   2.777   2.082 -0.3394 -1.9183 -0.4327
  559MOL0     H75399   4.262   2.701   2.011  0.6488  0.9633  0.5077
  559MOL0     H75400   4.493   2.637   2.026  0.4135  0.8842  0.8348
  559MOL0     H75401   4.490   2.711   2.188 -2.4971  1.1148 -1.2078
  559MOL0     H75402   4.685   2.581   2.264 -0.9020 -0.0438  0.9670
  559MOL0     H75403   4.664   2.456   2.138  1.0222 -0.1640  3.3130
  559MOL0     H75404   4.728   2.743   2.088  0.0975  0.3483 -1.1186
  559MOL0     H75405   4.849   2.612   2.075 -0.0351  1.6880 -3.5852
  559MOL0     H75406   4.687   2.505   1.883 -0.7897  0.8736 -1.5895
  559MOL0     H75407   4.646   2.677   1.868 -0.3891 -2.4084 -3.3299
  559MOL0     H75408   4.868   2.748   1.854 -0.8195 -0.2895  1.9755
  559MOL0     H75409   4.942   2.584   1.883 -0.7355  0.5017  2.4661
  559MOL0     H75410   4.839   2.507   1.664 -1.8024 -0.4949  1.2817
  559MOL0     H75411   4.787   2.679   1.640  0.6584  2.6050  1.3761
  559MOL0     H75412   5.017   2.762   1.668  0.5268 -0.9170  2.4127
  559MOL0     H75413   5.064   2.597   1.685 -2.4637 -1.6014  1.8294
  559MOL0     H75414   4.920   2.730   1.441 -3.5768 -2.6836 -3.1459
  559MOL0     H75415   4.956   2.554   1.444  0.0621 -1.0349  2.1745
  559MOL0     H75416   5.047   2.744   1.226 -1.8440 -1.0551  1.0636
  559MOL0     H75417   5.429   2.662   1.128  0.8843  0.8533 -1.1934
  559MOL0     H75418   5.264   2.690   1.066 -1.6055  1.5957  1.1616
  559MOL0     H75419   5.462   2.891   1.201  1.0817 -2.6639  0.1649
  559MOL0     H75420   5.308   2.940   1.125 -1.5868 -2.9444  1.6833
  559MOL0     H75421   5.509   2.803   0.932  0.6313  2.0725 -0.9404
  559MOL0     H75422   5.560   2.956   1.012  0.0828  0.5544  1.1462
  559MOL0     H75423   5.482   3.003   0.813  1.4276  0.8715  1.6895
  559MOL0     H75424   5.387   3.070   0.943 -2.0175 -0.4340  1.4179
  559MOL0     H75425   5.490   2.815   0.660  1.4585 -1.4373  2.9499
  559MOL0     H75426   5.487   2.560   0.442  1.6338  0.7384 -0.4153
  559MOL0     H75427   5.611   2.625   0.561  2.2772 -1.3969 -0.9679
  559MOL0     H75428   5.549   2.459   0.568 -0.8725  0.3682 -2.0632
  559MOL0     H75429   5.262   2.147   0.884 -1.6055  0.0089 -0.1727
  559MOL0     H75430   5.273   1.894   0.883 -0.4032  2.3922  1.0733
  559MOL0     H75431   5.331   1.718   0.468  0.1632  0.4241  0.2757
  559MOL0     H75432   5.463   1.665   0.564  0.2203 -1.7548 -3.7662
  559MOL0     H75433   5.251   1.508   0.666 -0.6130 -0.7489  0.2978
  559MOL0     H75434   5.184   1.536   0.514  0.0653 -0.9404 -1.4352
  559MOL0     H75435   5.410   1.465   0.405 -0.1096 -0.3681  0.6045
  559MOL0     H75436   5.293   1.354   0.445  2.9143  0.4727 -4.8759
  559MOL0     H75437   5.509   1.418   0.649  0.1953 -0.9995  0.7498
  559MOL0     H75438   5.407   1.278   0.646  2.8898 -0.4314  0.6558
  559MOL0     H75439   5.512   1.198   0.442  0.6344  1.3034 -1.5721
  559MOL0     H75440   5.633   1.210   0.571 -0.3903  0.7776  1.5444
  559MOL0     H75441   5.601   1.406   0.332 -3.1035 -0.5844  1.3661
  559MOL0     H75442   5.716   1.421   0.459 -1.8640  0.1210  2.1456
  559MOL0     H75443   5.726   1.141   0.366  1.7413  0.1413  0.4942
  559MOL0     H75444   5.842   1.267   0.416 -0.4768  0.5193  0.1365
  559MOL0     H75445   5.865   1.176   0.156  1.5301  0.1781 -1.2037
  559MOL0     H75446   5.843   1.353   0.187 -1.4623  0.2939 -0.7739
  559MOL0     H75447   5.424   1.935   0.473 -0.6751  3.8912 -0.9212
  559MOL0     H75448   5.416   2.164   0.486  1.0201  0.2278 -0.8342
  559MOL0     H75449   5.113   2.502   0.758 -1.2073  1.3523  1.6960
  559MOL0     H75450   5.103   2.743   0.835 -0.4996 -0.7103  1.1118
  559MOL0     H75451   4.294   2.449   2.360  1.3962  1.5143  0.7644
  559MOL0     H75452   4.053   2.506   2.419  2.0495 -1.9032 -0.6162
  559MOL0     H75453   3.699   2.854   2.303 -0.7236  0.7937 -0.6138
  559MOL0     H75454   3.490   2.912   2.389 -0.0429 -1.2534 -1.7710
  559MOL0     H75455   3.166   2.886   2.533 -0.8553  1.8509 -1.1431
  559MOL0     H75456   3.321   2.938   2.479  0.1752 -0.0586 -2.4871
  559MOL0     H75457   3.288   2.912   2.251  0.0807 -5.2593 -1.2310
  559MOL0     H75458   3.134   2.980   2.302  0.1492  1.5084  1.3654
  559MOL0     H75459   3.030   2.744   2.270  0.3803  0.3684  1.6740
  559MOL0     H75460   3.202   2.702   2.226  0.9884  1.2845  0.9854
  559MOL0     H75461   3.185   2.890   2.067  0.8462  0.5732  1.5030
  559MOL0     H75462   3.018   2.900   2.100  0.1036  0.6855 -1.1924
  559MOL0     H75463   3.013   2.576   1.832  2.6014  1.2458 -1.4222
  559MOL0     H75464   3.406   2.492   2.468  0.7703 -1.4637 -2.0781
  559MOL0     H75465   3.606   2.433   2.377 -0.0912  0.4194 -1.1854
  560MOL0     O75466   0.854  10.945   9.000  0.1377  0.2225  0.4280
  560MOL0     C75467   0.868  11.038   9.076 -0.2017 -0.8891  0.3733
  560MOL0     O75468   0.782  11.149   9.089 -0.3478 -0.4097 -0.2184
  560MOL0     C75469   0.666  11.147   9.014  0.2309 -0.8866  0.1885
  560MOL0     C75470   0.635  11.283   8.971 -0.1498  0.4235 -0.0505
  560MOL0     C75471   0.512  11.311   8.907 -0.7313 -0.0656 -0.5043
  560MOL0     C75472   0.430  11.204   8.882  0.5029 -0.5532  0.0544
  560MOL0     O75473   0.304  11.220   8.835 -0.5140 -0.4229 -0.2695
  560MOL0     C75474   0.316  11.237   8.693 -0.3919  0.2748  0.3927
  560MOL0     C75475   0.183  11.263   8.625 -0.4597 -0.1465 -0.5179
  560MOL0     C75476   0.098  11.373   8.682 -0.5752 -0.9528 -0.7558
  560MOL0     C75477  -0.042  11.371   8.630  0.1297  0.7142 -0.8625
  560MOL0     C75478  -0.141  11.455   8.713  0.6728  0.7280 -0.7987
  560MOL0     C75479  -0.210  11.563   8.635  0.1738 -0.4050 -0.1682
  560MOL0     C75480  -0.113  11.668   8.581 -0.3562 -0.6977  0.1860
  560MOL0     C75481  -0.168  11.784   8.491  0.8871  0.7216 -0.0928
  560MOL0     N75482  -0.246  11.888   8.559 -0.0246  0.4324 -0.2651
  560MOL0     C75483  -0.377  11.875   8.594 -0.3442  0.3195  0.3665
  560MOL0     C75484  -0.419  11.993   8.638 -0.2425  0.1377 -0.5283
  560MOL0     C75485  -0.552  12.039   8.700  0.0070  0.4093 -0.3177
  560MOL0     C75486  -0.662  12.025   8.607  0.4101  0.6226  1.1562
  560MOL0     C75487  -0.785  12.069   8.684  0.0090  0.2623 -0.1006
  560MOL0     C75488  -0.916  12.056   8.616  0.2324 -0.5624 -0.7027
  560MOL0     O75489  -0.999  11.965   8.690  1.4041  0.3102 -0.4595
  560MOL0     C75490  -1.139  11.954   8.664 -0.4142 -0.1278 -0.8005
  560MOL0     C75491  -1.212  11.860   8.728  0.1570 -0.3998 -0.1513
  560MOL0     C75492  -1.343  11.837   8.729  0.1762 -0.7338 -1.3147
  560MOL0     C75493  -1.386  11.729   8.832 -0.3210 -0.1716  0.5999
  560MOL0     C75494  -1.421  11.921   8.653  0.2156  0.2114  1.0409
  560MOL0     C75495  -1.573  11.913   8.645  0.6558  0.1426 -0.8094
  560MOL0     O75496  -1.640  12.021   8.588 -0.0576  0.3086  0.2851
  560MOL0     C75497  -1.765  12.016   8.534  0.9869  0.1770  0.5056
  560MOL0     C75498  -1.867  12.053   8.621 -0.6652  0.0716  0.1614
  560MOL0     C75499  -1.996  12.079   8.569 -0.9276 -0.2920 -0.0179
  560MOL0     C75500  -2.012  12.081   8.430  0.5753  0.4969  0.5636
  560MOL0     O75501  -2.127  12.111   8.371  0.7136 -0.0403 -0.2534
  560MOL0     C75502  -2.248  12.150   8.435 -0.2565  0.1191 -0.5529
  560MOL0     C75503  -2.313  12.033   8.507  0.7720 -0.3255  0.0292
  560MOL0     C75504  -2.464  12.044   8.523 -0.2962 -0.1929 -0.5779
  560MOL0     C75505  -2.530  11.990   8.394  0.4596  0.8106 -0.3742
  560MOL0     C75506  -2.682  12.005   8.370 -0.1975  0.1300  0.3465
  560MOL0     C75507  -2.760  11.888   8.437  0.0186  0.6800  0.3739
  560MOL0     C75508  -2.908  11.908   8.426  0.5587  0.5740 -0.2376
  560MOL0     C75509  -2.966  11.993   8.537 -0.1476  0.4589 -0.0087
  560MOL0    Cl75510  -2.938  11.907   8.698 -0.1407  0.1593 -0.0694
  560MOL0     C75511  -1.909  12.041   8.349 -0.5754 -0.0559 -0.6720
  560MOL0     C75512  -1.783  12.018   8.394  0.0324 -0.3199  0.1362
  560MOL0     O75513  -1.627  11.808   8.679 -0.2275 -0.5421 -0.3729
  560MOL0     C75514  -1.357  12.018   8.571 -0.3174 -0.1473 -1.1091
  560MOL0     C75515  -1.212  12.033   8.581  0.5303  0.0099  0.1035
  560MOL0     N75516  -0.305  12.071   8.625  0.0995  0.9203 -0.0610
  560MOL0     N75517  -0.201  12.013   8.576 -0.8976  0.5646  0.6437
  560MOL0     C75518   0.464  11.077   8.911 -0.7440 -0.4190 -0.1038
  560MOL0     C75519   0.577  11.046   8.987  1.1865 -0.6139  0.0500
  560MOL0     C75520   0.986  11.059   9.158  0.3339  0.5002 -0.2627
  560MOL0     C75521   1.038  10.949   9.222 -1.0693  0.1521 -0.2196
  560MOL0     C75522   1.147  10.956   9.316 -0.2721 -0.2485 -1.1904
  560MOL0     C75523   1.192  11.087   9.348  1.0879  0.2663  0.2562
  560MOL0     O75524   1.276  11.096   9.456 -0.0558  0.5799  0.9505
  560MOL0     C75525   1.404  11.147   9.404  0.6562  0.3356  0.3135
  560MOL0     C75526   1.504  11.152   9.514 -0.5805  0.0421 -0.7819
  560MOL0     C75527   1.646  11.201   9.470  0.2332 -0.1687 -0.1050
  560MOL0     C75528   1.740  11.091   9.411  0.2716  0.2112  0.6369
  560MOL0     C75529   1.742  11.090   9.268  0.0980  0.4998  1.3757
  560MOL0     C75530   1.789  11.107   9.159 -0.3627 -0.8418  0.2681
  560MOL0     C75531   1.139  11.200   9.285  0.2080  0.9115 -0.7277
  560MOL0     C75532   1.039  11.187   9.190  0.2553 -0.6311  0.1169
  560MOL0     H75533   0.704  11.362   9.001 -1.5910  1.1331  1.5488
  560MOL0     H75534   0.481  11.412   8.885  1.0615  1.0592  1.7281
  560MOL0     H75535   0.371  11.326   8.661 -3.4461  2.4440  0.7793
  560MOL0     H75536   0.372  11.149   8.661  0.1123  0.2446  1.3461
  560MOL0     H75537   0.198  11.294   8.521  1.8775 -2.6055 -1.0185
  560MOL0     H75538   0.125  11.171   8.638 -0.5395  0.3350  4.0217
  560MOL0     H75539   0.091  11.374   8.792  0.6031  1.2069 -0.6564
  560MOL0     H75540   0.133  11.469   8.643 -2.1431 -0.1038 -0.2040
  560MOL0     H75541  -0.033  11.404   8.526  1.4361  2.4525 -0.2492
  560MOL0     H75542  -0.068  11.265   8.637  1.2577  0.3711 -1.6430
  560MOL0     H75543  -0.223  11.395   8.752 -0.7491 -0.3465 -4.8579
  560MOL0     H75544  -0.090  11.505   8.795 -0.3445 -2.1587  1.7629
  560MOL0     H75545  -0.280  11.528   8.559  0.0962  2.2511 -1.4219
  560MOL0     H75546  -0.266  11.623   8.706  0.0153 -0.6141 -0.1140
  560MOL0     H75547  -0.045  11.712   8.655  0.9164 -0.8103 -0.8732
  560MOL0     H75548  -0.053  11.624   8.501 -1.7848  1.2768 -2.1343
  560MOL0     H75549  -0.225  11.724   8.420  2.3547 -0.0390 -0.6681
  560MOL0     H75550  -0.094  11.836   8.430  0.5495 -2.1867 -3.2499
  560MOL0     H75551  -0.443  11.791   8.579 -0.3314  0.1029  1.4824
  560MOL0     H75552  -0.572  11.987   8.794  0.1183  0.1740 -0.4238
  560MOL0     H75553  -0.538  12.145   8.723 -0.7081  0.6363 -0.8943
  560MOL0     H75554  -0.676  11.924   8.568  1.1570  1.6156 -2.0612
  560MOL0     H75555  -0.663  12.086   8.515  0.1785  2.3661  2.2690
  560MOL0     H75556  -0.762  12.173   8.710 -0.2025 -0.3426  2.7940
  560MOL0     H75557  -0.792  12.026   8.784  2.0801  0.4666  0.1685
  560MOL0     H75558  -0.904  12.050   8.508  1.3448  2.5370 -0.8330
  560MOL0     H75559  -0.970  12.150   8.626 -0.7471 -0.7858 -3.1247
  560MOL0     H75560  -1.150  11.783   8.774 -0.4116  0.9589  3.1616
  560MOL0     H75561  -1.304  11.732   8.905  1.2602  3.1581 -1.0852
  560MOL0     H75562  -1.482  11.757   8.876 -1.7120  1.5281 -3.1091
  560MOL0     H75563  -1.397  11.630   8.788  0.2680 -0.6021  1.3936
  560MOL0     H75564  -1.839  12.080   8.722  3.8018  1.8244 -1.3071
  560MOL0     H75565  -2.079  12.078   8.638 -1.1893  2.0149 -0.2188
  560MOL0     H75566  -2.222  12.228   8.507 -0.3626 -2.3042  2.3039
  560MOL0     H75567  -2.303  12.192   8.351 -1.5681  2.4815  1.3632
  560MOL0     H75568  -2.292  11.944   8.448  1.7369  0.2904 -0.6005
  560MOL0     H75569  -2.265  12.009   8.603 -0.8355 -1.8103  0.5000
  560MOL0     H75570  -2.490  12.149   8.543  2.7173  0.5454  0.0154
  560MOL0     H75571  -2.494  11.987   8.611  2.1865  1.1395  1.2543
  560MOL0     H75572  -2.473  12.033   8.311  1.7017 -0.4947 -0.2384
  560MOL0     H75573  -2.509  11.883   8.394  0.3844  0.7949 -0.7369
  560MOL0     H75574  -2.693  12.006   8.262  0.4702  2.0225  0.2559
  560MOL0     H75575  -2.728  12.093   8.416 -0.7205 -0.9751  2.0645
  560MOL0     H75576  -2.731  11.790   8.397 -2.7961  1.2667 -3.7170
  560MOL0     H75577  -2.729  11.880   8.542 -2.8540 -3.1746  1.1550
  560MOL0     H75578  -2.956  11.809   8.424 -0.9428  1.1590  2.1081
  560MOL0     H75579  -2.922  11.948   8.326 -1.9422  0.0623 -0.1675
  560MOL0     H75580  -3.074  11.996   8.526 -0.2935 -0.4203  0.9525
  560MOL0     H75581  -2.919  12.092   8.532 -0.0998  0.4678  0.5546
  560MOL0     H75582  -1.926  12.058   8.243 -0.8357 -0.2492 -0.6639
  560MOL0     H75583  -1.694  11.996   8.337  0.1452  1.6446 -0.5298
  560MOL0     H75584  -1.412  12.086   8.506 -0.5665 -1.2203 -2.0379
  560MOL0     H75585  -1.164  12.109   8.519  6.0608 -2.2967  0.9158
  560MOL0     H75586   0.385  11.003   8.912 -0.1259 -1.1548  2.3472
  560MOL0     H75587   0.591  10.944   9.020  0.3719 -1.3552 -1.7612
  560MOL0     H75588   1.002  10.849   9.202  0.8897 -0.8501  0.9802
  560MOL0     H75589   1.184  10.868   9.368 -0.8802 -0.1008 -0.4957
  560MOL0     H75590   1.440  11.096   9.315 -0.0157 -0.8893  0.7251
  560MOL0     H75591   1.391  11.246   9.360 -0.1668 -1.0589 -2.8305
  560MOL0     H75592   1.519  11.051   9.552 -0.7279  0.5318  0.6574
  560MOL0     H75593   1.462  11.221   9.588  1.2303 -0.9363  1.2465
  560MOL0     H75594   1.697  11.242   9.558 -0.7766  1.2598 -0.1463
  560MOL0     H75595   1.624  11.288   9.408 -1.2070  1.9452  3.1022
  560MOL0     H75596   1.698  10.993   9.433 -0.7706  0.7065  0.9500
  560MOL0     H75597   1.841  11.108   9.448  1.4591 -2.3185 -1.1790
  560MOL0     H75598   1.846  11.121   9.070  1.5475 -2.0743  1.2207
  560MOL0     H75599   1.184  11.294   9.315  1.7605  1.3090 -3.8802
  560MOL0     H75600   0.997  11.267   9.130  1.1983 -2.0217 -2.6131
  561MOL0     O75601   6.753   6.858  10.829  0.5954  0.4037 -0.4592
  561MOL0     C75602   6.833   6.945  10.795  0.5094  0.0911 -0.5974
  561MOL0     O75603   6.912   7.023  10.873  0.0283  0.3964  0.4565
  561MOL0     C75604   6.877   6.999  11.010  0.1916  0.3277 -0.5337
  561MOL0     C75605   6.918   6.880  11.065  0.0149  1.1034  0.2629
  561MOL0     C75606   6.886   6.848  11.199  0.1402  0.1456 -0.2557
  561MOL0     C75607   6.822   6.942  11.283 -0.1734 -0.2860  0.0042
  561MOL0     O75608   6.788   6.904  11.405  0.2618  0.0647  0.0943
  561MOL0     C75609   6.883   6.889  11.508 -0.6333 -0.4496 -0.5912
  561MOL0     C75610   6.844   6.980  11.625 -0.0111 -0.1813  0.4337
  561MOL0     C75611   6.934   6.951  11.747  0.1157 -0.2974 -0.0968
  561MOL0     C75612   6.965   7.084  11.838  0.2697 -0.2193 -0.3449
  561MOL0     C75613   7.093   7.078  11.934  0.0805 -0.2026 -0.3535
  561MOL0     C75614   7.075   7.130  12.078  0.8129 -0.5331 -1.1077
  561MOL0     C75615   7.195   7.104  12.177  1.1290  0.2921 -0.0752
  561MOL0     C75616   7.142   7.096  12.319  0.3440 -0.1587  0.4561
  561MOL0     N75617   7.251   7.054  12.410  0.0536  0.1675 -0.3983
  561MOL0     C75618   7.336   6.950  12.387  0.2556  0.4822  0.3650
  561MOL0     C75619   7.393   6.914  12.496 -0.3027  0.3893 -0.2385
  561MOL0     C75620   7.481   6.797  12.521  0.1645  0.0686 -0.6109
  561MOL0     C75621   7.583   6.817  12.641 -0.3430 -0.3265 -0.0537
  561MOL0     C75622   7.700   6.909  12.602 -0.6952 -0.1423 -0.4923
  561MOL0     C75623   7.740   7.001  12.719  0.3109  0.4425 -0.1106
  561MOL0     O75624   7.861   7.067  12.685  0.1605  0.5656  0.2300
  561MOL0     C75625   7.931   7.103  12.795 -0.2229 -0.7681 -0.1573
  561MOL0     C75626   8.045   7.030  12.845  0.6242 -0.3660 -1.1822
  561MOL0     C75627   8.117   7.073  12.958 -0.1272 -0.5898  0.2115
  561MOL0     C75628   8.228   6.989  13.022  1.0994 -0.3806  0.3520
  561MOL0     C75629   8.062   7.190  13.028 -0.6458  0.1437  0.2854
  561MOL0     C75630   8.104   7.236  13.165 -0.1388 -1.2331  0.4954
  561MOL0     O75631   8.016   7.298  13.254 -0.2620  0.6039 -0.4190
  561MOL0     C75632   8.047   7.296  13.390 -0.2321 -0.7637  0.3992
  561MOL0     C75633   8.139   7.383  13.449 -0.0752  0.7951 -0.0685
  561MOL0     C75634   8.182   7.376  13.582  0.2407  0.9034  0.6420
  561MOL0     C75635   8.134   7.256  13.658 -0.6684 -0.8283  0.0610
  561MOL0     O75636   8.180   7.240  13.780  0.4634 -0.1408 -0.1252
  561MOL0     C75637   8.199   7.116  13.840 -0.0146 -0.3209  0.0179
  561MOL0     C75638   8.238   7.138  13.984  0.1001 -0.1641 -0.3064
  561MOL0     C75639   8.110   7.192  14.060  0.2556  0.2018 -0.2484
  561MOL0     C75640   8.136   7.324  14.134  0.1759  0.4228  0.6282
  561MOL0     C75641   8.097   7.445  14.064  1.0323 -0.0869  1.5945
  561MOL0     C75642   8.092   7.580  14.146  0.7428 -0.0044  1.6810
  561MOL0     C75643   8.033   7.701  14.077 -0.2622 -1.3065  0.4037
  561MOL0     C75644   7.896   7.739  14.119  0.0052  0.9908 -0.1749
  561MOL0    Cl75645   7.891   7.802  14.282 -0.2334  1.0140  0.0240
  561MOL0     C75646   8.036   7.173  13.596 -0.1251 -0.0654 -0.5117
  561MOL0     C75647   7.994   7.192  13.467  1.3434 -0.8997  0.2604
  561MOL0     O75648   8.231   7.234  13.179  0.6266 -0.4431 -0.3554
  561MOL0     C75649   7.949   7.252  12.976  0.2650 -0.1403  0.0960
  561MOL0     C75650   7.881   7.213  12.863  0.3216 -0.0255  0.6298
  561MOL0     N75651   7.352   7.007  12.594  0.4912 -0.1611 -0.3632
  561MOL0     N75652   7.273   7.099  12.540  0.3434  0.4528  0.6656
  561MOL0     C75653   6.784   7.063  11.226 -0.4611  0.6353  0.6274
  561MOL0     C75654   6.810   7.087  11.088 -0.2045  0.2629 -0.4330
  561MOL0     C75655   6.861   6.962  10.654 -0.5285 -0.3164 -0.4747
  561MOL0     C75656   6.842   6.868  10.553 -0.4358 -0.8194 -0.5513
  561MOL0     C75657   6.837   6.899  10.415 -0.2607 -0.3822 -0.4869
  561MOL0     C75658   6.883   7.025  10.372  1.2077  0.8314  0.0685
  561MOL0     O75659   6.907   7.052  10.239 -0.1857  0.3485 -0.3576
  561MOL0     C75660   7.040   7.102  10.218  0.4940  0.8040 -0.2146
  561MOL0     C75661   7.164   7.007  10.243  0.0331  0.1778  0.5637
  561MOL0     C75662   7.144   6.873  10.150  0.5924  0.0248  0.5982
  561MOL0     C75663   7.173   6.906  10.001  0.7759 -0.3898 -0.3858
  561MOL0     C75664   7.175   6.783   9.926 -1.2053 -0.0820  0.0230
  561MOL0     C75665   7.160   6.680   9.864 -0.0403  0.6238  1.1913
  561MOL0     C75666   6.904   7.120  10.470  0.1004  0.5585 -0.6324
  561MOL0     C75667   6.893   7.089  10.613  0.1671 -0.7341  0.7020
  561MOL0     H75668   6.966   6.800  11.010 -0.0409 -0.7914  2.8134
  561MOL0     H75669   6.928   6.763  11.251  1.3935  0.3423 -0.8930
  561MOL0     H75670   6.896   6.786  11.541  0.6003  0.4526  2.0224
  561MOL0     H75671   6.979   6.937  11.486  0.7463 -0.6180  4.1129
  561MOL0     H75672   6.855   7.086  11.603  0.6358 -0.5789 -1.2535
  561MOL0     H75673   6.739   6.954  11.639  0.1619 -1.4362 -0.4686
  561MOL0     H75674   6.886   6.870  11.803  0.5852 -0.2656  0.3628
  561MOL0     H75675   7.038   6.922  11.730  0.5209  2.1554 -2.2900
  561MOL0     H75676   6.975   7.175  11.778 -0.6395  0.8417  1.0548
  561MOL0     H75677   6.870   7.104  11.890 -1.7931 -2.3701 -2.9358
  561MOL0     H75678   7.133   6.976  11.937  0.3767 -0.3547 -4.3301
  561MOL0     H75679   7.162   7.145  11.883 -0.3541  1.3182  0.9536
  561MOL0     H75680   7.073   7.239  12.068  1.7386 -0.4655 -0.7028
  561MOL0     H75681   6.981   7.108  12.128  1.0701  1.1775  0.2266
  561MOL0     H75682   7.245   7.011  12.147  0.6616 -0.0992  0.3501
  561MOL0     H75683   7.263   7.189  12.168  2.2178 -0.2512  2.3926
  561MOL0     H75684   7.063   7.020  12.323  0.9710 -0.9329 -1.0575
  561MOL0     H75685   7.100   7.193  12.348  2.8616  0.7832  1.2326
  561MOL0     H75686   7.362   6.902  12.293  0.0034  1.7862 -0.4101
  561MOL0     H75687   7.422   6.706  12.537 -0.3137  0.2867 -1.1060
  561MOL0     H75688   7.530   6.771  12.427 -1.9030  1.1025 -2.0444
  561MOL0     H75689   7.633   6.723  12.668  0.6009  0.2423  0.2601
  561MOL0     H75690   7.540   6.862  12.731 -0.2506  1.0626 -0.6810
  561MOL0     H75691   7.661   6.977  12.526 -1.5144 -0.2653 -0.1886
  561MOL0     H75692   7.791   6.863  12.561  0.7198  2.2575 -0.2600
  561MOL0     H75693   7.753   6.940  12.809  3.3725  2.0986  0.7182
  561MOL0     H75694   7.661   7.071  12.748 -0.2666 -1.1775  2.6087
  561MOL0     H75695   8.076   6.943  12.788 -2.6657 -2.4294 -0.1233
  561MOL0     H75696   8.227   6.891  12.972  1.4308  1.7168 -4.2440
  561MOL0     H75697   8.332   7.022  13.026  1.1273 -0.4324  0.1056
  561MOL0     H75698   8.206   6.966  13.126 -0.8387  2.9239  0.7972
  561MOL0     H75699   8.186   7.463  13.393  0.3637  0.1689 -0.6079
  561MOL0     H75700   8.250   7.453  13.615  0.9638  0.2486  0.7113
  561MOL0     H75701   8.108   7.056  13.841 -0.8411  0.7995 -2.2427
  561MOL0     H75702   8.280   7.059  13.793  2.3135  1.8476  1.1698
  561MOL0     H75703   8.268   7.041  14.026 -0.0662  0.0291  0.2743
  561MOL0     H75704   8.321   7.209  13.990 -0.7811  0.7962  1.2982
  561MOL0     H75705   8.073   7.113  14.126  2.3779  0.8734  1.8922
  561MOL0     H75706   8.035   7.215  13.983 -0.7243  2.8018  1.3586
  561MOL0     H75707   8.079   7.317  14.228 -1.4988 -0.0847 -0.3757
  561MOL0     H75708   8.244   7.334  14.146  0.3847 -1.6957  0.9185
  561MOL0     H75709   7.999   7.417  14.023  1.2966 -1.3145  1.7678
  561MOL0     H75710   8.169   7.459  13.983 -0.7768 -2.2426 -0.5357
  561MOL0     H75711   8.037   7.565  14.239 -2.1408 -1.8805 -0.1776
  561MOL0     H75712   8.192   7.607  14.181  1.5465 -0.1963 -0.3303
  561MOL0     H75713   8.024   7.675  13.971  0.9413 -3.0541  0.6795
  561MOL0     H75714   8.089   7.793  14.094 -5.0435  2.1247 -0.2868
  561MOL0     H75715   7.840   7.645  14.113  2.2479 -0.3922 -0.7424
  561MOL0     H75716   7.845   7.798  14.043  1.4277  0.9942 -1.1758
  561MOL0     H75717   7.992   7.095  13.658 -3.2585  3.1942  1.7287
  561MOL0     H75718   7.914   7.134  13.423 -0.9866  1.1476  1.5368
  561MOL0     H75719   7.918   7.341  13.029 -1.8713 -1.3286  0.9672
  561MOL0     H75720   7.794   7.264  12.823  0.6049 -0.6003 -0.8101
  561MOL0     H75721   6.733   7.137  11.287 -1.0777  0.3902  0.4136
  561MOL0     H75722   6.776   7.183  11.052 -0.5393 -0.5773 -2.5453
  561MOL0     H75723   6.817   6.765  10.572 -3.9705  0.2907  1.7095
  561MOL0     H75724   6.825   6.818  10.344 -0.8000 -0.1780 -0.6301
  561MOL0     H75725   7.058   7.137  10.115  0.7640 -1.1527 -0.8697
  561MOL0     H75726   7.052   7.191  10.280 -1.3589  0.9198  0.0421
  561MOL0     H75727   7.170   6.983  10.350  0.0688  0.1906  0.5646
  561MOL0     H75728   7.258   7.055  10.214  0.9520 -1.5241  0.6129
  561MOL0     H75729   7.040   6.841  10.166 -0.6547  1.3908 -3.5759
  561MOL0     H75730   7.218   6.799  10.183  2.5899  1.6020 -0.1978
  561MOL0     H75731   7.276   6.942   9.994  1.3140 -1.1736  2.5092
  561MOL0     H75732   7.097   6.978   9.970 -0.2834 -2.0517 -1.8781
  561MOL0     H75733   7.136   6.597   9.801 -1.0110  1.2342  0.7425
  561MOL0     H75734   6.946   7.218  10.447  5.3897 -1.6638 -1.8956
  561MOL0     H75735   6.887   7.167  10.687  1.1959  0.3046 -0.2750
  562MOL0     O75736   1.314   4.908   2.214 -0.1737  0.6302 -0.3367
  562MOL0     C75737   1.301   4.916   2.336  0.1119  0.2535 -0.2229
  562MOL0     O75738   1.258   5.024   2.403  0.0936 -0.2800  0.0162
  562MOL0     C75739   1.191   5.139   2.348  0.4609 -0.1072 -0.7502
  562MOL0     C75740   1.090   5.146   2.248 -0.1719  0.2055 -0.0163
  562MOL0     C75741   1.042   5.271   2.218  0.6332  0.2949 -0.1983
  562MOL0     C75742   1.080   5.385   2.277 -0.3992 -0.3670  0.3649
  562MOL0     O75743   1.010   5.499   2.222 -0.4313  0.2048 -0.1928
  562MOL0     C75744   1.075   5.629   2.254 -0.0010 -0.7190 -0.0943
  562MOL0     C75745   0.969   5.729   2.207  0.3858  0.4169  0.1230
  562MOL0     C75746   1.016   5.874   2.235 -0.2360 -0.1049  0.7263
  562MOL0     C75747   0.964   5.981   2.127 -0.9364  0.8497  0.0140
  562MOL0     C75748   1.030   6.114   2.151 -0.0527  0.2464 -1.0714
  562MOL0     C75749   0.989   6.224   2.053  1.1702 -0.2640 -0.0116
  562MOL0     C75750   1.061   6.359   2.070 -0.2647 -0.7779  0.8996
  562MOL0     C75751   1.006   6.476   1.980  0.1547  0.4831  0.5342
  562MOL0     N75752   1.062   6.606   2.016 -0.2218  0.9646 -0.6759
  562MOL0     C75753   1.137   6.687   1.935 -0.0368 -0.1005  0.9472
  562MOL0     C75754   1.119   6.809   1.984  0.0735  0.1803  0.1302
  562MOL0     C75755   1.165   6.942   1.923  1.1504  0.0807 -0.7365
  562MOL0     C75756   1.048   7.040   1.923  0.9552  0.4745 -0.0928
  562MOL0     C75757   0.945   6.993   1.818  0.2504 -0.0984  0.1952
  562MOL0     C75758   0.825   7.094   1.823 -0.2074 -0.5049  0.5053
  562MOL0     O75759   0.744   7.036   1.718  0.3886 -0.5247  0.7317
  562MOL0     C75760   0.613   6.995   1.757  0.5695 -0.5449 -0.3172
  562MOL0     C75761   0.557   6.873   1.712  0.4328  0.0695 -0.6006
  562MOL0     C75762   0.434   6.818   1.761  0.1078 -0.2636  1.0392
  562MOL0     C75763   0.403   6.674   1.707  0.6629  0.1952  0.0409
  562MOL0     C75764   0.348   6.893   1.849 -0.6058 -0.7169 -1.2386
  562MOL0     C75765   0.209   6.850   1.911 -0.1442  1.2037 -0.2354
  562MOL0     O75766   0.124   6.942   1.970 -0.2106  0.8540  0.4911
  562MOL0     C75767   0.013   6.896   2.030 -0.1241 -0.9704  0.2447
  562MOL0     C75768  -0.100   6.975   2.022 -0.6051 -0.7105 -0.7118
  562MOL0     C75769  -0.216   6.947   2.100 -0.3863  0.1179 -0.6723
  562MOL0     C75770  -0.226   6.843   2.191  0.0091 -0.1609  0.2359
  562MOL0     O75771  -0.340   6.831   2.267  0.3979 -0.2524 -0.2543
  562MOL0     C75772  -0.327   6.848   2.403 -0.2970 -0.0514 -0.0181
  562MOL0     C75773  -0.310   6.998   2.432 -0.2541 -0.4490 -0.4194
  562MOL0     C75774  -0.295   7.032   2.575 -0.2176 -0.5624 -0.2994
  562MOL0     C75775  -0.306   7.183   2.600  0.3532  0.3900  0.4230
  562MOL0     C75776  -0.452   7.233   2.603  0.7945  0.1115 -0.4931
  562MOL0     C75777  -0.463   7.368   2.677 -0.2224  0.0185  0.9353
  562MOL0     C75778  -0.415   7.352   2.826  0.1200 -0.3442  0.3041
  562MOL0     C75779  -0.455   7.470   2.920  0.0851 -0.6488  0.5641
  562MOL0    Cl75780  -0.390   7.621   2.839 -0.2057  0.3710  0.1165
  562MOL0     C75781  -0.109   6.762   2.201  0.5213 -0.2033  0.4122
  562MOL0     C75782   0.007   6.797   2.126 -0.5866  0.6966  0.3822
  562MOL0     O75783   0.189   6.726   1.911  0.1816 -0.0120 -0.2621
  562MOL0     C75784   0.393   7.030   1.864  0.7694  0.4112 -1.1051
  562MOL0     C75785   0.528   7.077   1.838 -0.0713  0.7547  0.7036
  562MOL0     N75786   1.040   6.809   2.093 -0.0228  0.2527  0.0224
  562MOL0     N75787   1.006   6.685   2.111 -0.4734 -0.4006  0.1631
  562MOL0     C75788   1.177   5.382   2.373  0.0575 -0.7356  0.2710
  562MOL0     C75789   1.239   5.261   2.410 -0.3089  0.0886  1.7572
  562MOL0     C75790   1.358   4.802   2.416  0.4101  0.0193 -0.5801
  562MOL0     C75791   1.411   4.685   2.363 -1.2574 -0.2413  0.2815
  562MOL0     C75792   1.447   4.572   2.432 -0.2268  0.8681  0.1490
  562MOL0     C75793   1.408   4.568   2.571 -0.2904 -0.6484 -0.6921
  562MOL0     O75794   1.432   4.459   2.659 -0.1869 -0.8352  0.0114
  562MOL0     C75795   1.526   4.357   2.607 -0.0515  0.0162 -1.0770
  562MOL0     C75796   1.588   4.279   2.724 -0.6516  0.1163  0.8027
  562MOL0     C75797   1.479   4.200   2.801 -0.4214 -0.4799 -0.3656
  562MOL0     C75798   1.535   4.101   2.901  0.4832  0.6685  0.0388
  562MOL0     C75799   1.422   4.037   2.977  0.1513 -0.3547 -0.6279
  562MOL0     C75800   1.318   3.995   3.017  0.2543 -0.4037 -0.8776
  562MOL0     C75801   1.345   4.682   2.634  0.0352 -0.5393  0.1324
  562MOL0     C75802   1.342   4.797   2.557  0.8842 -0.7293  0.0235
  562MOL0     H75803   1.063   5.056   2.194  1.4948  0.3689 -1.1854
  562MOL0     H75804   0.980   5.283   2.130 -0.2296 -4.1519 -0.4057
  562MOL0     H75805   1.077   5.645   2.363 -1.5501 -3.7432  0.4988
  562MOL0     H75806   1.174   5.648   2.213  0.3854  0.0386  1.1224
  562MOL0     H75807   0.954   5.721   2.099 -0.4843  4.1323 -0.1451
  562MOL0     H75808   0.875   5.717   2.261  1.8574  1.9406  3.3020
  562MOL0     H75809   0.979   5.910   2.331 -0.1284 -1.2817  1.2210
  562MOL0     H75810   1.125   5.870   2.223  0.1019 -1.0178  3.3942
  562MOL0     H75811   0.976   5.953   2.022  0.7808 -1.6491  0.7809
  562MOL0     H75812   0.857   5.989   2.150 -0.6491 -1.6888  2.7967
  562MOL0     H75813   0.998   6.131   2.254 -1.6636  0.8722 -1.6432
  562MOL0     H75814   1.139   6.101   2.145  0.8291  3.6011  2.8001
  562MOL0     H75815   1.008   6.203   1.947  1.3249  0.4170 -0.1230
  562MOL0     H75816   0.882   6.247   2.047  1.4089  0.6317 -1.7184
  562MOL0     H75817   1.040   6.376   2.176  0.7827  0.5474  0.9257
  562MOL0     H75818   1.169   6.347   2.063 -0.3966 -3.5835  2.2540
  562MOL0     H75819   0.898   6.477   2.000 -0.1166 -1.6665 -0.4461
  562MOL0     H75820   1.033   6.467   1.874  1.5179 -0.5655  0.9415
  562MOL0     H75821   1.188   6.648   1.848 -1.4159 -2.0698  0.9577
  562MOL0     H75822   1.239   6.976   1.997 -0.9025  2.1804  0.5072
  562MOL0     H75823   1.210   6.934   1.824 -1.9804  1.3346 -2.3982
  562MOL0     H75824   1.082   7.143   1.906  1.0999  0.2024 -1.6776
  562MOL0     H75825   1.015   7.037   2.027  4.2090  0.4943  1.0707
  562MOL0     H75826   0.904   6.894   1.840 -1.1417  0.2163 -0.8214
  562MOL0     H75827   0.980   6.999   1.715  2.3975  3.6241  0.9837
  562MOL0     H75828   0.851   7.197   1.800  0.1044  0.0778  3.0885
  562MOL0     H75829   0.792   7.097   1.928  2.8869  3.0482  1.6042
  562MOL0     H75830   0.623   6.813   1.650  1.3218  2.6054 -2.2736
  562MOL0     H75831   0.364   6.682   1.605 -4.4231  3.2199  1.9032
  562MOL0     H75832   0.488   6.604   1.700  0.7213  0.2023  0.6396
  562MOL0     H75833   0.344   6.620   1.782  3.0949 -3.1754 -0.1965
  562MOL0     H75834  -0.094   7.055   1.950  2.5585 -0.2349 -0.0376
  562MOL0     H75835  -0.304   7.011   2.098 -0.1109  0.5482  0.4105
  562MOL0     H75836  -0.422   6.822   2.451 -1.0005  2.5559  0.1423
  562MOL0     H75837  -0.252   6.785   2.452 -1.6239 -1.0467  0.8001
  562MOL0     H75838  -0.233   7.042   2.369 -0.1350 -0.0565 -0.0029
  562MOL0     H75839  -0.403   7.043   2.395  0.3962 -0.2833 -1.9273
  562MOL0     H75840  -0.199   7.004   2.618 -1.2648 -2.1199  1.2067
  562MOL0     H75841  -0.374   6.977   2.628  1.0124 -0.4972  1.7047
  562MOL0     H75842  -0.254   7.196   2.695 -0.3929 -0.1604  0.9072
  562MOL0     H75843  -0.258   7.247   2.525 -0.4682 -2.0075 -2.3626
  562MOL0     H75844  -0.520   7.161   2.649  0.8952 -1.0791 -2.1177
  562MOL0     H75845  -0.482   7.248   2.499 -0.1711  0.6578 -0.1552
  562MOL0     H75846  -0.411   7.446   2.621 -4.3367  1.0528 -1.8323
  562MOL0     H75847  -0.567   7.399   2.666  0.0926  0.4857 -1.1748
  562MOL0     H75848  -0.306   7.350   2.839  0.4690  3.3579 -0.9198
  562MOL0     H75849  -0.449   7.256   2.866  0.9138 -0.7462  0.0531
  562MOL0     H75850  -0.407   7.459   3.018  1.9754  1.4794 -0.0589
  562MOL0     H75851  -0.564   7.457   2.915  0.0993 -0.3964 -4.0721
  562MOL0     H75852  -0.109   6.678   2.270 -1.1031  0.8765  1.8129
  562MOL0     H75853   0.088   6.728   2.146 -1.5298 -0.7244 -0.4627
  562MOL0     H75854   0.322   7.088   1.922 -1.7921 -3.3854 -0.1125
  562MOL0     H75855   0.551   7.180   1.862  1.2648  0.3198  1.4089
  562MOL0     H75856   1.183   5.468   2.438  0.1003 -1.3410  1.0761
  562MOL0     H75857   1.323   5.272   2.479  0.5969  2.3843  0.4015
  562MOL0     H75858   1.436   4.689   2.258  0.1453  1.7570  0.6323
  562MOL0     H75859   1.500   4.489   2.386  1.0206  1.9127 -0.3479
  562MOL0     H75860   1.469   4.290   2.543 -1.5419 -0.3355  0.5192
  562MOL0     H75861   1.602   4.413   2.552  2.0340 -1.2862  0.3364
  562MOL0     H75862   1.637   4.350   2.790  0.0193  0.5800 -0.1831
  562MOL0     H75863   1.660   4.210   2.680  0.3659  2.8901 -2.2438
  562MOL0     H75864   1.408   4.153   2.733 -0.6271  1.2311 -1.3728
  562MOL0     H75865   1.426   4.274   2.861 -0.2242 -0.4903 -0.1729
  562MOL0     H75866   1.611   4.148   2.964  0.0644  0.8657  0.3998
  562MOL0     H75867   1.585   4.021   2.845  1.0873 -0.3341  1.9281
  562MOL0     H75868   1.220   3.982   3.058 -0.1723 -1.8389 -2.2518
  562MOL0     H75869   1.331   4.679   2.741 -0.1346 -3.3634  0.1085
  562MOL0     H75870   1.297   4.883   2.606 -0.9700 -1.2611 -0.6616
  563MOL0     O75871  10.235   6.329   8.141 -0.6392  0.3238  0.2382
  563MOL0     C75872  10.203   6.270   8.033 -0.3036  0.8213 -0.6888
  563MOL0     O75873  10.240   6.305   7.908 -0.5360  0.6750  0.3405
  563MOL0     C75874  10.309   6.418   7.900  0.4505 -0.4980 -0.0535
  563MOL0     C75875  10.266   6.550   7.933  0.0790 -0.5444  0.1829
  563MOL0     C75876  10.339   6.663   7.891 -0.6563  0.6605  0.2055
  563MOL0     C75877  10.457   6.644   7.818 -0.2122 -0.1608 -0.0220
  563MOL0     O75878  10.517   6.762   7.772  0.2317 -0.3438  0.4775
  563MOL0     C75879  10.643   6.762   7.704 -0.4710 -0.0129 -0.1377
  563MOL0     C75880  10.709   6.907   7.732 -0.1427  0.0851  0.8067
  563MOL0     C75881  10.799   6.942   7.619  0.1352 -0.7108  0.3391
  563MOL0     C75882  10.868   7.074   7.615  0.3461  0.7935  0.7393
  563MOL0     C75883  10.938   7.092   7.481  0.5203  0.3081 -0.3501
  563MOL0     C75884  11.028   7.212   7.493 -0.9945 -0.6545  0.1868
  563MOL0     C75885  11.079   7.243   7.350 -0.1713 -0.5224  0.7343
  563MOL0     C75886  11.172   7.353   7.357 -0.2586  0.0553  0.5859
  563MOL0     N75887  11.219   7.386   7.223 -0.3986  0.5773  0.4366
  563MOL0     C75888  11.159   7.476   7.137  0.5479  0.6416  0.2918
  563MOL0     C75889  11.204   7.448   7.015 -0.3718  0.8473  0.0689
  563MOL0     C75890  11.191   7.548   6.899 -0.9359 -0.9076  0.1292
  563MOL0     C75891  11.259   7.688   6.925  0.8249  0.2009  0.0326
  563MOL0     C75892  11.206   7.805   6.844 -0.7113 -0.1522  0.6503
  563MOL0     C75893  11.207   7.777   6.694  0.5990 -0.2524  0.4202
  563MOL0     O75894  11.328   7.724   6.647  0.5171  0.8736  0.3555
  563MOL0     C75895  11.348   7.699   6.513  0.1134 -0.2615  0.8390
  563MOL0     C75896  11.483   7.684   6.486  0.5652 -0.0976  1.0607
  563MOL0     C75897  11.528   7.656   6.358  0.2777 -0.1257  0.2402
  563MOL0     C75898  11.674   7.641   6.337 -0.8802  0.3793 -0.3687
  563MOL0     C75899  11.438   7.649   6.251 -0.3550 -0.6612 -0.0587
  563MOL0     C75900  11.471   7.633   6.109 -0.3191  0.0343 -0.7073
  563MOL0     O75901  11.584   7.672   6.068  0.1695 -1.1714 -0.1695
  563MOL0     C75902  11.612   7.657   5.932  0.9548  0.0383 -0.1323
  563MOL0     C75903  11.642   7.528   5.875  0.0035 -1.2561 -0.3794
  563MOL0     C75904  11.652   7.509   5.738  0.6795 -0.6600  0.1032
  563MOL0     C75905  11.630   7.620   5.657  1.2496 -0.3749  1.0128
  563MOL0     O75906  11.648   7.598   5.525 -0.4074  0.0242  0.0454
  563MOL0     C75907  11.687   7.701   5.429 -0.2087 -0.3145 -0.3043
  563MOL0     C75908  11.736   7.638   5.296  0.3669 -1.1504 -0.8884
  563MOL0     C75909  11.879   7.580   5.310  0.8282 -0.2743  0.0012
  563MOL0     C75910  11.852   7.424   5.299 -0.4350 -0.0945  1.7834
  563MOL0     C75911  11.974   7.342   5.350  0.3247  0.1368  0.8803
  563MOL0     C75912  11.963   7.345   5.516  0.2305 -0.8432 -0.7896
  563MOL0     C75913  12.005   7.214   5.586  0.3888 -0.4598 -0.7041
  563MOL0     C75914  12.157   7.170   5.567  0.8038 -0.8208  0.1342
  563MOL0    Cl75915  12.256   7.282   5.667 -0.2097 -0.2334  0.5936
  563MOL0     C75916  11.586   7.744   5.709  0.0780  0.3878 -0.4168
  563MOL0     C75917  11.578   7.757   5.848 -0.1772 -0.4975  0.3976
  563MOL0     O75918  11.392   7.573   6.040  0.2279  1.0479 -0.3983
  563MOL0     C75919  11.303   7.665   6.280 -0.4090  0.5529  1.0592
  563MOL0     C75920  11.256   7.694   6.409  0.7186 -0.5035  0.1338
  563MOL0     N75921  11.298   7.350   7.027 -0.7787 -0.2680  0.8697
  563MOL0     N75922  11.311   7.316   7.154  0.5140  0.7082 -0.5505
  563MOL0     C75923  10.502   6.516   7.786  0.7968  0.0825  0.3670
  563MOL0     C75924  10.433   6.405   7.824 -0.0389  0.5227 -0.0780
  563MOL0     C75925  10.114   6.148   8.041  1.1942  0.1552  0.4812
  563MOL0     C75926  10.071   6.080   7.923 -1.6385  0.9997  0.2161
  563MOL0     C75927   9.994   5.964   7.918  0.1868 -0.6042 -0.5868
  563MOL0     C75928   9.939   5.939   8.044 -0.1363  0.7445 -1.3521
  563MOL0     O75929   9.863   5.825   8.062  0.3770 -1.0780 -0.4006
  563MOL0     C75930   9.839   5.734   7.955 -0.5761  0.7160 -0.0254
  563MOL0     C75931   9.761   5.620   8.006 -0.0494  0.0577 -0.1495
  563MOL0     C75932   9.621   5.652   8.065 -0.0490  0.0117 -0.3763
  563MOL0     C75933   9.560   5.509   8.084 -0.4353  0.2507  0.2219
  563MOL0     C75934   9.426   5.527   8.128  0.0555  0.3349  0.3369
  563MOL0     C75935   9.311   5.574   8.162  0.6732 -0.3100  0.2834
  563MOL0     C75936   9.974   6.002   8.161 -0.2373 -0.2112 -0.2913
  563MOL0     C75937  10.059   6.113   8.167  0.6131  0.1275  0.4081
  563MOL0     H75938  10.173   6.569   7.986  0.4815 -0.0020  0.7183
  563MOL0     H75939  10.313   6.764   7.923 -1.2299 -0.3080  3.0783
  563MOL0     H75940  10.706   6.686   7.750 -0.7574  1.2410  2.4728
  563MOL0     H75941  10.623   6.741   7.598 -1.1167 -3.1148  0.4991
  563MOL0     H75942  10.623   6.975   7.733 -0.8467 -0.4923 -3.4152
  563MOL0     H75943  10.761   6.926   7.827  2.8145 -1.1078 -0.4676
  563MOL0     H75944  10.861   6.853   7.615 -0.3183 -0.9953 -2.5581
  563MOL0     H75945  10.732   6.951   7.533 -0.9493  5.1291  1.3330
  563MOL0     H75946  10.803   7.160   7.635  1.3217  1.6887  0.2241
  563MOL0     H75947  10.943   7.082   7.694 -0.4270  0.8156  1.4819
  563MOL0     H75948  10.995   7.000   7.465 -1.0051 -0.4730 -1.5973
  563MOL0     H75949  10.872   7.102   7.394  0.3630 -3.8344 -0.9037
  563MOL0     H75950  10.976   7.294   7.545  0.6367 -0.2347  1.2407
  563MOL0     H75951  11.114   7.178   7.552  2.2263 -0.8173 -4.0980
  563MOL0     H75952  11.118   7.158   7.293 -1.0221  0.1801 -0.9899
  563MOL0     H75953  10.993   7.282   7.293  1.7042  3.5600  0.2916
  563MOL0     H75954  11.257   7.325   7.419 -0.5026 -2.3712 -0.0791
  563MOL0     H75955  11.131   7.446   7.399 -2.3098 -1.0907  1.2395
  563MOL0     H75956  11.102   7.567   7.152  2.3227  2.7064 -3.8690
  563MOL0     H75957  11.247   7.511   6.812 -1.3992  0.6338 -0.8764
  563MOL0     H75958  11.088   7.571   6.868 -0.4359  2.0777  0.4220
  563MOL0     H75959  11.367   7.679   6.910  0.4621 -2.9256 -1.5946
  563MOL0     H75960  11.240   7.719   7.028 -2.5051  1.2158 -0.7530
  563MOL0     H75961  11.259   7.899   6.858 -3.7012  1.9138 -0.8031
  563MOL0     H75962  11.099   7.823   6.859 -0.6371 -0.4500  1.5768
  563MOL0     H75963  11.189   7.863   6.628 -0.2858 -0.2051  0.7045
  563MOL0     H75964  11.129   7.705   6.666  2.4486 -2.3457  0.3813
  563MOL0     H75965  11.555   7.685   6.567  0.0827  1.8970  1.5157
  563MOL0     H75966  11.712   7.565   6.268 -0.5079  2.3010 -2.3829
  563MOL0     H75967  11.715   7.735   6.301 -4.3258  2.8323  1.4919
  563MOL0     H75968  11.721   7.620   6.434 -0.3897  2.1263 -0.2091
  563MOL0     H75969  11.655   7.456   5.955  1.1065 -0.9791 -0.2859
  563MOL0     H75970  11.686   7.417   5.691 -1.1768 -2.3890  1.9465
  563MOL0     H75971  11.606   7.773   5.417  0.6633  0.9960  1.2635
  563MOL0     H75972  11.768   7.757   5.477  0.9363 -0.2260 -2.2506
  563MOL0     H75973  11.659   7.571   5.257 -1.0401 -0.3228  0.3962
  563MOL0     H75974  11.737   7.720   5.224  0.7521 -0.8097 -0.4964
  563MOL0     H75975  11.918   7.604   5.409 -0.8865  1.3293  0.3362
  563MOL0     H75976  11.955   7.622   5.243  2.5729 -3.2343 -0.0259
  563MOL0     H75977  11.766   7.399   5.361 -1.5391 -1.9543 -0.3395
  563MOL0     H75978  11.833   7.385   5.198 -0.3206 -0.3333  1.8517
  563MOL0     H75979  12.064   7.390   5.310 -0.8938  1.7187 -0.0889
  563MOL0     H75980  11.967   7.238   5.317 -0.7323  0.2837  0.5789
  563MOL0     H75981  12.026   7.426   5.555 -1.5826 -0.1946  1.0145
  563MOL0     H75982  11.865   7.371   5.558  1.9328  0.4964  2.8170
  563MOL0     H75983  11.948   7.134   5.538  0.3691 -0.9378  0.0984
  563MOL0     H75984  11.980   7.205   5.692  1.8195  1.1296 -0.1795
  563MOL0     H75985  12.189   7.189   5.464  2.6518  1.1052  0.9946
  563MOL0     H75986  12.185   7.069   5.595  0.9641 -0.3847  1.6377
  563MOL0     H75987  11.557   7.831   5.651 -1.3435  1.1644  1.3391
  563MOL0     H75988  11.541   7.843   5.903 -0.8778 -1.3909  1.3859
  563MOL0     H75989  11.233   7.673   6.198 -1.2457  0.4919  1.7440
  563MOL0     H75990  11.155   7.707   6.447 -0.6104  2.6344 -3.7407
  563MOL0     H75991  10.588   6.508   7.721 -1.0143  1.3283 -2.3784
  563MOL0     H75992  10.463   6.303   7.803  1.6600  0.5323  1.9511
  563MOL0     H75993  10.114   6.107   7.827  2.6177  2.9441  2.4220
  563MOL0     H75994   9.962   5.914   7.828  0.9868  1.2644 -1.9860
  563MOL0     H75995   9.787   5.778   7.869  1.8852 -0.4930 -2.2858
  563MOL0     H75996   9.927   5.691   7.905 -0.5189 -0.2817  0.8959
  563MOL0     H75997   9.817   5.566   8.083 -0.6712 -1.3056 -0.6090
  563MOL0     H75998   9.746   5.551   7.923 -0.9541 -1.1785  0.9901
  563MOL0     H75999   9.566   5.722   8.001  2.0465 -0.5353 -2.9275
  563MOL0     H76000   9.634   5.705   8.160  0.5820 -0.5426 -0.1508
  563MOL0     H76001   9.617   5.448   8.154  0.9354  1.6451  0.3708
  563MOL0     H76002   9.545   5.446   7.996 -2.0221 -0.9649  1.3041
  563MOL0     H76003   9.216   5.606   8.199 -0.6785 -0.1863 -2.9545
  563MOL0     H76004   9.934   5.960   8.252 -2.0233  0.5223 -0.6997
  563MOL0     H76005  10.097   6.158   8.258  3.4025  0.0823 -0.6380
  564MOL0     O76006   6.652   8.657   5.517 -0.7300  0.3868 -0.0397
  564MOL0     C76007   6.684   8.701   5.410 -0.4178  0.4520  0.4598
  564MOL0     O76008   6.812   8.754   5.381 -0.7147 -0.8148  0.5795
  564MOL0     C76009   6.905   8.714   5.472 -0.3577 -0.0124 -0.0877
  564MOL0     C76010   6.917   8.778   5.592  0.0906  0.5024 -0.6639
  564MOL0     C76011   7.008   8.732   5.695  1.3895 -0.3901  0.5048
  564MOL0     C76012   7.105   8.631   5.650 -0.5794  0.3481 -0.2022
  564MOL0     O76013   7.203   8.595   5.747 -0.4554 -0.1144  0.7145
  564MOL0     C76014   7.305   8.510   5.713 -0.3741  0.6389 -1.0556
  564MOL0     C76015   7.393   8.490   5.840 -0.3232 -0.1788  0.1218
  564MOL0     C76016   7.450   8.635   5.879  0.7402 -0.8873 -0.3691
  564MOL0     C76017   7.508   8.647   6.027 -0.8361 -0.0309 -0.6716
  564MOL0     C76018   7.597   8.525   6.057 -0.4833  0.4626 -0.0921
  564MOL0     C76019   7.725   8.512   5.975  0.4365  0.8449  0.0212
  564MOL0     C76020   7.850   8.588   6.033  0.3719  0.7198 -0.3493
  564MOL0     C76021   7.972   8.567   5.935  0.4684  0.0081  0.0889
  564MOL0     N76022   8.004   8.433   5.898  0.6088  0.3366 -0.4045
  564MOL0     C76023   8.020   8.320   5.982  0.3958  0.2537 -0.7259
  564MOL0     C76024   8.055   8.217   5.903  0.3566  0.0063 -0.7759
  564MOL0     C76025   8.093   8.079   5.946  0.1908 -0.3068 -0.1013
  564MOL0     C76026   7.983   7.974   5.949 -0.8493  0.3736  0.0945
  564MOL0     C76027   7.902   7.976   6.067  0.2279 -0.0684 -0.2688
  564MOL0     C76028   7.775   7.893   6.051 -0.0798  0.0662  1.1633
  564MOL0     O76029   7.789   7.758   6.035  0.3993 -0.0261  0.5261
  564MOL0     C76030   7.847   7.676   6.130 -0.8889  0.3379 -0.3304
  564MOL0     C76031   7.882   7.714   6.257  0.0560  1.5750  0.2816
  564MOL0     C76032   7.935   7.625   6.350 -0.5108  0.3868  0.7747
  564MOL0     C76033   7.976   7.678   6.478 -0.0589 -0.6394  0.5063
  564MOL0     C76034   7.954   7.489   6.316  0.2675  0.6156 -0.3652
  564MOL0     C76035   8.013   7.377   6.409 -0.8631 -0.4891  0.0814
  564MOL0     O76036   8.048   7.408   6.536  1.3529  0.1810  0.2943
  564MOL0     C76037   8.125   7.320   6.611  0.9188  0.2399 -0.0630
  564MOL0     C76038   8.084   7.297   6.749 -0.1774  1.1999  0.7130
  564MOL0     C76039   8.178   7.233   6.828 -0.3645 -0.0584 -0.2366
  564MOL0     C76040   8.307   7.191   6.787  0.3479 -0.8540  0.0829
  564MOL0     O76041   8.405   7.126   6.866 -0.3004  0.7682  0.5505
  564MOL0     C76042   8.384   7.140   7.008  0.1983  0.6547 -0.2167
  564MOL0     C76043   8.499   7.067   7.096 -0.3758  0.1681 -0.0492
  564MOL0     C76044   8.619   7.167   7.104 -0.0368  1.1621  1.0931
  564MOL0     C76045   8.723   7.123   7.202  0.6315  0.3398 -1.7801
  564MOL0     C76046   8.814   7.225   7.253  1.4362  0.1334 -0.2580
  564MOL0     C76047   8.849   7.350   7.167  0.4862 -0.5947  0.4770
  564MOL0     C76048   8.939   7.319   7.049  0.4230 -0.6106 -0.5592
  564MOL0     C76049   8.913   7.414   6.926 -0.4298  0.0021  0.0392
  564MOL0    Cl76050   8.903   7.586   6.970 -0.1022 -0.3554 -0.3399
  564MOL0     C76051   8.337   7.219   6.655 -0.5912  1.1530 -0.7718
  564MOL0     C76052   8.250   7.283   6.568  0.0335 -0.5100  0.8858
  564MOL0     O76053   8.035   7.267   6.359 -0.4467  0.0044  0.0008
  564MOL0     C76054   7.911   7.452   6.183 -0.0823 -0.1836 -0.3325
  564MOL0     C76055   7.863   7.542   6.095  0.1071 -1.0678  0.5735
  564MOL0     N76056   8.049   8.271   5.775 -0.1343 -0.0110  0.3685
  564MOL0     N76057   8.010   8.387   5.771  0.3379  0.1210  0.8706
  564MOL0     C76058   7.097   8.584   5.527  0.9740 -0.1482 -0.1147
  564MOL0     C76059   6.995   8.616   5.436  0.6290  0.0114 -0.2241
  564MOL0     C76060   6.590   8.708   5.297 -0.3334 -0.2131 -0.5548
  564MOL0     C76061   6.483   8.625   5.298 -0.9185  0.2985  0.2456
  564MOL0     C76062   6.387   8.628   5.193 -0.8230 -0.6885 -0.1728
  564MOL0     C76063   6.397   8.719   5.088  0.7756 -0.3957 -0.4929
  564MOL0     O76064   6.313   8.701   4.981  0.5317 -0.7015 -0.0458
  564MOL0     C76065   6.347   8.752   4.850 -0.5861  0.6577 -0.2064
  564MOL0     C76066   6.240   8.727   4.740  0.7570  0.0766  0.3494
  564MOL0     C76067   6.107   8.807   4.734  0.9996 -0.3706 -0.0466
  564MOL0     C76068   6.114   8.934   4.816 -0.9491 -0.3336  0.2722
  564MOL0     C76069   6.199   9.039   4.756  0.2860 -0.5165 -0.0774
  564MOL0     C76070   6.258   9.135   4.708 -0.7405 -0.1906  0.0867
  564MOL0     C76071   6.513   8.803   5.093  0.0320 -0.2865  0.0797
  564MOL0     C76072   6.604   8.808   5.199  0.7706 -0.2429  0.4712
  564MOL0     H76073   6.843   8.853   5.618  0.7746  0.6969  0.8473
  564MOL0     H76074   7.013   8.756   5.801  1.1862  1.1464  0.1936
  564MOL0     H76075   7.261   8.420   5.670  2.6222 -1.1370 -0.6265
  564MOL0     H76076   7.370   8.552   5.636 -1.3576  1.6564 -1.3677
  564MOL0     H76077   7.343   8.435   5.921  2.1593 -2.5819  0.1514
  564MOL0     H76078   7.475   8.425   5.809  0.0772  0.9429 -1.2861
  564MOL0     H76079   7.512   8.671   5.797 -0.5143  0.9222 -0.5786
  564MOL0     H76080   7.373   8.713   5.885  3.5073  1.9938  0.4358
  564MOL0     H76081   7.572   8.736   6.035 -0.2228 -0.4140 -1.2077
  564MOL0     H76082   7.433   8.656   6.106 -1.2003  0.3605 -1.0510
  564MOL0     H76083   7.610   8.513   6.165  2.3408 -3.1075 -0.6352
  564MOL0     H76084   7.530   8.439   6.046 -2.0729  1.1024  3.1478
  564MOL0     H76085   7.740   8.404   5.968  0.3264  0.7447  1.1578
  564MOL0     H76086   7.699   8.553   5.877 -0.5119 -0.0031 -0.1036
  564MOL0     H76087   7.833   8.694   6.011  1.7470  0.8223 -1.0473
  564MOL0     H76088   7.881   8.564   6.135 -1.0706  1.7903  0.3910
  564MOL0     H76089   8.061   8.618   5.974  0.9130 -1.4410  1.0320
  564MOL0     H76090   7.956   8.609   5.835 -0.0078  1.1619  0.6267
  564MOL0     H76091   8.018   8.313   6.090  0.1516  4.3364 -0.2786
  564MOL0     H76092   8.167   8.048   5.872 -0.0960  2.2715 -1.5596
  564MOL0     H76093   8.149   8.067   6.039  0.8299  2.5426 -0.0508
  564MOL0     H76094   8.007   7.870   5.926 -1.2994  0.4495 -0.7621
  564MOL0     H76095   7.917   7.997   5.865  1.6485  1.0169 -1.8298
  564MOL0     H76096   7.863   8.078   6.071  0.9563  0.3459 -2.5235
  564MOL0     H76097   7.966   7.956   6.153  3.0553 -1.2589 -2.4724
  564MOL0     H76098   7.719   7.930   5.965 -0.7834 -1.6724  0.8370
  564MOL0     H76099   7.716   7.909   6.142  3.0755  4.3722  2.7811
  564MOL0     H76100   7.864   7.819   6.281  1.7780  2.5817 -2.3272
  564MOL0     H76101   8.085   7.669   6.486 -0.0580  0.6162  2.8755
  564MOL0     H76102   7.946   7.780   6.502  2.0224  0.3056 -0.5962
  564MOL0     H76103   7.940   7.605   6.551  1.7169 -4.0484 -1.7458
  564MOL0     H76104   7.994   7.339   6.794 -1.5853 -1.3636  0.5156
  564MOL0     H76105   8.148   7.230   6.932  3.3588  2.2197  1.0629
  564MOL0     H76106   8.369   7.246   7.029 -4.0986  0.5006 -1.5189
  564MOL0     H76107   8.293   7.082   7.024  1.4266 -1.2613  0.1656
  564MOL0     H76108   8.461   7.040   7.194 -1.1069 -1.7756 -0.8078
  564MOL0     H76109   8.539   6.984   7.037  0.9924  0.1746  0.8209
  564MOL0     H76110   8.584   7.269   7.123  2.6441  1.8657  2.8689
  564MOL0     H76111   8.671   7.166   7.008  0.5155  0.8408  1.3875
  564MOL0     H76112   8.677   7.077   7.290 -0.9478 -0.3536 -2.9137
  564MOL0     H76113   8.785   7.049   7.152 -0.3554  0.4264 -3.2094
  564MOL0     H76114   8.907   7.179   7.288  0.4150  0.1995  2.8226
  564MOL0     H76115   8.773   7.272   7.343  1.7661 -1.0904  0.5627
  564MOL0     H76116   8.765   7.418   7.152  1.0149  0.6305  2.6496
  564MOL0     H76117   8.901   7.415   7.238  1.6652 -2.9311  1.8893
  564MOL0     H76118   8.933   7.212   7.027 -0.1860 -1.2485  2.2988
  564MOL0     H76119   9.043   7.332   7.081  0.1296 -1.9968  1.1091
  564MOL0     H76120   8.816   7.390   6.884 -0.6853 -0.7626  1.0298
  564MOL0     H76121   8.990   7.409   6.848 -0.4443  0.7930 -0.0355
  564MOL0     H76122   8.422   7.177   6.602 -0.5235  0.5212 -0.1874
  564MOL0     H76123   8.280   7.274   6.464 -2.3081  0.0163  0.1159
  564MOL0     H76124   7.925   7.352   6.144  3.2205  0.2015 -0.4337
  564MOL0     H76125   7.822   7.509   6.000  1.3423 -0.5377 -0.1721
  564MOL0     H76126   7.171   8.511   5.497  2.1003  0.3705  1.2968
  564MOL0     H76127   6.986   8.563   5.341  0.2767 -2.6637  1.2153
  564MOL0     H76128   6.471   8.553   5.379 -1.2258  1.2766  1.0960
  564MOL0     H76129   6.309   8.553   5.190  0.4620 -2.1180 -3.6465
  564MOL0     H76130   6.383   8.854   4.865 -1.7474  1.0167  0.2236
  564MOL0     H76131   6.435   8.703   4.808 -1.0574 -1.3966  1.0657
  564MOL0     H76132   6.226   8.619   4.746  2.6728 -0.3916 -2.1008
  564MOL0     H76133   6.294   8.733   4.645 -2.2099  0.8555 -1.4144
  564MOL0     H76134   6.032   8.740   4.777  0.3840  0.2589 -0.1191
  564MOL0     H76135   6.089   8.830   4.629  0.9983 -1.1149 -0.2119
  564MOL0     H76136   6.141   8.916   4.920  1.8084  0.3201 -0.2389
  564MOL0     H76137   6.012   8.972   4.805 -0.8895 -0.1288  0.4222
  564MOL0     H76138   6.310   9.225   4.682  1.9113 -1.1431  1.6735
  564MOL0     H76139   6.518   8.873   5.011  1.9857  0.8986  1.1345
  564MOL0     H76140   6.684   8.881   5.210  3.0776 -2.3729 -0.9790
  565MOL0     O76141   9.481   2.808   2.986  0.2364 -0.8286 -0.3858
  565MOL0     C76142   9.536   2.891   3.056  0.3893 -0.5000 -0.3461
  565MOL0     O76143   9.656   2.942   3.036  0.2109 -0.9557  0.0379
  565MOL0     C76144   9.740   2.873   2.950  0.3306 -0.0291 -0.8379
  565MOL0     C76145   9.807   2.937   2.847  0.3724  0.5917  0.1136
  565MOL0     C76146   9.915   2.880   2.785  0.3927 -0.2234 -0.7366
  565MOL0     C76147   9.959   2.758   2.823 -0.0574  0.4015  0.6345
  565MOL0     O76148  10.076   2.713   2.766 -0.1313  0.3928  0.1209
  565MOL0     C76149  10.068   2.582   2.708 -0.2218 -0.5079  0.1515
  565MOL0     C76150  10.127   2.587   2.567  0.9912  0.5781 -0.4663
  565MOL0     C76151  10.161   2.446   2.510  0.2038 -0.7163  0.3140
  565MOL0     C76152  10.087   2.434   2.382 -0.1717  0.0410  0.4891
  565MOL0     C76153  10.119   2.293   2.316 -0.0907  0.3265 -0.3551
  565MOL0     C76154  10.273   2.273   2.285 -0.2208 -0.0321  0.2160
  565MOL0     C76155  10.327   2.386   2.187  0.3250  1.2241 -0.4046
  565MOL0     C76156  10.461   2.337   2.124  0.2527  0.1714 -0.7409
  565MOL0     N76157  10.550   2.446   2.095 -0.0120  0.9140 -0.4296
  565MOL0     C76158  10.517   2.571   2.051 -0.3080  1.1870  0.7057
  565MOL0     C76159  10.634   2.643   2.075  0.8788  0.0512 -0.1788
  565MOL0     C76160  10.636   2.786   2.072 -0.1852 -0.7844 -0.1206
  565MOL0     C76161  10.605   2.863   2.204  0.7866  0.6231 -0.3348
  565MOL0     C76162  10.464   2.811   2.249 -0.3944 -0.2236 -0.7485
  565MOL0     C76163  10.411   2.901   2.356  1.4188  0.5065 -0.1224
  565MOL0     O76164  10.448   2.844   2.480  0.2389 -0.7142 -0.3656
  565MOL0     C76165  10.412   2.906   2.595 -0.9181  0.1956 -0.0858
  565MOL0     C76166  10.424   2.831   2.708  0.3020  0.7824 -0.6912
  565MOL0     C76167  10.408   2.885   2.839 -0.4508  0.7001  0.0510
  565MOL0     C76168  10.416   2.774   2.948 -0.5282 -0.0790 -0.4602
  565MOL0     C76169  10.383   3.022   2.861 -0.2701 -0.3543  0.2347
  565MOL0     C76170  10.374   3.087   2.987 -0.0133  0.1599 -0.0085
  565MOL0     O76171  10.465   3.184   3.001 -0.3123 -0.4098  0.3906
  565MOL0     C76172  10.496   3.214   3.136 -0.0588 -0.7294  0.6884
  565MOL0     C76173  10.620   3.167   3.182  0.0309  1.1072  0.1823
  565MOL0     C76174  10.671   3.179   3.313  0.3136 -0.4850 -0.5415
  565MOL0     C76175  10.591   3.246   3.407  0.4339 -0.3848 -0.3196
  565MOL0     O76176  10.623   3.256   3.544 -0.1717  0.7183  0.2867
  565MOL0     C76177  10.634   3.385   3.605 -0.7483  0.4262 -0.3370
  565MOL0     C76178  10.515   3.413   3.702 -0.3204  0.2774  0.8530
  565MOL0     C76179  10.514   3.311   3.814  0.0419  0.0406  0.4875
  565MOL0     C76180  10.403   3.353   3.917 -0.7850 -0.5585 -0.6905
  565MOL0     C76181  10.421   3.484   4.000 -0.1742 -0.9839  0.4182
  565MOL0     C76182  10.557   3.483   4.079  0.0498  0.4812  0.6852
  565MOL0     C76183  10.614   3.617   4.112  0.2943  0.5555  0.2120
  565MOL0     C76184  10.706   3.624   4.225  0.0450 -0.0812  0.0357
  565MOL0    Cl76185  10.626   3.593   4.392 -0.6114  0.3018 -0.3846
  565MOL0     C76186  10.467   3.287   3.366 -0.2486 -0.0339 -0.2546
  565MOL0     C76187  10.422   3.283   3.232 -0.3686 -0.1478  0.4295
  565MOL0     O76188  10.299   3.045   3.076 -0.2843 -0.4277 -0.1996
  565MOL0     C76189  10.378   3.100   2.736  0.1512  0.1940 -0.5204
  565MOL0     C76190  10.395   3.037   2.612 -0.4859 -0.5580 -0.0111
  565MOL0     N76191  10.724   2.563   2.135  0.0200  1.0551 -0.4962
  565MOL0     N76192  10.677   2.444   2.147 -0.4282  0.4816 -0.3847
  565MOL0     C76193   9.895   2.686   2.914  0.4738 -0.5110 -1.0121
  565MOL0     C76194   9.780   2.741   2.977 -1.1727  0.9033  0.4200
  565MOL0     C76195   9.457   2.918   3.182 -1.3030 -0.2927  0.3229
  565MOL0     C76196   9.388   2.822   3.252 -0.1684 -0.0972 -0.4919
  565MOL0     C76197   9.315   2.848   3.359  0.9357  0.5677 -0.3269
  565MOL0     C76198   9.302   2.977   3.404  0.0712 -0.2787  1.0871
  565MOL0     O76199   9.231   2.996   3.522 -0.4204  0.0163  1.2753
  565MOL0     C76200   9.196   2.891   3.615  0.2226 -0.2307 -1.0066
  565MOL0     C76201   9.317   2.869   3.698  0.0360  0.0279 -0.1805
  565MOL0     C76202   9.294   2.777   3.819 -0.7569  0.4563  0.2878
  565MOL0     C76203   9.277   2.631   3.789  0.9330  0.2575 -0.5584
  565MOL0     C76204   9.405   2.553   3.779  1.0357  0.3790 -1.8158
  565MOL0     C76205   9.487   2.458   3.785  0.3833 -1.3313  0.4750
  565MOL0     C76206   9.372   3.080   3.336  1.3269 -0.5570  0.2153
  565MOL0     C76207   9.452   3.048   3.229  0.4633  0.3308  0.3635
  565MOL0     H76208   9.772   3.036   2.818  0.6003  0.7480  0.3686
  565MOL0     H76209   9.959   2.935   2.703 -0.7390 -2.2654 -2.8037
  565MOL0     H76210  10.121   2.507   2.767  1.5388  0.0597 -0.6455
  565MOL0     H76211   9.961   2.558   2.705 -0.7206  1.4314  0.9727
  565MOL0     H76212  10.072   2.649   2.496  0.0710 -1.4412 -1.5959
  565MOL0     H76213  10.221   2.635   2.597  0.9210 -0.3541  1.4220
  565MOL0     H76214  10.269   2.453   2.491 -0.2320 -0.1055 -2.4346
  565MOL0     H76215  10.135   2.355   2.565 -0.9498 -1.7479 -1.8069
  565MOL0     H76216   9.981   2.455   2.400  0.3042  2.1831  1.0804
  565MOL0     H76217  10.116   2.496   2.296 -3.4470  1.1646  0.0640
  565MOL0     H76218  10.093   2.211   2.383  1.9752 -1.4630 -1.6042
  565MOL0     H76219  10.067   2.270   2.222  0.9990 -1.2815 -0.5973
  565MOL0     H76220  10.326   2.282   2.380  2.2351  1.5569 -1.1759
  565MOL0     H76221  10.281   2.170   2.248 -1.7353 -1.3495  3.1804
  565MOL0     H76222  10.262   2.399   2.100 -0.9453 -1.7414 -0.0350
  565MOL0     H76223  10.347   2.480   2.240 -1.8312  1.1020  0.7621
  565MOL0     H76224  10.440   2.292   2.027 -1.9356 -1.2275  0.2978
  565MOL0     H76225  10.512   2.261   2.183  1.0267 -0.2803 -1.9765
  565MOL0     H76226  10.416   2.597   2.021 -0.8834 -1.1784  0.4003
  565MOL0     H76227  10.738   2.817   2.047 -0.9263  3.8690  1.7435
  565MOL0     H76228  10.570   2.807   1.987 -2.1318 -2.5305  0.8621
  565MOL0     H76229  10.606   2.972   2.190  0.9770  0.6517 -0.1105
  565MOL0     H76230  10.672   2.837   2.287 -2.4714 -0.4244  2.1607
  565MOL0     H76231  10.466   2.711   2.291 -1.2261  0.7068  1.6338
  565MOL0     H76232  10.396   2.828   2.165 -2.8068  1.9309  1.4950
  565MOL0     H76233  10.303   2.900   2.346  1.2273 -0.9460  1.6670
  565MOL0     H76234  10.460   2.999   2.348  2.4116  0.1596  1.2424
  565MOL0     H76235  10.450   2.726   2.706  3.1511  1.4143 -0.4195
  565MOL0     H76236  10.453   2.678   2.912  0.2966  0.6462 -1.6324
  565MOL0     H76237  10.490   2.813   3.018  0.5238 -3.7522  0.7034
  565MOL0     H76238  10.319   2.756   2.994  0.0002  0.7939  1.0791
  565MOL0     H76239  10.672   3.108   3.107 -2.3009  0.6302 -1.1512
  565MOL0     H76240  10.772   3.142   3.330  0.0213 -0.6096  1.0786
  565MOL0     H76241  10.727   3.402   3.660 -0.2931  1.0774 -1.2765
  565MOL0     H76242  10.632   3.459   3.524 -2.2720 -1.0839 -1.7631
  565MOL0     H76243  10.540   3.514   3.738  2.4933  1.3981 -3.5310
  565MOL0     H76244  10.424   3.415   3.641  1.7246 -2.0383 -2.6049
  565MOL0     H76245  10.608   3.301   3.869 -0.1215 -1.3830  0.5379
  565MOL0     H76246  10.481   3.215   3.775  0.0404  0.0977  0.3494
  565MOL0     H76247  10.298   3.354   3.887 -1.4860  3.2686  1.2510
  565MOL0     H76248  10.408   3.269   3.987 -1.6066 -2.3506 -2.6750
  565MOL0     H76249  10.342   3.484   4.075  0.2306 -0.6721  0.8527
  565MOL0     H76250  10.410   3.572   3.936 -2.3899 -0.4764  1.3963
  565MOL0     H76251  10.530   3.432   4.172  1.9229  0.9932  1.5594
  565MOL0     H76252  10.633   3.422   4.028  1.0642  0.3374  2.2950
  565MOL0     H76253  10.536   3.686   4.146  1.4445  0.7154  2.7487
  565MOL0     H76254  10.670   3.643   4.022  2.0759 -3.8102 -0.2227
  565MOL0     H76255  10.739   3.728   4.229 -0.6331  0.1847 -0.8001
  565MOL0     H76256  10.801   3.573   4.207 -0.2227  0.0670 -2.1039
  565MOL0     H76257  10.411   3.346   3.438 -1.2073 -0.3635 -0.7093
  565MOL0     H76258  10.323   3.314   3.200 -0.6168 -2.6517 -1.5399
  565MOL0     H76259  10.356   3.206   2.750 -2.3968 -0.2291 -0.8535
  565MOL0     H76260  10.376   3.098   2.524 -3.2774 -4.2684 -2.2811
  565MOL0     H76261   9.929   2.588   2.948  1.0771 -0.3938 -1.2667
  565MOL0     H76262   9.731   2.694   3.062 -0.2241  0.5197  0.7686
  565MOL0     H76263   9.397   2.717   3.225  1.0879  0.5017 -2.6277
  565MOL0     H76264   9.247   2.769   3.390 -0.5502  2.0986  0.5143
  565MOL0     H76265   9.104   2.927   3.661  0.8104  0.5774 -0.4372
  565MOL0     H76266   9.171   2.790   3.581  2.6772 -2.3640  2.8363
  565MOL0     H76267   9.354   2.967   3.733  2.7565 -1.1374  0.4999
  565MOL0     H76268   9.404   2.823   3.650  0.3049 -0.8210  1.0732
  565MOL0     H76269   9.204   2.810   3.872 -0.6212  1.0927  0.1326
  565MOL0     H76270   9.376   2.790   3.890  0.1926 -3.5356  0.1358
  565MOL0     H76271   9.226   2.618   3.693 -0.8748 -0.8665  0.5041
  565MOL0     H76272   9.207   2.587   3.860  0.2950  3.0494  0.6681
  565MOL0     H76273   9.569   2.389   3.785  0.1379 -1.6569 -1.4224
  565MOL0     H76274   9.370   3.178   3.383 -4.0137 -0.7735  1.1770
  565MOL0     H76275   9.514   3.114   3.168  1.8810 -2.9542 -2.0049
  566MOL0     O76276   2.285   7.960   4.603  0.3381 -0.0740 -0.1418
  566MOL0     C76277   2.408   7.955   4.586 -0.3102  0.5149 -0.8203
  566MOL0     O76278   2.497   7.870   4.658 -0.1248 -0.0206  0.3635
  566MOL0     C76279   2.435   7.794   4.751 -0.1760 -0.6531 -0.3921
  566MOL0     C76280   2.327   7.700   4.724  0.0616  0.0562 -0.1961
  566MOL0     C76281   2.270   7.624   4.826 -0.5817  0.8250  0.6888
  566MOL0     C76282   2.331   7.626   4.952 -0.1379 -0.2000  0.5728
  566MOL0     O76283   2.289   7.550   5.058 -0.5976 -0.4109  0.1036
  566MOL0     C76284   2.165   7.484   5.053  0.1652  0.0739 -0.4014
  566MOL0     C76285   2.162   7.383   5.168 -0.1559  0.1921  0.4454
  566MOL0     C76286   2.202   7.436   5.304 -0.0777  0.2795 -1.1231
  566MOL0     C76287   2.144   7.331   5.413  0.3269 -0.4549 -0.1867
  566MOL0     C76288   2.152   7.395   5.555  0.0294 -0.7329 -0.9173
  566MOL0     C76289   2.293   7.412   5.598 -0.2816 -0.5830  0.4132
  566MOL0     C76290   2.335   7.282   5.655  0.0728  0.9774 -0.4692
  566MOL0     C76291   2.485   7.279   5.685 -0.5859  0.6025  0.0273
  566MOL0     N76292   2.523   7.403   5.747 -0.0662  0.5346 -0.7612
  566MOL0     C76293   2.486   7.431   5.879 -0.5924  0.1727  0.2190
  566MOL0     C76294   2.540   7.549   5.896  0.7046 -0.0323  0.1211
  566MOL0     C76295   2.539   7.641   6.016  0.3269 -0.2219 -0.4999
  566MOL0     C76296   2.621   7.586   6.130  1.0400 -0.7967  0.5550
  566MOL0     C76297   2.607   7.688   6.241  0.1042  0.0226 -0.3549
  566MOL0     C76298   2.684   7.642   6.364  0.3650 -0.1797  0.0970
  566MOL0     O76299   2.611   7.551   6.437 -0.2969 -0.2490  0.9203
  566MOL0     C76300   2.678   7.488   6.538 -0.4955 -0.0448  0.1502
  566MOL0     C76301   2.736   7.552   6.648 -0.1731 -0.2339  0.0943
  566MOL0     C76302   2.825   7.484   6.737 -0.3182  0.8583 -0.0999
  566MOL0     C76303   2.879   7.557   6.856  0.9117 -0.3241 -0.9864
  566MOL0     C76304   2.851   7.344   6.716  0.2157 -0.3956 -0.8825
  566MOL0     C76305   2.937   7.255   6.795 -0.4921 -0.1913 -0.3037
  566MOL0     O76306   3.036   7.309   6.868  0.6572 -0.6375 -0.1270
  566MOL0     C76307   3.098   7.228   6.963  0.8046  0.8387 -0.2037
  566MOL0     C76308   3.217   7.168   6.930 -0.3662  1.1539 -0.5467
  566MOL0     C76309   3.280   7.093   7.024  0.2524  0.8608  1.0266
  566MOL0     C76310   3.231   7.076   7.155 -0.0424 -0.7035  0.1080
  566MOL0     O76311   3.287   6.998   7.244  0.6521  0.2868 -0.1191
  566MOL0     C76312   3.360   6.882   7.213 -0.5859 -0.4689  0.3571
  566MOL0     C76313   3.446   6.831   7.330  0.8549 -0.3284 -0.2803
  566MOL0     C76314   3.361   6.763   7.438  0.0603  0.1562  0.8892
  566MOL0     C76315   3.371   6.844   7.564 -0.1946  0.0868  0.2565
  566MOL0     C76316   3.313   6.777   7.685 -0.3539  0.2506 -0.0422
  566MOL0     C76317   3.361   6.636   7.719  1.1335 -0.4472  0.5464
  566MOL0     C76318   3.337   6.603   7.869 -0.3461  0.2913 -0.1867
  566MOL0     C76319   3.373   6.458   7.899  1.1518  0.9656  1.0183
  566MOL0    Cl76320   3.363   6.433   8.073 -0.1072 -0.7327  0.2491
  566MOL0     C76321   3.110   7.137   7.198  0.7672 -0.2620  0.6444
  566MOL0     C76322   3.043   7.218   7.098 -0.5632 -0.1407 -0.2140
  566MOL0     O76323   2.894   7.144   6.812  0.0810 -0.9466 -0.1451
  566MOL0     C76324   2.789   7.285   6.601 -0.7141 -0.3137 -0.7313
  566MOL0     C76325   2.708   7.357   6.507  0.3401  0.3061 -0.5762
  566MOL0     N76326   2.619   7.575   5.789  0.2539 -0.1433 -0.0933
  566MOL0     N76327   2.614   7.487   5.695  0.4060 -1.3614 -0.4599
  566MOL0     C76328   2.444   7.719   4.979  0.0772  1.3047  0.7358
  566MOL0     C76329   2.492   7.800   4.879  0.3039  0.1846 -0.4291
  566MOL0     C76330   2.480   8.053   4.498  0.8169  0.0010 -0.2995
  566MOL0     C76331   2.407   8.124   4.403 -0.1407 -0.6962 -0.4721
  566MOL0     C76332   2.458   8.232   4.325 -0.6460 -0.3220  0.1303
  566MOL0     C76333   2.599   8.259   4.335  0.9005 -0.1857 -0.4462
  566MOL0     O76334   2.649   8.348   4.236 -0.0493  0.0258  0.3894
  566MOL0     C76335   2.766   8.419   4.272  0.6268 -0.7833  0.2384
  566MOL0     C76336   2.822   8.485   4.144  0.0806  0.5924  0.6684
  566MOL0     C76337   2.871   8.375   4.044 -0.2543  0.8342 -0.1562
  566MOL0     C76338   2.812   8.405   3.905 -0.6250  0.1396 -0.3720
  566MOL0     C76339   2.837   8.294   3.816 -0.0526  0.2016  0.4469
  566MOL0     C76340   2.854   8.211   3.727 -0.4864  0.1868 -0.1110
  566MOL0     C76341   2.674   8.174   4.423 -0.6004 -0.6638  0.5235
  566MOL0     C76342   2.619   8.074   4.500  0.2026  0.1083 -0.0315
  566MOL0     H76343   2.294   7.684   4.622 -2.7199  0.7906  0.4833
  566MOL0     H76344   2.172   7.589   4.794 -1.7522  4.7050 -0.5435
  566MOL0     H76345   2.089   7.562   5.059  1.1504  0.9397  2.1357
  566MOL0     H76346   2.154   7.432   4.957  0.0977  0.3274 -0.5302
  566MOL0     H76347   2.055   7.359   5.172 -0.1741 -0.0681 -1.0317
  566MOL0     H76348   2.217   7.291   5.148  0.6125  0.0138  3.0948
  566MOL0     H76349   2.311   7.444   5.311 -0.2590  3.0212 -0.0008
  566MOL0     H76350   2.166   7.537   5.325 -0.7513 -0.3973  1.1751
  566MOL0     H76351   2.043   7.298   5.389  1.3871 -0.6831 -5.4472
  566MOL0     H76352   2.193   7.234   5.410  0.5358 -0.3384 -0.6240
  566MOL0     H76353   2.101   7.492   5.553 -1.1035 -1.2493  0.8101
  566MOL0     H76354   2.099   7.330   5.624  1.0208 -0.3731  0.2180
  566MOL0     H76355   2.362   7.446   5.521  1.1116 -1.2905  1.2960
  566MOL0     H76356   2.290   7.486   5.679 -2.2462  0.5710 -0.6307
  566MOL0     H76357   2.275   7.256   5.742  0.5994  2.2000  0.2929
  566MOL0     H76358   2.322   7.199   5.585  0.5054  1.7243 -1.4792
  566MOL0     H76359   2.532   7.255   5.589  0.0249 -3.4480  1.1292
  566MOL0     H76360   2.525   7.200   5.749 -2.4454 -2.6098 -2.4418
  566MOL0     H76361   2.436   7.367   5.951  1.8608 -1.0847  0.9615
  566MOL0     H76362   2.594   7.730   5.982  4.0080 -1.5276  1.4883
  566MOL0     H76363   2.436   7.672   6.033  1.0216  1.4025  1.0646
  566MOL0     H76364   2.729   7.585   6.111  0.8669 -1.4688 -0.4713
  566MOL0     H76365   2.585   7.483   6.137 -0.1228 -0.6275 -1.9548
  566MOL0     H76366   2.501   7.699   6.265 -0.0880 -1.1748 -0.5767
  566MOL0     H76367   2.631   7.790   6.212  4.0844  0.3276  3.1591
  566MOL0     H76368   2.705   7.725   6.431 -4.8310  3.0724 -1.6461
  566MOL0     H76369   2.768   7.580   6.332 -0.2395 -1.3260  0.6652
  566MOL0     H76370   2.724   7.660   6.650 -2.9105 -0.2703  5.4240
  566MOL0     H76371   2.899   7.491   6.941 -4.7793 -0.2782  0.8146
  566MOL0     H76372   2.963   7.625   6.838  1.8783 -0.0330  3.5729
  566MOL0     H76373   2.807   7.626   6.902  0.6642 -0.7025 -0.8001
  566MOL0     H76374   3.252   7.184   6.829  0.7938 -0.6917 -0.4726
  566MOL0     H76375   3.371   7.042   6.994 -0.3392  1.5479 -2.3327
  566MOL0     H76376   3.290   6.806   7.177  1.6571 -2.0211 -0.9993
  566MOL0     H76377   3.430   6.911   7.135  0.4057  1.6967  1.9639
  566MOL0     H76378   3.516   6.755   7.294  0.2317 -1.3345  0.5937
  566MOL0     H76379   3.496   6.919   7.374  1.5538 -2.6276  4.1137
  566MOL0     H76380   3.402   6.664   7.459 -2.2448 -0.9268  0.6142
  566MOL0     H76381   3.257   6.754   7.406  0.5586  0.6068 -0.9569
  566MOL0     H76382   3.478   6.847   7.589 -0.0987  1.2302 -0.2278
  566MOL0     H76383   3.335   6.946   7.550 -1.1486 -0.2988 -0.1273
  566MOL0     H76384   3.206   6.774   7.666 -0.1386 -0.9976 -1.1884
  566MOL0     H76385   3.338   6.841   7.770  1.2163 -3.1713  2.2968
  566MOL0     H76386   3.303   6.561   7.664  2.6964 -0.1208 -1.6749
  566MOL0     H76387   3.469   6.626   7.703  0.6385 -3.1303 -1.9639
  566MOL0     H76388   3.235   6.621   7.904 -0.9868 -4.5828  1.1715
  566MOL0     H76389   3.406   6.667   7.927 -2.5607 -0.1463  3.2253
  566MOL0     H76390   3.474   6.432   7.866  1.5447  2.7756  0.6835
  566MOL0     H76391   3.305   6.388   7.848  2.7233  0.5767 -0.6605
  566MOL0     H76392   3.059   7.119   7.292  0.5171  1.2824  0.8464
  566MOL0     H76393   2.946   7.258   7.128 -0.2424 -0.9601  2.1477
  566MOL0     H76394   2.811   7.179   6.588  1.5808  0.1863 -1.3938
  566MOL0     H76395   2.647   7.317   6.426 -5.2659  1.3588  2.6041
  566MOL0     H76396   2.489   7.708   5.077 -1.9557 -0.8709  1.5242
  566MOL0     H76397   2.573   7.872   4.892  1.0563 -0.5699 -0.8621
  566MOL0     H76398   2.300   8.112   4.393 -0.2292  1.1814 -2.6754
  566MOL0     H76399   2.406   8.295   4.253  0.7199  1.8243  0.9153
  566MOL0     H76400   2.746   8.496   4.348  3.3703  0.7263 -0.4188
  566MOL0     H76401   2.847   8.354   4.307 -3.2806 -4.6622  3.2989
  566MOL0     H76402   2.908   8.546   4.172 -0.1762  1.7043 -0.8230
  566MOL0     H76403   2.736   8.539   4.104 -0.7939 -0.2236  1.4179
  566MOL0     H76404   2.842   8.273   4.071  2.8249  0.4246  2.1279
  566MOL0     H76405   2.980   8.378   4.053 -0.1128  1.3496 -1.8089
  566MOL0     H76406   2.853   8.503   3.876 -0.0462  0.7963  2.3470
  566MOL0     H76407   2.704   8.416   3.916 -0.6094 -1.0556  1.4486
  566MOL0     H76408   2.858   8.132   3.655 -1.4814 -1.0808  1.1705
  566MOL0     H76409   2.779   8.203   4.433 -1.5883  3.2859  1.1454
  566MOL0     H76410   2.676   8.020   4.575 -1.8877 -0.1532  1.4661
  567MOL0     O76411   0.362   6.700   6.446  0.5782 -0.4265 -0.4082
  567MOL0     C76412   0.313   6.724   6.339 -0.5791  0.4891  0.9031
  567MOL0     O76413   0.219   6.814   6.323  0.6287  0.0302 -0.2000
  567MOL0     C76414   0.120   6.804   6.425 -0.0411  0.1224  0.4179
  567MOL0     C76415   0.123   6.883   6.536  0.2712 -0.6234  0.0723
  567MOL0     C76416   0.022   6.870   6.634  0.3871  0.8938 -0.5336
  567MOL0     C76417  -0.079   6.774   6.624 -0.7294 -0.3189 -0.7321
  567MOL0     O76418  -0.177   6.765   6.720 -0.7042  0.1321 -0.8329
  567MOL0     C76419  -0.281   6.666   6.699  0.0638 -0.9490  0.2845
  567MOL0     C76420  -0.320   6.630   6.844 -0.8096  0.9826 -0.4340
  567MOL0     C76421  -0.380   6.746   6.920 -0.4718 -0.6591  0.6955
  567MOL0     C76422  -0.342   6.733   7.070  1.0567 -0.8533  0.7325
  567MOL0     C76423  -0.410   6.836   7.163  0.7645  0.3684  0.7174
  567MOL0     C76424  -0.545   6.785   7.217  0.1203 -0.4296 -0.1888
  567MOL0     C76425  -0.560   6.649   7.282 -0.5005 -0.4539 -0.1557
  567MOL0     C76426  -0.700   6.633   7.334 -0.4859 -0.1443  0.1806
  567MOL0     N76427  -0.694   6.516   7.424 -0.3209  0.0546 -0.1561
  567MOL0     C76428  -0.691   6.381   7.377  0.1045  0.5082 -0.6121
  567MOL0     C76429  -0.675   6.322   7.502 -0.2322  1.6033  0.2894
  567MOL0     C76430  -0.691   6.180   7.521 -0.6307  0.1204  0.1134
  567MOL0     C76431  -0.822   6.131   7.590 -0.4263  0.3376  0.7438
  567MOL0     C76432  -0.935   6.110   7.483  0.7125  1.0107  0.2717
  567MOL0     C76433  -1.041   6.011   7.526  0.2770 -0.6671 -0.7138
  567MOL0     O76434  -1.106   6.064   7.647 -0.3421  0.4440  0.2398
  567MOL0     C76435  -1.114   5.970   7.748 -0.4071  0.5537 -0.1017
  567MOL0     C76436  -1.197   5.861   7.725 -0.6153 -0.0106 -0.1428
  567MOL0     C76437  -1.234   5.782   7.831  1.1016  0.0766 -0.2867
  567MOL0     C76438  -1.298   5.650   7.791 -0.5396  0.0680  1.4478
  567MOL0     C76439  -1.198   5.810   7.965 -0.3303  0.9601  0.8005
  567MOL0     C76440  -1.243   5.738   8.087 -0.1132  0.5885  0.4067
  567MOL0     O76441  -1.289   5.604   8.078 -0.6353 -0.2310  0.5570
  567MOL0     C76442  -1.339   5.535   8.179  0.2869 -0.4950 -0.3929
  567MOL0     C76443  -1.305   5.399   8.188  0.8484 -0.1182 -0.8615
  567MOL0     C76444  -1.353   5.317   8.289 -0.0813  1.0299 -0.0475
  567MOL0     C76445  -1.424   5.376   8.393  0.1580  0.0800 -0.0209
  567MOL0     O76446  -1.468   5.309   8.509  0.4210  0.3175  0.8086
  567MOL0     C76447  -1.612   5.287   8.506  0.8259 -0.5649 -0.3566
  567MOL0     C76448  -1.629   5.163   8.602  0.2754 -0.7307  0.2296
  567MOL0     C76449  -1.568   5.037   8.545  0.2705  0.9401  0.1743
  567MOL0     C76450  -1.616   4.901   8.597  0.3114  0.4314  0.4827
  567MOL0     C76451  -1.523   4.794   8.564 -0.2680 -0.3041  0.6824
  567MOL0     C76452  -1.592   4.653   8.585  1.1970 -0.3727  0.5437
  567MOL0     C76453  -1.500   4.529   8.582  0.1318  0.3025  0.8606
  567MOL0     C76454  -1.481   4.487   8.437  0.2996  0.2949 -0.4444
  567MOL0    Cl76455  -1.372   4.588   8.337  0.7652 -0.1260 -0.2069
  567MOL0     C76456  -1.474   5.510   8.383  0.8907  0.1118  0.5861
  567MOL0     C76457  -1.426   5.587   8.279  0.2845 -0.1344  1.0090
  567MOL0     O76458  -1.217   5.795   8.194  0.5067 -0.0314 -0.0795
  567MOL0     C76459  -1.116   5.930   7.986  1.1476  0.1286  0.0965
  567MOL0     C76460  -1.077   6.006   7.876 -0.4484 -0.0208 -0.7769
  567MOL0     N76461  -0.664   6.411   7.603 -0.0544 -0.0304 -0.3775
  567MOL0     N76462  -0.677   6.529   7.558 -0.8006  0.9507 -0.3390
  567MOL0     C76463  -0.073   6.695   6.513 -0.2106 -0.0928  0.0879
  567MOL0     C76464   0.028   6.703   6.414 -0.0764 -1.1250 -1.2077
  567MOL0     C76465   0.365   6.653   6.227  0.7289  0.9130  0.6900
  567MOL0     C76466   0.425   6.533   6.239 -0.5817  0.1449 -0.2507
  567MOL0     C76467   0.448   6.442   6.135  0.3775 -0.4581  0.0509
  567MOL0     C76468   0.422   6.472   6.002  1.0441 -0.3290  0.7687
  567MOL0     O76469   0.464   6.393   5.893 -1.1434  0.5279  0.6024
  567MOL0     C76470   0.530   6.263   5.915  0.4171 -0.6535  1.3245
  567MOL0     C76471   0.586   6.202   5.785  0.6208 -0.5975 -0.3208
  567MOL0     C76472   0.457   6.171   5.701 -0.1021  0.2140 -0.4239
  567MOL0     C76473   0.483   6.134   5.553  0.2098 -0.4097  0.5474
  567MOL0     C76474   0.565   6.238   5.497  0.5136 -0.2005  1.0784
  567MOL0     C76475   0.636   6.320   5.440  1.7089  0.4749  1.1597
  567MOL0     C76476   0.359   6.596   5.975 -0.3260  0.4464 -0.0245
  567MOL0     C76477   0.330   6.689   6.091 -0.1229 -0.2270 -0.4983
  567MOL0     H76478   0.201   6.957   6.542 -1.8613  1.6614  1.4455
  567MOL0     H76479   0.029   6.933   6.722 -1.0604  1.5805 -0.8898
  567MOL0     H76480  -0.364   6.714   6.645  0.6554 -0.2456 -0.0112
  567MOL0     H76481  -0.244   6.572   6.657 -0.2786 -0.6466 -0.7204
  567MOL0     H76482  -0.398   6.553   6.844 -0.6923  0.6284 -4.8931
  567MOL0     H76483  -0.229   6.584   6.884 -1.3192 -0.1502 -0.5377
  567MOL0     H76484  -0.339   6.844   6.895  2.0951 -1.3871  1.6614
  567MOL0     H76485  -0.487   6.745   6.897 -0.3846 -0.0053  0.2350
  567MOL0     H76486  -0.361   6.631   7.103  1.5541 -0.3904  2.5874
  567MOL0     H76487  -0.236   6.758   7.062  0.5357  0.7064 -3.7207
  567MOL0     H76488  -0.346   6.848   7.252  1.1096  1.0877  0.3808
  567MOL0     H76489  -0.430   6.938   7.128 -0.2873 -0.4668 -1.2043
  567MOL0     H76490  -0.574   6.856   7.295 -1.6396 -0.0476 -1.1182
  567MOL0     H76491  -0.620   6.794   7.137 -0.1543 -0.0194  0.1091
  567MOL0     H76492  -0.553   6.570   7.206 -2.9394 -1.3772  0.4634
  567MOL0     H76493  -0.483   6.642   7.359  0.3492  1.2240 -0.8008
  567MOL0     H76494  -0.778   6.621   7.258  1.0453  3.2414 -2.1251
  567MOL0     H76495  -0.731   6.720   7.392  1.1757  1.1388 -0.7669
  567MOL0     H76496  -0.703   6.330   7.282  0.8762  0.9822 -0.9714
  567MOL0     H76497  -0.674   6.129   7.426  0.0483 -0.8908  0.7558
  567MOL0     H76498  -0.607   6.156   7.587  1.6722  2.1036 -1.8911
  567MOL0     H76499  -0.844   6.197   7.675  1.4129  1.9319  0.0585
  567MOL0     H76500  -0.797   6.036   7.638  0.6159  1.3264  2.2808
  567MOL0     H76501  -0.887   6.070   7.393  0.8839  0.2981  0.6675
  567MOL0     H76502  -0.984   6.202   7.450 -1.1174 -0.2432 -0.6252
  567MOL0     H76503  -0.992   5.916   7.549 -1.3281 -0.8457  2.3710
  567MOL0     H76504  -1.123   5.998   7.454 -3.3708  3.6139  2.1486
  567MOL0     H76505  -1.202   5.830   7.621  2.0359 -2.4621  0.3062
  567MOL0     H76506  -1.386   5.630   7.853 -3.0512  2.8125 -0.8825
  567MOL0     H76507  -1.332   5.649   7.687  0.8083  0.8656  0.9800
  567MOL0     H76508  -1.224   5.570   7.804  1.9603  1.9831  0.0215
  567MOL0     H76509  -1.252   5.354   8.104 -2.3572 -3.2105 -1.4740
  567MOL0     H76510  -1.324   5.213   8.279 -1.8162  0.2425  2.3527
  567MOL0     H76511  -1.664   5.375   8.545 -0.0455 -1.5153  0.7058
  567MOL0     H76512  -1.653   5.276   8.405 -0.4256  1.8305 -0.1707
  567MOL0     H76513  -1.588   5.177   8.703  1.1092 -2.8357  0.2372
  567MOL0     H76514  -1.736   5.149   8.615 -1.0066  4.2690 -2.5461
  567MOL0     H76515  -1.460   5.044   8.562  0.4901 -0.5007 -0.5345
  567MOL0     H76516  -1.575   5.038   8.436 -0.8430  1.9977  0.2250
  567MOL0     H76517  -1.622   4.899   8.706 -1.9530 -2.5245  0.4049
  567MOL0     H76518  -1.722   4.888   8.575  0.6472  1.8305 -2.5126
  567MOL0     H76519  -1.436   4.809   8.628 -0.4980  3.3211  0.3626
  567MOL0     H76520  -1.486   4.796   8.461 -0.2862  0.1372  0.6831
  567MOL0     H76521  -1.645   4.653   8.680 -2.4060  3.2894 -1.2188
  567MOL0     H76522  -1.677   4.636   8.519  0.0134  0.6454  1.7649
  567MOL0     H76523  -1.534   4.441   8.637 -2.4357 -0.3189 -1.5086
  567MOL0     H76524  -1.399   4.555   8.616  2.9675 -4.2976 -2.7747
  567MOL0     H76525  -1.573   4.478   8.378 -0.9119 -0.6510  1.4561
  567MOL0     H76526  -1.434   4.388   8.444  2.4309  1.2504 -0.6989
  567MOL0     H76527  -1.548   5.547   8.453 -2.4220 -1.5005 -1.8216
  567MOL0     H76528  -1.448   5.694   8.279  0.3829 -0.1119  1.2469
  567MOL0     H76529  -1.077   5.957   8.084  2.5090  0.5470 -0.5350
  567MOL0     H76530  -1.006   6.088   7.882  0.7826 -1.1668  1.7853
  567MOL0     H76531  -0.148   6.620   6.487 -0.0983  0.2597 -1.3707
  567MOL0     H76532   0.034   6.627   6.336 -1.6091 -3.7772  1.0954
  567MOL0     H76533   0.470   6.501   6.332 -2.3793 -0.7078  0.3558
  567MOL0     H76534   0.498   6.354   6.175  3.0217 -0.0663 -2.0661
  567MOL0     H76535   0.613   6.287   5.982 -0.8746  1.5738  2.2572
  567MOL0     H76536   0.454   6.194   5.950 -0.0086 -2.8474 -3.2497
  567MOL0     H76537   0.629   6.106   5.816 -0.3144 -0.7034  0.6989
  567MOL0     H76538   0.662   6.265   5.738 -0.1057 -1.8350 -3.3678
  567MOL0     H76539   0.389   6.256   5.706 -2.0875 -1.2592 -0.9278
  567MOL0     H76540   0.406   6.088   5.752 -1.1788  0.4146 -1.1554
  567MOL0     H76541   0.394   6.130   5.490  0.3588 -0.9163  0.3595
  567MOL0     H76542   0.530   6.035   5.552  0.7515 -0.1503  0.2789
  567MOL0     H76543   0.708   6.396   5.415  2.2514 -0.0397  1.1487
  567MOL0     H76544   0.325   6.606   5.872 -0.9395 -5.2024 -0.7325
  567MOL0     H76545   0.267   6.772   6.060 -0.3472 -0.0917  0.2955
  568MOL0     O76546   2.187   5.161   8.426  0.9367  0.1708  0.5575
  568MOL0     C76547   2.308   5.183   8.407  0.9699  0.4557 -1.5818
  568MOL0     O76548   2.361   5.293   8.351  0.4208 -0.7671  0.8342
  568MOL0     C76549   2.267   5.378   8.293 -1.0242 -0.8356  1.5210
  568MOL0     C76550   2.211   5.357   8.162  0.8800  0.4003 -0.3905
  568MOL0     C76551   2.121   5.458   8.118 -0.8236  0.8104  0.1527
  568MOL0     C76552   2.087   5.566   8.195  0.3967  0.3478  0.5235
  568MOL0     O76553   1.982   5.648   8.185  0.0466 -0.1547 -0.6498
  568MOL0     C76554   1.915   5.648   8.057 -0.0652 -0.6682 -0.9717
  568MOL0     C76555   1.791   5.549   8.060 -0.1108  0.4980  0.1154
  568MOL0     C76556   1.765   5.497   7.915 -0.4620  0.2041  0.3352
  568MOL0     C76557   1.719   5.614   7.826  0.4890  1.7012 -0.7461
  568MOL0     C76558   1.743   5.592   7.683  0.0104  1.5313 -0.0625
  568MOL0     C76559   1.677   5.699   7.597 -0.3284  0.4698  0.4595
  568MOL0     C76560   1.735   5.677   7.450  0.1920 -0.0843 -0.6884
  568MOL0     C76561   1.715   5.799   7.354  0.3892  0.7544 -0.5622
  568MOL0     N76562   1.783   5.763   7.225 -0.4935  0.9882 -0.0653
  568MOL0     C76563   1.917   5.763   7.193 -0.1718 -1.0220  0.1823
  568MOL0     C76564   1.921   5.708   7.068 -0.7914  0.0350  0.8145
  568MOL0     C76565   2.042   5.682   6.986  0.3566 -0.4617 -0.5444
  568MOL0     C76566   2.059   5.757   6.854 -0.6273  0.3833 -0.5263
  568MOL0     C76567   2.211   5.767   6.809 -0.2589  0.4111  0.0735
  568MOL0     C76568   2.239   5.774   6.659 -0.1340  0.8606  0.4351
  568MOL0     O76569   2.195   5.652   6.592  0.9248  0.0047  0.3105
  568MOL0     C76570   2.282   5.540   6.577 -0.0261 -0.0369  1.0259
  568MOL0     C76571   2.252   5.437   6.494 -0.3949  0.5464 -0.0439
  568MOL0     C76572   2.334   5.322   6.467 -0.1752  0.4472 -0.1922
  568MOL0     C76573   2.285   5.209   6.379  0.0282 -0.2339 -0.6363
  568MOL0     C76574   2.462   5.324   6.531 -0.7067  0.2157 -0.3520
  568MOL0     C76575   2.553   5.219   6.539  1.0970 -0.6667 -0.1628
  568MOL0     O76576   2.667   5.246   6.474 -0.7700  0.3117 -0.3368
  568MOL0     C76577   2.772   5.154   6.496 -0.0716 -0.6512  0.1798
  568MOL0     C76578   2.875   5.178   6.590  0.6869  0.1189 -0.8298
  568MOL0     C76579   2.975   5.086   6.606  0.3437  0.7101  0.4019
  568MOL0     C76580   2.978   4.961   6.536  0.5864 -0.5260 -0.4197
  568MOL0     O76581   3.061   4.847   6.552 -0.7438 -0.5215  0.6637
  568MOL0     C76582   3.153   4.855   6.668 -0.5492  0.5544 -0.2874
  568MOL0     C76583   3.248   4.730   6.652  0.0953 -0.4230 -0.1561
  568MOL0     C76584   3.184   4.609   6.715 -0.6924 -0.4754 -0.5901
  568MOL0     C76585   3.256   4.479   6.686  0.7234  0.6744 -0.4909
  568MOL0     C76586   3.165   4.357   6.703 -0.7333 -0.2548  0.1601
  568MOL0     C76587   3.209   4.226   6.637  1.0539 -0.3193 -0.1750
  568MOL0     C76588   3.142   4.100   6.690 -0.0768 -0.0360 -0.7479
  568MOL0     C76589   3.229   3.988   6.649  0.7118  0.6935  0.3635
  568MOL0    Cl76590   3.135   3.830   6.659  0.2004 -0.2701  0.1196
  568MOL0     C76591   2.874   4.945   6.438 -0.6045  0.3147 -0.9263
  568MOL0     C76592   2.776   5.038   6.417  0.6160 -0.6720  0.5470
  568MOL0     O76593   2.512   5.110   6.574 -0.1126  0.3630 -0.2510
  568MOL0     C76594   2.498   5.427   6.617 -0.5439 -0.1162 -0.2265
  568MOL0     C76595   2.409   5.535   6.640 -0.2962 -0.5043 -0.0819
  568MOL0     N76596   1.789   5.683   7.029 -0.3213  0.5584 -0.5508
  568MOL0     N76597   1.707   5.720   7.117  0.1306 -0.4336 -0.2871
  568MOL0     C76598   2.136   5.582   8.316 -0.4035  0.1993  0.5327
  568MOL0     C76599   2.233   5.489   8.363  0.1514  0.5741  0.5025
  568MOL0     C76600   2.400   5.071   8.458  0.1655  0.2269  0.1206
  568MOL0     C76601   2.363   4.937   8.435 -0.6274  0.1301 -0.1550
  568MOL0     C76602   2.449   4.841   8.480 -1.0470 -0.2642 -0.0813
  568MOL0     C76603   2.573   4.868   8.547 -0.1481  0.5517 -0.0389
  568MOL0     O76604   2.652   4.759   8.581  0.0324 -0.0584  0.5442
  568MOL0     C76605   2.745   4.756   8.693 -0.4628 -0.1111 -0.4104
  568MOL0     C76606   2.828   4.625   8.678 -0.5301  0.1052 -1.0600
  568MOL0     C76607   2.905   4.608   8.547  0.2786  0.1901  0.7446
  568MOL0     C76608   2.967   4.464   8.539 -0.9027  0.0837 -0.3486
  568MOL0     C76609   3.079   4.455   8.436 -0.0340  0.1857 -0.9475
  568MOL0     C76610   3.174   4.449   8.368  0.4216 -0.2513 -0.5499
  568MOL0     C76611   2.605   5.005   8.557  0.2431  0.3473 -0.3060
  568MOL0     C76612   2.532   5.101   8.500  0.8114  0.9675 -0.0147
  568MOL0     H76613   2.246   5.281   8.093  1.3957  1.6924 -1.5980
  568MOL0     H76614   2.077   5.456   8.019 -1.2066  1.5107  0.2970
  568MOL0     H76615   1.878   5.749   8.037 -0.4450 -0.0560  2.2848
  568MOL0     H76616   1.985   5.627   7.976  0.3577 -0.3622 -0.6908
  568MOL0     H76617   1.820   5.462   8.120  0.6177 -0.0361 -0.9589
  568MOL0     H76618   1.701   5.602   8.092 -0.7800 -0.9870  0.7779
  568MOL0     H76619   1.853   5.461   7.861 -1.6893 -1.8628 -0.3929
  568MOL0     H76620   1.688   5.420   7.914  2.2116 -2.6470 -0.6912
  568MOL0     H76621   1.614   5.637   7.845  0.4646  0.0975  1.4859
  568MOL0     H76622   1.774   5.704   7.853 -1.2704  1.3868  5.2973
  568MOL0     H76623   1.851   5.604   7.670  0.2187 -0.3791 -0.3669
  568MOL0     H76624   1.703   5.497   7.647  3.6729  0.3891 -1.5392
  568MOL0     H76625   1.570   5.676   7.601 -0.1112 -0.7944 -0.4796
  568MOL0     H76626   1.696   5.801   7.630  0.8909 -0.1422  1.7461
  568MOL0     H76627   1.840   5.646   7.451  0.1552 -0.1932  0.9007
  568MOL0     H76628   1.678   5.595   7.407 -1.9152  0.2303  1.3176
  568MOL0     H76629   1.761   5.887   7.398  2.0219  1.4658 -3.4712
  568MOL0     H76630   1.607   5.803   7.335 -0.0585 -4.4654 -0.6022
  568MOL0     H76631   2.001   5.811   7.242 -0.8128 -0.7830  1.0757
  568MOL0     H76632   2.124   5.721   7.049 -3.1213  1.6887  3.1568
  568MOL0     H76633   2.049   5.574   6.971  3.0653 -0.4415  0.0505
  568MOL0     H76634   2.023   5.860   6.866 -3.8855 -0.8327  1.2265
  568MOL0     H76635   1.991   5.708   6.785 -1.3206  0.6990 -0.0766
  568MOL0     H76636   2.249   5.673   6.847 -0.9573  0.7392  1.6674
  568MOL0     H76637   2.270   5.847   6.855  0.3186 -0.3908  0.7652
  568MOL0     H76638   2.344   5.799   6.637 -0.2303 -0.1308 -1.3512
  568MOL0     H76639   2.177   5.851   6.611  2.2353  0.6901 -3.3096
  568MOL0     H76640   2.151   5.429   6.454  0.2635 -1.3519 -1.4719
  568MOL0     H76641   2.186   5.233   6.341  0.2572  0.6403 -0.7120
  568MOL0     H76642   2.348   5.191   6.291  0.1843  0.6321 -0.7097
  568MOL0     H76643   2.263   5.120   6.439  1.7404 -1.2267 -1.3962
  568MOL0     H76644   2.882   5.267   6.651  0.3161 -1.4697  1.6590
  568MOL0     H76645   3.055   5.106   6.676  2.3933 -4.2381 -0.1262
  568MOL0     H76646   3.213   4.947   6.664  1.7215 -0.8949 -1.9673
  568MOL0     H76647   3.109   4.853   6.768  1.7649 -0.4126  0.7844
  568MOL0     H76648   3.261   4.708   6.546 -2.5682 -3.7039  0.0423
  568MOL0     H76649   3.349   4.757   6.684  0.8046 -1.3826 -1.4666
  568MOL0     H76650   3.083   4.610   6.672 -2.4604  1.0644  3.1123
  568MOL0     H76651   3.164   4.625   6.822  0.5948 -2.3246 -0.0153
  568MOL0     H76652   3.288   4.480   6.581  1.1072 -2.1755 -0.4689
  568MOL0     H76653   3.342   4.472   6.752  0.7859  2.1985 -0.3670
  568MOL0     H76654   3.063   4.381   6.671 -0.3767 -1.0918 -1.7541
  568MOL0     H76655   3.173   4.351   6.812 -0.3520 -0.1627  0.1407
  568MOL0     H76656   3.190   4.235   6.530 -2.0601  0.5574  0.3507
  568MOL0     H76657   3.318   4.215   6.642  1.1806 -0.1743 -1.9611
  568MOL0     H76658   3.049   4.107   6.633 -1.4996  1.3201  1.5788
  568MOL0     H76659   3.116   4.090   6.796 -2.4214  0.2897 -1.2318
  568MOL0     H76660   3.324   3.987   6.704  1.2759  1.7035 -0.5424
  568MOL0     H76661   3.245   4.000   6.541 -2.8559 -1.5411 -0.5806
  568MOL0     H76662   2.866   4.849   6.387 -3.2290  0.8502 -1.6526
  568MOL0     H76663   2.702   5.012   6.342  1.7709 -0.1245 -0.8451
  568MOL0     H76664   2.592   5.439   6.668 -2.7942 -0.6673  4.6144
  568MOL0     H76665   2.446   5.627   6.685 -0.4876 -0.0185 -0.8984
  568MOL0     H76666   2.102   5.668   8.373 -1.4011  0.9300 -1.0981
  568MOL0     H76667   2.286   5.500   8.457  2.6438 -1.3437 -0.5668
  568MOL0     H76668   2.269   4.914   8.387 -1.2007  0.8410  0.5927
  568MOL0     H76669   2.434   4.733   8.473  4.5187 -1.3051 -0.6779
  568MOL0     H76670   2.813   4.842   8.691 -2.9527  1.9799 -2.6348
  568MOL0     H76671   2.698   4.762   8.792 -0.2711  1.0491 -0.3642
  568MOL0     H76672   2.750   4.548   8.688 -1.0692  0.9514  2.3949
  568MOL0     H76673   2.900   4.611   8.759 -2.5366  0.6824  0.9243
  568MOL0     H76674   2.985   4.683   8.541  3.3175 -2.8900 -1.3221
  568MOL0     H76675   2.834   4.630   8.467  1.2183 -0.2066 -0.2297
  568MOL0     H76676   2.894   4.382   8.537 -1.2039  0.2996  1.0101
  568MOL0     H76677   3.014   4.450   8.637  0.6587 -5.3684 -1.5278
  568MOL0     H76678   3.264   4.431   8.312  0.2703 -1.2517 -0.4913
  568MOL0     H76679   2.703   5.027   8.599  1.3405 -1.4140 -1.7521
  568MOL0     H76680   2.563   5.204   8.511 -1.5431  2.4789 -4.8105
  569MOL0     O76681   9.585   9.758   3.394 -0.3640  0.9210  0.1330
  569MOL0     C76682   9.477   9.817   3.385 -0.3228  0.3564  0.1366
  569MOL0     O76683   9.453   9.945   3.424 -0.5165  0.1267 -0.4961
  569MOL0     C76684   9.553  10.034   3.433 -0.5067  0.1437 -0.1511
  569MOL0     C76685   9.563  10.139   3.345  0.2057 -0.3330  0.1051
  569MOL0     C76686   9.664  10.235   3.352  0.6603 -0.5859 -0.4579
  569MOL0     C76687   9.721  10.248   3.478 -0.4151 -0.7847  0.0490
  569MOL0     O76688   9.813  10.343   3.494  0.0781  0.0145  0.1787
  569MOL0     C76689   9.939  10.318   3.444  0.2178 -0.3488  0.2157
  569MOL0     C76690  10.035  10.394   3.532 -0.6161  0.3862  0.5746
  569MOL0     C76691  10.182  10.364   3.490  0.0027  0.0464 -0.5894
  569MOL0     C76692  10.278  10.453   3.562 -0.5540 -0.0573 -0.9380
  569MOL0     C76693  10.413  10.391   3.551  0.8081 -0.7277  0.1247
  569MOL0     C76694  10.532  10.456   3.619 -0.2897  0.0511  0.4603
  569MOL0     C76695  10.511  10.506   3.771  0.6285 -1.0177  0.3965
  569MOL0     C76696  10.508  10.390   3.871 -0.4978  0.0871  1.3849
  569MOL0     N76697  10.643  10.327   3.867 -0.9145  0.2301  0.0581
  569MOL0     C76698  10.768  10.397   3.872  0.0038 -0.6996 -0.9268
  569MOL0     C76699  10.852  10.292   3.872  0.1661  0.6020 -1.1705
  569MOL0     C76700  11.000  10.291   3.887 -0.5753 -0.3205  0.5383
  569MOL0     C76701  11.056  10.230   4.018  0.0225 -0.4333 -0.0770
  569MOL0     C76702  10.974  10.275   4.148  0.3274  0.5920 -0.1178
  569MOL0     C76703  10.976  10.167   4.263 -0.6034 -0.0832  0.7402
  569MOL0     O76704  10.934  10.229   4.395  0.0429  0.2461  0.5456
  569MOL0     C76705  10.899  10.141   4.493  0.0335  0.5077 -0.2758
  569MOL0     C76706  10.927   9.996   4.497  0.2331 -0.6992  0.0979
  569MOL0     C76707  10.893   9.919   4.607 -0.9015 -0.2033 -1.4706
  569MOL0     C76708  10.929   9.774   4.598  1.2893  0.8695 -0.1256
  569MOL0     C76709  10.832   9.980   4.723  0.1422  0.0803 -0.1422
  569MOL0     C76710  10.792   9.914   4.851  0.5865 -1.0653 -0.3621
  569MOL0     O76711  10.743  10.008   4.950  0.4036  0.4920 -0.4794
  569MOL0     C76712  10.701   9.962   5.074 -0.4842 -0.1331  0.7856
  569MOL0     C76713  10.724   9.841   5.145  1.0381 -0.4737  0.5487
  569MOL0     C76714  10.687   9.831   5.273  0.1364 -0.4630 -1.1311
  569MOL0     C76715  10.624   9.930   5.347 -0.1212 -1.1556  0.0672
  569MOL0     O76716  10.590   9.901   5.481 -0.4297 -0.2754 -0.2165
  569MOL0     C76717  10.520  10.003   5.550  1.0848  0.5819  0.0800
  569MOL0     C76718  10.484   9.964   5.692  0.3803 -0.1445 -0.2822
  569MOL0     C76719  10.596   9.954   5.786 -0.2857  0.9913  0.8798
  569MOL0     C76720  10.553   9.949   5.935  0.0673  0.4275  0.3191
  569MOL0     C76721  10.659  10.009   6.022  0.7429 -0.7314  0.7611
  569MOL0     C76722  10.641   9.989   6.174  0.4073  0.4165 -0.5551
  569MOL0     C76723  10.732  10.079   6.248  0.3428  0.2492 -0.0789
  569MOL0     C76724  10.757  10.053   6.396 -0.3901  0.5549  0.2422
  569MOL0    Cl76725  10.606  10.025   6.495 -0.1390  0.3423  0.4987
  569MOL0     C76726  10.595  10.046   5.285  1.0604  0.4004  0.6180
  569MOL0     C76727  10.642  10.065   5.149  0.6070  0.3382 -0.2287
  569MOL0     O76728  10.818   9.797   4.873 -0.4628 -0.5967 -0.2295
  569MOL0     C76729  10.797  10.114   4.711  0.4254  1.1761  0.5794
  569MOL0     C76730  10.840  10.196   4.602  0.6048  1.1659  0.7617
  569MOL0     N76731  10.781  10.173   3.887 -0.5439  0.0660  0.2944
  569MOL0     N76732  10.651  10.195   3.886 -0.2022 -0.0046 -0.2032
  569MOL0     C76733   9.694  10.157   3.577  0.6173  0.1790 -0.0556
  569MOL0     C76734   9.616  10.042   3.550  0.4131 -0.4329 -0.6119
  569MOL0     C76735   9.353   9.739   3.357 -0.6753  0.4421  0.0130
  569MOL0     C76736   9.223   9.793   3.375  0.3598 -0.7985  0.0524
  569MOL0     C76737   9.104   9.721   3.332 -0.4362 -0.4081  0.2348
  569MOL0     C76738   9.118   9.596   3.276 -0.5451 -0.6630 -0.6999
  569MOL0     O76739   9.008   9.521   3.249  0.2067 -0.0935 -0.5962
  569MOL0     C76740   8.984   9.488   3.112  0.3629 -0.5628  0.4672
  569MOL0     C76741   8.994   9.332   3.099  1.1611  0.3166 -0.4382
  569MOL0     C76742   8.941   9.276   2.967  0.0499  0.5719 -0.5937
  569MOL0     C76743   8.960   9.125   2.967 -0.1532 -0.6737 -0.3956
  569MOL0     C76744   9.096   9.077   3.015  0.9909  0.2503 -0.1438
  569MOL0     C76745   9.201   9.035   3.054 -0.0799 -0.4160  0.4151
  569MOL0     C76746   9.253   9.546   3.248  0.0752  1.2712  0.5526
  569MOL0     C76747   9.371   9.614   3.291 -0.5177  0.2080 -0.9806
  569MOL0     H76748   9.498  10.146   3.258  0.5657  0.1302 -0.1338
  569MOL0     H76749   9.676  10.316   3.280  1.9656  2.3885  2.8144
  569MOL0     H76750   9.963  10.212   3.451  1.9646 -0.0043 -0.1222
  569MOL0     H76751   9.951  10.351   3.340  0.4101 -3.5718 -0.8828
  569MOL0     H76752  10.025  10.503   3.532 -1.2146  0.3801  3.2093
  569MOL0     H76753  10.023  10.364   3.636 -1.4569 -0.4008  0.2623
  569MOL0     H76754  10.211  10.263   3.520  2.2551  0.1955 -2.0007
  569MOL0     H76755  10.195  10.365   3.382 -0.2403 -0.5533 -0.6236
  569MOL0     H76756  10.278  10.558   3.532 -0.1558 -0.5251 -2.7263
  569MOL0     H76757  10.252  10.444   3.668 -1.4707 -0.0789 -1.1557
  569MOL0     H76758  10.407  10.288   3.587 -1.8397  0.1609  2.6328
  569MOL0     H76759  10.432  10.385   3.444  1.7965  1.0279  0.1618
  569MOL0     H76760  10.615  10.384   3.619 -1.0157 -0.8028  0.8807
  569MOL0     H76761  10.568  10.543   3.565 -1.7307 -1.6184 -3.5441
  569MOL0     H76762  10.570  10.591   3.804 -2.6493  1.9313 -0.6600
  569MOL0     H76763  10.414  10.557   3.778  1.1749 -0.2423  3.6142
  569MOL0     H76764  10.436  10.315   3.837 -1.9597  1.6323  0.9444
  569MOL0     H76765  10.480  10.427   3.970 -0.6394  0.7222  1.1130
  569MOL0     H76766  10.778  10.504   3.884 -1.9364  0.0241 -4.4960
  569MOL0     H76767  11.051  10.248   3.800 -0.9996  1.5304 -0.6893
  569MOL0     H76768  11.047  10.390   3.883  0.9020 -1.0052  0.5153
  569MOL0     H76769  11.161  10.258   4.034  0.3690 -2.5261  1.8575
  569MOL0     H76770  11.058  10.120   4.011  1.5060 -0.4246 -0.2203
  569MOL0     H76771  10.870  10.303   4.129  0.8015  0.6014 -3.1442
  569MOL0     H76772  11.026  10.365   4.184 -2.2890  2.1690  0.0288
  569MOL0     H76773  11.080  10.134   4.275 -0.4814  0.2808  0.6838
  569MOL0     H76774  10.913  10.080   4.242  0.9410 -1.4254  1.4451
  569MOL0     H76775  10.964   9.942   4.410 -1.2043 -1.1306 -0.2730
  569MOL0     H76776  10.940   9.743   4.494  3.0140  0.8401  0.0498
  569MOL0     H76777  11.023   9.761   4.652  0.7079 -3.7723  0.1609
  569MOL0     H76778  10.852   9.708   4.641  2.0485 -1.6744 -2.4280
  569MOL0     H76779  10.772   9.756   5.097  0.5605  0.8603 -2.5480
  569MOL0     H76780  10.707   9.735   5.320  1.1471  1.3827  2.5902
  569MOL0     H76781  10.590  10.086   5.562  2.7035 -0.9126  1.6682
  569MOL0     H76782  10.437  10.036   5.487  0.7217  1.0038  0.7626
  569MOL0     H76783  10.432  10.046   5.742 -0.3866 -3.0919  4.3510
  569MOL0     H76784  10.420   9.875   5.692 -0.8959  0.7244  1.2465
  569MOL0     H76785  10.661  10.041   5.771 -1.1612  1.8189  1.7673
  569MOL0     H76786  10.660   9.870   5.758  0.0218  0.9583  1.6515
  569MOL0     H76787  10.458   9.995   5.966 -1.4502 -2.2831 -0.0274
  569MOL0     H76788  10.539   9.842   5.955  0.4723  0.4677  0.8411
  569MOL0     H76789  10.657  10.117   6.003 -2.1415 -0.3501  2.6128
  569MOL0     H76790  10.760   9.971   6.006  0.2674 -2.2644  1.2664
  569MOL0     H76791  10.539  10.021   6.198  0.8995  1.4266  0.2334
  569MOL0     H76792  10.642   9.884   6.205 -0.2511  0.8820  1.1640
  569MOL0     H76793  10.681  10.175   6.233 -0.2809 -0.0374  0.1444
  569MOL0     H76794  10.827  10.086   6.195  0.1314  0.3323 -0.4481
  569MOL0     H76795  10.822  10.134   6.429  0.3916  0.6045 -1.3242
  569MOL0     H76796  10.805   9.954   6.399 -1.9489 -0.2718 -0.7427
  569MOL0     H76797  10.531  10.125   5.322  0.2787 -0.2799  0.7430
  569MOL0     H76798  10.638  10.155   5.088  0.2318 -0.9013 -2.0917
  569MOL0     H76799  10.735  10.166   4.784 -1.9524  0.3470 -0.7388
  569MOL0     H76800  10.817  10.302   4.610  3.2334  1.6826  3.4620
  569MOL0     H76801   9.729  10.171   3.679 -2.1885  0.2051  1.0100
  569MOL0     H76802   9.595   9.968   3.626  2.5654 -0.4630  0.0286
  569MOL0     H76803   9.207   9.891   3.419 -2.0999 -1.3570  0.5486
  569MOL0     H76804   9.008   9.769   3.348  0.1653  1.2669 -0.8382
  569MOL0     H76805   8.879   9.511   3.089 -0.4920 -0.4662  3.9020
  569MOL0     H76806   9.046   9.542   3.041  1.0869  0.1711  1.6293
  569MOL0     H76807   8.932   9.298   3.182 -1.3064  5.2821  0.1618
  569MOL0     H76808   9.097   9.295   3.111  0.8814 -1.3955 -2.6732
  569MOL0     H76809   8.994   9.318   2.881  1.6983 -1.0714 -0.4396
  569MOL0     H76810   8.838   9.308   2.949  0.3720  2.8186  1.0195
  569MOL0     H76811   8.943   9.097   2.862 -0.8392  1.1658 -0.8105
  569MOL0     H76812   8.900   9.068   3.038  1.4738 -2.0834 -0.1069
  569MOL0     H76813   9.292   9.000   3.100  1.1001  0.9967 -0.7303
  569MOL0     H76814   9.271   9.449   3.203  3.1976  2.3112 -0.7247
  569MOL0     H76815   9.471   9.579   3.267 -0.8708 -1.3513 -0.3216
  570MOL0     O76816  11.298   5.494   5.156  0.1180 -0.5706  0.2267
  570MOL0     C76817  11.240   5.394   5.205 -0.2488 -0.1392  0.4894
  570MOL0     O76818  11.186   5.294   5.131 -0.3257 -0.5578  0.6480
  570MOL0     C76819  11.201   5.290   4.992  0.0484  0.4891 -0.6840
  570MOL0     C76820  11.280   5.193   4.943 -0.2270  0.2906  2.0155
  570MOL0     C76821  11.288   5.173   4.804  0.6489 -0.0560  0.2571
  570MOL0     C76822  11.223   5.263   4.722  0.3649  0.4718  0.1919
  570MOL0     O76823  11.239   5.236   4.586 -0.2345 -0.3703 -0.8391
  570MOL0     C76824  11.247   5.349   4.501 -0.1109 -0.4816  0.8893
  570MOL0     C76825  11.356   5.323   4.401  0.0544  0.0319 -0.0607
  570MOL0     C76826  11.358   5.421   4.286  0.8353 -0.2201  0.4916
  570MOL0     C76827  11.461   5.394   4.175 -0.6242 -0.1813 -0.3710
  570MOL0     C76828  11.456   5.496   4.066 -0.7785 -0.7352  1.3223
  570MOL0     C76829  11.509   5.640   4.096  0.4367  1.1572 -0.1668
  570MOL0     C76830  11.499   5.726   3.971  0.3240 -0.9348  0.1429
  570MOL0     C76831  11.566   5.858   4.011 -0.0783  0.1673  0.1248
  570MOL0     N76832  11.559   5.958   3.909  0.7065  1.0906 -0.4908
  570MOL0     C76833  11.579   5.947   3.774 -0.3675  1.0098  0.7335
  570MOL0     C76834  11.571   6.074   3.726 -0.2432 -0.4237 -0.0821
  570MOL0     C76835  11.604   6.094   3.578  0.9688 -0.0858  0.2357
  570MOL0     C76836  11.511   6.202   3.508  1.1264  0.2831 -1.0312
  570MOL0     C76837  11.548   6.347   3.555 -0.1465  0.4820  0.2336
  570MOL0     C76838  11.471   6.452   3.469  1.1598  0.1914 -0.5745
  570MOL0     O76839  11.531   6.578   3.504 -0.1180  0.3762  0.1081
  570MOL0     C76840  11.513   6.686   3.419  0.3696 -0.7682  0.6390
  570MOL0     C76841  11.599   6.791   3.447 -0.4781  0.1026  0.1288
  570MOL0     C76842  11.620   6.899   3.359  0.4559  0.2146 -0.2447
  570MOL0     C76843  11.709   7.011   3.412 -0.3434  0.1922 -0.1872
  570MOL0     C76844  11.556   6.897   3.230  0.4347 -0.0782  1.0189
  570MOL0     C76845  11.576   7.000   3.126 -0.0981 -0.9179  0.2838
  570MOL0     O76846  11.482   7.005   3.028  0.5554 -0.4706 -0.8880
  570MOL0     C76847  11.483   7.110   2.948  0.5329 -0.9949  0.6904
  570MOL0     C76848  11.505   7.087   2.815 -0.4573 -0.3011  0.1074
  570MOL0     C76849  11.507   7.195   2.721 -0.2060  0.4121 -0.2064
  570MOL0     C76850  11.482   7.318   2.769 -0.3858 -0.1216 -0.6996
  570MOL0     O76851  11.509   7.422   2.682 -0.3688  0.1067 -0.6522
  570MOL0     C76852  11.398   7.506   2.654 -0.6631  0.6140 -0.2530
  570MOL0     C76853  11.461   7.652   2.635 -0.3135  0.7496  1.3936
  570MOL0     C76854  11.570   7.649   2.531 -0.1580  0.0103  0.9916
  570MOL0     C76855  11.647   7.790   2.512 -0.3076  0.1802 -0.6237
  570MOL0     C76856  11.549   7.906   2.508 -0.2449  0.2924  0.0120
  570MOL0     C76857  11.586   8.040   2.469  0.2018 -0.9139 -0.1449
  570MOL0     C76858  11.703   8.083   2.552 -0.8377 -0.4486  0.0228
  570MOL0     C76859  11.778   8.200   2.482 -0.7882  0.5826 -0.2243
  570MOL0    Cl76860  11.686   8.358   2.507 -0.4631  0.5620  0.1256
  570MOL0     C76861  11.456   7.341   2.898 -0.4049 -0.1767  0.0696
  570MOL0     C76862  11.454   7.238   2.989  0.0120 -0.3726  0.2722
  570MOL0     O76863  11.672   7.076   3.127 -0.7527  0.1558 -0.6716
  570MOL0     C76864  11.461   6.791   3.207  0.2681  0.0120  0.4238
  570MOL0     C76865  11.442   6.685   3.296  0.2706  0.1935 -0.9325
  570MOL0     N76866  11.563   6.168   3.830  0.2795  0.7514  0.2229
  570MOL0     N76867  11.553   6.094   3.940  0.6485  1.1106 -0.1903
  570MOL0     C76868  11.137   5.366   4.777 -0.2225  0.9324  0.2831
  570MOL0     C76869  11.124   5.377   4.915 -0.8417 -0.9555  0.2586
  570MOL0     C76870  11.235   5.398   5.361  0.7805  0.7510 -0.3438
  570MOL0     C76871  11.138   5.313   5.436 -0.3262 -0.5433  0.6072
  570MOL0     C76872  11.115   5.336   5.566  0.7882  1.1111 -0.0269
  570MOL0     C76873  11.198   5.421   5.632  1.6781  0.2278 -0.4705
  570MOL0     O76874  11.197   5.422   5.771 -1.3840  0.2301  0.4113
  570MOL0     C76875  11.322   5.419   5.828 -0.2953 -0.0122 -0.0276
  570MOL0     C76876  11.381   5.277   5.813  0.5179  0.0961 -0.3806
  570MOL0     C76877  11.304   5.165   5.889  0.4913  0.3729 -0.2884
  570MOL0     C76878  11.403   5.064   5.937  0.2713  0.8285 -0.1001
  570MOL0     C76879  11.483   5.113   6.049 -0.2976  0.4911 -0.1354
  570MOL0     C76880  11.549   5.169   6.135 -0.3555  1.2850  0.2765
  570MOL0     C76881  11.291   5.504   5.562 -0.4791  0.5580 -0.0923
  570MOL0     C76882  11.301   5.502   5.426 -0.9849 -0.6554  0.0455
  570MOL0     H76883  11.332   5.126   5.010  1.3322 -1.0178 -0.3336
  570MOL0     H76884  11.354   5.099   4.761  3.5547  1.2365  2.1421
  570MOL0     H76885  11.160   5.365   4.436 -0.6899  1.1658  2.0030
  570MOL0     H76886  11.261   5.442   4.557 -1.5379  1.8287 -2.2918
  570MOL0     H76887  11.455   5.322   4.448 -0.4094  0.8192  0.9587
  570MOL0     H76888  11.336   5.224   4.358 -2.0931 -0.0114  0.9127
  570MOL0     H76889  11.267   5.420   4.226  1.0279  1.6159  0.1269
  570MOL0     H76890  11.368   5.523   4.323  1.2249  1.1726 -3.0664
  570MOL0     H76891  11.559   5.408   4.222 -0.8824  0.8553 -0.1185
  570MOL0     H76892  11.432   5.297   4.134 -4.0149 -0.5556  2.4232
  570MOL0     H76893  11.518   5.462   3.983 -1.1477 -1.0666  1.1818
  570MOL0     H76894  11.352   5.484   4.037 -0.5697 -2.8098  1.2572
  570MOL0     H76895  11.449   5.677   4.179  1.6754 -0.2519  1.4402
  570MOL0     H76896  11.610   5.638   4.136  0.0183  0.7590  0.9080
  570MOL0     H76897  11.548   5.682   3.884 -0.7830 -1.0526 -0.4342
  570MOL0     H76898  11.396   5.745   3.940  0.7872 -1.8031 -2.1391
  570MOL0     H76899  11.671   5.832   4.031  0.6687  0.9732 -2.3766
  570MOL0     H76900  11.515   5.889   4.102 -0.4411 -0.2276  0.0590
  570MOL0     H76901  11.604   5.860   3.714  1.6491  3.2747 -1.9961
  570MOL0     H76902  11.711   6.115   3.569  1.2847 -1.3550  0.7847
  570MOL0     H76903  11.580   6.008   3.516 -0.0660  1.7222 -2.0109
  570MOL0     H76904  11.406   6.179   3.528  1.4013  0.3715  0.7032
  570MOL0     H76905  11.522   6.202   3.399 -1.3886  1.3058 -1.3435
  570MOL0     H76906  11.655   6.361   3.535  0.0267 -1.3386 -0.3846
  570MOL0     H76907  11.529   6.353   3.662 -3.6992  0.7055 -0.2981
  570MOL0     H76908  11.366   6.455   3.500  1.8013  1.0248  1.8135
  570MOL0     H76909  11.489   6.425   3.365  1.8113 -1.7278  0.0028
  570MOL0     H76910  11.649   6.774   3.542 -2.1946 -0.1375  1.0443
  570MOL0     H76911  11.670   7.112   3.394  0.5371  1.2232  3.0448
  570MOL0     H76912  11.708   7.000   3.521  0.6799  0.1887 -0.1714
  570MOL0     H76913  11.809   7.000   3.371 -0.0221 -2.1169  1.0106
  570MOL0     H76914  11.527   6.985   2.785  0.4997 -0.3559  0.9260
  570MOL0     H76915  11.539   7.172   2.620  1.9136 -0.7574  0.6584
  570MOL0     H76916  11.336   7.465   2.574 -0.0555 -1.0581  0.0918
  570MOL0     H76917  11.333   7.509   2.742  0.2516 -0.1416  0.4725
  570MOL0     H76918  11.380   7.721   2.612 -0.0660  0.6054  0.0070
  570MOL0     H76919  11.495   7.681   2.735 -0.5223  2.8506  0.8854
  570MOL0     H76920  11.522   7.612   2.440  0.1583 -3.5183  2.0909
  570MOL0     H76921  11.645   7.573   2.558  2.7326  1.6841 -1.6855
  570MOL0     H76922  11.715   7.805   2.596  0.0340 -2.4585 -0.3376
  570MOL0     H76923  11.710   7.784   2.422  1.4937 -0.3889  0.6152
  570MOL0     H76924  11.500   7.910   2.606 -0.5712  2.5150 -0.1913
  570MOL0     H76925  11.473   7.872   2.436 -0.9040 -1.2059  1.3421
  570MOL0     H76926  11.595   8.045   2.360 -0.2249 -1.3909 -0.2072
  570MOL0     H76927  11.500   8.104   2.489  0.1213 -0.3960 -1.9787
  570MOL0     H76928  11.775   8.001   2.563 -2.0996 -1.5470  0.2692
  570MOL0     H76929  11.670   8.111   2.653 -1.3402 -0.7238 -0.0634
  570MOL0     H76930  11.804   8.181   2.377 -0.2756  2.6024 -0.5126
  570MOL0     H76931  11.877   8.206   2.528  0.6304  1.2475 -3.1120
  570MOL0     H76932  11.435   7.446   2.915  0.3945  0.3034 -1.6962
  570MOL0     H76933  11.424   7.255   3.092  2.9746 -0.7510  1.2709
  570MOL0     H76934  11.401   6.800   3.117 -1.8971  1.6902  1.9447
  570MOL0     H76935  11.375   6.602   3.274  1.2285 -1.4327  1.7683
  570MOL0     H76936  11.086   5.437   4.712  1.8548 -0.7364 -3.5162
  570MOL0     H76937  11.064   5.456   4.960 -2.8018 -1.6836 -0.9826
  570MOL0     H76938  11.083   5.235   5.386 -2.1593  1.6231 -0.9644
  570MOL0     H76939  11.057   5.265   5.625 -0.8946  2.3138 -0.1652
  570MOL0     H76940  11.386   5.497   5.787  0.5269 -0.7007 -0.0972
  570MOL0     H76941  11.313   5.446   5.933 -0.6517  2.6307 -0.6607
  570MOL0     H76942  11.483   5.290   5.851  0.1578  1.1350  0.2806
  570MOL0     H76943  11.394   5.245   5.709  2.4679 -2.1263  0.4431
  570MOL0     H76944  11.221   5.122   5.831 -0.5340  2.2598 -0.2825
  570MOL0     H76945  11.258   5.207   5.979  0.2007 -0.7839  0.1272
  570MOL0     H76946  11.462   5.041   5.848 -1.2269  1.8463 -1.4060
  570MOL0     H76947  11.346   4.988   5.991  0.5015  0.6264 -0.1433
  570MOL0     H76948  11.615   5.233   6.189  0.0356  2.0133 -1.0202
  570MOL0     H76949  11.341   5.587   5.609 -2.7022  1.5580  0.6434
  570MOL0     H76950  11.364   5.574   5.375 -0.4515 -0.8444  0.4299
  571MOL0     O76951   3.558   3.601   0.511  0.0401 -0.2712  0.5970
  571MOL0     C76952   3.455   3.536   0.502  0.7059  0.0008  0.0180
  571MOL0     O76953   3.358   3.528   0.591  0.0660 -0.1534  0.0008
  571MOL0     C76954   3.387   3.556   0.723  0.0513  0.5601  0.3596
  571MOL0     C76955   3.446   3.669   0.780  0.2672  0.5061  0.4879
  571MOL0     C76956   3.468   3.676   0.917 -0.3349 -0.6142 -1.0503
  571MOL0     C76957   3.410   3.580   1.005  0.9269 -1.5966 -0.2238
  571MOL0     O76958   3.410   3.597   1.141  0.2498 -0.3251 -0.9639
  571MOL0     C76959   3.368   3.733   1.175  1.2841  1.5691  0.8289
  571MOL0     C76960   3.382   3.753   1.324  0.5616 -0.2581  0.1964
  571MOL0     C76961   3.528   3.740   1.378  0.3889 -0.8603 -0.0123
  571MOL0     C76962   3.531   3.741   1.530  0.1867 -0.0430  0.4960
  571MOL0     C76963   3.666   3.696   1.581 -0.4058  0.5612 -1.1563
  571MOL0     C76964   3.764   3.804   1.533  0.5945  0.2259  0.0993
  571MOL0     C76965   3.897   3.791   1.600  0.2031 -0.8817  0.2275
  571MOL0     C76966   3.983   3.913   1.557  0.0232 -0.3941  0.2600
  571MOL0     N76967   3.934   4.052   1.569  0.3324  0.2430 -0.4022
  571MOL0     C76968   3.913   4.111   1.687  0.4607 -0.0882  0.5039
  571MOL0     C76969   3.846   4.231   1.661  0.1183  0.6744  0.5179
  571MOL0     C76970   3.781   4.328   1.754  0.5049 -0.1376 -0.9582
  571MOL0     C76971   3.872   4.375   1.870  0.2862 -0.0271  0.6207
  571MOL0     C76972   4.015   4.421   1.833 -0.3734 -0.2543 -0.2519
  571MOL0     C76973   4.082   4.519   1.936 -0.6356 -0.4400 -0.9252
  571MOL0     O76974   4.196   4.583   1.885  0.7884 -0.0067  0.0421
  571MOL0     C76975   4.237   4.688   1.954  0.1111  0.7196 -0.1094
  571MOL0     C76976   4.320   4.763   1.888  0.6327  0.1995 -0.5219
  571MOL0     C76977   4.371   4.884   1.938  0.1487 -0.3293 -0.1229
  571MOL0     C76978   4.471   4.962   1.852 -0.4442 -0.5408 -0.7191
  571MOL0     C76979   4.327   4.936   2.055  0.2185  0.9086  0.1200
  571MOL0     C76980   4.371   5.063   2.121 -0.2235  0.1511  0.5095
  571MOL0     O76981   4.305   5.091   2.242 -0.1498 -0.3399  0.0614
  571MOL0     C76982   4.356   5.201   2.308  0.5434 -0.4101  0.6544
  571MOL0     C76983   4.475   5.188   2.383  0.1002  0.5822  0.6531
  571MOL0     C76984   4.512   5.299   2.459  0.1812  0.6142 -0.8567
  571MOL0     C76985   4.431   5.412   2.477 -0.5386 -0.6010  0.2867
  571MOL0     O76986   4.454   5.511   2.569 -0.0606  0.0443  0.6490
  571MOL0     C76987   4.580   5.520   2.641  0.2148  0.3777 -0.7880
  571MOL0     C76988   4.591   5.651   2.721  0.0633  0.1537 -0.2256
  571MOL0     C76989   4.584   5.787   2.639  0.8174  0.4302 -0.8304
  571MOL0     C76990   4.563   5.902   2.734 -0.6624  0.1987 -0.0817
  571MOL0     C76991   4.544   6.033   2.650 -0.6700  0.8578 -0.8232
  571MOL0     C76992   4.522   6.162   2.743  0.0110  0.3747  0.0458
  571MOL0     C76993   4.537   6.305   2.672  0.3234  0.4923  0.4908
  571MOL0     C76994   4.469   6.415   2.765  0.4729 -0.3154 -0.7971
  571MOL0    Cl76995   4.562   6.435   2.920  0.2681  0.2762  0.5216
  571MOL0     C76996   4.306   5.413   2.411 -0.1540  0.3517 -0.8942
  571MOL0     C76997   4.276   5.311   2.321  1.0424  1.0244 -0.0383
  571MOL0     O76998   4.430   5.147   2.054 -0.2074 -0.3002 -0.5270
  571MOL0     C76999   4.230   4.861   2.126 -0.3886 -0.2492 -0.0519
  571MOL0     C77000   4.192   4.735   2.073 -0.5233  0.3439  0.4346
  571MOL0     N77001   3.818   4.239   1.524 -0.2531  0.1942 -0.6790
  571MOL0     N77002   3.864   4.125   1.473 -0.1844 -0.2443  0.1247
  571MOL0     C77003   3.351   3.467   0.945  0.1110 -0.2241 -0.5218
  571MOL0     C77004   3.331   3.455   0.805 -0.5136 -1.0853 -0.1548
  571MOL0     C77005   3.444   3.460   0.377 -0.5595 -0.4357  0.5970
  571MOL0     C77006   3.539   3.465   0.270  0.2968  0.4795  0.6540
  571MOL0     C77007   3.526   3.378   0.161 -0.5357  0.4005 -0.2925
  571MOL0     C77008   3.424   3.285   0.146  0.2299 -0.8197 -0.2813
  571MOL0     O77009   3.405   3.208   0.035 -0.5582  0.6779 -0.5892
  571MOL0     C77010   3.519   3.173  -0.044  0.2613 -0.6694  0.2635
  571MOL0     C77011   3.496   3.061  -0.141 -0.2954 -0.1199  0.4956
  571MOL0     C77012   3.385   3.096  -0.245  0.1497 -0.4520 -0.3980
  571MOL0     C77013   3.399   3.029  -0.388  0.4401 -0.0925 -0.1753
  571MOL0     C77014   3.386   2.887  -0.365  0.4084 -0.2472  0.4483
  571MOL0     C77015   3.388   2.769  -0.347  0.5005  0.3787  0.3357
  571MOL0     C77016   3.336   3.281   0.251 -0.2210 -0.3325  0.3196
  571MOL0     C77017   3.339   3.365   0.361 -0.7680 -0.0541 -1.4183
  571MOL0     H77018   3.458   3.750   0.709 -0.5463 -0.2570 -0.5492
  571MOL0     H77019   3.521   3.762   0.956 -0.7577  0.6684 -3.1063
  571MOL0     H77020   3.425   3.811   1.125  2.2301  0.7584  0.6185
  571MOL0     H77021   3.264   3.753   1.145  1.1337 -0.3208 -0.0410
  571MOL0     H77022   3.351   3.857   1.336 -4.0184 -1.4401  0.2195
  571MOL0     H77023   3.314   3.679   1.367  1.8741 -3.4983 -2.8159
  571MOL0     H77024   3.558   3.638   1.351  0.9903 -1.1275  1.5312
  571MOL0     H77025   3.590   3.816   1.331  0.3541 -0.8511 -0.0433
  571MOL0     H77026   3.516   3.847   1.557  1.3250 -0.1708  1.7655
  571MOL0     H77027   3.449   3.688   1.580 -2.0024 -0.0835 -2.8358
  571MOL0     H77028   3.672   3.688   1.690 -0.1544 -2.1715 -1.3026
  571MOL0     H77029   3.693   3.596   1.548  0.8315  1.1451 -1.9730
  571MOL0     H77030   3.783   3.800   1.426  2.7921  2.0132  0.3557
  571MOL0     H77031   3.723   3.902   1.557 -1.3629 -0.5680  0.1999
  571MOL0     H77032   3.891   3.780   1.709  0.6054 -1.4968  0.1962
  571MOL0     H77033   3.950   3.702   1.565  3.1040  0.9657 -0.3643
  571MOL0     H77034   3.994   3.901   1.449 -1.8082  0.1753 -0.0251
  571MOL0     H77035   4.073   3.907   1.618 -1.1639  2.4451  2.5386
  571MOL0     H77036   3.948   4.064   1.778 -0.3839 -2.9154 -0.5340
  571MOL0     H77037   3.748   4.415   1.696  0.9933 -0.5895 -1.9360
  571MOL0     H77038   3.698   4.279   1.805 -0.7185  2.4268 -0.3032
  571MOL0     H77039   3.879   4.294   1.943  3.8186  0.8478  1.4387
  571MOL0     H77040   3.819   4.457   1.920 -1.7410 -1.6736  1.3574
  571MOL0     H77041   4.000   4.480   1.742  0.7589  0.7704  0.1993
  571MOL0     H77042   4.090   4.343   1.819 -0.7143 -0.2904 -2.1972
  571MOL0     H77043   4.109   4.470   2.029  0.6766  0.4434 -0.8083
  571MOL0     H77044   4.004   4.592   1.956 -0.1280 -0.4215  1.2448
  571MOL0     H77045   4.359   4.716   1.798 -2.1524 -1.1313 -1.1389
  571MOL0     H77046   4.435   5.053   1.803 -0.9513 -0.9368 -1.0990
  571MOL0     H77047   4.564   4.983   1.905  1.6198 -2.4656 -3.3074
  571MOL0     H77048   4.501   4.899   1.768 -0.5895  1.4160 -2.3248
  571MOL0     H77049   4.531   5.095   2.372 -1.9686 -0.4337 -3.3982
  571MOL0     H77050   4.607   5.298   2.512  1.5222  3.0236 -3.0095
  571MOL0     H77051   4.579   5.437   2.713 -0.0283  2.0898  1.2792
  571MOL0     H77052   4.658   5.516   2.565 -2.6041 -3.0553 -3.8944
  571MOL0     H77053   4.520   5.643   2.804 -1.8225  0.0385 -1.7941
  571MOL0     H77054   4.694   5.657   2.756  1.3789 -0.8881 -3.5552
  571MOL0     H77055   4.514   5.778   2.556  0.3804 -2.9230 -0.2205
  571MOL0     H77056   4.672   5.803   2.576  0.8443  0.6721 -0.7341
  571MOL0     H77057   4.476   5.890   2.799 -0.9614  0.2094 -0.4703
  571MOL0     H77058   4.653   5.904   2.796 -0.6520  0.8404 -0.1112
  571MOL0     H77059   4.464   6.009   2.580  0.1493 -2.1606 -0.8382
  571MOL0     H77060   4.636   6.033   2.591 -0.0297  2.0125  0.1247
  571MOL0     H77061   4.422   6.162   2.788 -0.5064  2.8833 -0.9203
  571MOL0     H77062   4.596   6.154   2.823 -1.9488  0.0442  1.9206
  571MOL0     H77063   4.487   6.312   2.575 -0.1724  1.0861  0.7813
  571MOL0     H77064   4.643   6.316   2.651  0.4114  1.0732  1.1830
  571MOL0     H77065   4.377   6.371   2.804  0.6529 -0.1691 -0.2049
  571MOL0     H77066   4.463   6.513   2.717 -0.2413  1.3578  2.4216
  571MOL0     H77067   4.241   5.497   2.430  1.2451  1.0680  1.0706
  571MOL0     H77068   4.189   5.294   2.257  1.3906  0.7996 -0.4583
  571MOL0     H77069   4.188   4.894   2.220  0.5592  0.5524  0.1054
  571MOL0     H77070   4.128   4.676   2.138 -2.7180  0.2511 -1.6748
  571MOL0     H77071   3.312   3.387   1.007 -4.9608  1.7144 -0.7782
  571MOL0     H77072   3.282   3.371   0.758 -2.8710 -0.8599  1.6861
  571MOL0     H77073   3.624   3.531   0.284  0.6772 -0.3732  2.7534
  571MOL0     H77074   3.591   3.381   0.073 -0.4428  1.1861 -0.2033
  571MOL0     H77075   3.558   3.258  -0.100  0.7049 -2.2442 -1.9895
  571MOL0     H77076   3.583   3.129   0.033 -0.0442  1.6028  1.9305
  571MOL0     H77077   3.479   2.962  -0.098 -0.3239  0.5729  2.1460
  571MOL0     H77078   3.590   3.055  -0.197 -0.1164  1.5577  0.5756
  571MOL0     H77079   3.381   3.204  -0.267  1.9502 -0.4388 -0.8549
  571MOL0     H77080   3.287   3.071  -0.204  0.4464 -0.6825  0.1813
  571MOL0     H77081   3.497   3.054  -0.430  2.5035 -1.8826  3.0982
  571MOL0     H77082   3.317   3.060  -0.453 -2.2028  0.9016  3.3427
  571MOL0     H77083   3.374   2.664  -0.327 -1.5941 -0.5276 -4.6063
  571MOL0     H77084   3.259   3.206   0.246  1.4054 -2.1356  1.1007
  571MOL0     H77085   3.258   3.359   0.434  1.7045  0.6620  1.5893
  572MOL0     O77086   1.600   7.664   0.678  0.3288  0.3772 -0.2446
  572MOL0     C77087   1.672   7.686   0.582  0.1041  0.3943 -0.2724
  572MOL0     O77088   1.653   7.623   0.463 -0.6604 -0.6870 -0.6798
  572MOL0     C77089   1.534   7.548   0.442 -0.1793  0.1074 -0.9870
  572MOL0     C77090   1.412   7.602   0.458  0.5595 -0.4641  0.4985
  572MOL0     C77091   1.288   7.552   0.402  0.0185  0.2243  0.0485
  572MOL0     C77092   1.299   7.422   0.347  0.2233  0.8269  0.0202
  572MOL0     O77093   1.179   7.346   0.320  0.3122 -0.0034 -1.2507
  572MOL0     C77094   1.057   7.381   0.382  1.1800 -1.0825 -1.3368
  572MOL0     C77095   1.060   7.339   0.523 -0.8440  0.1410 -0.3217
  572MOL0     C77096   1.090   7.193   0.545 -0.2708 -0.5551  0.2243
  572MOL0     C77097   1.066   7.160   0.698  0.0874 -0.8212 -0.6348
  572MOL0     C77098   1.048   7.011   0.703 -0.9822 -1.1280  0.1904
  572MOL0     C77099   1.013   6.966   0.847 -0.0468  0.2610  0.3799
  572MOL0     C77100   0.949   6.826   0.866 -0.6416  0.0519 -0.4460
  572MOL0     C77101   1.020   6.711   0.788 -1.1058 -0.3286 -0.8560
  572MOL0     N77102   1.146   6.674   0.848 -0.7475  0.0446  0.4230
  572MOL0     C77103   1.154   6.585   0.947  0.5892  0.6161 -0.4755
  572MOL0     C77104   1.288   6.562   0.962 -0.0120  0.2435  0.1542
  572MOL0     C77105   1.356   6.490   1.072  0.7691  0.2947  0.2662
  572MOL0     C77106   1.318   6.347   1.061 -0.4399  0.6501 -0.8638
  572MOL0     C77107   1.382   6.260   0.937  0.4481  0.4045 -0.1210
  572MOL0     C77108   1.312   6.123   0.918 -0.1263 -0.3107 -0.3567
  572MOL0     O77109   1.173   6.138   0.868 -0.8221  0.0178 -0.4796
  572MOL0     C77110   1.160   6.139   0.730 -0.3656 -0.3901  0.4722
  572MOL0     C77111   1.253   6.180   0.632 -0.6069  1.0037 -1.2153
  572MOL0     C77112   1.232   6.177   0.495  0.1143  0.1849  1.0759
  572MOL0     C77113   1.344   6.235   0.402 -0.0559 -0.6083  0.5386
  572MOL0     C77114   1.098   6.148   0.457 -0.6145 -0.7595 -0.2040
  572MOL0     C77115   1.048   6.148   0.313  0.5740 -0.1155 -0.2147
  572MOL0     O77116   0.942   6.064   0.281  0.6333 -0.0665  0.1415
  572MOL0     C77117   0.887   6.061   0.154 -0.2334  0.8000 -0.2216
  572MOL0     C77118   0.750   6.051   0.163 -0.6004  0.1667  0.2965
  572MOL0     C77119   0.673   6.043   0.045 -0.1099  0.0707 -0.4965
  572MOL0     C77120   0.731   6.069  -0.080  0.1884  0.2316 -0.7071
  572MOL0     O77121   0.659   6.078  -0.188  0.5470 -0.0987  0.0989
  572MOL0     C77122   0.593   5.953  -0.229 -0.5097  0.6424  0.4086
  572MOL0     C77123   0.491   5.970  -0.349  0.0532  0.5966 -0.9736
  572MOL0     C77124   0.569   6.004  -0.481  0.0336 -0.4634 -0.6932
  572MOL0     C77125   0.479   6.022  -0.604  0.5812  0.5844  0.6265
  572MOL0     C77126   0.368   6.135  -0.589 -0.7390  1.0446  0.2351
  572MOL0     C77127   0.307   6.155  -0.725  0.9614  1.1157  0.4524
  572MOL0     C77128   0.188   6.254  -0.736 -0.3085 -0.5303  0.2862
  572MOL0     C77129   0.049   6.181  -0.762  0.4857 -0.3870  0.5154
  572MOL0    Cl77130   0.036   6.153  -0.938  0.0159 -0.4344 -0.1024
  572MOL0     C77131   0.870   6.073  -0.091  0.1563 -0.0626 -0.1341
  572MOL0     C77132   0.948   6.079   0.025 -0.2123  0.3798 -0.2925
  572MOL0     O77133   1.110   6.218   0.235  0.0387 -0.6510 -0.5023
  572MOL0     C77134   1.000   6.117   0.552 -1.0212 -0.1012 -0.4183
  572MOL0     C77135   1.032   6.119   0.697  0.3719  0.1818  0.3035
  572MOL0     N77136   1.358   6.628   0.867 -0.5334 -0.9646 -0.6194
  572MOL0     N77137   1.272   6.705   0.798  0.3490 -0.2273 -0.1175
  572MOL0     C77138   1.424   7.361   0.332  1.1340 -0.2081  0.8298
  572MOL0     C77139   1.542   7.430   0.360  0.5359  0.6522 -0.4611
  572MOL0     C77140   1.775   7.788   0.609  0.6452 -0.0204  0.2584
  572MOL0     C77141   1.808   7.831   0.734  0.5242  0.0210  1.1590
  572MOL0     C77142   1.900   7.926   0.771  0.1897  0.4823  0.2210
  572MOL0     C77143   1.960   7.996   0.670  0.6406 -0.4320  0.0950
  572MOL0     O77144   2.051   8.086   0.698  0.6527 -0.0995  0.3657
  572MOL0     C77145   2.013   8.205   0.771  0.6956  1.1209  1.0802
  572MOL0     C77146   2.105   8.246   0.876  0.4910 -0.2485 -0.3148
  572MOL0     C77147   2.089   8.399   0.915 -0.1597 -0.1521  0.2681
  572MOL0     C77148   1.940   8.441   0.942 -0.6668 -0.6618 -0.4788
  572MOL0     C77149   1.874   8.372   1.052  0.1779  0.0809  0.4000
  572MOL0     C77150   1.829   8.325   1.152  1.4925 -0.5286 -0.4550
  572MOL0     C77151   1.933   7.955   0.537  0.1374 -0.5933  0.0553
  572MOL0     C77152   1.846   7.845   0.510  0.7971  0.0243 -0.9703
  572MOL0     H77153   1.387   7.686   0.522 -3.5580 -2.1357  1.4794
  572MOL0     H77154   1.194   7.603   0.422 -0.3084 -0.4976  0.3624
  572MOL0     H77155   1.020   7.483   0.370 -2.6425 -2.2945 -1.2971
  572MOL0     H77156   0.978   7.316   0.345 -0.7285 -0.1742  0.9011
  572MOL0     H77157   1.138   7.400   0.568 -1.1908  0.7864 -0.5896
  572MOL0     H77158   0.969   7.359   0.581  2.3097  0.9042  4.9368
  572MOL0     H77159   1.039   7.120   0.482 -0.0488 -0.0175 -0.5935
  572MOL0     H77160   1.196   7.175   0.524 -0.0566  0.0886  0.7241
  572MOL0     H77161   1.146   7.195   0.764 -1.2836  3.5495 -0.9644
  572MOL0     H77162   0.976   7.202   0.744  1.2046  2.0275 -0.8509
  572MOL0     H77163   0.970   6.978   0.633 -1.6219  1.9531 -0.6800
  572MOL0     H77164   1.139   6.955   0.680  1.0288  2.8117 -2.6749
  572MOL0     H77165   1.098   6.990   0.911 -1.9689  0.9448  2.8513
  572MOL0     H77166   0.949   7.043   0.891 -0.7975 -0.6007  0.8331
  572MOL0     H77167   0.945   6.807   0.973 -0.7393 -0.7197 -0.5812
  572MOL0     H77168   0.845   6.829   0.834 -0.6513  2.3512 -0.3514
  572MOL0     H77169   1.041   6.746   0.687  2.4581 -0.9213 -0.4565
  572MOL0     H77170   0.950   6.627   0.780 -0.6451 -0.7527 -0.4732
  572MOL0     H77171   1.070   6.541   0.999  0.0565 -0.8884 -2.4718
  572MOL0     H77172   1.465   6.485   1.062  1.0353 -0.8753  2.9635
  572MOL0     H77173   1.327   6.530   1.170  2.8936  2.1595  0.2197
  572MOL0     H77174   1.210   6.338   1.055 -0.3171 -0.1084 -2.1987
  572MOL0     H77175   1.362   6.293   1.146 -0.9616  2.3682  0.5655
  572MOL0     H77176   1.490   6.254   0.954  0.5210  2.2992  0.3061
  572MOL0     H77177   1.355   6.310   0.844 -0.0274  0.2929 -0.0438
  572MOL0     H77178   1.309   6.074   1.015  0.2026  1.3084  0.5023
  572MOL0     H77179   1.367   6.066   0.843 -0.4092 -1.8782  0.5862
  572MOL0     H77180   1.356   6.198   0.663 -0.7545  0.3982 -0.3249
  572MOL0     H77181   1.407   6.312   0.447 -0.9365  0.5740 -0.1939
  572MOL0     H77182   1.415   6.158   0.369  0.9214  0.6606 -0.3872
  572MOL0     H77183   1.313   6.279   0.307 -0.7173 -0.4524  0.8258
  572MOL0     H77184   0.697   6.046   0.258  0.6079 -1.6979  0.9225
  572MOL0     H77185   0.567   6.022   0.050  0.0469 -0.6013  3.8101
  572MOL0     H77186   0.669   5.880  -0.261 -0.7614  0.5801 -0.0478
  572MOL0     H77187   0.542   5.915  -0.140  1.7486  0.4218  1.6910
  572MOL0     H77188   0.438   5.875  -0.366 -0.2678  0.3949  0.8665
  572MOL0     H77189   0.419   6.047  -0.319 -0.5760 -0.2835 -0.1567
  572MOL0     H77190   0.641   5.924  -0.502  2.2894  1.1160  0.6232
  572MOL0     H77191   0.630   6.094  -0.469  2.0322 -1.8929  0.5545
  572MOL0     H77192   0.535   6.037  -0.697 -0.3305  1.0003  0.1270
  572MOL0     H77193   0.429   5.924  -0.608  1.2137  0.1867  2.0806
  572MOL0     H77194   0.419   6.228  -0.564  0.3683  0.8709 -1.2132
  572MOL0     H77195   0.298   6.081  -0.525 -3.0831  0.2457 -2.7525
  572MOL0     H77196   0.381   6.207  -0.786 -0.2057 -0.1221 -2.1627
  572MOL0     H77197   0.281   6.057  -0.767  0.2811  1.0747  0.9460
  572MOL0     H77198   0.199   6.325  -0.819  1.0976 -1.6460 -0.5302
  572MOL0     H77199   0.192   6.310  -0.642 -1.0513  0.1645 -0.0808
  572MOL0     H77200  -0.041   6.238  -0.736 -0.5028 -1.4315 -0.4810
  572MOL0     H77201   0.045   6.082  -0.715  0.2200 -1.2392 -1.2012
  572MOL0     H77202   0.919   6.085  -0.187 -0.7320 -1.3368 -0.7779
  572MOL0     H77203   1.055   6.087   0.013 -0.3800  1.4509 -1.2046
  572MOL0     H77204   0.898   6.098   0.522 -1.6668  3.1766 -0.7339
  572MOL0     H77205   0.960   6.119   0.779  0.9685  2.2018  0.8934
  572MOL0     H77206   1.439   7.269   0.276 -0.0457  0.4041 -0.5538
  572MOL0     H77207   1.629   7.377   0.322  0.6002 -2.0290  2.9307
  572MOL0     H77208   1.740   7.794   0.810 -0.0088 -0.1796  0.5985
  572MOL0     H77209   1.926   7.951   0.873  1.3771 -0.5539  0.2033
  572MOL0     H77210   1.997   8.284   0.698 -2.9503  0.1606  0.6382
  572MOL0     H77211   1.916   8.189   0.819  1.2947 -3.0096  1.2970
  572MOL0     H77212   2.203   8.220   0.836 -0.0148  1.6901 -3.1120
  572MOL0     H77213   2.097   8.178   0.962  2.4318 -2.2856 -1.6355
  572MOL0     H77214   2.130   8.465   0.838  2.0209  0.1542  1.6027
  572MOL0     H77215   2.154   8.422   1.000  3.4198 -1.7406 -1.8472
  572MOL0     H77216   1.873   8.448   0.856 -4.3993 -0.0735  2.2013
  572MOL0     H77217   1.949   8.542   0.981 -1.0579  0.0382 -2.1415
  572MOL0     H77218   1.796   8.265   1.234  1.9553  1.8537  1.5964
  572MOL0     H77219   1.980   8.009   0.455  0.7617 -1.0693  0.0889
  572MOL0     H77220   1.832   7.819   0.405  0.7432 -1.9716 -0.5085
  573MOL0     O77221  11.416   4.029   2.750  0.3386 -0.8348  0.4953
  573MOL0     C77222  11.516   3.982   2.804  0.3396  0.9047 -0.7333
  573MOL0     O77223  11.611   3.916   2.733 -0.0708 -0.5571  0.8494
  573MOL0     C77224  11.595   3.888   2.601  0.8825 -0.5608  0.5343
  573MOL0     C77225  11.553   3.761   2.559  0.7785 -0.6876  0.5898
  573MOL0     C77226  11.565   3.726   2.420 -0.0503 -0.5923  0.0972
  573MOL0     C77227  11.601   3.832   2.335  0.2857  0.1035  0.0348
  573MOL0     O77228  11.612   3.791   2.202 -0.1692 -0.9633 -0.3237
  573MOL0     C77229  11.624   3.889   2.092  0.0713  0.1978  0.9976
  573MOL0     C77230  11.622   3.819   1.953  0.5797 -0.1121 -1.0053
  573MOL0     C77231  11.716   3.698   1.949 -0.6059 -0.5318  0.7030
  573MOL0     C77232  11.865   3.739   1.961 -0.1397  0.8167  0.5930
  573MOL0     C77233  11.918   3.822   1.831  0.1735 -0.2761 -0.2864
  573MOL0     C77234  11.949   3.729   1.713 -0.6453 -0.3112  0.6060
  573MOL0     C77235  12.011   3.825   1.606 -0.8994  1.1539  0.2552
  573MOL0     C77236  11.915   3.879   1.498 -0.1878  0.8167 -0.1619
  573MOL0     N77237  11.986   3.966   1.405 -0.2871 -0.3589  0.9601
  573MOL0     C77238  12.044   4.087   1.426 -0.9021 -0.4658  0.7088
  573MOL0     C77239  12.126   4.102   1.321  0.4714  0.0292  0.5788
  573MOL0     C77240  12.221   4.214   1.317 -0.8408  0.3692  0.0365
  573MOL0     C77241  12.235   4.279   1.181 -0.0683 -0.5425 -0.5335
  573MOL0     C77242  12.130   4.401   1.164 -0.6398  0.0324  0.4299
  573MOL0     C77243  12.145   4.452   1.019 -0.0799  0.1872  0.8803
  573MOL0     O77244  12.050   4.559   0.988  0.4818  0.1059  0.0857
  573MOL0     C77245  11.946   4.532   0.900 -0.4356 -0.5841 -0.2458
  573MOL0     C77246  11.895   4.635   0.821  0.2353  0.2429 -0.5568
  573MOL0     C77247  11.782   4.610   0.734 -0.1652  0.0124 -0.6981
  573MOL0     C77248  11.741   4.710   0.636 -0.2209 -0.2790 -0.5268
  573MOL0     C77249  11.716   4.478   0.732  0.3300  0.3111  0.4968
  573MOL0     C77250  11.604   4.439   0.640 -0.0978 -0.1343  0.2635
  573MOL0     O77251  11.590   4.300   0.637  0.4831  0.0509  0.1240
  573MOL0     C77252  11.481   4.255   0.560 -0.2181  0.5695 -0.6039
  573MOL0     C77253  11.499   4.138   0.484  0.1477 -0.0098 -0.0033
  573MOL0     C77254  11.391   4.087   0.415 -0.4194  0.4333 -1.3103
  573MOL0     C77255  11.263   4.133   0.431 -0.0003  0.1908  0.6470
  573MOL0     O77256  11.159   4.054   0.377 -0.2698 -0.0046  0.5872
  573MOL0     C77257  11.026   4.074   0.410  0.3324  0.4998  0.8996
  573MOL0     C77258  10.951   3.956   0.356  0.4215 -0.1030  0.4807
  573MOL0     C77259  10.798   3.984   0.340  0.3906 -0.5442 -0.5833
  573MOL0     C77260  10.728   3.972   0.469  0.2687  0.5218 -0.0925
  573MOL0     C77261  10.575   3.946   0.453  0.1956 -0.5552 -0.3909
  573MOL0     C77262  10.500   3.910   0.576  0.3761  0.2483 -0.2210
  573MOL0     C77263  10.533   3.764   0.618  0.1954  0.5486 -0.4282
  573MOL0     C77264  10.414   3.674   0.621  0.6520 -0.4873  0.7036
  573MOL0    Cl77265  10.360   3.617   0.468  0.2235  0.3008  0.4277
  573MOL0     C77266  11.242   4.229   0.526 -0.4828 -0.0706 -0.5100
  573MOL0     C77267  11.350   4.294   0.588  0.3019  0.0208  0.4791
  573MOL0     O77268  11.549   4.518   0.558  0.8776 -0.4837  0.3830
  573MOL0     C77269  11.776   4.388   0.820  0.8433  0.4040 -0.8953
  573MOL0     C77270  11.883   4.409   0.894  0.0535  0.1117 -0.4229
  573MOL0     N77271  12.094   4.010   1.221 -0.1699 -0.2147  0.9265
  573MOL0     N77272  12.001   3.934   1.268  0.0691  0.1229  0.1914
  573MOL0     C77273  11.630   3.963   2.380  0.1520 -0.6083  1.2574
  573MOL0     C77274  11.647   3.982   2.515  0.2502 -0.4152  0.3217
  573MOL0     C77275  11.530   3.984   2.950 -0.3922  0.6344 -0.3758
  573MOL0     C77276  11.643   3.917   3.011  0.8212  0.0322  0.3469
  573MOL0     C77277  11.667   3.930   3.146  0.4666 -0.3662  0.4586
  573MOL0     C77278  11.568   3.984   3.231  0.7061  0.4918 -0.4982
  573MOL0     O77279  11.578   3.973   3.366 -0.4945  0.1431 -0.8772
  573MOL0     C77280  11.702   4.013   3.439  0.6302 -0.2549 -0.2727
  573MOL0     C77281  11.660   4.033   3.587 -0.4094 -0.0125  0.3303
  573MOL0     C77282  11.601   4.174   3.617  0.4565 -0.3125 -0.3462
  573MOL0     C77283  11.592   4.178   3.776  1.1910  1.2402 -0.7682
  573MOL0     C77284  11.538   4.308   3.821  0.4111  0.9027 -0.6907
  573MOL0     C77285  11.469   4.410   3.849 -0.5600 -0.5350 -0.3331
  573MOL0     C77286  11.456   4.046   3.165 -0.0118  0.7415  0.0780
  573MOL0     C77287  11.433   4.051   3.032  0.1621  0.1565 -0.2607
  573MOL0     H77288  11.531   3.694   2.641  0.4046  0.8619  1.8111
  573MOL0     H77289  11.547   3.625   2.387 -2.1395 -0.6498  1.2526
  573MOL0     H77290  11.543   3.961   2.084 -1.4645 -1.5951 -1.0246
  573MOL0     H77291  11.716   3.948   2.097  0.2896 -0.2487  2.6631
  573MOL0     H77292  11.524   3.776   1.934  1.6235 -2.0655 -2.3171
  573MOL0     H77293  11.640   3.894   1.875 -1.0424 -1.8455 -3.1707
  573MOL0     H77294  11.695   3.620   2.023  1.1299  0.1769  2.0012
  573MOL0     H77295  11.699   3.651   1.851  1.7280 -1.1185  0.5264
  573MOL0     H77296  11.876   3.787   2.058  1.0194  1.2941  0.2427
  573MOL0     H77297  11.922   3.646   1.953  0.6214  1.4213 -2.7969
  573MOL0     H77298  11.843   3.895   1.800  0.6388 -0.7278 -2.5965
  573MOL0     H77299  11.997   3.888   1.870 -1.3758  1.3178  0.2672
  573MOL0     H77300  12.028   3.655   1.730  2.0336  0.9210 -4.4079
  573MOL0     H77301  11.862   3.680   1.670  0.8306 -0.9177 -1.8832
  573MOL0     H77302  12.062   3.904   1.661 -0.6003  0.3141  1.2066
  573MOL0     H77303  12.100   3.773   1.571 -1.4723 -0.6901  1.3987
  573MOL0     H77304  11.842   3.942   1.550  0.9448  0.9560  1.3282
  573MOL0     H77305  11.862   3.805   1.437  1.7290  0.0266 -0.9206
  573MOL0     H77306  12.056   4.144   1.518  1.4576 -1.9994  1.4249
  573MOL0     H77307  12.208   4.275   1.406 -2.5762 -2.9585  2.2876
  573MOL0     H77308  12.316   4.161   1.332 -0.8134  0.7827  1.3773
  573MOL0     H77309  12.218   4.196   1.112  3.2156 -4.7675  3.1579
  573MOL0     H77310  12.335   4.325   1.175  1.1018 -3.0410 -1.7639
  573MOL0     H77311  12.148   4.475   1.243 -1.6935  0.8801 -0.1025
  573MOL0     H77312  12.026   4.371   1.180 -0.2946 -0.2435  2.4165
  573MOL0     H77313  12.128   4.370   0.949  0.1911  1.0753 -0.2704
  573MOL0     H77314  12.244   4.489   0.989  0.0255 -1.2591 -0.7251
  573MOL0     H77315  11.941   4.733   0.829 -1.0318  0.8171  0.0956
  573MOL0     H77316  11.638   4.741   0.659 -0.5880  0.7968 -3.2503
  573MOL0     H77317  11.810   4.795   0.646 -0.7736 -0.0392  1.9604
  573MOL0     H77318  11.749   4.672   0.534 -0.3454 -2.6779  0.2952
  573MOL0     H77319  11.591   4.086   0.459 -0.8218 -0.9767 -1.7362
  573MOL0     H77320  11.418   3.997   0.361  1.1250  1.9781 -3.2339
  573MOL0     H77321  10.993   4.088   0.514 -0.2748  2.3172  0.5022
  573MOL0     H77322  10.999   4.159   0.346  0.2165 -0.9554 -1.0791
  573MOL0     H77323  10.990   3.934   0.257 -2.1858  0.7211 -0.8109
  573MOL0     H77324  10.968   3.862   0.410 -1.3597 -1.4297 -1.1365
  573MOL0     H77325  10.759   3.913   0.266  1.3934 -2.2245  0.4651
  573MOL0     H77326  10.774   4.085   0.304 -1.9063 -0.8576 -0.1346
  573MOL0     H77327  10.774   3.886   0.519 -0.7194  0.4387  0.7213
  573MOL0     H77328  10.749   4.051   0.542 -0.0199 -2.3643  3.4049
  573MOL0     H77329  10.547   3.881   0.369 -1.1856 -2.2082  1.2658
  573MOL0     H77330  10.535   4.042   0.422 -3.2988 -1.7226  0.0766
  573MOL0     H77331  10.519   3.989   0.649  0.4514  1.2509 -1.2948
  573MOL0     H77332  10.393   3.908   0.556  0.5698 -0.7210 -1.2334
  573MOL0     H77333  10.594   3.759   0.709  1.4612  0.1122 -1.2651
  573MOL0     H77334  10.593   3.717   0.539 -0.7897  0.8610 -1.3870
  573MOL0     H77335  10.335   3.721   0.681  0.6494  2.6203 -1.5013
  573MOL0     H77336  10.450   3.584   0.672 -0.7522 -0.8942  1.0217
  573MOL0     H77337  11.139   4.253   0.547 -1.0335 -2.3675 -0.2525
  573MOL0     H77338  11.329   4.366   0.667  1.2669 -0.2949  1.0428
  573MOL0     H77339  11.728   4.291   0.829  0.7328  0.1864 -3.2462
  573MOL0     H77340  11.920   4.340   0.969  0.0691  2.9370  2.4035
  573MOL0     H77341  11.662   4.039   2.309 -2.0029 -0.5818  0.2482
  573MOL0     H77342  11.704   4.070   2.543  1.7616 -1.5181  0.7954
  573MOL0     H77343  11.716   3.883   2.939 -2.5998 -0.8153 -3.0971
  573MOL0     H77344  11.759   3.883   3.180  0.3463  0.0658  1.4384
  573MOL0     H77345  11.774   3.931   3.436  1.1326  0.2033 -1.5863
  573MOL0     H77346  11.746   4.105   3.400  1.9692 -1.0358 -0.6755
  573MOL0     H77347  11.756   4.022   3.639  1.3470  1.5924 -2.3041
  573MOL0     H77348  11.588   3.958   3.620 -0.4320  0.1001  0.5425
  573MOL0     H77349  11.502   4.193   3.575  1.2535  0.8538 -1.7961
  573MOL0     H77350  11.663   4.259   3.588 -1.4839  1.3936  0.2813
  573MOL0     H77351  11.692   4.153   3.812  1.6133 -1.0371 -3.2394
  573MOL0     H77352  11.531   4.100   3.823  4.3398 -0.1533  1.2874
  573MOL0     H77353  11.399   4.487   3.874  1.3008  1.9237 -2.1642
  573MOL0     H77354  11.386   4.092   3.234 -3.1175 -0.8087 -1.8459
  573MOL0     H77355  11.344   4.098   2.990 -1.3853 -1.4462  1.0203
  574MOL0     O77356   3.598   6.015   2.273  0.5268  0.9673  0.3796
  574MOL0     C77357   3.580   6.067   2.159  0.4297 -0.3897  0.4125
  574MOL0     O77358   3.514   6.008   2.063 -0.0405 -0.1365 -0.3709
  574MOL0     C77359   3.452   5.894   2.070  0.8567 -0.4347 -0.5112
  574MOL0     C77360   3.366   5.859   2.179 -0.0115 -0.5820  0.2785
  574MOL0     C77361   3.301   5.735   2.180  0.2390  0.4802  1.0832
  574MOL0     C77362   3.316   5.648   2.069 -0.5447  0.5302 -0.1020
  574MOL0     O77363   3.247   5.523   2.056  0.4930 -0.6396  0.1818
  574MOL0     C77364   3.239   5.445   2.174  0.2639 -0.1261 -0.1502
  574MOL0     C77365   3.223   5.296   2.134 -0.5443 -0.3105  0.1100
  574MOL0     C77366   3.350   5.236   2.100  0.8772 -0.2606  0.4610
  574MOL0     C77367   3.413   5.296   1.973  0.5289  0.3473 -0.9826
  574MOL0     C77368   3.527   5.217   1.912  0.4277  0.0784  0.2230
  574MOL0     C77369   3.620   5.153   2.009  0.4122  0.4247 -0.0259
  574MOL0     C77370   3.727   5.081   1.923  0.2078  0.8232  0.8005
  574MOL0     C77371   3.821   5.003   2.017 -0.2665 -0.1234  0.3561
  574MOL0     N77372   3.900   4.921   1.916 -0.3400  0.0838 -0.1000
  574MOL0     C77373   4.002   4.985   1.842 -0.6681  0.4676  0.2835
  574MOL0     C77374   4.028   4.892   1.753 -0.8320 -0.7277  0.2704
  574MOL0     C77375   4.144   4.887   1.647  0.1885 -0.3689 -0.0299
  574MOL0     C77376   4.087   4.901   1.510 -1.0720 -0.0081  0.7939
  574MOL0     C77377   4.025   5.044   1.484  0.1231  0.1505 -0.3380
  574MOL0     C77378   3.990   5.054   1.335 -1.0921  1.3112  0.8040
  574MOL0     O77379   4.105   5.087   1.264  0.3207 -0.4113 -0.8656
  574MOL0     C77380   4.085   5.120   1.138  1.7354 -0.7651  0.7246
  574MOL0     C77381   4.082   5.256   1.109 -0.6747 -0.9702  0.4408
  574MOL0     C77382   4.066   5.309   0.980  0.9358 -0.5836  0.6226
  574MOL0     C77383   4.080   5.461   0.982  0.4808 -0.1379 -0.7412
  574MOL0     C77384   4.052   5.221   0.874  0.2657  0.2697  0.3092
  574MOL0     C77385   4.029   5.277   0.737  0.2758  0.2647  0.6740
  574MOL0     O77386   4.069   5.186   0.638 -0.1658  0.7262 -0.4484
  574MOL0     C77387   4.028   5.198   0.504  1.4541 -0.4296  0.5584
  574MOL0     C77388   4.125   5.187   0.406  0.0644  0.0381 -0.7114
  574MOL0     C77389   4.083   5.192   0.273  0.4503 -0.9639  0.0684
  574MOL0     C77390   3.953   5.215   0.236  0.5075  0.7275 -0.1503
  574MOL0     O77391   3.921   5.226   0.099  0.7418 -0.0533 -0.2453
  574MOL0     C77392   3.948   5.104   0.022 -0.1694 -1.1513 -0.1064
  574MOL0     C77393   3.851   5.101  -0.086 -0.1062 -0.2995 -0.0488
  574MOL0     C77394   3.709   5.116  -0.045  0.0787  0.6630 -0.5056
  574MOL0     C77395   3.618   5.077  -0.156  0.7937 -0.5093  0.7883
  574MOL0     C77396   3.481   5.039  -0.114 -0.3337  0.3674 -0.4272
  574MOL0     C77397   3.387   5.015  -0.234 -0.8584  0.1883  0.3331
  574MOL0     C77398   3.261   4.925  -0.215 -2.0796 -0.2496  0.1523
  574MOL0     C77399   3.174   4.925  -0.336 -0.3123 -0.9254  0.3199
  574MOL0    Cl77400   3.073   4.771  -0.307  0.0696 -0.3046  0.1612
  574MOL0     C77401   3.850   5.225   0.336 -0.3101  0.0942 -0.6773
  574MOL0     C77402   3.892   5.216   0.467 -0.6165 -0.3905  0.5125
  574MOL0     O77403   3.972   5.388   0.723 -0.2534  0.6116  0.1683
  574MOL0     C77404   4.055   5.085   0.892 -0.0886 -0.4062  0.0200
  574MOL0     C77405   4.070   5.031   1.021 -1.1479 -0.1514 -0.3382
  574MOL0     N77406   3.942   4.785   1.771 -0.9898 -0.5592  0.3640
  574MOL0     N77407   3.863   4.797   1.869 -0.3273 -0.1937 -0.4788
  574MOL0     C77408   3.390   5.690   1.960  0.2156 -0.2285 -0.3080
  574MOL0     C77409   3.470   5.812   1.958  0.3848  0.3835  0.3060
  574MOL0     C77410   3.609   6.208   2.138  1.1073  0.8769 -0.4703
  574MOL0     C77411   3.597   6.266   2.015 -0.0396  0.1358 -0.2237
  574MOL0     C77412   3.623   6.405   1.993 -0.0548 -0.6730  0.4736
  574MOL0     C77413   3.666   6.483   2.103 -0.0697 -0.8435  0.5337
  574MOL0     O77414   3.672   6.623   2.084 -0.3678 -0.1332  0.5517
  574MOL0     C77415   3.675   6.708   2.198 -0.1113 -0.6070 -0.3731
  574MOL0     C77416   3.681   6.858   2.159  0.2899 -0.4434  0.1770
  574MOL0     C77417   3.822   6.895   2.115  0.1126 -0.4811  0.6556
  574MOL0     C77418   3.904   6.926   2.236  1.1055 -0.2802 -0.9852
  574MOL0     C77419   4.038   6.959   2.210 -0.0750 -0.0366 -0.0674
  574MOL0     C77420   4.142   7.006   2.189 -0.5388 -0.4469  0.0827
  574MOL0     C77421   3.665   6.421   2.229 -0.3981  0.0856  0.1070
  574MOL0     C77422   3.636   6.284   2.247  0.6947 -0.0071 -1.4039
  574MOL0     H77423   3.355   5.922   2.267 -4.2703 -0.8215  0.0895
  574MOL0     H77424   3.247   5.698   2.266  0.6587  0.1278  1.2025
  574MOL0     H77425   3.322   5.471   2.241  1.3909 -3.4589 -0.0820
  574MOL0     H77426   3.142   5.470   2.218  0.2368  1.9911 -1.2530
  574MOL0     H77427   3.177   5.250   2.222  1.6143  0.5549  1.7761
  574MOL0     H77428   3.152   5.284   2.052  1.3345 -0.3833 -1.5973
  574MOL0     H77429   3.416   5.249   2.186  0.8891 -3.7544  1.0977
  574MOL0     H77430   3.340   5.127   2.097  0.7843 -0.2994  1.6471
  574MOL0     H77431   3.328   5.309   1.904  1.0393 -0.6293 -1.8182
  574MOL0     H77432   3.450   5.399   1.982 -1.6790  1.1370 -0.0910
  574MOL0     H77433   3.477   5.141   1.852 -0.9011 -0.0181  1.3921
  574MOL0     H77434   3.591   5.284   1.853  1.1212 -0.2326  0.6164
  574MOL0     H77435   3.677   5.229   2.064  0.4967  1.3363 -1.3467
  574MOL0     H77436   3.570   5.087   2.080 -1.7967  0.1597 -1.7349
  574MOL0     H77437   3.673   5.020   1.850 -3.7472  1.4672  2.8835
  574MOL0     H77438   3.796   5.147   1.871  1.9461 -0.4397  1.4085
  574MOL0     H77439   3.767   4.927   2.076  0.8425 -1.4677 -0.3013
  574MOL0     H77440   3.893   5.061   2.075 -4.5075  3.0611  3.0401
  574MOL0     H77441   4.053   5.080   1.852  0.2039  0.3694 -2.4311
  574MOL0     H77442   4.212   4.972   1.655  0.9771 -1.0179  0.2987
  574MOL0     H77443   4.202   4.796   1.666 -0.8472 -0.6599  2.0680
  574MOL0     H77444   4.001   4.834   1.506 -0.9542 -0.2045  1.3699
  574MOL0     H77445   4.167   4.875   1.440 -3.3590 -1.2017 -1.5225
  574MOL0     H77446   4.089   5.129   1.509 -1.7694  1.5358 -0.0573
  574MOL0     H77447   3.930   5.037   1.537  0.2755 -2.4250 -0.2542
  574MOL0     H77448   3.901   5.109   1.303  0.8325  3.8140 -0.6419
  574MOL0     H77449   3.974   4.953   1.297  4.9697 -0.1139  0.9094
  574MOL0     H77450   4.088   5.330   1.189 -1.1438  0.6790 -0.9742
  574MOL0     H77451   4.118   5.522   1.064 -2.1766  1.2140 -0.4071
  574MOL0     H77452   4.152   5.489   0.905 -0.7750  0.4351 -1.7455
  574MOL0     H77453   3.983   5.504   0.956  0.4706  0.6891  0.5772
  574MOL0     H77454   4.229   5.192   0.437  0.7225  1.2219 -2.9437
  574MOL0     H77455   4.157   5.200   0.195  1.3368  2.4411  1.1026
  574MOL0     H77456   4.052   5.115  -0.007 -0.4829  0.9214 -0.6005
  574MOL0     H77457   3.945   5.010   0.077 -1.5839  0.9189  3.7848
  574MOL0     H77458   3.887   5.174  -0.159  2.0107 -2.6669 -1.5291
  574MOL0     H77459   3.875   5.003  -0.128 -0.4106 -0.9702  1.2703
  574MOL0     H77460   3.689   5.220  -0.018 -1.6052  0.0504  0.7943
  574MOL0     H77461   3.692   5.052   0.042 -1.7303 -1.1592 -2.0570
  574MOL0     H77462   3.609   5.149  -0.238  2.0648 -2.5098 -1.2463
  574MOL0     H77463   3.667   5.002  -0.220 -0.3776 -0.6380  0.0103
  574MOL0     H77464   3.441   5.121  -0.054 -2.2605  0.9720 -2.4462
  574MOL0     H77465   3.474   4.954  -0.045  0.2232  1.8667  1.6007
  574MOL0     H77466   3.346   5.112  -0.261 -1.6527  0.3628  2.0045
  574MOL0     H77467   3.440   4.970  -0.318  0.5230 -1.5141  2.0109
  574MOL0     H77468   3.214   4.965  -0.125 -1.6350 -0.1925  0.3645
  574MOL0     H77469   3.297   4.823  -0.201 -2.6890 -0.4603  0.1646
  574MOL0     H77470   3.237   4.920  -0.426 -3.6174  1.1979 -2.3721
  574MOL0     H77471   3.110   5.014  -0.340  0.3187 -0.3302  2.2648
  574MOL0     H77472   3.749   5.253   0.309 -1.9408 -3.5481  0.9245
  574MOL0     H77473   3.817   5.243   0.541  1.8014  1.6595  2.3782
  574MOL0     H77474   4.027   5.011   0.818 -2.8884 -1.7797  2.2636
  574MOL0     H77475   4.045   4.926   1.031 -0.2803 -0.1974  1.8381
  574MOL0     H77476   3.406   5.635   1.868 -3.3239  1.1261 -1.8889
  574MOL0     H77477   3.546   5.836   1.884 -0.1856 -2.2586 -1.2439
  574MOL0     H77478   3.560   6.201   1.936  1.0130 -1.3497  0.4495
  574MOL0     H77479   3.605   6.447   1.895  2.4801  1.5444  0.8305
  574MOL0     H77480   3.585   6.683   2.255  0.3204  1.8002  1.5744
  574MOL0     H77481   3.752   6.684   2.272 -1.2243  1.5292  1.6312
  574MOL0     H77482   3.648   6.915   2.246  1.7288  0.3346  0.2540
  574MOL0     H77483   3.620   6.869   2.069  3.9244 -2.7776 -2.8987
  574MOL0     H77484   3.820   6.990   2.060  3.5032 -0.4056  0.4676
  574MOL0     H77485   3.870   6.818   2.055  0.3374  1.9522 -2.5448
  574MOL0     H77486   3.891   6.843   2.307  1.1738 -1.1287 -1.9426
  574MOL0     H77487   3.858   7.014   2.283  2.0048  0.2048 -1.0054
  574MOL0     H77488   4.238   7.053   2.203 -1.4133  1.3120  0.4186
  574MOL0     H77489   3.686   6.476   2.320 -0.0704 -0.5519  0.4294
  574MOL0     H77490   3.634   6.228   2.340  0.0053 -0.5684 -1.7444
  575MOL0     O77491   3.786  10.034   7.082 -0.0431 -0.2163  0.0553
  575MOL0     C77492   3.873  10.055   7.160 -1.0318  0.4393 -0.7677
  575MOL0     O77493   4.002  10.015   7.140  0.3089  0.6673 -0.3002
  575MOL0     C77494   4.048   9.933   7.037  0.5979 -1.2019 -0.6266
  575MOL0     C77495   4.156   9.989   6.964  0.5588  0.0232 -1.1954
  575MOL0     C77496   4.202   9.922   6.848 -0.2825 -0.2750  0.1035
  575MOL0     C77497   4.130   9.812   6.800  0.2373  1.2082  0.4321
  575MOL0     O77498   4.156   9.738   6.692 -0.7137  0.2125 -0.8668
  575MOL0     C77499   4.294   9.758   6.628  0.1981 -0.5854 -0.9039
  575MOL0     C77500   4.349   9.631   6.563 -0.9828 -0.6472  0.1949
  575MOL0     C77501   4.291   9.602   6.421 -0.8611 -0.1365  0.5728
  575MOL0     C77502   4.168   9.501   6.426 -0.7354 -0.7572  0.5665
  575MOL0     C77503   4.149   9.441   6.291  0.3685 -0.2633  0.7240
  575MOL0     C77504   4.245   9.322   6.249 -0.5209 -0.0469  0.7292
  575MOL0     C77505   4.257   9.211   6.352 -0.9358  0.0422 -0.1074
  575MOL0     C77506   4.410   9.187   6.384 -0.7173 -1.2985  0.6051
  575MOL0     N77507   4.487   9.106   6.288  0.1449  0.0284 -0.6335
  575MOL0     C77508   4.498   9.127   6.159 -0.1710  0.2406  0.4273
  575MOL0     C77509   4.548   9.019   6.097 -0.4206 -0.8266 -1.0601
  575MOL0     C77510   4.572   9.000   5.953 -0.3168  0.3001  0.4086
  575MOL0     C77511   4.518   8.866   5.905  0.2094  0.6076 -0.7408
  575MOL0     C77512   4.377   8.826   5.956  0.0324 -0.1592  0.8330
  575MOL0     C77513   4.276   8.937   5.936 -0.7790  0.2066  0.3631
  575MOL0     O77514   4.302   9.008   5.811 -0.4598 -0.3984 -0.6757
  575MOL0     C77515   4.302   8.947   5.689 -0.5617 -0.7291  0.5927
  575MOL0     C77516   4.402   8.987   5.591 -0.4177 -0.8659  0.4685
  575MOL0     C77517   4.410   8.924   5.464  0.5586 -1.0304  0.2936
  575MOL0     C77518   4.504   8.990   5.370  0.5359 -0.3116  0.5230
  575MOL0     C77519   4.326   8.819   5.433 -0.1635  0.2145  0.9472
  575MOL0     C77520   4.321   8.749   5.310 -0.1107  0.4024  0.2218
  575MOL0     O77521   4.441   8.707   5.259  0.1016  0.0823  0.3580
  575MOL0     C77522   4.445   8.622   5.153 -0.1084 -0.4606 -0.6213
  575MOL0     C77523   4.431   8.488   5.173 -0.0471 -0.2696  0.0057
  575MOL0     C77524   4.434   8.404   5.060  0.2923 -0.4733 -1.5211
  575MOL0     C77525   4.444   8.450   4.935  0.3687  0.2103  0.5224
  575MOL0     O77526   4.429   8.360   4.834 -0.1499  0.0790  0.2063
  575MOL0     C77527   4.369   8.416   4.717  0.7798 -0.4235  0.5850
  575MOL0     C77528   4.352   8.316   4.608  0.1711  0.4409  0.3343
  575MOL0     C77529   4.233   8.217   4.611 -0.5997  0.4835  0.6393
  575MOL0     C77530   4.158   8.230   4.745 -0.3892 -0.7064 -0.2738
  575MOL0     C77531   4.081   8.099   4.782  0.5151 -0.1713 -0.8551
  575MOL0     C77532   4.028   8.102   4.933 -1.2055 -0.2477 -0.3178
  575MOL0     C77533   4.148   8.089   5.028 -0.4781  0.8075 -0.0964
  575MOL0     C77534   4.254   7.985   5.010  0.6811 -0.1968 -0.1028
  575MOL0    Cl77535   4.186   7.819   4.999  0.0419  0.1250  0.0626
  575MOL0     C77536   4.475   8.582   4.913 -0.0726  0.3414  0.3245
  575MOL0     C77537   4.471   8.673   5.019  0.0086  0.4341  0.4548
  575MOL0     O77538   4.210   8.735   5.253 -0.3287  0.4976 -0.1287
  575MOL0     C77539   4.239   8.764   5.528  0.3147 -0.2463  0.2731
  575MOL0     C77540   4.217   8.839   5.650  0.2326  0.6512 -0.8451
  575MOL0     N77541   4.578   8.929   6.201  0.6339  0.8119 -0.2243
  575MOL0     N77542   4.555   8.990   6.316  0.5337 -0.7698 -0.2063
  575MOL0     C77543   4.037   9.752   6.880  0.1141 -1.0613 -0.2227
  575MOL0     C77544   3.984   9.817   6.993 -0.4513  0.4479 -0.1840
  575MOL0     C77545   3.839  10.114   7.289 -0.2144 -0.0996 -0.6467
  575MOL0     C77546   3.701  10.129   7.337 -0.1327  0.4911 -0.7500
  575MOL0     C77547   3.668  10.161   7.470  0.0525 -0.4979 -0.0342
  575MOL0     C77548   3.769  10.193   7.562  0.1537  0.4860  0.3743
  575MOL0     O77549   3.751  10.247   7.686 -1.0629  0.1626 -0.1597
  575MOL0     C77550   3.622  10.232   7.756  0.2218 -1.4364 -0.1132
  575MOL0     C77551   3.637  10.240   7.912  0.8330 -0.7159 -0.4391
  575MOL0     C77552   3.513  10.194   7.983  0.0012  0.2922 -0.0511
  575MOL0     C77553   3.537  10.141   8.117 -0.9149 -0.0679 -0.4112
  575MOL0     C77554   3.587  10.233   8.218  0.1935 -0.1922 -0.2444
  575MOL0     C77555   3.637  10.313   8.291 -0.6327 -0.2445  1.2885
  575MOL0     C77556   3.899  10.197   7.512 -1.6015  0.4595 -0.2662
  575MOL0     C77557   3.938  10.151   7.383 -0.3118 -0.7147 -0.7642
  575MOL0     H77558   4.198  10.084   6.994 -1.5881  0.8756 -0.7551
  575MOL0     H77559   4.285   9.960   6.790 -0.3936  0.9646  0.7302
  575MOL0     H77560   4.282   9.840   6.556 -0.4151 -1.8415 -2.2984
  575MOL0     H77561   4.367   9.799   6.698  0.8676  0.8403 -2.3581
  575MOL0     H77562   4.458   9.635   6.567 -1.0213 -0.3054  1.4395
  575MOL0     H77563   4.322   9.559   6.640 -4.5794 -0.1776 -0.4607
  575MOL0     H77564   4.244   9.691   6.377 -1.0906 -1.5297 -2.1558
  575MOL0     H77565   4.381   9.580   6.364  3.4352  5.5132  4.0129
  575MOL0     H77566   4.189   9.419   6.495  0.7674 -1.7929 -1.0597
  575MOL0     H77567   4.085   9.562   6.463 -0.9431 -0.9733  0.4638
  575MOL0     H77568   4.049   9.397   6.292 -0.7080  1.7446 -2.6457
  575MOL0     H77569   4.146   9.520   6.215 -5.8341  1.2451  1.9899
  575MOL0     H77570   4.196   9.284   6.158 -0.5345 -1.2565  1.2352
  575MOL0     H77571   4.347   9.354   6.225 -1.1610  0.4543 -1.5656
  575MOL0     H77572   4.197   9.233   6.441 -1.7756  3.4601 -1.3562
  575MOL0     H77573   4.219   9.115   6.318 -0.1738 -0.8710  1.4770
  575MOL0     H77574   4.421   9.151   6.487  2.8829  1.2153  1.3069
  575MOL0     H77575   4.463   9.282   6.394 -0.2686 -1.5853  1.0138
  575MOL0     H77576   4.445   9.198   6.097  0.2599 -0.2410 -0.5145
  575MOL0     H77577   4.543   9.080   5.884  4.5463  0.0993 -2.3161
  575MOL0     H77578   4.680   8.986   5.939 -0.6318 -1.9844 -0.2225
  575MOL0     H77579   4.579   8.783   5.944 -0.3893  0.4006 -0.2384
  575MOL0     H77580   4.535   8.865   5.797  0.8455 -0.6662 -0.6527
  575MOL0     H77581   4.386   8.790   6.059  4.6563  0.4091  0.8009
  575MOL0     H77582   4.355   8.741   5.890  3.7716 -1.3794  0.9599
  575MOL0     H77583   4.290   9.005   6.020  0.3501 -1.6701  1.7743
  575MOL0     H77584   4.172   8.903   5.940 -0.7496 -0.0409 -0.7378
  575MOL0     H77585   4.479   9.054   5.627 -2.0620  2.0760 -1.0680
  575MOL0     H77586   4.454   8.993   5.273  0.2348 -4.1440  0.3917
  575MOL0     H77587   4.502   9.096   5.394  0.9593 -0.2875  0.4522
  575MOL0     H77588   4.608   8.958   5.359  0.9503  1.3615 -0.8294
  575MOL0     H77589   4.416   8.433   5.266  2.3975  0.6658  1.0583
  575MOL0     H77590   4.436   8.297   5.078  2.3966 -0.6601 -2.5559
  575MOL0     H77591   4.268   8.446   4.743  0.2822 -0.6165 -1.0115
  575MOL0     H77592   4.429   8.499   4.679  2.1393 -1.2670  0.7868
  575MOL0     H77593   4.328   8.363   4.513  0.7470 -1.3348 -0.7408
  575MOL0     H77594   4.448   8.267   4.589  1.6389  4.1170 -3.1379
  575MOL0     H77595   4.283   8.120   4.598 -0.8438  0.0260  2.7122
  575MOL0     H77596   4.165   8.218   4.526  0.4688 -3.6821 -0.5436
  575MOL0     H77597   4.211   8.276   4.828 -1.2282  4.1474 -2.0681
  575MOL0     H77598   4.091   8.315   4.729  2.7624  1.5098 -3.0569
  575MOL0     H77599   4.154   8.019   4.768  2.4255  0.8882  2.1291
  575MOL0     H77600   3.990   8.105   4.721 -1.8721  2.7720  2.5403
  575MOL0     H77601   3.973   8.194   4.952 -0.4789  0.3386 -0.9811
  575MOL0     H77602   3.945   8.035   4.955 -0.1410 -0.9374  2.0104
  575MOL0     H77603   4.114   8.064   5.129  3.2073  1.0318  1.3617
  575MOL0     H77604   4.198   8.185   5.047  1.2244  0.4474 -2.3919
  575MOL0     H77605   4.325   7.983   5.093  0.7003 -0.6813 -0.1278
  575MOL0     H77606   4.313   8.018   4.924 -1.4452  2.2778 -0.7308
  575MOL0     H77607   4.497   8.621   4.815 -3.4376  1.1272 -0.2517
  575MOL0     H77608   4.483   8.781   5.013  0.3319  0.6335  3.1930
  575MOL0     H77609   4.178   8.678   5.502  0.3910  0.2063 -1.5644
  575MOL0     H77610   4.135   8.817   5.718  0.2505  0.4329 -0.8942
  575MOL0     H77611   3.995   9.657   6.850 -0.1243 -0.5080 -1.7382
  575MOL0     H77612   3.911   9.766   7.056 -1.3298 -0.1943 -1.6800
  575MOL0     H77613   3.628  10.105   7.261 -1.3594  0.8233  0.2829
  575MOL0     H77614   3.564  10.157   7.500 -0.4144  0.6006 -1.3696
  575MOL0     H77615   3.549  10.304   7.716  2.0510 -1.1420 -3.3481
  575MOL0     H77616   3.582  10.133   7.737 -2.2012 -0.8001  1.2835
  575MOL0     H77617   3.655  10.343   7.946  0.8549 -0.5247 -1.0144
  575MOL0     H77618   3.721  10.178   7.943  0.3373 -0.9211  0.5207
  575MOL0     H77619   3.464  10.124   7.914 -0.7582  1.4489 -0.7125
  575MOL0     H77620   3.442  10.275   8.001 -1.1822 -0.6928 -0.1497
  575MOL0     H77621   3.611  10.059   8.116  2.0717  2.3973  0.8161
  575MOL0     H77622   3.443  10.104   8.158  0.8728 -1.4903  2.7802
  575MOL0     H77623   3.681  10.394   8.346  1.5744 -0.7109  0.3311
  575MOL0     H77624   3.973  10.252   7.570 -0.9906  0.6241 -1.1798
  575MOL0     H77625   4.043  10.161   7.358 -0.3066  0.3886 -0.3886
  576MOL0     O77626   3.907   2.186   7.569  0.1013  0.3373  0.4113
  576MOL0     C77627   4.004   2.192   7.646  0.1716 -0.5401  0.3169
  576MOL0     O77628   4.127   2.241   7.617  0.5457  0.3691  0.4004
  576MOL0     C77629   4.162   2.292   7.499 -1.0963  0.8781  0.8036
  576MOL0     C77630   4.159   2.209   7.383 -0.3590 -0.3003 -0.0518
  576MOL0     C77631   4.215   2.250   7.258 -0.1145  0.1214  0.7569
  576MOL0     C77632   4.290   2.368   7.248  0.4240  0.2618 -0.1892
  576MOL0     O77633   4.356   2.395   7.126  0.7110  0.2670 -0.7719
  576MOL0     C77634   4.494   2.428   7.135 -0.1967 -1.0069 -0.7524
  576MOL0     C77635   4.548   2.461   6.995 -0.3172 -0.1143 -0.7453
  576MOL0     C77636   4.710   2.461   6.985 -0.4365 -0.5881 -0.3983
  576MOL0     C77637   4.770   2.534   6.855 -0.0756  0.1510 -0.3185
  576MOL0     C77638   4.747   2.458   6.714 -0.9926  0.1425 -0.4145
  576MOL0     C77639   4.691   2.533   6.605 -0.8182 -0.4313 -0.2298
  576MOL0     C77640   4.772   2.651   6.568  1.0909  0.4460  0.0995
  576MOL0     C77641   4.681   2.750   6.483  0.7085  0.6313 -0.1816
  576MOL0     N77642   4.622   2.853   6.562 -0.1026  0.4729  1.0720
  576MOL0     C77643   4.526   2.839   6.658  0.5008 -0.5667 -0.3363
  576MOL0     C77644   4.508   2.963   6.707  1.0489 -1.9910  0.2285
  576MOL0     C77645   4.400   3.007   6.797  0.5354 -0.1916 -0.3632
  576MOL0     C77646   4.405   2.949   6.938 -0.4974 -0.1545  0.8199
  576MOL0     C77647   4.539   2.958   7.003  0.2406  0.0700 -0.4245
  576MOL0     C77648   4.541   2.939   7.160 -0.6131 -0.3846  0.3621
  576MOL0     O77649   4.511   2.802   7.187 -0.3118 -0.4609  0.1035
  576MOL0     C77650   4.557   2.773   7.318 -0.3121 -0.5748 -0.6955
  576MOL0     C77651   4.458   2.768   7.419 -0.7041  0.8522  0.9631
  576MOL0     C77652   4.484   2.757   7.553 -0.1252 -0.8743 -0.4831
  576MOL0     C77653   4.365   2.754   7.650  1.4021 -0.1306  0.8961
  576MOL0     C77654   4.615   2.723   7.584 -0.7978 -0.2263 -0.6453
  576MOL0     C77655   4.666   2.700   7.724  0.2448  0.6012  0.9092
  576MOL0     O77656   4.614   2.585   7.775  0.0184  0.1490 -0.4434
  576MOL0     C77657   4.599   2.554   7.909 -0.3422  0.0440  0.7918
  576MOL0     C77658   4.618   2.647   8.011 -0.1541 -0.0739  0.1383
  576MOL0     C77659   4.609   2.615   8.153 -0.3920  0.3881  0.5990
  576MOL0     C77660   4.587   2.478   8.188  0.5163 -1.2705 -0.6457
  576MOL0     O77661   4.569   2.437   8.318  0.3598  0.8480  0.0400
  576MOL0     C77662   4.594   2.517   8.434  0.0264  0.4486 -0.2802
  576MOL0     C77663   4.471   2.540   8.528  0.5862  0.3419  0.8171
  576MOL0     C77664   4.363   2.621   8.457 -0.5453 -0.6184  0.0723
  576MOL0     C77665   4.259   2.668   8.552 -0.5251 -0.7622  0.0184
  576MOL0     C77666   4.137   2.728   8.488  0.4164  0.4179 -0.4920
  576MOL0     C77667   4.032   2.775   8.592 -0.0310  0.4373 -0.4469
  576MOL0     C77668   3.911   2.836   8.520 -0.7070  0.6134 -0.4035
  576MOL0     C77669   3.778   2.790   8.570  0.1865 -0.0607  0.7591
  576MOL0    Cl77670   3.629   2.889   8.514 -0.0319  0.1601  0.0573
  576MOL0     C77671   4.561   2.386   8.080  0.3736 -0.3390  0.2039
  576MOL0     C77672   4.570   2.425   7.945 -0.1550  0.0004 -0.3197
  576MOL0     O77673   4.762   2.764   7.765 -0.1427  0.0819  0.8814
  576MOL0     C77674   4.718   2.730   7.488  0.0949 -0.1541 -0.0259
  576MOL0     C77675   4.691   2.757   7.355 -0.8154  0.4051 -1.0385
  576MOL0     N77676   4.602   3.042   6.648  0.4746 -0.0176  0.6840
  576MOL0     N77677   4.675   2.979   6.568  1.3121  0.6683  0.6969
  576MOL0     C77678   4.302   2.434   7.365 -0.2303  0.3913 -0.5284
  576MOL0     C77679   4.249   2.396   7.492  0.3040  0.4738 -0.6598
  576MOL0     C77680   3.977   2.136   7.780 -0.7127  0.3046  0.2729
  576MOL0     C77681   3.853   2.110   7.820  0.1886  0.8046 -0.9425
  576MOL0     C77682   3.825   2.049   7.947 -1.0080 -0.5428 -0.0527
  576MOL0     C77683   3.923   2.033   8.039 -0.7663 -0.1330  0.9563
  576MOL0     O77684   3.871   1.995   8.158 -0.1390  0.2213 -0.4405
  576MOL0     C77685   3.943   2.015   8.275  0.8469 -0.2556 -0.9114
  576MOL0     C77686   3.833   2.059   8.375 -0.1117 -0.8276 -0.4151
  576MOL0     C77687   3.887   2.036   8.522 -1.0836  0.0537  0.0918
  576MOL0     C77688   3.790   2.082   8.629 -0.5012  0.0243 -0.4545
  576MOL0     C77689   3.677   1.986   8.637  0.2722  0.2596  0.1973
  576MOL0     C77690   3.585   1.904   8.656  0.0737  0.2711 -0.2924
  576MOL0     C77691   4.049   2.078   8.007 -0.0379  0.1715 -0.0338
  576MOL0     C77692   4.079   2.120   7.879  0.1489  0.3938 -0.3428
  576MOL0     H77693   4.121   2.108   7.388 -1.6679  0.1976  0.8339
  576MOL0     H77694   4.203   2.182   7.174  1.7071  1.9821 -1.1407
  576MOL0     H77695   4.513   2.520   7.192  4.4452 -2.4581  0.5054
  576MOL0     H77696   4.546   2.348   7.187  3.3381  1.9504  0.7553
  576MOL0     H77697   4.507   2.404   6.912  1.8496 -0.7553 -1.4386
  576MOL0     H77698   4.510   2.562   6.978  1.9064  0.8552 -0.4020
  576MOL0     H77699   4.754   2.518   7.067  1.9321 -2.1045 -0.5283
  576MOL0     H77700   4.732   2.355   6.997 -0.2286 -0.3844  1.2250
  576MOL0     H77701   4.741   2.639   6.858  1.2879  0.5833 -1.2529
  576MOL0     H77702   4.878   2.538   6.868 -0.3053 -0.8736  2.4844
  576MOL0     H77703   4.836   2.407   6.676 -0.1587  1.2540 -0.0150
  576MOL0     H77704   4.669   2.386   6.739  0.6464 -2.6331 -2.6491
  576MOL0     H77705   4.679   2.471   6.516  1.7788 -0.9451 -0.2943
  576MOL0     H77706   4.593   2.565   6.641 -0.7628 -0.3975 -0.1072
  576MOL0     H77707   4.805   2.698   6.661  1.6706 -1.5158  0.9249
  576MOL0     H77708   4.861   2.614   6.517  1.0439 -0.2912  0.5393
  576MOL0     H77709   4.614   2.678   6.435 -0.1332  0.5418  1.0836
  576MOL0     H77710   4.739   2.796   6.403  2.3956  1.6865  1.5472
  576MOL0     H77711   4.479   2.747   6.691  0.3650 -0.2596  0.3518
  576MOL0     H77712   4.406   3.117   6.798  1.1757 -0.1844  2.3290
  576MOL0     H77713   4.307   2.983   6.744  1.4764 -1.9488 -1.2915
  576MOL0     H77714   4.356   2.851   6.943 -3.1019  0.8754 -1.6590
  576MOL0     H77715   4.332   3.007   6.996 -0.8299  0.9577 -0.6672
  576MOL0     H77716   4.588   3.054   6.985  2.3703 -1.1331 -1.3634
  576MOL0     H77717   4.596   2.880   6.953  0.7742  0.1855 -0.0050
  576MOL0     H77718   4.458   2.997   7.202  0.1172  0.1566  1.0761
  576MOL0     H77719   4.631   2.984   7.201 -0.9772  2.2444 -1.4736
  576MOL0     H77720   4.356   2.777   7.383 -0.7804 -2.8417 -0.0937
  576MOL0     H77721   4.389   2.700   7.742  3.3301 -0.1528  0.4229
  576MOL0     H77722   4.327   2.851   7.681  0.2284 -0.4691  0.5630
  576MOL0     H77723   4.284   2.697   7.603  2.0024 -0.3590  0.1188
  576MOL0     H77724   4.650   2.750   7.997  1.7114 -0.7412 -0.8284
  576MOL0     H77725   4.623   2.697   8.222 -0.8256  0.2487  0.8503
  576MOL0     H77726   4.666   2.456   8.491 -2.2219 -0.3106  1.8997
  576MOL0     H77727   4.642   2.611   8.407 -1.6558  1.8660  1.4434
  576MOL0     H77728   4.427   2.446   8.564 -3.0333  1.4172 -0.4399
  576MOL0     H77729   4.508   2.604   8.609  0.4307 -1.6880  2.6028
  576MOL0     H77730   4.333   2.550   8.379  3.1893 -0.1225 -2.0744
  576MOL0     H77731   4.412   2.702   8.401 -0.1065  0.2962  1.7037
  576MOL0     H77732   4.242   2.586   8.623  1.5293 -0.5446  0.8170
  576MOL0     H77733   4.309   2.746   8.610 -2.8124 -0.2522  1.4159
  576MOL0     H77734   4.093   2.646   8.431  1.3760 -2.9349  3.1037
  576MOL0     H77735   4.180   2.810   8.429 -0.1819  0.6374 -0.6326
  576MOL0     H77736   3.994   2.697   8.659 -0.3714  0.9759 -0.0056
  576MOL0     H77737   4.080   2.848   8.657 -2.1370  1.8824 -0.4236
  576MOL0     H77738   3.913   2.830   8.411  0.8171 -1.0382 -0.3339
  576MOL0     H77739   3.914   2.940   8.553 -2.4264  0.4590  0.3280
  576MOL0     H77740   3.786   2.784   8.679  3.4234  0.8256  0.6891
  576MOL0     H77741   3.769   2.692   8.522 -0.5037 -0.2298  1.2193
  576MOL0     H77742   4.534   2.284   8.105  2.5485 -0.6575  1.4518
  576MOL0     H77743   4.557   2.350   7.868 -0.5524 -0.4354  0.1670
  576MOL0     H77744   4.821   2.715   7.518  0.0927 -4.0646 -1.4059
  576MOL0     H77745   4.777   2.762   7.289 -0.5997  1.1426 -0.7120
  576MOL0     H77746   4.362   2.524   7.354 -0.3975  0.7028  0.9301
  576MOL0     H77747   4.265   2.460   7.578 -2.6305  0.3022  0.1176
  576MOL0     H77748   3.769   2.124   7.754 -0.3663 -3.7808 -1.5115
  576MOL0     H77749   3.727   2.009   7.972 -1.2400  1.0667  1.8289
  576MOL0     H77750   3.987   1.917   8.296  4.3860  1.2803 -0.2346
  576MOL0     H77751   4.021   2.092   8.273  0.3547  0.4277  1.7775
  576MOL0     H77752   3.740   2.002   8.364 -1.5844  0.9478  1.8119
  576MOL0     H77753   3.805   2.164   8.363  1.5482 -0.4876 -1.7586
  576MOL0     H77754   3.985   2.083   8.538 -0.8780 -0.0527 -0.7671
  576MOL0     H77755   3.906   1.929   8.536 -0.0283  0.1194 -0.6493
  576MOL0     H77756   3.749   2.180   8.600  0.6452  0.5476 -0.3396
  576MOL0     H77757   3.829   2.085   8.731 -0.7885 -1.2306 -0.2871
  576MOL0     H77758   3.501   1.844   8.681 -0.3566  2.1177  3.4036
  576MOL0     H77759   4.122   2.073   8.088 -0.9908 -0.0743  0.8217
  576MOL0     H77760   4.183   2.151   7.869 -0.1758  1.1668 -1.5230
  577MOL0     O77761   7.393  11.477   1.631 -0.0340 -0.1178  0.4362
  577MOL0     C77762   7.474  11.485   1.718  0.0745  0.2448  0.1198
  577MOL0     O77763   7.482  11.395   1.827  0.2275 -1.2220  0.6733
  577MOL0     C77764   7.399  11.286   1.834 -0.2735  0.8824 -1.2149
  577MOL0     C77765   7.258  11.291   1.811 -1.0278 -1.3373  0.0905
  577MOL0     C77766   7.185  11.169   1.810  0.2208  0.6550  0.0525
  577MOL0     C77767   7.245  11.048   1.841  0.0142  0.6093 -0.3337
  577MOL0     O77768   7.172  10.933   1.829  0.0277  0.4807 -0.5755
  577MOL0     C77769   7.029  10.932   1.811  0.3588 -0.0755 -0.8179
  577MOL0     C77770   6.990  10.791   1.835  0.3291 -0.0287  0.2488
  577MOL0     C77771   7.065  10.697   1.735  0.2227 -0.2451 -0.3707
  577MOL0     C77772   6.991  10.693   1.603  0.1017 -0.8962  0.0591
  577MOL0     C77773   7.053  10.597   1.507 -0.7506 -1.5934 -0.4044
  577MOL0     C77774   7.004  10.618   1.367 -0.4038 -0.3244 -0.3771
  577MOL0     C77775   7.086  10.545   1.258 -1.0168 -0.1614 -0.2514
  577MOL0     C77776   7.007  10.490   1.138  0.7692  0.1701  0.1867
  577MOL0     N77777   7.100  10.470   1.022 -0.4462 -0.2912 -0.4791
  577MOL0     C77778   7.069  10.504   0.884 -0.2110  0.5868  0.2675
  577MOL0     C77779   7.184  10.485   0.813  0.8377 -1.5740 -0.1504
  577MOL0     C77780   7.189  10.499   0.664 -0.9175  0.5586 -0.2005
  577MOL0     C77781   7.263  10.372   0.605  0.6505 -0.4527 -0.4460
  577MOL0     C77782   7.266  10.377   0.450 -0.2273 -0.3678 -0.0404
  577MOL0     C77783   7.333  10.253   0.397  0.0287  0.2383 -0.0447
  577MOL0     O77784   7.280  10.185   0.281 -0.0152  0.4812  0.0796
  577MOL0     C77785   7.143  10.154   0.276  0.1759  0.1159 -0.2601
  577MOL0     C77786   7.096  10.117   0.152 -0.0277  0.1105  0.0733
  577MOL0     C77787   6.964  10.081   0.116  0.0258  0.0367  0.0968
  577MOL0     C77788   6.924  10.032  -0.020  0.2569 -0.1337 -0.4502
  577MOL0     C77789   6.878  10.091   0.230 -0.6222 -1.0963 -0.6080
  577MOL0     C77790   6.729  10.081   0.230  0.1989 -0.1515  0.5135
  577MOL0     O77791   6.669  10.127   0.124 -0.3413 -0.0525 -0.0539
  577MOL0     C77792   6.538  10.131   0.120  0.7327  0.0599  0.2986
  577MOL0     C77793   6.450  10.231   0.184 -1.1709 -0.3985 -0.7005
  577MOL0     C77794   6.311  10.227   0.157 -0.0300  0.4908 -0.1427
  577MOL0     C77795   6.252  10.128   0.078 -0.8644  0.0992 -0.1609
  577MOL0     O77796   6.114  10.121   0.040 -0.4162 -0.1672  0.6591
  577MOL0     C77797   6.055  10.236  -0.023 -0.5198  1.1484 -0.6227
  577MOL0     C77798   5.909  10.234  -0.036  0.0198  0.3853 -0.2182
  577MOL0     C77799   5.839  10.246   0.096 -0.0673 -0.5940  1.1074
  577MOL0     C77800   5.820  10.116   0.179  0.0804  0.0883  0.0965
  577MOL0     C77801   5.772  10.162   0.320 -0.1095  0.5846  0.2250
  577MOL0     C77802   5.657  10.074   0.375 -0.4481  0.4971 -0.0682
  577MOL0     C77803   5.686   9.921   0.376 -0.1720 -0.7761 -0.5529
  577MOL0     C77804   5.571   9.853   0.443 -0.6196 -0.6806 -0.3048
  577MOL0    Cl77805   5.407   9.845   0.362 -0.0567  0.0262  0.0953
  577MOL0     C77806   6.337  10.026   0.024  0.7477  0.6990  0.4610
  577MOL0     C77807   6.473  10.030   0.042  0.1735  0.5434  0.4770
  577MOL0     O77808   6.668  10.038   0.326 -0.6022 -0.4597 -0.2833
  577MOL0     C77809   6.925  10.115   0.359 -0.2839 -0.7355 -0.5431
  577MOL0     C77810   7.054  10.146   0.386 -0.5344  0.8245 -0.2045
  577MOL0     N77811   7.276  10.442   0.904 -0.3415 -0.0665 -0.3299
  577MOL0     N77812   7.229  10.437   1.026 -0.0001 -0.1237 -0.1072
  577MOL0     C77813   7.383  11.045   1.881 -0.2668 -0.1956  0.0954
  577MOL0     C77814   7.458  11.169   1.883  0.2945 -0.1778 -0.1701
  577MOL0     C77815   7.546  11.610   1.749 -1.1403  0.7938 -0.2501
  577MOL0     C77816   7.511  11.730   1.699  0.3448  0.1351 -0.6502
  577MOL0     C77817   7.573  11.842   1.754 -0.5249 -0.7265  0.2492
  577MOL0     C77818   7.680  11.839   1.845  0.5961 -0.0289 -0.7152
  577MOL0     O77819   7.719  11.958   1.889 -0.5753  0.5107 -0.1698
  577MOL0     C77820   7.853  11.988   1.846  0.6481 -0.3365 -0.0541
  577MOL0     C77821   7.919  12.062   1.962 -0.7792  0.3092  0.2670
  577MOL0     C77822   7.916  12.002   2.099 -0.6282  0.2527 -0.0528
  577MOL0     C77823   7.992  11.874   2.108  0.2853 -0.0945  0.6780
  577MOL0     C77824   7.949  11.776   2.209 -0.0804  0.6053 -2.0226
  577MOL0     C77825   7.928  11.697   2.306 -0.3296  0.0111 -0.4700
  577MOL0     C77826   7.726  11.712   1.889  0.2227  0.4074 -0.6195
  577MOL0     C77827   7.662  11.598   1.835 -0.2848 -0.2287 -0.4316
  577MOL0     H77828   7.222  11.391   1.787  2.5615 -0.5275 -2.7233
  577MOL0     H77829   7.078  11.169   1.794  0.0498 -0.3446  1.0640
  577MOL0     H77830   6.975  10.998   1.879 -1.5548  0.9067 -3.1452
  577MOL0     H77831   7.006  10.957   1.707 -0.2577 -0.1317 -0.6988
  577MOL0     H77832   7.006  10.757   1.938 -3.3697 -1.6211  0.4440
  577MOL0     H77833   6.881  10.789   1.827  0.4040  1.4896 -2.1369
  577MOL0     H77834   7.170  10.719   1.715  0.0162  0.1162 -1.1359
  577MOL0     H77835   7.055  10.603   1.789  1.6266  0.9994  2.2319
  577MOL0     H77836   6.885  10.675   1.622 -0.4379  2.1171  0.3418
  577MOL0     H77837   6.989  10.795   1.565  0.0928 -0.7873  0.3473
  577MOL0     H77838   7.161  10.617   1.503 -1.2512  1.6396 -0.1713
  577MOL0     H77839   7.028  10.494   1.533  0.6680 -1.9804 -0.4600
  577MOL0     H77840   6.904  10.572   1.372  0.2246 -2.3100 -3.2833
  577MOL0     H77841   6.994  10.722   1.335 -1.3898  0.4369  2.1572
  577MOL0     H77842   7.159  10.611   1.210 -0.4962 -1.5484 -1.4628
  577MOL0     H77843   7.141  10.462   1.305  1.1735  2.0591  1.3368
  577MOL0     H77844   6.941  10.573   1.109 -1.4535 -1.4148  0.4604
  577MOL0     H77845   6.951  10.400   1.163 -1.5070  0.9743 -1.6653
  577MOL0     H77846   6.977  10.531   0.834 -0.8280 -2.1014 -0.2053
  577MOL0     H77847   7.091  10.496   0.616 -2.8664 -1.3013  3.4687
  577MOL0     H77848   7.258  10.582   0.644  1.9326 -1.8620 -1.1130
  577MOL0     H77849   7.215  10.281   0.642  1.5127 -0.0038  1.9616
  577MOL0     H77850   7.368  10.370   0.635  1.1195  2.1281 -1.6596
  577MOL0     H77851   7.321  10.462   0.409  0.3554  1.2339  3.6415
  577MOL0     H77852   7.160  10.390   0.425  0.3089  3.6092 -0.9169
  577MOL0     H77853   7.347  10.179   0.477 -1.5534  0.2604  0.2845
  577MOL0     H77854   7.436  10.281   0.372  0.4802  2.5851  3.6102
  577MOL0     H77855   7.166  10.106   0.069 -0.4296 -0.9985 -0.1397
  577MOL0     H77856   6.908  10.125  -0.075 -2.2397  0.5604  1.2434
  577MOL0     H77857   7.005   9.973  -0.061  0.8343 -0.0762  0.5715
  577MOL0     H77858   6.832   9.972  -0.020  1.6294 -2.3640  0.3399
  577MOL0     H77859   6.505  10.307   0.239  1.6084 -2.3617 -0.5809
  577MOL0     H77860   6.247  10.308   0.192 -0.6965  0.2431 -0.7539
  577MOL0     H77861   6.070  10.318   0.048  1.0854 -1.0056  1.6956
  577MOL0     H77862   6.098  10.249  -0.123  1.7989 -2.0650 -0.1971
  577MOL0     H77863   5.879  10.327  -0.086 -0.4038  0.4747  0.2034
  577MOL0     H77864   5.874  10.145  -0.088 -1.5005  0.7896  0.0697
  577MOL0     H77865   5.739  10.272   0.060  0.7185 -0.1692 -0.9475
  577MOL0     H77866   5.874  10.327   0.160 -0.6389 -0.0392  0.7287
  577MOL0     H77867   5.743  10.050   0.138  2.9530 -2.2999 -1.7822
  577MOL0     H77868   5.912  10.057   0.183 -1.2503 -2.0748  2.6491
  577MOL0     H77869   5.726  10.261   0.310 -4.1282 -0.9200  1.7931
  577MOL0     H77870   5.856  10.162   0.391  0.7670  0.8221 -0.7770
  577MOL0     H77871   5.637  10.102   0.479  0.0756 -0.6686  0.3638
  577MOL0     H77872   5.557  10.075   0.331 -0.5470 -0.6884  0.0914
  577MOL0     H77873   5.770   9.900   0.444 -1.2107 -1.1333  0.6545
  577MOL0     H77874   5.720   9.887   0.278  2.2510 -0.6078  0.1520
  577MOL0     H77875   5.560   9.905   0.538  1.8690  0.8375 -0.7773
  577MOL0     H77876   5.612   9.752   0.455  1.9673  0.3059 -0.2000
  577MOL0     H77877   6.284   9.947  -0.029  5.0345 -3.4742  1.6495
  577MOL0     H77878   6.536   9.951   0.001  0.6810  1.8486 -1.3890
  577MOL0     H77879   6.857  10.116   0.444 -1.8935 -0.4247 -1.7636
  577MOL0     H77880   7.079  10.166   0.489  0.9640 -0.5477 -0.2628
  577MOL0     H77881   7.408  10.942   1.903  1.4583  0.2366  0.3323
  577MOL0     H77882   7.565  11.171   1.900  0.6191  1.9474 -1.9239
  577MOL0     H77883   7.436  11.732   1.620 -1.0522 -2.4835  0.4876
  577MOL0     H77884   7.539  11.933   1.706  2.4414 -0.6380 -1.9903
  577MOL0     H77885   7.903  11.894   1.824  0.0315 -0.7842  0.4278
  577MOL0     H77886   7.855  12.058   1.762  2.2572 -1.6915 -1.2144
  577MOL0     H77887   7.871  12.160   1.969  1.1952  1.3812 -0.3483
  577MOL0     H77888   8.017  12.093   1.924 -0.8215  1.0848  0.7766
  577MOL0     H77889   7.810  11.998   2.125 -1.1359  1.3221 -1.7863
  577MOL0     H77890   7.947  12.074   2.176 -0.1067 -0.4346  0.3921
  577MOL0     H77891   8.100  11.885   2.123  0.9406 -4.0498  0.0360
  577MOL0     H77892   7.993  11.819   2.014  0.3627 -0.7406  1.0457
  577MOL0     H77893   7.911  11.632   2.389 -0.1409 -1.7141 -1.7381
  577MOL0     H77894   7.808  11.710   1.961 -0.4927  1.0577  0.2355
  577MOL0     H77895   7.691  11.501   1.872  0.8344  0.3680  0.3013
  578MOL0     O77896   5.767   3.644   2.604  0.1978  0.0102  0.9867
  578MOL0     C77897   5.766   3.568   2.508 -0.2868  0.4503 -0.6864
  578MOL0     O77898   5.858   3.570   2.397  0.2326 -0.4917 -0.2693
  578MOL0     C77899   5.956   3.672   2.385 -0.2431  0.8476  0.0803
  578MOL0     C77900   6.052   3.716   2.475  0.1725 -0.2616 -0.2844
  578MOL0     C77901   6.148   3.808   2.445  0.7184 -0.3794 -0.7949
  578MOL0     C77902   6.157   3.867   2.328 -0.4460  0.1223 -0.7872
  578MOL0     O77903   6.246   3.962   2.298 -0.4398 -0.3586  0.3025
  578MOL0     C77904   6.249   4.081   2.386 -0.7520  0.6722  0.2663
  578MOL0     C77905   6.283   4.206   2.306 -0.1731 -0.1048 -0.7298
  578MOL0     C77906   6.204   4.218   2.166  0.3534  0.8093  0.8351
  578MOL0     C77907   6.041   4.206   2.193 -0.1959 -0.0600 -0.4547
  578MOL0     C77908   5.981   4.311   2.288  0.1429 -0.4131 -0.2462
  578MOL0     C77909   5.980   4.465   2.229  0.5565  1.4737 -0.4494
  578MOL0     C77910   5.918   4.481   2.080  0.1397  0.0455  0.2600
  578MOL0     C77911   5.771   4.445   2.085  0.2433 -0.1420  1.6075
  578MOL0     N77912   5.714   4.476   1.950 -0.2184 -0.0342 -0.0496
  578MOL0     C77913   5.728   4.411   1.827 -0.1132  0.1393  1.2969
  578MOL0     C77914   5.631   4.452   1.747  0.5825 -1.3098  0.3802
  578MOL0     C77915   5.596   4.372   1.624 -0.3154  0.2456 -0.5089
  578MOL0     C77916   5.459   4.310   1.637  0.4388  0.7758  0.0969
  578MOL0     C77917   5.405   4.294   1.497 -0.1805  0.1523 -0.1479
  578MOL0     C77918   5.263   4.213   1.512  0.1843 -1.1799 -0.0168
  578MOL0     O77919   5.277   4.071   1.546 -0.8732 -0.9086 -0.2584
  578MOL0     C77920   5.322   3.980   1.462  0.2746 -0.4565 -0.6612
  578MOL0     C77921   5.315   3.989   1.328 -0.1043  0.0429  0.4351
  578MOL0     C77922   5.345   3.892   1.242 -0.4348 -0.0464 -0.5521
  578MOL0     C77923   5.333   3.920   1.100 -0.1448 -0.0747 -0.3809
  578MOL0     C77924   5.397   3.761   1.300 -0.6277 -0.9909  1.2879
  578MOL0     C77925   5.400   3.633   1.236 -0.8398  0.1609 -0.3752
  578MOL0     O77926   5.357   3.632   1.104 -0.6871  0.6543  0.1423
  578MOL0     C77927   5.380   3.530   1.019  0.0943  1.1467  0.0439
  578MOL0     C77928   5.475   3.421   1.030 -0.6438 -0.9133 -0.7535
  578MOL0     C77929   5.503   3.336   0.922  0.7632  0.2129 -0.2833
  578MOL0     C77930   5.426   3.341   0.801  0.4681  0.3634 -0.0290
  578MOL0     O77931   5.471   3.268   0.693  0.8312 -0.3552 -0.3162
  578MOL0     C77932   5.375   3.224   0.595  0.0497  0.1790  0.8993
  578MOL0     C77933   5.425   3.103   0.517  0.4885  0.3446 -0.2507
  578MOL0     C77934   5.535   3.125   0.419 -0.9940 -0.5620 -0.5244
  578MOL0     C77935   5.593   2.983   0.383 -0.6536 -0.0548  0.9569
  578MOL0     C77936   5.616   2.976   0.233  0.3859  0.4833 -0.5866
  578MOL0     C77937   5.656   2.842   0.182  0.2947 -0.0459  0.2248
  578MOL0     C77938   5.792   2.795   0.233  0.1496  0.3011 -0.3941
  578MOL0     C77939   5.827   2.655   0.173 -0.9722 -0.2632  0.0553
  578MOL0    Cl77940   5.714   2.526   0.191 -0.1746  0.1634 -0.1382
  578MOL0     C77941   5.338   3.456   0.793 -0.2785  0.1701  0.2832
  578MOL0     C77942   5.318   3.541   0.900 -0.4642 -0.2247  0.2196
  578MOL0     O77943   5.436   3.534   1.303 -0.6800  0.1261 -0.0682
  578MOL0     C77944   5.412   3.765   1.440 -0.3007  0.1485 -0.4962
  578MOL0     C77945   5.366   3.865   1.516  0.4040  0.0401 -0.0309
  578MOL0     N77946   5.559   4.546   1.820 -0.3733  0.0151  0.1233
  578MOL0     N77947   5.615   4.571   1.938  0.0217 -0.6652  0.5018
  578MOL0     C77948   6.082   3.813   2.226  0.2664  0.1902  0.1613
  578MOL0     C77949   5.987   3.715   2.259 -0.0432 -0.2054  0.0247
  578MOL0     C77950   5.656   3.471   2.512 -0.7004  0.7336  0.3341
  578MOL0     C77951   5.568   3.455   2.626  0.6409 -0.3112  0.3696
  578MOL0     C77952   5.456   3.381   2.621  0.0094  1.1157 -0.6741
  578MOL0     C77953   5.428   3.302   2.510 -0.8587  1.5525  0.7810
  578MOL0     O77954   5.318   3.216   2.515 -0.1102 -0.2553 -0.5701
  578MOL0     C77955   5.271   3.166   2.387  0.0718  0.6526 -0.8537
  578MOL0     C77956   5.156   3.068   2.401 -1.0725  1.0095 -0.6221
  578MOL0     C77957   5.033   3.145   2.453 -0.1195 -0.7604 -0.3617
  578MOL0     C77958   4.974   3.247   2.356 -1.3124  0.3234 -0.4671
  578MOL0     C77959   4.881   3.337   2.420 -0.3416  0.5963 -0.0782
  578MOL0     C77960   4.802   3.423   2.462  0.4280 -1.8988  0.3474
  578MOL0     C77961   5.512   3.313   2.395 -0.0477  0.0233 -1.0733
  578MOL0     C77962   5.624   3.393   2.399  0.0283 -0.0247 -0.0148
  578MOL0     H77963   6.056   3.687   2.580 -0.6254 -4.4153 -1.2271
  578MOL0     H77964   6.221   3.838   2.520 -1.7079  0.6140  1.3451
  578MOL0     H77965   6.151   4.093   2.433 -1.7758 -1.5751 -1.1247
  578MOL0     H77966   6.312   4.070   2.475 -4.4124  0.0434  3.0022
  578MOL0     H77967   6.268   4.295   2.368  1.8832 -0.4371  0.3283
  578MOL0     H77968   6.389   4.191   2.286 -0.5879 -5.1088 -0.3861
  578MOL0     H77969   6.228   4.313   2.118 -1.4763  2.0244  2.1611
  578MOL0     H77970   6.236   4.134   2.105  1.4390  1.3756  0.6085
  578MOL0     H77971   5.997   4.212   2.093 -3.1421 -1.8037  0.5878
  578MOL0     H77972   6.009   4.107   2.227 -1.5871  0.7016  0.5751
  578MOL0     H77973   5.876   4.285   2.304 -0.2015  0.0871 -1.5620
  578MOL0     H77974   6.036   4.312   2.382 -2.9626  1.4243  1.7298
  578MOL0     H77975   5.925   4.535   2.292  1.3192  0.8146  0.9880
  578MOL0     H77976   6.088   4.483   2.220  1.4433 -2.6142  0.0311
  578MOL0     H77977   5.942   4.575   2.031  1.4657 -0.8911 -0.9761
  578MOL0     H77978   5.964   4.413   2.008  1.1857  1.5110 -0.5068
  578MOL0     H77979   5.726   4.510   2.161  1.5459  2.6326  0.1515
  578MOL0     H77980   5.744   4.341   2.105  2.6509 -1.4636 -1.1911
  578MOL0     H77981   5.792   4.324   1.814 -0.1143  0.1059  1.5089
  578MOL0     H77982   5.594   4.442   1.539  0.0201 -0.8976 -1.4889
  578MOL0     H77983   5.669   4.295   1.597  0.9553  1.2803 -0.1268
  578MOL0     H77984   5.399   4.376   1.700  2.6012  1.2427  1.7848
  578MOL0     H77985   5.471   4.214   1.689  2.0880  0.5454 -0.6602
  578MOL0     H77986   5.472   4.232   1.437  1.0324 -0.2776  1.5840
  578MOL0     H77987   5.388   4.386   1.441 -0.0360 -1.3903 -2.8818
  578MOL0     H77988   5.210   4.231   1.418 -3.4618  1.7878  2.3279
  578MOL0     H77989   5.204   4.254   1.595  1.3340  0.2481  0.1332
  578MOL0     H77990   5.264   4.079   1.296  1.1474  0.8220  0.5797
  578MOL0     H77991   5.338   4.029   1.087 -0.1252  0.8548  5.1095
  578MOL0     H77992   5.402   3.866   1.035 -1.2803 -1.7439 -0.2745
  578MOL0     H77993   5.236   3.889   1.059  0.4326 -1.6580 -0.6105
  578MOL0     H77994   5.529   3.400   1.122 -0.3710 -2.7550 -1.3058
  578MOL0     H77995   5.576   3.258   0.936 -0.7888 -1.1409  0.7272
  578MOL0     H77996   5.277   3.202   0.639  0.3505 -0.3296  1.3171
  578MOL0     H77997   5.353   3.298   0.517 -2.4845 -1.5045 -0.1403
  578MOL0     H77998   5.459   3.036   0.596 -0.8581  2.6190  2.4520
  578MOL0     H77999   5.336   3.063   0.467 -0.9646  0.0468  2.3810
  578MOL0     H78000   5.617   3.186   0.458 -2.6973  2.3519 -1.2095
  578MOL0     H78001   5.502   3.183   0.332 -1.9422  0.1660  0.3040
  578MOL0     H78002   5.682   2.955   0.439 -0.4631  0.6677  1.0226
  578MOL0     H78003   5.529   2.898   0.410 -0.3061 -1.0637 -1.1390
  578MOL0     H78004   5.698   3.044   0.211  2.0446  0.1804  3.6522
  578MOL0     H78005   5.522   2.986   0.178 -1.1061 -1.6838  1.3736
  578MOL0     H78006   5.578   2.769   0.204  0.9111 -0.4340  1.1766
  578MOL0     H78007   5.662   2.858   0.073 -1.0418  3.1287  0.5088
  578MOL0     H78008   5.787   2.778   0.341  1.5053  2.6119  0.1112
  578MOL0     H78009   5.861   2.878   0.217 -0.2295  0.4110 -1.6401
  578MOL0     H78010   5.921   2.628   0.223  0.1627  0.8053 -1.4389
  578MOL0     H78011   5.858   2.678   0.071  3.6219 -0.8452  1.0792
  578MOL0     H78012   5.288   3.489   0.702  1.6927 -2.0865 -1.7802
  578MOL0     H78013   5.254   3.628   0.893  1.0355  1.2883  3.1402
  578MOL0     H78014   5.456   3.678   1.488  0.0154  0.4726 -0.1896
  578MOL0     H78015   5.380   3.860   1.624  0.4204 -1.0297 -0.0713
  578MOL0     H78016   6.108   3.844   2.125  0.4055 -1.9915 -0.5312
  578MOL0     H78017   5.940   3.662   2.177  1.3117 -0.5934 -0.5286
  578MOL0     H78018   5.589   3.504   2.720 -3.5789  0.5949  0.9960
  578MOL0     H78019   5.394   3.382   2.710  1.1703  1.4177  0.1528
  578MOL0     H78020   5.236   3.258   2.340 -1.2267  2.0994  2.5743
  578MOL0     H78021   5.354   3.114   2.339  1.4297  0.5107  1.4835
  578MOL0     H78022   5.181   2.985   2.467 -2.0412 -0.1250 -1.6214
  578MOL0     H78023   5.126   3.035   2.301  1.3581  1.7434 -1.6653
  578MOL0     H78024   5.062   3.208   2.538  2.9873 -1.2202 -0.9477
  578MOL0     H78025   4.959   3.067   2.472  0.7480 -2.1498 -2.3757
  578MOL0     H78026   4.913   3.196   2.281 -2.9027 -2.0707  2.2454
  578MOL0     H78027   5.053   3.308   2.312  2.8254 -4.1952 -0.1544
  578MOL0     H78028   4.747   3.510   2.493 -0.7669 -3.0765  1.6959
  578MOL0     H78029   5.493   3.257   2.304  0.6898  3.2170 -3.3288
  578MOL0     H78030   5.675   3.399   2.303 -0.6994 -0.1530 -0.4179
  579MOL0     O78031   7.346   0.273   2.891 -0.6223  0.6830 -0.1871
  579MOL0     C78032   7.269   0.337   2.959  0.4228 -0.6839 -0.3912
  579MOL0     O78033   7.288   0.361   3.088 -0.2679 -0.2069 -0.0588
  579MOL0     C78034   7.403   0.370   3.158 -0.8757 -0.3747  0.1565
  579MOL0     C78035   7.392   0.369   3.296  0.2684 -0.9731  0.1346
  579MOL0     C78036   7.504   0.366   3.380  0.3905 -0.4984 -0.0631
  579MOL0     C78037   7.630   0.351   3.327  0.6356  0.8377 -0.4518
  579MOL0     O78038   7.742   0.347   3.402  0.1346  0.6846 -0.6465
  579MOL0     C78039   7.752   0.215   3.459  0.3390 -0.0697  0.2893
  579MOL0     C78040   7.902   0.192   3.501  0.6648  0.0952  0.4372
  579MOL0     C78041   7.904   0.119   3.630  0.1088 -0.6303  0.4229
  579MOL0     C78042   7.907  -0.023   3.614 -0.6171  0.7879 -0.9646
  579MOL0     C78043   7.961  -0.107   3.736  0.6458  0.0709  0.1082
  579MOL0     C78044   7.937  -0.254   3.730  0.3329 -0.3364 -0.7462
  579MOL0     C78045   7.961  -0.319   3.586  0.0633 -1.3543 -0.3588
  579MOL0     C78046   7.944  -0.468   3.608 -0.4237 -0.4824 -0.7909
  579MOL0     N78047   7.921  -0.543   3.478 -0.1813 -0.5636  0.7816
  579MOL0     C78048   7.853  -0.503   3.368 -0.0785  0.1089  0.7379
  579MOL0     C78049   7.865  -0.614   3.291  0.4372  0.3266 -0.4226
  579MOL0     C78050   7.792  -0.647   3.162 -0.1032 -1.2262  0.0649
  579MOL0     C78051   7.655  -0.584   3.159 -0.4376 -0.9989  0.3020
  579MOL0     C78052   7.536  -0.661   3.229 -0.5571 -1.6073 -0.0007
  579MOL0     C78053   7.537  -0.811   3.205 -0.0804 -0.2228 -0.2692
  579MOL0     O78054   7.415  -0.859   3.260  0.3866 -0.7217  0.2446
  579MOL0     C78055   7.417  -0.985   3.297  0.0631  0.3459 -1.1149
  579MOL0     C78056   7.424  -1.081   3.197 -0.0767  1.3255 -0.1010
  579MOL0     C78057   7.443  -1.214   3.233  0.7560  0.5378 -0.9794
  579MOL0     C78058   7.410  -1.310   3.127  0.5969 -0.0935 -0.1559
  579MOL0     C78059   7.465  -1.252   3.369  0.6531 -0.1872  0.6144
  579MOL0     C78060   7.470  -1.398   3.417  0.3093 -0.3665  0.6847
  579MOL0     O78061   7.471  -1.504   3.320  0.3002  0.0247  0.2808
  579MOL0     C78062   7.465  -1.634   3.367  0.3350  0.4212 -0.2779
  579MOL0     C78063   7.350  -1.688   3.429 -0.8913 -1.4307  0.5673
  579MOL0     C78064   7.354  -1.817   3.475 -0.9501  0.2039 -0.2665
  579MOL0     C78065   7.455  -1.905   3.454 -0.1962  1.0365 -0.3533
  579MOL0     O78066   7.448  -2.030   3.512  0.9876 -0.5458 -0.3811
  579MOL0     C78067   7.568  -2.089   3.563 -0.3376 -0.4409 -0.3513
  579MOL0     C78068   7.525  -2.209   3.647  0.3178  0.5939 -0.0547
  579MOL0     C78069   7.451  -2.321   3.574  0.4345 -0.5538  0.6035
  579MOL0     C78070   7.456  -2.447   3.663 -0.4810  0.1790  0.6363
  579MOL0     C78071   7.361  -2.554   3.621  0.3057  0.1855  1.1688
  579MOL0     C78072   7.396  -2.685   3.695 -0.3533  0.7099  0.1214
  579MOL0     C78073   7.282  -2.784   3.702 -0.7697  0.1653  0.1245
  579MOL0     C78074   7.345  -2.927   3.747  0.8402 -0.0994  0.9625
  579MOL0    Cl78075   7.197  -3.027   3.746 -0.2506 -0.3809 -0.4765
  579MOL0     C78076   7.572  -1.854   3.386  0.2971  0.3892 -0.0299
  579MOL0     C78077   7.570  -1.721   3.341 -0.5953  0.2003 -1.4221
  579MOL0     O78078   7.471  -1.415   3.538  0.0387 -0.1966  1.5028
  579MOL0     C78079   7.467  -1.149   3.465  0.3317 -0.0729  0.4849
  579MOL0     C78080   7.437  -1.018   3.432 -0.1430 -0.2186  0.3133
  579MOL0     N78081   7.929  -0.725   3.352  0.1393  0.7582 -1.2080
  579MOL0     N78082   7.954  -0.674   3.475  0.3792 -0.0806  0.3886
  579MOL0     C78083   7.650   0.366   3.188 -0.0028  0.2801  0.6564
  579MOL0     C78084   7.533   0.371   3.104 -0.4510 -0.0996  0.0613
  579MOL0     C78085   7.139   0.375   2.900 -1.2511 -0.6067  0.0319
  579MOL0     C78086   7.108   0.339   2.768 -0.1928  0.2742 -0.7095
  579MOL0     C78087   6.980   0.366   2.719 -0.1637  0.3327  0.2719
  579MOL0     C78088   6.879   0.434   2.800 -0.4290  1.2386 -0.1056
  579MOL0     O78089   6.757   0.459   2.735  0.6564  0.0999  0.1619
  579MOL0     C78090   6.657   0.528   2.803 -0.0580 -0.4611 -1.3627
  579MOL0     C78091   6.525   0.524   2.717 -0.9988 -0.1323 -0.0576
  579MOL0     C78092   6.402   0.575   2.782  1.0426  0.3089  0.0618
  579MOL0     C78093   6.414   0.720   2.826 -0.0699 -0.4338 -0.9290
  579MOL0     C78094   6.459   0.820   2.736 -0.1251  0.8591  0.8450
  579MOL0     C78095   6.502   0.915   2.665 -0.3549  0.5659  0.9849
  579MOL0     C78096   6.921   0.480   2.923 -0.8205 -0.3716  0.5673
  579MOL0     C78097   7.049   0.452   2.975  0.4247  0.0690  0.6125
  579MOL0     H78098   7.289   0.385   3.325 -0.9798  1.2458 -4.5718
  579MOL0     H78099   7.484   0.367   3.487 -4.9484  0.7043 -0.7557
  579MOL0     H78100   7.686   0.196   3.545 -0.2301  1.1732  0.1547
  579MOL0     H78101   7.732   0.148   3.375 -0.0075 -0.0289  0.3366
  579MOL0     H78102   7.949   0.142   3.416  2.1460  5.0068 -2.0064
  579MOL0     H78103   7.963   0.282   3.513  0.9718 -0.1501  0.7177
  579MOL0     H78104   8.000   0.143   3.676 -0.4705 -0.1066  1.4045
  579MOL0     H78105   7.830   0.163   3.697  0.6545  1.9842 -0.5573
  579MOL0     H78106   7.804  -0.048   3.588 -1.0126  2.2745 -0.9611
  579MOL0     H78107   7.975  -0.039   3.530  2.2429  3.7232  0.5177
  579MOL0     H78108   8.068  -0.097   3.720  0.3903  2.5373 -0.4119
  579MOL0     H78109   7.913  -0.083   3.831 -0.1776 -1.3522  0.0813
  579MOL0     H78110   7.997  -0.295   3.812 -2.3119 -0.6841  1.1536
  579MOL0     H78111   7.834  -0.278   3.758  1.1622 -2.3738  0.7255
  579MOL0     H78112   7.907  -0.277   3.500  1.4893  0.6448 -0.3489
  579MOL0     H78113   8.069  -0.309   3.571 -0.0765 -0.3919 -0.8035
  579MOL0     H78114   7.863  -0.501   3.674 -0.4367  0.1058 -0.5117
  579MOL0     H78115   8.031  -0.523   3.644 -0.3288 -0.8631 -1.5682
  579MOL0     H78116   7.789  -0.417   3.349 -0.6705 -0.5303 -0.3152
  579MOL0     H78117   7.845  -0.594   3.082 -0.4571 -1.4561 -0.3267
  579MOL0     H78118   7.790  -0.753   3.137  0.6731 -1.2268 -0.0102
  579MOL0     H78119   7.624  -0.592   3.054 -2.4674 -1.4768  0.8790
  579MOL0     H78120   7.663  -0.479   3.187  3.0392 -1.7018  2.5941
  579MOL0     H78121   7.446  -0.610   3.195  1.0620  0.8117 -0.9428
  579MOL0     H78122   7.556  -0.631   3.333 -1.0783  1.4353 -0.6768
  579MOL0     H78123   7.630  -0.854   3.242 -0.2852  1.6698  2.8093
  579MOL0     H78124   7.520  -0.831   3.099 -0.2487 -0.0490 -0.2767
  579MOL0     H78125   7.404  -1.055   3.094  2.4768 -3.3593 -2.0657
  579MOL0     H78126   7.333  -1.384   3.150 -0.8128  1.5480  0.5727
  579MOL0     H78127   7.375  -1.243   3.048 -0.0927  1.3904  1.3412
  579MOL0     H78128   7.505  -1.359   3.103  1.5233  1.6421 -0.2160
  579MOL0     H78129   7.258  -1.633   3.445 -0.0219  0.8229 -1.5589
  579MOL0     H78130   7.274  -1.846   3.543 -1.5624  0.2037 -0.9806
  579MOL0     H78131   7.632  -2.117   3.479 -3.6452 -3.4447 -2.1836
  579MOL0     H78132   7.621  -2.020   3.629 -0.1247 -1.3938  0.5046
  579MOL0     H78133   7.611  -2.252   3.698 -1.2679 -1.0181  1.4246
  579MOL0     H78134   7.456  -2.169   3.722  1.4496 -0.8380  1.8102
  579MOL0     H78135   7.476  -2.341   3.469  0.9847 -1.3024  0.8657
  579MOL0     H78136   7.345  -2.294   3.576  0.0647 -0.1964 -5.3678
  579MOL0     H78137   7.552  -2.497   3.656 -0.7545 -0.6334  2.2086
  579MOL0     H78138   7.433  -2.423   3.768  0.3505 -1.2765  1.1745
  579MOL0     H78139   7.368  -2.573   3.514 -1.8091  2.1569  0.6036
  579MOL0     H78140   7.257  -2.525   3.637 -0.5204 -1.5747 -0.6063
  579MOL0     H78141   7.479  -2.739   3.647  0.6477  2.2996 -0.0014
  579MOL0     H78142   7.427  -2.643   3.791 -0.7326  2.6519 -0.5717
  579MOL0     H78143   7.237  -2.803   3.604 -0.8106  1.5476 -0.1499
  579MOL0     H78144   7.204  -2.752   3.771 -0.8453 -0.2662  0.2411
  579MOL0     H78145   7.379  -2.920   3.851  0.9109 -0.7366  0.9840
  579MOL0     H78146   7.425  -2.967   3.684 -0.9379 -4.0475  0.9612
  579MOL0     H78147   7.666  -1.907   3.394  0.6941  1.3744  4.2029
  579MOL0     H78148   7.654  -1.678   3.287 -1.2305  2.5626 -0.6536
  579MOL0     H78149   7.479  -1.176   3.570  3.4063 -1.7813 -0.1739
  579MOL0     H78150   7.432  -0.942   3.510  0.2327  2.1773 -1.8354
  579MOL0     H78151   7.748   0.363   3.142  0.3119 -3.3181  1.2910
  579MOL0     H78152   7.551   0.371   2.997  3.2403 -2.0534  0.4886
  579MOL0     H78153   7.176   0.291   2.698 -0.3597 -1.3341  0.1734
  579MOL0     H78154   6.978   0.328   2.617 -1.2723 -1.0586  0.7786
  579MOL0     H78155   6.652   0.499   2.909 -3.0633  5.0212  0.4054
  579MOL0     H78156   6.695   0.630   2.809  0.1993 -0.6446  1.0437
  579MOL0     H78157   6.506   0.420   2.689  1.3905 -1.7280  3.4870
  579MOL0     H78158   6.532   0.583   2.624 -1.9768  0.0969 -0.0023
  579MOL0     H78159   6.383   0.503   2.863  0.0545 -1.5529 -1.7176
  579MOL0     H78160   6.327   0.570   2.703  0.4252  0.3512  0.6336
  579MOL0     H78161   6.471   0.742   2.917 -1.6110  3.1208 -0.6412
  579MOL0     H78162   6.316   0.752   2.862 -0.0056 -0.8860 -0.3238
  579MOL0     H78163   6.545   0.991   2.603 -1.5472  0.7591  0.3509
  579MOL0     H78164   6.847   0.529   2.985 -3.2600 -0.4601 -2.0435
  579MOL0     H78165   7.061   0.481   3.079  2.0834 -1.0399  0.7649
  580MOL0     O78166   6.359   5.567   4.953  0.5479  0.3366  0.2177
  580MOL0     C78167   6.447   5.637   4.999 -0.1226 -0.4941 -0.6236
  580MOL0     O78168   6.465   5.768   4.964 -0.7891  0.3363 -0.3995
  580MOL0     C78169   6.384   5.818   4.859 -0.4302 -0.5065 -0.7455
  580MOL0     C78170   6.341   5.753   4.748  1.5138  0.0886 -0.9324
  580MOL0     C78171   6.262   5.818   4.655 -0.0380 -0.3418  0.5859
  580MOL0     C78172   6.205   5.946   4.677 -0.1514 -0.8669  0.1591
  580MOL0     O78173   6.118   6.010   4.594  0.1988  0.3705  0.0740
  580MOL0     C78174   6.171   6.060   4.472  0.1926 -0.4729 -0.1430
  580MOL0     C78175   6.060   6.113   4.380 -0.0674  1.3586 -0.0119
  580MOL0     C78176   6.099   6.188   4.248  0.4329  0.3264  0.2208
  580MOL0     C78177   5.992   6.244   4.172 -0.6351  0.3044  0.6392
  580MOL0     C78178   6.034   6.352   4.065  0.4181 -0.5206  0.8611
  580MOL0     C78179   6.133   6.313   3.966 -1.1064 -0.0056  0.6553
  580MOL0     C78180   6.172   6.430   3.868 -0.2766 -0.7124 -0.4097
  580MOL0     C78181   6.059   6.452   3.765 -0.9410 -0.8927 -0.0344
  580MOL0     N78182   6.073   6.359   3.652  0.4064  0.1380 -0.1109
  580MOL0     C78183   5.999   6.244   3.651 -0.8609 -0.1303 -0.3079
  580MOL0     C78184   6.051   6.186   3.545  0.1868 -0.9542  0.1100
  580MOL0     C78185   6.019   6.052   3.494 -0.2582  0.3748 -0.0079
  580MOL0     C78186   6.002   6.048   3.345 -0.8488 -0.1095  0.9940
  580MOL0     C78187   5.916   5.926   3.293  0.5276 -1.1903 -0.1568
  580MOL0     C78188   5.916   5.918   3.138 -0.0725 -0.0709 -0.3743
  580MOL0     O78189   5.856   5.791   3.112 -0.4630 -0.5182 -0.7199
  580MOL0     C78190   5.806   5.766   2.982 -0.8555  0.1990 -0.1044
  580MOL0     C78191   5.703   5.670   2.968 -0.5602  0.0822 -0.2200
  580MOL0     C78192   5.637   5.661   2.847 -0.0297 -0.5480  0.0730
  580MOL0     C78193   5.532   5.554   2.847 -0.7420 -1.0964  0.0618
  580MOL0     C78194   5.667   5.746   2.736  0.4356  0.5529 -0.6993
  580MOL0     C78195   5.599   5.746   2.608  0.4666 -0.3217 -0.0444
  580MOL0     O78196   5.633   5.847   2.513  0.5040  0.6064  0.1944
  580MOL0     C78197   5.552   5.863   2.404 -0.1548  0.5518  0.2874
  580MOL0     C78198   5.593   5.816   2.278  0.4865  0.5046  0.4387
  580MOL0     C78199   5.496   5.820   2.175 -0.0539 -0.1113 -0.2513
  580MOL0     C78200   5.366   5.883   2.192 -0.6210  0.4502  0.1498
  580MOL0     O78201   5.263   5.894   2.103 -0.2432 -0.0640  0.4160
  580MOL0     C78202   5.273   5.812   1.985  0.6230 -0.4109 -0.4568
  580MOL0     C78203   5.355   5.880   1.876 -0.1311  0.1663  0.2908
  580MOL0     C78204   5.323   6.031   1.855  0.2491 -0.1208  0.2779
  580MOL0     C78205   5.407   6.099   1.734 -0.4311  0.3628  0.1482
  580MOL0     C78206   5.357   6.076   1.591  0.7733  1.1502 -0.0582
  580MOL0     C78207   5.207   6.095   1.560  0.8180 -0.0002 -0.6741
  580MOL0     C78208   5.171   6.088   1.410  0.4948 -0.7132  0.4160
  580MOL0     C78209   5.080   6.215   1.381 -0.4441 -0.1901  0.4265
  580MOL0    Cl78210   5.036   6.215   1.197 -0.2335 -0.1563  0.1743
  580MOL0     C78211   5.344   5.932   2.317 -0.5652  0.3672 -0.1891
  580MOL0     C78212   5.428   5.915   2.421  0.6521 -0.7905 -0.7382
  580MOL0     O78213   5.508   5.664   2.586 -0.9864 -0.4532 -0.1014
  580MOL0     C78214   5.763   5.850   2.754 -0.3603  0.2001  0.4917
  580MOL0     C78215   5.831   5.858   2.872 -0.7099  0.6359  0.1174
  580MOL0     N78216   6.140   6.273   3.477 -0.2362  0.2371 -0.1185
  580MOL0     N78217   6.150   6.380   3.543 -0.1423  0.3555 -0.2780
  580MOL0     C78218   6.256   6.008   4.799 -0.5248 -0.8479  1.5598
  580MOL0     C78219   6.342   5.948   4.881 -0.2616  0.4716  0.0637
  580MOL0     C78220   6.507   5.600   5.131 -0.1774 -1.0053  0.0843
  580MOL0     C78221   6.584   5.700   5.198 -0.0966  0.3251  0.0473
  580MOL0     C78222   6.655   5.665   5.314  0.0156  0.7799 -0.4851
  580MOL0     C78223   6.650   5.531   5.367  0.5674 -0.1450  0.8545
  580MOL0     O78224   6.730   5.510   5.470  0.0815  0.3121 -0.9624
  580MOL0     C78225   6.791   5.374   5.472 -0.3038 -0.8262  0.0448
  580MOL0     C78226   6.918   5.381   5.566  0.0795  0.7308  0.0028
  580MOL0     C78227   7.005   5.255   5.549  0.2761 -0.0422 -0.6633
  580MOL0     C78228   7.062   5.217   5.692 -0.1391 -0.8267  0.0627
  580MOL0     C78229   7.150   5.105   5.690  0.7909  0.5993  0.0365
  580MOL0     C78230   7.214   5.008   5.686 -0.5085  0.7412 -0.6079
  580MOL0     C78231   6.570   5.439   5.309  0.4472  0.6407  0.5473
  580MOL0     C78232   6.500   5.467   5.188 -0.7314  0.5637  0.4338
  580MOL0     H78233   6.366   5.648   4.736 -2.8453 -1.0744 -1.5391
  580MOL0     H78234   6.229   5.755   4.574 -1.1679 -0.8381  1.3969
  580MOL0     H78235   6.238   6.147   4.482 -1.6812  1.0559 -0.3200
  580MOL0     H78236   6.221   5.979   4.419 -0.7317 -0.4243 -1.1316
  580MOL0     H78237   5.993   6.031   4.355  1.9543 -0.4491  0.2612
  580MOL0     H78238   6.014   6.197   4.433 -1.7859 -0.3622  1.3342
  580MOL0     H78239   6.158   6.277   4.272  0.5449  0.6715 -1.2436
  580MOL0     H78240   6.149   6.116   4.182 -1.4617 -0.3463 -0.5218
  580MOL0     H78241   5.948   6.162   4.115  2.0240 -0.4221 -0.5379
  580MOL0     H78242   5.920   6.293   4.239 -1.3148 -1.4998  1.2729
  580MOL0     H78243   5.940   6.383   4.018 -0.0344 -2.3834  0.4620
  580MOL0     H78244   6.069   6.434   4.129 -1.2988  0.9450  0.0159
  580MOL0     H78245   6.218   6.286   4.029 -0.9569 -1.5285 -0.1521
  580MOL0     H78246   6.103   6.228   3.904 -1.0376  0.4290  0.0052
  580MOL0     H78247   6.202   6.523   3.919 -0.4267 -0.1964 -1.2434
  580MOL0     H78248   6.256   6.414   3.800 -1.5889  0.0154 -2.2861
  580MOL0     H78249   6.071   6.553   3.724  2.4868 -0.6841  1.1392
  580MOL0     H78250   5.968   6.427   3.821  0.8482 -1.8588  2.6354
  580MOL0     H78251   5.938   6.197   3.728 -1.1067  1.1386  0.3023
  580MOL0     H78252   6.105   5.986   3.512  0.3566  0.0726 -3.4785
  580MOL0     H78253   5.924   6.006   3.523  1.2958 -2.4738  0.9685
  580MOL0     H78254   6.096   6.057   3.289 -0.1301 -3.1046  1.5231
  580MOL0     H78255   5.939   6.136   3.330 -0.4571  0.1151  0.6493
  580MOL0     H78256   5.817   5.946   3.333  0.6829 -2.3515  0.8661
  580MOL0     H78257   5.957   5.830   3.327  0.0904 -1.1548  0.4785
  580MOL0     H78258   6.018   5.914   3.099  0.2221  0.6628  0.2835
  580MOL0     H78259   5.857   6.003   3.102  0.4359  0.9378  1.0792
  580MOL0     H78260   5.679   5.616   3.059  2.2880 -0.1081  0.5150
  580MOL0     H78261   5.430   5.591   2.863  0.6304  3.2924 -0.0963
  580MOL0     H78262   5.553   5.494   2.758  0.2227 -0.1880 -0.3421
  580MOL0     H78263   5.544   5.482   2.928 -4.0315 -0.2485  1.4731
  580MOL0     H78264   5.691   5.771   2.266 -0.3029 -1.1282 -0.1962
  580MOL0     H78265   5.515   5.771   2.080  3.1103  1.7185 -0.7243
  580MOL0     H78266   5.319   5.713   1.996  1.9752 -0.2658 -3.7548
  580MOL0     H78267   5.168   5.800   1.956  0.2956  0.3688  0.3765
  580MOL0     H78268   5.461   5.861   1.892 -0.2662 -1.6303 -0.6825
  580MOL0     H78269   5.327   5.840   1.778 -0.4223 -0.0790  0.4732
  580MOL0     H78270   5.353   6.090   1.942 -3.6908  1.6905  0.6188
  580MOL0     H78271   5.216   6.048   1.840  0.9255  3.0345 -1.9678
  580MOL0     H78272   5.399   6.205   1.758  1.2854  0.5860 -0.1454
  580MOL0     H78273   5.516   6.090   1.738 -0.2887  2.0053  3.6113
  580MOL0     H78274   5.378   5.973   1.559  0.1933  0.9970  0.0505
  580MOL0     H78275   5.429   6.139   1.538 -0.1152  0.3695 -2.3213
  580MOL0     H78276   5.163   6.014   1.619  2.2455 -1.6912 -1.8284
  580MOL0     H78277   5.182   6.192   1.603 -2.1431 -0.8365 -0.3060
  580MOL0     H78278   5.101   6.005   1.402  1.3693 -1.5615  1.4274
  580MOL0     H78279   5.252   6.085   1.336  2.5498 -2.8430  2.5985
  580MOL0     H78280   5.133   6.311   1.385 -3.4817  2.1948 -5.1773
  580MOL0     H78281   4.990   6.209   1.442 -0.8693  0.3831 -0.1311
  580MOL0     H78282   5.253   5.985   2.342  0.9977  3.5285 -0.6746
  580MOL0     H78283   5.387   5.954   2.514 -0.7363 -0.5037 -1.4373
  580MOL0     H78284   5.775   5.928   2.680 -2.2657  0.9405  0.9045
  580MOL0     H78285   5.906   5.936   2.877 -0.9966  0.9160  0.0608
  580MOL0     H78286   6.235   6.111   4.829  1.5010 -0.3523  1.4167
  580MOL0     H78287   6.377   6.005   4.966  1.0180  1.5080 -1.0906
  580MOL0     H78288   6.589   5.799   5.154  3.6539 -0.2065 -1.0628
  580MOL0     H78289   6.723   5.740   5.352  0.7275 -1.2687  2.6643
  580MOL0     H78290   6.717   5.301   5.508 -0.7675 -0.5319 -0.2982
  580MOL0     H78291   6.815   5.332   5.374  0.8248  0.0103 -0.0545
  580MOL0     H78292   6.870   5.386   5.664  3.1315  2.7764  1.5378
  580MOL0     H78293   6.977   5.472   5.554 -0.6440  1.2499  0.3346
  580MOL0     H78294   7.096   5.270   5.491  1.8192  0.7121  1.7913
  580MOL0     H78295   6.955   5.168   5.506  1.5243 -1.1860  0.1263
  580MOL0     H78296   6.985   5.203   5.768  0.9681 -2.4274  0.9348
  580MOL0     H78297   7.120   5.300   5.735 -1.8864 -0.9627  2.9170
  580MOL0     H78298   7.282   4.925   5.695 -2.1241 -0.4644  1.5040
  580MOL0     H78299   6.558   5.345   5.362 -0.8894  1.2014  1.3061
  580MOL0     H78300   6.432   5.395   5.143 -1.1427  1.0587  0.2564
  581MOL0     O78301   9.315   7.450   1.059  0.5177  0.2821  1.0974
  581MOL0     C78302   9.338   7.342   1.001  0.0948 -0.7748 -1.7907
  581MOL0     O78303   9.463   7.296   0.966  0.3684 -1.0344  0.3051
  581MOL0     C78304   9.565   7.388   0.943 -1.0999  1.0961 -1.0782
  581MOL0     C78305   9.556   7.528   0.912  1.0202 -0.4767 -0.0326
  581MOL0     C78306   9.677   7.591   0.881  0.0770  0.3758  0.3141
  581MOL0     C78307   9.799   7.529   0.891 -0.5090  0.7124  0.7602
  581MOL0     O78308   9.918   7.589   0.853 -0.1458  0.6268 -0.3415
  581MOL0     C78309   9.961   7.684   0.950 -0.2963  0.1961 -0.3421
  581MOL0     C78310   9.990   7.817   0.883 -0.2616  1.0446  0.5696
  581MOL0     C78311  10.101   7.835   0.784  1.1105 -0.4918  0.4690
  581MOL0     C78312  10.238   7.829   0.862 -0.5469  0.5921  0.4437
  581MOL0     C78313  10.355   7.833   0.766  0.1713  0.9400 -0.4828
  581MOL0     C78314  10.386   7.695   0.687 -0.9622  0.0743  0.3012
  581MOL0     C78315  10.505   7.717   0.585  0.4091  0.1665 -1.0235
  581MOL0     C78316  10.562   7.595   0.511  0.9606 -0.0044  0.1681
  581MOL0     N78317  10.444   7.513   0.450 -0.1421  0.3850 -0.0783
  581MOL0     C78318  10.359   7.550   0.350 -0.1240  0.6305  0.0025
  581MOL0     C78319  10.291   7.438   0.335  0.5951  0.3284  0.7024
  581MOL0     C78320  10.202   7.411   0.222 -0.4487  0.1601  0.5549
  581MOL0     C78321  10.083   7.497   0.216  0.3921  0.2910  0.6456
  581MOL0     C78322  10.060   7.590   0.094  0.1030 -0.6084 -0.3908
  581MOL0     C78323  10.051   7.540  -0.055 -0.0848 -0.1399 -0.5810
  581MOL0     O78324  10.185   7.515  -0.101  1.0813  0.3290 -0.1217
  581MOL0     C78325  10.190   7.442  -0.220  0.6529 -0.8420 -0.2100
  581MOL0     C78326  10.088   7.412  -0.309 -0.1482 -0.4046 -0.7862
  581MOL0     C78327  10.116   7.363  -0.448 -0.3147  0.1389 -0.1681
  581MOL0     C78328   9.993   7.335  -0.532 -0.4196  0.6254 -0.6438
  581MOL0     C78329  10.252   7.365  -0.491 -0.1088 -0.1443  0.2904
  581MOL0     C78330  10.291   7.334  -0.626 -0.2728 -0.5191 -0.1118
  581MOL0     O78331  10.226   7.235  -0.684  0.4573  0.1565  0.5988
  581MOL0     C78332  10.262   7.192  -0.813  0.5994 -0.2007 -0.9226
  581MOL0     C78333  10.164   7.188  -0.907 -0.4761  0.8746 -0.3776
  581MOL0     C78334  10.185   7.142  -1.033  0.4890 -0.1745 -0.3831
  581MOL0     C78335  10.312   7.106  -1.072  0.9260 -0.3920  0.1100
  581MOL0     O78336  10.325   7.062  -1.204 -0.0301  0.2943 -0.1657
  581MOL0     C78337  10.461   7.038  -1.244 -0.2277  0.1940 -0.0512
  581MOL0     C78338  10.463   6.975  -1.384  0.0770 -1.0846  0.1891
  581MOL0     C78339  10.506   7.080  -1.487 -0.5939 -0.3372  0.7357
  581MOL0     C78340  10.389   7.183  -1.493 -0.6651 -0.3549 -0.4028
  581MOL0     C78341  10.376   7.259  -1.631 -0.0787  0.4878 -0.1909
  581MOL0     C78342  10.479   7.357  -1.656 -0.7473  0.0576 -0.0618
  581MOL0     C78343  10.442   7.446  -1.775  0.5283  0.7151 -0.2606
  581MOL0     C78344  10.542   7.557  -1.815  0.7420 -0.1078  0.1105
  581MOL0    Cl78345  10.690   7.496  -1.892 -0.0214  0.0051 -0.0254
  581MOL0     C78346  10.416   7.129  -0.989 -0.5241  0.8538  0.0239
  581MOL0     C78347  10.391   7.168  -0.857 -0.2591  0.1601 -0.1107
  581MOL0     O78348  10.387   7.394  -0.674  0.0139 -0.4504  0.4875
  581MOL0     C78349  10.352   7.384  -0.399 -1.0662 -1.0578  0.7220
  581MOL0     C78350  10.318   7.428  -0.267  0.7309 -0.0559 -0.3581
  581MOL0     N78351  10.318   7.344   0.436 -0.7026 -0.8446 -0.2400
  581MOL0     N78352  10.409   7.394   0.504 -0.6339  0.2255 -0.7496
  581MOL0     C78353   9.810   7.391   0.924  0.4864 -0.3781 -0.3386
  581MOL0     C78354   9.694   7.324   0.956  0.2777 -0.0958  1.5538
  581MOL0     C78355   9.210   7.251   1.000  0.0337 -0.9366 -0.5146
  581MOL0     C78356   9.081   7.306   1.041 -0.1231 -0.2955 -0.7503
  581MOL0     C78357   8.957   7.251   1.006 -0.1446 -0.4973  0.0845
  581MOL0     C78358   8.965   7.135   0.927 -0.1323 -0.0070  0.8437
  581MOL0     O78359   8.841   7.076   0.909 -0.0148 -0.4828  0.0670
  581MOL0     C78360   8.840   6.973   0.807  0.2717  1.5243  0.4761
  581MOL0     C78361   8.703   6.913   0.792  0.5458  0.5355  0.6227
  581MOL0     C78362   8.700   6.812   0.662  0.4402 -0.1021 -1.0628
  581MOL0     C78363   8.572   6.725   0.658  0.0853 -0.0145  0.2631
  581MOL0     C78364   8.466   6.812   0.596  0.5577  0.9292  0.8746
  581MOL0     C78365   8.379   6.881   0.553 -0.3524  0.4746 -0.0000
  581MOL0     C78366   9.090   7.073   0.897 -0.5054 -0.3753  0.1371
  581MOL0     C78367   9.213   7.136   0.928  0.6559 -0.3479  0.2615
  581MOL0     H78368   9.459   7.576   0.909  1.0188 -0.3704  1.2920
  581MOL0     H78369   9.665   7.699   0.873 -2.6598  0.2644  1.7994
  581MOL0     H78370   9.889   7.708   1.029 -1.4749  0.7686 -1.5547
  581MOL0     H78371  10.052   7.649   1.000 -0.9595 -1.3227 -0.1452
  581MOL0     H78372   9.900   7.843   0.826 -0.6716 -3.5074 -1.2640
  581MOL0     H78373   9.997   7.886   0.967 -0.1132  0.0637  1.3731
  581MOL0     H78374  10.096   7.763   0.701  0.4079  0.9842 -0.8122
  581MOL0     H78375  10.081   7.931   0.736 -2.2667 -0.9545  0.7095
  581MOL0     H78376  10.253   7.923   0.916 -1.8643  1.0007  0.1253
  581MOL0     H78377  10.239   7.740   0.926 -1.5773  2.3925  3.1243
  581MOL0     H78378  10.327   7.910   0.693  2.4594  1.5988 -0.7496
  581MOL0     H78379  10.441   7.862   0.826  3.7184 -3.6124 -2.7154
  581MOL0     H78380  10.397   7.613   0.758 -1.6144 -0.0661  0.2502
  581MOL0     H78381  10.299   7.668   0.627 -0.7640  0.7866 -0.3263
  581MOL0     H78382  10.472   7.793   0.514  0.0891  0.6901 -0.3259
  581MOL0     H78383  10.580   7.772   0.643 -1.3064  1.0664  0.4795
  581MOL0     H78384  10.613   7.537   0.589  0.1401  0.8568  1.3987
  581MOL0     H78385  10.619   7.623   0.423  0.7063 -1.9965 -0.6798
  581MOL0     H78386  10.370   7.633   0.281  1.5526 -1.0569 -1.8881
  581MOL0     H78387  10.259   7.429   0.130 -4.6315  0.8361 -2.1530
  581MOL0     H78388  10.171   7.306   0.221 -0.5978  0.2030 -0.2218
  581MOL0     H78389  10.080   7.560   0.306 -0.1718  2.2166 -0.6442
  581MOL0     H78390   9.993   7.436   0.212  1.0013 -0.5758 -2.9132
  581MOL0     H78391  10.140   7.664   0.092 -1.3112  1.0415  0.8991
  581MOL0     H78392   9.971   7.648   0.119  2.2909  2.4146  0.9462
  581MOL0     H78393  10.008   7.621  -0.115  1.9004 -0.3929 -2.4481
  581MOL0     H78394   9.978   7.459  -0.053 -1.1283  0.6525 -3.0708
  581MOL0     H78395   9.987   7.440  -0.282  0.7564  1.6692  0.7059
  581MOL0     H78396   9.996   7.240  -0.586 -1.3729 -1.2211  2.2723
  581MOL0     H78397   9.899   7.330  -0.475 -1.5265 -2.5715 -2.4784
  581MOL0     H78398   9.990   7.411  -0.609 -1.1186  1.0052 -0.2550
  581MOL0     H78399  10.060   7.198  -0.880 -0.8451 -2.0067 -0.4271
  581MOL0     H78400  10.102   7.118  -1.098  0.3077 -1.4383  0.2833
  581MOL0     H78401  10.519   7.130  -1.230 -2.0725  1.2072  1.7317
  581MOL0     H78402  10.506   6.965  -1.176 -0.6330 -0.1562 -0.1562
  581MOL0     H78403  10.520   6.881  -1.386 -2.2087 -2.5664  1.2104
  581MOL0     H78404  10.373   6.922  -1.413  0.7080 -1.7427 -0.6257
  581MOL0     H78405  10.512   7.036  -1.587 -0.7762  0.2632  0.4541
  581MOL0     H78406  10.606   7.123  -1.475  1.1908 -3.2258 -2.1541
  581MOL0     H78407  10.296   7.125  -1.490  0.8028 -2.8943  3.4709
  581MOL0     H78408  10.391   7.254  -1.410  2.2856  0.6153 -1.1751
  581MOL0     H78409  10.276   7.303  -1.618 -0.6068 -1.3928  3.3659
  581MOL0     H78410  10.377   7.186  -1.713 -0.2369  0.6197 -0.3115
  581MOL0     H78411  10.500   7.413  -1.564  3.1289 -1.7067  0.3271
  581MOL0     H78412  10.573   7.300  -1.662 -2.7316 -3.3149 -2.4878
  581MOL0     H78413  10.338   7.480  -1.763  0.5819  1.2557 -1.2054
  581MOL0     H78414  10.448   7.386  -1.866 -0.5186  0.3524 -0.1098
  581MOL0     H78415  10.566   7.603  -1.719  1.4860 -0.7689  0.2562
  581MOL0     H78416  10.499   7.635  -1.879  1.4507 -0.9928 -1.5102
  581MOL0     H78417  10.519   7.102  -1.013  0.3001  2.0355  1.9989
  581MOL0     H78418  10.480   7.169  -0.795  0.5227 -1.9698 -1.0919
  581MOL0     H78419  10.457   7.388  -0.428 -0.9931  5.2501  0.6254
  581MOL0     H78420  10.389   7.457  -0.189 -0.5509 -0.3753  0.9755
  581MOL0     H78421   9.899   7.329   0.922  0.1136 -0.8984 -1.1334
  581MOL0     H78422   9.693   7.220   0.985 -1.5018 -0.5467  0.0889
  581MOL0     H78423   9.076   7.401   1.093  0.1895 -0.4909 -0.3616
  581MOL0     H78424   8.860   7.296   1.025  0.4182  0.9062 -0.2145
  581MOL0     H78425   8.875   7.012   0.711 -0.1348 -2.3339 -1.4526
  581MOL0     H78426   8.902   6.888   0.835 -3.0887 -2.8410 -3.7105
  581MOL0     H78427   8.626   6.984   0.759 -1.1192 -0.2547  2.5512
  581MOL0     H78428   8.667   6.868   0.885  3.5613 -0.2004  1.5544
  581MOL0     H78429   8.790   6.749   0.672 -0.2721 -0.8294  1.8107
  581MOL0     H78430   8.709   6.879   0.576  3.0549 -0.2041 -0.9489
  581MOL0     H78431   8.545   6.682   0.755  2.6098 -3.2529 -0.3112
  581MOL0     H78432   8.580   6.634   0.599  1.4971  0.7842 -0.8395
  581MOL0     H78433   8.305   6.949   0.514 -1.2582 -0.7874 -0.5361
  581MOL0     H78434   9.108   6.971   0.864  2.1532  0.1818 -0.3250
  581MOL0     H78435   9.312   7.094   0.911  0.2701 -1.8600  1.4357
  582MOL0     O78436   9.019   3.141   7.565 -0.3060 -0.0402 -0.3625
  582MOL0     C78437   8.903   3.131   7.528 -0.3140 -0.5537  0.0707
  582MOL0     O78438   8.805   3.046   7.570 -0.2050  0.8997 -0.1743
  582MOL0     C78439   8.816   2.934   7.660  0.3987 -0.0727 -0.2198
  582MOL0     C78440   8.692   2.863   7.684 -1.3968 -0.4270 -0.2510
  582MOL0     C78441   8.688   2.750   7.772  0.4872 -0.6125  0.4448
  582MOL0     C78442   8.795   2.721   7.852 -0.3047  0.4882 -0.3392
  582MOL0     O78443   8.780   2.638   7.954  0.5541  0.0015 -0.1664
  582MOL0     C78444   8.751   2.495   7.934  0.2263  0.2693  0.3760
  582MOL0     C78445   8.781   2.401   8.043 -0.5445  0.5891  0.7555
  582MOL0     C78446   8.795   2.429   8.190  0.5027  0.4602 -0.8553
  582MOL0     C78447   8.686   2.509   8.258  0.3607 -0.3385  1.0553
  582MOL0     C78448   8.561   2.427   8.262 -0.1301 -0.5277  0.0470
  582MOL0     C78449   8.429   2.504   8.306  0.4711 -0.2492  0.3740
  582MOL0     C78450   8.435   2.558   8.447  0.2357 -0.0112  0.6280
  582MOL0     C78451   8.498   2.697   8.444  1.0891  0.3713 -1.2613
  582MOL0     N78452   8.395   2.795   8.437 -0.4200  0.4068 -0.2012
  582MOL0     C78453   8.358   2.848   8.318  0.1579 -0.2553 -0.1343
  582MOL0     C78454   8.311   2.966   8.359  0.3547 -1.1027  0.7723
  582MOL0     C78455   8.259   3.066   8.264 -0.2609 -0.3952  0.1028
  582MOL0     C78456   8.153   3.034   8.159  0.0953  0.4412  0.0420
  582MOL0     C78457   8.115   3.150   8.074 -0.2389 -0.9196  0.0403
  582MOL0     C78458   8.001   3.126   7.982 -0.0978 -0.2988  0.3454
  582MOL0     O78459   7.958   3.239   7.902 -0.1384  0.2620 -0.0829
  582MOL0     C78460   7.847   3.209   7.829 -0.1923 -0.0947 -0.1341
  582MOL0     C78461   7.778   3.080   7.809 -0.7807  0.1289  0.8734
  582MOL0     C78462   7.671   3.069   7.712  0.1403  0.3840 -0.3828
  582MOL0     C78463   7.613   2.933   7.674 -0.1957  0.0801 -1.1163
  582MOL0     C78464   7.612   3.190   7.660 -0.2080  0.5627 -0.0022
  582MOL0     C78465   7.496   3.198   7.580  0.5697  0.6527 -0.3076
  582MOL0     O78466   7.492   3.251   7.461 -0.4865 -0.3766 -0.0389
  582MOL0     C78467   7.379   3.232   7.389  0.3082 -0.2750  0.0495
  582MOL0     C78468   7.308   3.345   7.347 -0.7651  0.1339  1.5976
  582MOL0     C78469   7.194   3.335   7.265 -0.3770 -0.0304 -0.2637
  582MOL0     C78470   7.152   3.202   7.243  0.2576 -0.3968  0.3810
  582MOL0     O78471   7.047   3.169   7.175  1.3069 -0.1405 -0.9935
  582MOL0     C78472   6.947   3.266   7.162  0.2421  1.2317  0.9620
  582MOL0     C78473   6.819   3.187   7.149 -0.2002  0.0137  0.5487
  582MOL0     C78474   6.784   3.107   7.276 -1.0487 -0.0389 -0.1269
  582MOL0     C78475   6.635   3.066   7.276  0.8299  0.2093 -0.2570
  582MOL0     C78476   6.590   2.986   7.408  0.8660  0.0556 -0.2673
  582MOL0     C78477   6.682   2.868   7.435  0.6129 -0.4691  0.1434
  582MOL0     C78478   6.642   2.794   7.558  0.3009  0.4569 -0.2136
  582MOL0     C78479   6.650   2.644   7.538  0.4121 -0.1068  0.4817
  582MOL0    Cl78480   6.821   2.583   7.498  0.0198 -0.0967 -0.1286
  582MOL0     C78481   7.212   3.089   7.291 -0.6299  0.8301  0.3388
  582MOL0     C78482   7.332   3.103   7.365  1.2405 -0.0326  0.8077
  582MOL0     O78483   7.409   3.148   7.649 -0.5289  0.3788  0.0702
  582MOL0     C78484   7.693   3.306   7.673  0.7008  0.0638  1.0993
  582MOL0     C78485   7.807   3.320   7.753 -0.2489  0.6197 -0.3443
  582MOL0     N78486   8.296   2.973   8.492 -0.2526  0.1864  0.5608
  582MOL0     N78487   8.344   2.866   8.544 -0.1651 -0.1599  0.5048
  582MOL0     C78488   8.906   2.798   7.840  0.0202 -0.3687  0.6804
  582MOL0     C78489   8.925   2.898   7.743 -0.5207 -0.9700 -0.8006
  582MOL0     C78490   8.870   3.230   7.428  0.2288  0.2528  0.2351
  582MOL0     C78491   8.960   3.326   7.373 -0.3986  0.0208 -0.0232
  582MOL0     C78492   8.916   3.410   7.275  0.3074  0.5763 -0.4522
  582MOL0     C78493   8.786   3.411   7.233 -0.3226 -0.9906  0.7470
  582MOL0     O78494   8.741   3.504   7.145  0.4998  0.4661 -1.1652
  582MOL0     C78495   8.790   3.506   7.005 -0.6743 -0.2446  0.6013
  582MOL0     C78496   8.750   3.375   6.927 -0.3911  0.2963 -0.2223
  582MOL0     C78497   8.604   3.344   6.939 -0.3497 -0.3439  0.5545
  582MOL0     C78498   8.558   3.246   6.833 -0.5865 -0.0846  0.5144
  582MOL0     C78499   8.618   3.110   6.849 -0.0819 -0.4390  0.0787
  582MOL0     C78500   8.676   3.002   6.840  0.3840  0.4252  0.7192
  582MOL0     C78501   8.695   3.331   7.295 -0.4964  0.3585 -0.8612
  582MOL0     C78502   8.734   3.242   7.392  0.3338  0.1198 -0.4064
  582MOL0     H78503   8.611   2.914   7.632 -1.5984  0.6291  1.0390
  582MOL0     H78504   8.595   2.699   7.794 -1.0373  1.6589 -0.3819
  582MOL0     H78505   8.645   2.497   7.910 -0.2385 -3.0478  1.6721
  582MOL0     H78506   8.805   2.457   7.847 -1.2653 -2.3703  0.5100
  582MOL0     H78507   8.703   2.326   8.031  0.8477 -0.9751  1.2046
  582MOL0     H78508   8.880   2.365   8.015 -0.6470 -0.4131  1.6138
  582MOL0     H78509   8.820   2.335   8.239 -1.1846  1.4153  2.1369
  582MOL0     H78510   8.892   2.478   8.199  1.1674 -1.1115  1.9244
  582MOL0     H78511   8.708   2.551   8.356  2.0660 -0.6772  0.8470
  582MOL0     H78512   8.673   2.595   8.191  1.7715 -2.5552 -2.3938
  582MOL0     H78513   8.550   2.390   8.160 -0.3498  1.1678 -0.5746
  582MOL0     H78514   8.588   2.342   8.327  2.3091 -0.3482 -0.6200
  582MOL0     H78515   8.417   2.580   8.228  1.8028  1.2370  1.5590
  582MOL0     H78516   8.344   2.435   8.296 -0.0704  0.4717 -0.0716
  582MOL0     H78517   8.334   2.569   8.489  0.0485 -1.5965  0.6406
  582MOL0     H78518   8.486   2.488   8.514 -0.4427  0.1973  1.3883
  582MOL0     H78519   8.571   2.716   8.365  1.5711  0.8914 -0.7071
  582MOL0     H78520   8.560   2.713   8.533  0.4536  4.2332 -1.3387
  582MOL0     H78521   8.375   2.812   8.217  0.7925 -0.9703  0.2197
  582MOL0     H78522   8.217   3.150   8.320  0.6328  1.5207 -1.9368
  582MOL0     H78523   8.342   3.118   8.214 -1.0518  2.6629  1.7138
  582MOL0     H78524   8.056   3.009   8.203 -1.2560  5.4845  0.5584
  582MOL0     H78525   8.180   2.949   8.097 -2.0099  0.6158 -1.1881
  582MOL0     H78526   8.204   3.179   8.018 -1.6568  0.2608 -1.7439
  582MOL0     H78527   8.079   3.224   8.147  0.3344 -1.1242  0.5302
  582MOL0     H78528   7.910   3.112   8.041 -1.8995  1.9553 -1.6510
  582MOL0     H78529   8.016   3.041   7.915 -3.2117 -1.0649  0.4795
  582MOL0     H78530   7.820   2.988   7.846  1.6383  1.0134  0.5192
  582MOL0     H78531   7.519   2.919   7.730  1.0737 -1.0163  0.8647
  582MOL0     H78532   7.599   2.922   7.566 -1.1211  3.5561 -1.4864
  582MOL0     H78533   7.683   2.855   7.706 -2.3633 -1.3809  0.3453
  582MOL0     H78534   7.339   3.441   7.388  0.7507  0.1356  0.5377
  582MOL0     H78535   7.139   3.421   7.227 -0.7153  0.1738  0.6575
  582MOL0     H78536   6.948   3.337   7.246  1.9360 -1.2451  3.1852
  582MOL0     H78537   6.974   3.323   7.073  1.5743 -0.4401  0.2649
  582MOL0     H78538   6.735   3.255   7.132  1.7433  2.5913  0.6215
  582MOL0     H78539   6.835   3.121   7.064  1.4404 -1.2904  1.8022
  582MOL0     H78540   6.811   3.160   7.367  3.5235  1.4520 -2.0631
  582MOL0     H78541   6.847   3.017   7.274 -0.0551  0.5001  2.7599
  582MOL0     H78542   6.576   3.158   7.277  1.0006  0.6492  5.8525
  582MOL0     H78543   6.604   3.004   7.191  2.4915 -1.5377  0.3397
  582MOL0     H78544   6.483   2.965   7.396  0.0967  3.7990 -1.1055
  582MOL0     H78545   6.604   3.041   7.501  0.2304 -0.8975  0.4166
  582MOL0     H78546   6.676   2.804   7.347 -2.0720  2.6295 -2.1601
  582MOL0     H78547   6.788   2.895   7.432 -0.2596  3.5025 -0.3071
  582MOL0     H78548   6.536   2.815   7.577  0.2716 -0.0791  0.2631
  582MOL0     H78549   6.701   2.833   7.642 -1.2057  2.5630 -0.0538
  582MOL0     H78550   6.586   2.601   7.461  1.7015  0.1178 -0.7583
  582MOL0     H78551   6.636   2.591   7.633 -0.6485  0.1770  0.4862
  582MOL0     H78552   7.170   2.993   7.262 -0.2954  1.9882 -4.8550
  582MOL0     H78553   7.384   3.020   7.411  1.8708  0.4631  0.9958
  582MOL0     H78554   7.661   3.400   7.631  0.5838 -0.1744  0.6487
  582MOL0     H78555   7.860   3.413   7.767 -2.7588  1.8545  1.9091
  582MOL0     H78556   8.983   2.768   7.911  2.0832 -3.5398 -2.5793
  582MOL0     H78557   9.024   2.942   7.731 -0.2558 -1.4298 -0.3714
  582MOL0     H78558   9.061   3.340   7.412 -1.3048 -0.1518  2.6173
  582MOL0     H78559   8.992   3.480   7.243  2.3590 -2.4538 -2.7849
  582MOL0     H78560   8.749   3.594   6.955  0.7115 -0.8126 -1.6998
  582MOL0     H78561   8.897   3.524   6.997 -0.7404  0.8728  1.9602
  582MOL0     H78562   8.810   3.287   6.953  0.9214  1.1460 -0.2730
  582MOL0     H78563   8.763   3.381   6.819  0.3928 -0.5295 -0.1870
  582MOL0     H78564   8.538   3.431   6.930  0.7660  0.4437 -0.3907
  582MOL0     H78565   8.584   3.307   7.039 -0.8622  1.0262  0.9891
  582MOL0     H78566   8.564   3.283   6.730  2.0991 -3.8960 -0.9279
  582MOL0     H78567   8.452   3.229   6.854 -0.1573 -2.5939  0.9497
  582MOL0     H78568   8.725   2.907   6.832 -0.9410 -0.2859  0.7855
  582MOL0     H78569   8.588   3.344   7.283 -0.2331  1.8036 -1.9417
  582MOL0     H78570   8.649   3.186   7.430  2.3223 -1.8903  1.3856
  583MOL0     O78571   0.725   2.732   4.311 -0.2253 -0.5601 -0.3776
  583MOL0     C78572   0.659   2.695   4.411 -0.5176  0.0711  0.1780
  583MOL0     O78573   0.598   2.778   4.498 -0.0963  1.0209 -0.3905
  583MOL0     C78574   0.635   2.901   4.510 -0.6364 -0.9761 -0.4921
  583MOL0     C78575   0.734   2.936   4.606 -0.3328 -0.0107  0.6939
  583MOL0     C78576   0.780   3.069   4.623 -0.4840 -0.2729  0.0591
  583MOL0     C78577   0.718   3.166   4.551 -0.6312  0.6241  1.1645
  583MOL0     O78578   0.730   3.302   4.573 -0.1406  0.5719  1.0654
  583MOL0     C78579   0.676   3.337   4.696  0.3236 -0.4421 -0.0674
  583MOL0     C78580   0.609   3.473   4.692  0.7985 -0.9530 -0.3014
  583MOL0     C78581   0.689   3.596   4.654  0.0857 -0.0430 -0.5915
  583MOL0     C78582   0.632   3.712   4.721  0.3877 -0.3604  0.7142
  583MOL0     C78583   0.720   3.826   4.707 -0.4414 -1.2282  0.4024
  583MOL0     C78584   0.645   3.966   4.736  0.2926  0.3404 -0.7910
  583MOL0     C78585   0.734   4.082   4.696  0.5375 -0.1134  0.1595
  583MOL0     C78586   0.656   4.211   4.722  0.1641  0.0411 -0.4829
  583MOL0     N78587   0.727   4.332   4.695 -0.0320 -0.3533  0.6944
  583MOL0     C78588   0.830   4.377   4.776 -0.0949  0.4681 -0.1588
  583MOL0     C78589   0.849   4.507   4.739  0.0619  0.0483 -0.6558
  583MOL0     C78590   0.946   4.606   4.801  0.7439 -0.2209  0.4243
  583MOL0     C78591   1.049   4.653   4.699 -0.3937  0.6959 -0.1187
  583MOL0     C78592   1.140   4.764   4.766 -0.2661 -0.5282  0.3349
  583MOL0     C78593   1.227   4.820   4.657 -0.1960  0.6576 -0.4901
  583MOL0     O78594   1.327   4.907   4.719  0.3211 -0.0594  0.9443
  583MOL0     C78595   1.311   5.042   4.732  0.0591 -0.4288 -0.2654
  583MOL0     C78596   1.187   5.118   4.725  0.0871  0.2891  0.2596
  583MOL0     C78597   1.178   5.254   4.743 -1.7418  0.4193  0.1704
  583MOL0     C78598   1.046   5.318   4.722 -0.4954  0.5549 -0.3478
  583MOL0     C78599   1.301   5.319   4.764 -0.3124  0.5430 -0.1131
  583MOL0     C78600   1.316   5.470   4.773 -1.0472 -0.3237  0.5807
  583MOL0     O78601   1.445   5.513   4.806  0.5075 -0.3782  0.4465
  583MOL0     C78602   1.474   5.650   4.798  0.2668  0.1176  0.1363
  583MOL0     C78603   1.533   5.695   4.914 -0.6373 -0.6364  0.1937
  583MOL0     C78604   1.579   5.831   4.910  0.1504  0.4009  0.4430
  583MOL0     C78605   1.575   5.907   4.791  0.2860 -0.3661  0.5861
  583MOL0     O78606   1.627   6.039   4.790  0.3438  0.1418 -0.5233
  583MOL0     C78607   1.679   6.099   4.678 -0.7264 -0.4166  1.0846
  583MOL0     C78608   1.751   6.234   4.727  0.1371 -0.2854 -0.2655
  583MOL0     C78609   1.820   6.299   4.606  0.2157  0.6527 -0.1698
  583MOL0     C78610   1.906   6.423   4.636 -0.2060  1.0081 -0.3679
  583MOL0     C78611   1.961   6.490   4.516  0.2599  0.3654 -0.0569
  583MOL0     C78612   2.101   6.452   4.467 -0.0769  0.0070  0.2733
  583MOL0     C78613   2.114   6.307   4.425  0.3567 -0.5247  0.4120
  583MOL0     C78614   2.271   6.281   4.407  0.0001 -0.3119  0.0489
  583MOL0    Cl78615   2.373   6.299   4.555 -0.2034 -0.2946  0.1751
  583MOL0     C78616   1.537   5.849   4.671 -0.7559 -0.2411 -0.4538
  583MOL0     C78617   1.473   5.723   4.678  0.2936 -1.3052  0.4950
  583MOL0     O78618   1.223   5.545   4.757 -0.1825  0.1129 -0.7253
  583MOL0     C78619   1.425   5.245   4.782  0.2889 -0.2506 -0.8103
  583MOL0     C78620   1.431   5.108   4.763 -0.3376  0.0142  0.1600
  583MOL0     N78621   0.753   4.539   4.648  0.7568  0.0760  0.4245
  583MOL0     N78622   0.688   4.430   4.610  0.3146 -0.8741 -0.3022
  583MOL0     C78623   0.628   3.136   4.446 -0.3807  0.1549 -0.3619
  583MOL0     C78624   0.588   3.008   4.430 -0.8216  0.2626  0.3981
  583MOL0     C78625   0.651   2.554   4.436 -0.0081 -0.6096 -0.4604
  583MOL0     C78626   0.543   2.498   4.505  0.7621 -0.1052 -0.1372
  583MOL0     C78627   0.542   2.366   4.535 -0.3853  0.5508 -0.2640
  583MOL0     C78628   0.645   2.281   4.501  0.0106 -0.3707  0.8302
  583MOL0     O78629   0.668   2.154   4.540 -0.5306  0.1777  1.1288
  583MOL0     C78630   0.542   2.086   4.585  0.2577 -0.0096 -0.2203
  583MOL0     C78631   0.554   1.936   4.553 -0.7039 -0.0722 -0.8391
  583MOL0     C78632   0.412   1.869   4.551  0.1738 -1.1690  0.5622
  583MOL0     C78633   0.435   1.724   4.484  0.8806 -0.2370  0.0767
  583MOL0     C78634   0.317   1.652   4.445  0.3602 -0.4226 -0.2535
  583MOL0     C78635   0.212   1.609   4.407  0.3574  0.3224  0.5316
  583MOL0     C78636   0.756   2.333   4.426  0.8174 -0.6435  0.3997
  583MOL0     C78637   0.757   2.464   4.395 -0.4639 -0.2865  0.4183
  583MOL0     H78638   0.775   2.853   4.663  0.5376 -1.4410 -1.8834
  583MOL0     H78639   0.852   3.115   4.690 -1.3066  3.2052 -1.2648
  583MOL0     H78640   0.606   3.258   4.726  0.5955 -1.2397 -1.4644
  583MOL0     H78641   0.757   3.339   4.771 -0.4977 -0.2339  0.8345
  583MOL0     H78642   0.523   3.462   4.626  0.5486 -0.3376 -0.0783
  583MOL0     H78643   0.562   3.498   4.787  2.1244 -2.6527  0.8734
  583MOL0     H78644   0.787   3.583   4.699  0.7862 -4.3983 -2.8329
  583MOL0     H78645   0.694   3.617   4.547 -2.7665  0.4793 -0.7140
  583MOL0     H78646   0.534   3.735   4.679  0.8058 -0.5225 -0.3887
  583MOL0     H78647   0.622   3.697   4.829 -0.3667  2.8609  1.2109
  583MOL0     H78648   0.809   3.819   4.771 -0.1277 -2.0513 -0.1030
  583MOL0     H78649   0.769   3.844   4.611 -0.2169 -0.3091  0.6739
  583MOL0     H78650   0.559   3.956   4.670 -0.7380  3.3336 -0.0364
  583MOL0     H78651   0.623   3.988   4.841 -0.8538 -1.6607 -0.5536
  583MOL0     H78652   0.833   4.090   4.741  0.9196  4.5669 -0.9278
  583MOL0     H78653   0.760   4.073   4.590 -1.7965 -0.9659 -0.4055
  583MOL0     H78654   0.617   4.207   4.824 -2.0960 -2.4714 -1.3361
  583MOL0     H78655   0.571   4.204   4.654  0.9141  0.2769 -1.4666
  583MOL0     H78656   0.876   4.314   4.851 -0.4800 -0.0796 -0.3757
  583MOL0     H78657   0.892   4.691   4.843  1.7279  1.2714 -1.1693
  583MOL0     H78658   1.003   4.560   4.881 -0.6783  0.1018  1.6678
  583MOL0     H78659   0.991   4.688   4.613 -1.4367 -0.1771  0.2141
  583MOL0     H78660   1.113   4.578   4.651 -1.6261  1.2338 -2.8024
  583MOL0     H78661   1.203   4.730   4.849  3.6882  0.3963 -2.0178
  583MOL0     H78662   1.070   4.840   4.802 -0.3193 -1.2536  1.8372
  583MOL0     H78663   1.172   4.865   4.575 -1.5532  0.2874  0.1840
  583MOL0     H78664   1.286   4.734   4.624  0.6204  1.1574 -0.3486
  583MOL0     H78665   1.097   5.061   4.702  0.5317 -0.1377 -0.4859
  583MOL0     H78666   0.995   5.348   4.814  1.8491  1.8567  0.6080
  583MOL0     H78667   1.059   5.401   4.653  1.5999  0.4054 -0.1922
  583MOL0     H78668   0.975   5.260   4.662  0.7775  2.3985 -3.9027
  583MOL0     H78669   1.543   5.622   4.994  1.4784 -0.3580  0.2587
  583MOL0     H78670   1.602   5.881   5.003  2.2609  0.6032 -0.1251
  583MOL0     H78671   1.730   6.027   4.613 -5.7542 -2.3817 -1.1596
  583MOL0     H78672   1.607   6.133   4.603  2.7687  0.5479 -2.1994
  583MOL0     H78673   1.673   6.300   4.766 -1.6675 -0.6940 -2.9187
  583MOL0     H78674   1.819   6.213   4.810  0.3178  1.8371  0.1689
  583MOL0     H78675   1.742   6.335   4.539 -0.3662  0.2118  0.2603
  583MOL0     H78676   1.883   6.234   4.545 -0.2031  2.9906 -3.3771
  583MOL0     H78677   1.849   6.493   4.698  0.7998 -0.7393  2.7449
  583MOL0     H78678   1.989   6.389   4.698  0.0173 -4.2263 -2.9605
  583MOL0     H78679   1.972   6.597   4.537 -0.0575  0.7273 -1.5879
  583MOL0     H78680   1.893   6.477   4.431 -0.1557  0.8521  0.1993
  583MOL0     H78681   2.122   6.503   4.372 -3.1821 -0.9632 -1.0689
  583MOL0     H78682   2.177   6.478   4.541  2.6042 -2.2919 -1.4587
  583MOL0     H78683   2.071   6.286   4.326  1.4764  2.9751 -0.9712
  583MOL0     H78684   2.084   6.236   4.502 -0.9620 -1.2061 -0.6742
  583MOL0     H78685   2.309   6.345   4.327  1.5879 -2.9052 -1.4489
  583MOL0     H78686   2.288   6.182   4.363 -0.7154 -0.2217 -0.4515
  583MOL0     H78687   1.547   5.897   4.573  3.1126 -0.8087 -0.4646
  583MOL0     H78688   1.437   5.687   4.581  2.9959  0.9020 -1.4746
  583MOL0     H78689   1.520   5.292   4.804  0.6568 -0.1463 -2.4935
  583MOL0     H78690   1.516   5.040   4.771 -1.1209 -1.2508 -1.5322
  583MOL0     H78691   0.583   3.215   4.387  2.0189 -0.1005 -2.7435
  583MOL0     H78692   0.524   2.982   4.347  0.3872 -1.2856 -0.1008
  583MOL0     H78693   0.454   2.550   4.538  0.2823  0.4657 -2.2100
  583MOL0     H78694   0.458   2.336   4.598 -1.1919 -0.5522 -1.7907
  583MOL0     H78695   0.536   2.098   4.694  0.2408 -1.5055 -0.0346
  583MOL0     H78696   0.448   2.120   4.540 -1.4015 -3.4221  0.3509
  583MOL0     H78697   0.607   1.889   4.637 -2.5349 -0.2108  0.2928
  583MOL0     H78698   0.613   1.927   4.462 -0.1715 -2.7452 -0.3151
  583MOL0     H78699   0.350   1.936   4.491  0.0891 -0.3518  1.5505
  583MOL0     H78700   0.367   1.849   4.648 -0.3192  0.4222  0.6770
  583MOL0     H78701   0.474   1.651   4.555 -1.2205  1.0468  2.7031
  583MOL0     H78702   0.504   1.725   4.399 -0.7066 -0.8546 -1.2789
  583MOL0     H78703   0.115   1.578   4.373 -0.6517  3.0921  0.6303
  583MOL0     H78704   0.838   2.268   4.398  4.0529  2.4079  1.9263
  583MOL0     H78705   0.847   2.511   4.357 -0.9918 -0.3714 -1.0039
  584MOL0     O78706   0.446   7.673   8.451  1.0465 -0.3636  0.2235
  584MOL0     C78707   0.355   7.604   8.480 -0.0509 -0.0854 -0.1678
  584MOL0     O78708   0.355   7.477   8.538  0.5106  1.0120  0.0615
  584MOL0     C78709   0.461   7.454   8.620 -0.3119  0.4533 -0.2621
  584MOL0     C78710   0.524   7.321   8.616  0.3927  0.3175 -0.9352
  584MOL0     C78711   0.639   7.290   8.691 -0.7510  1.1385  0.5801
  584MOL0     C78712   0.698   7.386   8.762 -0.5753 -0.3120 -0.7675
  584MOL0     O78713   0.823   7.350   8.818  0.3155  0.2165 -0.1015
  584MOL0     C78714   0.925   7.452   8.816  0.0202 -0.2465  0.1408
  584MOL0     C78715   1.061   7.378   8.848  0.2151 -1.2507 -0.1118
  584MOL0     C78716   1.103   7.257   8.764  0.0878 -0.4887  0.2769
  584MOL0     C78717   1.138   7.301   8.620 -0.1170 -0.2699  0.1344
  584MOL0     C78718   1.238   7.191   8.555 -0.0049 -0.3645 -1.1210
  584MOL0     C78719   1.184   7.049   8.562  0.8792 -0.7550 -0.8745
  584MOL0     C78720   1.270   6.939   8.493  0.1117 -0.3389  0.4744
  584MOL0     C78721   1.254   6.908   8.341 -0.1621 -1.1925  0.3688
  584MOL0     N78722   1.128   6.848   8.301  0.6859  0.1661  0.2429
  584MOL0     C78723   1.043   6.771   8.381  0.1040 -0.0069  1.0332
  584MOL0     C78724   0.949   6.714   8.296 -0.9670  0.0850  0.3618
  584MOL0     C78725   0.837   6.640   8.343  0.1436  1.0744  0.8906
  584MOL0     C78726   0.717   6.725   8.339  0.5947  0.0228  1.2768
  584MOL0     C78727   0.714   6.843   8.442  0.6629  0.9243  0.1092
  584MOL0     C78728   0.577   6.913   8.446 -0.3338  1.0716 -0.1274
  584MOL0     O78729   0.594   6.988   8.574  0.1586  0.1346  0.6478
  584MOL0     C78730   0.493   6.976   8.663  0.1117  0.0119 -1.0281
  584MOL0     C78731   0.361   6.970   8.624  0.4633  0.4690  0.0211
  584MOL0     C78732   0.262   6.947   8.728 -1.3834  0.2824 -0.0687
  584MOL0     C78733   0.122   6.946   8.672  0.2921 -0.0275 -0.4127
  584MOL0     C78734   0.301   6.941   8.863  0.2105  0.6960  0.0335
  584MOL0     C78735   0.210   6.889   8.965  0.0861  0.6243  0.1247
  584MOL0     O78736   0.249   6.886   9.093 -0.0059  0.1629  0.5209
  584MOL0     C78737   0.171   6.822   9.184  0.1574  0.3026  0.0133
  584MOL0     C78738   0.167   6.680   9.182 -0.3587  0.7568 -0.1040
  584MOL0     C78739   0.065   6.615   9.247  0.3200  0.2801  0.0891
  584MOL0     C78740  -0.030   6.691   9.326 -0.4258  0.9737 -0.1217
  584MOL0     O78741  -0.138   6.634   9.391  0.1096  0.3467  0.4375
  584MOL0     C78742  -0.120   6.518   9.463  0.5960  0.0597  0.2355
  584MOL0     C78743  -0.235   6.515   9.567 -0.5063  0.9175  1.5417
  584MOL0     C78744  -0.190   6.427   9.683  0.7136  0.7536 -0.0052
  584MOL0     C78745  -0.281   6.453   9.802  1.1801 -0.8068 -0.3508
  584MOL0     C78746  -0.268   6.346   9.913  0.6747 -0.1882  0.2942
  584MOL0     C78747  -0.383   6.377  10.007 -0.1399  0.2180 -1.3698
  584MOL0     C78748  -0.355   6.306  10.138  0.0944  0.1235 -1.2619
  584MOL0     C78749  -0.307   6.162  10.136  0.1091 -0.0238  0.7626
  584MOL0    Cl78750  -0.269   6.118  10.303 -0.7000 -0.4342 -0.0532
  584MOL0     C78751  -0.031   6.829   9.323 -0.5258 -0.2372 -1.0744
  584MOL0     C78752   0.073   6.888   9.247 -0.7889 -0.1851 -0.1157
  584MOL0     O78753   0.101   6.848   8.927 -0.5450 -0.2205 -0.4451
  584MOL0     C78754   0.435   6.968   8.908  0.5126 -0.5887 -0.1211
  584MOL0     C78755   0.521   6.997   8.804  0.1199  0.0966 -0.0396
  584MOL0     N78756   0.988   6.744   8.169 -0.1474  0.4083 -0.3861
  584MOL0     N78757   1.092   6.823   8.174  0.7170  0.3946 -0.2415
  584MOL0     C78758   0.640   7.515   8.776  0.4321  0.0224  0.2664
  584MOL0     C78759   0.520   7.550   8.709  0.6691 -0.8738  0.7377
  584MOL0     C78760   0.222   7.647   8.418  0.0101 -0.0884  0.5765
  584MOL0     C78761   0.178   7.781   8.394 -0.2866 -0.4430 -0.5868
  584MOL0     C78762   0.054   7.807   8.325 -0.6370 -0.4227 -0.7845
  584MOL0     C78763  -0.037   7.713   8.303  0.0039  0.2753 -0.1837
  584MOL0     O78764  -0.163   7.746   8.258 -0.1619  0.8289  0.1624
  584MOL0     C78765  -0.273   7.667   8.286  0.2357 -0.7361  0.1345
  584MOL0     C78766  -0.394   7.744   8.232 -0.2277 -0.3859  0.2322
  584MOL0     C78767  -0.504   7.662   8.172 -0.1721  1.1214  0.3168
  584MOL0     C78768  -0.619   7.754   8.100 -0.4624  0.1827  0.4511
  584MOL0     C78769  -0.745   7.678   8.101  0.4140 -0.6531  0.6636
  584MOL0     C78770  -0.840   7.600   8.114  0.0533  0.6277  0.8581
  584MOL0     C78771  -0.009   7.585   8.335 -0.2801 -0.3147  0.5894
  584MOL0     C78772   0.122   7.549   8.377  0.1138 -0.0923 -0.7522
  584MOL0     H78773   0.471   7.248   8.556 -0.1780 -1.9088  2.0859
  584MOL0     H78774   0.673   7.186   8.690 -2.2923  0.5057  3.2304
  584MOL0     H78775   0.942   7.483   8.713  0.4741  0.4055  0.4065
  584MOL0     H78776   0.905   7.537   8.881  0.6432 -1.2079  1.6607
  584MOL0     H78777   1.145   7.448   8.853  0.9004 -2.1496  2.5668
  584MOL0     H78778   1.040   7.341   8.949  0.8154  0.3185  0.6333
  584MOL0     H78779   1.180   7.191   8.806 -0.1881 -1.7638 -1.1577
  584MOL0     H78780   1.023   7.183   8.756  0.0175 -0.5531  1.4236
  584MOL0     H78781   1.041   7.302   8.571 -0.8898  0.1721  1.6139
  584MOL0     H78782   1.190   7.398   8.618 -0.5128  0.0055  1.9269
  584MOL0     H78783   1.260   7.227   8.454  2.2319  6.4163  1.2309
  584MOL0     H78784   1.330   7.186   8.613  0.2047 -3.0004 -1.5310
  584MOL0     H78785   1.165   7.021   8.666  6.0604  2.2069  1.2437
  584MOL0     H78786   1.085   7.050   8.516  0.6038  1.9570 -0.3649
  584MOL0     H78787   1.376   6.961   8.509  0.3045 -0.6993 -0.2791
  584MOL0     H78788   1.237   6.844   8.535  3.2591 -0.6387  2.6090
  584MOL0     H78789   1.343   6.851   8.313  1.2473  0.4618  1.2548
  584MOL0     H78790   1.258   7.005   8.291 -4.7164 -0.8452  0.2352
  584MOL0     H78791   1.042   6.752   8.488  1.1409 -1.0942  0.8698
  584MOL0     H78792   0.828   6.540   8.300 -1.0073  1.4238  0.2682
  584MOL0     H78793   0.849   6.611   8.448  0.9242 -0.5626  0.3810
  584MOL0     H78794   0.629   6.663   8.357 -0.1790 -0.4316 -2.9630
  584MOL0     H78795   0.708   6.770   8.240  0.9835  0.9721  1.6629
  584MOL0     H78796   0.805   6.904   8.440  1.9459 -0.8994 -1.7550
  584MOL0     H78797   0.726   6.794   8.539  2.5798  1.2240  0.0626
  584MOL0     H78798   0.495   6.841   8.439  0.6929  0.0080 -2.1225
  584MOL0     H78799   0.571   6.986   8.365 -1.2212  0.4520 -0.6409
  584MOL0     H78800   0.327   6.977   8.521 -5.7647 -4.3248  1.1462
  584MOL0     H78801   0.058   7.005   8.737 -0.0796  0.8849 -1.5700
  584MOL0     H78802   0.119   6.992   8.572 -1.0446 -0.1978 -0.4727
  584MOL0     H78803   0.092   6.843   8.651  1.9254 -0.4312 -0.9172
  584MOL0     H78804   0.233   6.631   9.111  0.6202 -0.8417  1.8343
  584MOL0     H78805   0.038   6.511   9.232 -0.9995  0.8231 -1.6192
  584MOL0     H78806  -0.131   6.433   9.394  1.7953  0.5015 -0.5267
  584MOL0     H78807  -0.017   6.514   9.499  1.1683 -0.9913 -1.4186
  584MOL0     H78808  -0.250   6.616   9.608 -0.2651  1.9484 -0.7206
  584MOL0     H78809  -0.330   6.479   9.527 -1.2289  3.3310  0.9177
  584MOL0     H78810  -0.088   6.443   9.719 -0.0386 -0.6995  3.1814
  584MOL0     H78811  -0.201   6.323   9.651 -3.0647  0.9319  0.2544
  584MOL0     H78812  -0.273   6.549   9.854 -1.4655 -0.1829 -0.9000
  584MOL0     H78813  -0.383   6.457   9.762  0.3648 -2.0235  1.4860
  584MOL0     H78814  -0.175   6.359   9.968  1.1959 -3.8312  0.5228
  584MOL0     H78815  -0.269   6.239   9.889  0.9497 -0.1261  0.0108
  584MOL0     H78816  -0.417   6.478  10.030  0.1027 -0.6488  4.2331
  584MOL0     H78817  -0.469   6.319   9.973 -1.5839  1.2838  0.3037
  584MOL0     H78818  -0.437   6.323  10.209  1.7318  1.3342  0.4269
  584MOL0     H78819  -0.267   6.354  10.182 -0.7606  2.8408 -2.2634
  584MOL0     H78820  -0.220   6.155  10.070 -2.3602  0.0118 -2.7811
  584MOL0     H78821  -0.388   6.099  10.096 -0.0580  0.0567  0.9756
  584MOL0     H78822  -0.119   6.869   9.373 -2.4756 -4.2699 -0.9236
  584MOL0     H78823   0.071   6.996   9.230  0.8077 -0.3720 -1.8835
  584MOL0     H78824   0.460   6.984   9.013 -0.2502  4.1567 -0.4510
  584MOL0     H78825   0.623   7.029   8.827 -0.7517  3.7210 -0.5328
  584MOL0     H78826   0.682   7.597   8.834 -2.5273  1.1169  1.0646
  584MOL0     H78827   0.482   7.651   8.713 -0.4475 -1.2225 -0.4523
  584MOL0     H78828   0.254   7.857   8.411  1.4630 -2.3141  0.6065
  584MOL0     H78829   0.050   7.912   8.298  1.0368 -0.6177 -1.9666
  584MOL0     H78830  -0.272   7.569   8.237 -1.0920 -0.5148 -0.3642
  584MOL0     H78831  -0.293   7.651   8.392  0.1196 -0.9315  0.0822
  584MOL0     H78832  -0.369   7.810   8.148 -2.4718 -0.8841 -0.8840
  584MOL0     H78833  -0.443   7.817   8.297  0.2993  1.0269 -0.8730
  584MOL0     H78834  -0.548   7.609   8.256 -2.1199  0.2489 -1.1614
  584MOL0     H78835  -0.462   7.588   8.103  0.0318  0.3870  1.2103
  584MOL0     H78836  -0.585   7.786   8.001  1.6341  1.2491  1.4438
  584MOL0     H78837  -0.640   7.846   8.157 -2.2468 -1.2878  2.3331
  584MOL0     H78838  -0.903   7.513   8.112  0.6678  0.1098  2.4090
  584MOL0     H78839  -0.076   7.500   8.324  0.1193 -0.5397 -0.1487
  584MOL0     H78840   0.140   7.442   8.384 -0.0989 -0.2597 -2.4572
  585MOL0     O78841   7.129   7.000   7.287 -0.6783  0.2897  0.2415
  585MOL0     C78842   7.151   6.879   7.262  0.8433 -0.7746  0.3868
  585MOL0     O78843   7.245   6.833   7.177  0.3006  0.0356 -0.1180
  585MOL0     C78844   7.333   6.917   7.111  0.5868 -0.0851  0.0831
  585MOL0     C78845   7.349   6.895   6.970 -0.2884 -0.2625  0.0266
  585MOL0     C78846   7.437   6.975   6.897 -0.3687 -0.6049  0.4984
  585MOL0     C78847   7.511   7.072   6.960 -0.2776  0.5898 -0.6188
  585MOL0     O78848   7.598   7.164   6.891  0.0941 -0.0378  1.1380
  585MOL0     C78849   7.607   7.156   6.748  0.5977 -0.0903  0.2599
  585MOL0     C78850   7.698   7.260   6.689 -0.1533 -0.5098  0.1676
  585MOL0     C78851   7.641   7.409   6.717  0.6592  0.9510  0.4328
  585MOL0     C78852   7.708   7.521   6.637 -0.9812 -0.8296 -0.1247
  585MOL0     C78853   7.611   7.630   6.579 -0.6015 -0.4670  0.6440
  585MOL0     C78854   7.519   7.568   6.474 -1.1146  0.3017 -0.3924
  585MOL0     C78855   7.423   7.663   6.399 -0.1298  0.4543  0.2156
  585MOL0     C78856   7.416   7.638   6.249 -0.9813  0.0324 -0.2643
  585MOL0     N78857   7.369   7.755   6.181 -0.2520  0.5955  0.1357
  585MOL0     C78858   7.441   7.836   6.095  0.0537 -0.3773  0.0257
  585MOL0     C78859   7.348   7.920   6.042 -0.3267 -0.4812  0.5108
  585MOL0     C78860   7.389   8.017   5.931  0.6293  1.2137 -0.1337
  585MOL0     C78861   7.326   7.973   5.801 -0.1130  1.0111 -0.5945
  585MOL0     C78862   7.174   7.983   5.795 -0.2742 -0.5553 -0.1357
  585MOL0     C78863   7.128   7.919   5.667 -0.0514  0.2968  0.8153
  585MOL0     O78864   6.995   7.943   5.627 -0.8683  0.0305 -0.1506
  585MOL0     C78865   6.951   7.865   5.526 -0.4324 -0.0316 -0.3085
  585MOL0     C78866   7.023   7.819   5.416  0.2657 -0.9907  0.0425
  585MOL0     C78867   6.980   7.753   5.306  0.2496 -0.1794 -0.0079
  585MOL0     C78868   7.081   7.728   5.203 -0.3396  0.3764  0.2831
  585MOL0     C78869   6.840   7.736   5.299 -0.1507 -0.7882 -0.3504
  585MOL0     C78870   6.779   7.662   5.184  0.3498 -0.5197 -0.8290
  585MOL0     O78871   6.643   7.700   5.140  1.1556  0.3083 -0.2025
  585MOL0     C78872   6.557   7.624   5.056 -0.9222  0.0468 -0.3764
  585MOL0     C78873   6.424   7.612   5.084  0.2426 -0.7851 -0.2220
  585MOL0     C78874   6.354   7.512   5.031  0.3564  0.5734  0.5369
  585MOL0     C78875   6.400   7.432   4.928  0.4526  0.5586  1.5461
  585MOL0     O78876   6.315   7.340   4.883 -0.3178 -0.2676 -1.5912
  585MOL0     C78877   6.303   7.349   4.740 -0.1505  0.7273  0.5973
  585MOL0     C78878   6.162   7.311   4.707  0.2340 -0.1493  0.2591
  585MOL0     C78879   6.125   7.354   4.564  0.1573  1.1517 -0.2651
  585MOL0     C78880   5.976   7.351   4.565 -0.3457  0.6341  0.0754
  585MOL0     C78881   5.932   7.377   4.410 -0.0725 -1.0450 -0.3826
  585MOL0     C78882   5.791   7.312   4.366 -0.2899 -0.5362 -0.6215
  585MOL0     C78883   5.727   7.381   4.241 -0.8960  0.3347 -0.9964
  585MOL0     C78884   5.641   7.272   4.178  0.5343  0.1019  0.7115
  585MOL0    Cl78885   5.568   7.352   4.041 -0.2837  0.4665 -0.6060
  585MOL0     C78886   6.526   7.462   4.870 -0.7756 -0.6570 -0.4582
  585MOL0     C78887   6.609   7.551   4.942  0.8975 -0.1574 -0.0936
  585MOL0     O78888   6.844   7.596   5.118  0.1209  0.0525  0.9720
  585MOL0     C78889   6.757   7.775   5.410  0.6829 -0.4640  0.1825
  585MOL0     C78890   6.812   7.849   5.514  0.1637  0.5565 -0.1633
  585MOL0     N78891   7.224   7.886   6.095 -0.6170  0.3945 -0.1744
  585MOL0     N78892   7.239   7.804   6.188 -0.5313  0.1161 -0.7307
  585MOL0     C78893   7.493   7.103   7.096 -0.1575 -0.3754  1.5834
  585MOL0     C78894   7.416   7.021   7.175  0.3261  1.4772  0.0158
  585MOL0     C78895   7.071   6.773   7.324  0.4375  0.0243 -0.4505
  585MOL0     C78896   7.102   6.637   7.298 -0.1298  0.4103 -0.1538
  585MOL0     C78897   7.039   6.530   7.359  0.4189  0.1710 -0.2396
  585MOL0     C78898   6.932   6.556   7.459 -0.3492 -1.5135  0.1788
  585MOL0     O78899   6.868   6.458   7.530 -0.4667 -0.8648  0.3837
  585MOL0     C78900   6.921   6.322   7.520 -0.7280  0.2652  0.9242
  585MOL0     C78901   6.860   6.235   7.623 -0.1644  0.0440  0.9283
  585MOL0     C78902   6.879   6.261   7.760  0.3193  0.3985 -0.0192
  585MOL0     C78903   6.772   6.194   7.842  1.0495  0.1355  0.4171
  585MOL0     C78904   6.764   6.042   7.825 -0.9314  0.0375  0.5120
  585MOL0     C78905   6.729   5.927   7.788  0.6445  1.0414 -0.3004
  585MOL0     C78906   6.901   6.692   7.482 -0.3918  0.5307  0.1748
  585MOL0     C78907   6.964   6.801   7.411 -0.5967 -0.0253 -0.2408
  585MOL0     H78908   7.290   6.818   6.920 -1.8068  1.9249 -1.7543
  585MOL0     H78909   7.442   6.953   6.791 -1.9631 -0.9542  0.4778
  585MOL0     H78910   7.637   7.055   6.719 -1.9675 -0.0581 -3.2429
  585MOL0     H78911   7.511   7.173   6.699  1.2028 -1.9436 -1.7147
  585MOL0     H78912   7.795   7.258   6.739  0.4864 -2.5428 -1.0085
  585MOL0     H78913   7.713   7.236   6.583 -1.2550 -0.1812 -0.0722
  585MOL0     H78914   7.538   7.406   6.681  1.8635 -0.3476 -3.4652
  585MOL0     H78915   7.647   7.433   6.823 -0.3222 -0.6705  0.8795
  585MOL0     H78916   7.793   7.568   6.689  0.3233 -2.2305 -0.9010
  585MOL0     H78917   7.767   7.472   6.559  2.6694  2.0471  0.5215
  585MOL0     H78918   7.551   7.681   6.655 -1.6552  0.5778 -0.8420
  585MOL0     H78919   7.670   7.711   6.535 -3.2928  1.3854  0.2139
  585MOL0     H78920   7.588   7.508   6.414 -3.3734 -3.3994  0.3796
  585MOL0     H78921   7.449   7.499   6.523  1.9016 -2.4494  0.3767
  585MOL0     H78922   7.323   7.661   6.443  0.9775 -4.0040  3.3053
  585MOL0     H78923   7.459   7.765   6.411  0.7125  0.0310  1.4444
  585MOL0     H78924   7.350   7.556   6.220 -1.1420 -0.8778  2.4213
  585MOL0     H78925   7.517   7.621   6.209 -1.2764 -2.0214 -0.2073
  585MOL0     H78926   7.544   7.836   6.059 -0.7535  0.3101 -2.4956
  585MOL0     H78927   7.380   8.122   5.958  1.6534  1.5855 -1.1424
  585MOL0     H78928   7.494   8.000   5.904  1.2136 -1.8556  3.2967
  585MOL0     H78929   7.354   7.867   5.789 -4.1129 -0.1461 -1.1129
  585MOL0     H78930   7.360   8.023   5.710 -0.2802 -0.4941 -1.5249
  585MOL0     H78931   7.142   8.087   5.802 -0.9750 -0.8877  3.9087
  585MOL0     H78932   7.120   7.944   5.882  0.0732  0.3423  0.4899
  585MOL0     H78933   7.155   7.813   5.656 -1.2233  0.0380  0.3050
  585MOL0     H78934   7.185   7.961   5.584 -1.3994 -0.2066 -0.4122
  585MOL0     H78935   7.128   7.847   5.413  0.2902 -0.7132  2.1050
  585MOL0     H78936   7.179   7.774   5.221 -0.8741  2.4264 -1.6453
  585MOL0     H78937   7.108   7.624   5.180  0.4845  0.0656  2.3684
  585MOL0     H78938   7.048   7.769   5.107  2.9050  0.8444 -0.7666
  585MOL0     H78939   6.387   7.683   5.158  2.6931 -0.0419  0.4105
  585MOL0     H78940   6.249   7.501   5.058 -0.3516 -1.1940 -2.5490
  585MOL0     H78941   6.319   7.450   4.702 -0.5636  0.0923 -1.3942
  585MOL0     H78942   6.373   7.282   4.690 -3.5244 -1.7093 -1.2434
  585MOL0     H78943   6.160   7.202   4.709 -1.4826 -0.1940 -1.3123
  585MOL0     H78944   6.088   7.342   4.781  2.7984 -0.6308  3.2188
  585MOL0     H78945   6.168   7.282   4.493  2.2843 -0.2580  2.2803
  585MOL0     H78946   6.170   7.452   4.547  2.6062  0.3484  1.1538
  585MOL0     H78947   5.957   7.249   4.600  0.0926  0.8878  1.0876
  585MOL0     H78948   5.911   7.415   4.626 -2.6083  0.1557 -1.6751
  585MOL0     H78949   6.008   7.328   4.349  1.7698  1.7284 -0.4382
  585MOL0     H78950   5.943   7.485   4.403  0.8041 -1.0480  0.6512
  585MOL0     H78951   5.809   7.210   4.330  2.7577  0.1324 -1.3136
  585MOL0     H78952   5.725   7.310   4.453 -1.5167  0.6624 -1.4734
  585MOL0     H78953   5.804   7.400   4.166 -1.1348 -1.2094 -1.6720
  585MOL0     H78954   5.668   7.469   4.268  1.3808  2.4264 -2.3440
  585MOL0     H78955   5.564   7.234   4.246 -0.9340  0.3085 -0.7631
  585MOL0     H78956   5.689   7.186   4.130 -2.0061 -0.4800 -0.9499
  585MOL0     H78957   6.571   7.413   4.783 -0.8464 -2.2668  0.3682
  585MOL0     H78958   6.713   7.551   4.913  0.7092 -0.4023 -0.7861
  585MOL0     H78959   6.650   7.761   5.418 -0.0553  3.8542  0.0208
  585MOL0     H78960   6.738   7.873   5.590 -1.1298  1.1130 -1.5581
  585MOL0     H78961   7.532   7.199   7.129 -1.1795  1.5382 -2.2130
  585MOL0     H78962   7.396   7.056   7.275 -1.0888  0.1366  0.2313
  585MOL0     H78963   7.181   6.610   7.229  0.5648 -0.5822  0.9870
  585MOL0     H78964   7.066   6.429   7.327 -2.4244 -0.6092 -0.4846
  585MOL0     H78965   6.905   6.293   7.416 -4.3211  1.9084  0.8552
  585MOL0     H78966   7.026   6.332   7.548  0.1842  2.1106 -2.5169
  585MOL0     H78967   6.887   6.131   7.603  1.4298  0.7735 -1.0085
  585MOL0     H78968   6.754   6.240   7.599 -0.0095 -2.4055 -0.6678
  585MOL0     H78969   6.872   6.369   7.772  0.6994  0.2830  1.4640
  585MOL0     H78970   6.984   6.237   7.778  1.1733  2.2267 -2.2138
  585MOL0     H78971   6.673   6.232   7.815  1.6865  1.4965 -0.1381
  585MOL0     H78972   6.789   6.222   7.946 -3.6532  2.5830  0.8001
  585MOL0     H78973   6.698   5.830   7.756 -0.3471  0.7273  1.5053
  585MOL0     H78974   6.809   6.698   7.540  0.3704  0.5047  1.4260
  585MOL0     H78975   6.938   6.906   7.405  1.2675  0.9588  4.5790
  586MOL0     O78976   5.716   8.389  10.902  0.9638 -0.3978  0.3167
  586MOL0     C78977   5.705   8.511  10.876  0.3042  0.1105  0.6169
  586MOL0     O78978   5.662   8.606  10.958 -0.0448  0.0381  0.3249
  586MOL0     C78979   5.648   8.560  11.085 -0.2829 -0.0041  0.2791
  586MOL0     C78980   5.745   8.548  11.177 -0.1398  0.4761 -0.2892
  586MOL0     C78981   5.725   8.519  11.315 -1.1066 -0.1141  0.1277
  586MOL0     C78982   5.595   8.510  11.373 -0.9804  0.4335 -0.4843
  586MOL0     O78983   5.587   8.483  11.506  0.2972 -0.9414  0.1236
  586MOL0     C78984   5.457   8.466  11.568 -0.5489  0.2139  0.2896
  586MOL0     C78985   5.411   8.589  11.646  0.1799 -0.4746 -0.0780
  586MOL0     C78986   5.255   8.597  11.635  0.5393  0.7469 -0.2974
  586MOL0     C78987   5.200   8.736  11.685  0.9739  0.5651  0.6813
  586MOL0     C78988   5.047   8.752  11.705  0.4011  0.1509  0.2552
  586MOL0     C78989   4.967   8.739  11.568  0.6889  0.5214  0.5046
  586MOL0     C78990   4.985   8.871  11.484  0.7833 -0.1483  0.1839
  586MOL0     C78991   4.880   8.861  11.367 -0.9031 -0.2633 -0.2714
  586MOL0     N78992   4.913   8.950  11.261 -0.2619 -0.4093  0.4223
  586MOL0     C78993   5.033   9.002  11.214  0.8948  0.7521  0.7229
  586MOL0     C78994   4.988   9.102  11.134  0.1465 -0.8168 -0.3481
  586MOL0     C78995   5.072   9.211  11.077 -0.6341 -0.5292 -0.4437
  586MOL0     C78996   5.054   9.220  10.928 -0.0623 -0.0432  0.0887
  586MOL0     C78997   5.134   9.111  10.857  0.1607  0.3476 -0.2634
  586MOL0     C78998   5.116   9.099  10.703 -0.5117 -0.4816 -0.0485
  586MOL0     O78999   5.167   8.969  10.653 -0.2273  0.2507 -0.3604
  586MOL0     C79000   5.219   8.977  10.523  0.5277 -0.1718 -0.5568
  586MOL0     C79001   5.154   8.901  10.423 -0.5154  0.1699  0.3361
  586MOL0     C79002   5.206   8.905  10.292 -0.1122 -0.1219 -0.0976
  586MOL0     C79003   5.143   8.816  10.186 -0.1510 -0.7835 -0.0705
  586MOL0     C79004   5.311   8.997  10.251 -0.5655  0.3377  0.2077
  586MOL0     C79005   5.354   9.015  10.104 -1.2162 -0.0999 -0.0936
  586MOL0     O79006   5.471   9.080  10.090 -0.1254 -0.0815 -0.8223
  586MOL0     C79007   5.536   9.094   9.973  1.1120 -0.3236  0.2216
  586MOL0     C79008   5.611   8.993   9.929 -1.1276  0.4435  0.1438
  586MOL0     C79009   5.667   8.995   9.812  0.3634  0.4029  0.1678
  586MOL0     C79010   5.656   9.110   9.728  0.5695 -0.0860 -0.5344
  586MOL0     O79011   5.715   9.113   9.606 -0.0374 -0.0791  0.3793
  586MOL0     C79012   5.620   9.133   9.494 -0.2884 -0.5497 -0.0710
  586MOL0     C79013   5.557   9.008   9.435  0.2835  0.0199 -0.7564
  586MOL0     C79014   5.677   8.917   9.390 -0.9224  0.3031  0.0145
  586MOL0     C79015   5.626   8.783   9.339  0.6497  0.9628  0.3843
  586MOL0     C79016   5.567   8.791   9.197  0.3368  0.0051 -0.3265
  586MOL0     C79017   5.524   8.659   9.137 -0.7530  0.1839  0.4835
  586MOL0     C79018   5.442   8.684   9.005  1.1585 -1.0335  0.3322
  586MOL0     C79019   5.371   8.573   8.953 -0.8676  0.0593  0.2895
  586MOL0    Cl79020   5.303   8.599   8.787 -0.1149 -0.1095 -0.5284
  586MOL0     C79021   5.591   9.220   9.777  0.5094 -0.0367  1.2550
  586MOL0     C79022   5.526   9.210   9.892  0.5556  0.4081  0.0171
  586MOL0     O79023   5.277   8.984  10.013 -0.3186  0.6089 -0.2074
  586MOL0     C79024   5.363   9.074  10.357  0.3328 -0.4833  0.0899
  586MOL0     C79025   5.322   9.061  10.491 -0.6525  0.6682 -0.1896
  586MOL0     N79026   4.853   9.106  11.130 -0.2900 -0.7108  0.3778
  586MOL0     N79027   4.811   9.018  11.205  0.7897 -0.3114 -0.3511
  586MOL0     C79028   5.488   8.543  11.285 -0.1861  0.6180  0.8120
  586MOL0     C79029   5.519   8.561  11.143  0.4894 -0.7366  0.2909
  586MOL0     C79030   5.721   8.550  10.739  0.5348  0.1130  1.0098
  586MOL0     C79031   5.768   8.466  10.634  0.1201  0.0895  0.4401
  586MOL0     C79032   5.774   8.502  10.500 -0.0616  0.2134 -0.5859
  586MOL0     C79033   5.740   8.631  10.458  0.2166  0.1932  0.6831
  586MOL0     O79034   5.741   8.676  10.329 -0.0231  0.2138 -0.3707
  586MOL0     C79035   5.806   8.603  10.226 -0.4467 -0.1334 -0.3655
  586MOL0     C79036   5.854   8.696  10.125 -0.2018 -0.2459  0.6875
  586MOL0     C79037   5.952   8.812  10.178  0.5502  0.1091  0.0311
  586MOL0     C79038   6.072   8.752  10.260 -0.9289  1.0013  0.4373
  586MOL0     C79039   6.121   8.638  10.183  0.1145 -0.4250  0.3540
  586MOL0     C79040   6.169   8.544  10.118 -0.0151 -0.7237  0.0446
  586MOL0     C79041   5.689   8.718  10.557  0.0232 -0.5555 -0.1010
  586MOL0     C79042   5.681   8.676  10.691  0.1859 -0.9151 -0.5193
  586MOL0     H79043   5.845   8.548  11.134 -0.2129  1.3771 -0.4878
  586MOL0     H79044   5.817   8.492  11.367  0.3598  1.2281 -1.6599
  586MOL0     H79045   5.374   8.424  11.509 -0.7675  0.0508  0.7062
  586MOL0     H79046   5.470   8.387  11.643  1.9514 -0.6028 -0.8863
  586MOL0     H79047   5.456   8.591  11.746  2.2584 -0.4211 -0.9608
  586MOL0     H79048   5.453   8.676  11.595 -1.5660  1.2527  1.2391
  586MOL0     H79049   5.221   8.587  11.532  0.9671  1.7739 -0.5430
  586MOL0     H79050   5.205   8.515  11.689 -1.2510  2.6704  1.1155
  586MOL0     H79051   5.247   8.759  11.781 -0.1972 -1.2309  1.7340
  586MOL0     H79052   5.227   8.806  11.606 -0.8917 -1.7773 -2.2694
  586MOL0     H79053   5.019   8.670  11.773  1.0959 -1.0798 -0.8902
  586MOL0     H79054   5.023   8.846  11.754 -1.0268 -1.4522  2.8589
  586MOL0     H79055   5.003   8.653  11.512  1.9952  1.7149 -0.5777
  586MOL0     H79056   4.861   8.736  11.596 -0.4953  1.9015 -3.2388
  586MOL0     H79057   4.964   8.962  11.541 -3.3673  1.3372 -3.1181
  586MOL0     H79058   5.085   8.877  11.441  0.8286  1.3683  0.4418
  586MOL0     H79059   4.779   8.878  11.406 -0.0593 -1.4798  2.7694
  586MOL0     H79060   4.888   8.757  11.334  0.0585 -0.2371 -0.1523
  586MOL0     H79061   5.134   8.978  11.246  0.6376  2.1753  2.8372
  586MOL0     H79062   5.032   9.303  11.121 -3.8484 -1.8851 -0.1901
  586MOL0     H79063   5.176   9.189  11.103 -0.5858 -2.3513 -1.9201
  586MOL0     H79064   5.096   9.318  10.903 -3.5731  1.5883  0.0156
  586MOL0     H79065   4.951   9.217  10.892  0.5614 -1.7227 -1.6696
  586MOL0     H79066   5.110   9.015  10.904  1.3085 -0.8486 -2.0023
  586MOL0     H79067   5.243   9.121  10.865  0.2629 -0.1189 -1.0040
  586MOL0     H79068   5.155   9.191  10.659  0.6691 -0.2358  1.4307
  586MOL0     H79069   5.007   9.099  10.706 -0.5475  1.2725  2.9325
  586MOL0     H79070   5.070   8.832  10.431 -0.1022 -0.8067 -2.7170
  586MOL0     H79071   5.087   8.878  10.115  0.0065  0.5207  0.9121
  586MOL0     H79072   5.219   8.762  10.128  0.2711  0.1689 -0.4233
  586MOL0     H79073   5.069   8.750  10.232  0.7705  1.3694  5.1544
  586MOL0     H79074   5.617   8.903   9.989  0.5133  1.7274  2.0491
  586MOL0     H79075   5.736   8.920   9.777  0.2690  0.5443 -0.3299
  586MOL0     H79076   5.552   9.211   9.530  1.2125  1.2374 -0.9493
  586MOL0     H79077   5.675   9.176   9.410  2.7840  0.2775  2.1747
  586MOL0     H79078   5.503   8.965   9.520  0.3356  3.2566  1.0907
  586MOL0     H79079   5.494   9.034   9.350  1.8921  2.4361 -1.2961
  586MOL0     H79080   5.730   8.913   9.486 -2.2084  0.2989  0.7516
  586MOL0     H79081   5.733   8.974   9.316 -2.8502  2.3607  0.0038
  586MOL0     H79082   5.709   8.711   9.339  2.4811  2.9481  1.0908
  586MOL0     H79083   5.542   8.756   9.403 -1.6466  1.8269 -2.0669
  586MOL0     H79084   5.643   8.832   9.129 -0.7839 -0.7675 -2.0974
  586MOL0     H79085   5.484   8.862   9.203  2.1915  2.2069  0.8364
  586MOL0     H79086   5.613   8.606   9.101 -0.4183  2.1854 -1.9786
  586MOL0     H79087   5.470   8.605   9.215  2.0442 -1.2977  1.5387
  586MOL0     H79088   5.507   8.721   8.925 -0.6584  1.7874  0.0270
  586MOL0     H79089   5.367   8.764   9.011  2.1508  0.3505 -3.0614
  586MOL0     H79090   5.286   8.552   9.019 -0.0618 -2.7567  0.5456
  586MOL0     H79091   5.440   8.489   8.946  2.5282  2.3841  2.6873
  586MOL0     H79092   5.576   9.307   9.714 -0.2611 -0.9363  0.1573
  586MOL0     H79093   5.463   9.292   9.927  2.1940  0.8936  2.0587
  586MOL0     H79094   5.430   9.158  10.341 -2.0858  1.6774  0.6889
  586MOL0     H79095   5.381   9.125  10.557 -0.6927 -0.2177  0.7219
  586MOL0     H79096   5.390   8.554  11.331  0.1470  3.4624  1.0315
  586MOL0     H79097   5.431   8.580  11.083  1.2440  2.1655 -0.0615
  586MOL0     H79098   5.798   8.366  10.662 -0.6963  0.1473  1.5729
  586MOL0     H79099   5.801   8.421  10.431  0.6240  0.1370 -0.2390
  586MOL0     H79100   5.889   8.544  10.264  0.7850  1.3109 -0.6918
  586MOL0     H79101   5.729   8.538  10.183 -2.6494  2.0474  0.0171
  586MOL0     H79102   5.760   8.738  10.087 -1.2003  1.9402  4.9456
  586MOL0     H79103   5.911   8.647  10.046  2.5970  0.9750  1.8352
  586MOL0     H79104   5.894   8.887  10.233 -3.6446 -4.0133  2.0453
  586MOL0     H79105   5.993   8.862  10.090  0.1181  1.4549  0.5780
  586MOL0     H79106   6.053   8.730  10.365 -0.5070 -1.6494  0.0139
  586MOL0     H79107   6.150   8.829  10.257  0.1089 -0.0580 -1.4178
  586MOL0     H79108   6.208   8.453  10.078  0.8942  0.2100 -1.3106
  586MOL0     H79109   5.671   8.820  10.523 -1.6929 -0.3700  1.2237
  586MOL0     H79110   5.633   8.752  10.752  0.2456 -0.7207 -0.7142
  587MOL0     O79111   0.329   9.634   4.274 -0.7091  0.0908  0.1550
  587MOL0     C79112   0.363   9.538   4.349  0.2953  0.4837  0.3691
  587MOL0     O79113   0.484   9.522   4.402  0.1243 -0.1593 -1.1208
  587MOL0     C79114   0.591   9.613   4.388  0.4394 -0.8356  0.1355
  587MOL0     C79115   0.605   9.707   4.287 -0.7275  0.2408 -0.3739
  587MOL0     C79116   0.715   9.790   4.277 -0.9014  0.1169  0.1721
  587MOL0     C79117   0.818   9.775   4.368  0.3863  0.6713 -0.6252
  587MOL0     O79118   0.944   9.837   4.369  0.1804  0.6625 -0.1732
  587MOL0     C79119   0.968   9.963   4.301 -0.3823 -0.2008  0.0751
  587MOL0     C79120   1.114  10.009   4.312  0.8647  0.2723 -0.4542
  587MOL0     C79121   1.155  10.162   4.290  0.1071  0.1123 -0.0719
  587MOL0     C79122   1.066  10.268   4.359  0.1467  0.4653 -0.2250
  587MOL0     C79123   0.949  10.337   4.282  0.1489  0.5469  0.1549
  587MOL0     C79124   0.997  10.458   4.194  0.4869  0.2991 -0.4592
  587MOL0     C79125   0.868  10.531   4.142 -0.0050 -0.2918  0.1521
  587MOL0     C79126   0.918  10.654   4.069 -0.7875  0.0863 -0.0873
  587MOL0     N79127   0.914  10.774   4.153  0.1575 -0.5487  0.2273
  587MOL0     C79128   1.015  10.816   4.241  0.8743  0.3499  0.0887
  587MOL0     C79129   0.971  10.932   4.291  0.2377 -0.1193 -0.7008
  587MOL0     C79130   1.038  11.010   4.406  0.0182  0.5469  0.0415
  587MOL0     C79131   1.170  11.074   4.354 -0.1142 -0.6378  0.7281
  587MOL0     C79132   1.146  11.198   4.268 -0.8080 -0.1970  0.2683
  587MOL0     C79133   1.269  11.234   4.177  0.2413 -0.6050  0.3429
  587MOL0     O79134   1.225  11.346   4.088 -0.7145  0.8105 -0.2786
  587MOL0     C79135   1.238  11.478   4.123  0.5867  0.4797  1.2862
  587MOL0     C79136   1.209  11.574   4.030 -0.7081 -0.5266 -0.1583
  587MOL0     C79137   1.231  11.717   4.053  0.7002  0.9617  0.2325
  587MOL0     C79138   1.172  11.810   3.949  0.1188  0.5655  0.2138
  587MOL0     C79139   1.262  11.761   4.189  0.3973 -0.2762 -0.0480
  587MOL0     C79140   1.277  11.906   4.228 -1.2522  0.3909 -0.1582
  587MOL0     O79141   1.320  11.921   4.359  0.2542  0.1527  0.0701
  587MOL0     C79142   1.337  12.045   4.407  0.5521 -0.2322  0.1790
  587MOL0     C79143   1.432  12.051   4.510  0.7634 -0.8427 -0.1466
  587MOL0     C79144   1.441  12.164   4.596  0.5025  0.1653 -0.4277
  587MOL0     C79145   1.346  12.267   4.575 -0.1923  0.3895 -0.2403
  587MOL0     O79146   1.338  12.383   4.657 -0.9840 -0.1012  0.2530
  587MOL0     C79147   1.460  12.429   4.724 -0.1032 -0.3020  0.3379
  587MOL0     C79148   1.412  12.529   4.835 -0.6217 -0.2700 -0.6832
  587MOL0     C79149   1.530  12.602   4.920 -0.7286  0.1367  0.3104
  587MOL0     C79150   1.578  12.516   5.033 -0.0343  0.4969 -0.0103
  587MOL0     C79151   1.671  12.585   5.139  0.2584 -0.6325 -0.2145
  587MOL0     C79152   1.715  12.491   5.246  0.3647  0.2850  0.6263
  587MOL0     C79153   1.784  12.577   5.353  0.2550 -0.6221  0.5549
  587MOL0     C79154   1.828  12.501   5.475 -0.2520 -0.7499  0.4162
  587MOL0    Cl79155   1.971  12.403   5.429  0.4033  0.2198  0.0239
  587MOL0     C79156   1.247  12.261   4.474 -0.1208  0.3729  0.5231
  587MOL0     C79157   1.240  12.153   4.389 -0.7000 -0.2277  0.9036
  587MOL0     O79158   1.257  11.994   4.148  0.3783 -0.7181 -0.0618
  587MOL0     C79159   1.283  11.661   4.281 -0.1982 -0.6719 -0.8681
  587MOL0     C79160   1.286  11.525   4.250  1.0229  0.7236  0.3716
  587MOL0     N79161   0.857  10.973   4.219 -1.0184  0.2105  0.0869
  587MOL0     N79162   0.833  10.875   4.141  0.7392  1.1438 -0.1114
  587MOL0     C79163   0.800   9.690   4.478  0.5813 -0.0091  0.8239
  587MOL0     C79164   0.695   9.608   4.485 -0.7209 -0.1863  0.8121
  587MOL0     C79165   0.241   9.472   4.400 -0.1942  0.7552  0.6355
  587MOL0     C79166   0.131   9.436   4.318 -0.5805  0.1298 -0.5582
  587MOL0     C79167   0.017   9.367   4.369 -0.2828 -0.0949 -0.9734
  587MOL0     C79168   0.008   9.340   4.503  0.8764  0.0855  0.3533
  587MOL0     O79169  -0.086   9.267   4.563 -0.2309  0.1344  0.2208
  587MOL0     C79170  -0.183   9.194   4.487 -0.7312  0.3555  0.1027
  587MOL0     C79171  -0.311   9.275   4.485 -0.6717  0.0144  0.2624
  587MOL0     C79172  -0.382   9.271   4.624 -0.2415  0.7126  1.0119
  587MOL0     C79173  -0.448   9.146   4.661  0.8440 -0.3358 -0.0623
  587MOL0     C79174  -0.574   9.125   4.595 -0.6861  0.6501 -0.2558
  587MOL0     C79175  -0.682   9.119   4.539 -0.1746 -0.0098  0.0339
  587MOL0     C79176   0.115   9.384   4.586 -0.0813  0.2647  0.5366
  587MOL0     C79177   0.225   9.449   4.536 -0.0127 -0.0663 -0.3613
  587MOL0     H79178   0.531   9.709   4.208 -0.1294  3.1843 -0.9575
  587MOL0     H79179   0.715   9.868   4.202 -1.9755 -0.9579 -0.9790
  587MOL0     H79180   0.955   9.949   4.193 -1.0721  1.6745 -0.1207
  587MOL0     H79181   0.901  10.043   4.331  1.4794  0.6786  2.1976
  587MOL0     H79182   1.138   9.992   4.417 -1.6618 -3.4428 -0.2739
  587MOL0     H79183   1.181   9.943   4.256  0.0485 -1.3110  0.3516
  587MOL0     H79184   1.257  10.174   4.328 -0.7781  0.5580  2.3107
  587MOL0     H79185   1.164  10.166   4.181  0.9194 -0.7495 -0.0591
  587MOL0     H79186   1.012  10.226   4.444 -2.1474 -0.6171 -2.1140
  587MOL0     H79187   1.128  10.340   4.414  0.7678 -1.1232  1.2452
  587MOL0     H79188   0.884  10.275   4.219 -2.1337  0.7219  2.1665
  587MOL0     H79189   0.886  10.384   4.358 -0.4763 -1.9556  1.3003
  587MOL0     H79190   1.042  10.532   4.260  0.7374  2.0147 -2.4393
  587MOL0     H79191   1.066  10.412   4.123 -0.4000 -0.9618 -0.5455
  587MOL0     H79192   0.797  10.472   4.084 -0.8939  2.8535 -2.2827
  587MOL0     H79193   0.811  10.571   4.226  1.0212 -2.1881  1.8372
  587MOL0     H79194   0.855  10.664   3.980 -3.9969 -3.0295  1.5923
  587MOL0     H79195   1.016  10.622   4.032 -1.7865 -5.7172  1.2618
  587MOL0     H79196   1.101  10.753   4.260 -0.0328 -1.4279 -1.3913
  587MOL0     H79197   0.974  11.092   4.438 -0.1990  0.4882 -0.2321
  587MOL0     H79198   1.049  10.950   4.497  2.0192 -0.2045 -0.6402
  587MOL0     H79199   1.230  11.007   4.292 -1.3421 -0.0449 -1.1985
  587MOL0     H79200   1.230  11.105   4.440 -1.0457  1.5546  0.6701
  587MOL0     H79201   1.124  11.279   4.338 -0.3130  0.6726 -0.5631
  587MOL0     H79202   1.063  11.191   4.197  0.0266  1.9568 -1.0000
  587MOL0     H79203   1.299  11.148   4.116  0.4016 -0.6872  0.5347
  587MOL0     H79204   1.361  11.260   4.229 -0.5133 -0.8349  1.8636
  587MOL0     H79205   1.184  11.543   3.929  3.9924  2.2313 -2.5087
  587MOL0     H79206   1.090  11.861   4.001  0.1764 -2.9082  4.2567
  587MOL0     H79207   1.240  11.891   3.923  1.1288  0.2673  1.8007
  587MOL0     H79208   1.124  11.762   3.864  1.2059  0.4726 -0.3600
  587MOL0     H79209   1.493  11.964   4.531  2.1771  0.0688 -0.3375
  587MOL0     H79210   1.496  12.141   4.687  1.4806  0.3610 -0.9577
  587MOL0     H79211   1.518  12.349   4.772 -0.7853 -1.1826 -0.2673
  587MOL0     H79212   1.520  12.492   4.657 -1.1033  1.3362  0.9253
  587MOL0     H79213   1.350  12.605   4.789  2.2540  1.1908 -2.4228
  587MOL0     H79214   1.334  12.478   4.893  0.3662 -1.1903 -0.1134
  587MOL0     H79215   1.493  12.694   4.967 -0.5200  0.5143 -0.2522
  587MOL0     H79216   1.611  12.631   4.852  1.0273 -1.5537  1.5744
  587MOL0     H79217   1.489  12.475   5.081 -0.6423  0.3069 -1.2546
  587MOL0     H79218   1.645  12.439   4.993  0.9589  0.3655  1.7716
  587MOL0     H79219   1.611  12.667   5.179  0.9125 -1.3098  2.3340
  587MOL0     H79220   1.754  12.621   5.078  0.0457 -1.2963 -0.9118
  587MOL0     H79221   1.629  12.435   5.284  0.0364  0.9814  0.9304
  587MOL0     H79222   1.778  12.419   5.191 -1.7669  0.6416 -2.5770
  587MOL0     H79223   1.718  12.649   5.402 -1.0537  0.0592 -2.0327
  587MOL0     H79224   1.867  12.632   5.308  0.3660 -1.5062 -0.3461
  587MOL0     H79225   1.746  12.433   5.501 -4.0655  2.7220 -1.3893
  587MOL0     H79226   1.854  12.573   5.552  0.9574  0.1019 -0.7269
  587MOL0     H79227   1.187  12.349   4.451  1.0335  0.8510 -0.7461
  587MOL0     H79228   1.171  12.153   4.305 -2.0510  0.3619  1.9797
  587MOL0     H79229   1.290  11.679   4.388 -1.1828 -3.2640 -0.2837
  587MOL0     H79230   1.337  11.471   4.329 -0.9070  1.0405  1.9012
  587MOL0     H79231   0.882   9.677   4.548 -2.0847  3.3912  5.0602
  587MOL0     H79232   0.688   9.548   4.576  1.7579  0.7957  1.7569
  587MOL0     H79233   0.117   9.471   4.216 -0.0066  0.6946 -0.4515
  587MOL0     H79234  -0.066   9.360   4.300  1.3081  0.7315 -3.0694
  587MOL0     H79235  -0.154   9.166   4.386 -1.9492 -0.7402  0.0294
  587MOL0     H79236  -0.196   9.096   4.533 -0.5625  0.1912 -0.2044
  587MOL0     H79237  -0.382   9.243   4.408 -0.0121 -1.8112  0.3632
  587MOL0     H79238  -0.282   9.377   4.460 -0.9324 -0.1322 -0.6459
  587MOL0     H79239  -0.444   9.360   4.634 -3.8906 -1.8074  3.3759
  587MOL0     H79240  -0.302   9.283   4.698  0.4864 -4.6097  1.5362
  587MOL0     H79241  -0.475   9.170   4.764  0.4737  2.1893 -0.6792
  587MOL0     H79242  -0.381   9.059   4.652 -0.0232 -0.9805 -0.4958
  587MOL0     H79243  -0.773   9.128   4.482  1.2377  3.4989 -2.0055
  587MOL0     H79244   0.130   9.359   4.690  1.1262 -1.5150 -0.0105
  587MOL0     H79245   0.306   9.483   4.600  1.3896 -4.5813  0.6268
  588MOL0     O79246   2.892   9.354   9.593  0.0877  0.0649  0.2779
  588MOL0     C79247   2.896   9.299   9.484 -0.4874 -0.4326 -0.3003
  588MOL0     O79248   2.806   9.316   9.381  0.4345 -0.1961  0.4094
  588MOL0     C79249   2.701   9.409   9.400 -0.8352  0.1284  0.4648
  588MOL0     C79250   2.729   9.538   9.426 -0.8484 -1.2827  0.6376
  588MOL0     C79251   2.636   9.635   9.412 -0.1484  0.1829 -0.3748
  588MOL0     C79252   2.502   9.609   9.394  0.5502 -0.2901  0.2424
  588MOL0     O79253   2.420   9.716   9.360 -0.4553  0.0852  0.1033
  588MOL0     C79254   2.288   9.705   9.299  0.9721 -0.7465  1.5096
  588MOL0     C79255   2.247   9.834   9.236  0.1144 -0.2780  0.1599
  588MOL0     C79256   2.256   9.946   9.336 -0.0549 -0.0344  1.0479
  588MOL0     C79257   2.143  10.032   9.301 -0.2500 -0.6552 -0.3743
  588MOL0     C79258   2.166  10.152   9.400 -0.3723  0.1209  0.8862
  588MOL0     C79259   2.087  10.275   9.372  0.1360  0.0923 -0.9144
  588MOL0     C79260   1.932  10.264   9.376 -1.4202 -0.1852  0.4229
  588MOL0     C79261   1.847  10.379   9.331  0.5919  0.1684  0.6889
  588MOL0     N79262   1.889  10.417   9.199  0.6462 -0.4158 -0.1684
  588MOL0     C79263   1.880  10.342   9.083  0.1209  0.6668  0.0463
  588MOL0     C79264   1.956  10.410   8.990 -0.0128  1.4150 -0.5383
  588MOL0     C79265   1.998  10.364   8.850 -0.2777 -0.1319 -0.5013
  588MOL0     C79266   2.141  10.285   8.840  0.2033  1.7393 -0.3915
  588MOL0     C79267   2.151  10.141   8.877  0.2887  0.4139 -0.5960
  588MOL0     C79268   2.061  10.057   8.793  0.0800  0.6271  0.3419
  588MOL0     O79269   2.073   9.918   8.832 -0.2652  0.1185  0.1923
  588MOL0     C79270   1.998   9.863   8.930  0.4473  0.6266  0.1392
  588MOL0     C79271   1.894   9.919   9.007  0.0584 -0.7824  0.0292
  588MOL0     C79272   1.817   9.848   9.101  0.3562 -0.3610 -1.0056
  588MOL0     C79273   1.706   9.921   9.170 -0.0152  0.4957 -0.6849
  588MOL0     C79274   1.839   9.710   9.123 -0.0805  1.1000 -1.1376
  588MOL0     C79275   1.775   9.618   9.221 -0.1652 -0.3379  0.0425
  588MOL0     O79276   1.636   9.642   9.234  0.5858  0.2725 -0.2679
  588MOL0     C79277   1.559   9.577   9.320  0.7403  0.6263  0.7533
  588MOL0     C79278   1.600   9.508   9.436 -0.4797 -1.1677 -0.1858
  588MOL0     C79279   1.516   9.451   9.525 -0.1136  0.1121  0.7461
  588MOL0     C79280   1.382   9.451   9.499 -0.8227 -0.0926  0.4214
  588MOL0     O79281   1.290   9.388   9.567  0.1369 -0.7341  0.7378
  588MOL0     C79282   1.303   9.383   9.710 -0.2124  0.4028  0.3262
  588MOL0     C79283   1.179   9.351   9.803 -0.1219 -0.7512  0.1495
  588MOL0     C79284   1.131   9.206   9.796 -0.0270  0.4318 -0.0872
  588MOL0     C79285   1.223   9.107   9.867 -0.4061 -0.1446 -0.4495
  588MOL0     C79286   1.145   8.978   9.914  0.3728 -0.7595  0.1908
  588MOL0     C79287   1.144   8.885   9.797  0.4021 -0.4388 -0.2202
  588MOL0     C79288   1.047   8.778   9.821 -0.3019  0.6480 -0.4707
  588MOL0     C79289   1.055   8.664   9.719 -0.7993 -0.2332 -0.1610
  588MOL0    Cl79290   0.982   8.524   9.795 -0.3624  0.0706 -0.0495
  588MOL0     C79291   1.332   9.522   9.388 -0.5161 -0.5025  0.4471
  588MOL0     C79292   1.421   9.581   9.296  0.1795  0.1189  0.7172
  588MOL0     O79293   1.836   9.529   9.277  0.1120  0.2425  0.5883
  588MOL0     C79294   1.947   9.655   9.054  0.8286  0.0482  0.4666
  588MOL0     C79295   2.028   9.730   8.967 -0.4385 -0.6781  0.0434
  588MOL0     N79296   2.008  10.527   9.047  0.6667  0.7679 -0.0036
  588MOL0     N79297   1.973  10.521   9.174  0.3956 -0.4949  0.7168
  588MOL0     C79298   2.466   9.474   9.376 -0.2319  0.1641  0.6297
  588MOL0     C79299   2.567   9.373   9.384 -0.1454 -0.9272 -0.5279
  588MOL0     C79300   3.008   9.195   9.470 -0.1403  0.5439  0.5525
  588MOL0     C79301   2.992   9.083   9.389  0.3022  0.0958  0.7951
  588MOL0     C79302   3.091   8.989   9.389 -0.3578 -0.1258  0.2263
  588MOL0     C79303   3.207   8.992   9.467 -0.5653 -0.0932 -0.0736
  588MOL0     O79304   3.309   8.901   9.458 -0.0174 -0.5341 -0.4728
  588MOL0     C79305   3.296   8.781   9.375  0.7170 -0.2575  0.0467
  588MOL0     C79306   3.406   8.680   9.366 -0.7691 -0.0935 -1.0747
  588MOL0     C79307   3.372   8.537   9.331  0.4870 -0.1472 -0.6162
  588MOL0     C79308   3.304   8.525   9.197  0.0835 -0.7161 -0.8227
  588MOL0     C79309   3.282   8.392   9.155 -0.2755  1.0247  0.2015
  588MOL0     C79310   3.258   8.289   9.102  0.3018  0.8845  0.3154
  588MOL0     C79311   3.225   9.105   9.536 -0.1180  0.3921 -0.2729
  588MOL0     C79312   3.129   9.207   9.539  0.2364  0.0219 -0.3390
  588MOL0     H79313   2.834   9.560   9.444  0.0275 -2.3940 -2.5570
  588MOL0     H79314   2.676   9.735   9.426 -0.7740  0.5874 -1.3531
  588MOL0     H79315   2.282   9.625   9.224  0.1367  1.1322 -0.5734
  588MOL0     H79316   2.216   9.682   9.378 -1.4267 -0.2281 -0.4047
  588MOL0     H79317   2.298   9.863   9.144 -0.0929  2.1562  0.7646
  588MOL0     H79318   2.143   9.807   9.215  0.7560 -1.4891 -1.8232
  588MOL0     H79319   2.252   9.923   9.443 -1.3610  3.3556  1.8416
  588MOL0     H79320   2.360   9.977   9.323  0.6185 -1.8192  1.9247
  588MOL0     H79321   2.156  10.069   9.198  1.7041  3.0863  1.0149
  588MOL0     H79322   2.046   9.986   9.320  0.1346 -0.2082  3.4354
  588MOL0     H79323   2.144  10.132   9.505  1.7781 -0.0843  1.3448
  588MOL0     H79324   2.269  10.188   9.395  0.8015 -3.0825 -2.8694
  588MOL0     H79325   2.112  10.352   9.445  3.5628 -1.1627 -0.6158
  588MOL0     H79326   2.116  10.309   9.272  0.1378 -1.2124 -1.3684
  588MOL0     H79327   1.900  10.175   9.320 -1.9008  0.3143 -0.0993
  588MOL0     H79328   1.902  10.250   9.481 -4.0228  2.0019  0.0617
  588MOL0     H79329   1.859  10.468   9.394  0.6250 -0.4049  1.5122
  588MOL0     H79330   1.742  10.347   9.329  0.4871  0.3452  2.0373
  588MOL0     H79331   1.817  10.256   9.063  2.0889 -0.2192 -3.0531
  588MOL0     H79332   1.925  10.304   8.795 -0.3343 -0.6201  0.1038
  588MOL0     H79333   2.004  10.460   8.797 -0.4801  0.3956  0.3982
  588MOL0     H79334   2.212  10.341   8.901  0.7543 -1.5550  2.2815
  588MOL0     H79335   2.184  10.292   8.740  1.6184  0.5929  0.0943
  588MOL0     H79336   2.114  10.133   8.980 -0.4815 -2.8256 -1.0017
  588MOL0     H79337   2.253  10.101   8.884  0.1220  0.1648  0.5815
  588MOL0     H79338   2.097  10.070   8.691 -0.6649  3.1491  0.3442
  588MOL0     H79339   1.961  10.101   8.792  1.5362  4.2711  0.5268
  588MOL0     H79340   1.864  10.020   8.984 -1.0738 -1.1886 -0.3309
  588MOL0     H79341   1.701   9.933   9.279 -0.6175  0.4177 -0.6982
  588MOL0     H79342   1.712  10.026   9.139 -1.6153  0.5896 -0.7910
  588MOL0     H79343   1.613   9.881   9.130  0.5100 -0.3547 -1.0726
  588MOL0     H79344   1.703   9.493   9.467 -0.7120  0.9281  1.9257
  588MOL0     H79345   1.567   9.413   9.613 -0.8123  0.2849  1.2249
  588MOL0     H79346   1.387   9.325   9.751 -1.0546  1.4929  3.9081
  588MOL0     H79347   1.328   9.485   9.741  4.1376 -0.8588  1.7334
  588MOL0     H79348   1.202   9.377   9.907 -0.6681  4.1437 -0.7045
  588MOL0     H79349   1.088   9.407   9.777 -0.8361 -0.9411  2.0859
  588MOL0     H79350   1.113   9.176   9.692 -0.1474 -0.4614  0.1836
  588MOL0     H79351   1.033   9.204   9.844 -1.5275  2.3231 -2.8153
  588MOL0     H79352   1.301   9.080   9.796 -2.2138 -1.5255 -2.0498
  588MOL0     H79353   1.262   9.152   9.958  2.2929 -0.5055 -1.3354
  588MOL0     H79354   1.048   9.010   9.952  0.8718  0.1802  0.7241
  588MOL0     H79355   1.186   8.924  10.000  0.0786 -0.4048  0.5538
  588MOL0     H79356   1.118   8.940   9.706 -2.9559  3.8624  2.9199
  588MOL0     H79357   1.246   8.847   9.783 -0.4375 -3.4584  0.9344
  588MOL0     H79358   0.942   8.809   9.815 -0.8830 -0.9486  0.7266
  588MOL0     H79359   1.074   8.743   9.921 -3.0005 -0.8600 -0.1774
  588MOL0     H79360   1.156   8.631   9.691 -2.0100 -2.6730 -2.0041
  588MOL0     H79361   0.999   8.685   9.627  2.2452 -1.6509 -2.5166
  588MOL0     H79362   1.224   9.517   9.378 -0.5095  0.1347 -0.0272
  588MOL0     H79363   1.380   9.627   9.207 -0.0451 -1.9799 -0.3304
  588MOL0     H79364   1.975   9.551   9.070 -1.1590 -1.2018 -2.9636
  588MOL0     H79365   2.120   9.690   8.927 -0.2104 -0.1717  0.0637
  588MOL0     H79366   2.369   9.449   9.335 -0.0023 -2.7696  1.6219
  588MOL0     H79367   2.546   9.267   9.370  1.5578 -1.5103  0.9522
  588MOL0     H79368   2.896   9.059   9.344  0.9125 -2.3118  0.6211
  588MOL0     H79369   3.077   8.893   9.340  3.9958  0.2952 -2.3888
  588MOL0     H79370   3.205   8.727   9.402  0.7082 -1.4630 -2.1285
  588MOL0     H79371   3.292   8.813   9.271 -1.2576 -0.7698 -0.0839
  588MOL0     H79372   3.458   8.664   9.462 -0.1958 -0.5952 -1.4627
  588MOL0     H79373   3.489   8.715   9.303  0.1984  1.6419  1.0321
  588MOL0     H79374   3.322   8.481   9.411 -0.8877  0.6105 -0.9042
  588MOL0     H79375   3.462   8.476   9.319  1.0225  0.3381  0.7652
  588MOL0     H79376   3.364   8.575   9.120 -0.0978 -2.6167 -2.2552
  588MOL0     H79377   3.209   8.578   9.192 -0.1204 -1.2158 -4.0709
  588MOL0     H79378   3.248   8.197   9.048  2.9059 -0.6220  2.1602
  588MOL0     H79379   3.316   9.114   9.594 -0.6403 -0.2450  0.6878
  588MOL0     H79380   3.147   9.295   9.599 -1.6000 -0.1306  0.5033
  589MOL0     O79381   2.722   6.011   5.372  0.2401  0.1576  0.0662
  589MOL0     C79382   2.616   5.993   5.437  0.1324 -0.1703 -0.6950
  589MOL0     O79383   2.510   6.075   5.450 -0.2356  0.9434 -0.3240
  589MOL0     C79384   2.502   6.203   5.400 -0.6273  0.4574 -0.0565
  589MOL0     C79385   2.391   6.268   5.449  0.2490 -0.5206 -0.0640
  589MOL0     C79386   2.369   6.405   5.398 -0.3712  0.2066  0.3105
  589MOL0     C79387   2.459   6.460   5.308  0.9103 -1.0816  0.0228
  589MOL0     O79388   2.422   6.590   5.276 -0.4382  0.2014  0.1703
  589MOL0     C79389   2.531   6.683   5.285 -0.0148 -0.3026  0.2854
  589MOL0     C79390   2.480   6.821   5.242  0.5541  0.0677 -1.4104
  589MOL0     C79391   2.601   6.913   5.239 -0.1779 -0.4323 -0.1077
  589MOL0     C79392   2.548   7.060   5.246 -0.6957 -0.4710  1.0364
  589MOL0     C79393   2.659   7.163   5.268  0.3203  0.5016 -0.8665
  589MOL0     C79394   2.633   7.312   5.262  0.9259  0.2336  0.4408
  589MOL0     C79395   2.670   7.386   5.129 -1.2357 -0.4071  0.0469
  589MOL0     C79396   2.642   7.319   4.995 -0.2512  0.0321 -0.6661
  589MOL0     N79397   2.724   7.377   4.885  0.3472 -0.9921 -0.3079
  589MOL0     C79398   2.702   7.500   4.834 -0.0205 -0.4600 -0.1241
  589MOL0     C79399   2.811   7.528   4.750 -0.3962  0.4803  0.8102
  589MOL0     C79400   2.829   7.654   4.670  0.1145  0.4204  0.4012
  589MOL0     C79401   2.971   7.679   4.618  0.0235  0.1100  0.1761
  589MOL0     C79402   3.077   7.721   4.711 -0.5003 -0.0273 -0.2197
  589MOL0     C79403   3.179   7.608   4.725  0.3992  0.5616  0.0915
  589MOL0     O79404   3.261   7.642   4.835  0.4850  0.1606 -0.9434
  589MOL0     C79405   3.244   7.588   4.962 -0.3922 -0.0558  1.3175
  589MOL0     C79406   3.347   7.562   5.049  1.0282 -0.5121 -0.1349
  589MOL0     C79407   3.327   7.510   5.182  0.0016 -0.6585 -0.8083
  589MOL0     C79408   3.451   7.542   5.267 -0.3344 -0.1529  0.5826
  589MOL0     C79409   3.190   7.470   5.218 -0.0272 -0.3282 -0.3114
  589MOL0     C79410   3.150   7.422   5.358  0.1293 -0.0472  0.1687
  589MOL0     O79411   3.016   7.407   5.388 -0.2860 -0.8429 -0.2060
  589MOL0     C79412   2.978   7.302   5.477 -0.4127 -0.8144 -0.3656
  589MOL0     C79413   3.022   7.174   5.467  0.0033  0.8898  0.0857
  589MOL0     C79414   2.987   7.070   5.561  0.2606 -0.8986  0.2609
  589MOL0     C79415   2.881   7.098   5.653 -0.5854  0.4608  0.1921
  589MOL0     O79416   2.829   7.002   5.728 -0.4135 -0.4719  0.2306
  589MOL0     C79417   2.916   6.925   5.815 -1.1742 -0.3733 -0.9137
  589MOL0     C79418   2.975   7.013   5.924  1.3955 -0.2363  0.1616
  589MOL0     C79419   2.882   7.120   5.988 -0.2670 -0.8823 -0.2176
  589MOL0     C79420   2.767   7.052   6.051 -0.4124  0.0390  0.0808
  589MOL0     C79421   2.718   7.133   6.176 -1.6340  0.2498 -0.5375
  589MOL0     C79422   2.579   7.073   6.218  0.1395 -0.7356 -0.7719
  589MOL0     C79423   2.475   7.156   6.137 -0.8736  0.3261 -0.4911
  589MOL0     C79424   2.342   7.089   6.124  0.3703  0.4322 -0.9329
  589MOL0    Cl79425   2.224   7.225   6.097 -0.2252  0.1419 -0.0197
  589MOL0     C79426   2.831   7.227   5.651  0.0066  0.1333 -0.7900
  589MOL0     C79427   2.880   7.332   5.579 -0.3482 -0.1693  0.8107
  589MOL0     O79428   3.240   7.373   5.430 -0.0932 -0.9704  0.3400
  589MOL0     C79429   3.092   7.497   5.124 -0.0920  0.3337  0.4118
  589MOL0     C79430   3.112   7.558   4.999 -1.4665  0.3968 -0.5173
  589MOL0     N79431   2.891   7.414   4.750  0.4832  0.3647  0.0089
  589MOL0     N79432   2.838   7.326   4.833  0.0152  0.1737 -0.2899
  589MOL0     C79433   2.564   6.395   5.256  0.0146  1.0413 -0.2119
  589MOL0     C79434   2.584   6.265   5.304 -0.4290  0.2344  0.1542
  589MOL0     C79435   2.621   5.876   5.506  0.1773  0.3454 -0.0991
  589MOL0     C79436   2.674   5.755   5.454 -0.2105  0.2203  0.1471
  589MOL0     C79437   2.666   5.631   5.520 -0.7067 -0.3244 -0.5146
  589MOL0     C79438   2.583   5.617   5.629 -0.7681 -0.2759 -0.2358
  589MOL0     O79439   2.580   5.497   5.696  0.2406  0.0223 -0.3732
  589MOL0     C79440   2.675   5.498   5.806 -0.5166  0.1641 -0.0115
  589MOL0     C79441   2.610   5.526   5.939  1.1686 -0.7175 -0.3066
  589MOL0     C79442   2.709   5.538   6.061 -0.5955  0.1908  0.1748
  589MOL0     C79443   2.651   5.565   6.199  0.3932 -0.1235 -0.6545
  589MOL0     C79444   2.747   5.582   6.305  0.2956  0.6965  0.7175
  589MOL0     C79445   2.811   5.566   6.404  0.6002  0.0673 -0.1698
  589MOL0     C79446   2.510   5.732   5.668 -0.2268 -0.1187 -0.4279
  589MOL0     C79447   2.530   5.857   5.611  0.9691  0.0274  0.1316
  589MOL0     H79448   2.313   6.228   5.512 -1.2474  0.1332 -1.4274
  589MOL0     H79449   2.304   6.482   5.441  1.9588  2.2180  0.4275
  589MOL0     H79450   2.544   6.693   5.393  0.8175  1.5836  0.0382
  589MOL0     H79451   2.616   6.661   5.219 -0.2493 -1.1591  0.2537
  589MOL0     H79452   2.432   6.828   5.144  2.9789  1.5196 -2.6302
  589MOL0     H79453   2.407   6.855   5.315 -1.6613 -2.2960 -2.4121
  589MOL0     H79454   2.666   6.896   5.325  0.9415  0.4608 -0.7489
  589MOL0     H79455   2.641   6.885   5.141 -0.2502 -0.1284 -0.2241
  589MOL0     H79456   2.493   7.079   5.154 -0.0931 -1.5109  0.4472
  589MOL0     H79457   2.474   7.066   5.326 -1.8069 -0.1048  0.0117
  589MOL0     H79458   2.687   7.137   5.371 -2.2012 -2.8730 -0.8300
  589MOL0     H79459   2.739   7.139   5.198 -1.6684  1.3404 -3.6134
  589MOL0     H79460   2.528   7.320   5.291  1.0098  0.9124  0.5789
  589MOL0     H79461   2.680   7.361   5.347  2.1762 -0.3007  0.0802
  589MOL0     H79462   2.639   7.490   5.134  5.3710  1.9290  1.6658
  589MOL0     H79463   2.778   7.396   5.143 -1.4857  2.4882  0.3372
  589MOL0     H79464   2.537   7.339   4.971 -0.1157 -0.5472 -1.8328
  589MOL0     H79465   2.661   7.211   5.003  0.5562  0.1276 -1.1524
  589MOL0     H79466   2.609   7.556   4.843  0.2121  0.0448 -0.7869
  589MOL0     H79467   2.774   7.664   4.576  0.6759  2.4662  0.2460
  589MOL0     H79468   2.793   7.733   4.736 -2.3028  0.2461 -0.6204
  589MOL0     H79469   2.952   7.745   4.534  0.2133  1.9138  1.4888
  589MOL0     H79470   3.014   7.592   4.568 -0.3077  1.5884 -2.8935
  589MOL0     H79471   3.029   7.735   4.808 -2.2759  0.4096 -1.1238
  589MOL0     H79472   3.115   7.819   4.678 -4.5480  1.6088 -0.6266
  589MOL0     H79473   3.241   7.595   4.636 -3.6643  3.0259 -3.4990
  589MOL0     H79474   3.128   7.512   4.734  0.8623  0.3088  0.0453
  589MOL0     H79475   3.442   7.586   5.003  0.3588  3.2200  0.1290
  589MOL0     H79476   3.533   7.558   5.196  0.9381  3.0311  2.5832
  589MOL0     H79477   3.442   7.631   5.329  3.0206  0.4339  0.3665
  589MOL0     H79478   3.485   7.461   5.333 -1.3116 -0.5339  0.6513
  589MOL0     H79479   3.096   7.150   5.391 -1.3386  0.3685 -1.0984
  589MOL0     H79480   3.034   6.973   5.547 -0.9245 -1.1489 -2.6404
  589MOL0     H79481   2.859   6.850   5.870 -0.5140 -0.1106  0.1562
  589MOL0     H79482   3.000   6.879   5.761  1.6082  1.8064  1.2561
  589MOL0     H79483   3.031   6.959   6.001  2.2743  2.0222  1.1892
  589MOL0     H79484   3.057   7.055   5.864  0.6378 -2.1734 -2.4234
  589MOL0     H79485   2.846   7.189   5.912 -2.7188 -1.5772  0.2469
  589MOL0     H79486   2.938   7.189   6.051 -2.2127  0.1404  0.4629
  589MOL0     H79487   2.693   7.047   5.971  1.6323 -0.0891 -1.9236
  589MOL0     H79488   2.800   6.951   6.079 -0.8997 -0.6596 -1.7119
  589MOL0     H79489   2.715   7.240   6.157 -0.2833  0.2129 -1.1038
  589MOL0     H79490   2.782   7.099   6.258 -0.8073 -2.3750 -2.1215
  589MOL0     H79491   2.571   6.965   6.202 -3.7453 -0.5421 -1.0806
  589MOL0     H79492   2.563   7.094   6.324 -0.7304  3.3886 -1.5408
  589MOL0     H79493   2.507   7.188   6.038 -0.3086  2.2735  0.2786
  589MOL0     H79494   2.469   7.246   6.198  3.5919  1.5718 -1.5479
  589MOL0     H79495   2.304   7.031   6.209  2.2514  2.1342  1.2034
  589MOL0     H79496   2.350   7.015   6.044  1.8983 -1.0978  0.5725
  589MOL0     H79497   2.754   7.246   5.726  1.1290  4.7599 -0.5447
  589MOL0     H79498   2.842   7.433   5.582 -1.8827 -0.5671 -1.8282
  589MOL0     H79499   2.991   7.464   5.144  0.3158 -0.5212  1.2124
  589MOL0     H79500   3.021   7.573   4.942  0.7788 -1.1744 -4.9759
  589MOL0     H79501   2.623   6.436   5.174  0.4213  2.5806  0.8043
  589MOL0     H79502   2.670   6.215   5.259 -0.7248 -0.4117  0.3003
  589MOL0     H79503   2.727   5.738   5.361 -0.5740 -2.4829  0.3564
  589MOL0     H79504   2.727   5.550   5.482  3.3624  2.0609  0.2775
  589MOL0     H79505   2.716   5.397   5.807 -1.4214 -0.2719 -2.1284
  589MOL0     H79506   2.760   5.565   5.788 -0.0139 -0.7803 -1.2329
  589MOL0     H79507   2.537   5.450   5.966  0.1705 -0.4701 -2.1419
  589MOL0     H79508   2.558   5.622   5.934  1.6659 -0.4198  0.1443
  589MOL0     H79509   2.776   5.616   6.025  0.0691 -0.9689 -1.1513
  589MOL0     H79510   2.757   5.440   6.065 -1.5695 -0.2900  0.4272
  589MOL0     H79511   2.584   5.482   6.221  2.2048 -0.8528  2.7062
  589MOL0     H79512   2.585   5.652   6.188  0.9554  0.0035 -4.2569
  589MOL0     H79513   2.863   5.556   6.497 -1.8391 -2.5870  1.0841
  589MOL0     H79514   2.447   5.726   5.757  2.2099  3.1789  1.7539
  589MOL0     H79515   2.476   5.938   5.659  0.6204  0.7930 -1.4704
  590MOL0     O79516   5.290   7.765  11.372 -0.2009  0.3762  0.1112
  590MOL0     C79517   5.316   7.885  11.391 -0.2895  0.9793 -1.3460
  590MOL0     O79518   5.253   7.970  11.486  0.0863 -0.6138  0.8118
  590MOL0     C79519   5.142   7.913  11.537  0.4290 -0.5715 -0.0126
  590MOL0     C79520   5.149   7.807  11.628 -0.6384 -0.4054  0.3494
  590MOL0     C79521   5.031   7.757  11.683 -0.6576 -0.1409 -0.0051
  590MOL0     C79522   4.907   7.788  11.626  0.2199 -0.5911 -0.2626
  590MOL0     O79523   4.801   7.724  11.674  0.0816  0.4768  0.0828
  590MOL0     C79524   4.747   7.788  11.799  1.0201 -0.0553  0.6724
  590MOL0     C79525   4.613   7.714  11.835  0.1868 -0.1492  0.4827
  590MOL0     C79526   4.494   7.743  11.731 -0.9158 -0.4101  0.2392
  590MOL0     C79527   4.442   7.891  11.737  0.4764 -0.9965  0.0306
  590MOL0     C79528   4.317   7.915  11.654 -0.0728 -0.1077 -0.1246
  590MOL0     C79529   4.349   7.896  11.496  0.1784  0.1176 -0.9053
  590MOL0     C79530   4.400   8.021  11.418 -0.2778  0.2085  1.0176
  590MOL0     C79531   4.391   7.998  11.270  0.3706 -0.2024  0.1592
  590MOL0     N79532   4.467   8.095  11.192  1.7981  0.2506 -0.3515
  590MOL0     C79533   4.597   8.123  11.211 -0.6251  0.6322  0.4077
  590MOL0     C79534   4.633   8.209  11.109  0.1100 -0.4395 -0.0476
  590MOL0     C79535   4.770   8.254  11.064  0.4792  0.4177 -0.9907
  590MOL0     C79536   4.830   8.313  11.192  0.2969  0.4380 -0.7604
  590MOL0     C79537   4.958   8.396  11.167 -0.3146 -0.1844 -0.7679
  590MOL0     C79538   5.040   8.393  11.298  0.1304  1.6801 -0.6911
  590MOL0     O79539   5.095   8.256  11.324 -0.9058  0.1614 -0.1806
  590MOL0     C79540   5.162   8.199  11.213 -0.2173  0.5520 -0.3357
  590MOL0     C79541   5.252   8.270  11.131 -0.1137 -0.0840  0.5350
  590MOL0     C79542   5.319   8.204  11.032  0.8563  0.1011 -0.0102
  590MOL0     C79543   5.403   8.302  10.941  1.2577  0.1646 -0.8000
  590MOL0     C79544   5.314   8.065  11.017 -0.7008 -0.2751 -0.7115
  590MOL0     C79545   5.406   7.985  10.934 -0.1303 -0.6709 -0.1109
  590MOL0     O79546   5.509   8.049  10.867  0.5723  0.0531 -0.5481
  590MOL0     C79547   5.593   7.992  10.776 -0.3762  0.2460 -0.1133
  590MOL0     C79548   5.670   8.076  10.699 -0.1928  0.4176  0.8349
  590MOL0     C79549   5.766   8.020  10.616  0.1036  0.0774  0.7031
  590MOL0     C79550   5.793   7.885  10.607  0.7658  1.0611  0.1310
  590MOL0     O79551   5.881   7.823  10.529 -0.2851  0.4543  0.0531
  590MOL0     C79552   5.997   7.899  10.485 -0.2008  0.0686  0.2323
  590MOL0     C79553   6.112   7.809  10.451 -0.2656  0.2874 -0.2260
  590MOL0     C79554   6.241   7.858  10.503 -0.9024 -0.6212  0.7450
  590MOL0     C79555   6.366   7.784  10.449  0.6863 -0.8452  0.7940
  590MOL0     C79556   6.360   7.636  10.456 -0.0043  1.1287 -0.5716
  590MOL0     C79557   6.495   7.550  10.453 -0.5202 -0.7221  0.9207
  590MOL0     C79558   6.587   7.576  10.335 -1.3962  0.0896  0.6390
  590MOL0     C79559   6.688   7.457  10.307  0.1765 -0.6760  0.5260
  590MOL0    Cl79560   6.813   7.471  10.435 -0.0785 -0.1414 -0.0594
  590MOL0     C79561   5.718   7.789  10.687  0.5031 -0.4348  0.0306
  590MOL0     C79562   5.619   7.848  10.762  0.0542  0.7284  0.2569
  590MOL0     O79563   5.388   7.864  10.928  0.3955  0.5133  0.2568
  590MOL0     C79564   5.216   7.998  11.096 -0.1894  0.1905 -0.1820
  590MOL0     C79565   5.143   8.064  11.188 -0.2943  0.2323  0.2858
  590MOL0     N79566   4.517   8.241  11.048  0.2527  0.5854 -0.5530
  590MOL0     N79567   4.418   8.168  11.094  0.0149 -0.4868  0.3762
  590MOL0     C79568   4.898   7.902  11.549 -0.1210  0.5819  0.2157
  590MOL0     C79569   5.011   7.961  11.504  0.5553  0.4569  0.0006
  590MOL0     C79570   5.438   7.934  11.328 -0.2878 -0.6307  0.9223
  590MOL0     C79571   5.473   8.068  11.358  0.0940  0.1113  0.6009
  590MOL0     C79572   5.587   8.128  11.302  0.1683 -0.1746  0.0713
  590MOL0     C79573   5.668   8.058  11.218  0.1870  0.0663  0.0371
  590MOL0     O79574   5.782   8.118  11.173  0.4112  0.0881  0.6268
  590MOL0     C79575   5.838   8.078  11.041 -0.1439 -0.7039 -0.6760
  590MOL0     C79576   5.938   7.966  11.055 -0.2836 -0.1049  0.2422
  590MOL0     C79577   6.014   7.914  10.932  0.7564  0.0646  0.9525
  590MOL0     C79578   6.132   7.833  10.966  0.3304 -1.2213 -1.1851
  590MOL0     C79579   6.241   7.922  11.012  0.3571  0.7488  0.4854
  590MOL0     C79580   6.305   8.006  11.058 -0.6880 -0.2306 -0.3819
  590MOL0     C79581   5.625   7.924  11.181 -0.0261 -0.1495 -0.7705
  590MOL0     C79582   5.506   7.867  11.231 -0.2540  0.1036  0.0253
  590MOL0     H79583   5.246   7.786  11.671 -0.6847  2.2821  1.9738
  590MOL0     H79584   5.027   7.696  11.773 -4.8203 -1.3808 -0.7940
  590MOL0     H79585   4.822   7.778  11.878 -0.5139 -1.1044  2.0649
  590MOL0     H79586   4.731   7.896  11.784 -2.7769 -0.2521  2.1286
  590MOL0     H79587   4.637   7.608  11.827  1.9584  0.2385  0.2721
  590MOL0     H79588   4.584   7.748  11.935  3.0453  1.6874  0.7905
  590MOL0     H79589   4.522   7.723  11.627 -1.1818  2.9763 -0.6004
  590MOL0     H79590   4.410   7.675  11.748 -0.4884 -0.7938  0.8705
  590MOL0     H79591   4.422   7.905  11.844  1.5015 -0.8540  0.2161
  590MOL0     H79592   4.511   7.971  11.712 -3.5041  3.4387  1.6758
  590MOL0     H79593   4.239   7.848  11.691 -1.7938  0.9950 -1.5979
  590MOL0     H79594   4.282   8.017  11.667  0.0426  0.0223 -0.7795
  590MOL0     H79595   4.411   7.807  11.482 -1.3731 -1.1547  0.0043
  590MOL0     H79596   4.255   7.885  11.440  1.5222 -1.6143 -2.9939
  590MOL0     H79597   4.339   8.107  11.447 -1.2549 -0.6884  1.7172
  590MOL0     H79598   4.500   8.051  11.451 -0.7938  4.3894 -0.5372
  590MOL0     H79599   4.287   8.000  11.238  0.1716  1.5050  0.8217
  590MOL0     H79600   4.429   7.904  11.228  1.3943  0.5524 -0.6441
  590MOL0     H79601   4.675   8.065  11.259  1.6709 -0.1951 -3.7653
  590MOL0     H79602   4.822   8.160  11.041 -0.1850 -0.6560  1.5524
  590MOL0     H79603   4.774   8.321  10.978 -1.3828  0.0394 -1.4108
  590MOL0     H79604   4.850   8.237  11.268 -2.5010  2.7655  2.6419
  590MOL0     H79605   4.753   8.369  11.246 -0.2234 -2.1092  1.3635
  590MOL0     H79606   4.947   8.501  11.136  1.1670  0.9010  2.0550
  590MOL0     H79607   5.014   8.354  11.083  1.7012  2.2318 -0.7497
  590MOL0     H79608   4.974   8.429  11.378  1.7158 -0.2963  1.6386
  590MOL0     H79609   5.119   8.466  11.278 -1.6986  3.1775 -2.9567
  590MOL0     H79610   5.261   8.378  11.131 -2.2983  0.2141  2.5439
  590MOL0     H79611   5.505   8.293  10.979  1.0497  2.4957  0.5425
  590MOL0     H79612   5.383   8.271  10.838 -1.3711 -0.3368 -0.2209
  590MOL0     H79613   5.369   8.405  10.932  2.2687  0.3916 -2.3688
  590MOL0     H79614   5.667   8.184  10.709  0.2501  0.6693 -1.2998
  590MOL0     H79615   5.838   8.080  10.562  0.6976 -0.5536  0.7713
  590MOL0     H79616   5.960   7.971  10.412 -3.2222  0.1760  1.7445
  590MOL0     H79617   6.036   7.955  10.570 -1.7023  3.9557 -1.4174
  590MOL0     H79618   6.096   7.713  10.501  4.8025 -0.7443 -0.0493
  590MOL0     H79619   6.125   7.797  10.343  0.5504 -0.4017 -0.0657
  590MOL0     H79620   6.239   7.857  10.612  0.6796 -1.8714  0.8025
  590MOL0     H79621   6.257   7.960  10.467 -1.1848 -1.6662 -2.6487
  590MOL0     H79622   6.398   7.810  10.348 -2.3424  1.4371  0.2933
  590MOL0     H79623   6.450   7.823  10.508  0.1648 -1.7057  2.1662
  590MOL0     H79624   6.303   7.597  10.371  0.5277 -1.5708  0.2120
  590MOL0     H79625   6.294   7.614  10.540 -2.2641  1.7004 -2.1242
  590MOL0     H79626   6.551   7.572  10.544  1.9492 -2.1718 -0.1625
  590MOL0     H79627   6.473   7.444  10.470  0.5695 -1.4496 -1.7041
  590MOL0     H79628   6.638   7.671  10.356 -1.0710  0.0222  0.1774
  590MOL0     H79629   6.535   7.591  10.241 -1.4806  1.9035  0.9411
  590MOL0     H79630   6.732   7.470  10.207 -1.7224 -3.4939 -0.8104
  590MOL0     H79631   6.634   7.362  10.306  0.3754 -0.7875  0.3037
  590MOL0     H79632   5.751   7.685  10.685  1.8358 -0.0234 -0.2557
  590MOL0     H79633   5.549   7.784  10.816 -2.3347  2.0423 -1.1284
  590MOL0     H79634   5.215   7.889  11.087  3.8798  0.0585 -0.7290
  590MOL0     H79635   5.080   8.013  11.260 -0.1858  0.3707  0.4779
  590MOL0     H79636   4.805   7.939  11.508  3.3791  4.5298 -5.6543
  590MOL0     H79637   5.008   8.047  11.437  1.1046  0.5574  0.0996
  590MOL0     H79638   5.427   8.132  11.433 -1.2188 -2.5159  2.1690
  590MOL0     H79639   5.604   8.229  11.337 -0.7722 -0.3716  1.1256
  590MOL0     H79640   5.756   8.056  10.972 -0.5714  3.8988 -1.9406
  590MOL0     H79641   5.895   8.158  10.994  0.0070  1.5582  2.9233
  590MOL0     H79642   5.875   7.884  11.092  0.0907 -0.7086 -0.4514
  590MOL0     H79643   6.015   7.991  11.128  0.7901 -0.1011 -0.8633
  590MOL0     H79644   6.048   7.994  10.865 -0.5217  1.9874  2.4956
  590MOL0     H79645   5.944   7.861  10.868  1.2452  0.4434  0.0869
  590MOL0     H79646   6.148   7.775  10.875 -2.4947 -0.6817 -2.1284
  590MOL0     H79647   6.109   7.761  11.045 -1.7082 -0.6450 -1.2014
  590MOL0     H79648   6.365   8.088  11.090  1.8962 -2.2248  0.2831
  590MOL0     H79649   5.678   7.864  11.107  1.5388  0.3021 -0.0548
  590MOL0     H79650   5.463   7.775  11.193  0.1311 -0.1806  0.2604
  591MOL0     O79651   3.202   2.634   5.755  0.7255  0.4326  0.7249
  591MOL0     C79652   3.092   2.689   5.736 -0.6331  1.3121 -1.1082
  591MOL0     O79653   2.969   2.633   5.729  0.6662 -1.0699 -0.3722
  591MOL0     C79654   2.942   2.529   5.818 -0.3467 -1.4234  0.6287
  591MOL0     C79655   2.914   2.548   5.955  0.3082  0.3713 -0.1300
  591MOL0     C79656   2.891   2.432   6.031  0.5502 -0.7916 -0.0738
  591MOL0     C79657   2.915   2.303   5.988 -0.1829  0.6930  0.5228
  591MOL0     O79658   2.891   2.185   6.050  0.1702 -0.2402 -0.5939
  591MOL0     C79659   2.786   2.189   6.142 -0.5218  0.1083 -0.2547
  591MOL0     C79660   2.731   2.050   6.183 -0.4676 -0.8519 -0.5163
  591MOL0     C79661   2.682   1.951   6.084 -0.1260 -0.3078  0.1290
  591MOL0     C79662   2.722   1.805   6.113  0.4654  0.6902 -0.1656
  591MOL0     C79663   2.723   1.743   6.250 -0.5208 -0.9515  0.1676
  591MOL0     C79664   2.581   1.724   6.299  0.2310  0.4501  0.0933
  591MOL0     C79665   2.560   1.666   6.438  0.1040 -0.1295  0.1631
  591MOL0     C79666   2.578   1.503   6.436 -0.1821 -0.7340  0.5924
  591MOL0     N79667   2.601   1.453   6.574  0.3201  0.7649  0.0166
  591MOL0     C79668   2.706   1.373   6.601 -0.3841 -1.0130  0.5662
  591MOL0     C79669   2.678   1.309   6.716 -0.0456 -0.2385 -0.3791
  591MOL0     C79670   2.753   1.204   6.798 -0.9177  0.7791 -0.1154
  591MOL0     C79671   2.670   1.082   6.847  0.4222  1.2633  0.0045
  591MOL0     C79672   2.633   0.989   6.729  0.5495 -0.1004  0.4139
  591MOL0     C79673   2.568   0.859   6.773  0.8208 -0.2090 -0.1895
  591MOL0     O79674   2.433   0.886   6.811  0.7178  0.3652  0.8317
  591MOL0     C79675   2.336   0.892   6.716 -1.0061  0.0337 -0.5933
  591MOL0     C79676   2.200   0.907   6.767 -0.1244  0.0329  0.7919
  591MOL0     C79677   2.083   0.906   6.674 -0.0625  0.0926 -0.3392
  591MOL0     C79678   1.952   0.941   6.743  1.0764 -0.0578  0.7177
  591MOL0     C79679   2.103   0.891   6.533 -0.1721  0.2145  0.2447
  591MOL0     C79680   1.989   0.890   6.432 -0.0490  0.4215  0.1644
  591MOL0     O79681   1.860   0.839   6.469 -0.3349  0.1653  0.2718
  591MOL0     C79682   1.757   0.845   6.386 -0.4658 -0.4604  0.4044
  591MOL0     C79683   1.684   0.961   6.380  0.0389  0.5631 -0.5044
  591MOL0     C79684   1.585   0.978   6.287  0.7203  0.5029 -0.7720
  591MOL0     C79685   1.560   0.883   6.188  1.4226 -0.1007 -0.4074
  591MOL0     O79686   1.459   0.919   6.103  0.9869 -0.3390  0.3937
  591MOL0     C79687   1.459   0.872   5.968 -0.4336  0.8437  0.2488
  591MOL0     C79688   1.340   0.938   5.896  1.4583  0.5407 -0.9355
  591MOL0     C79689   1.277   0.842   5.787 -0.2478 -0.6166  0.6306
  591MOL0     C79690   1.201   0.911   5.675  0.2549  0.7531 -0.4553
  591MOL0     C79691   1.063   0.945   5.723  0.4084 -0.5437  0.1582
  591MOL0     C79692   0.971   0.942   5.599 -0.6221  0.2804 -0.7024
  591MOL0     C79693   0.822   0.973   5.654 -0.9540  1.0603 -1.3690
  591MOL0     C79694   0.736   1.006   5.540 -0.1694  0.6290 -0.2429
  591MOL0    Cl79695   0.740   0.893   5.403 -0.1120  0.6129  0.2647
  591MOL0     C79696   1.643   0.772   6.178  0.0726  0.0219  1.0180
  591MOL0     C79697   1.742   0.752   6.277 -0.0986 -0.1228  0.5356
  591MOL0     O79698   2.018   0.923   6.314  0.4771  0.0286  0.6753
  591MOL0     C79699   2.229   0.899   6.487 -0.3032  0.5059  0.2709
  591MOL0     C79700   2.341   0.886   6.576 -0.1506  0.1652  0.4502
  591MOL0     N79701   2.554   1.355   6.755 -0.1588  0.0202  0.0824
  591MOL0     N79702   2.507   1.436   6.671  0.2799  0.4484  0.8532
  591MOL0     C79703   2.978   2.292   5.863  0.6100  0.1406 -0.7906
  591MOL0     C79704   2.983   2.402   5.776  1.2070  0.7007  0.8913
  591MOL0     C79705   3.105   2.833   5.707  0.0080 -1.0374  0.4664
  591MOL0     C79706   3.224   2.884   5.653  0.1566 -0.5570  0.8498
  591MOL0     C79707   3.238   3.024   5.621 -0.6824  0.0245 -0.0776
  591MOL0     C79708   3.129   3.112   5.628 -0.5382 -0.1450 -0.2271
  591MOL0     O79709   3.148   3.233   5.567 -0.4639  0.6815  0.4212
  591MOL0     C79710   3.027   3.313   5.556 -0.1480 -0.3150 -0.3897
  591MOL0     C79711   3.079   3.454   5.517 -0.0981 -0.8205 -0.1294
  591MOL0     C79712   3.106   3.560   5.627  0.5636  0.1344 -0.4037
  591MOL0     C79713   3.178   3.692   5.570 -0.6556  0.4675 -0.7345
  591MOL0     C79714   3.121   3.780   5.470  1.2114  0.4979 -0.1802
  591MOL0     C79715   3.052   3.835   5.388  0.1061 -0.8774  0.8241
  591MOL0     C79716   3.005   3.059   5.672  0.1796  0.7152  0.5355
  591MOL0     C79717   2.994   2.921   5.708 -0.0851  0.2467 -0.5416
  591MOL0     H79718   2.908   2.649   5.996 -0.3950  1.3583 -2.5022
  591MOL0     H79719   2.857   2.437   6.134 -2.5236 -3.3227 -0.8212
  591MOL0     H79720   2.818   2.249   6.227  0.9581  1.5088 -1.7181
  591MOL0     H79721   2.698   2.241   6.103 -0.6588 -0.7118 -1.0679
  591MOL0     H79722   2.826   2.012   6.221 -1.0727 -1.2435  0.6627
  591MOL0     H79723   2.660   2.055   6.266  0.3385 -1.2784  0.2166
  591MOL0     H79724   2.574   1.963   6.086 -0.1307  0.0065  3.1746
  591MOL0     H79725   2.720   1.972   5.983  2.9291 -0.9711  1.0194
  591MOL0     H79726   2.672   1.734   6.047  0.2930  1.2210 -0.6130
  591MOL0     H79727   2.829   1.798   6.091  0.4847  0.4614 -0.0073
  591MOL0     H79728   2.760   1.640   6.242  1.2100 -0.7838  3.7651
  591MOL0     H79729   2.802   1.784   6.314  0.0304 -2.5930  0.5858
  591MOL0     H79730   2.540   1.826   6.303  0.4895  0.5887 -0.6136
  591MOL0     H79731   2.525   1.663   6.228  2.9381  1.4366 -3.1610
  591MOL0     H79732   2.635   1.690   6.513 -2.0192 -0.2989  2.4608
  591MOL0     H79733   2.463   1.699   6.476 -0.2076 -1.2702  0.4199
  591MOL0     H79734   2.656   1.475   6.365  1.4790 -3.1067  3.1710
  591MOL0     H79735   2.484   1.456   6.405 -0.6448  0.4197  0.1861
  591MOL0     H79736   2.800   1.364   6.547  1.1826 -2.0701  3.2407
  591MOL0     H79737   2.825   1.164   6.725  0.0100 -0.2774  1.3245
  591MOL0     H79738   2.807   1.251   6.880 -0.1149  1.2060 -0.8658
  591MOL0     H79739   2.578   1.112   6.898  0.8140  4.5104 -0.9794
  591MOL0     H79740   2.741   1.026   6.909 -0.3974 -1.8688 -1.6402
  591MOL0     H79741   2.722   0.954   6.675  1.0607  1.5897  0.1169
  591MOL0     H79742   2.565   1.045   6.664  3.0902  1.9882 -0.6107
  591MOL0     H79743   2.620   0.805   6.853 -0.1482  0.4452  0.9126
  591MOL0     H79744   2.576   0.782   6.695  1.0554  1.8977 -2.3458
  591MOL0     H79745   2.193   0.933   6.872  3.6978  0.7365  1.0258
  591MOL0     H79746   1.883   1.000   6.682 -0.5172 -1.7322  0.8102
  591MOL0     H79747   1.901   0.851   6.780  0.4477  0.1634  0.4063
  591MOL0     H79748   1.980   0.971   6.844  1.8316 -3.3301  1.6240
  591MOL0     H79749   1.700   1.041   6.451 -0.5251  0.7493 -0.5889
  591MOL0     H79750   1.517   1.060   6.264  0.1046 -0.4458 -2.4679
  591MOL0     H79751   1.554   0.887   5.916 -1.3794 -1.5559 -2.4467
  591MOL0     H79752   1.439   0.765   5.965 -2.2404  1.1549 -1.2029
  591MOL0     H79753   1.264   0.983   5.960  0.7871  1.1062 -2.1004
  591MOL0     H79754   1.385   1.025   5.849  6.2894 -0.8859  0.4513
  591MOL0     H79755   1.212   0.766   5.833  0.7181 -2.0751 -0.3341
  591MOL0     H79756   1.359   0.788   5.739 -1.0882 -2.4271  1.1332
  591MOL0     H79757   1.252   0.996   5.629 -0.0928  2.6017  2.2990
  591MOL0     H79758   1.178   0.836   5.600  1.0281  1.0919 -1.0388
  591MOL0     H79759   1.077   1.046   5.760  0.7712  1.0112 -3.7897
  591MOL0     H79760   1.036   0.870   5.798  3.2901 -2.4221 -0.5266
  591MOL0     H79761   1.008   1.010   5.521 -0.3270 -2.1403 -2.8125
  591MOL0     H79762   0.981   0.843   5.555 -0.9591 -0.4053  0.7189
  591MOL0     H79763   0.837   1.052   5.729  0.1442 -0.6687  0.3496
  591MOL0     H79764   0.772   0.887   5.700  2.1090  0.2069  0.7629
  591MOL0     H79765   0.773   1.103   5.504  1.5558  0.7234  1.6229
  591MOL0     H79766   0.637   1.033   5.578 -0.1265  1.5951 -0.7911
  591MOL0     H79767   1.622   0.700   6.100 -0.3228  3.2877 -2.1289
  591MOL0     H79768   1.793   0.658   6.263 -2.6688 -1.4992 -0.3510
  591MOL0     H79769   2.255   0.902   6.382 -0.2497  0.1463  0.2706
  591MOL0     H79770   2.443   0.895   6.539 -0.2783 -2.6284 -0.8343
  591MOL0     H79771   3.001   2.193   5.825  0.0245 -0.1983 -0.2864
  591MOL0     H79772   3.016   2.403   5.673 -0.8090  0.3078  0.1792
  591MOL0     H79773   3.296   2.803   5.642  0.6917 -0.1643  1.3663
  591MOL0     H79774   3.329   3.067   5.581 -0.5990 -1.8396 -2.0970
  591MOL0     H79775   2.959   3.282   5.476  1.3337  0.9863 -2.2356
  591MOL0     H79776   2.968   3.323   5.648 -2.8417 -3.4686 -1.5816
  591MOL0     H79777   3.019   3.501   5.439  2.1116  1.0239 -0.8457
  591MOL0     H79778   3.172   3.430   5.465 -0.6807 -0.8988 -1.1439
  591MOL0     H79779   3.155   3.510   5.711 -1.6840 -0.2794  0.7329
  591MOL0     H79780   3.009   3.596   5.663  0.6540 -1.8970  2.1375
  591MOL0     H79781   3.278   3.674   5.531 -0.3098  0.1433  0.2682
  591MOL0     H79782   3.190   3.751   5.661  0.6448  0.1923 -0.7079
  591MOL0     H79783   2.984   3.872   5.315  0.2487 -1.4475  0.3979
  591MOL0     H79784   2.918   3.122   5.686 -0.0740  0.4705  0.0622
  591MOL0     H79785   2.894   2.887   5.733 -0.4959 -0.2335 -2.6409
  592MOL0     O79786  10.567  10.665   8.073  0.2974  0.9015 -0.1468
  592MOL0     C79787  10.609  10.649   8.187 -1.1414  0.0663  0.7292
  592MOL0     O79788  10.539  10.668   8.296  0.0404  0.1602 -1.2233
  592MOL0     C79789  10.392  10.665   8.296 -1.2009  0.4921 -0.0247
  592MOL0     C79790  10.327  10.778   8.254  0.4385 -0.5947  0.0965
  592MOL0     C79791  10.190  10.795   8.286 -1.6734 -0.4463 -0.0254
  592MOL0     C79792  10.122  10.681   8.331  0.3686  0.7052 -0.6944
  592MOL0     O79793   9.989  10.695   8.348  0.7206  0.3416  0.7947
  592MOL0     C79794   9.904  10.731   8.239 -0.2552  0.4791  0.3309
  592MOL0     C79795   9.812  10.622   8.182 -0.5431  0.5230  0.5686
  592MOL0     C79796   9.887  10.508   8.112  0.7934  0.0477 -0.6534
  592MOL0     C79797   9.960  10.553   7.987  0.1278  0.2551  0.2929
  592MOL0     C79798  10.000  10.433   7.908 -0.5659 -0.3092  0.4694
  592MOL0     C79799  10.105  10.355   7.990  0.1227 -0.7532  0.6135
  592MOL0     C79800  10.201  10.279   7.898  0.1949  0.0600  0.7619
  592MOL0     C79801  10.293  10.385   7.835  0.9218  0.3113  0.5675
  592MOL0     N79802  10.409  10.323   7.764 -0.0641  0.2278 -0.3143
  592MOL0     C79803  10.542  10.359   7.786  0.8430  0.9149 -0.1089
  592MOL0     C79804  10.605  10.290   7.694 -0.6028 -0.7323 -1.0560
  592MOL0     C79805  10.766  10.276   7.675 -0.9897  0.4825 -0.5042
  592MOL0     C79806  10.817  10.412   7.628 -0.7488 -0.0897 -0.3236
  592MOL0     C79807  10.961  10.416   7.574 -0.0181  1.3035 -0.3274
  592MOL0     C79808  11.067  10.357   7.667  0.4170 -0.2911  0.8953
  592MOL0     O79809  11.193  10.426   7.644  0.6969 -0.2273  0.9946
  592MOL0     C79810  11.294  10.384   7.725 -0.4712  0.3128 -0.0100
  592MOL0     C79811  11.302  10.263   7.799  0.0831  0.0160  0.9291
  592MOL0     C79812  11.410  10.240   7.876 -0.3165 -0.3333 -0.7227
  592MOL0     C79813  11.407  10.115   7.961 -0.1737 -0.5879  0.4563
  592MOL0     C79814  11.518  10.340   7.888  1.2648 -0.0402  0.1395
  592MOL0     C79815  11.632  10.338   7.987  0.0268 -0.7241 -1.0076
  592MOL0     O79816  11.627  10.255   8.092 -0.0923  0.3686  0.7896
  592MOL0     C79817  11.722  10.267   8.191 -0.3479  0.2362  0.7407
  592MOL0     C79818  11.837  10.193   8.184 -0.1930 -0.4321  0.2144
  592MOL0     C79819  11.931  10.197   8.289  0.5137 -0.3916  0.3599
  592MOL0     C79820  11.920  10.291   8.396 -0.0829  0.1058  0.0570
  592MOL0     O79821  12.009  10.314   8.490 -0.0425  0.3637 -0.0125
  592MOL0     C79822  12.062  10.198   8.557 -0.4474 -0.6956 -0.5117
  592MOL0     C79823  12.146  10.246   8.669 -0.1029 -0.6974  0.3530
  592MOL0     C79824  12.208  10.135   8.754  0.6293 -0.4009 -0.1641
  592MOL0     C79825  12.329  10.080   8.678  0.1136 -0.2787  0.3318
  592MOL0     C79826  12.352   9.929   8.712  0.5328 -0.1418  0.2963
  592MOL0     C79827  12.490   9.883   8.658 -0.4563  0.0821 -0.9918
  592MOL0     C79828  12.517   9.901   8.505 -1.6665 -0.1390 -0.0699
  592MOL0     C79829  12.653   9.822   8.462  0.4546 -0.0300  0.1099
  592MOL0    Cl79830  12.614   9.655   8.400  0.0817 -0.3662  0.0641
  592MOL0     C79831  11.803  10.365   8.402  0.3635  0.3533 -0.1718
  592MOL0     C79832  11.705  10.360   8.300 -0.4288 -0.4108 -0.9737
  592MOL0     O79833  11.730  10.414   7.963 -0.3432  0.5094  0.0691
  592MOL0     C79834  11.515  10.448   7.798  0.0085  0.2343  0.1625
  592MOL0     C79835  11.406  10.471   7.720  0.2311 -0.1047  0.7334
  592MOL0     N79836  10.518  10.228   7.609  0.3486  0.6568  0.4748
  592MOL0     N79837  10.398  10.250   7.655  0.0698  0.0843  0.2069
  592MOL0     C79838  10.186  10.561   8.370 -0.3440 -0.4059 -0.2938
  592MOL0     C79839  10.333  10.562   8.365  0.8563 -0.3880  0.1378
  592MOL0     C79840  10.761  10.632   8.212  0.8561 -0.0979  0.2074
  592MOL0     C79841  10.823  10.674   8.339  0.2093  0.8303 -0.7223
  592MOL0     C79842  10.959  10.644   8.358 -0.0398 -0.5192  0.5044
  592MOL0     C79843  11.032  10.581   8.262 -0.5162  1.0347  0.5455
  592MOL0     O79844  11.169  10.572   8.286  0.1515 -0.5779  0.5692
  592MOL0     C79845  11.233  10.454   8.238 -0.5674 -0.0682  0.1147
  592MOL0     C79846  11.215  10.327   8.322 -0.4101 -0.8223 -0.0603
  592MOL0     C79847  11.083  10.254   8.305  0.5789  1.5276  0.4399
  592MOL0     C79848  11.084  10.117   8.375 -0.8632  0.2846 -0.5721
  592MOL0     C79849  11.139  10.012   8.291  0.0692  0.6746  0.6367
  592MOL0     C79850  11.164   9.924   8.212 -0.5543  0.0297 -0.7951
  592MOL0     C79851  10.981  10.539   8.139 -0.1855 -0.2413 -0.4626
  592MOL0     C79852  10.845  10.566   8.119 -0.4590 -0.4639 -0.0410
  592MOL0     H79853  10.376  10.860   8.202 -1.5894  1.5646  1.3288
  592MOL0     H79854  10.153  10.891   8.251  4.6176  2.0803 -1.0382
  592MOL0     H79855   9.839  10.815   8.264  0.1322  0.9968 -0.3741
  592MOL0     H79856   9.962  10.759   8.151 -2.5361 -1.0605 -1.7782
  592MOL0     H79857   9.764  10.579   8.271 -0.5990 -1.3987 -0.3389
  592MOL0     H79858   9.747  10.665   8.106  1.7058  0.3163 -1.6092
  592MOL0     H79859   9.966  10.486   8.184 -0.9393  1.6498  1.9371
  592MOL0     H79860   9.815  10.425   8.112 -1.2135  1.6905 -0.8545
  592MOL0     H79861   9.889  10.620   7.938  0.4177 -0.8795 -1.8303
  592MOL0     H79862  10.047  10.608   8.021 -0.6191 -0.2698  3.3479
  592MOL0     H79863   9.913  10.368   7.898 -0.1550 -0.6151 -1.4489
  592MOL0     H79864  10.026  10.463   7.806 -2.0336  2.1755  0.7267
  592MOL0     H79865  10.158  10.420   8.060 -0.1449 -0.1808  0.2866
  592MOL0     H79866  10.064  10.272   8.048 -0.5861  0.2746  1.6235
  592MOL0     H79867  10.253  10.211   7.965  0.6029 -3.8860 -3.1381
  592MOL0     H79868  10.149  10.225   7.818  0.3146  0.0403  0.6985
  592MOL0     H79869  10.326  10.453   7.914  1.9358  3.8307 -2.6452
  592MOL0     H79870  10.233  10.428   7.755  1.9537 -1.6319 -1.3440
  592MOL0     H79871  10.567  10.438   7.856  2.5210  0.8614 -0.5831
  592MOL0     H79872  10.813  10.244   7.768 -2.1917  0.1979  0.0269
  592MOL0     H79873  10.795  10.199   7.602  1.6595 -0.8860  1.7832
  592MOL0     H79874  10.823  10.468   7.721 -0.8971 -1.3744  0.4839
  592MOL0     H79875  10.748  10.451   7.552 -1.7123  4.8606  2.6875
  592MOL0     H79876  10.988  10.520   7.552 -1.1833  1.7307  0.1372
  592MOL0     H79877  10.963  10.350   7.488 -0.4061 -2.5868  2.3764
  592MOL0     H79878  11.068  10.251   7.642 -0.0188 -0.0290 -0.2831
  592MOL0     H79879  11.023  10.376   7.766 -2.0825 -0.3718 -0.1219
  592MOL0     H79880  11.224  10.188   7.793 -0.5512  0.5112  2.4468
  592MOL0     H79881  11.431  10.150   8.062  3.5714  0.0084 -0.4669
  592MOL0     H79882  11.307  10.073   7.970 -0.7976  0.8516  0.4908
  592MOL0     H79883  11.473  10.036   7.925  0.1090  0.4185 -1.3776
  592MOL0     H79884  11.869  10.152   8.088  0.8587 -0.4265  0.5428
  592MOL0     H79885  12.020  10.136   8.272  1.9003  2.3122 -3.7205
  592MOL0     H79886  11.977  10.136   8.583  1.4075 -1.5818  4.4856
  592MOL0     H79887  12.121  10.140   8.485  0.5593  0.1768 -0.4240
  592MOL0     H79888  12.228  10.315   8.645 -0.7547 -0.0059  0.0828
  592MOL0     H79889  12.076  10.295   8.737 -0.2651 -1.1337  0.5022
  592MOL0     H79890  12.129  10.060   8.756  0.2244 -0.5682 -5.8627
  592MOL0     H79891  12.241  10.175   8.850 -0.7897 -0.4815  0.3855
  592MOL0     H79892  12.304  10.080   8.572 -0.3562  0.7302  0.4339
  592MOL0     H79893  12.418  10.133   8.715  0.5185 -1.6385  1.4465
  592MOL0     H79894  12.278   9.867   8.660  0.3985  0.3093 -0.0679
  592MOL0     H79895  12.328   9.918   8.818 -1.0174 -0.5818 -0.0777
  592MOL0     H79896  12.565   9.931   8.721 -0.0542 -2.0132  0.2426
  592MOL0     H79897  12.499   9.776   8.682  0.9535  0.7058  1.6800
  592MOL0     H79898  12.541  10.008   8.494 -1.8488  0.5077  4.0675
  592MOL0     H79899  12.435   9.860   8.446 -0.4975  1.2616 -2.8607
  592MOL0     H79900  12.718   9.810   8.549  2.1408 -0.2155 -1.1233
  592MOL0     H79901  12.703   9.886   8.390 -0.8095 -0.5979 -1.3313
  592MOL0     H79902  11.789  10.434   8.484  2.7426  2.3748 -1.3152
  592MOL0     H79903  11.626  10.431   8.322  0.9862  0.9767 -0.2412
  592MOL0     H79904  11.594  10.522   7.791 -0.0776  0.2337 -1.0471
  592MOL0     H79905  11.409  10.549   7.645 -0.1860 -0.7115  0.0779
  592MOL0     H79906  10.121  10.486   8.414  0.0645  1.4726  3.9369
  592MOL0     H79907  10.385  10.480   8.413  1.5295 -1.1162 -1.7208
  592MOL0     H79908  10.763  10.719   8.417 -0.2338 -0.5999 -0.1960
  592MOL0     H79909  11.009  10.671   8.451  0.1104  1.9007 -0.2046
  592MOL0     H79910  11.219  10.422   8.135 -2.0362 -1.4781  0.6963
  592MOL0     H79911  11.338  10.484   8.238 -1.1501  2.1555  0.0680
  592MOL0     H79912  11.212  10.356   8.427 -0.4671  2.6774 -0.9151
  592MOL0     H79913  11.293  10.256   8.291 -1.5206 -2.5792  0.9585
  592MOL0     H79914  11.069  10.240   8.197 -0.9864  3.1313  0.3970
  592MOL0     H79915  10.994  10.312   8.331 -1.6099 -1.4130  0.0195
  592MOL0     H79916  10.985  10.072   8.388  1.2189 -7.0410 -4.3867
  592MOL0     H79917  11.133  10.121   8.473  2.0994  0.2384 -1.9599
  592MOL0     H79918  11.200   9.845   8.149  2.1645  0.8116 -0.3079
  592MOL0     H79919  11.039  10.495   8.058  0.0959 -1.1894  0.2368
  592MOL0     H79920  10.809  10.527   8.025  1.7321 -2.0207 -0.3257
  593MOL0     O79921   5.662   3.448   5.938 -0.2391  0.0195  1.2586
  593MOL0     C79922   5.578   3.538   5.950  0.3292 -0.5182  0.5590
  593MOL0     O79923   5.489   3.586   5.854  0.0425 -0.4162 -0.0624
  593MOL0     C79924   5.471   3.498   5.757 -0.2490  0.1841 -0.6102
  593MOL0     C79925   5.435   3.367   5.791 -0.1439 -0.8325 -0.0308
  593MOL0     C79926   5.435   3.270   5.698  0.1368  0.3593  0.2407
  593MOL0     C79927   5.464   3.303   5.566  0.1706 -0.1653  0.8517
  593MOL0     O79928   5.461   3.189   5.491 -0.3489 -0.5910  0.8821
  593MOL0     C79929   5.516   3.192   5.356 -0.1382 -0.2988 -0.3101
  593MOL0     C79930   5.453   3.086   5.273 -0.3304 -0.1615 -0.6153
  593MOL0     C79931   5.517   2.947   5.312 -0.4277 -0.0429 -1.0237
  593MOL0     C79932   5.489   2.838   5.203 -0.5094 -0.4507 -0.1279
  593MOL0     C79933   5.552   2.700   5.244  0.4642  0.3903  1.1124
  593MOL0     C79934   5.501   2.586   5.145  1.0027  0.5382  0.6987
  593MOL0     C79935   5.597   2.555   5.027  0.3034  0.3911  0.1628
  593MOL0     C79936   5.713   2.460   5.066  0.5446  0.3137 -0.3866
  593MOL0     N79937   5.661   2.319   5.057  0.1746  0.3256  0.0988
  593MOL0     C79938   5.635   2.249   5.169 -0.2138 -0.4969  0.3531
  593MOL0     C79939   5.636   2.123   5.125  0.3253  0.2277 -0.0136
  593MOL0     C79940   5.652   2.004   5.205 -0.1780 -0.2546 -0.0175
  593MOL0     C79941   5.515   1.961   5.258 -0.0943 -0.9882  0.4376
  593MOL0     C79942   5.399   1.980   5.155 -0.5626 -0.2600  0.4997
  593MOL0     C79943   5.415   1.879   5.029  0.1563 -1.0551  0.1639
  593MOL0     O79944   5.392   1.747   5.084  0.2018 -0.6421  0.3924
  593MOL0     C79945   5.481   1.640   5.045  0.4857  0.7299  1.1570
  593MOL0     C79946   5.557   1.627   4.926 -0.9659 -0.6464 -1.1836
  593MOL0     C79947   5.639   1.512   4.892 -0.4632 -0.1971 -0.7093
  593MOL0     C79948   5.709   1.516   4.766  0.4666 -1.1758  0.4122
  593MOL0     C79949   5.625   1.395   4.976 -0.5995  0.3054  0.1563
  593MOL0     C79950   5.685   1.268   4.938 -0.1847 -0.3705  0.0573
  593MOL0     O79951   5.742   1.189   5.033  0.7838  0.2363 -0.1110
  593MOL0     C79952   5.792   1.077   4.973 -0.3163  0.2800 -0.2180
  593MOL0     C79953   5.710   0.966   4.946  1.0178  0.3906 -0.7337
  593MOL0     C79954   5.769   0.845   4.890 -0.0453 -0.7399 -0.1112
  593MOL0     C79955   5.909   0.854   4.853 -0.1333  1.0625 -0.7948
  593MOL0     O79956   5.973   0.744   4.791  0.4026  0.1252 -0.0049
  593MOL0     C79957   5.904   0.622   4.773 -0.7557 -0.2872  0.5239
  593MOL0     C79958   5.979   0.530   4.681  0.0647 -0.6293 -0.2126
  593MOL0     C79959   6.106   0.467   4.757 -0.1633  0.1201  0.2978
  593MOL0     C79960   6.230   0.554   4.740  0.1614 -0.6370  0.0835
  593MOL0     C79961   6.358   0.498   4.792 -0.1377 -1.1668  1.0092
  593MOL0     C79962   6.472   0.591   4.765 -0.8299 -0.2638 -0.1723
  593MOL0     C79963   6.482   0.715   4.865  1.0631  0.0112  1.0536
  593MOL0     C79964   6.589   0.821   4.828 -0.5245 -0.6418 -0.7373
  593MOL0    Cl79965   6.588   0.865   4.644 -0.3629 -0.0135 -0.3147
  593MOL0     C79966   5.983   0.965   4.882  0.0377 -0.0183  0.3462
  593MOL0     C79967   5.922   1.072   4.938 -0.2593 -0.2308 -0.3175
  593MOL0     O79968   5.660   1.237   4.821  0.6348  0.4972  0.0122
  593MOL0     C79969   5.542   1.408   5.085 -0.3364  1.0268 -0.9198
  593MOL0     C79970   5.466   1.526   5.114 -0.0922  0.4707  0.7403
  593MOL0     N79971   5.660   2.120   4.992 -0.2565 -0.4935  0.3709
  593MOL0     N79972   5.683   2.237   4.949  0.0398  0.7323 -0.2960
  593MOL0     C79973   5.498   3.433   5.523  1.0259 -1.4833 -0.2476
  593MOL0     C79974   5.493   3.536   5.626  0.2415  0.3395  0.4242
  593MOL0     C79975   5.578   3.607   6.075  0.2744  0.6326 -0.1541
  593MOL0     C79976   5.452   3.665   6.121  0.1490 -0.3906  0.6190
  593MOL0     C79977   5.445   3.706   6.249 -0.4450 -0.6534  0.2534
  593MOL0     C79978   5.559   3.709   6.327  0.3306  1.3715 -0.7718
  593MOL0     O79979   5.558   3.754   6.453 -0.1558  0.5217  0.0645
  593MOL0     C79980   5.457   3.839   6.508  0.8163  0.0876 -0.5764
  593MOL0     C79981   5.450   3.828   6.663 -0.3774 -1.1519 -0.4258
  593MOL0     C79982   5.491   3.958   6.745 -0.1189  0.3676 -0.4754
  593MOL0     C79983   5.375   4.062   6.759  0.9691 -0.2807 -0.0432
  593MOL0     C79984   5.249   4.009   6.821 -0.0754  0.3540  0.4452
  593MOL0     C79985   5.144   3.970   6.873  0.8266 -0.5812 -0.5812
  593MOL0     C79986   5.683   3.660   6.280 -0.4510 -0.2727 -0.1770
  593MOL0     C79987   5.691   3.609   6.154 -0.6524 -0.2801  0.2581
  593MOL0     H79988   5.416   3.349   5.896 -0.5055 -2.2546 -0.3192
  593MOL0     H79989   5.409   3.167   5.719  2.9333 -1.3652 -3.5490
  593MOL0     H79990   5.500   3.288   5.305 -1.6184  0.6346  1.7615
  593MOL0     H79991   5.620   3.162   5.369 -0.6637 -1.8730  0.6393
  593MOL0     H79992   5.345   3.096   5.265 -1.0018 -3.7007  1.5183
  593MOL0     H79993   5.484   3.103   5.170 -4.0350 -1.2269 -2.0408
  593MOL0     H79994   5.623   2.957   5.335 -0.9442  4.3149  0.4847
  593MOL0     H79995   5.468   2.916   5.405  0.6350  2.5122  0.5106
  593MOL0     H79996   5.383   2.816   5.186 -1.1221  1.6079  0.7635
  593MOL0     H79997   5.525   2.852   5.100 -0.3165  0.0962  0.0157
  593MOL0     H79998   5.661   2.713   5.239  0.4353  0.4928  0.7039
  593MOL0     H79999   5.520   2.678   5.346  0.1262  0.9115  1.1213
  593MOL0     H80000   5.479   2.496   5.203  1.6342 -1.6975 -2.3417
  593MOL0     H80001   5.404   2.622   5.111  0.8997  0.7721  1.2193
  593MOL0     H80002   5.548   2.513   4.939  1.3906 -3.1727  1.0856
  593MOL0     H80003   5.647   2.643   4.986  1.6869 -0.4226  0.0447
  593MOL0     H80004   5.753   2.490   5.163  3.0592  1.3583 -1.6440
  593MOL0     H80005   5.800   2.464   5.001  4.7410 -2.4801  4.3754
  593MOL0     H80006   5.624   2.285   5.271  0.1820  1.3851 -0.2424
  593MOL0     H80007   5.701   1.923   5.149 -0.5884 -0.7466  0.3278
  593MOL0     H80008   5.711   2.032   5.292 -1.1936  0.1994  0.5325
  593MOL0     H80009   5.499   2.024   5.346  4.2404 -1.4743  1.8709
  593MOL0     H80010   5.512   1.855   5.286 -1.2228 -0.9134  0.6349
  593MOL0     H80011   5.385   2.079   5.112 -1.6631  0.4183  2.3245
  593MOL0     H80012   5.302   1.959   5.200 -1.5423  1.2605 -0.8364
  593MOL0     H80013   5.510   1.879   4.976  0.5836 -0.4772  0.9133
  593MOL0     H80014   5.329   1.897   4.964  0.0675 -1.9459  0.0223
  593MOL0     H80015   5.575   1.712   4.861 -1.7144  0.6936  0.3065
  593MOL0     H80016   5.732   1.623   4.763 -0.2398 -0.9690  1.6390
  593MOL0     H80017   5.798   1.452   4.774  0.8422 -0.5276  1.9152
  593MOL0     H80018   5.635   1.496   4.688 -0.0450 -2.5300  1.2174
  593MOL0     H80019   5.607   0.964   4.980  0.8607 -2.7058 -1.1279
  593MOL0     H80020   5.706   0.757   4.883  0.2280 -0.8736 -1.0429
  593MOL0     H80021   5.890   0.581   4.874  3.4192  1.7731  2.1938
  593MOL0     H80022   5.801   0.630   4.737 -0.1272 -0.3267 -1.3990
  593MOL0     H80023   5.904   0.457   4.648  2.1460 -2.1685 -1.8896
  593MOL0     H80024   6.016   0.578   4.590  2.6337  2.8779  2.4411
  593MOL0     H80025   6.121   0.368   4.712  3.2214  1.0697 -0.9459
  593MOL0     H80026   6.083   0.456   4.864  0.9230  1.0178  0.6421
  593MOL0     H80027   6.240   0.575   4.634 -2.6744 -0.4236 -0.2237
  593MOL0     H80028   6.216   0.648   4.794  0.8193 -0.3658 -0.2054
  593MOL0     H80029   6.376   0.404   4.738  0.9557 -0.6135  0.3836
  593MOL0     H80030   6.356   0.487   4.901  1.6592  1.4363  1.3791
  593MOL0     H80031   6.565   0.534   4.772 -0.6648  0.1618  2.7310
  593MOL0     H80032   6.473   0.623   4.660 -1.5248 -0.3821 -0.2180
  593MOL0     H80033   6.506   0.689   4.968  1.0819  1.7848  1.5205
  593MOL0     H80034   6.386   0.765   4.848  0.6437 -1.1709 -0.2626
  593MOL0     H80035   6.681   0.767   4.852  0.9083  1.1565 -1.9904
  593MOL0     H80036   6.586   0.907   4.895  0.8653  0.6351 -2.2412
  593MOL0     H80037   6.088   0.980   4.860  0.4723  2.1089  3.1850
  593MOL0     H80038   5.986   1.160   4.945  0.1136 -0.6127  1.6152
  593MOL0     H80039   5.530   1.320   5.148  2.9313  1.3495  0.3635
  593MOL0     H80040   5.392   1.529   5.194 -3.0398 -0.3450 -1.7286
  593MOL0     H80041   5.525   3.460   5.421 -2.9236 -3.9221 -2.2222
  593MOL0     H80042   5.531   3.637   5.611  1.0907  0.5107  3.2397
  593MOL0     H80043   5.367   3.666   6.053  2.0373 -1.7737 -1.9332
  593MOL0     H80044   5.357   3.765   6.273  1.8653  3.5183 -0.5174
  593MOL0     H80045   5.471   3.938   6.464 -2.0909  0.6103 -0.5416
  593MOL0     H80046   5.355   3.813   6.475  0.2989 -3.5170  3.0185
  593MOL0     H80047   5.502   3.739   6.700  4.7322  1.4793 -0.4592
  593MOL0     H80048   5.346   3.810   6.691 -1.6179  3.5034 -1.1893
  593MOL0     H80049   5.570   4.001   6.683  0.3200  0.2810  0.0154
  593MOL0     H80050   5.539   3.939   6.842 -0.9844 -0.9587 -0.2765
  593MOL0     H80051   5.343   4.097   6.661  1.4875  2.6605  0.7224
  593MOL0     H80052   5.412   4.154   6.805  1.1631  0.0219 -0.7944
  593MOL0     H80053   5.053   3.928   6.912  0.1235 -1.7674 -3.2392
  593MOL0     H80054   5.775   3.653   6.338  2.4875 -1.3522 -4.4664
  593MOL0     H80055   5.792   3.581   6.127 -0.3347 -3.4667  3.9669
  594MOL0     O80056   6.245   3.529   7.911  0.2712 -0.6392  0.7286
  594MOL0     C80057   6.249   3.620   7.826 -0.7027  0.5399  0.1285
  594MOL0     O80058   6.277   3.753   7.849 -0.0575 -0.8254  1.1623
  594MOL0     C80059   6.303   3.779   7.984 -0.3077 -0.7028  0.5698
  594MOL0     C80060   6.416   3.733   8.049 -0.0346 -0.0138 -0.2068
  594MOL0     C80061   6.447   3.778   8.180 -0.7198 -0.5355  0.4514
  594MOL0     C80062   6.368   3.863   8.249 -0.5676 -0.1216  0.2883
  594MOL0     O80063   6.406   3.911   8.380 -0.2281 -0.4204  0.6985
  594MOL0     C80064   6.461   3.825   8.480 -0.1601 -0.6492 -0.8952
  594MOL0     C80065   6.368   3.806   8.611  0.8118  0.6832 -0.4241
  594MOL0     C80066   6.347   3.936   8.687 -0.0673 -0.0041 -0.3584
  594MOL0     C80067   6.292   3.899   8.827  0.2657 -0.0238 -0.5251
  594MOL0     C80068   6.234   4.012   8.894  0.3179 -0.2921 -0.2222
  594MOL0     C80069   6.346   4.089   8.970  1.4315 -0.3919  0.6210
  594MOL0     C80070   6.312   4.241   8.996 -0.0053 -0.5737  0.0527
  594MOL0     C80071   6.261   4.315   8.861  0.2017 -0.0939  0.0918
  594MOL0     N80072   6.372   4.328   8.764 -0.2030 -0.1381 -0.1273
  594MOL0     C80073   6.362   4.266   8.641 -0.1436  0.5046 -0.4896
  594MOL0     C80074   6.482   4.293   8.579  0.6779 -0.3509 -0.6658
  594MOL0     C80075   6.535   4.244   8.448  0.1708 -0.3030  0.1699
  594MOL0     C80076   6.440   4.265   8.328 -0.0273 -0.0215 -0.3720
  594MOL0     C80077   6.517   4.222   8.202  0.2738  0.9583  1.2624
  594MOL0     C80078   6.441   4.210   8.069 -0.5412  0.1409  0.0462
  594MOL0     O80079   6.534   4.142   7.990 -0.3059  0.0685 -0.5110
  594MOL0     C80080   6.509   4.129   7.856 -0.0170 -0.2250  0.5058
  594MOL0     C80081   6.381   4.111   7.801  0.1738 -0.3251  0.2801
  594MOL0     C80082   6.361   4.070   7.665 -0.7100 -0.5648  0.9428
  594MOL0     C80083   6.223   4.028   7.613  0.8142  0.8729 -0.5959
  594MOL0     C80084   6.481   4.055   7.579  0.0716  0.3585 -1.2221
  594MOL0     C80085   6.469   4.018   7.441 -0.3699 -0.1590  0.4206
  594MOL0     O80086   6.419   4.108   7.351 -0.8796 -0.3686 -0.6368
  594MOL0     C80087   6.390   4.063   7.224  0.3325  0.2698  0.1629
  594MOL0     C80088   6.272   4.010   7.189 -0.0594 -0.4318 -1.1510
  594MOL0     C80089   6.245   3.968   7.054 -0.2042 -0.0234 -0.1232
  594MOL0     C80090   6.348   3.990   6.956 -0.0350 -0.2110  0.1241
  594MOL0     O80091   6.326   3.941   6.828  0.1958  0.1105 -0.2994
  594MOL0     C80092   6.424   3.952   6.724 -0.2246  0.2101 -0.0247
  594MOL0     C80093   6.408   4.085   6.657  0.3630  0.0490  0.7851
  594MOL0     C80094   6.512   4.095   6.551 -0.1817  1.0343 -0.1717
  594MOL0     C80095   6.527   4.242   6.497  0.5519  0.6622 -1.1200
  594MOL0     C80096   6.609   4.239   6.376 -0.3483  0.6670 -0.0091
  594MOL0     C80097   6.556   4.189   6.241  0.1340 -0.7535 -1.1792
  594MOL0     C80098   6.468   4.287   6.157 -0.0629 -0.0195 -0.3887
  594MOL0     C80099   6.318   4.259   6.172 -0.4081 -0.3393  0.1268
  594MOL0    Cl80100   6.242   4.376   6.066  0.1474 -0.3161  0.2517
  594MOL0     C80101   6.468   4.056   6.987 -0.7894  0.2666  0.9673
  594MOL0     C80102   6.481   4.094   7.119 -0.4743  0.7326  0.2591
  594MOL0     O80103   6.519   3.909   7.408  0.9856  0.5720  0.5373
  594MOL0     C80104   6.609   4.087   7.629  0.5415 -1.4363 -0.5354
  594MOL0     C80105   6.619   4.126   7.764 -0.5412 -0.3490 -0.6433
  594MOL0     N80106   6.555   4.365   8.664  0.2857  0.5190 -0.3746
  594MOL0     N80107   6.486   4.391   8.773  0.0135 -0.3661 -0.3955
  594MOL0     C80108   6.252   3.904   8.187  0.4260 -0.7790 -0.7285
  594MOL0     C80109   6.217   3.863   8.052  0.1261 -0.3430  0.0785
  594MOL0     C80110   6.209   3.586   7.681  1.2838  0.1391  0.2374
  594MOL0     C80111   6.155   3.688   7.607  1.0348  0.1391  0.5793
  594MOL0     C80112   6.127   3.662   7.468 -0.7073  0.7329 -0.3270
  594MOL0     C80113   6.142   3.539   7.413  0.5124 -0.0958 -0.1709
  594MOL0     O80114   6.088   3.526   7.283 -0.1473 -0.4022 -0.1539
  594MOL0     C80115   6.121   3.398   7.218 -0.8972  0.1941  0.7011
  594MOL0     C80116   6.115   3.433   7.069  0.0652  0.1072  0.0670
  594MOL0     C80117   6.226   3.535   7.020  0.6697  0.4996 -1.2131
  594MOL0     C80118   6.309   3.488   6.901 -0.1240 -0.6597 -0.1793
  594MOL0     C80119   6.234   3.485   6.776 -0.3210 -0.1553 -0.1732
  594MOL0     C80120   6.153   3.468   6.690  0.3275  0.2383 -0.5791
  594MOL0     C80121   6.195   3.438   7.488  0.9049 -0.1890 -0.4840
  594MOL0     C80122   6.228   3.461   7.624  0.0475 -0.8824  0.4070
  594MOL0     H80123   6.473   3.652   8.004 -3.7465 -1.4995 -2.7096
  594MOL0     H80124   6.544   3.755   8.223 -0.5282 -0.4019  0.0976
  594MOL0     H80125   6.468   3.721   8.448  2.1640 -1.0124  0.4978
  594MOL0     H80126   6.553   3.869   8.521 -0.3042 -1.6076  0.5299
  594MOL0     H80127   6.266   3.778   8.584  0.2299  1.7507  0.5391
  594MOL0     H80128   6.408   3.726   8.673  1.4062 -1.5846 -3.4934
  594MOL0     H80129   6.448   3.972   8.705  0.8178 -0.7524 -3.2609
  594MOL0     H80130   6.276   3.996   8.629  0.6672 -2.0830 -3.6717
  594MOL0     H80131   6.211   3.827   8.812  3.1098 -3.3025 -1.6095
  594MOL0     H80132   6.370   3.857   8.891 -2.3008 -2.3560  1.3354
  594MOL0     H80133   6.196   4.073   8.811 -1.3781 -1.3171 -0.2411
  594MOL0     H80134   6.157   3.974   8.961  0.0647 -0.3617 -0.5479
  594MOL0     H80135   6.384   4.028   9.052  0.2393 -0.6015  1.0244
  594MOL0     H80136   6.432   4.111   8.905  0.4106 -1.1713 -1.0710
  594MOL0     H80137   6.224   4.239   9.062 -1.2256 -1.4586 -1.5320
  594MOL0     H80138   6.396   4.300   9.033  0.4014  1.4210 -3.5962
  594MOL0     H80139   6.233   4.414   8.899 -0.1803 -1.2119  3.0385
  594MOL0     H80140   6.167   4.271   8.827  1.0664 -3.5725  1.7989
  594MOL0     H80141   6.280   4.210   8.598 -0.8050  2.1241 -1.4413
  594MOL0     H80142   6.626   4.298   8.425  1.1874 -2.1865 -0.4418
  594MOL0     H80143   6.558   4.137   8.455  1.5241 -0.0305  0.0507
  594MOL0     H80144   6.410   4.367   8.302  0.8894  0.1851 -0.6547
  594MOL0     H80145   6.359   4.195   8.350  0.2400  0.1358  1.3037
  594MOL0     H80146   6.568   4.126   8.219  1.4070  1.5277  1.1850
  594MOL0     H80147   6.590   4.300   8.181  1.2782 -0.3677 -0.4405
  594MOL0     H80148   6.408   4.307   8.030 -0.8819  0.0368  0.0716
  594MOL0     H80149   6.348   4.155   8.083 -0.9253  0.4779 -1.1003
  594MOL0     H80150   6.301   4.126   7.872 -1.0431  0.7304 -1.2476
  594MOL0     H80151   6.174   4.106   7.554 -1.3681  1.1757  1.4333
  594MOL0     H80152   6.239   3.943   7.547  0.7077 -2.5487  3.3933
  594MOL0     H80153   6.157   4.002   7.697 -2.6281  1.7221 -2.8279
  594MOL0     H80154   6.186   4.012   7.255 -0.0595  2.0602 -1.1376
  594MOL0     H80155   6.156   3.913   7.028  0.7616 -2.2623  0.9900
  594MOL0     H80156   6.526   3.936   6.761 -0.0079 -1.1688 -1.1259
  594MOL0     H80157   6.402   3.874   6.652 -0.0974  1.1915 -1.1618
  594MOL0     H80158   6.309   4.094   6.613 -0.1229  1.1410  2.0157
  594MOL0     H80159   6.421   4.157   6.739 -0.1476 -1.1646  1.9782
  594MOL0     H80160   6.476   4.022   6.478  0.8314 -0.1385  0.4559
  594MOL0     H80161   6.610   4.054   6.577 -0.1851  1.4758  0.5649
  594MOL0     H80162   6.429   4.285   6.474  0.9472  1.5722 -1.1267
  594MOL0     H80163   6.576   4.311   6.565  0.4510  1.6532 -2.0217
  594MOL0     H80164   6.697   4.178   6.393 -0.6461  0.3075  0.2565
  594MOL0     H80165   6.656   4.338   6.366  0.2164  0.2277 -2.1323
  594MOL0     H80166   6.638   4.186   6.169  1.1966  2.6667 -0.3034
  594MOL0     H80167   6.510   4.092   6.263  4.2854 -2.7763 -0.5098
  594MOL0     H80168   6.497   4.285   6.051  1.4182 -0.2812  0.0115
  594MOL0     H80169   6.476   4.388   6.198 -2.0610 -0.3829  1.0446
  594MOL0     H80170   6.285   4.283   6.274  0.6756  2.4960 -0.0724
  594MOL0     H80171   6.284   4.159   6.145  0.1673  0.0605 -2.2465
  594MOL0     H80172   6.562   4.070   6.934 -1.3840  4.1623  0.6281
  594MOL0     H80173   6.573   4.142   7.153 -0.7335  0.0696  2.0329
  594MOL0     H80174   6.697   4.089   7.566  0.1157 -2.5393 -1.1794
  594MOL0     H80175   6.714   4.141   7.813 -1.7549  1.9293  1.2383
  594MOL0     H80176   6.190   3.966   8.251 -0.7211 -3.2327  0.6967
  594MOL0     H80177   6.122   3.892   8.009  0.0948  3.2375  2.1550
  594MOL0     H80178   6.123   3.778   7.658  1.3966  1.6836 -1.7733
  594MOL0     H80179   6.088   3.745   7.409 -3.9236 -0.1867  0.2748
  594MOL0     H80180   6.212   3.345   7.246 -2.5578 -2.0080  2.3335
  594MOL0     H80181   6.038   3.332   7.248 -1.9793  1.1343 -0.1521
  594MOL0     H80182   6.019   3.473   7.034  1.5692  1.7072 -2.5783
  594MOL0     H80183   6.135   3.338   7.019  0.1570 -0.6651  1.5344
  594MOL0     H80184   6.301   3.548   7.099 -0.9537  1.4615  0.2502
  594MOL0     H80185   6.175   3.631   7.009 -0.1736 -0.0591 -2.3920
  594MOL0     H80186   6.365   3.397   6.924  1.6179  0.1000 -1.2268
  594MOL0     H80187   6.383   3.568   6.892  0.0121 -0.6941  0.5733
  594MOL0     H80188   6.100   3.458   6.597 -0.8531  2.7894 -0.2627
  594MOL0     H80189   6.180   3.336   7.452  1.9318 -0.3657 -0.4346
  594MOL0     H80190   6.235   3.373   7.688 -1.1545 -0.7532  0.7459
  595MOL0     O80191   6.160   0.234  10.717 -0.8051 -0.6332 -0.4028
  595MOL0     C80192   6.211   0.220  10.833  0.1357 -0.0770  1.1766
  595MOL0     O80193   6.317   0.141  10.876  0.1507  0.1568 -0.3101
  595MOL0     C80194   6.361   0.032  10.806 -0.3050 -0.2157  0.1195
  595MOL0     C80195   6.374   0.031  10.669 -0.4102  1.1302 -0.0166
  595MOL0     C80196   6.408  -0.088  10.603 -0.1153  0.8090  0.6911
  595MOL0     C80197   6.413  -0.206  10.665  0.3229 -0.2897 -0.1561
  595MOL0     O80198   6.430  -0.327  10.605 -0.8898  0.0516 -0.3314
  595MOL0     C80199   6.561  -0.378  10.610  1.0244 -0.9489  0.8079
  595MOL0     C80200   6.557  -0.522  10.556  0.5407 -0.1123  0.9273
  595MOL0     C80201   6.694  -0.587  10.564 -0.8586  0.8906  0.7480
  595MOL0     C80202   6.679  -0.742  10.535  0.5171  0.0335  0.0842
  595MOL0     C80203   6.642  -0.828  10.661  0.1229 -0.9519 -0.4797
  595MOL0     C80204   6.603  -0.973  10.627  1.1496  0.7603 -0.2302
  595MOL0     C80205   6.518  -1.039  10.732 -0.4070 -0.3125 -0.2756
  595MOL0     C80206   6.588  -1.033  10.864 -0.1857  0.8050  0.4712
  595MOL0     N80207   6.553  -0.916  10.945  0.3236 -0.3349  0.6470
  595MOL0     C80208   6.637  -0.820  10.988 -1.0120 -0.2139  0.4821
  595MOL0     C80209   6.570  -0.749  11.078  1.5165 -0.7238 -0.2208
  595MOL0     C80210   6.620  -0.623  11.147 -0.7115  0.1123  0.0143
  595MOL0     C80211   6.576  -0.491  11.084  0.5034  0.5542  0.8948
  595MOL0     C80212   6.612  -0.369  11.162 -0.7315  0.6639  0.1127
  595MOL0     C80213   6.747  -0.326  11.128  0.3630 -0.5818  0.9153
  595MOL0     O80214   6.795  -0.210  11.210 -0.0752 -0.0264  1.2192
  595MOL0     C80215   6.782  -0.082  11.171 -0.9163 -0.6496 -0.0904
  595MOL0     C80216   6.743  -0.030  11.053  0.3396  0.4805 -0.2695
  595MOL0     C80217   6.719   0.107  11.033 -0.4307  0.3057  0.1491
  595MOL0     C80218   6.681   0.139  10.886 -0.4588 -0.2559  1.3123
  595MOL0     C80219   6.747   0.199  11.144 -0.3786 -0.0561  0.7763
  595MOL0     C80220   6.743   0.348  11.125 -0.4517 -0.0727  0.6434
  595MOL0     O80221   6.732   0.415  11.243 -0.3621 -0.4672  0.3249
  595MOL0     C80222   6.781   0.541  11.248  0.5443  0.5200 -0.3274
  595MOL0     C80223   6.839   0.578  11.368  0.5390 -0.1721 -0.7711
  595MOL0     C80224   6.900   0.701  11.397  0.5141 -0.1539  0.0417
  595MOL0     C80225   6.898   0.801  11.300 -1.1566 -0.2616  0.2026
  595MOL0     O80226   6.950   0.931  11.307  0.1498 -0.5067 -0.7555
  595MOL0     C80227   6.926   1.011  11.429 -0.6117  0.3747  0.1142
  595MOL0     C80228   6.780   1.024  11.464 -1.0619  0.4783  0.7249
  595MOL0     C80229   6.735   1.127  11.569  0.2585 -0.1902  0.0309
  595MOL0     C80230   6.710   1.083  11.713  0.0232  0.5971  0.8157
  595MOL0     C80231   6.766   1.191  11.804 -1.2780  0.4304 -0.3432
  595MOL0     C80232   6.695   1.327  11.779 -0.3778  0.1670 -0.8625
  595MOL0     C80233   6.699   1.421  11.905  0.8170 -0.1936 -0.8922
  595MOL0     C80234   6.571   1.509  11.909  0.4788  0.7431  0.1164
  595MOL0    Cl80235   6.559   1.610  11.771  0.1720  0.3898 -0.0123
  595MOL0     C80236   6.832   0.770  11.182  0.1967  0.2758  0.8399
  595MOL0     C80237   6.774   0.642  11.153 -0.4573 -0.3499  0.4609
  595MOL0     O80238   6.749   0.395  11.014  0.0506  0.8325 -0.1661
  595MOL0     C80239   6.788   0.146  11.266  0.2114  0.1136 -0.8043
  595MOL0     C80240   6.803   0.006  11.277 -0.1844  0.0710 -0.0571
  595MOL0     N80241   6.432  -0.783  11.068 -1.1431  0.4564 -0.1265
  595MOL0     N80242   6.429  -0.891  10.996  0.2013  0.2017 -0.2508
  595MOL0     C80243   6.391  -0.214  10.800 -0.2427 -0.0131 -0.3717
  595MOL0     C80244   6.374  -0.097  10.873  0.0575 -0.2935 -0.2380
  595MOL0     C80245   6.151   0.315  10.935 -0.6073 -0.1327  0.7669
  595MOL0     C80246   6.029   0.375  10.909  0.2806 -0.2173  0.4734
  595MOL0     C80247   5.960   0.440  11.006 -0.2051  0.0766 -0.0720
  595MOL0     C80248   6.008   0.453  11.135 -0.3702 -0.3758 -0.5146
  595MOL0     O80249   5.962   0.526  11.240 -0.2063 -0.4036 -0.0909
  595MOL0     C80250   5.877   0.642  11.228 -0.7653  0.0453  0.6970
  595MOL0     C80251   5.955   0.755  11.154 -0.1475 -0.8899  0.0534
  595MOL0     C80252   5.908   0.898  11.174 -1.5801 -0.0634 -0.6816
  595MOL0     C80253   5.866   0.951  11.321 -0.3724 -0.7011 -0.5593
  595MOL0     C80254   5.964   0.919  11.418  0.3338 -0.4235 -0.9922
  595MOL0     C80255   6.057   0.892  11.495  0.1742 -1.2458 -0.1650
  595MOL0     C80256   6.132   0.391  11.166 -0.8973  0.0044 -0.6280
  595MOL0     C80257   6.204   0.325  11.065  0.7269  0.5113  0.0496
  595MOL0     H80258   6.381   0.123  10.612  1.3667  0.6240 -0.6718
  595MOL0     H80259   6.429  -0.089  10.496 -0.0327  0.1983  0.7149
  595MOL0     H80260   6.616  -0.308  10.546 -0.3539 -0.3804  0.1997
  595MOL0     H80261   6.605  -0.383  10.710  0.5244 -1.5984  1.0001
  595MOL0     H80262   6.488  -0.567  10.628 -2.0192 -0.5236 -1.6302
  595MOL0     H80263   6.519  -0.521  10.454  1.9304  0.0016  0.3921
  595MOL0     H80264   6.763  -0.552  10.487 -0.1614 -4.3563 -1.4473
  595MOL0     H80265   6.739  -0.585  10.664 -0.5379 -1.8331  0.7535
  595MOL0     H80266   6.590  -0.761  10.474 -1.8891  2.5231  2.5180
  595MOL0     H80267   6.764  -0.793  10.487  1.6210  0.6956  1.2729
  595MOL0     H80268   6.727  -0.834  10.729  0.2573 -2.2196 -0.7395
  595MOL0     H80269   6.558  -0.774  10.708  0.2679 -0.1259 -1.1391
  595MOL0     H80270   6.553  -0.983  10.530  2.3076 -1.5093 -0.6688
  595MOL0     H80271   6.694  -1.034  10.619  0.2994 -0.3821 -2.1489
  595MOL0     H80272   6.423  -0.985  10.738 -1.4906 -2.2695  1.4853
  595MOL0     H80273   6.494  -1.141  10.700  2.0923 -0.6832 -1.1886
  595MOL0     H80274   6.696  -1.041  10.849 -0.3562 -0.5554 -0.2369
  595MOL0     H80275   6.564  -1.126  10.917 -2.3872 -0.7252 -2.8704
  595MOL0     H80276   6.742  -0.800  10.971 -0.7298 -0.5909  1.6755
  595MOL0     H80277   6.581  -0.631  11.248 -0.4604 -2.4915 -0.0299
  595MOL0     H80278   6.730  -0.624  11.151 -0.6668  2.2964  0.3639
  595MOL0     H80279   6.467  -0.494  11.077  0.5833 -1.3364 -0.4408
  595MOL0     H80280   6.598  -0.474  10.978  1.5694  1.5597  1.2588
  595MOL0     H80281   6.611  -0.390  11.269 -0.2189  0.9778  0.1829
  595MOL0     H80282   6.539  -0.292  11.138 -1.7968  0.0099  1.1286
  595MOL0     H80283   6.748  -0.296  11.023 -1.2133  1.3993  1.3816
  595MOL0     H80284   6.826  -0.401  11.137  1.9154  1.0320  1.3166
  595MOL0     H80285   6.731  -0.099  10.970 -3.6791 -0.4176  0.8108
  595MOL0     H80286   6.774   0.173  10.841 -1.1109  3.1386  2.2786
  595MOL0     H80287   6.645   0.057  10.822  0.2742  0.4058  0.0093
  595MOL0     H80288   6.611   0.223  10.878  1.2323  1.1364  0.5311
  595MOL0     H80289   6.852   0.510  11.453 -2.4200  0.4083  0.2604
  595MOL0     H80290   6.956   0.722  11.488  3.2631 -1.2200 -1.3226
  595MOL0     H80291   6.978   0.966  11.514  3.1470  3.0733 -0.5017
  595MOL0     H80292   6.962   1.114  11.419 -2.2682  0.7243 -3.9194
  595MOL0     H80293   6.736   1.041  11.365  0.7197 -1.1357 -0.4216
  595MOL0     H80294   6.734   0.927  11.489 -1.0591  0.0063 -0.9332
  595MOL0     H80295   6.649   1.185  11.536  0.0723 -1.0644 -1.0876
  595MOL0     H80296   6.813   1.202  11.555  0.3782 -0.1018  1.0971
  595MOL0     H80297   6.604   1.057  11.729 -0.2460  0.3434 -1.1101
  595MOL0     H80298   6.757   0.986  11.734 -3.0242 -1.9309 -2.6516
  595MOL0     H80299   6.872   1.199  11.779 -1.2745  2.1613  0.0698
  595MOL0     H80300   6.741   1.150  11.902 -1.0510 -1.0809 -0.8911
  595MOL0     H80301   6.731   1.384  11.693  0.8700 -1.4900 -1.5012
  595MOL0     H80302   6.592   1.295  11.762 -0.8110  1.3796 -0.6498
  595MOL0     H80303   6.783   1.491  11.907 -1.5119  2.9898  3.5291
  595MOL0     H80304   6.692   1.353  11.991  0.3228  2.5559  1.3771
  595MOL0     H80305   6.567   1.574  11.997  2.7657  1.1929 -0.0463
  595MOL0     H80306   6.484   1.444  11.921  2.1902 -1.4885  1.1511
  595MOL0     H80307   6.826   0.846  11.104  0.8345 -1.8618 -1.4158
  595MOL0     H80308   6.734   0.627  11.053 -0.8717 -0.1934  0.6044
  595MOL0     H80309   6.816   0.199  11.356  2.2160  0.5632 -1.6495
  595MOL0     H80310   6.837  -0.030  11.374  1.2981  0.8465 -0.2497
  595MOL0     H80311   6.383  -0.307  10.856 -2.4373 -0.6401 -1.6238
  595MOL0     H80312   6.375  -0.104  10.981 -1.8909 -0.3941 -0.1999
  595MOL0     H80313   5.994   0.367  10.807 -5.0145 -2.0855  2.1096
  595MOL0     H80314   5.866   0.486  10.976  0.0020 -0.6160 -1.9053
  595MOL0     H80315   5.796   0.613  11.160 -1.9665 -1.3830  2.6313
  595MOL0     H80316   5.840   0.681  11.323 -0.7933  0.3811  0.5496
  595MOL0     H80317   5.953   0.726  11.048  1.5427 -0.0518 -0.2288
  595MOL0     H80318   6.057   0.735  11.186 -0.8589 -1.4500  2.1233
  595MOL0     H80319   5.826   0.911  11.102 -1.5791  2.2132 -0.3341
  595MOL0     H80320   5.989   0.962  11.139 -4.3670  4.9749  1.0296
  595MOL0     H80321   5.769   0.903  11.342 -0.0308  0.2466  4.4160
  595MOL0     H80322   5.858   1.060  11.322  2.6851 -0.4038  1.3781
  595MOL0     H80323   6.145   0.880  11.555  1.2577  1.5856 -1.0191
  595MOL0     H80324   6.181   0.420  11.259 -1.2856 -0.8245 -0.1564
  595MOL0     H80325   6.302   0.282  11.083  0.4305 -0.5984 -0.8789
  596MOL0     O80326   1.427   3.976   6.320  0.3452  0.3265  0.4769
  596MOL0     C80327   1.430   3.880   6.398  0.5371  0.1183 -0.4440
  596MOL0     O80328   1.453   3.749   6.362  0.1082 -0.1166  0.0828
  596MOL0     C80329   1.505   3.737   6.233 -0.0654 -0.5892 -0.5672
  596MOL0     C80330   1.436   3.766   6.111  0.2666 -0.2102 -0.6486
  596MOL0     C80331   1.500   3.737   5.991  0.0588  1.5983 -0.5986
  596MOL0     C80332   1.625   3.667   5.987  0.2402 -0.5485 -0.5299
  596MOL0     O80333   1.673   3.634   5.863 -0.0807  0.2345  0.3541
  596MOL0     C80334   1.771   3.528   5.851 -0.0209  0.6903  0.3131
  596MOL0     C80335   1.809   3.511   5.709 -0.4162 -0.3830 -0.2358
  596MOL0     C80336   1.697   3.445   5.636  0.3234  0.7557 -0.6483
  596MOL0     C80337   1.744   3.436   5.493 -0.5103  0.1902  0.5748
  596MOL0     C80338   1.678   3.343   5.385 -0.4264 -0.4174 -0.5922
  596MOL0     C80339   1.526   3.377   5.377 -0.1504  0.6066 -0.5596
  596MOL0     C80340   1.466   3.309   5.260  0.1534 -0.3009 -0.0455
  596MOL0     C80341   1.313   3.327   5.254 -0.2015 -0.2327 -0.3505
  596MOL0     N80342   1.260   3.456   5.278 -0.2987 -0.4943  1.2678
  596MOL0     C80343   1.284   3.570   5.213 -0.6691  0.4863 -0.2943
  596MOL0     C80344   1.206   3.666   5.276 -1.0572 -1.1489 -0.0580
  596MOL0     C80345   1.210   3.816   5.242  0.9621  1.2315 -0.2245
  596MOL0     C80346   1.348   3.868   5.229 -0.8168  0.6766  0.1339
  596MOL0     C80347   1.358   4.015   5.206 -1.1579 -0.5118  0.6180
  596MOL0     C80348   1.499   4.083   5.225  0.2439  0.3547  0.2392
  596MOL0     O80349   1.599   4.029   5.135  0.3722  1.1792 -0.6868
  596MOL0     C80350   1.728   4.077   5.152  0.1670 -1.1243  0.4936
  596MOL0     C80351   1.809   4.038   5.046  0.2881 -0.2042  0.1311
  596MOL0     C80352   1.949   4.079   5.048 -0.1948 -0.1934  0.6356
  596MOL0     C80353   2.036   4.037   4.922 -0.4502 -0.7128  0.2275
  596MOL0     C80354   1.992   4.171   5.149  0.5515 -0.3346 -0.2089
  596MOL0     C80355   2.117   4.232   5.163  0.6508  0.1737 -0.7159
  596MOL0     O80356   2.130   4.332   5.260 -0.1406 -0.1408  0.6673
  596MOL0     C80357   2.251   4.394   5.284 -0.3896  1.0794  0.2707
  596MOL0     C80358   2.335   4.454   5.182  0.8042 -0.3982 -0.1887
  596MOL0     C80359   2.467   4.492   5.205  0.8774  1.4626  0.2996
  596MOL0     C80360   2.526   4.479   5.326 -0.1825  0.6870  0.4151
  596MOL0     O80361   2.644   4.534   5.357 -0.0906  0.6879  0.1614
  596MOL0     C80362   2.734   4.554   5.252 -0.8533  0.1629 -0.6178
  596MOL0     C80363   2.874   4.613   5.281 -0.4894  0.0801 -1.0844
  596MOL0     C80364   2.947   4.526   5.392  0.4133 -0.2301  0.1134
  596MOL0     C80365   3.078   4.609   5.430  0.6016 -0.0881  0.4601
  596MOL0     C80366   3.172   4.538   5.526 -0.2786 -0.8825 -0.0932
  596MOL0     C80367   3.308   4.596   5.530 -0.4287 -0.2840  0.3880
  596MOL0     C80368   3.382   4.530   5.648  0.9619 -1.0988 -0.2635
  596MOL0     C80369   3.312   4.589   5.779 -0.0522 -0.0643 -0.3397
  596MOL0    Cl80370   3.439   4.608   5.905  0.1041 -0.2285  0.7610
  596MOL0     C80371   2.453   4.433   5.427  0.6272  0.2426  0.8996
  596MOL0     C80372   2.322   4.379   5.406  0.1076 -0.0392  0.5873
  596MOL0     O80373   2.217   4.193   5.101  1.2848  0.3236 -0.0194
  596MOL0     C80374   1.896   4.200   5.255 -0.3174  0.5753  1.0811
  596MOL0     C80375   1.768   4.164   5.253  0.5452  0.6740  1.2296
  596MOL0     N80376   1.126   3.602   5.370  0.0228 -0.3027  0.0285
  596MOL0     N80377   1.150   3.474   5.353  0.3323 -0.3350 -0.5136
  596MOL0     C80378   1.690   3.630   6.106 -0.5345 -1.0133  0.7466
  596MOL0     C80379   1.633   3.676   6.226  0.3108  0.1881  0.2924
  596MOL0     C80380   1.393   3.899   6.541 -0.4259  1.0941  0.4454
  596MOL0     C80381   1.380   4.033   6.598  0.7849  0.5095 -0.4647
  596MOL0     C80382   1.345   4.045   6.732  0.0432 -1.9200  0.8809
  596MOL0     C80383   1.302   3.936   6.808  0.0042  0.0354  0.5732
  596MOL0     O80384   1.279   3.956   6.941  0.8400  0.4380  0.1536
  596MOL0     C80385   1.257   3.850   7.035 -0.2906  0.4196 -0.9247
  596MOL0     C80386   1.392   3.765   7.053  0.1069 -0.2643 -0.0952
  596MOL0     C80387   1.498   3.827   7.137  0.6836  0.1605  0.5443
  596MOL0     C80388   1.573   3.723   7.213  0.1843  0.0915 -0.7273
  596MOL0     C80389   1.637   3.777   7.333  0.1635  0.3309  0.6404
  596MOL0     C80390   1.709   3.801   7.433  1.0009 -1.0933 -0.0402
  596MOL0     C80391   1.296   3.809   6.748 -0.3125  0.2326  0.0552
  596MOL0     C80392   1.348   3.791   6.618  0.1401  0.7265 -0.4644
  596MOL0     H80393   1.339   3.815   6.105 -1.1385 -2.3169  2.1917
  596MOL0     H80394   1.449   3.770   5.901  1.9939  2.2941 -1.5068
  596MOL0     H80395   1.850   3.564   5.918  1.5186 -0.6574 -0.7276
  596MOL0     H80396   1.746   3.429   5.889 -1.9528  1.0461  0.0752
  596MOL0     H80397   1.815   3.607   5.658 -2.7615 -0.9814 -1.8407
  596MOL0     H80398   1.905   3.462   5.693  0.2819  1.8741 -4.0952
  596MOL0     H80399   1.683   3.347   5.682  1.4818 -0.1132 -2.0580
  596MOL0     H80400   1.608   3.507   5.648 -0.3998 -0.1889 -0.9949
  596MOL0     H80401   1.747   3.536   5.449 -2.3298 -0.6017 -1.5470
  596MOL0     H80402   1.850   3.412   5.493 -0.1875  1.5582  0.8761
  596MOL0     H80403   1.727   3.360   5.288 -0.1525  0.5249 -0.3030
  596MOL0     H80404   1.706   3.241   5.412 -1.3049 -0.9209 -1.5242
  596MOL0     H80405   1.489   3.331   5.469 -0.4690  1.1736 -0.3978
  596MOL0     H80406   1.518   3.486   5.375 -0.2663  0.6683  1.6063
  596MOL0     H80407   1.513   3.341   5.166  0.0443 -0.2378 -0.0787
  596MOL0     H80408   1.494   3.205   5.279  0.7227  0.1272  1.6337
  596MOL0     H80409   1.263   3.261   5.326  0.1901  2.4541  2.5750
  596MOL0     H80410   1.284   3.298   5.152 -0.4557 -1.8477  0.1501
  596MOL0     H80411   1.345   3.589   5.126  0.6414  0.3549  0.5586
  596MOL0     H80412   1.173   3.822   5.139  0.1386 -0.3204 -0.0548
  596MOL0     H80413   1.149   3.871   5.314 -1.5447 -1.4778 -0.0844
  596MOL0     H80414   1.407   3.810   5.157 -1.9153  0.8083 -0.8900
  596MOL0     H80415   1.399   3.854   5.325  1.7184  0.6506 -1.1111
  596MOL0     H80416   1.301   4.068   5.282 -3.4592  2.0183 -2.5546
  596MOL0     H80417   1.334   4.038   5.102  0.1382 -0.3388  0.3353
  596MOL0     H80418   1.520   4.065   5.331  2.8727  0.9731 -0.0839
  596MOL0     H80419   1.496   4.189   5.196  2.2183  0.0676 -1.2456
  596MOL0     H80420   1.760   3.974   4.974  1.5765  0.3744 -1.3096
  596MOL0     H80421   2.008   3.938   4.885 -1.3472 -0.0032 -1.0713
  596MOL0     H80422   2.026   4.117   4.848 -0.5246  0.1155  1.1020
  596MOL0     H80423   2.144   4.027   4.939 -0.1188 -0.4440 -1.5284
  596MOL0     H80424   2.293   4.466   5.082 -4.7142 -0.4812  1.7741
  596MOL0     H80425   2.512   4.525   5.112  1.6424 -2.0221 -0.6968
  596MOL0     H80426   2.736   4.457   5.202 -0.0394  0.5297 -1.3205
  596MOL0     H80427   2.674   4.615   5.184 -2.3097 -0.0899  0.3789
  596MOL0     H80428   2.934   4.614   5.189 -0.6838 -0.3928 -1.2186
  596MOL0     H80429   2.861   4.715   5.316  1.9782  0.3640 -0.7975
  596MOL0     H80430   2.960   4.426   5.349  0.0331 -0.8464  1.3974
  596MOL0     H80431   2.880   4.518   5.478 -1.4250  0.1539 -1.1985
  596MOL0     H80432   3.129   4.632   5.337  0.8996  1.9825  1.0806
  596MOL0     H80433   3.056   4.701   5.485 -1.1318 -2.1607  3.6260
  596MOL0     H80434   3.173   4.433   5.493 -1.9420 -0.7971 -0.5368
  596MOL0     H80435   3.133   4.530   5.628  0.8587 -1.1771  0.3315
  596MOL0     H80436   3.357   4.578   5.433 -1.0073 -3.0346  0.5293
  596MOL0     H80437   3.307   4.705   5.534 -1.6353 -0.1373 -1.8386
  596MOL0     H80438   3.489   4.550   5.639  1.1259 -2.1349 -0.7343
  596MOL0     H80439   3.358   4.424   5.649 -3.6114 -0.2947 -0.1165
  596MOL0     H80440   3.224   4.528   5.802  0.3623 -0.6878 -0.3897
  596MOL0     H80441   3.275   4.689   5.755  3.1879  1.0565 -1.1906
  596MOL0     H80442   2.490   4.442   5.529  0.2731 -0.4289  1.0944
  596MOL0     H80443   2.266   4.322   5.479 -2.1163 -1.9675 -2.3832
  596MOL0     H80444   1.914   4.263   5.341  2.4631  0.0595  0.9550
  596MOL0     H80445   1.701   4.198   5.332 -0.7577  0.5345  0.2287
  596MOL0     H80446   1.787   3.580   6.111  1.6529  2.3405 -2.8394
  596MOL0     H80447   1.683   3.655   6.320 -0.0096 -0.8202  0.2446
  596MOL0     H80448   1.404   4.126   6.548  3.3692  0.5599  0.7040
  596MOL0     H80449   1.334   4.146   6.772  0.1668 -0.9104 -1.4821
  596MOL0     H80450   1.234   3.900   7.130 -0.1927  0.9958 -1.1984
  596MOL0     H80451   1.174   3.790   6.998  0.2925 -0.5320 -0.7216
  596MOL0     H80452   1.435   3.727   6.960  2.6181  0.2800  0.7687
  596MOL0     H80453   1.359   3.674   7.104  2.4897 -2.2674 -1.8855
  596MOL0     H80454   1.441   3.884   7.211  1.7419  0.9086  0.8108
  596MOL0     H80455   1.557   3.893   7.072 -0.7260 -0.6956 -1.7317
  596MOL0     H80456   1.655   3.696   7.146  2.6660  1.0690  1.7288
  596MOL0     H80457   1.513   3.637   7.246  2.0739 -1.0268 -0.0673
  596MOL0     H80458   1.773   3.820   7.517 -1.5470 -0.7463  1.9488
  596MOL0     H80459   1.242   3.727   6.794 -3.5385 -0.0464 -3.7256
  596MOL0     H80460   1.331   3.693   6.575 -0.3494  1.4903 -2.1175
  597MOL0     O80461   8.227   9.126   8.709  1.0467 -1.0404 -0.1196
  597MOL0     C80462   8.217   9.112   8.591 -0.2251 -1.4183 -0.7136
  597MOL0     O80463   8.312   9.158   8.499  0.2674  0.0325  0.0198
  597MOL0     C80464   8.407   9.247   8.540  1.0775  0.4723 -0.1000
  597MOL0     C80465   8.538   9.218   8.533 -0.2485 -0.8160  0.2345
  597MOL0     C80466   8.642   9.294   8.584  0.0751 -0.4884 -0.3132
  597MOL0     C80467   8.600   9.410   8.661 -0.7204  0.1562 -0.7791
  597MOL0     O80468   8.693   9.487   8.726 -0.3721 -0.4974 -0.4334
  597MOL0     C80469   8.832   9.476   8.714 -0.3942 -0.5735  0.5385
  597MOL0     C80470   8.889   9.516   8.857  1.0477 -0.0966  0.3457
  597MOL0     C80471   9.032   9.488   8.891  0.2810 -0.0888 -0.0874
  597MOL0     C80472   9.125   9.605   8.862  0.5400 -0.9134  0.3729
  597MOL0     C80473   9.268   9.562   8.894 -0.3597 -0.0312  0.1192
  597MOL0     C80474   9.357   9.685   8.879  0.2297  0.5097  0.0364
  597MOL0     C80475   9.499   9.671   8.926  0.3092 -0.0639  1.1770
  597MOL0     C80476   9.583   9.583   8.832  0.4656  0.0250 -0.3683
  597MOL0     N80477   9.586   9.634   8.698 -0.2156  0.8605 -0.2347
  597MOL0     C80478   9.493   9.591   8.602  0.3426 -0.2032  0.6522
  597MOL0     C80479   9.512   9.666   8.499 -0.2902  0.4267 -0.4192
  597MOL0     C80480   9.441   9.641   8.366  1.3928  0.1724  0.9038
  597MOL0     C80481   9.297   9.701   8.346  0.2108 -0.7541  0.0157
  597MOL0     C80482   9.211   9.658   8.467 -0.2468  0.1462  0.1762
  597MOL0     C80483   9.066   9.693   8.446 -0.1432 -0.7221  0.3877
  597MOL0     O80484   9.001   9.590   8.366 -0.0256 -0.1329 -0.4312
  597MOL0     C80485   8.875   9.607   8.336  0.0871  0.5899  0.2469
  597MOL0     C80486   8.806   9.727   8.340 -0.4531  1.0314 -0.5615
  597MOL0     C80487   8.677   9.747   8.316  0.8475 -0.2895  0.7550
  597MOL0     C80488   8.626   9.889   8.324  0.3046 -0.7450 -0.1492
  597MOL0     C80489   8.599   9.633   8.298 -0.4721 -0.3164 -0.3802
  597MOL0     C80490   8.449   9.642   8.289 -0.2271 -0.6083  0.3674
  597MOL0     O80491   8.412   9.610   8.158 -0.0128  0.8519 -0.4433
  597MOL0     C80492   8.304   9.531   8.128  0.1564  0.4013 -0.3211
  597MOL0     C80493   8.241   9.458   8.232  0.0817 -0.2564  0.8273
  597MOL0     C80494   8.134   9.369   8.186  0.4764 -0.5141  0.6816
  597MOL0     C80495   8.099   9.352   8.049  0.3560 -0.4615 -0.4387
  597MOL0     O80496   8.008   9.272   7.995  0.0466  0.0173 -0.3276
  597MOL0     C80497   7.930   9.182   8.085 -0.7344  0.1255  0.4543
  597MOL0     C80498   7.798   9.169   8.013  0.4152 -0.9140  0.0229
  597MOL0     C80499   7.711   9.060   8.089 -0.5934 -1.9738  0.8071
  597MOL0     C80500   7.719   8.919   8.027 -0.6327 -1.2083  0.8880
  597MOL0     C80501   7.620   8.813   8.082 -0.3178  0.0942  0.9077
  597MOL0     C80502   7.483   8.869   8.120 -0.4279 -0.8499  0.5952
  597MOL0     C80503   7.369   8.773   8.124 -0.3345 -0.0003  0.3237
  597MOL0     C80504   7.239   8.857   8.090 -0.0739  0.5988 -0.2173
  597MOL0    Cl80505   7.093   8.750   8.102 -0.2228  0.0786  0.0235
  597MOL0     C80506   8.168   9.424   7.950 -0.0895  0.1486  0.0828
  597MOL0     C80507   8.270   9.510   7.991 -0.0897  0.1314  0.4526
  597MOL0     O80508   8.377   9.677   8.385  0.3619  0.1515  0.1475
  597MOL0     C80509   8.659   9.500   8.292 -0.3220  0.1829 -0.5581
  597MOL0     C80510   8.800   9.487   8.325  0.0310 -0.9243 -0.2618
  597MOL0     N80511   9.613   9.755   8.519 -0.1243  0.0677 -0.7387
  597MOL0     N80512   9.660   9.729   8.636 -0.2277 -0.0548 -0.8673
  597MOL0     C80513   8.466   9.441   8.667 -0.4462 -0.0085 -1.0059
  597MOL0     C80514   8.373   9.359   8.607  1.2315  0.9269 -0.3242
  597MOL0     C80515   8.102   9.038   8.533  0.0128 -0.0804 -0.7943
  597MOL0     C80516   8.099   8.988   8.401 -0.1963  0.3955 -0.3464
  597MOL0     C80517   8.000   8.900   8.359 -0.8816  0.0475  0.3081
  597MOL0     C80518   7.906   8.847   8.433 -0.4060 -0.5318 -0.4807
  597MOL0     O80519   7.831   8.737   8.412 -0.0146  0.3928  0.3143
  597MOL0     C80520   7.898   8.608   8.455  0.0043  0.2125  0.4097
  597MOL0     C80521   7.859   8.497   8.361  0.5605  0.9067  0.6858
  597MOL0     C80522   7.709   8.462   8.368 -0.0518 -0.0556  0.1268
  597MOL0     C80523   7.657   8.360   8.255  0.3043 -0.7988  0.5763
  597MOL0     C80524   7.516   8.386   8.232  1.1486 -0.4113 -0.8714
  597MOL0     C80525   7.401   8.417   8.224  0.3870  0.8613  0.1459
  597MOL0     C80526   7.895   8.901   8.558  0.2718  0.5396 -0.6089
  597MOL0     C80527   7.990   8.990   8.611 -0.6835 -0.0649 -0.6374
  597MOL0     H80528   8.583   9.134   8.481  2.9598  1.3122 -0.7400
  597MOL0     H80529   8.741   9.253   8.566  1.1563  2.5233 -2.0065
  597MOL0     H80530   8.871   9.375   8.699 -0.0273 -0.5165  1.0614
  597MOL0     H80531   8.868   9.551   8.643 -2.1341 -1.1020 -0.9567
  597MOL0     H80532   8.860   9.617   8.889  1.9722  0.4194 -0.3867
  597MOL0     H80533   8.829   9.457   8.926 -1.1924  0.7558 -0.7832
  597MOL0     H80534   9.047   9.459   8.996  2.5008 -1.7579 -0.7979
  597MOL0     H80535   9.058   9.401   8.831 -1.3309  1.6109 -3.5263
  597MOL0     H80536   9.121   9.622   8.754 -1.1558 -0.3533  0.4952
  597MOL0     H80537   9.095   9.694   8.919  3.2564 -1.4665  2.9156
  597MOL0     H80538   9.283   9.524   8.996  4.6771 -0.6860 -0.6007
  597MOL0     H80539   9.296   9.481   8.826 -1.8820  0.5261 -1.2517
  597MOL0     H80540   9.349   9.717   8.775 -0.2879 -3.2162 -1.2200
  597MOL0     H80541   9.313   9.762   8.944 -0.1821 -1.8957  2.8644
  597MOL0     H80542   9.551   9.767   8.927  2.4941 -1.1838  2.0471
  597MOL0     H80543   9.515   9.629   9.026  1.4943  1.5619  1.7158
  597MOL0     H80544   9.545   9.480   8.832 -0.0656  0.2167 -0.8284
  597MOL0     H80545   9.688   9.588   8.863 -0.5563 -1.1934  3.9973
  597MOL0     H80546   9.418   9.513   8.595  1.8502 -1.6781  0.2974
  597MOL0     H80547   9.492   9.691   8.283  0.1606  0.6738  0.4269
  597MOL0     H80548   9.437   9.533   8.346  0.0940  0.6226 -1.7087
  597MOL0     H80549   9.246   9.682   8.251 -0.5061  1.6197 -0.1227
  597MOL0     H80550   9.305   9.810   8.347  0.7612 -0.7741 -0.7989
  597MOL0     H80551   9.237   9.716   8.556 -2.1385  1.7598 -0.2711
  597MOL0     H80552   9.214   9.551   8.487  0.8245 -0.2807 -1.8819
  597MOL0     H80553   9.064   9.793   8.402 -2.7789 -0.3740  1.1413
  597MOL0     H80554   9.016   9.710   8.542  0.5614  2.9870  0.2401
  597MOL0     H80555   8.858   9.820   8.359  0.0267  1.3108 -2.9418
  597MOL0     H80556   8.696   9.944   8.389  0.9585 -1.1792 -0.4694
  597MOL0     H80557   8.620   9.916   8.218  0.2900 -0.4845 -0.0826
  597MOL0     H80558   8.525   9.885   8.364 -0.3859 -2.9159 -1.9332
  597MOL0     H80559   8.277   9.459   8.335  1.2615 -0.9054  0.4374
  597MOL0     H80560   8.085   9.305   8.259 -1.3659 -2.4383 -2.0292
  597MOL0     H80561   7.972   9.081   8.095  3.1360  1.6332  1.3780
  597MOL0     H80562   7.918   9.214   8.189 -1.2120  0.8363  0.1884
  597MOL0     H80563   7.753   9.268   8.023  1.3735 -0.4461 -0.1954
  597MOL0     H80564   7.806   9.128   7.912 -0.8924 -4.7073  1.3103
  597MOL0     H80565   7.613   9.108   8.085  1.0180  1.5483 -2.1390
  597MOL0     H80566   7.733   9.054   8.197 -1.8313  0.4206  1.2545
  597MOL0     H80567   7.699   8.932   7.920  0.0507  0.5987  0.9320
  597MOL0     H80568   7.820   8.879   8.035 -0.6965 -1.6925 -0.3786
  597MOL0     H80569   7.674   8.763   8.164  2.4846 -2.0086 -1.9890
  597MOL0     H80570   7.616   8.737   8.004 -1.4918  0.9346  0.1261
  597MOL0     H80571   7.492   8.924   8.214 -1.8628  1.8518 -0.7141
  597MOL0     H80572   7.477   8.949   8.046  3.2598 -3.0521 -2.3909
  597MOL0     H80573   7.374   8.736   8.226  1.5096  2.6860  1.3118
  597MOL0     H80574   7.382   8.704   8.040 -2.5181 -1.0808  0.8127
  597MOL0     H80575   7.234   8.926   8.005 -2.8782 -0.3944 -0.9744
  597MOL0     H80576   7.239   8.934   8.167  3.4690 -0.3131  0.9251
  597MOL0     H80577   8.130   9.422   7.848  0.3917  1.8931 -0.1737
  597MOL0     H80578   8.326   9.570   7.919 -1.8766  0.6137 -0.6096
  597MOL0     H80579   8.608   9.405   8.282  0.8459 -1.3965  5.0521
  597MOL0     H80580   8.850   9.391   8.328  2.5542  0.2462 -1.6767
  597MOL0     H80581   8.440   9.534   8.715  0.5961  1.0390 -2.3787
  597MOL0     H80582   8.269   9.389   8.617  1.8031  2.2819  2.1890
  597MOL0     H80583   8.174   9.019   8.328 -0.1853 -1.7683 -1.3191
  597MOL0     H80584   8.018   8.854   8.263  0.3395  0.9076  0.1064
  597MOL0     H80585   8.006   8.615   8.473  0.1917 -1.9760  0.4643
  597MOL0     H80586   7.857   8.584   8.553  2.3138  1.1998  1.7010
  597MOL0     H80587   7.921   8.411   8.389  0.0107  0.1218 -0.4055
  597MOL0     H80588   7.894   8.514   8.259 -1.4163  2.9515  0.2931
  597MOL0     H80589   7.658   8.557   8.350 -2.0545 -0.7628  1.7430
  597MOL0     H80590   7.686   8.430   8.470  0.4669  0.8366  0.5406
  597MOL0     H80591   7.673   8.256   8.284 -5.2811 -1.6354  1.7278
  597MOL0     H80592   7.693   8.381   8.154 -2.7114  0.0840 -0.4159
  597MOL0     H80593   7.299   8.444   8.205 -0.1586 -1.3048 -0.2736
  597MOL0     H80594   7.817   8.858   8.620  0.7149  1.2181  0.4602
  597MOL0     H80595   7.980   9.018   8.715  1.4255 -0.1157 -0.3763
  598MOL0     O80596   3.321   2.534  10.892 -0.0003  0.2535 -0.4945
  598MOL0     C80597   3.362   2.530  10.781  0.2443  0.4321 -0.5718
  598MOL0     O80598   3.295   2.500  10.672 -0.1483 -0.3712  0.4841
  598MOL0     C80599   3.192   2.410  10.688 -1.1428 -0.7166  0.2282
  598MOL0     C80600   3.185   2.313  10.788 -0.5579 -0.2164  0.5385
  598MOL0     C80601   3.067   2.244  10.801  0.5987  0.0576  0.2531
  598MOL0     C80602   2.967   2.254  10.707  0.0690 -0.2900 -0.9135
  598MOL0     O80603   2.848   2.191  10.748  0.5851 -0.7991 -0.1010
  598MOL0     C80604   2.735   2.210  10.664  0.1512  0.6112 -0.2411
  598MOL0     C80605   2.614   2.158  10.743  0.0218 -0.1941  0.1349
  598MOL0     C80606   2.643   2.007  10.783 -0.1779 -0.4667 -0.4683
  598MOL0     C80607   2.511   1.937  10.828  0.3731  0.9797  0.8821
  598MOL0     C80608   2.516   1.785  10.859 -0.7815  0.1445 -1.1079
  598MOL0     C80609   2.553   1.698  10.735 -1.2364 -0.7442  0.0933
  598MOL0     C80610   2.438   1.671  10.650  0.2347  0.8123  0.1320
  598MOL0     C80611   2.479   1.599  10.522 -0.8314  1.2896  0.5797
  598MOL0     N80612   2.378   1.510  10.460 -0.9046 -0.4865 -0.5290
  598MOL0     C80613   2.246   1.535  10.445 -0.5273 -1.2941 -0.2041
  598MOL0     C80614   2.196   1.429  10.379  0.3645 -0.2688  0.2580
  598MOL0     C80615   2.050   1.431  10.348  0.2765 -0.5486 -0.0402
  598MOL0     C80616   1.974   1.330  10.435  0.4987  0.4719 -0.6518
  598MOL0     C80617   1.947   1.350  10.584  0.0168  0.3276 -0.5142
  598MOL0     C80618   2.060   1.341  10.692  0.4773  0.2334  0.8393
  598MOL0     O80619   2.034   1.424  10.807  0.3569  0.3809  0.8542
  598MOL0     C80620   2.133   1.435  10.890 -0.3445  0.4400 -0.2923
  598MOL0     C80621   2.100   1.500  11.010 -0.3058  0.6147 -0.3221
  598MOL0     C80622   2.190   1.516  11.113  0.1030  0.1494 -0.8092
  598MOL0     C80623   2.114   1.595  11.228  1.1296  0.1149 -0.7374
  598MOL0     C80624   2.323   1.478  11.098 -0.2571 -1.0528  0.6122
  598MOL0     C80625   2.429   1.515  11.200  0.1723  0.0374 -0.6079
  598MOL0     O80626   2.394   1.603  11.300 -0.0563 -0.3135  0.3329
  598MOL0     C80627   2.481   1.620  11.405  0.6500  0.9798  0.6944
  598MOL0     C80628   2.506   1.742  11.464  0.3033 -0.0191  0.1816
  598MOL0     C80629   2.599   1.749  11.567  0.3399 -0.1061 -0.2619
  598MOL0     C80630   2.660   1.640  11.634 -0.2356  0.0754  0.5053
  598MOL0     O80631   2.729   1.671  11.743  0.0861  0.4655  0.3484
  598MOL0     C80632   2.796   1.572  11.819  0.6546  0.3008  0.1986
  598MOL0     C80633   2.839   1.642  11.945  0.0830  0.4564  0.0352
  598MOL0     C80634   2.724   1.651  12.047 -0.7327  0.2403 -0.8217
  598MOL0     C80635   2.749   1.744  12.174 -0.6245  0.1831  0.5004
  598MOL0     C80636   2.617   1.771  12.259  0.1160  0.2042 -0.0244
  598MOL0     C80637   2.658   1.825  12.396 -0.7744  0.1290  0.0507
  598MOL0     C80638   2.701   1.970  12.393 -0.1695  0.1868  0.6511
  598MOL0     C80639   2.771   2.015  12.520  1.0277 -0.3272 -0.7783
  598MOL0    Cl80640   2.654   2.085  12.625  0.4723  0.2694  0.5855
  598MOL0     C80641   2.621   1.518  11.579  1.0384  0.1769 -0.3322
  598MOL0     C80642   2.537   1.507  11.471 -0.5060 -0.0117 -0.1052
  598MOL0     O80643   2.537   1.461  11.187  0.5215 -0.3528 -0.6175
  598MOL0     C80644   2.356   1.411  10.980 -0.6258 -0.5479 -0.2079
  598MOL0     C80645   2.263   1.388  10.882 -0.6342 -0.1072 -0.3855
  598MOL0     N80646   2.292   1.338  10.358 -0.6466  0.4246 -0.1458
  598MOL0     N80647   2.397   1.388  10.394 -0.2458 -0.2696 -0.5177
  598MOL0     C80648   2.983   2.338  10.592 -1.0737  0.7396  0.0025
  598MOL0     C80649   3.101   2.426  10.586  0.9322  0.2214 -0.2434
  598MOL0     C80650   3.513   2.539  10.761 -0.4034  0.2687 -0.5814
  598MOL0     C80651   3.598   2.519  10.875 -0.3121 -0.2188  0.0875
  598MOL0     C80652   3.739   2.540  10.864 -0.3249  0.4996 -0.6618
  598MOL0     C80653   3.797   2.576  10.742  0.3312  0.1004  0.3581
  598MOL0     O80654   3.930   2.609  10.744 -0.1241 -0.4954  0.3188
  598MOL0     C80655   3.999   2.613  10.618 -0.7386  0.3950  0.2658
  598MOL0     C80656   3.998   2.770  10.568  0.4379  0.6438 -0.1261
  598MOL0     C80657   4.041   2.782  10.426  0.1735 -0.2951 -0.0526
  598MOL0     C80658   3.920   2.783  10.338  0.1395 -1.0735  0.4189
  598MOL0     C80659   3.966   2.747  10.199 -0.4651 -0.0437 -0.1946
  598MOL0     C80660   3.997   2.753  10.077 -0.8721  0.4424 -0.4318
  598MOL0     C80661   3.715   2.601  10.635 -0.6536 -0.5722  0.3109
  598MOL0     C80662   3.579   2.571  10.639  1.6623  0.4471  0.5874
  598MOL0     H80663   3.262   2.314  10.865  0.2124  1.5608 -0.2070
  598MOL0     H80664   3.040   2.188  10.890 -0.6405  0.3435  0.0733
  598MOL0     H80665   2.724   2.314  10.632 -0.9107  0.6914  0.3427
  598MOL0     H80666   2.745   2.136  10.584 -2.4065 -2.7752  2.2866
  598MOL0     H80667   2.600   2.222  10.830 -1.4808 -0.3426  0.0394
  598MOL0     H80668   2.514   2.161  10.698 -0.2940 -2.0001  0.6181
  598MOL0     H80669   2.694   1.949  10.705  2.6221  1.2180 -0.0363
  598MOL0     H80670   2.716   2.009  10.864  1.4343  0.5567 -1.8732
  598MOL0     H80671   2.470   1.977  10.921 -0.4629 -0.4152  1.1343
  598MOL0     H80672   2.440   1.952  10.746  1.8029  0.0911 -0.5732
  598MOL0     H80673   2.601   1.782  10.929 -2.0601  0.9161  0.5416
  598MOL0     H80674   2.423   1.749  10.903  0.5389 -1.4631  0.5499
  598MOL0     H80675   2.629   1.740  10.668 -0.0721  1.2552  2.5081
  598MOL0     H80676   2.589   1.600  10.768 -1.9339 -2.2347 -3.1585
  598MOL0     H80677   2.373   1.607  10.711  1.6003 -0.8362 -0.0957
  598MOL0     H80678   2.371   1.756  10.635 -0.0236  0.7833  1.0098
  598MOL0     H80679   2.565   1.533  10.538 -0.9597  1.8039  4.4354
  598MOL0     H80680   2.522   1.675  10.456 -0.5362 -0.2269 -1.0353
  598MOL0     H80681   2.200   1.622  10.490  2.7807  0.6121 -0.1725
  598MOL0     H80682   1.995   1.524  10.364 -0.3392 -1.1638  1.5932
  598MOL0     H80683   2.037   1.400  10.244 -1.7251 -1.4240  0.4323
  598MOL0     H80684   2.010   1.230  10.409 -2.2893 -0.6625 -0.5584
  598MOL0     H80685   1.872   1.328  10.396 -1.0442  2.0237  2.8559
  598MOL0     H80686   1.871   1.280  10.620  1.8398 -1.5527 -0.1540
  598MOL0     H80687   1.893   1.446  10.584 -0.0916  0.2674 -0.7584
  598MOL0     H80688   2.153   1.377  10.647  0.6183 -0.7153  0.3393
  598MOL0     H80689   2.075   1.236  10.719  1.0188  0.9710  3.7636
  598MOL0     H80690   2.003   1.549  11.009 -0.1355  0.9483 -0.5266
  598MOL0     H80691   2.008   1.576  11.246  1.7352 -0.8458  2.4001
  598MOL0     H80692   2.143   1.575  11.331 -2.3743 -1.7238  0.0316
  598MOL0     H80693   2.129   1.702  11.210  2.7782  0.3417  1.5840
  598MOL0     H80694   2.472   1.829  11.410  0.9524  0.6373  0.8133
  598MOL0     H80695   2.623   1.845  11.611 -3.3157  0.6777  0.3471
  598MOL0     H80696   2.727   1.490  11.842  2.7075 -1.2328  1.2563
  598MOL0     H80697   2.881   1.525  11.771  0.5372  0.1591  0.1285
  598MOL0     H80698   2.901   1.564  11.991  1.4907  0.5465 -1.6122
  598MOL0     H80699   2.904   1.723  11.911  0.7159 -0.4111 -0.8644
  598MOL0     H80700   2.706   1.545  12.066  0.6760 -0.2462 -1.9723
  598MOL0     H80701   2.630   1.690  12.009 -0.9320  0.8105  0.2147
  598MOL0     H80702   2.840   1.716  12.227  0.8985 -1.1973 -2.6067
  598MOL0     H80703   2.779   1.839  12.129 -2.9519 -0.3298 -2.5487
  598MOL0     H80704   2.549   1.687  12.276 -1.6845  0.9994 -2.7003
  598MOL0     H80705   2.559   1.853  12.215 -0.9306 -0.0635  0.8019
  598MOL0     H80706   2.569   1.817  12.460 -0.9433  0.4680 -0.1384
  598MOL0     H80707   2.735   1.759  12.436 -1.2090 -1.8893 -2.2163
  598MOL0     H80708   2.617   2.035  12.369 -0.6035 -0.7399 -0.4111
  598MOL0     H80709   2.781   1.986  12.320 -1.2380 -0.3227 -0.6688
  598MOL0     H80710   2.844   2.095  12.507 -0.2036  1.0435  0.3823
  598MOL0     H80711   2.826   1.937  12.574  3.7807  1.3593 -0.9565
  598MOL0     H80712   2.665   1.424  11.611 -1.4428 -0.9728 -0.0251
  598MOL0     H80713   2.510   1.411  11.428  0.0469 -0.7354  1.1140
  598MOL0     H80714   2.458   1.378  10.962 -1.6459 -4.6762  0.4920
  598MOL0     H80715   2.307   1.341  10.795  1.3010  0.1125  0.4220
  598MOL0     H80716   2.904   2.348  10.517 -0.7805  0.8189 -0.3003
  598MOL0     H80717   3.111   2.499  10.507  1.9002  0.5718  0.1801
  598MOL0     H80718   3.555   2.495  10.972  1.0554  1.3995  1.1544
  598MOL0     H80719   3.795   2.523  10.955 -2.1131  2.2179  0.8283
  598MOL0     H80720   4.102   2.577  10.628  0.0164  2.1066 -0.8320
  598MOL0     H80721   3.948   2.550  10.544 -0.0386  1.2412 -0.9647
  598MOL0     H80722   4.073   2.823  10.627 -0.1412  0.5311  0.7366
  598MOL0     H80723   3.902   2.817  10.591  1.3924  2.2297  0.8217
  598MOL0     H80724   4.118   2.707  10.404  1.9704  1.4452  0.0094
  598MOL0     H80725   4.090   2.879  10.418  0.6011 -0.5611 -0.7140
  598MOL0     H80726   3.878   2.883  10.353  0.7238 -1.2136  3.5039
  598MOL0     H80727   3.841   2.716  10.372 -1.2289  0.6739  0.8744
  598MOL0     H80728   4.023   2.742   9.974  0.5713  1.3652 -0.1943
  598MOL0     H80729   3.767   2.652  10.554 -0.7572  0.4311  0.8589
  598MOL0     H80730   3.519   2.592  10.551  0.0387  2.6602  2.1115
  599MOL0     O80731   5.142   0.870   8.828 -0.2067 -0.0986 -0.7729
  599MOL0     C80732   5.161   0.846   8.709 -0.3394  0.2275 -0.9768
  599MOL0     O80733   5.271   0.882   8.638  0.0714 -0.0446 -0.5568
  599MOL0     C80734   5.355   0.985   8.683  0.0736  0.1591 -1.1014
  599MOL0     C80735   5.478   0.991   8.637  0.6394  0.9802  0.1073
  599MOL0     C80736   5.568   1.095   8.660 -0.9290 -0.2817 -1.3042
  599MOL0     C80737   5.535   1.197   8.758 -0.2065 -0.0458  0.0509
  599MOL0     O80738   5.620   1.292   8.809 -0.2009 -0.1611  0.4919
  599MOL0     C80739   5.751   1.245   8.844 -0.7877  0.5280 -0.9938
  599MOL0     C80740   5.758   1.161   8.979 -0.1161 -0.7657  0.6953
  599MOL0     C80741   5.735   1.251   9.104 -0.2167  0.4376 -0.6563
  599MOL0     C80742   5.762   1.159   9.230 -0.0679  0.1030  0.1968
  599MOL0     C80743   5.713   1.228   9.360  0.4156  0.2021 -0.3841
  599MOL0     C80744   5.751   1.141   9.483  0.0905  1.8803  0.0609
  599MOL0     C80745   5.756   1.214   9.619  0.9789 -0.2031  0.4534
  599MOL0     C80746   5.841   1.136   9.718 -0.6630  0.3750 -0.9321
  599MOL0     N80747   5.819   1.174   9.860 -0.2703  0.3234  0.0222
  599MOL0     C80748   5.725   1.111   9.943  0.0243  0.1974 -0.4450
  599MOL0     C80749   5.703   1.189  10.049 -0.6667 -0.5974  0.0413
  599MOL0     C80750   5.593   1.177  10.151 -0.3141  0.6748  0.0269
  599MOL0     C80751   5.544   1.310  10.215  0.3651 -0.0609  0.4430
  599MOL0     C80752   5.471   1.408  10.111  0.2965  0.5304 -0.3848
  599MOL0     C80753   5.578   1.500  10.039 -0.6256  0.3419  0.3430
  599MOL0     O80754   5.537   1.619   9.967 -1.1306  0.0539 -1.0188
  599MOL0     C80755   5.516   1.611   9.831  0.2752 -0.4166 -0.0973
  599MOL0     C80756   5.452   1.493   9.773 -0.6711  0.1518 -0.7204
  599MOL0     C80757   5.428   1.491   9.640 -0.7104 -0.2205 -0.1161
  599MOL0     C80758   5.342   1.375   9.592  0.0981  0.0804 -0.0040
  599MOL0     C80759   5.467   1.602   9.557 -0.5068  0.2276  0.1152
  599MOL0     C80760   5.422   1.615   9.414 -0.7673  0.4990 -0.1686
  599MOL0     O80761   5.467   1.728   9.344 -0.5290 -0.5585  0.2407
  599MOL0     C80762   5.454   1.745   9.206 -0.8112  0.9348  0.1810
  599MOL0     C80763   5.517   1.654   9.116 -0.0236 -0.5427 -0.2336
  599MOL0     C80764   5.498   1.665   8.980  0.5354 -0.7044  0.2370
  599MOL0     C80765   5.417   1.766   8.926 -0.7790  0.6179 -0.2476
  599MOL0     O80766   5.426   1.788   8.790  0.2402  0.4144  0.2777
  599MOL0     C80767   5.302   1.784   8.718 -0.1029  0.3654 -0.1913
  599MOL0     C80768   5.239   1.643   8.707  0.4924 -0.0763 -0.2479
  599MOL0     C80769   5.331   1.526   8.653 -0.3237 -0.4193 -0.9125
  599MOL0     C80770   5.392   1.559   8.518  0.3164  0.0948  0.7719
  599MOL0     C80771   5.496   1.464   8.451  0.0666  0.0270 -0.4836
  599MOL0     C80772   5.440   1.327   8.416  0.0436  0.2248 -0.7619
  599MOL0     C80773   5.311   1.328   8.324 -0.4420 -0.3960 -0.0183
  599MOL0     C80774   5.322   1.416   8.204  0.0520 -0.7536 -0.1779
  599MOL0    Cl80775   5.171   1.394   8.100  0.0545 -0.0519  0.1686
  599MOL0     C80776   5.343   1.848   9.008 -0.1931 -0.2811  0.0611
  599MOL0     C80777   5.371   1.844   9.148  0.2347 -0.6833 -0.2949
  599MOL0     O80778   5.342   1.533   9.362 -0.0062 -0.9212 -0.7946
  599MOL0     C80779   5.531   1.717   9.615 -0.1409  0.5532  0.3621
  599MOL0     C80780   5.554   1.721   9.754  0.4011  0.5966 -1.3309
  599MOL0     N80781   5.793   1.292  10.031 -0.5213 -0.0055 -0.6759
  599MOL0     N80782   5.867   1.286   9.918  1.3437 -0.6478 -0.5645
  599MOL0     C80783   5.403   1.187   8.810  0.4372 -0.8913 -0.0262
  599MOL0     C80784   5.312   1.088   8.772  0.9323  0.0272  0.7288
  599MOL0     C80785   5.070   0.750   8.641 -0.1356  0.4398  0.5819
  599MOL0     C80786   4.940   0.727   8.696  0.0419 -0.4399 -0.2472
  599MOL0     C80787   4.847   0.652   8.633  0.6737 -0.5291 -0.5191
  599MOL0     C80788   4.888   0.580   8.514  0.8954  0.5753 -0.8774
  599MOL0     O80789   4.805   0.498   8.444 -1.3710 -0.4149  0.4070
  599MOL0     C80790   4.700   0.440   8.500  0.6387 -0.3980 -0.3595
  599MOL0     C80791   4.572   0.506   8.477 -0.2495 -0.1334 -0.4105
  599MOL0     C80792   4.592   0.617   8.359  0.9534 -0.2061 -1.1827
  599MOL0     C80793   4.449   0.650   8.307 -0.0741 -0.3148  0.3541
  599MOL0     C80794   4.466   0.770   8.219 -0.1609  0.6746 -0.0277
  599MOL0     C80795   4.496   0.856   8.138  0.9035 -0.4030  0.0374
  599MOL0     C80796   5.021   0.594   8.460 -0.6200  0.6782  0.1773
  599MOL0     C80797   5.107   0.687   8.521 -0.4150  0.1700 -0.5918
  599MOL0     H80798   5.519   0.922   8.564  1.2812  3.0502 -1.5720
  599MOL0     H80799   5.666   1.082   8.615  0.6967  2.7671  0.9819
  599MOL0     H80800   5.803   1.184   8.768  1.8107 -0.8513  1.6790
  599MOL0     H80801   5.800   1.342   8.849 -1.0469  0.6147  0.0211
  599MOL0     H80802   5.667   1.099   8.976 -0.5826 -0.1081 -2.3588
  599MOL0     H80803   5.848   1.098   8.982  0.8813  0.6493  1.6370
  599MOL0     H80804   5.798   1.340   9.102 -1.4073  1.2970 -1.5067
  599MOL0     H80805   5.628   1.275   9.101 -0.3475 -0.0589 -3.7755
  599MOL0     H80806   5.702   1.067   9.224 -1.9956  0.9786  3.4630
  599MOL0     H80807   5.870   1.143   9.239 -0.0574  0.5495  0.9201
  599MOL0     H80808   5.755   1.329   9.367  0.0161  0.5792 -2.6128
  599MOL0     H80809   5.606   1.249   9.356  0.5760  2.2186  2.6593
  599MOL0     H80810   5.687   1.052   9.478 -0.4203  2.0885  2.0647
  599MOL0     H80811   5.855   1.111   9.468 -0.3832  1.1690 -2.3139
  599MOL0     H80812   5.804   1.309   9.597  1.2745 -0.5017 -0.2306
  599MOL0     H80813   5.650   1.228   9.643  1.4357  2.5800  1.1634
  599MOL0     H80814   5.948   1.133   9.696 -0.3203 -2.2913  0.6586
  599MOL0     H80815   5.818   1.029   9.705 -1.2178  0.6388 -2.3374
  599MOL0     H80816   5.677   1.017   9.917 -0.6917 -0.0909  1.7119
  599MOL0     H80817   5.508   1.138  10.096 -0.0339  3.7712 -2.9387
  599MOL0     H80818   5.622   1.103  10.226 -3.3225 -0.3467  0.3204
  599MOL0     H80819   5.635   1.351  10.261  1.0945  0.4713 -1.3806
  599MOL0     H80820   5.471   1.279  10.290 -0.5634  0.3328 -0.2853
  599MOL0     H80821   5.400   1.466  10.171  1.6730  1.9863 -0.1045
  599MOL0     H80822   5.407   1.361  10.036 -1.0616  6.0087 -3.1954
  599MOL0     H80823   5.631   1.447   9.960  2.3339  1.5036  1.4342
  599MOL0     H80824   5.652   1.532  10.112  1.1057  1.8701 -1.9579
  599MOL0     H80825   5.404   1.412   9.826 -2.2072  1.5274  0.0726
  599MOL0     H80826   5.310   1.313   9.676 -2.7917  1.5422  0.0822
  599MOL0     H80827   5.249   1.415   9.552 -1.0086 -1.6593  0.7541
  599MOL0     H80828   5.387   1.305   9.521 -3.9314 -2.1580 -0.5876
  599MOL0     H80829   5.590   1.580   9.147  2.9796  1.8497 -1.1262
  599MOL0     H80830   5.557   1.606   8.910  1.1586  0.2631 -0.0635
  599MOL0     H80831   5.227   1.846   8.768  1.4192 -1.2057  4.5161
  599MOL0     H80832   5.317   1.820   8.616  0.0549  1.5440  0.2288
  599MOL0     H80833   5.185   1.619   8.799  1.0741  0.3916  0.2247
  599MOL0     H80834   5.164   1.663   8.629  0.9334 -1.5376 -1.0789
  599MOL0     H80835   5.267   1.437   8.658 -0.6878 -0.0884  2.0312
  599MOL0     H80836   5.410   1.508   8.725 -0.4040 -0.6252 -0.8741
  599MOL0     H80837   5.317   1.587   8.443  1.6913  1.3546 -0.1757
  599MOL0     H80838   5.448   1.651   8.533 -3.1790  2.2057  2.1454
  599MOL0     H80839   5.587   1.462   8.512  0.2581  1.2609 -0.6979
  599MOL0     H80840   5.533   1.517   8.363  0.9848  1.1341  0.5274
  599MOL0     H80841   5.501   1.260   8.354  1.5189  0.9936 -0.1920
  599MOL0     H80842   5.416   1.273   8.508 -1.5408  1.5585 -0.3370
  599MOL0     H80843   5.218   1.356   8.375 -1.2012  0.0312 -1.5883
  599MOL0     H80844   5.285   1.228   8.288 -0.7772  0.5876 -2.6480
  599MOL0     H80845   5.407   1.377   8.147 -0.7190 -1.4916 -0.8532
  599MOL0     H80846   5.345   1.520   8.227 -1.1783 -1.0486  2.8955
  599MOL0     H80847   5.297   1.937   8.964  1.4272  0.9285  0.6817
  599MOL0     H80848   5.335   1.918   9.219  1.1743 -1.1554  0.7188
  599MOL0     H80849   5.556   1.809   9.563 -0.8871  0.2760 -0.5092
  599MOL0     H80850   5.611   1.797   9.805  0.0889  0.0695 -0.1603
  599MOL0     H80851   5.376   1.276   8.866  0.1546 -0.3056 -1.0518
  599MOL0     H80852   5.215   1.085   8.821 -0.3863 -3.8539 -1.7042
  599MOL0     H80853   4.894   0.773   8.783 -1.5874  0.1585 -1.3793
  599MOL0     H80854   4.748   0.646   8.677  1.7793 -2.0645  1.9401
  599MOL0     H80855   4.688   0.336   8.467  1.7339 -0.1127 -1.7874
  599MOL0     H80856   4.725   0.438   8.606  0.1314 -1.7649 -0.2436
  599MOL0     H80857   4.546   0.543   8.577  0.3231 -0.4802 -0.1326
  599MOL0     H80858   4.499   0.435   8.437 -2.4811  1.9611 -0.3192
  599MOL0     H80859   4.657   0.589   8.276  3.8195 -1.2372  1.2273
  599MOL0     H80860   4.639   0.702   8.410  0.6595 -0.1788 -0.9555
  599MOL0     H80861   4.383   0.681   8.388  1.8821 -0.7775  2.2277
  599MOL0     H80862   4.401   0.567   8.255 -2.5966  0.4224  1.3296
  599MOL0     H80863   4.513   0.936   8.069  0.1901 -0.3345 -0.0664
  599MOL0     H80864   5.063   0.553   8.369  2.1434  2.6296  0.4443
  599MOL0     H80865   5.205   0.697   8.476 -0.4760  1.2000 -0.5025
  600MOL0     O80866   8.291   9.971   4.989 -1.2956  0.5099  0.6543
  600MOL0     C80867   8.170   9.967   5.004  1.1457  0.0650  0.8088
  600MOL0     O80868   8.097  10.063   5.063  0.2510 -0.0491 -0.6148
  600MOL0     C80869   8.171  10.149   5.142  0.2308 -0.1564 -0.6323
  600MOL0     C80870   8.146  10.286   5.141 -0.2125  0.1655  1.1217
  600MOL0     C80871   8.206  10.376   5.224  0.1497 -0.0449  0.0120
  600MOL0     C80872   8.292  10.319   5.318  0.1626  0.0518 -1.2382
  600MOL0     O80873   8.362  10.410   5.398  0.7322 -0.1580  0.1007
  600MOL0     C80874   8.315  10.415   5.533  0.4344  0.1994  0.9463
  600MOL0     C80875   8.298  10.560   5.584  0.2880 -0.5639  0.1334
  600MOL0     C80876   8.431  10.628   5.585 -0.3233  0.2511  0.5625
  600MOL0     C80877   8.490  10.599   5.730 -0.7764 -0.6637  0.3387
  600MOL0     C80878   8.420  10.684   5.846 -1.0973  0.4532 -0.1284
  600MOL0     C80879   8.498  10.671   5.976 -0.8531  0.0623 -0.8390
  600MOL0     C80880   8.435  10.737   6.101 -0.6571  0.2039  0.6678
  600MOL0     C80881   8.458  10.891   6.109  0.9195  0.8713  0.6027
  600MOL0     N80882   8.601  10.910   6.100  0.0445  0.5380 -0.3654
  600MOL0     C80883   8.674  10.941   5.994  0.1855  0.5239  0.1554
  600MOL0     C80884   8.792  10.979   6.054  0.1870 -0.4470  0.6475
  600MOL0     C80885   8.912  11.023   5.978  0.3092 -0.3105 -0.8421
  600MOL0     C80886   8.919  11.178   5.976  0.1812  0.1532 -0.3505
  600MOL0     C80887   9.018  11.231   5.865  0.2184  0.4481 -0.4306
  600MOL0     C80888   9.066  11.380   5.909  0.4315  0.5951  0.2964
  600MOL0     O80889   8.960  11.472   5.890  0.1888  0.1326  0.1595
  600MOL0     C80890   8.984  11.603   5.925  1.4766  0.5278 -0.2463
  600MOL0     C80891   8.871  11.676   5.930 -0.4186 -0.3192 -0.2830
  600MOL0     C80892   8.873  11.815   5.955 -0.2258  0.2522  0.0842
  600MOL0     C80893   8.736  11.888   5.972 -0.8162  0.1095  0.0728
  600MOL0     C80894   8.998  11.886   5.961 -0.1659  0.1834  0.1866
  600MOL0     C80895   9.015  12.028   5.994 -0.0088 -0.5177 -0.7740
  600MOL0     O80896   9.125  12.082   6.065  0.5337 -0.3679 -0.5894
  600MOL0     C80897   9.103  12.137   6.186 -0.1966  0.0668  0.2151
  600MOL0     C80898   8.985  12.137   6.256  0.5667  0.0125  0.7992
  600MOL0     C80899   8.980  12.190   6.389 -0.3424  0.5993 -0.3267
  600MOL0     C80900   9.105  12.246   6.452  0.4607  1.4277 -0.0108
  600MOL0     O80901   9.117  12.303   6.573 -0.7635 -0.3379 -0.6900
  600MOL0     C80902   9.009  12.284   6.660 -0.4401 -0.7916 -0.2823
  600MOL0     C80903   9.064  12.292   6.804 -0.2227  0.6921  0.6835
  600MOL0     C80904   9.099  12.154   6.855 -0.0670 -0.2487  0.5701
  600MOL0     C80905   9.042  12.136   6.998  1.3050 -1.0210  0.3520
  600MOL0     C80906   9.122  12.025   7.070  0.5123  0.8080  0.2214
  600MOL0     C80907   9.066  12.015   7.213  0.3665  0.6696  0.2876
  600MOL0     C80908   9.128  11.891   7.292  0.0080 -0.3871  0.9029
  600MOL0     C80909   9.274  11.894   7.300  0.4663 -0.7691 -0.3049
  600MOL0    Cl80910   9.322  12.052   7.383 -0.4185 -0.6234  0.3635
  600MOL0     C80911   9.218  12.225   6.377 -0.3026  0.4572  0.5777
  600MOL0     C80912   9.221  12.178   6.246 -0.1718 -1.0754 -0.0093
  600MOL0     O80913   8.931  12.099   5.945  0.8582  0.0396 -0.2372
  600MOL0     C80914   9.114  11.807   5.958  0.4487 -0.1645 -0.0069
  600MOL0     C80915   9.102  11.671   5.946  0.3213 -0.1794  0.9436
  600MOL0     N80916   8.796  10.945   6.184 -0.3280  0.4377 -0.0654
  600MOL0     N80917   8.678  10.908   6.213  0.2815 -0.0243 -0.3570
  600MOL0     C80918   8.316  10.185   5.343 -0.0494  0.4998 -0.4123
  600MOL0     C80919   8.260  10.094   5.244  0.2536  0.0027 -0.1013
  600MOL0     C80920   8.106   9.844   4.936 -0.7408 -0.1397 -1.1001
  600MOL0     C80921   8.189   9.738   4.885 -0.4554 -0.0644  0.1770
  600MOL0     C80922   8.125   9.624   4.846  0.3753 -0.1066  0.6199
  600MOL0     C80923   7.989   9.605   4.852 -0.7304 -0.4251  0.9112
  600MOL0     O80924   7.950   9.484   4.802  0.0486 -0.3282  0.5177
  600MOL0     C80925   7.904   9.392   4.906 -0.3742 -0.0496 -0.1208
  600MOL0     C80926   8.032   9.317   4.964  0.3012 -0.3606  0.2020
  600MOL0     C80927   8.011   9.239   5.101 -0.2563 -0.8741 -0.1611
  600MOL0     C80928   7.904   9.129   5.105 -0.0162 -0.5861 -0.2397
  600MOL0     C80929   7.862   9.099   5.243 -0.0376  0.4029 -0.8110
  600MOL0     C80930   7.809   9.076   5.352  0.4073 -0.4996 -0.4067
  600MOL0     C80931   7.906   9.700   4.904 -0.1097 -0.1938 -0.7472
  600MOL0     C80932   7.965   9.819   4.947  0.1546 -0.1913  0.4332
  600MOL0     H80933   8.077  10.328   5.067  1.6096  3.1008  0.9385
  600MOL0     H80934   8.191  10.483   5.213 -3.4217 -0.3272  1.1362
  600MOL0     H80935   8.218  10.365   5.539  1.6102 -2.7568 -2.0160
  600MOL0     H80936   8.386  10.367   5.601  1.6966  1.0894  0.2891
  600MOL0     H80937   8.235  10.608   5.508 -1.9525 -2.6537  0.5441
  600MOL0     H80938   8.249  10.563   5.681 -4.5159  0.8707 -2.0305
  600MOL0     H80939   8.495  10.575   5.514  0.5482 -2.7349  3.3463
  600MOL0     H80940   8.424  10.735   5.560  1.8734 -0.0994 -2.0155
  600MOL0     H80941   8.482  10.496   5.765  1.7006  0.0259  3.3887
  600MOL0     H80942   8.597  10.623   5.725 -0.5600 -1.1976  1.9195
  600MOL0     H80943   8.422  10.790   5.822 -0.1542  0.3983 -0.3607
  600MOL0     H80944   8.313  10.666   5.855 -1.4126  2.2430  0.0217
  600MOL0     H80945   8.496  10.569   6.015  0.7017  0.2885 -0.0925
  600MOL0     H80946   8.602  10.703   5.970 -0.9274  0.4311 -0.2418
  600MOL0     H80947   8.328  10.712   6.103 -0.6898 -0.3808 -2.3354
  600MOL0     H80948   8.492  10.708   6.189 -1.1359 -0.6799  0.7002
  600MOL0     H80949   8.428  10.924   6.209  5.3411 -0.0643  2.4697
  600MOL0     H80950   8.409  10.948   6.030  2.0988  1.7433  0.4662
  600MOL0     H80951   8.636  10.935   5.892  1.0647  2.3039 -0.3169
  600MOL0     H80952   9.004  10.986   6.024 -0.6402 -2.4655 -0.5383
  600MOL0     H80953   8.909  10.977   5.878 -0.9885  0.5063 -1.2099
  600MOL0     H80954   8.960  11.211   6.073  2.4578  0.0728 -1.2237
  600MOL0     H80955   8.819  11.219   5.957  0.2408  0.9810  0.9744
  600MOL0     H80956   8.967  11.231   5.768 -0.8590 -0.6798  0.1016
  600MOL0     H80957   9.103  11.162   5.864 -1.0598 -1.2656  1.4010
  600MOL0     H80958   9.146  11.418   5.845 -0.7004  2.2913 -0.1722
  600MOL0     H80959   9.115  11.383   6.007 -1.7260 -2.7362  1.6669
  600MOL0     H80960   8.778  11.622   5.917 -0.1977 -1.0777  1.0781
  600MOL0     H80961   8.651  11.819   5.970  0.3065 -1.4004  1.5923
  600MOL0     H80962   8.747  11.937   6.069  1.0441  1.8329 -0.9431
  600MOL0     H80963   8.718  11.964   5.896 -0.5543 -0.9388 -1.0623
  600MOL0     H80964   8.887  12.106   6.222  0.6348  0.1687  0.4507
  600MOL0     H80965   8.885  12.178   6.439 -0.3687  0.6551 -0.3629
  600MOL0     H80966   8.942  12.369   6.649 -1.6806 -1.2857  2.4731
  600MOL0     H80967   8.957  12.188   6.647  1.4179 -1.7273 -1.2746
  600MOL0     H80968   9.159  12.346   6.802 -0.1633  0.5823 -1.7719
  600MOL0     H80969   8.977  12.328   6.862 -2.2185 -1.0076 -1.0887
  600MOL0     H80970   9.207  12.149   6.865 -0.0490  1.7422  1.9050
  600MOL0     H80971   9.058  12.079   6.786  0.6131  0.8376 -1.0807
  600MOL0     H80972   9.035  12.229   7.056 -2.1950  0.6457 -2.3253
  600MOL0     H80973   8.943  12.092   6.985  0.0393  1.8844 -0.7040
  600MOL0     H80974   9.224  12.067   7.076  0.9800 -0.4228  1.4343
  600MOL0     H80975   9.123  11.931   7.016  0.5751  1.2536 -0.5597
  600MOL0     H80976   9.101  12.108   7.258 -2.1395  0.9740  1.8279
  600MOL0     H80977   8.956  12.018   7.213  0.3103  0.3234  2.5405
  600MOL0     H80978   9.107  11.795   7.244 -0.1432 -1.0190  2.2038
  600MOL0     H80979   9.103  11.891   7.398  1.5697 -0.6066  1.2920
  600MOL0     H80980   9.318  11.901   7.200  1.3779  0.5368  0.1484
  600MOL0     H80981   9.300  11.800   7.350 -0.2627 -1.5617 -1.3895
  600MOL0     H80982   9.312  12.248   6.426  1.4772 -3.2802 -0.6859
  600MOL0     H80983   9.320  12.170   6.203 -0.3424  0.8950 -0.8543
  600MOL0     H80984   9.206  11.862   5.974 -0.4873  1.1449  1.2383
  600MOL0     H80985   9.198  11.623   5.930  1.5192  2.6094 -1.2515
  600MOL0     H80986   8.384  10.169   5.426  0.3075  1.6585 -0.4545
  600MOL0     H80987   8.270   9.987   5.258  1.6049 -0.1495 -1.9982
  600MOL0     H80988   8.296   9.746   4.873 -0.5127  0.7577  0.1622
  600MOL0     H80989   8.179   9.541   4.801 -0.0106  0.7614 -1.5311
  600MOL0     H80990   7.876   9.448   4.995 -1.7331 -1.8480  0.6407
  600MOL0     H80991   7.827   9.320   4.874 -0.4933  1.3529 -3.4148
  600MOL0     H80992   8.103   9.395   4.995 -1.0304  0.9871 -0.0237
  600MOL0     H80993   8.080   9.261   4.883 -1.7603 -0.9617 -0.6475
  600MOL0     H80994   7.993   9.309   5.183  0.6642 -0.1114 -0.5920
  600MOL0     H80995   8.106   9.187   5.119  0.3166 -1.1935 -3.5227
  600MOL0     H80996   7.942   9.043   5.050 -1.0016  0.4352 -2.6663
  600MOL0     H80997   7.808   9.156   5.060 -0.2363  0.1841  0.6443
  600MOL0     H80998   7.774   9.055   5.451  1.6260 -1.5100 -0.1560
  600MOL0     H80999   7.798   9.688   4.894 -0.2340  1.2849 -1.4046
  600MOL0     H81000   7.899   9.896   4.986 -1.6799 -1.9199  0.8820
  601MOL0     O81001   5.544   6.755  10.307  0.4864  0.3440 -0.1167
  601MOL0     C81002   5.660   6.751  10.329 -0.1142 -0.7179  0.5813
  601MOL0     O81003   5.752   6.668  10.269 -0.5878 -0.3140 -0.0412
  601MOL0     C81004   5.717   6.551  10.204  0.0520 -0.9135 -0.5792
  601MOL0     C81005   5.589   6.484  10.214 -0.4111  0.4781 -0.3256
  601MOL0     C81006   5.567   6.367  10.146  1.0236  0.4162  0.3668
  601MOL0     C81007   5.663   6.317  10.053 -0.0223  0.5787  0.5594
  601MOL0     O81008   5.637   6.207   9.975 -0.3910 -0.5320 -0.2086
  601MOL0     C81009   5.550   6.100  10.019  0.6651 -0.7899 -0.1920
  601MOL0     C81010   5.473   6.068   9.896 -0.0627  0.3333  0.0075
  601MOL0     C81011   5.376   6.176   9.842 -0.6486  0.2081 -0.5369
  601MOL0     C81012   5.315   6.116   9.712 -0.5380  0.5069  1.2880
  601MOL0     C81013   5.233   6.218   9.629 -0.7605 -0.7314  0.8959
  601MOL0     C81014   5.102   6.260   9.711  0.0223  0.2958 -0.4468
  601MOL0     C81015   5.038   6.386   9.660  0.6017  0.2514 -0.3495
  601MOL0     C81016   5.004   6.385   9.504  0.3048 -0.2899  0.7632
  601MOL0     N81017   4.904   6.283   9.465  0.1285  0.7975 -0.6285
  601MOL0     C81018   4.926   6.150   9.426 -0.6000 -0.1929  0.5351
  601MOL0     C81019   4.805   6.096   9.404  0.6514  0.1445 -0.3256
  601MOL0     C81020   4.778   5.953   9.376 -0.4263 -0.2994  0.7760
  601MOL0     C81021   4.624   5.939   9.337 -0.4109  0.8229 -0.3621
  601MOL0     C81022   4.552   5.903   9.472 -0.5950  0.1236 -0.6607
  601MOL0     C81023   4.400   5.900   9.454 -0.5022 -0.5103 -0.0489
  601MOL0     O81024   4.344   5.880   9.583 -0.8967  0.7498  0.0687
  601MOL0     C81025   4.209   5.899   9.603 -0.4407  0.3661 -0.6253
  601MOL0     C81026   4.114   5.914   9.512 -0.4837 -0.4494  0.7424
  601MOL0     C81027   3.977   5.924   9.539 -0.0823  0.0291  0.0707
  601MOL0     C81028   3.882   5.948   9.421 -0.1939  0.0251  1.3916
  601MOL0     C81029   3.936   5.904   9.670  0.5701  0.6262  0.0147
  601MOL0     C81030   3.794   5.916   9.733 -0.7681 -0.2645  0.8523
  601MOL0     O81031   3.775   5.876   9.866  0.1743  0.2734  0.5016
  601MOL0     C81032   3.657   5.898   9.929  0.3439 -0.2785  0.2354
  601MOL0     C81033   3.535   5.818   9.902 -0.2679 -0.4097 -0.4417
  601MOL0     C81034   3.410   5.836   9.963  0.0726  0.0858  1.0358
  601MOL0     C81035   3.395   5.947  10.051 -1.0546  0.4280 -0.3684
  601MOL0     O81036   3.272   5.985  10.100 -0.1359  0.2301 -0.0120
  601MOL0     C81037   3.158   5.955  10.019  1.4607 -0.5292 -0.3290
  601MOL0     C81038   3.027   6.010  10.084 -0.2356  0.9691  1.0250
  601MOL0     C81039   2.964   5.921  10.197  0.4920 -0.1001  0.4916
  601MOL0     C81040   2.821   5.964  10.254  0.0560 -0.5357  1.2758
  601MOL0     C81041   2.803   5.913  10.394 -0.2122  0.6531  0.4213
  601MOL0     C81042   2.677   5.971  10.447  0.1927  0.4992  0.0217
  601MOL0     C81043   2.542   5.916  10.395  0.2705 -0.1104 -0.5605
  601MOL0     C81044   2.430   5.981  10.485 -0.1570 -0.7828  0.3919
  601MOL0    Cl81045   2.298   5.863  10.490  0.2577  0.6300 -0.0846
  601MOL0     C81046   3.513   6.019  10.091  0.8336 -0.6170  1.4227
  601MOL0     C81047   3.634   5.995  10.026 -0.4657  0.4077 -0.5328
  601MOL0     O81048   3.701   5.958   9.665 -0.3301 -0.2161 -0.3141
  601MOL0     C81049   4.037   5.865   9.760 -0.5869 -0.4720  0.1410
  601MOL0     C81050   4.171   5.868   9.733 -0.7230 -0.3501  0.2544
  601MOL0     N81051   4.709   6.187   9.425  0.4777 -0.3740 -0.1286
  601MOL0     N81052   4.767   6.298   9.451  0.0969  0.2114  0.3789
  601MOL0     C81053   5.790   6.370  10.055  0.4065 -0.6843  0.1364
  601MOL0     C81054   5.812   6.486  10.130  0.2617  0.0408  0.4930
  601MOL0     C81055   5.709   6.862  10.415  0.6738  0.9677  0.2797
  601MOL0     C81056   5.851   6.886  10.414 -0.3943  1.2461  0.2538
  601MOL0     C81057   5.908   6.976  10.509 -0.6044  0.3772  1.0332
  601MOL0     C81058   5.835   7.043  10.607 -0.6368 -0.5400  0.8420
  601MOL0     O81059   5.864   7.137  10.697 -0.8646  0.6128 -0.4368
  601MOL0     C81060   5.998   7.179  10.722 -0.9894  0.5946  0.3176
  601MOL0     C81061   6.004   7.328  10.732  0.9792  0.3605  0.2947
  601MOL0     C81062   5.925   7.373  10.863  0.8029 -0.4033 -0.2206
  601MOL0     C81063   5.945   7.527  10.881  0.4596  0.3580  0.1497
  601MOL0     C81064   5.830   7.579  10.962  0.0334  0.1495 -0.8558
  601MOL0     C81065   5.738   7.611  11.039 -0.2457  0.1389 -0.5272
  601MOL0     C81066   5.697   7.016  10.605 -0.6307 -0.6019 -0.1191
  601MOL0     C81067   5.637   6.922  10.513  0.3457 -1.3746  0.7098
  601MOL0     H81068   5.511   6.531  10.274  1.7961  3.3528  0.5480
  601MOL0     H81069   5.462   6.343  10.152  0.4905  1.9354 -1.6833
  601MOL0     H81070   5.613   6.016  10.049  1.2502 -0.1547  0.3784
  601MOL0     H81071   5.489   6.119  10.108 -3.4427  1.6256 -3.1345
  601MOL0     H81072   5.549   6.029   9.827  1.6554 -0.8150  2.4192
  601MOL0     H81073   5.410   5.982   9.921 -0.8867  1.5037  2.2208
  601MOL0     H81074   5.294   6.195   9.911  1.9609  2.6077  2.1500
  601MOL0     H81075   5.427   6.269   9.816 -0.8793 -0.2834 -3.0663
  601MOL0     H81076   5.393   6.083   9.644 -0.8119  0.0140  1.2144
  601MOL0     H81077   5.249   6.034   9.743 -2.1201  1.5785  0.8796
  601MOL0     H81078   5.299   6.304   9.610  0.4575 -1.8927 -0.3312
  601MOL0     H81079   5.212   6.185   9.527  2.7733  0.0390 -0.2098
  601MOL0     H81080   5.042   6.169   9.717 -1.6497  1.3851  0.1661
  601MOL0     H81081   5.125   6.292   9.813 -0.4940 -0.1065 -0.1959
  601MOL0     H81082   4.942   6.404   9.710  1.1687  1.6103  0.3053
  601MOL0     H81083   5.100   6.476   9.668 -0.2142  1.2585 -3.5987
  601MOL0     H81084   5.095   6.378   9.444 -1.1701 -0.7690 -1.5399
  601MOL0     H81085   4.955   6.480   9.485 -1.1066 -0.7293  1.9834
  601MOL0     H81086   5.022   6.100   9.431 -0.8042 -0.7195 -0.5769
  601MOL0     H81087   4.827   5.921   9.283 -2.4255  0.2277 -0.5085
  601MOL0     H81088   4.796   5.886   9.460 -0.7665 -1.4376 -0.0338
  601MOL0     H81089   4.599   5.852   9.275  1.2926 -0.9848  1.3318
  601MOL0     H81090   4.574   6.028   9.298  0.6421  1.7425  0.3279
  601MOL0     H81091   4.581   5.975   9.549 -0.8196 -1.3432  0.8413
  601MOL0     H81092   4.579   5.804   9.509 -1.1250  1.1222  2.7429
  601MOL0     H81093   4.374   5.817   9.389  2.7016 -1.4263 -0.3465
  601MOL0     H81094   4.367   5.994   9.408  1.3715 -0.4336 -1.3685
  601MOL0     H81095   4.145   5.924   9.409 -1.0333 -1.3110  0.4808
  601MOL0     H81096   3.944   5.952   9.331 -0.3859  1.2180  1.2977
  601MOL0     H81097   3.815   5.862   9.411  1.0185 -0.7627 -0.5544
  601MOL0     H81098   3.814   6.032   9.435  0.7665  1.3622 -1.3756
  601MOL0     H81099   3.544   5.730   9.839 -1.5014 -1.3886  0.6719
  601MOL0     H81100   3.327   5.766   9.948 -0.0706 -0.2978  3.2585
  601MOL0     H81101   3.160   6.002   9.920 -2.8004 -1.4509 -1.0829
  601MOL0     H81102   3.131   5.849  10.014 -0.9328 -0.1299  1.7752
  601MOL0     H81103   3.047   6.110  10.121 -2.1115  0.8432  2.5560
  601MOL0     H81104   2.953   6.010  10.003 -1.5049 -0.7655  2.1167
  601MOL0     H81105   3.037   5.924  10.279  0.6693  2.2305  0.3369
  601MOL0     H81106   2.966   5.819  10.159  5.3923  0.9941 -3.3284
  601MOL0     H81107   2.825   6.073  10.248  2.1577 -0.5773  1.0869
  601MOL0     H81108   2.739   5.921  10.195 -0.4192  1.6042  0.2844
  601MOL0     H81109   2.885   5.945  10.460 -0.8483  2.1661  0.5266
  601MOL0     H81110   2.805   5.804  10.386  0.2087  0.8282 -4.1136
  601MOL0     H81111   2.686   5.980  10.555  0.2920  0.2123  0.0384
  601MOL0     H81112   2.672   6.073  10.408  0.3639 -0.4256 -2.6259
  601MOL0     H81113   2.550   5.807  10.390  1.3357 -0.0144 -1.3635
  601MOL0     H81114   2.526   5.945  10.291  1.3652  4.1959  0.2764
  601MOL0     H81115   2.388   6.066  10.431 -1.7401 -1.9707 -0.3343
  601MOL0     H81116   2.463   6.008  10.586 -1.4308 -3.6010  1.6710
  601MOL0     H81117   3.502   6.101  10.161  2.5852  2.3709 -1.5789
  601MOL0     H81118   3.724   6.040  10.068 -1.0076 -0.8782  2.2110
  601MOL0     H81119   4.015   5.860   9.866 -0.6895  1.7029  0.2793
  601MOL0     H81120   4.240   5.866   9.817 -2.2363  0.9968  1.6048
  601MOL0     H81121   5.877   6.327  10.005  0.7904  2.4851 -2.2542
  601MOL0     H81122   5.915   6.516  10.119  0.2921 -0.7280 -1.8991
  601MOL0     H81123   5.921   6.850  10.340 -0.9535 -2.0928  1.2121
  601MOL0     H81124   6.013   7.004  10.506 -0.0335 -1.5998 -0.0264
  601MOL0     H81125   6.038   7.141  10.817 -0.2690  3.5083  1.2717
  601MOL0     H81126   6.070   7.128  10.656 -1.3420  0.2213  0.2150
  601MOL0     H81127   5.963   7.372  10.640  3.0627 -3.6735 -2.9157
  601MOL0     H81128   6.107   7.362  10.744  1.2923 -0.0165 -1.0944
  601MOL0     H81129   5.952   7.306  10.945  0.1112  0.0560  0.3972
  601MOL0     H81130   5.818   7.358  10.844  1.2156 -1.0120 -2.3303
  601MOL0     H81131   5.948   7.568  10.780 -0.8052 -3.3444 -1.5684
  601MOL0     H81132   6.040   7.538  10.935  0.1456 -0.5527  0.9154
  601MOL0     H81133   5.657   7.630  11.107  0.4636 -0.6550  0.5877
  601MOL0     H81134   5.639   7.084  10.666  0.9276  1.8562 -1.1960
  601MOL0     H81135   5.532   6.896  10.521  0.1149 -0.0793  2.6681
  602MOL0     O81136  10.232   7.663   4.147  0.1641 -0.0157  0.1084
  602MOL0     C81137  10.142   7.727   4.084  0.2067 -0.3838  0.9963
  602MOL0     O81138  10.011   7.748   4.124 -1.0995  0.0425  0.2084
  602MOL0     C81139   9.988   7.688   4.240  0.3751  0.7150 -0.2795
  602MOL0     C81140  10.052   7.732   4.360  0.6065  0.2144 -0.0756
  602MOL0     C81141  10.041   7.655   4.476 -0.0199  0.3904  1.2916
  602MOL0     C81142   9.974   7.528   4.475  0.4967  0.0333  0.8075
  602MOL0     O81143   9.976   7.428   4.574  0.5157  0.4210 -0.1371
  602MOL0     C81144  10.111   7.389   4.616  0.3447  0.1485  0.8075
  602MOL0     C81145  10.084   7.304   4.737  0.6152  1.0766 -0.5189
  602MOL0     C81146  10.214   7.265   4.808 -0.2478  0.1473  0.2578
  602MOL0     C81147  10.207   7.133   4.882 -0.8899  0.0895 -0.1526
  602MOL0     C81148  10.341   7.095   4.941 -0.3246 -0.1005  0.1562
  602MOL0     C81149  10.394   7.198   5.045  0.0573 -0.1974  0.3170
  602MOL0     C81150  10.297   7.234   5.162 -1.0699  0.9768  0.0314
  602MOL0     C81151  10.287   7.115   5.266 -0.4438  0.5439 -0.1996
  602MOL0     N81152  10.219   7.165   5.393  0.5752  0.3007 -0.6757
  602MOL0     C81153  10.086   7.149   5.402  0.4833 -0.0423  0.2989
  602MOL0     C81154  10.051   7.221   5.516 -0.5378  0.1715  0.4954
  602MOL0     C81155   9.911   7.256   5.571 -0.5361  0.3599 -0.3328
  602MOL0     C81156   9.912   7.387   5.642  0.5996  0.0197 -0.0489
  602MOL0     C81157   9.942   7.514   5.554 -0.2469  1.2176  0.7660
  602MOL0     C81158   9.925   7.627   5.660  0.0669  0.2085  0.6680
  602MOL0     O81159   9.968   7.745   5.605  0.2776  0.5791 -0.3273
  602MOL0     C81160   9.917   7.861   5.658  0.3041 -0.8862 -0.5873
  602MOL0     C81161   9.872   7.957   5.570 -0.2369 -0.2733  0.0704
  602MOL0     C81162   9.819   8.077   5.604 -0.8096 -0.7637  0.2705
  602MOL0     C81163   9.780   8.181   5.492  0.0120 -0.4356 -0.6797
  602MOL0     C81164   9.793   8.102   5.746  0.0136 -0.1703  0.6242
  602MOL0     C81165   9.719   8.218   5.793 -0.4178  0.6390  0.3141
  602MOL0     O81166   9.701   8.329   5.711  0.1264  0.1847 -0.3365
  602MOL0     C81167   9.620   8.431   5.763  0.4735  0.5632 -0.2929
  602MOL0     C81168   9.504   8.411   5.843 -0.1186  0.7257 -0.9847
  602MOL0     C81169   9.427   8.529   5.884 -0.3709 -0.7266 -0.0776
  602MOL0     C81170   9.470   8.657   5.849  0.6611  0.1728 -0.2475
  602MOL0     O81171   9.402   8.770   5.896 -0.1089 -0.0535 -0.1130
  602MOL0     C81172   9.265   8.773   5.888  0.4453  0.5744 -0.0802
  602MOL0     C81173   9.214   8.906   5.948 -0.7825  0.5224  0.7523
  602MOL0     C81174   9.268   9.031   5.860 -0.2956 -0.1753  0.2238
  602MOL0     C81175   9.192   9.166   5.885 -0.9127  0.4051 -0.0788
  602MOL0     C81176   9.273   9.289   5.855 -0.6509  0.3116  0.2088
  602MOL0     C81177   9.320   9.285   5.713  0.0113 -0.4105  0.0863
  602MOL0     C81178   9.227   9.288   5.587 -0.5910 -0.5314 -0.7150
  602MOL0     C81179   9.301   9.254   5.459  1.0053  0.0824  0.2005
  602MOL0    Cl81180   9.441   9.362   5.435 -0.2167  0.5334 -0.0950
  602MOL0     C81181   9.583   8.678   5.779  0.5726 -0.6864 -0.2089
  602MOL0     C81182   9.656   8.564   5.734  0.0687 -0.5322  0.0415
  602MOL0     O81183   9.692   8.213   5.911  0.1588 -1.3255 -1.0232
  602MOL0     C81184   9.852   8.013   5.836 -0.2155  1.1954  0.5922
  602MOL0     C81185   9.902   7.891   5.794  0.8080  0.2859  0.8125
  602MOL0     N81186  10.167   7.283   5.568  0.2339  0.1987  1.1696
  602MOL0     N81187  10.264   7.254   5.488 -0.2243 -0.1877  0.3297
  602MOL0     C81188   9.898   7.490   4.360  0.1546  1.0583  0.4577
  602MOL0     C81189   9.912   7.563   4.245 -0.0495 -0.1043 -0.3893
  602MOL0     C81190  10.170   7.761   3.941  0.3462 -0.6709 -0.5959
  602MOL0     C81191  10.305   7.754   3.890  0.6799 -0.5764  0.2520
  602MOL0     C81192  10.336   7.779   3.756 -0.1268  0.3283  0.6782
  602MOL0     C81193  10.232   7.788   3.664 -0.2742 -0.1480  1.1417
  602MOL0     O81194  10.243   7.816   3.528 -0.4445  0.8468  0.1772
  602MOL0     C81195  10.370   7.796   3.469  1.0541 -0.3647  0.0204
  602MOL0     C81196  10.409   7.917   3.375  0.1683 -0.2426 -0.3024
  602MOL0     C81197  10.297   7.954   3.281  0.7990  0.0387  0.0877
  602MOL0     C81198  10.308   8.088   3.214  0.3424 -0.1509  0.2854
  602MOL0     C81199  10.324   8.060   3.070  0.2239 -0.7680  0.0286
  602MOL0     C81200  10.337   8.065   2.951 -0.7742 -0.2859  0.5818
  602MOL0     C81201  10.102   7.779   3.714  0.5952  0.1214 -0.0100
  602MOL0     C81202  10.069   7.787   3.849  0.4921  0.4953  0.2281
  602MOL0     H81203  10.103   7.827   4.362  0.2485  0.3979  1.5574
  602MOL0     H81204  10.076   7.697   4.570 -1.8155  1.9204  1.3247
  602MOL0     H81205  10.177   7.343   4.542 -0.4125  2.5753 -1.5306
  602MOL0     H81206  10.176   7.474   4.638  3.5333 -2.1803  1.0344
  602MOL0     H81207  10.039   7.363   4.817  0.9722  1.2393 -0.4403
  602MOL0     H81208  10.026   7.214   4.712  0.9158  1.0484 -1.1200
  602MOL0     H81209  10.292   7.246   4.735  1.0997  0.7811  1.4916
  602MOL0     H81210  10.254   7.344   4.871 -0.3239  0.6830 -0.3567
  602MOL0     H81211  10.138   7.143   4.965 -1.1202 -3.8043  0.3152
  602MOL0     H81212  10.173   7.052   4.817 -1.0209  0.8252 -1.0189
  602MOL0     H81213  10.332   7.002   4.997  2.6735 -1.0820 -0.8279
  602MOL0     H81214  10.412   7.091   4.858  2.4219  3.5899  2.0303
  602MOL0     H81215  10.489   7.157   5.079  0.4693  0.5092  0.0271
  602MOL0     H81216  10.419   7.294   5.000 -1.7935 -0.0437 -0.4936
  602MOL0     H81217  10.341   7.319   5.216 -2.4598  1.9681 -0.3631
  602MOL0     H81218  10.197   7.262   5.130 -0.3257  1.3128 -2.2215
  602MOL0     H81219  10.384   7.086   5.307 -1.1150  0.0145  1.0840
  602MOL0     H81220  10.240   7.025   5.225 -0.3597  1.2891 -2.0105
  602MOL0     H81221  10.021   7.098   5.333 -0.1242 -1.0654  1.5782
  602MOL0     H81222   9.841   7.265   5.489 -0.0874  1.9508 -0.5856
  602MOL0     H81223   9.875   7.174   5.634 -1.3117 -0.8693 -2.3167
  602MOL0     H81224   9.985   7.379   5.723 -0.5416 -0.9145  0.9340
  602MOL0     H81225   9.810   7.406   5.677 -0.1830  1.8341 -2.9787
  602MOL0     H81226   9.868   7.523   5.473  3.6451 -1.2389 -3.5823
  602MOL0     H81227  10.044   7.505   5.515  0.7359  2.6287  2.8678
  602MOL0     H81228   9.986   7.605   5.749  1.9274 -0.2901 -0.6676
  602MOL0     H81229   9.822   7.633   5.697 -0.2986 -3.7416  0.7333
  602MOL0     H81230   9.873   7.944   5.462 -4.9045  0.3590 -0.2409
  602MOL0     H81231   9.822   8.277   5.522 -0.7165 -1.3805  4.2679
  602MOL0     H81232   9.813   8.152   5.391 -0.4573 -2.5711 -0.2731
  602MOL0     H81233   9.671   8.182   5.483 -0.1991  1.9034  1.3740
  602MOL0     H81234   9.459   8.313   5.853 -0.9799  1.2868  1.1385
  602MOL0     H81235   9.338   8.528   5.946 -0.8095  0.3277 -0.6614
  602MOL0     H81236   9.237   8.767   5.782  2.6702 -0.6056 -0.6601
  602MOL0     H81237   9.213   8.694   5.942  0.2156  2.3573  2.4934
  602MOL0     H81238   9.105   8.907   5.962 -0.9063 -1.0203  0.0417
  602MOL0     H81239   9.265   8.913   6.045  0.2242  1.1761  0.1958
  602MOL0     H81240   9.262   9.001   5.755 -3.9080 -1.1071  0.5652
  602MOL0     H81241   9.370   9.063   5.884  0.0225 -1.9351  1.3718
  602MOL0     H81242   9.099   9.164   5.828 -0.6601  1.1898 -0.5246
  602MOL0     H81243   9.160   9.169   5.990  0.4292  2.1926  0.3332
  602MOL0     H81244   9.354   9.285   5.929 -1.2322 -2.4920  0.7845
  602MOL0     H81245   9.218   9.383   5.869 -2.1118 -0.5017  0.1701
  602MOL0     H81246   9.377   9.375   5.688 -1.8583  0.5543 -0.9903
  602MOL0     H81247   9.389   9.201   5.702  1.0702  0.6217 -1.6278
  602MOL0     H81248   9.172   9.383   5.581  0.6490  0.1033 -4.1593
  602MOL0     H81249   9.148   9.215   5.604  0.1312 -1.5549 -1.6633
  602MOL0     H81250   9.229   9.250   5.376  1.4728 -1.6198 -0.1667
  602MOL0     H81251   9.336   9.152   5.474 -1.1104 -0.5990  0.8826
  602MOL0     H81252   9.630   8.774   5.759  0.2549 -0.7339 -1.2537
  602MOL0     H81253   9.755   8.579   5.694  1.3096 -3.1752  1.8016
  602MOL0     H81254   9.834   8.017   5.943 -2.8576 -1.7164  0.4305
  602MOL0     H81255   9.940   7.822   5.869 -2.7279 -1.8978  0.8638
  602MOL0     H81256   9.853   7.392   4.369 -2.7644  2.3926  1.9692
  602MOL0     H81257   9.868   7.517   4.158 -0.2836 -3.2154  1.2235
  602MOL0     H81258  10.384   7.737   3.962  1.2280  1.6019  0.2338
  602MOL0     H81259  10.435   7.810   3.725 -0.8654  0.7950 -1.3659
  602MOL0     H81260  10.457   7.789   3.536  2.3212  1.0373 -1.3925
  602MOL0     H81261  10.365   7.708   3.405  1.2890  0.3439 -1.0036
  602MOL0     H81262  10.492   7.874   3.317  0.8955  2.0704 -1.0968
  602MOL0     H81263  10.439   8.012   3.421 -5.2843  2.7851 -2.1594
  602MOL0     H81264  10.208   7.971   3.343 -2.6381  2.1586 -4.7845
  602MOL0     H81265  10.269   7.877   3.209 -5.1661  3.6022 -2.1526
  602MOL0     H81266  10.384   8.155   3.256 -0.3072 -0.2954  1.7786
  602MOL0     H81267  10.209   8.128   3.236  0.7819  1.9744 -1.2831
  602MOL0     H81268  10.349   8.036   2.849 -1.1375  0.0314  0.4467
  602MOL0     H81269  10.016   7.786   3.648  1.2442 -1.8186 -1.1170
  602MOL0     H81270   9.961   7.783   3.863  0.5067 -2.2037 -0.0397
  603MOL0     O81271   1.289   0.060   9.949  0.4117  0.6818 -1.0379
  603MOL0     C81272   1.282  -0.049   9.903 -0.7545  0.0351 -0.6838
  603MOL0     O81273   1.389  -0.131   9.870  0.3571 -0.2001 -0.4595
  603MOL0     C81274   1.518  -0.083   9.892 -0.3617  0.9637 -0.3531
  603MOL0     C81275   1.569   0.031   9.820 -0.1455  0.4531  0.1474
  603MOL0     C81276   1.692   0.079   9.852 -0.0744 -0.5481 -0.3912
  603MOL0     C81277   1.786   0.012   9.930  0.1228  0.0644 -0.1581
  603MOL0     O81278   1.916   0.059   9.956 -0.0504  0.5935 -0.7688
  603MOL0     C81279   1.924   0.197   9.998  0.0005  0.2235 -0.7666
  603MOL0     C81280   2.037   0.241  10.096 -0.3740  0.4470 -0.0506
  603MOL0     C81281   2.172   0.163  10.050 -0.2574 -0.8296 -0.8211
  603MOL0     C81282   2.284   0.208  10.160 -0.5204  0.0092  0.7125
  603MOL0     C81283   2.423   0.145  10.137 -0.3783  0.3095 -0.7047
  603MOL0     C81284   2.446   0.004  10.170  0.0696  0.2160  0.1613
  603MOL0     C81285   2.583  -0.058  10.150  0.1998  0.1354 -0.2987
  603MOL0     C81286   2.623  -0.069   9.998  0.3339 -1.0879 -0.1442
  603MOL0     N81287   2.762  -0.119   9.995 -0.0211 -0.2308  0.3428
  603MOL0     C81288   2.805  -0.248   9.984 -0.5452 -0.3363 -0.1372
  603MOL0     C81289   2.940  -0.242   9.965 -0.0889  0.6198 -0.1700
  603MOL0     C81290   3.005  -0.375   9.943 -0.4252 -0.1501 -0.6099
  603MOL0     C81291   3.091  -0.409   9.819  0.5809 -0.6610  0.5088
  603MOL0     C81292   3.034  -0.398   9.674 -0.2857 -0.3372  0.1197
  603MOL0     C81293   2.961  -0.276   9.640  0.3822  0.1973  0.7275
  603MOL0     O81294   2.820  -0.298   9.620 -0.3331 -0.1113 -0.3393
  603MOL0     C81295   2.754  -0.214   9.534 -0.3648 -0.1416 -0.5698
  603MOL0     C81296   2.715  -0.090   9.590 -0.8034  0.9684  1.0702
  603MOL0     C81297   2.631  -0.006   9.523  0.7519 -0.7949  0.0950
  603MOL0     C81298   2.575   0.123   9.584 -0.8541  0.3471 -0.3000
  603MOL0     C81299   2.603  -0.036   9.386  0.1694 -0.5256  0.7876
  603MOL0     C81300   2.525   0.062   9.303  0.0572  0.3348  0.1392
  603MOL0     O81301   2.410   0.115   9.352 -0.1400  0.1595 -0.4846
  603MOL0     C81302   2.342   0.200   9.269  0.0799  1.5603 -0.6434
  603MOL0     C81303   2.221   0.151   9.215  0.0075 -0.2880 -0.8055
  603MOL0     C81304   2.145   0.224   9.125  0.8399 -0.4175  0.8815
  603MOL0     C81305   2.174   0.364   9.115 -0.6311  0.7108  0.4156
  603MOL0     O81306   2.078   0.448   9.063 -0.2302  0.6219  0.1503
  603MOL0     C81307   2.103   0.574   9.004  0.5189  0.8604 -0.5166
  603MOL0     C81308   2.141   0.583   8.859 -0.2462  0.1094 -0.4931
  603MOL0     C81309   2.130   0.724   8.812 -0.1529  0.7057  0.4511
  603MOL0     C81310   1.984   0.781   8.813  0.1315 -0.3188 -0.2851
  603MOL0     C81311   1.976   0.890   8.708  0.8147 -0.8668  0.1652
  603MOL0     C81312   1.853   0.986   8.703 -0.7467 -0.1594  0.6181
  603MOL0     C81313   1.869   1.104   8.600 -1.2112  0.5762 -1.5265
  603MOL0     C81314   1.764   1.207   8.590 -0.9529  0.0362  0.1586
  603MOL0    Cl81315   1.841   1.353   8.521 -0.5782 -0.3433  0.1445
  603MOL0     C81316   2.301   0.411   9.165  0.8831 -0.0156 -0.6965
  603MOL0     C81317   2.391   0.323   9.232  0.6579 -0.6776 -0.8700
  603MOL0     O81318   2.570   0.082   9.189  0.0387  0.4135  0.4334
  603MOL0     C81319   2.643  -0.160   9.330 -1.2184  0.4302 -0.1958
  603MOL0     C81320   2.715  -0.249   9.409 -0.8561  0.5061 -0.0942
  603MOL0     N81321   2.962  -0.106   9.938 -0.4976  0.2510  0.2333
  603MOL0     N81322   2.859  -0.039   9.963  0.1072 -0.1797 -1.1293
  603MOL0     C81323   1.734  -0.114   9.985  0.0362 -0.4121  0.8819
  603MOL0     C81324   1.605  -0.160   9.966 -0.0311 -0.7712 -0.4333
  603MOL0     C81325   1.148  -0.095   9.868  0.3086  0.1128 -0.2941
  603MOL0     C81326   1.132  -0.188   9.764 -0.1820 -0.7546  0.9207
  603MOL0     C81327   1.000  -0.214   9.714 -0.6363 -0.1955 -0.1024
  603MOL0     C81328   0.889  -0.146   9.760 -0.7473  0.1924 -0.4205
  603MOL0     O81329   0.770  -0.187   9.700 -0.0096  0.5381  0.7876
  603MOL0     C81330   0.640  -0.129   9.734  0.9807  1.0079 -0.9087
  603MOL0     C81331   0.628   0.021   9.681  0.5216 -0.7552 -0.1111
  603MOL0     C81332   0.509   0.053   9.583  0.0767 -0.3575 -0.5490
  603MOL0     C81333   0.372   0.034   9.658 -0.1926 -0.8075 -1.1262
  603MOL0     C81334   0.268   0.018   9.555 -0.0478 -0.1730  0.0223
  603MOL0     C81335   0.173   0.003   9.485  0.3317  0.3458  0.5017
  603MOL0     C81336   0.905  -0.066   9.876 -0.2006  0.3833  0.1947
  603MOL0     C81337   1.038  -0.034   9.925  0.4148 -0.8435  0.5299
  603MOL0     H81338   1.504   0.094   9.759  0.4539  1.7733  0.8288
  603MOL0     H81339   1.725   0.176   9.816  1.1697 -0.7290  0.1917
  603MOL0     H81340   1.934   0.249   9.902 -1.0610  1.6197 -0.1416
  603MOL0     H81341   1.828   0.236  10.034 -1.0682 -1.8039 -1.2469
  603MOL0     H81342   2.044   0.350  10.088 -1.8547  0.5484 -0.1598
  603MOL0     H81343   2.016   0.217  10.201 -1.3361  1.7953  0.0935
  603MOL0     H81344   2.160   0.054  10.054 -1.8837 -0.6607 -0.5119
  603MOL0     H81345   2.206   0.198   9.952  5.5333  1.4982  1.5767
  603MOL0     H81346   2.301   0.316  10.163  1.1860 -0.1029 -1.7794
  603MOL0     H81347   2.243   0.187  10.259 -1.8560 -1.1567 -0.0494
  603MOL0     H81348   2.453   0.171  10.034  1.8005  0.6157 -0.0439
  603MOL0     H81349   2.497   0.203  10.192 -0.4906 -2.6984  2.9462
  603MOL0     H81350   2.424  -0.012  10.276 -1.2367  0.0140 -0.1285
  603MOL0     H81351   2.375  -0.054  10.112 -0.5457  0.6602  0.4639
  603MOL0     H81352   2.655   0.008  10.198 -2.6153  1.3730  2.5974
  603MOL0     H81353   2.590  -0.158  10.194  0.9745  1.5398  3.0363
  603MOL0     H81354   2.621   0.028   9.949 -0.7595 -1.1696 -0.2915
  603MOL0     H81355   2.555  -0.134   9.942  1.1195  0.6965 -3.4034
  603MOL0     H81356   2.736  -0.331   9.997 -3.0872  1.7499  0.6996
  603MOL0     H81357   3.065  -0.372  10.035 -1.3879  3.2989  0.0270
  603MOL0     H81358   2.926  -0.452   9.943  0.4657 -1.1695  1.6094
  603MOL0     H81359   3.135  -0.509   9.819  2.1693 -0.1406 -3.3406
  603MOL0     H81360   3.182  -0.349   9.813 -0.0267  0.3171  0.8731
  603MOL0     H81361   2.960  -0.479   9.675 -3.5571  2.4440  0.2353
  603MOL0     H81362   3.108  -0.424   9.599  0.3001 -2.7052  1.4272
  603MOL0     H81363   3.017  -0.226   9.560  1.8491  1.6298  2.5723
  603MOL0     H81364   2.974  -0.206   9.722  0.1314 -1.1435  1.9593
  603MOL0     H81365   2.738  -0.074   9.694  0.9344 -3.0348  1.5025
  603MOL0     H81366   2.466   0.121   9.578 -1.0100  1.6828  1.4584
  603MOL0     H81367   2.604   0.142   9.687 -0.6766 -0.2642 -0.2328
  603MOL0     H81368   2.619   0.198   9.518 -2.5023  1.4459 -0.2168
  603MOL0     H81369   2.191   0.049   9.240 -2.3301 -0.3373 -3.4791
  603MOL0     H81370   2.060   0.187   9.068  0.8320  1.9850 -0.8134
  603MOL0     H81371   2.007   0.624   9.015 -0.0146 -0.0401 -0.9576
  603MOL0     H81372   2.174   0.632   9.065  1.6254 -2.4203  1.6179
  603MOL0     H81373   2.242   0.545   8.841  0.1036  0.8942 -0.2227
  603MOL0     H81374   2.084   0.508   8.804  0.8167  1.5491 -3.8589
  603MOL0     H81375   2.172   0.725   8.710  0.5881  3.4445  0.7026
  603MOL0     H81376   2.202   0.784   8.869  0.2580  1.9430 -1.2814
  603MOL0     H81377   1.910   0.708   8.777  2.8159 -2.9620 -0.8192
  603MOL0     H81378   1.959   0.826   8.909 -2.7716 -0.4171 -0.9028
  603MOL0     H81379   1.984   0.837   8.612 -1.0712  0.3074 -0.6844
  603MOL0     H81380   2.069   0.943   8.732 -0.2625  1.0404  0.3347
  603MOL0     H81381   1.772   0.913   8.690  0.6180 -1.3531 -1.6619
  603MOL0     H81382   1.843   1.041   8.797  0.5454 -0.5486  0.9908
  603MOL0     H81383   1.891   1.049   8.508 -1.1356 -1.8028 -0.1499
  603MOL0     H81384   1.959   1.159   8.629 -1.2787  0.3382 -0.8531
  603MOL0     H81385   1.723   1.246   8.684 -0.1965 -0.0978  0.5568
  603MOL0     H81386   1.687   1.167   8.524 -1.9492  1.3035  0.4979
  603MOL0     H81387   2.337   0.513   9.163 -1.1616  0.7555 -0.9345
  603MOL0     H81388   2.492   0.358   9.252  0.7252 -2.2318  2.1124
  603MOL0     H81389   2.625  -0.168   9.223  4.2864 -2.9195 -1.2692
  603MOL0     H81390   2.736  -0.349   9.374 -2.8804 -1.8850  4.6785
  603MOL0     H81391   1.792  -0.177  10.053 -0.3405 -1.4654  0.2397
  603MOL0     H81392   1.563  -0.244  10.020  0.2294 -1.0149 -0.6062
  603MOL0     H81393   1.219  -0.231   9.716  1.6273  3.5935 -0.2373
  603MOL0     H81394   0.984  -0.269   9.622  1.0367  0.8955 -1.1043
  603MOL0     H81395   0.565  -0.190   9.684  1.8524 -1.1123  0.2409
  603MOL0     H81396   0.630  -0.133   9.843  0.2896 -2.1399 -0.9926
  603MOL0     H81397   0.721   0.055   9.634  1.2961 -0.3817  1.5926
  603MOL0     H81398   0.627   0.093   9.763  0.8962 -3.3795  2.3680
  603MOL0     H81399   0.523  -0.010   9.495 -1.1107 -1.5126  0.0569
  603MOL0     H81400   0.504   0.156   9.547 -2.9046 -1.1204 -2.6234
  603MOL0     H81401   0.359   0.121   9.722  2.2190 -0.4410 -1.0357
  603MOL0     H81402   0.368  -0.058   9.717  2.9405 -0.1257  0.3610
  603MOL0     H81403   0.090   0.000   9.417  0.4616  1.1690  0.3045
  603MOL0     H81404   0.820  -0.038   9.937  1.2750 -1.0891  3.1765
  603MOL0     H81405   1.045   0.046   9.999  1.0965  1.6196 -2.0262
  604MOL0     O81406   5.308   1.370   2.661  1.0855 -0.3223 -0.3856
  604MOL0     C81407   5.262   1.460   2.587 -0.0941  1.1699 -0.6580
  604MOL0     O81408   5.198   1.439   2.468 -0.0710 -0.6286  0.2454
  604MOL0     C81409   5.200   1.307   2.419 -0.1478 -0.5147  0.1560
  604MOL0     C81410   5.157   1.193   2.494  0.6298 -0.4994 -0.0589
  604MOL0     C81411   5.185   1.063   2.441  0.4124  0.2746  1.2560
  604MOL0     C81412   5.234   1.047   2.306  0.5200 -1.1536  1.1919
  604MOL0     O81413   5.256   0.920   2.260  0.8742  0.3400 -0.4205
  604MOL0     C81414   5.375   0.901   2.174 -0.1522 -0.1943 -0.1925
  604MOL0     C81415   5.422   0.752   2.172 -0.3361 -0.9364  0.0146
  604MOL0     C81416   5.475   0.711   2.313  0.0314 -1.1087 -0.6966
  604MOL0     C81417   5.571   0.587   2.282  0.4108  0.1578  0.4204
  604MOL0     C81418   5.626   0.511   2.411 -0.1538 -0.0600 -0.4243
  604MOL0     C81419   5.745   0.593   2.469 -0.1938  0.2127  0.3652
  604MOL0     C81420   5.805   0.522   2.586 -0.5739  0.6910  0.3235
  604MOL0     C81421   5.956   0.542   2.584 -0.4131  0.0842  0.5216
  604MOL0     N81422   6.011   0.421   2.526  0.0113  0.0317 -0.1524
  604MOL0     C81423   5.972   0.366   2.416  0.3372  0.1955  0.6862
  604MOL0     C81424   6.078   0.288   2.370  0.1336 -0.2297  0.0610
  604MOL0     C81425   6.081   0.207   2.243 -0.2440  0.2981  0.6646
  604MOL0     C81426   6.073   0.049   2.273  0.2512  0.2593  0.7346
  604MOL0     C81427   6.057  -0.036   2.151  0.9726 -0.1093 -0.4086
  604MOL0     C81428   6.057  -0.184   2.200 -0.7422  0.4020 -0.1459
  604MOL0     O81429   6.183  -0.219   2.250 -0.1848  0.3238 -0.6359
  604MOL0     C81430   6.201  -0.351   2.289  0.9085 -0.8302 -0.2093
  604MOL0     C81431   6.190  -0.387   2.417 -0.6190  0.4286 -0.5372
  604MOL0     C81432   6.240  -0.509   2.474 -0.0698  0.3687  0.1902
  604MOL0     C81433   6.216  -0.530   2.623  1.3050 -0.2870 -0.7082
  604MOL0     C81434   6.289  -0.608   2.377  0.8575 -0.5815 -0.2604
  604MOL0     C81435   6.354  -0.745   2.411  0.1307  0.3849  0.8250
  604MOL0     O81436   6.437  -0.808   2.321  0.1452  0.6311 -0.5734
  604MOL0     C81437   6.469  -0.942   2.344  0.2751 -0.5265 -0.4286
  604MOL0     C81438   6.460  -1.032   2.239  0.8200  1.2916 -0.9454
  604MOL0     C81439   6.487  -1.169   2.252 -0.4185 -0.2462  0.8630
  604MOL0     C81440   6.538  -1.209   2.374  0.5590  0.0743 -0.2252
  604MOL0     O81441   6.583  -1.340   2.379 -0.2677 -0.7223 -0.5774
  604MOL0     C81442   6.686  -1.396   2.466  0.1520  0.4868  0.3692
  604MOL0     C81443   6.716  -1.536   2.414  0.1128 -0.4094  1.0725
  604MOL0     C81444   6.746  -1.543   2.269 -0.0622 -0.4470  0.1380
  604MOL0     C81445   6.842  -1.661   2.236 -0.1761 -0.0901 -0.4770
  604MOL0     C81446   6.760  -1.781   2.196  0.3114 -0.5562 -0.0609
  604MOL0     C81447   6.810  -1.911   2.257 -0.8309 -0.4767  0.9341
  604MOL0     C81448   6.707  -2.027   2.240  0.0743 -0.7803  0.1725
  604MOL0     C81449   6.575  -2.009   2.313  0.7173 -0.7170 -1.0747
  604MOL0    Cl81450   6.600  -1.950   2.491  0.0188  0.5300 -0.0597
  604MOL0     C81451   6.560  -1.123   2.487 -1.8426 -0.2466  0.8109
  604MOL0     C81452   6.528  -0.988   2.459  0.5372  1.4154  0.6509
  604MOL0     O81453   6.324  -0.787   2.522  0.7497 -0.5242 -0.2864
  604MOL0     C81454   6.279  -0.575   2.246 -0.1026 -0.7378 -0.1501
  604MOL0     C81455   6.230  -0.451   2.197  0.6022  0.7858  0.3476
  604MOL0     N81456   6.177   0.297   2.472  0.1039 -0.6150  0.1545
  604MOL0     N81457   6.132   0.376   2.562  0.0465  0.4717 -0.3324
  604MOL0     C81458   5.260   1.163   2.228 -0.4995  0.1190 -0.3837
  604MOL0     C81459   5.251   1.293   2.292 -0.1120 -0.2588  0.1393
  604MOL0     C81460   5.301   1.591   2.629 -0.5782 -0.4288  0.3069
  604MOL0     C81461   5.402   1.608   2.720 -1.2043 -0.3300 -0.2129
  604MOL0     C81462   5.447   1.739   2.752 -0.1791  0.4914  0.6347
  604MOL0     C81463   5.406   1.849   2.684 -0.4623  0.3055 -0.2572
  604MOL0     O81464   5.445   1.983   2.704  0.2037  0.7092  0.2751
  604MOL0     C81465   5.570   2.016   2.767  0.3998 -0.3643  0.2672
  604MOL0     C81466   5.598   2.167   2.768  0.6025 -0.9207 -0.0270
  604MOL0     C81467   5.496   2.244   2.851  0.1514  0.0672  0.8543
  604MOL0     C81468   5.546   2.230   2.995  0.9240  0.0476  0.2883
  604MOL0     C81469   5.447   2.150   3.079  0.1328 -0.6426  0.7320
  604MOL0     C81470   5.389   2.062   3.143 -0.2060  0.3455 -0.2795
  604MOL0     C81471   5.312   1.833   2.586 -1.2178 -0.6654  0.0036
  604MOL0     C81472   5.259   1.704   2.557  0.3772 -0.0726  0.9613
  604MOL0     H81473   5.127   1.201   2.598 -3.2233 -0.6265 -1.0163
  604MOL0     H81474   5.171   0.976   2.505  0.6417  0.0163  0.9636
  604MOL0     H81475   5.357   0.933   2.071  1.4832  2.5918  0.2881
  604MOL0     H81476   5.453   0.963   2.220  1.8068 -1.6321 -1.4248
  604MOL0     H81477   5.347   0.690   2.122 -0.1778  0.0385 -1.4887
  604MOL0     H81478   5.514   0.751   2.113 -0.7296 -2.7188 -0.6457
  604MOL0     H81479   5.523   0.798   2.360 -0.0779 -2.5407  2.2440
  604MOL0     H81480   5.398   0.683   2.385 -0.5963  0.3198 -0.7709
  604MOL0     H81481   5.515   0.509   2.229  0.3170  0.4149  0.1373
  604MOL0     H81482   5.645   0.627   2.212 -0.8990  0.8122 -0.6293
  604MOL0     H81483   5.549   0.509   2.489  1.7109  1.6062  1.5986
  604MOL0     H81484   5.656   0.409   2.385  0.1414 -0.6449  1.9456
  604MOL0     H81485   5.811   0.624   2.387  0.2510 -0.2191  0.5564
  604MOL0     H81486   5.727   0.694   2.509  3.0671  0.8420  0.4745
  604MOL0     H81487   5.782   0.564   2.684 -0.6770 -0.8055  0.9670
  604MOL0     H81488   5.775   0.417   2.592 -0.7073  0.6469 -0.8611
  604MOL0     H81489   5.986   0.551   2.689  0.5046 -4.1788  0.8256
  604MOL0     H81490   5.974   0.627   2.518 -0.3597 -1.3206 -1.3529
  604MOL0     H81491   5.886   0.384   2.351  2.1553 -0.0617 -1.9685
  604MOL0     H81492   5.999   0.247   2.183 -2.0624 -0.6649  2.3812
  604MOL0     H81493   6.179   0.221   2.196  0.0636 -0.6356  0.9931
  604MOL0     H81494   5.992   0.028   2.345 -1.3775 -0.3710 -1.1895
  604MOL0     H81495   6.163   0.026   2.330 -0.0749  2.8019  2.4678
  604MOL0     H81496   6.144  -0.025   2.086  1.6688 -0.1253  0.4985
  604MOL0     H81497   5.960  -0.010   2.107  0.2369 -0.2539  1.0758
  604MOL0     H81498   6.051  -0.247   2.111  0.7645  0.8760 -0.6040
  604MOL0     H81499   5.978  -0.209   2.272 -1.5808 -1.4224 -1.6059
  604MOL0     H81500   6.151  -0.312   2.486 -1.7713 -0.8244  0.2193
  604MOL0     H81501   6.147  -0.614   2.637 -0.6481  1.1519 -1.2787
  604MOL0     H81502   6.309  -0.565   2.670  0.4066 -4.3175 -1.5297
  604MOL0     H81503   6.170  -0.443   2.670  1.3574 -0.1450 -0.9202
  604MOL0     H81504   6.418  -1.009   2.142  2.2528  1.9983 -1.4348
  604MOL0     H81505   6.487  -1.234   2.166  0.2485  1.4962 -0.5223
  604MOL0     H81506   6.771  -1.328   2.453  0.2332  0.3606  0.2359
  604MOL0     H81507   6.662  -1.392   2.572  0.4478  2.7347  0.4053
  604MOL0     H81508   6.797  -1.570   2.478 -2.1352 -1.7082  3.4237
  604MOL0     H81509   6.637  -1.610   2.430 -1.9712  1.2141 -0.9455
  604MOL0     H81510   6.803  -1.453   2.242 -0.0286 -1.2509 -2.7715
  604MOL0     H81511   6.662  -1.539   2.200  0.1866 -1.7239 -0.2680
  604MOL0     H81512   6.904  -1.636   2.149 -3.5827  3.3052 -2.2715
  604MOL0     H81513   6.902  -1.685   2.324 -2.4776 -2.8044  0.4960
  604MOL0     H81514   6.742  -1.794   2.088  0.0561  0.2903 -0.1251
  604MOL0     H81515   6.664  -1.764   2.246  0.8328  1.4444  0.3530
  604MOL0     H81516   6.906  -1.930   2.209 -1.3775  2.8130 -1.8778
  604MOL0     H81517   6.828  -1.897   2.364 -0.3654  0.3817  0.7571
  604MOL0     H81518   6.764  -2.112   2.279  1.7041 -0.1264 -0.6412
  604MOL0     H81519   6.682  -2.041   2.135  2.0092  2.7332 -0.9396
  604MOL0     H81520   6.529  -2.108   2.316  0.4393 -0.7435 -3.8430
  604MOL0     H81521   6.511  -1.942   2.255  0.8851 -1.9269 -2.7314
  604MOL0     H81522   6.603  -1.157   2.580 -3.0986 -3.8314  0.2513
  604MOL0     H81523   6.544  -0.919   2.541 -2.7209 -0.2143  2.8990
  604MOL0     H81524   6.314  -0.649   2.174 -1.8650 -0.4830 -1.3497
  604MOL0     H81525   6.229  -0.423   2.093 -2.0805 -0.2958  0.0103
  604MOL0     H81526   5.323   1.163   2.139  1.8651 -0.0773  1.2100
  604MOL0     H81527   5.271   1.386   2.241  5.2068 -0.5739  1.0649
  604MOL0     H81528   5.459   1.529   2.768  0.8493  1.0851 -0.1764
  604MOL0     H81529   5.521   1.734   2.832  0.7015 -0.2934 -0.1910
  604MOL0     H81530   5.582   1.975   2.868  0.9165 -0.2905  0.2389
  604MOL0     H81531   5.644   1.972   2.700 -2.2297 -1.1249 -2.3792
  604MOL0     H81532   5.584   2.212   2.669  0.9871 -0.4091  0.1452
  604MOL0     H81533   5.701   2.178   2.803  1.0378  0.5593 -1.5950
  604MOL0     H81534   5.394   2.205   2.845  1.0955 -2.4773 -0.6942
  604MOL0     H81535   5.496   2.348   2.818 -1.2792 -0.6741 -1.7700
  604MOL0     H81536   5.536   2.331   3.035  0.6189  0.4528 -0.7797
  604MOL0     H81537   5.644   2.189   3.020  0.8692  0.8124  1.8545
  604MOL0     H81538   5.337   1.987   3.199  0.0245 -1.3261 -2.1797
  604MOL0     H81539   5.272   1.921   2.536 -0.3385 -2.0014 -3.3165
  604MOL0     H81540   5.191   1.701   2.472  1.0399  2.5470  0.2530
  605MOL0     O81541   4.269   3.354   3.261 -0.2074  0.1027  0.4618
  605MOL0     C81542   4.395   3.366   3.257 -0.5696  0.4773 -0.2582
  605MOL0     O81543   4.455   3.479   3.281  0.3777 -0.4126  0.3925
  605MOL0     C81544   4.379   3.595   3.298 -0.9195  0.3166  0.4577
  605MOL0     C81545   4.401   3.672   3.404  0.6390  0.5131 -0.0571
  605MOL0     C81546   4.318   3.787   3.419  0.2462 -0.5121  0.3438
  605MOL0     C81547   4.218   3.820   3.331 -0.1466  0.4892  0.1837
  605MOL0     O81548   4.139   3.919   3.365  0.0332 -0.1680 -1.8633
  605MOL0     C81549   4.001   3.888   3.328 -0.7441 -0.5485  0.0886
  605MOL0     C81550   3.916   3.989   3.407 -1.2890 -0.3999  0.0371
  605MOL0     C81551   3.766   3.950   3.394  0.1119 -0.5816  0.5755
  605MOL0     C81552   3.685   3.978   3.508  1.1761 -0.1077 -1.1887
  605MOL0     C81553   3.676   4.128   3.550 -0.9183 -0.1452  0.6136
  605MOL0     C81554   3.623   4.221   3.447  0.7069 -0.9408 -0.8139
  605MOL0     C81555   3.589   4.358   3.507 -0.1480  0.6372 -0.6624
  605MOL0     C81556   3.570   4.467   3.406  0.9905  0.5025 -0.5992
  605MOL0     N81557   3.513   4.591   3.471 -0.0421  0.3468 -0.3407
  605MOL0     C81558   3.580   4.655   3.576 -0.4573  0.8835  0.1553
  605MOL0     C81559   3.507   4.762   3.602  1.6505  0.5641  0.5159
  605MOL0     C81560   3.532   4.855   3.708  0.5694 -0.7189  0.0346
  605MOL0     C81561   3.630   4.964   3.676 -0.3257  0.4498 -0.1275
  605MOL0     C81562   3.762   4.906   3.626  0.6965 -0.7287 -0.3332
  605MOL0     C81563   3.877   5.017   3.633 -0.5259  0.6650  0.2258
  605MOL0     O81564   3.955   4.989   3.759 -0.4903  0.7386  0.1913
  605MOL0     C81565   4.059   5.068   3.795  0.2488  0.1301  0.1089
  605MOL0     C81566   4.128   5.161   3.704  1.6824  0.3680 -1.0141
  605MOL0     C81567   4.221   5.252   3.750 -1.0434  0.3287  0.2114
  605MOL0     C81568   4.283   5.340   3.642  0.0285 -0.4719 -0.2709
  605MOL0     C81569   4.255   5.259   3.886 -0.0772  0.0114  0.8069
  605MOL0     C81570   4.355   5.369   3.941  0.3332  0.5066  0.3157
  605MOL0     O81571   4.325   5.493   3.897 -0.0350  0.2847  0.0497
  605MOL0     C81572   4.411   5.607   3.894  0.4940  0.3446 -0.8326
  605MOL0     C81573   4.552   5.608   3.910  0.7518 -0.0830  0.6154
  605MOL0     C81574   4.630   5.727   3.900  0.7845  0.1365  0.3085
  605MOL0     C81575   4.568   5.852   3.889  0.0585  0.5448  0.8658
  605MOL0     O81576   4.651   5.961   3.864 -0.0733 -0.2662 -0.3377
  605MOL0     C81577   4.615   6.102   3.857  0.5473 -0.2205  0.1111
  605MOL0     C81578   4.750   6.179   3.875  0.0551  0.2320  0.2809
  605MOL0     C81579   4.748   6.324   3.854 -0.1678 -0.3832  0.3369
  605MOL0     C81580   4.891   6.389   3.853 -1.2800 -0.6592 -0.3662
  605MOL0     C81581   4.884   6.535   3.844  0.2541 -0.1025 -0.2126
  605MOL0     C81582   5.031   6.587   3.826  0.2623  0.9024  0.5376
  605MOL0     C81583   5.043   6.746   3.810  0.5118 -0.1682  0.2882
  605MOL0     C81584   5.089   6.763   3.663  0.0684 -0.0581 -0.0448
  605MOL0    Cl81585   4.946   6.804   3.575  0.1093 -0.5759  0.3638
  605MOL0     C81586   4.426   5.854   3.881  0.3228  0.2264  0.1666
  605MOL0     C81587   4.346   5.731   3.883 -0.7982 -0.0647  1.0422
  605MOL0     O81588   4.431   5.339   4.034 -0.3782  0.0815  0.2181
  605MOL0     C81589   4.207   5.157   3.964 -0.3869 -0.0476 -0.2045
  605MOL0     C81590   4.100   5.076   3.925  0.1614  0.9057  0.2582
  605MOL0     N81591   3.400   4.768   3.514 -0.0811  0.5896  0.3938
  605MOL0     N81592   3.412   4.676   3.430  0.5237  0.0001 -0.2188
  605MOL0     C81593   4.207   3.737   3.215 -0.7910  0.5960 -0.5800
  605MOL0     C81594   4.291   3.631   3.195 -0.0291 -0.3283  0.5095
  605MOL0     C81595   4.479   3.242   3.218  0.5013 -0.5768 -0.2247
  605MOL0     C81596   4.418   3.115   3.226  0.2883 -0.1335  0.7736
  605MOL0     C81597   4.487   3.004   3.195  0.1664 -0.0172  0.1335
  605MOL0     C81598   4.623   3.003   3.165  0.0979 -1.3013 -1.6499
  605MOL0     O81599   4.713   2.901   3.141  0.2407  0.3261 -0.4696
  605MOL0     C81600   4.658   2.776   3.118 -0.2881 -0.1824 -0.0742
  605MOL0     C81601   4.651   2.695   3.253  0.7557  0.5552  0.6609
  605MOL0     C81602   4.784   2.633   3.296  0.8592 -0.1361  0.0441
  605MOL0     C81603   4.777   2.549   3.428  0.7037 -0.7790 -0.5302
  605MOL0     C81604   4.719   2.422   3.393  0.3686  0.0775  0.1950
  605MOL0     C81605   4.653   2.331   3.353  0.1197  0.1520 -0.4110
  605MOL0     C81606   4.689   3.128   3.171 -0.6928 -0.6473  0.7035
  605MOL0     C81607   4.617   3.249   3.201 -0.8090  0.4694  1.1898
  605MOL0     H81608   4.468   3.634   3.480 -0.2473  0.9679  0.9856
  605MOL0     H81609   4.318   3.844   3.511 -1.9011 -0.0410  0.1160
  605MOL0     H81610   3.982   3.915   3.223 -0.4525 -4.2556 -1.0723
  605MOL0     H81611   3.969   3.785   3.344  0.0170 -1.8165 -4.8067
  605MOL0     H81612   3.953   3.989   3.510 -1.0283  0.8192 -0.0402
  605MOL0     H81613   3.928   4.083   3.352 -1.5707 -0.9448 -0.9773
  605MOL0     H81614   3.726   4.000   3.305 -0.4529 -4.0369 -1.3285
  605MOL0     H81615   3.753   3.844   3.370 -1.3450 -0.2694 -0.1465
  605MOL0     H81616   3.588   3.934   3.487 -0.3112  2.9451 -1.1967
  605MOL0     H81617   3.727   3.925   3.594 -2.9329 -0.8515  0.6014
  605MOL0     H81618   3.620   4.131   3.643  0.6805 -0.2385  1.6162
  605MOL0     H81619   3.774   4.169   3.577 -0.5226  1.2817 -2.5746
  605MOL0     H81620   3.700   4.245   3.374 -0.4590  1.6898 -1.3070
  605MOL0     H81621   3.529   4.193   3.398  0.2130 -0.4354 -0.1739
  605MOL0     H81622   3.495   4.347   3.561  0.2103 -2.6181 -0.5278
  605MOL0     H81623   3.666   4.379   3.581 -0.9176  2.4636 -0.3038
  605MOL0     H81624   3.492   4.427   3.341  1.0412  1.2749 -1.1461
  605MOL0     H81625   3.661   4.484   3.349  0.8654  1.7708 -0.4475
  605MOL0     H81626   3.672   4.622   3.622  0.5151  1.3276 -1.3787
  605MOL0     H81627   3.438   4.903   3.738  1.7185  0.2254  2.3836
  605MOL0     H81628   3.563   4.799   3.796 -1.3987  0.7574  1.7829
  605MOL0     H81629   3.646   5.007   3.775 -0.3008  1.8536 -0.7092
  605MOL0     H81630   3.591   5.041   3.609  0.9217  2.3631  1.2496
  605MOL0     H81631   3.755   4.883   3.520  1.1171  0.6213 -0.6734
  605MOL0     H81632   3.786   4.823   3.693  2.6525 -1.0610 -1.3625
  605MOL0     H81633   3.856   5.123   3.616  2.8970  1.2229 -1.5014
  605MOL0     H81634   3.948   5.002   3.551  0.0372  1.2313  0.6061
  605MOL0     H81635   4.102   5.165   3.599 -1.0322 -0.1177 -0.4312
  605MOL0     H81636   4.218   5.426   3.624 -1.0889 -1.6333 -2.0361
  605MOL0     H81637   4.379   5.386   3.670 -1.9036  3.5530  0.5348
  605MOL0     H81638   4.298   5.273   3.557  2.0250 -1.6391  0.9323
  605MOL0     H81639   4.604   5.513   3.914  1.8021  0.1977 -2.9534
  605MOL0     H81640   4.737   5.720   3.918  0.6286 -1.0932  0.8913
  605MOL0     H81641   4.586   6.138   3.758  2.4632 -0.4581 -0.5668
  605MOL0     H81642   4.534   6.127   3.926  0.5512 -0.3098  0.1489
  605MOL0     H81643   4.782   6.158   3.977 -1.6503 -2.7352  0.3127
  605MOL0     H81644   4.820   6.140   3.801 -1.6165  0.0094 -1.2524
  605MOL0     H81645   4.681   6.374   3.925 -2.9226  0.3258 -2.5260
  605MOL0     H81646   4.703   6.339   3.756  1.7103 -2.8218 -1.0126
  605MOL0     H81647   4.950   6.370   3.943  0.8671 -0.0090 -1.5470
  605MOL0     H81648   4.946   6.343   3.770 -0.8323 -1.1602  0.2013
  605MOL0     H81649   4.847   6.584   3.934  0.3257 -1.3475  0.5139
  605MOL0     H81650   4.829   6.565   3.754  0.8808  0.5834 -0.3768
  605MOL0     H81651   5.090   6.562   3.915 -0.2022 -0.8011  0.3963
  605MOL0     H81652   5.071   6.532   3.741 -2.9590  1.3915 -1.4842
  605MOL0     H81653   5.118   6.788   3.877 -1.3366 -0.2426  2.5129
  605MOL0     H81654   4.963   6.818   3.830 -0.7671 -1.9851  2.0812
  605MOL0     H81655   5.136   6.676   3.615 -0.1368 -0.3714  0.3144
  605MOL0     H81656   5.161   6.844   3.652  0.5423 -0.3272  0.9143
  605MOL0     H81657   4.372   5.948   3.876 -1.9334 -0.9066  1.6454
  605MOL0     H81658   4.238   5.743   3.889 -0.7846  0.8719 -0.2215
  605MOL0     H81659   4.252   5.160   4.062  3.2083  2.0896 -1.7052
  605MOL0     H81660   4.051   5.010   3.997 -0.0067  0.7290 -0.0176
  605MOL0     H81661   4.133   3.744   3.137 -0.1278 -1.4876 -1.4731
  605MOL0     H81662   4.276   3.560   3.114  2.4260 -1.2957  0.8084
  605MOL0     H81663   4.311   3.102   3.242  0.3063 -1.4134 -0.0124
  605MOL0     H81664   4.430   2.912   3.202 -0.6297  0.5751  2.6486
  605MOL0     H81665   4.557   2.778   3.076  0.0901  2.5258 -1.0627
  605MOL0     H81666   4.732   2.724   3.057  1.7296  1.9842  0.3332
  605MOL0     H81667   4.581   2.611   3.246  2.1016 -0.9196  3.3817
  605MOL0     H81668   4.611   2.754   3.336  0.2667 -3.1986  3.3444
  605MOL0     H81669   4.842   2.725   3.297  0.6014  0.2200 -3.6318
  605MOL0     H81670   4.819   2.571   3.213  2.3127  0.1842  0.4050
  605MOL0     H81671   4.718   2.613   3.494  3.3908  1.3717 -0.0782
  605MOL0     H81672   4.875   2.527   3.470  0.2107 -5.5317 -1.3560
  605MOL0     H81673   4.585   2.261   3.309 -1.6208  0.8709  1.0166
  605MOL0     H81674   4.795   3.142   3.151 -1.0260 -0.3742 -1.0312
  605MOL0     H81675   4.674   3.338   3.222  0.8430  0.1770 -1.5337
  606MOL0     O81676   6.119   9.902   1.826 -0.1405  0.3800 -0.1800
  606MOL0     C81677   6.120   9.793   1.776 -0.0454  0.0021  0.2723
  606MOL0     O81678   6.219   9.741   1.692  0.5053  0.1489 -0.0062
  606MOL0     C81679   6.352   9.779   1.701  1.2238 -0.0953 -0.2007
  606MOL0     C81680   6.423   9.733   1.805  0.0654  1.3821  0.1694
  606MOL0     C81681   6.558   9.779   1.822  0.1881  1.7883 -0.0620
  606MOL0     C81682   6.614   9.867   1.733 -1.0042  0.4643 -0.2454
  606MOL0     O81683   6.741   9.912   1.763  0.2655  0.0372 -0.8907
  606MOL0     C81684   6.777  10.045   1.749  0.1541 -0.2844 -1.0017
  606MOL0     C81685   6.704  10.134   1.857  0.4875  0.1080 -0.0335
  606MOL0     C81686   6.740  10.276   1.827  0.6353 -0.5713 -0.3261
  606MOL0     C81687   6.655  10.346   1.936  0.2759 -1.0632  0.0556
  606MOL0     C81688   6.691  10.500   1.941 -1.0931 -0.5486  0.0997
  606MOL0     C81689   6.653  10.588   1.823  1.0189 -0.5083 -0.1204
  606MOL0     C81690   6.502  10.597   1.806 -0.5736 -0.3666 -0.2587
  606MOL0     C81691   6.465  10.689   1.690 -0.4933 -0.7526  0.7128
  606MOL0     N81692   6.501  10.831   1.708  1.4082  0.6303  0.1035
  606MOL0     C81693   6.409  10.940   1.690 -0.4954 -0.0202  0.4253
  606MOL0     C81694   6.482  11.052   1.710  0.3444  0.3875 -0.9954
  606MOL0     C81695   6.413  11.190   1.703 -0.4474  0.4202  0.3669
  606MOL0     C81696   6.353  11.253   1.826  0.3291 -0.1069 -0.1844
  606MOL0     C81697   6.278  11.381   1.803  0.0952  0.1927  0.3963
  606MOL0     C81698   6.365  11.506   1.796 -0.2633  0.3951  0.2896
  606MOL0     O81699   6.275  11.620   1.788  0.4737  0.4011  0.4989
  606MOL0     C81700   6.320  11.747   1.794 -0.2817 -0.6252  0.5330
  606MOL0     C81701   6.450  11.780   1.839  0.1069 -0.3544  0.0669
  606MOL0     C81702   6.490  11.910   1.854 -0.0029 -0.0291  0.3074
  606MOL0     C81703   6.634  11.924   1.897 -0.0654 -0.2205 -0.0751
  606MOL0     C81704   6.401  12.015   1.826 -0.1499  0.1152  0.0357
  606MOL0     C81705   6.451  12.157   1.835  0.3076 -0.2694  0.8520
  606MOL0     O81706   6.519  12.209   1.733 -0.5701  0.3807  0.9213
  606MOL0     C81707   6.559  12.334   1.740 -0.8651 -0.4719 -0.5854
  606MOL0     C81708   6.468  12.441   1.702  1.0420 -0.4864  0.0302
  606MOL0     C81709   6.501  12.573   1.702 -0.2078  0.3785 -0.7317
  606MOL0     C81710   6.636  12.601   1.718 -0.3445 -0.5983 -0.5832
  606MOL0     O81711   6.694  12.725   1.725 -0.0823 -0.4469  0.4582
  606MOL0     C81712   6.607  12.823   1.673  0.5555  1.0569 -0.6227
  606MOL0     C81713   6.690  12.952   1.658 -0.6020 -0.9608  0.2206
  606MOL0     C81714   6.622  13.055   1.567  0.8516  0.5933  0.5431
  606MOL0     C81715   6.710  13.185   1.572  0.1383  0.3640  0.4967
  606MOL0     C81716   6.640  13.286   1.479 -0.7799 -0.5717  0.2536
  606MOL0     C81717   6.720  13.411   1.505  0.6040 -0.6416 -0.2794
  606MOL0     C81718   6.651  13.532   1.431 -0.3197 -1.0460 -0.0487
  606MOL0     C81719   6.715  13.665   1.455  0.9958 -0.0647  0.5542
  606MOL0    Cl81720   6.610  13.745   1.579 -0.4673 -0.2506  0.5675
  606MOL0     C81721   6.735  12.500   1.746  0.6725  0.7798  0.4934
  606MOL0     C81722   6.695  12.368   1.758  0.1892 -0.3469 -0.7900
  606MOL0     O81723   6.413  12.224   1.931  0.0569  0.0568 -0.4336
  606MOL0     C81724   6.267  11.982   1.786  0.1121  0.1787 -1.0947
  606MOL0     C81725   6.227  11.851   1.761 -1.0601 -0.1489 -0.5345
  606MOL0     N81726   6.612  11.015   1.741  0.4475 -1.1161  0.8135
  606MOL0     N81727   6.629  10.886   1.726  1.1682 -0.1908  0.0066
  606MOL0     C81728   6.545   9.912   1.622  0.2302  0.0421 -0.9574
  606MOL0     C81729   6.413   9.866   1.613 -0.8660 -0.5180  0.0229
  606MOL0     C81730   6.002   9.707   1.814  0.3860 -0.4980  0.7817
  606MOL0     C81731   5.930   9.723   1.937  0.1148 -0.2958 -1.0278
  606MOL0     C81732   5.829   9.624   1.975  0.1056 -0.3898 -0.2118
  606MOL0     C81733   5.801   9.521   1.888  0.4881  0.0830  0.0754
  606MOL0     O81734   5.714   9.421   1.916 -0.2782 -0.1219  0.6700
  606MOL0     C81735   5.590   9.459   1.974 -0.0295  0.6955 -0.5162
  606MOL0     C81736   5.481   9.347   1.942 -0.3827 -0.4220  1.0207
  606MOL0     C81737   5.510   9.198   1.973  0.3192 -0.2523 -0.5248
  606MOL0     C81738   5.495   9.173   2.131  0.0811 -0.5073 -0.7688
  606MOL0     C81739   5.356   9.187   2.175  0.2397 -0.1189  0.4795
  606MOL0     C81740   5.252   9.222   2.234  0.5957 -0.4256 -0.3073
  606MOL0     C81741   5.886   9.501   1.782  0.5407  0.3260 -0.9130
  606MOL0     C81742   5.982   9.593   1.736 -0.0350  0.0709  0.1089
  606MOL0     H81743   6.388   9.653   1.869 -0.8229  0.6262 -1.1858
  606MOL0     H81744   6.617   9.744   1.907  0.5995  1.5038 -0.4591
  606MOL0     H81745   6.885  10.044   1.764 -0.1754 -0.1042  1.9001
  606MOL0     H81746   6.758  10.085   1.649  0.0302  1.8816 -0.1534
  606MOL0     H81747   6.596  10.114   1.854  0.9591 -2.7540 -2.3874
  606MOL0     H81748   6.742  10.112   1.957 -1.6408  0.1907  0.8581
  606MOL0     H81749   6.847  10.294   1.838  1.3467 -3.1617 -2.0155
  606MOL0     H81750   6.701  10.302   1.728 -0.2153  0.7663  0.3424
  606MOL0     H81751   6.548  10.325   1.936  0.0875 -0.1884  0.6648
  606MOL0     H81752   6.688  10.299   2.029  1.8816  1.1049  0.6638
  606MOL0     H81753   6.655  10.546   2.034  0.3336 -0.8049  0.8117
  606MOL0     H81754   6.799  10.516   1.945 -1.3139  2.3924 -2.4157
  606MOL0     H81755   6.705  10.681   1.846 -0.7277 -0.1245  2.9041
  606MOL0     H81756   6.701  10.547   1.734  4.4025 -0.0585  1.3645
  606MOL0     H81757   6.459  10.502   1.772 -1.2095  0.0942 -0.7475
  606MOL0     H81758   6.468  10.652   1.894 -1.2371  0.4350 -0.9929
  606MOL0     H81759   6.361  10.689   1.657 -1.6868  0.5059  4.0943
  606MOL0     H81760   6.532  10.653   1.611 -0.5673 -1.2828  0.8846
  606MOL0     H81761   6.308  10.941   1.651  0.2952  3.3354 -1.8920
  606MOL0     H81762   6.482  11.269   1.672 -1.2920  1.6986  1.6418
  606MOL0     H81763   6.326  11.180   1.637 -1.2725  1.0359  1.3318
  606MOL0     H81764   6.442  11.266   1.889  1.1493 -2.3967 -0.7751
  606MOL0     H81765   6.284  11.191   1.883 -2.4726  3.1480  0.3294
  606MOL0     H81766   6.207  11.380   1.886 -2.3770 -1.8062 -1.5463
  606MOL0     H81767   6.209  11.378   1.718  1.0647 -0.1306 -0.3884
  606MOL0     H81768   6.433  11.507   1.710  1.8263  2.1449  1.8361
  606MOL0     H81769   6.424  11.500   1.888 -1.4105  2.5647  1.2443
  606MOL0     H81770   6.508  11.695   1.875 -0.4357 -0.4761  0.6757
  606MOL0     H81771   6.685  11.995   1.832  0.5739 -0.4118  0.2116
  606MOL0     H81772   6.638  11.954   2.002 -1.2169 -0.9871  0.2097
  606MOL0     H81773   6.686  11.828   1.886 -1.0632 -0.8666  0.6081
  606MOL0     H81774   6.367  12.419   1.668 -0.1082  2.1431  1.4264
  606MOL0     H81775   6.416  12.636   1.679 -0.5157 -0.5498 -2.2895
  606MOL0     H81776   6.565  12.800   1.575  0.6511 -1.0806 -0.2059
  606MOL0     H81777   6.522  12.847   1.738 -1.2984  1.3143 -3.0008
  606MOL0     H81778   6.717  12.999   1.753  2.7979 -2.3389  0.0825
  606MOL0     H81779   6.787  12.928   1.613 -0.1686  0.8340  0.1137
  606MOL0     H81780   6.521  13.079   1.604  0.9801 -0.6070  1.7681
  606MOL0     H81781   6.595  13.016   1.469  2.0954 -1.2939  0.9156
  606MOL0     H81782   6.718  13.228   1.672 -1.0697  2.4583 -0.2357
  606MOL0     H81783   6.807  13.158   1.531  0.7508 -0.0940  2.1900
  606MOL0     H81784   6.535  13.305   1.503 -0.5004  1.6053 -0.0180
  606MOL0     H81785   6.658  13.254   1.376 -1.6393  0.8412 -0.3649
  606MOL0     H81786   6.716  13.431   1.612 -6.0510 -1.5944  0.0602
  606MOL0     H81787   6.827  13.405   1.483  0.5412 -1.1586 -0.4607
  606MOL0     H81788   6.546  13.537   1.461  0.2552  0.8632  1.8447
  606MOL0     H81789   6.652  13.528   1.322 -1.5226 -0.2544 -0.0963
  606MOL0     H81790   6.698  13.728   1.367  0.4839  3.5216  3.0017
  606MOL0     H81791   6.821  13.657   1.480  1.3473 -1.1310 -1.1141
  606MOL0     H81792   6.838  12.527   1.763  1.3668 -1.3438 -0.0244
  606MOL0     H81793   6.770  12.294   1.785 -0.9349 -1.3186 -0.2304
  606MOL0     H81794   6.185  12.050   1.767  0.6773  1.1931 -0.0460
  606MOL0     H81795   6.125  11.826   1.732 -1.3572  1.5460 -1.0798
  606MOL0     H81796   6.586   9.988   1.557  0.2301  2.9344  2.1084
  606MOL0     H81797   6.365   9.915   1.528 -0.0827  0.8555  0.3424
  606MOL0     H81798   5.937   9.803   2.010 -0.4478 -1.7374  0.6655
  606MOL0     H81799   5.768   9.636   2.064 -1.0434  0.6453 -1.0956
  606MOL0     H81800   5.598   9.452   2.083  0.6650 -1.2006 -0.6565
  606MOL0     H81801   5.552   9.556   1.940 -1.9831 -0.6737 -2.5299
  606MOL0     H81802   5.480   9.372   1.835  0.0639 -0.9306  0.8942
  606MOL0     H81803   5.379   9.373   1.973 -0.3330  0.7257  0.2840
  606MOL0     H81804   5.613   9.175   1.947  0.7238 -1.3094  1.7624
  606MOL0     H81805   5.445   9.124   1.925 -1.0861  1.1747 -0.9379
  606MOL0     H81806   5.558   9.236   2.195  0.3904 -0.7679 -0.8118
  606MOL0     H81807   5.535   9.073   2.150  1.9401  0.2654 -0.3958
  606MOL0     H81808   5.165   9.258   2.286  0.5244 -1.2318  0.1658
  606MOL0     H81809   5.882   9.410   1.723  0.5943 -1.6797  1.9715
  606MOL0     H81810   6.043   9.561   1.652 -1.0388 -0.2873 -0.5014
  607MOL0     O81811  11.144   4.988   5.624 -0.6020  0.6034  0.2545
  607MOL0     C81812  11.139   4.882   5.561 -0.0469 -0.5388  0.8671
  607MOL0     O81813  11.049   4.851   5.466  0.7412  0.3477  0.6484
  607MOL0     C81814  10.943   4.934   5.439 -0.6472  0.5162  0.1587
  607MOL0     C81815  10.864   4.993   5.539 -1.0796 -1.1172  0.0547
  607MOL0     C81816  10.764   5.080   5.507  0.7060  0.7555  0.6202
  607MOL0     C81817  10.750   5.110   5.370  0.1384 -0.0499 -0.2053
  607MOL0     O81818  10.671   5.217   5.341 -0.0065  0.6293  0.0350
  607MOL0     C81819  10.659   5.256   5.203  0.0451  0.5034  0.5139
  607MOL0     C81820  10.788   5.309   5.135 -0.3990  1.0208 -0.0491
  607MOL0     C81821  10.815   5.456   5.171  0.3186 -0.7657  0.2663
  607MOL0     C81822  10.819   5.484   5.324  0.6683  0.5985 -0.1938
  607MOL0     C81823  10.850   5.621   5.365 -0.1427  0.4468 -0.5584
  607MOL0     C81824  10.997   5.660   5.359  0.2699  0.2739 -0.7533
  607MOL0     C81825  11.019   5.800   5.394 -0.5303  0.1816 -0.0146
  607MOL0     C81826  10.997   5.827   5.545  0.4820  0.5683  0.1333
  607MOL0     N81827  11.016   5.972   5.571  0.8327  0.2255  0.5811
  607MOL0     C81828  10.922   6.060   5.523 -0.8063 -0.6226  0.2627
  607MOL0     C81829  10.978   6.180   5.562 -0.3212 -0.1737  0.9213
  607MOL0     C81830  10.925   6.317   5.512 -0.4051 -0.0820 -1.1625
  607MOL0     C81831  10.795   6.362   5.575 -0.0215  0.0755 -0.1117
  607MOL0     C81832  10.752   6.503   5.536  0.4937 -0.0412  0.1735
  607MOL0     C81833  10.602   6.530   5.557  0.1759  1.4077  0.2296
  607MOL0     O81834  10.573   6.668   5.530  0.4621  0.3216 -1.2945
  607MOL0     C81835  10.596   6.753   5.636 -0.0285 -1.1117 -0.7909
  607MOL0     C81836  10.567   6.889   5.609 -0.2704 -0.5540 -0.3723
  607MOL0     C81837  10.571   6.989   5.716 -0.8200  0.6047 -0.6441
  607MOL0     C81838  10.532   7.129   5.674  0.9389  0.8807 -0.6859
  607MOL0     C81839  10.608   6.952   5.850  0.9553 -0.1456 -0.0732
  607MOL0     C81840  10.619   7.052   5.967  0.7111 -0.1185 -0.4958
  607MOL0     O81841  10.647   6.998   6.088 -0.1105  0.1009 -0.9176
  607MOL0     C81842  10.603   7.062   6.208 -0.7443  0.1335  0.5043
  607MOL0     C81843  10.647   7.014   6.335  0.1133 -0.1437 -0.5298
  607MOL0     C81844  10.593   7.060   6.453 -0.0571  0.7862 -0.0908
  607MOL0     C81845  10.496   7.160   6.456 -0.4721 -0.1961 -0.0692
  607MOL0     O81846  10.460   7.207   6.578 -0.3174  0.3872  0.1249
  607MOL0     C81847  10.336   7.266   6.581  0.2666  0.2347 -0.3123
  607MOL0     C81848  10.277   7.246   6.731  0.1662  1.3098 -0.8787
  607MOL0     C81849  10.323   7.345   6.844 -0.3694 -0.2531  0.1985
  607MOL0     C81850  10.347   7.487   6.794 -0.1447  0.0637  0.0687
  607MOL0     C81851  10.396   7.586   6.909 -0.0340 -0.7170  0.1151
  607MOL0     C81852  10.508   7.520   6.991  0.6543  0.0954  0.6024
  607MOL0     C81853  10.594   7.623   7.067 -0.0327 -0.3654  0.5272
  607MOL0     C81854  10.741   7.588   7.106 -0.3255  0.2448 -0.4303
  607MOL0    Cl81855  10.728   7.508   7.259 -0.3281 -0.2607 -0.1578
  607MOL0     C81856  10.455   7.214   6.333  0.4304 -0.5233  0.2821
  607MOL0     C81857  10.503   7.155   6.216 -0.4412 -0.5467  0.3685
  607MOL0     O81858  10.597   7.174   5.950 -0.2573  0.3544 -0.8439
  607MOL0     C81859  10.640   6.814   5.867  0.0875 -0.8362  0.1012
  607MOL0     C81860  10.635   6.720   5.769  0.1159  0.2628  0.3294
  607MOL0     N81861  11.106   6.158   5.615  0.5657  0.3233  0.5720
  607MOL0     N81862  11.126   6.029   5.623 -0.8963  0.3716  0.3702
  607MOL0     C81863  10.820   5.039   5.268  0.3338  0.6448  0.6030
  607MOL0     C81864  10.904   4.935   5.306  0.0062 -0.8323 -0.4121
  607MOL0     C81865  11.237   4.777   5.594 -0.1328  0.3820  0.0142
  607MOL0     C81866  11.287   4.679   5.503  0.1903 -0.6328 -0.2394
  607MOL0     C81867  11.375   4.580   5.546  0.6508 -0.0273  0.1665
  607MOL0     C81868  11.437   4.600   5.680 -0.0194 -0.3589  0.2228
  607MOL0     O81869  11.536   4.520   5.731  0.4946 -0.6255  0.0013
  607MOL0     C81870  11.573   4.403   5.654  0.1896 -0.3093  0.2208
  607MOL0     C81871  11.665   4.322   5.738 -0.0315 -0.0132  0.7419
  607MOL0     C81872  11.815   4.369   5.751 -0.4533  0.7124  0.2957
  607MOL0     C81873  11.841   4.512   5.802 -0.3395 -0.7003 -0.4380
  607MOL0     C81874  11.884   4.611   5.700  0.8884  0.4925  0.1840
  607MOL0     C81875  11.919   4.698   5.617 -0.2118 -0.2301  0.7149
  607MOL0     C81876  11.389   4.697   5.769  0.2976  0.0023  0.2423
  607MOL0     C81877  11.287   4.781   5.724  0.3734 -0.4355  0.4038
  607MOL0     H81878  10.908   4.975   5.636 -2.2196 -0.5679  0.6899
  607MOL0     H81879  10.695   5.132   5.574 -1.0858  0.4209 -0.8847
  607MOL0     H81880  10.619   5.174   5.142 -1.8694  1.5790  0.2491
  607MOL0     H81881  10.568   5.316   5.196  0.5708  1.3578  0.7701
  607MOL0     H81882  10.874   5.250   5.167  0.3353  3.0447  1.9185
  607MOL0     H81883  10.768   5.302   5.027  1.0404 -2.0484 -0.2124
  607MOL0     H81884  10.908   5.486   5.121 -1.1301  0.1799 -2.0053
  607MOL0     H81885  10.724   5.510   5.144  1.2095  1.5597  1.6215
  607MOL0     H81886  10.717   5.461   5.359  1.5441 -3.6218  0.0680
  607MOL0     H81887  10.885   5.412   5.374 -0.2047 -0.4967 -0.5658
  607MOL0     H81888  10.797   5.691   5.299  0.2070  0.4118 -0.8873
  607MOL0     H81889  10.803   5.631   5.463 -1.8102 -1.3372 -1.1213
  607MOL0     H81890  11.062   5.592   5.415  1.3143  0.9367 -1.1301
  607MOL0     H81891  11.032   5.649   5.256  2.3833 -0.4422 -0.0098
  607MOL0     H81892  11.123   5.826   5.370  1.2204 -3.4808  2.7572
  607MOL0     H81893  10.969   5.865   5.321  0.4105 -0.4104 -1.2192
  607MOL0     H81894  11.044   5.759   5.617  0.0460 -1.0715 -1.0688
  607MOL0     H81895  10.891   5.810   5.569  0.0414  1.6284 -0.9555
  607MOL0     H81896  10.827   6.042   5.474 -1.6742  1.0033  1.2489
  607MOL0     H81897  11.003   6.387   5.542  1.7276 -3.3136  1.6466
  607MOL0     H81898  10.902   6.308   5.406  2.2904  2.3391 -2.0692
  607MOL0     H81899  10.808   6.376   5.683  0.4308 -0.2110 -0.1255
  607MOL0     H81900  10.716   6.291   5.552 -0.1454  0.7315 -1.8051
  607MOL0     H81901  10.781   6.506   5.430  0.9350 -0.3629  0.2784
  607MOL0     H81902  10.810   6.577   5.591  1.4303 -0.8242  0.2742
  607MOL0     H81903  10.577   6.493   5.657 -0.6092  1.2239 -0.0259
  607MOL0     H81904  10.540   6.468   5.491  0.3343  0.8674  0.5847
  607MOL0     H81905  10.529   6.901   5.508  0.4874 -0.8698 -0.7025
  607MOL0     H81906  10.619   7.195   5.685  0.5947  1.5024 -1.5568
  607MOL0     H81907  10.517   7.127   5.566  0.3988  1.2960 -0.6184
  607MOL0     H81908  10.444   7.161   5.730 -1.0039 -0.2412 -2.9319
  607MOL0     H81909  10.715   6.929   6.333  0.7493  0.2896  0.8954
  607MOL0     H81910  10.630   7.032   6.551  1.8957 -1.8276 -1.4175
  607MOL0     H81911  10.342   7.371   6.552 -1.3922  0.4928  0.1808
  607MOL0     H81912  10.264   7.211   6.520 -2.3032  0.0602  2.5978
  607MOL0     H81913  10.170   7.267   6.724 -0.3655 -0.5469  0.5800
  607MOL0     H81914  10.299   7.142   6.757  2.3957  2.3771  2.0425
  607MOL0     H81915  10.418   7.297   6.870 -0.9215 -1.5654 -0.1164
  607MOL0     H81916  10.241   7.349   6.916 -1.9903  0.0721 -1.5799
  607MOL0     H81917  10.415   7.484   6.708 -1.6223 -1.1615 -1.1269
  607MOL0     H81918  10.258   7.535   6.753 -1.5540 -1.3394  1.3310
  607MOL0     H81919  10.312   7.601   6.978 -0.4175  0.4211 -0.5846
  607MOL0     H81920  10.429   7.674   6.853  2.7342 -2.0987 -0.5983
  607MOL0     H81921  10.473   7.438   7.054  5.3972 -1.9331  1.0207
  607MOL0     H81922  10.573   7.476   6.914  1.2555  1.0117  0.5658
  607MOL0     H81923  10.539   7.635   7.161  2.7495  0.9035  2.1453
  607MOL0     H81924  10.603   7.712   7.004  1.4704  0.0046  1.2088
  607MOL0     H81925  10.802   7.677   7.128  2.3001 -2.2465  3.7868
  607MOL0     H81926  10.784   7.528   7.026 -1.6750  0.1171 -1.0774
  607MOL0     H81927  10.381   7.291   6.350 -0.4991 -1.4896  0.7607
  607MOL0     H81928  10.456   7.188   6.123  1.5317 -4.6576 -2.4012
  607MOL0     H81929  10.672   6.774   5.963  2.5933 -1.9745 -1.1205
  607MOL0     H81930  10.645   6.617   5.801  0.1691  0.6548  1.6211
  607MOL0     H81931  10.794   5.057   5.164 -0.2587 -2.2250  0.1485
  607MOL0     H81932  10.943   4.871   5.228 -3.5853 -0.6154 -2.6257
  607MOL0     H81933  11.241   4.678   5.404  1.9964 -1.8866 -1.1163
  607MOL0     H81934  11.418   4.515   5.470  1.8002 -1.4123  1.9282
  607MOL0     H81935  11.485   4.342   5.629  0.8116 -1.0117 -0.2760
  607MOL0     H81936  11.633   4.435   5.569  0.7952 -0.5068  0.5654
  607MOL0     H81937  11.674   4.225   5.688  2.5812 -0.1979  1.3868
  607MOL0     H81938  11.628   4.303   5.839 -2.2310 -0.3961 -0.0914
  607MOL0     H81939  11.841   4.357   5.646 -2.3776 -2.3766  0.0576
  607MOL0     H81940  11.864   4.283   5.797 -0.9058  1.3834  2.1431
  607MOL0     H81941  11.922   4.498   5.875  0.9265 -1.3963 -1.9132
  607MOL0     H81942  11.752   4.545   5.856  0.6194  1.0402  0.1763
  607MOL0     H81943  11.951   4.755   5.533 -0.3383  0.0936  0.8851
  607MOL0     H81944  11.413   4.702   5.875 -4.8601  0.6269  1.6856
  607MOL0     H81945  11.257   4.846   5.807  0.2145 -0.0625  0.0570
  608MOL0     O81946   5.289   9.067   7.665 -0.5801 -0.5268  0.4467
  608MOL0     C81947   5.235   9.183   7.673 -0.2764  0.6346 -0.1277
  608MOL0     O81948   5.305   9.295   7.681 -0.0332  0.2952  0.3717
  608MOL0     C81949   5.440   9.285   7.679 -0.0617 -0.5003  0.1903
  608MOL0     C81950   5.503   9.343   7.790  0.0470  0.7302  0.8545
  608MOL0     C81951   5.635   9.322   7.817 -0.7178 -0.2857 -0.5852
  608MOL0     C81952   5.723   9.256   7.739  0.0169 -0.5102  0.4249
  608MOL0     O81953   5.859   9.235   7.763 -0.0915 -0.0510  0.4980
  608MOL0     C81954   5.900   9.242   7.905 -0.7979  0.0372 -0.3610
  608MOL0     C81955   6.046   9.183   7.914 -0.0678 -0.5632 -0.5604
  608MOL0     C81956   6.160   9.288   7.907  0.2303 -0.5663  1.2006
  608MOL0     C81957   6.172   9.383   8.028 -0.5738 -0.0361 -0.9271
  608MOL0     C81958   6.266   9.497   7.998  0.5104 -0.4972  0.3468
  608MOL0     C81959   6.278   9.588   8.114 -0.0566 -0.1874  0.7541
  608MOL0     C81960   6.386   9.704   8.107  0.7903  0.2395  0.1360
  608MOL0     C81961   6.330   9.845   8.095  0.5882  0.4455 -0.1472
  608MOL0     N81962   6.425   9.940   8.133 -0.1972 -0.0555 -0.4970
  608MOL0     C81963   6.519   9.993   8.051 -0.2196  0.5385  0.2266
  608MOL0     C81964   6.579  10.097   8.118  0.0769 -0.6403 -0.0777
  608MOL0     C81965   6.690  10.192   8.059 -0.5432 -0.0152 -0.7067
  608MOL0     C81966   6.708  10.326   8.127  0.4760  0.4559  0.3490
  608MOL0     C81967   6.815  10.404   8.057 -0.6314 -0.1321  0.4589
  608MOL0     C81968   6.829  10.537   8.135  0.1322 -0.5355 -0.3494
  608MOL0     O81969   6.699  10.590   8.170  0.3561 -0.0675 -0.1330
  608MOL0     C81970   6.626  10.651   8.065 -0.5771  0.1133  0.5435
  608MOL0     C81971   6.658  10.653   7.931  0.2244 -0.2608 -0.0821
  608MOL0     C81972   6.565  10.695   7.836 -0.3789 -0.0944 -0.1277
  608MOL0     C81973   6.600  10.686   7.690  0.3102 -0.0330 -0.2883
  608MOL0     C81974   6.448  10.764   7.885 -0.6733 -0.6061  0.3742
  608MOL0     C81975   6.359  10.827   7.793  0.5510  0.3091 -0.9431
  608MOL0     O81976   6.372  10.964   7.796 -0.2976 -0.5277 -0.4236
  608MOL0     C81977   6.285  11.051   7.740 -0.0628 -0.5269 -0.2612
  608MOL0     C81978   6.329  11.174   7.696  0.1022 -0.7034  0.7469
  608MOL0     C81979   6.249  11.264   7.632 -0.0758 -0.5310  0.2532
  608MOL0     C81980   6.115  11.229   7.611  0.2953  0.0497  1.2287
  608MOL0     O81981   6.036  11.330   7.559 -0.8442 -0.0967  0.1868
  608MOL0     C81982   5.954  11.391   7.664  0.1102 -1.2795 -0.2820
  608MOL0     C81983   5.846  11.492   7.621 -0.4984  0.5849  1.0444
  608MOL0     C81984   5.745  11.419   7.537  0.8008 -0.5293  0.1694
  608MOL0     C81985   5.635  11.500   7.458 -1.0367 -0.5754  0.3593
  608MOL0     C81986   5.616  11.440   7.314 -0.7442  0.5009 -0.0901
  608MOL0     C81987   5.518  11.535   7.251 -0.2428  0.7898 -0.0937
  608MOL0     C81988   5.490  11.493   7.107  0.1509 -0.1178  0.0489
  608MOL0     C81989   5.342  11.444   7.088 -0.1010  0.3590  0.0550
  608MOL0    Cl81990   5.249  11.588   7.089  0.2956  0.0375 -0.1691
  608MOL0     C81991   6.057  11.112   7.673 -0.5487  1.2034 -0.2875
  608MOL0     C81992   6.145  11.028   7.741  0.1981  0.4394 -0.3912
  608MOL0     O81993   6.287  10.767   7.721  0.2666  0.5483  0.3550
  608MOL0     C81994   6.430  10.780   8.023  0.2208  1.3878  0.1434
  608MOL0     C81995   6.515  10.719   8.111 -0.0219  0.4926 -0.7236
  608MOL0     N81996   6.520  10.103   8.252 -0.2770  0.4033  0.1997
  608MOL0     N81997   6.436  10.009   8.253  0.3411 -1.0172 -0.3415
  608MOL0     C81998   5.669   9.216   7.608  0.7319  0.3599  0.9217
  608MOL0     C81999   5.526   9.221   7.584 -0.7022 -0.4363 -0.2728
  608MOL0     C82000   5.090   9.190   7.697  0.2070  0.6982  0.2290
  608MOL0     C82001   5.010   9.073   7.677 -0.5747 -1.3990  0.2349
  608MOL0     C82002   4.871   9.084   7.699 -0.1450  0.2196 -0.4445
  608MOL0     C82003   4.808   9.205   7.740 -0.1386 -0.1992  0.1892
  608MOL0     O82004   4.675   9.232   7.747  0.3667  0.7722  0.0099
  608MOL0     C82005   4.579   9.129   7.710  0.4363  0.3374 -0.2753
  608MOL0     C82006   4.445   9.181   7.660 -0.3246  0.1968 -0.6079
  608MOL0     C82007   4.391   9.301   7.738 -0.4942  0.1558 -0.3624
  608MOL0     C82008   4.269   9.356   7.667 -0.0210  0.5079  0.1041
  608MOL0     C82009   4.241   9.471   7.745  0.5869 -0.3946 -1.5712
  608MOL0     C82010   4.209   9.575   7.798  0.2075  0.2814  0.2283
  608MOL0     C82011   4.894   9.317   7.754 -0.2075 -0.4602  0.1246
  608MOL0     C82012   5.033   9.308   7.741  0.2113 -0.2887 -0.6062
  608MOL0     H82013   5.441   9.394   7.863 -0.3621  0.3950  0.7455
  608MOL0     H82014   5.671   9.362   7.911 -1.1334 -1.6126  0.1616
  608MOL0     H82015   5.902   9.342   7.949  1.3105 -0.2189  0.2282
  608MOL0     H82016   5.824   9.194   7.966  1.1866  0.6616  2.8258
  608MOL0     H82017   6.063   9.129   8.008 -1.2694  2.1661  1.3616
  608MOL0     H82018   6.063   9.102   7.842  0.3842  1.1867 -2.5188
  608MOL0     H82019   6.252   9.228   7.904 -1.0766 -2.7035 -2.1992
  608MOL0     H82020   6.148   9.337   7.810 -0.6137  0.3201  1.7383
  608MOL0     H82021   6.075   9.427   8.052 -0.1861  0.0041  0.6600
  608MOL0     H82022   6.208   9.335   8.119  0.2852  2.4587  0.1294
  608MOL0     H82023   6.363   9.456   7.968  1.2493  1.1716  0.3728
  608MOL0     H82024   6.231   9.553   7.910 -0.2497 -1.2673  0.1454
  608MOL0     H82025   6.180   9.626   8.146 -0.5586  1.2362 -2.1275
  608MOL0     H82026   6.324   9.514   8.180 -1.5356 -1.2977  0.5867
  608MOL0     H82027   6.439   9.704   8.203 -0.0880  1.8003  0.6627
  608MOL0     H82028   6.464   9.695   8.032  1.1060  5.4468 -0.5038
  608MOL0     H82029   6.249   9.860   8.167  0.5023  0.9236 -0.3394
  608MOL0     H82030   6.275   9.866   8.003  0.2168  1.9387  0.3816
  608MOL0     H82031   6.528   9.964   7.947 -0.0615  0.7129  0.1905
  608MOL0     H82032   6.778  10.128   8.064 -2.3494 -2.8225 -2.0992
  608MOL0     H82033   6.660  10.208   7.955 -0.3109  0.1034 -0.7551
  608MOL0     H82034   6.735  10.320   8.232  0.5201  0.4913  0.3397
  608MOL0     H82035   6.606  10.366   8.117  0.8478  1.6640  1.1587
  608MOL0     H82036   6.787  10.410   7.951  1.0922 -2.2666 -0.1898
  608MOL0     H82037   6.907  10.346   8.058 -1.4302 -1.4484  0.5270
  608MOL0     H82038   6.898  10.603   8.082  0.4134 -1.6567 -1.4302
  608MOL0     H82039   6.890  10.521   8.225  1.4896 -0.8188 -1.2923
  608MOL0     H82040   6.750  10.611   7.895  2.7287  1.7701  3.3278
  608MOL0     H82041   6.631  10.783   7.649 -0.6002 -0.3347 -1.7736
  608MOL0     H82042   6.677  10.608   7.683 -0.7270 -1.1466  0.5600
  608MOL0     H82043   6.516  10.657   7.626  1.3453 -1.8791 -0.8814
  608MOL0     H82044   6.434  11.199   7.684 -0.4357  0.2297 -4.3557
  608MOL0     H82045   6.289  11.361   7.604  2.2942 -2.0322 -1.9319
  608MOL0     H82046   5.903  11.315   7.723 -0.2886 -1.3087 -0.6610
  608MOL0     H82047   6.023  11.449   7.726  2.5335 -3.2485 -0.9614
  608MOL0     H82048   5.800  11.514   7.718  2.5309  0.4133  2.6594
  608MOL0     H82049   5.885  11.584   7.576  1.7885 -1.1720 -0.7978
  608MOL0     H82050   5.688  11.358   7.608  0.4529  1.0068  1.2584
  608MOL0     H82051   5.802  11.350   7.473  2.1257 -0.6872  1.4665
  608MOL0     H82052   5.547  11.527   7.518  0.0806  3.0105  0.6300
  608MOL0     H82053   5.676  11.601   7.453 -0.8264 -0.7215 -1.0323
  608MOL0     H82054   5.566  11.343   7.315  1.0429 -0.4510  0.6358
  608MOL0     H82055   5.708  11.425   7.258 -1.9370 -0.5660 -1.8301
  608MOL0     H82056   5.427  11.537   7.311 -0.4963 -1.2581 -0.3709
  608MOL0     H82057   5.553  11.639   7.243  0.1175  0.6378 -0.5671
  608MOL0     H82058   5.539  11.398   7.083 -1.4696 -1.3582  1.3636
  608MOL0     H82059   5.509  11.576   7.039  1.6594  0.6305  1.3231
  608MOL0     H82060   5.306  11.373   7.164  2.9179 -0.3549  0.9989
  608MOL0     H82061   5.347  11.391   6.993 -0.0861 -2.7419  1.6367
  608MOL0     H82062   5.952  11.091   7.658 -0.8717 -0.8198  3.4695
  608MOL0     H82063   6.094  10.940   7.778 -2.4519  1.2059 -1.9579
  608MOL0     H82064   6.351  10.846   8.058  0.2494  1.4426  0.1061
  608MOL0     H82065   6.494  10.707   8.216  2.1684 -0.1432 -0.3038
  608MOL0     H82066   5.732   9.152   7.548 -1.9200 -2.0148  0.4436
  608MOL0     H82067   5.466   9.172   7.508 -1.5026 -2.6230  1.6582
  608MOL0     H82068   5.051   8.982   7.635 -1.3247 -0.7551 -2.0440
  608MOL0     H82069   4.826   8.985   7.696  2.9034 -1.3431  1.2189
  608MOL0     H82070   4.611   9.067   7.626 -3.1853 -1.6585 -0.3842
  608MOL0     H82071   4.560   9.080   7.805 -2.3325 -0.2159 -1.0345
  608MOL0     H82072   4.370   9.101   7.666  1.4892 -1.4417  1.3790
  608MOL0     H82073   4.452   9.208   7.554  0.2984  0.8838 -0.3962
  608MOL0     H82074   4.478   9.367   7.731 -1.2489  1.1625 -0.4054
  608MOL0     H82075   4.365   9.265   7.838  2.5114  0.0540  0.4852
  608MOL0     H82076   4.180   9.292   7.675  1.2322 -1.4950 -1.1102
  608MOL0     H82077   4.278   9.394   7.565 -0.5813 -0.3767 -0.2947
  608MOL0     H82078   4.169   9.659   7.850  6.3640  2.6396  2.0249
  608MOL0     H82079   4.846   9.412   7.775  1.5620  0.4134  0.4781
  608MOL0     H82080   5.101   9.392   7.739  0.4609 -0.4968 -0.9862
  609MOL0     O82081   7.118   6.235   6.383  0.6896 -0.3809 -0.0205
  609MOL0     C82082   7.164   6.307   6.294  0.0995  1.4493 -0.6096
  609MOL0     O82083   7.290   6.288   6.241 -0.3863 -0.0803  0.3790
  609MOL0     C82084   7.379   6.197   6.291 -0.8400  0.0729 -0.5044
  609MOL0     C82085   7.348   6.073   6.338  0.3646  0.3002  0.8096
  609MOL0     C82086   7.442   5.972   6.366  0.3441  0.1796  0.8042
  609MOL0     C82087   7.578   5.998   6.352 -0.5403 -0.2945 -0.1456
  609MOL0     O82088   7.655   5.901   6.412  0.3892  0.7984  0.7673
  609MOL0     C82089   7.795   5.895   6.412 -0.1495  0.4352 -0.2745
  609MOL0     C82090   7.838   5.764   6.477 -0.0806 -0.7302 -0.0172
  609MOL0     C82091   7.825   5.759   6.632  0.1403 -0.4319 -0.5408
  609MOL0     C82092   7.812   5.614   6.692 -0.5440 -0.5935 -0.3389
  609MOL0     C82093   7.673   5.563   6.697  1.1592  0.5989 -1.2767
  609MOL0     C82094   7.662   5.420   6.774  0.2474  0.1089 -0.1983
  609MOL0     C82095   7.525   5.343   6.761  0.0291 -0.2770 -0.2845
  609MOL0     C82096   7.519   5.254   6.630  0.0792  0.3833  0.0354
  609MOL0     N82097   7.510   5.322   6.501  0.3742  1.3445 -0.3033
  609MOL0     C82098   7.406   5.342   6.427  0.1449 -0.4480 -0.2378
  609MOL0     C82099   7.446   5.384   6.306  0.7426 -0.3613  1.1043
  609MOL0     C82100   7.367   5.436   6.191  0.9628 -0.0145  0.6821
  609MOL0     C82101   7.282   5.551   6.238  0.1856  0.4937 -0.3253
  609MOL0     C82102   7.200   5.606   6.118  0.5168 -0.0752  0.0651
  609MOL0     C82103   7.079   5.690   6.163 -0.3622  0.8867 -0.6480
  609MOL0     O82104   7.106   5.818   6.210 -0.5345 -0.6226 -0.7741
  609MOL0     C82105   6.996   5.902   6.197 -0.1663 -0.3778 -0.9156
  609MOL0     C82106   6.957   5.958   6.073  0.0021  0.0753 -0.3037
  609MOL0     C82107   6.851   6.057   6.075  0.1879 -0.4261 -0.0081
  609MOL0     C82108   6.828   6.122   5.934 -0.2007 -0.4178  0.0586
  609MOL0     C82109   6.791   6.093   6.204 -0.0195  0.0626  0.4410
  609MOL0     C82110   6.695   6.206   6.218  0.9913 -0.3658  0.2631
  609MOL0     O82111   6.654   6.275   6.113  0.0607  0.3585 -0.2309
  609MOL0     C82112   6.543   6.358   6.122  0.0067 -0.0254  0.0434
  609MOL0     C82113   6.568   6.470   6.046 -0.0617 -0.2996  0.2236
  609MOL0     C82114   6.464   6.567   6.033  0.3178  0.5837  0.0627
  609MOL0     C82115   6.340   6.548   6.092  0.4636 -0.0041  0.6224
  609MOL0     O82116   6.245   6.647   6.059  0.2671  0.1967  1.1428
  609MOL0     C82117   6.138   6.654   6.153 -0.3872  1.1333  0.3004
  609MOL0     C82118   6.037   6.749   6.094  0.2380 -0.1910  0.2799
  609MOL0     C82119   6.089   6.893   6.110  0.0441  0.4110 -0.9869
  609MOL0     C82120   6.149   6.945   5.980  0.0052  0.2486  0.3913
  609MOL0     C82121   6.248   7.058   6.021  0.2467 -0.8590 -0.0343
  609MOL0     C82122   6.293   7.145   5.905 -0.1691 -0.2324  0.2741
  609MOL0     C82123   6.394   7.258   5.959 -0.6664  1.1020 -0.1468
  609MOL0     C82124   6.333   7.383   6.021 -0.5946  0.0211  0.1574
  609MOL0    Cl82125   6.223   7.480   5.914  0.4214 -0.4045 -0.0797
  609MOL0     C82126   6.318   6.437   6.170  0.7969 -0.3520 -0.1291
  609MOL0     C82127   6.423   6.346   6.189 -0.4834 -0.5351 -0.6341
  609MOL0     O82128   6.646   6.223   6.329  0.1274  0.7482 -0.9119
  609MOL0     C82129   6.845   6.037   6.320 -0.2638  0.2828 -1.1335
  609MOL0     C82130   6.942   5.934   6.322  1.1298  1.0563  0.2466
  609MOL0     N82131   7.585   5.399   6.310  0.1746  0.5118  0.5377
  609MOL0     N82132   7.613   5.342   6.423 -0.7190 -0.8769  0.0337
  609MOL0     C82133   7.615   6.124   6.301  0.3974  0.8355  0.2931
  609MOL0     C82134   7.514   6.227   6.280  0.1586  0.2958 -0.1723
  609MOL0     C82135   7.076   6.413   6.246  1.0371  0.0155 -0.7684
  609MOL0     C82136   7.133   6.508   6.155  0.3996  1.1002 -0.0207
  609MOL0     C82137   7.059   6.619   6.116  1.2687  0.4073 -0.3710
  609MOL0     C82138   6.936   6.651   6.178  0.1393 -0.0621 -0.1153
  609MOL0     O82139   6.891   6.772   6.132  0.3218  0.2809  0.0506
  609MOL0     C82140   6.804   6.849   6.215  0.6603 -0.5473  0.3740
  609MOL0     C82141   6.679   6.880   6.132 -0.0806 -0.4245  0.1589
  609MOL0     C82142   6.547   6.831   6.187  0.8144  0.1266  0.2441
  609MOL0     C82143   6.503   6.893   6.320 -0.2481 -0.6147  0.6570
  609MOL0     C82144   6.564   6.834   6.444 -0.0774  0.7926 -0.6912
  609MOL0     C82145   6.610   6.797   6.547 -0.1993  0.0937 -0.3631
  609MOL0     C82146   6.873   6.555   6.246  0.6400 -0.8392  0.2456
  609MOL0     C82147   6.942   6.437   6.283  0.2318  0.2349 -0.1224
  609MOL0     H82148   7.243   6.046   6.351 -0.6180  1.6691 -3.0244
  609MOL0     H82149   7.429   5.867   6.388  1.5020  0.1622  1.5203
  609MOL0     H82150   7.832   5.889   6.309 -1.7761 -0.6796 -0.8198
  609MOL0     H82151   7.837   5.985   6.457 -3.1009  2.7681 -1.8179
  609MOL0     H82152   7.774   5.688   6.430 -1.5506  1.2566 -1.3576
  609MOL0     H82153   7.941   5.740   6.446  0.0838 -1.0767  0.7861
  609MOL0     H82154   7.920   5.800   6.666  1.1551 -0.1484 -3.4326
  609MOL0     H82155   7.746   5.823   6.673 -0.7067 -1.3676 -0.6539
  609MOL0     H82156   7.876   5.548   6.633 -1.2713 -0.4458 -1.3097
  609MOL0     H82157   7.838   5.612   6.799  1.7795 -0.4446 -0.8432
  609MOL0     H82158   7.612   5.630   6.758  0.0274 -1.3132 -0.2180
  609MOL0     H82159   7.635   5.548   6.596  2.3617 -0.3544 -1.6169
  609MOL0     H82160   7.750   5.366   6.739  1.9231  1.6261  1.4117
  609MOL0     H82161   7.671   5.439   6.882 -2.5780  0.4216  0.0702
  609MOL0     H82162   7.503   5.287   6.853 -1.4931  0.5058 -0.1471
  609MOL0     H82163   7.445   5.417   6.752  1.7123  1.3976 -2.1766
  609MOL0     H82164   7.430   5.192   6.645  0.8011 -0.1455  2.5613
  609MOL0     H82165   7.607   5.189   6.630  1.0563  1.6728 -0.3322
  609MOL0     H82166   7.302   5.346   6.461  0.1197  1.2263 -0.4296
  609MOL0     H82167   7.428   5.470   6.106 -0.6899  2.3373  0.3431
  609MOL0     H82168   7.307   5.357   6.146  1.0557  1.4246 -2.1467
  609MOL0     H82169   7.335   5.638   6.278 -1.0382  1.7846 -1.3926
  609MOL0     H82170   7.204   5.516   6.307 -0.4006  2.2138 -0.0581
  609MOL0     H82171   7.169   5.515   6.066  0.4279 -0.7217  1.2154
  609MOL0     H82172   7.270   5.658   6.051  0.2055  0.7108  0.3363
  609MOL0     H82173   7.025   5.635   6.240  1.8508 -0.2525  0.1952
  609MOL0     H82174   7.017   5.691   6.073  0.2675  0.1100 -1.1022
  609MOL0     H82175   7.030   5.932   5.997 -0.1796 -1.1731 -0.0656
  609MOL0     H82176   6.898   6.095   5.853 -3.3248  1.3631 -3.5752
  609MOL0     H82177   6.723   6.119   5.905 -0.8238 -1.0815  2.2371
  609MOL0     H82178   6.847   6.228   5.950  1.0301 -0.6512  0.2657
  609MOL0     H82179   6.664   6.468   5.996  0.7295  0.8785  1.6102
  609MOL0     H82180   6.483   6.653   5.969 -2.5929  2.3526  1.3900
  609MOL0     H82181   6.083   6.560   6.157  0.5974  0.4438 -1.3730
  609MOL0     H82182   6.168   6.689   6.253 -0.8551  3.7883 -0.4004
  609MOL0     H82183   6.015   6.727   5.990 -1.6496  2.2253  0.0810
  609MOL0     H82184   5.943   6.732   6.148  1.6902 -0.0384  3.0479
  609MOL0     H82185   6.171   6.892   6.182 -0.1462 -0.5450 -0.7596
  609MOL0     H82186   6.007   6.956   6.144 -0.7044 -1.1830  0.3024
  609MOL0     H82187   6.211   6.865   5.936  1.1240 -1.6283  4.7801
  609MOL0     H82188   6.078   6.983   5.906  1.2080 -2.7654 -2.5811
  609MOL0     H82189   6.339   7.014   6.064 -1.0993  0.2397  4.4523
  609MOL0     H82190   6.194   7.117   6.094 -0.5637 -0.9248 -0.5697
  609MOL0     H82191   6.341   7.076   5.835 -1.7611 -0.9652 -0.1610
  609MOL0     H82192   6.205   7.177   5.847  0.8894 -1.9170 -2.4654
  609MOL0     H82193   6.455   7.289   5.874 -2.8234  0.7529 -1.8810
  609MOL0     H82194   6.459   7.213   6.035 -0.7673  0.3127 -0.5243
  609MOL0     H82195   6.404   7.461   6.048 -0.4112 -1.1465  3.4592
  609MOL0     H82196   6.281   7.359   6.114  1.2660  0.9551  1.4949
  609MOL0     H82197   6.224   6.415   6.220  1.1977  0.3805  0.9762
  609MOL0     H82198   6.403   6.253   6.241  1.6290 -0.2592  0.8019
  609MOL0     H82199   6.824   6.093   6.411 -1.0547 -1.2617 -0.3181
  609MOL0     H82200   6.974   5.889   6.415 -1.0177  1.1383  1.0729
  609MOL0     H82201   7.719   6.154   6.299  0.3432  1.8111  3.8451
  609MOL0     H82202   7.533   6.327   6.243 -0.5625  0.7397  0.5980
  609MOL0     H82203   7.233   6.492   6.116 -0.0168 -1.8483 -0.1746
  609MOL0     H82204   7.096   6.690   6.043 -0.2093  0.0378 -1.5299
  609MOL0     H82205   6.776   6.804   6.310 -1.2143  0.3351  0.2995
  609MOL0     H82206   6.859   6.941   6.238 -0.1456 -0.5440  2.4588
  609MOL0     H82207   6.699   6.826   6.038 -0.4091  1.6509 -1.1583
  609MOL0     H82208   6.670   6.987   6.112  3.0436  0.0664  0.8322
  609MOL0     H82209   6.558   6.722   6.192  0.4849  0.1254  1.4204
  609MOL0     H82210   6.472   6.859   6.113  2.0660  1.1040 -0.6831
  609MOL0     H82211   6.394   6.892   6.318 -0.2713  0.4062  0.9330
  609MOL0     H82212   6.528   6.999   6.325  0.0986 -0.7204  1.2216
  609MOL0     H82213   6.651   6.756   6.637  0.1305 -2.4397 -1.5739
  609MOL0     H82214   6.770   6.569   6.274  0.9919  0.8895  0.8293
  609MOL0     H82215   6.892   6.366   6.347  0.5012  1.2722  1.3092
  610MOL0     O82216   5.244   9.494   6.024 -0.2153 -0.3500  0.0021
  610MOL0     C82217   5.362   9.526   6.045  0.5217  0.2150 -0.3633
  610MOL0     O82218   5.413   9.657   6.040 -0.6334 -0.2021  0.4856
  610MOL0     C82219   5.327   9.754   6.014  0.5319 -0.3226 -0.2469
  610MOL0     C82220   5.332   9.840   5.904  0.9386  0.1750  0.1009
  610MOL0     C82221   5.243   9.941   5.874 -0.5727 -0.6552 -0.8803
  610MOL0     C82222   5.141   9.958   5.963  1.9761 -0.5091  0.1079
  610MOL0     O82223   5.039  10.043   5.922 -0.1069 -0.8829  0.1974
  610MOL0     C82224   4.963  10.109   6.032  0.1215 -1.0186  0.6333
  610MOL0     C82225   4.875  10.219   5.982 -1.0008  0.6034 -0.5854
  610MOL0     C82226   4.784  10.255   6.104  0.1984 -0.1991 -0.1867
  610MOL0     C82227   4.728  10.395   6.083  0.4417 -0.2655 -0.5435
  610MOL0     C82228   4.684  10.455   6.218 -0.8147  0.0287  0.1138
  610MOL0     C82229   4.684  10.607   6.212 -0.0710 -0.9392 -0.4039
  610MOL0     C82230   4.629  10.669   6.341 -0.1849  0.4900  0.1502
  610MOL0     C82231   4.478  10.645   6.390  0.6571  0.0091  0.1601
  610MOL0     N82232   4.390  10.737   6.317  0.3924 -0.3007  0.8125
  610MOL0     C82233   4.342  10.856   6.373  0.1077 -1.2690  0.6051
  610MOL0     C82234   4.241  10.890   6.291  0.2172  0.1225 -0.4619
  610MOL0     C82235   4.154  11.008   6.282 -0.6133  0.1854  0.6613
  610MOL0     C82236   4.155  11.087   6.410  0.2153  0.3472  0.1175
  610MOL0     C82237   4.058  11.200   6.422  0.0675 -0.4405 -0.4196
  610MOL0     C82238   4.090  11.326   6.345  0.7902  0.0571  0.5594
  610MOL0     O82239   4.236  11.357   6.351 -0.1836  0.2533 -0.6928
  610MOL0     C82240   4.290  11.430   6.253  0.0521  0.4531 -0.1069
  610MOL0     C82241   4.288  11.378   6.123 -0.0389  0.1111  0.0099
  610MOL0     C82242   4.331  11.466   6.017  1.0725 -0.4690 -0.2771
  610MOL0     C82243   4.309  11.406   5.873  0.1636 -0.0416  0.2228
  610MOL0     C82244   4.380  11.595   6.031 -0.0904 -0.1692  0.9186
  610MOL0     C82245   4.423  11.692   5.922  0.3939 -1.3338  0.5149
  610MOL0     O82246   4.465  11.638   5.809  1.0264  0.2864  0.5709
  610MOL0     C82247   4.464  11.719   5.694  0.8724  0.2784 -0.5761
  610MOL0     C82248   4.362  11.703   5.599 -0.8438 -0.7255 -0.3183
  610MOL0     C82249   4.356  11.781   5.489  0.0875 -0.4245 -0.4519
  610MOL0     C82250   4.462  11.871   5.459  0.3274 -0.6219 -0.4134
  610MOL0     O82251   4.447  11.950   5.347 -0.4396 -0.3534  0.5803
  610MOL0     C82252   4.526  12.066   5.326  0.4439  0.4390 -0.2492
  610MOL0     C82253   4.469  12.143   5.208 -0.3317  0.0437 -0.5193
  610MOL0     C82254   4.505  12.082   5.072 -0.5132  0.5638  0.5631
  610MOL0     C82255   4.485  12.171   4.949 -0.0404 -0.1630  0.2584
  610MOL0     C82256   4.454  12.101   4.818 -0.0126  0.8790 -0.2234
  610MOL0     C82257   4.418  12.206   4.725 -0.3960 -0.3026 -0.2499
  610MOL0     C82258   4.384  12.150   4.591  0.3511 -0.3131  0.3773
  610MOL0     C82259   4.362  12.262   4.491 -0.6545  0.7833  0.0883
  610MOL0    Cl82260   4.248  12.382   4.552  0.5191  0.3000 -0.3640
  610MOL0     C82261   4.570  11.881   5.543  0.6575 -0.4886  0.2976
  610MOL0     C82262   4.568  11.809   5.665 -0.5231 -0.7440 -0.0644
  610MOL0     O82263   4.415  11.813   5.932  0.2907 -0.6157 -1.1482
  610MOL0     C82264   4.387  11.633   6.167 -0.4478  0.3204 -0.2987
  610MOL0     C82265   4.347  11.555   6.275 -0.5793 -0.7371 -0.4883
  610MOL0     N82266   4.218  10.791   6.200 -0.1163  0.4987 -0.4938
  610MOL0     N82267   4.301  10.696   6.220 -0.5284  0.6551 -0.0700
  610MOL0     C82268   5.135   9.877   6.077  0.4449  0.3621  0.2902
  610MOL0     C82269   5.229   9.778   6.112  0.6716  0.2078 -0.1116
  610MOL0     C82270   5.464   9.427   6.072 -0.1180 -0.5341 -0.2710
  610MOL0     C82271   5.440   9.289   6.072 -0.4624  0.3895  0.5867
  610MOL0     C82272   5.542   9.197   6.104  0.0425 -0.6883 -0.1211
  610MOL0     C82273   5.667   9.244   6.150  0.5418  0.0206  0.4004
  610MOL0     O82274   5.762   9.158   6.202 -0.6500  0.0797 -1.1014
  610MOL0     C82275   5.725   9.029   6.252 -0.7740  0.8693  0.2336
  610MOL0     C82276   5.848   8.963   6.323 -0.3793 -0.8401  0.2116
  610MOL0     C82277   5.923   9.045   6.435 -0.5779 -0.7080  0.2135
  610MOL0     C82278   5.859   9.034   6.568 -0.0460  0.3126  0.5820
  610MOL0     C82279   5.883   8.897   6.627 -1.5553 -0.1901 -0.0551
  610MOL0     C82280   5.922   8.786   6.653  0.0479 -0.1980 -0.0188
  610MOL0     C82281   5.699   9.379   6.141  0.7537 -0.2336 -0.1571
  610MOL0     C82282   5.589   9.471   6.119 -1.3301 -0.3228  0.7702
  610MOL0     H82283   5.397   9.816   5.821 -0.0574 -1.7715 -0.1619
  610MOL0     H82284   5.246  10.003   5.785  1.7820 -0.3329 -0.6415
  610MOL0     H82285   4.892  10.034   6.069 -1.5291 -0.2473 -0.8284
  610MOL0     H82286   5.030  10.158   6.103  1.4404  1.3257 -2.0516
  610MOL0     H82287   4.933  10.307   5.955 -1.4458  1.6918  1.8128
  610MOL0     H82288   4.793  10.192   5.914 -0.4381 -0.5681 -0.8363
  610MOL0     H82289   4.692  10.196   6.112  0.9806 -1.2743  1.5262
  610MOL0     H82290   4.854  10.257   6.188  0.2341  2.7751 -0.1762
  610MOL0     H82291   4.811  10.449   6.038  0.7488 -0.9480 -0.7988
  610MOL0     H82292   4.633  10.379   6.031 -1.0255  1.0176  1.5373
  610MOL0     H82293   4.588  10.411   6.247 -2.0245  2.9464  0.9090
  610MOL0     H82294   4.764  10.424   6.286 -0.4600 -0.5907 -0.5700
  610MOL0     H82295   4.787  10.642   6.224 -1.1374  1.7030  2.1445
  610MOL0     H82296   4.630  10.634   6.121  0.6771 -1.0699 -0.9033
  610MOL0     H82297   4.695  10.621   6.415  0.3658 -0.5530 -0.9680
  610MOL0     H82298   4.641  10.777   6.339 -0.0773  0.6111 -4.5404
  610MOL0     H82299   4.471  10.662   6.498 -0.9028 -4.3277  0.9627
  610MOL0     H82300   4.449  10.541   6.373 -0.6247  0.5129 -0.8705
  610MOL0     H82301   4.385  10.930   6.439 -0.9744  0.4652 -0.5373
  610MOL0     H82302   4.194  11.070   6.202 -0.5494  0.4281  0.8786
  610MOL0     H82303   4.056  10.975   6.246  0.8067 -2.4493 -1.1756
  610MOL0     H82304   4.252  11.137   6.416  0.8252 -0.4852 -2.0921
  610MOL0     H82305   4.138  11.015   6.491  1.1165 -0.2830 -0.2348
  610MOL0     H82306   4.062  11.229   6.527  0.8799 -0.6594 -0.3806
  610MOL0     H82307   3.957  11.171   6.391 -0.3229  0.0563  0.3672
  610MOL0     H82308   4.026  11.408   6.378 -1.6463 -3.4701  6.0522
  610MOL0     H82309   4.058  11.310   6.241  2.4817  0.8423 -0.1272
  610MOL0     H82310   4.242  11.286   6.092 -2.9509  1.8089 -1.0633
  610MOL0     H82311   4.237  11.467   5.818  0.3336 -1.1372 -1.2759
  610MOL0     H82312   4.390  11.413   5.800  1.0111  1.1839  1.2443
  610MOL0     H82313   4.277  11.301   5.872  1.2943 -0.3937 -0.3012
  610MOL0     H82314   4.291  11.623   5.624 -0.4780 -0.7381  0.7457
  610MOL0     H82315   4.271  11.773   5.422 -0.3701 -2.3669  0.3021
  610MOL0     H82316   4.532  12.131   5.414 -1.2603  0.3540 -0.0389
  610MOL0     H82317   4.626  12.030   5.300  1.3713 -0.8297  4.1356
  610MOL0     H82318   4.361  12.154   5.221 -0.0592  1.3668  1.0755
  610MOL0     H82319   4.508  12.246   5.208  2.7446 -1.0148  0.0709
  610MOL0     H82320   4.450  11.988   5.058 -0.8178  1.1255 -2.9516
  610MOL0     H82321   4.612  12.060   5.073 -0.4449 -0.1041  5.7756
  610MOL0     H82322   4.400  12.230   4.984 -0.8969  0.3452 -2.4777
  610MOL0     H82323   4.574  12.234   4.940  0.8775 -1.5165 -0.5843
  610MOL0     H82324   4.376  12.025   4.832  1.6548 -1.1836 -1.6022
  610MOL0     H82325   4.540  12.043   4.784 -2.9518 -1.9788 -3.6142
  610MOL0     H82326   4.336  12.267   4.764  0.8100  1.6336 -0.5992
  610MOL0     H82327   4.504  12.270   4.700 -0.7203 -0.5251 -2.1077
  610MOL0     H82328   4.283  12.111   4.610 -0.3604 -0.1517 -2.6439
  610MOL0     H82329   4.452  12.073   4.554  0.3882  0.7269 -1.8293
  610MOL0     H82330   4.317  12.224   4.398 -1.4601  2.2065 -0.1379
  610MOL0     H82331   4.458  12.313   4.474 -1.6869  3.1383  0.8185
  610MOL0     H82332   4.664  11.932   5.522 -1.5631  3.2685 -1.6431
  610MOL0     H82333   4.657  11.821   5.727 -1.9660  2.5953  1.6460
  610MOL0     H82334   4.434  11.729   6.185  0.2828 -0.1989  0.6783
  610MOL0     H82335   4.363  11.601   6.372 -0.6674  1.3072 -1.3989
  610MOL0     H82336   5.051   9.886   6.146  1.2045 -1.9628  1.6479
  610MOL0     H82337   5.233   9.717   6.202 -3.4263  3.0088  2.3104
  610MOL0     H82338   5.344   9.243   6.047  0.9678 -1.8455 -1.2663
  610MOL0     H82339   5.525   9.090   6.110 -2.9566 -0.3694 -1.2154
  610MOL0     H82340   5.650   9.043   6.331 -0.2780 -1.2378  1.1510
  610MOL0     H82341   5.691   8.971   6.166 -0.9821  2.5679 -0.8833
  610MOL0     H82342   5.916   8.944   6.239 -2.3214 -1.2330 -1.3767
  610MOL0     H82343   5.821   8.865   6.363 -1.2961 -0.2334  1.1162
  610MOL0     H82344   5.929   9.149   6.403 -0.2950 -1.2914 -1.7582
  610MOL0     H82345   6.029   9.017   6.448 -0.2944  1.2664  2.8175
  610MOL0     H82346   5.751   9.048   6.570  0.2106  2.8756  1.2385
  610MOL0     H82347   5.898   9.101   6.646  2.2545 -0.2310 -0.0144
  610MOL0     H82348   5.951   8.685   6.673  0.5043  0.0041  0.3512
  610MOL0     H82349   5.799   9.415   6.163  1.2167 -1.3101 -0.3982
  610MOL0     H82350   5.625   9.573   6.123 -0.2792 -0.5915 -0.9010
  611MOL0     O82351   5.874   1.692   4.994 -0.8050  0.2211 -0.3105
  611MOL0     C82352   5.955   1.608   5.039  0.0180 -1.0865 -1.1578
  611MOL0     O82353   5.970   1.570   5.171 -0.3801  0.3699  0.2338
  611MOL0     C82354   5.896   1.635   5.267 -0.1892  0.1372  0.7608
  611MOL0     C82355   5.759   1.601   5.283  0.2101 -0.2018  0.4220
  611MOL0     C82356   5.679   1.656   5.390 -0.6856 -0.2904 -0.3447
  611MOL0     C82357   5.733   1.752   5.485 -1.4686  1.2508 -0.0397
  611MOL0     O82358   5.676   1.820   5.588  0.4404  0.1819  0.1468
  611MOL0     C82359   5.533   1.831   5.602  0.2615  0.4954  0.3555
  611MOL0     C82360   5.518   1.913   5.728  0.8988  0.0767  0.5454
  611MOL0     C82361   5.590   2.051   5.743  0.8293 -0.2644  0.5898
  611MOL0     C82362   5.565   2.138   5.624 -0.1819  0.1766 -0.1941
  611MOL0     C82363   5.613   2.269   5.677  0.4837 -0.9653 -0.5614
  611MOL0     C82364   5.619   2.387   5.578  1.0542  0.5910  0.2181
  611MOL0     C82365   5.674   2.520   5.630  1.1041  0.4382 -0.3780
  611MOL0     C82366   5.613   2.582   5.759 -0.1950 -0.5272 -0.6986
  611MOL0     N82367   5.691   2.701   5.803  0.5161  0.4953 -0.1485
  611MOL0     C82368   5.649   2.822   5.759  0.3035 -0.0059  0.5969
  611MOL0     C82369   5.746   2.904   5.811 -0.4416  0.1263  0.0716
  611MOL0     C82370   5.751   3.054   5.812 -0.5886 -0.0932  0.3407
  611MOL0     C82371   5.810   3.130   5.683  0.1477  0.1910 -0.5866
  611MOL0     C82372   5.799   3.280   5.704 -0.3030 -0.1267 -0.6997
  611MOL0     C82373   5.868   3.357   5.594 -0.4058 -0.6747  0.7580
  611MOL0     O82374   5.956   3.450   5.653  0.1719 -0.9731  0.0731
  611MOL0     C82375   5.900   3.575   5.655  1.0808  0.0158  0.0568
  611MOL0     C82376   5.873   3.640   5.772 -0.6202 -0.5394 -0.3907
  611MOL0     C82377   5.832   3.773   5.778  0.2119  0.4026  0.8562
  611MOL0     C82378   5.816   3.828   5.915 -1.2486 -0.1443  0.0207
  611MOL0     C82379   5.796   3.843   5.655 -0.1085 -0.2952 -0.1346
  611MOL0     C82380   5.761   3.981   5.646  0.6474 -0.3199  0.2145
  611MOL0     O82381   5.845   4.086   5.680  0.1872 -0.7353  0.0135
  611MOL0     C82382   5.978   4.073   5.681  0.1272  0.2132  0.3959
  611MOL0     C82383   6.054   4.061   5.794 -0.1055  0.0117 -0.6997
  611MOL0     C82384   6.193   4.051   5.786  0.0595 -0.6477 -0.7017
  611MOL0     C82385   6.260   4.054   5.667 -0.3019 -0.3659 -0.8382
  611MOL0     O82386   6.396   4.053   5.674 -0.7249  0.8711 -0.3629
  611MOL0     C82387   6.471   3.953   5.607 -0.0532 -0.1634  0.3482
  611MOL0     C82388   6.566   3.887   5.697  1.1569 -0.2835  0.6185
  611MOL0     C82389   6.670   3.980   5.758 -1.0279 -0.6448  0.2506
  611MOL0     C82390   6.707   3.959   5.906 -0.5499  0.4812 -0.1400
  611MOL0     C82391   6.811   4.053   5.969 -0.1460 -0.1790  0.0937
  611MOL0     C82392   6.802   4.200   5.916  0.7871  0.8978 -0.2317
  611MOL0     C82393   6.870   4.304   6.016  0.9611  0.8656 -0.0137
  611MOL0     C82394   6.873   4.451   5.960  0.2145 -0.0784  0.4988
  611MOL0    Cl82395   6.950   4.470   5.796 -0.4796 -0.0106  0.1797
  611MOL0     C82396   6.193   4.063   5.546 -0.7751 -0.3581 -0.2500
  611MOL0     C82397   6.040   4.068   5.553  0.0777 -0.5896  0.8469
  611MOL0     O82398   5.655   3.998   5.587  0.0380 -0.2053 -0.4547
  611MOL0     C82399   5.819   3.775   5.535 -0.5285  1.1334  0.1001
  611MOL0     C82400   5.877   3.644   5.537 -0.3120 -0.1248 -0.0117
  611MOL0     N82401   5.838   2.825   5.883  0.4345 -0.6603 -0.0445
  611MOL0     N82402   5.803   2.705   5.885  1.7551 -0.2192  0.7234
  611MOL0     C82403   5.869   1.786   5.458 -0.4154  0.8235  0.3117
  611MOL0     C82404   5.950   1.720   5.356 -0.2965 -0.1439  0.0901
  611MOL0     C82405   6.051   1.543   4.945  0.1063 -0.0304  1.3699
  611MOL0     C82406   6.048   1.579   4.811 -0.0172  0.4661  0.2270
  611MOL0     C82407   6.148   1.529   4.723 -0.5927 -0.0345 -0.2230
  611MOL0     C82408   6.228   1.413   4.764  0.3861 -0.7032 -0.5232
  611MOL0     O82409   6.300   1.324   4.684  0.5476 -0.2600  1.0678
  611MOL0     C82410   6.317   1.351   4.539  1.3814  0.1959 -0.7317
  611MOL0     C82411   6.427   1.446   4.517 -0.1525  0.7697 -0.4935
  611MOL0     C82412   6.441   1.487   4.367  0.5889 -0.3834 -0.5197
  611MOL0     C82413   6.407   1.384   4.254  0.1768  0.0626  0.6990
  611MOL0     C82414   6.425   1.454   4.123  0.6273  0.4462  1.9337
  611MOL0     C82415   6.460   1.512   4.024 -0.5274 -0.3055 -0.0067
  611MOL0     C82416   6.211   1.377   4.896  0.0881  0.0740  0.1664
  611MOL0     C82417   6.136   1.443   4.989  0.7458  0.7773 -0.0572
  611MOL0     H82418   5.725   1.531   5.206  3.4739 -0.5845 -0.8082
  611MOL0     H82419   5.577   1.618   5.391 -0.5935 -0.8165  3.2867
  611MOL0     H82420   5.494   1.886   5.515  1.9002 -1.6347 -1.8522
  611MOL0     H82421   5.484   1.734   5.613  0.8666  0.0749 -0.5034
  611MOL0     H82422   5.411   1.932   5.746  0.6581 -0.5409 -0.1758
  611MOL0     H82423   5.554   1.842   5.803 -1.0837 -0.5751  0.9628
  611MOL0     H82424   5.533   2.095   5.825 -0.7712  1.0285 -1.1168
  611MOL0     H82425   5.695   2.037   5.771  0.0880 -0.5981  3.5375
  611MOL0     H82426   5.630   2.114   5.540  1.5968 -0.3146  1.2686
  611MOL0     H82427   5.460   2.145   5.592 -0.6080 -4.2510 -0.4114
  611MOL0     H82428   5.551   2.296   5.763  2.8660  0.5338  0.8110
  611MOL0     H82429   5.715   2.264   5.717 -0.0389  2.3647  1.6162
  611MOL0     H82430   5.674   2.367   5.486  3.1186  0.6891  1.3651
  611MOL0     H82431   5.512   2.401   5.556  0.3413  0.2476  3.0125
  611MOL0     H82432   5.781   2.499   5.644  0.5954 -2.0862  0.2568
  611MOL0     H82433   5.675   2.585   5.542  0.4661  0.1315 -0.6155
  611MOL0     H82434   5.604   2.510   5.840 -0.8625  0.9952  0.6360
  611MOL0     H82435   5.511   2.621   5.747  0.3865  1.6152  0.7667
  611MOL0     H82436   5.552   2.843   5.714  0.2240 -0.6450  0.4630
  611MOL0     H82437   5.651   3.095   5.829 -0.9829 -0.6794 -0.5102
  611MOL0     H82438   5.815   3.088   5.894 -1.8368  2.4666  0.3479
  611MOL0     H82439   5.764   3.098   5.589  1.9113  0.7670 -1.7117
  611MOL0     H82440   5.915   3.102   5.668  0.0087 -0.9442  0.3898
  611MOL0     H82441   5.847   3.306   5.800  1.3521  2.3464 -2.0588
  611MOL0     H82442   5.697   3.316   5.721  0.2085  0.7994  0.6310
  611MOL0     H82443   5.795   3.403   5.527  1.5429  1.1007 -0.2800
  611MOL0     H82444   5.923   3.285   5.532  2.9767  1.8753  0.4624
  611MOL0     H82445   5.891   3.584   5.863  2.6615 -0.2052 -0.7246
  611MOL0     H82446   5.859   3.929   5.910 -0.0147 -0.5049  2.1365
  611MOL0     H82447   5.710   3.834   5.942 -1.1617 -2.3662  1.0618
  611MOL0     H82448   5.884   3.779   5.986  1.4872  2.2945 -0.6950
  611MOL0     H82449   6.015   4.075   5.894  0.4822 -0.4372 -0.4018
  611MOL0     H82450   6.252   4.056   5.877 -1.7456 -4.1523  0.8579
  611MOL0     H82451   6.408   3.876   5.562  0.2176 -0.6738  0.8300
  611MOL0     H82452   6.518   4.003   5.522  0.5804  1.2876  1.5022
  611MOL0     H82453   6.505   3.840   5.774 -0.1960  1.3749  0.6313
  611MOL0     H82454   6.629   3.815   5.644  0.2204  0.4924 -1.6676
  611MOL0     H82455   6.642   4.084   5.742  1.0076  1.0818  5.6053
  611MOL0     H82456   6.760   3.956   5.701 -0.2517  0.9910  0.7134
  611MOL0     H82457   6.615   3.978   5.961  0.6726  0.0760  2.1630
  611MOL0     H82458   6.746   3.860   5.933  0.3740  1.2608  1.5020
  611MOL0     H82459   6.914   4.020   5.958 -0.5813 -1.0224 -1.8099
  611MOL0     H82460   6.797   4.053   6.077  2.2945 -2.3427  0.4967
  611MOL0     H82461   6.841   4.209   5.814 -2.1395  0.7293 -1.4411
  611MOL0     H82462   6.695   4.220   5.910  0.3673 -0.6841  1.2115
  611MOL0     H82463   6.975   4.286   6.039  0.8320 -0.8292 -0.6339
  611MOL0     H82464   6.818   4.299   6.112 -0.3983 -2.8335 -0.7824
  611MOL0     H82465   6.938   4.513   6.023  0.7874 -1.8710  1.7403
  611MOL0     H82466   6.769   4.483   5.959  0.5482  1.1761  1.6825
  611MOL0     H82467   6.260   4.072   5.462  3.8752  2.4598  3.2801
  611MOL0     H82468   5.977   4.071   5.465  1.0151  1.8464  0.1771
  611MOL0     H82469   5.800   3.820   5.438  1.2216  0.9024 -0.3888
  611MOL0     H82470   5.907   3.587   5.450 -1.0131  1.4114 -1.3041
  611MOL0     H82471   5.909   1.873   5.508  2.0862  0.6023 -1.1805
  611MOL0     H82472   6.046   1.765   5.333 -2.4779  2.3949 -5.9977
  611MOL0     H82473   5.987   1.654   4.763  5.0624  3.3825 -2.4470
  611MOL0     H82474   6.146   1.574   4.624  0.0815 -0.5613 -0.4874
  611MOL0     H82475   6.341   1.254   4.493 -0.4617  0.3503 -2.1536
  611MOL0     H82476   6.223   1.384   4.494  0.7898 -0.7396 -0.2273
  611MOL0     H82477   6.519   1.400   4.553 -1.2458  0.7855  2.6133
  611MOL0     H82478   6.400   1.539   4.568 -4.6000  1.4447 -3.4550
  611MOL0     H82479   6.545   1.515   4.350  0.5292  0.7854  0.8226
  611MOL0     H82480   6.385   1.579   4.348  1.6077  0.1157 -1.1829
  611MOL0     H82481   6.308   1.338   4.262  0.5644 -0.7084  1.1302
  611MOL0     H82482   6.481   1.305   4.274 -2.1057 -1.9448  1.7671
  611MOL0     H82483   6.491   1.555   3.931 -1.4421 -0.6986 -0.5110
  611MOL0     H82484   6.274   1.294   4.925  0.2084 -0.4675 -1.5400
  611MOL0     H82485   6.134   1.397   5.087 -1.8194  0.6674 -0.0782
  612MOL0     O82486   5.724   5.429   8.304  0.5012 -0.3079  0.6868
  612MOL0     C82487   5.728   5.437   8.428  0.8650 -0.6415  0.3137
  612MOL0     O82488   5.638   5.505   8.500 -0.1730 -0.6582 -0.1265
  612MOL0     C82489   5.531   5.568   8.443  0.6805 -0.4883  0.6608
  612MOL0     C82490   5.528   5.656   8.332 -0.1310 -0.2055 -0.6156
  612MOL0     C82491   5.416   5.740   8.302  0.9760  0.5025 -0.1551
  612MOL0     C82492   5.290   5.714   8.359 -0.4579 -0.4489 -0.2713
  612MOL0     O82493   5.168   5.764   8.316  0.5056  0.7216  0.2918
  612MOL0     C82494   5.160   5.912   8.323 -0.0878  0.0205  0.9826
  612MOL0     C82495   5.034   5.987   8.275 -0.1439  0.7831 -0.3770
  612MOL0     C82496   4.907   5.978   8.363 -0.4502 -0.2636  0.4924
  612MOL0     C82497   4.807   6.084   8.306 -0.3247  0.5828  0.0209
  612MOL0     C82498   4.656   6.076   8.349 -1.2458  0.0461 -0.0258
  612MOL0     C82499   4.590   5.950   8.305 -1.0884  0.3814  0.8816
  612MOL0     C82500   4.447   5.950   8.344 -0.2814  0.0716 -0.9012
  612MOL0     C82501   4.352   6.025   8.252 -0.0007 -0.7592  0.4286
  612MOL0     N82502   4.319   5.941   8.133  0.6455  0.3272 -0.1415
  612MOL0     C82503   4.396   5.929   8.017 -0.2450 -0.8917  0.2115
  612MOL0     C82504   4.330   5.835   7.945  0.3134  0.1750 -0.1082
  612MOL0     C82505   4.353   5.773   7.803 -0.0172  0.3868 -0.0613
  612MOL0     C82506   4.488   5.801   7.735  0.5566  0.0051  0.1085
  612MOL0     C82507   4.487   5.744   7.591 -0.2496 -0.0263  0.3656
  612MOL0     C82508   4.625   5.765   7.532  0.0342 -0.0847  0.4745
  612MOL0     O82509   4.654   5.904   7.511  0.0552  0.2015  0.1779
  612MOL0     C82510   4.789   5.943   7.477  0.8089  0.1548 -0.3964
  612MOL0     C82511   4.892   5.848   7.460 -0.3321  0.4268  0.2598
  612MOL0     C82512   5.024   5.890   7.432  1.1815  0.1590 -0.8484
  612MOL0     C82513   5.129   5.782   7.418 -0.2734 -0.0641 -0.7813
  612MOL0     C82514   5.056   6.026   7.444  0.3126 -0.6624 -0.3574
  612MOL0     C82515   5.198   6.090   7.446 -0.4595 -0.0215 -0.0081
  612MOL0     O82516   5.301   6.003   7.457 -0.0747  0.1744  1.7030
  612MOL0     C82517   5.428   6.043   7.435  0.7504 -0.9771 -0.8633
  612MOL0     C82518   5.493   6.110   7.533 -0.5088  0.3058 -0.5303
  612MOL0     C82519   5.633   6.142   7.519  0.2750 -0.6430 -1.2120
  612MOL0     C82520   5.697   6.115   7.406  0.0472  0.1035 -0.1987
  612MOL0     O82521   5.837   6.125   7.401  0.1707  0.4326  0.4888
  612MOL0     C82522   5.884   6.207   7.296 -0.5752  0.3463  0.0099
  612MOL0     C82523   6.035   6.223   7.315  0.0797 -0.7799 -0.2921
  612MOL0     C82524   6.085   6.323   7.205  0.1543 -0.6073 -0.2133
  612MOL0     C82525   6.029   6.466   7.201  0.2884 -0.0088 -0.6735
  612MOL0     C82526   6.095   6.564   7.114  0.0548 -0.6362  0.5338
  612MOL0     C82527   6.000   6.680   7.097  0.0250 -0.4840  0.4262
  612MOL0     C82528   6.075   6.801   7.038 -0.0753  0.5628  0.3533
  612MOL0     C82529   5.982   6.909   6.989  0.4629 -0.2397 -0.2591
  612MOL0    Cl82530   6.069   7.061   6.956  0.0170 -0.3559 -0.0338
  612MOL0     C82531   5.627   6.067   7.296  0.3869  0.5832  0.3420
  612MOL0     C82532   5.494   6.029   7.315  0.0939  1.2706  0.4097
  612MOL0     O82533   5.214   6.207   7.452  0.3233 -0.0346 -0.7161
  612MOL0     C82534   4.955   6.122   7.441  0.7195  0.5334 -0.0430
  612MOL0     C82535   4.821   6.083   7.471 -0.2404  0.6616 -0.5443
  612MOL0     N82536   4.209   5.807   8.017 -0.4991 -0.5499  0.2867
  612MOL0     N82537   4.205   5.872   8.129 -0.0623  0.1751 -0.2014
  612MOL0     C82538   5.289   5.622   8.460 -0.5943 -1.1396 -0.3178
  612MOL0     C82539   5.405   5.553   8.506  0.3254  0.6650 -0.5661
  612MOL0     C82540   5.827   5.350   8.492 -0.4783  0.5127  0.9403
  612MOL0     C82541   5.946   5.301   8.432 -0.9830 -0.7414  1.0006
  612MOL0     C82542   6.039   5.218   8.500  0.2956 -0.3976 -0.0780
  612MOL0     C82543   5.998   5.181   8.633  0.1716 -0.4702 -0.2528
  612MOL0     O82544   6.070   5.085   8.699  0.2173  0.1533 -0.7935
  612MOL0     C82545   6.217   5.093   8.695 -0.1200  0.1858  0.1248
  612MOL0     C82546   6.283   4.979   8.778  1.1362 -0.0578  0.3547
  612MOL0     C82547   6.255   4.833   8.733 -0.3310  0.0683 -0.5908
  612MOL0     C82548   6.336   4.717   8.788 -0.5979 -0.4648  0.2350
  612MOL0     C82549   6.473   4.724   8.753 -0.0174 -0.5553 -0.0839
  612MOL0     C82550   6.587   4.716   8.714  0.5740 -0.4615 -0.0057
  612MOL0     C82551   5.877   5.221   8.688 -1.2080  0.5342  0.6417
  612MOL0     C82552   5.798   5.311   8.620 -0.4859 -0.2151  0.2498
  612MOL0     H82553   5.611   5.680   8.266 -0.0769  1.3259 -0.0284
  612MOL0     H82554   5.415   5.808   8.217 -2.9090 -1.8485 -2.2668
  612MOL0     H82555   5.195   5.955   8.417  1.6701 -0.2776  0.4927
  612MOL0     H82556   5.242   5.946   8.259 -0.1349  0.1588  0.9946
  612MOL0     H82557   5.062   6.090   8.250 -0.4224  1.3117  1.3216
  612MOL0     H82558   5.006   5.936   8.183  0.9812 -2.4696  0.9286
  612MOL0     H82559   4.873   5.874   8.354 -3.6368  0.6763  0.3930
  612MOL0     H82560   4.923   6.008   8.467  2.4239  2.2874 -0.5405
  612MOL0     H82561   4.842   6.180   8.343  0.5612  0.3082 -0.0852
  612MOL0     H82562   4.797   6.078   8.197  2.7393 -0.3480 -0.3052
  612MOL0     H82563   4.658   6.072   8.458 -1.6193 -2.7136 -0.0450
  612MOL0     H82564   4.605   6.165   8.312 -0.1494 -0.2868 -2.5766
  612MOL0     H82565   4.582   5.934   8.197 -3.3302  1.0711  0.8926
  612MOL0     H82566   4.646   5.862   8.341  1.6311  0.2663 -3.0293
  612MOL0     H82567   4.409   5.847   8.341 -2.1900  0.7640 -2.3107
  612MOL0     H82568   4.430   5.998   8.441  0.6761  3.2551 -2.1998
  612MOL0     H82569   4.383   6.126   8.223  1.2585 -0.5410  2.3042
  612MOL0     H82570   4.258   6.027   8.307 -0.0649 -3.5348  0.5265
  612MOL0     H82571   4.490   5.979   7.994 -1.0528  2.2172  2.9612
  612MOL0     H82572   4.358   5.664   7.811 -2.2006 -0.7862 -7.2194
  612MOL0     H82573   4.276   5.811   7.735  1.9307  3.0044 -0.9803
  612MOL0     H82574   4.571   5.759   7.792  0.5930 -0.0374  0.0252
  612MOL0     H82575   4.502   5.909   7.740  0.2961  0.0258  0.4554
  612MOL0     H82576   4.416   5.806   7.536 -0.2035 -0.4400 -0.1635
  612MOL0     H82577   4.442   5.645   7.605 -5.7087  2.1528  0.7745
  612MOL0     H82578   4.605   5.712   7.438  1.9873 -2.7264  1.4518
  612MOL0     H82579   4.696   5.706   7.590  0.9415  0.3490 -0.1752
  612MOL0     H82580   4.855   5.747   7.451  0.3784  0.3051 -2.4936
  612MOL0     H82581   5.191   5.795   7.328  1.5875  0.9554  0.5773
  612MOL0     H82582   5.195   5.779   7.505 -0.3516  1.2459 -0.6561
  612MOL0     H82583   5.087   5.683   7.398 -0.3641 -0.1425 -0.2005
  612MOL0     H82584   5.442   6.138   7.625 -0.0433  1.6879 -0.6609
  612MOL0     H82585   5.688   6.173   7.607 -0.5775  0.8463 -1.1713
  612MOL0     H82586   5.868   6.159   7.199 -2.2659 -0.5261  0.6843
  612MOL0     H82587   5.845   6.309   7.298  0.8079  0.9161 -0.3565
  612MOL0     H82588   6.057   6.269   7.412  1.3357 -0.1993 -0.8262
  612MOL0     H82589   6.087   6.127   7.317  2.0750  0.2343 -0.6744
  612MOL0     H82590   6.073   6.279   7.105  3.9273 -2.1207 -0.1720
  612MOL0     H82591   6.193   6.331   7.218  0.6595 -0.8581 -3.3628
  612MOL0     H82592   5.924   6.463   7.168 -0.3727  0.2901  1.2826
  612MOL0     H82593   6.028   6.504   7.303 -3.7612  0.3154 -0.6811
  612MOL0     H82594   6.129   6.525   7.017 -0.7310  1.1710 -0.5263
  612MOL0     H82595   6.192   6.595   7.154  1.3202  1.5711 -3.6015
  612MOL0     H82596   5.913   6.663   7.032 -0.5019  1.9216  0.3908
  612MOL0     H82597   5.966   6.715   7.195 -0.1896 -0.4870  0.3533
  612MOL0     H82598   6.140   6.767   6.957 -0.8941 -1.6828  0.5738
  612MOL0     H82599   6.122   6.844   7.127 -0.0608  2.9088 -0.7139
  612MOL0     H82600   5.908   6.919   7.070 -0.0341 -1.4640 -0.5297
  612MOL0     H82601   5.937   6.869   6.898  2.1804 -1.2601 -0.7119
  612MOL0     H82602   5.674   6.064   7.198 -0.1057  0.2956  0.1136
  612MOL0     H82603   5.436   5.980   7.237  0.5019  1.0914  0.2164
  612MOL0     H82604   4.963   6.230   7.445  1.4465  0.6771 -2.8954
  612MOL0     H82605   4.746   6.161   7.485 -2.3044 -1.2179 -0.4571
  612MOL0     H82606   5.196   5.597   8.511 -0.1970 -1.6962  0.1620
  612MOL0     H82607   5.400   5.490   8.595  2.5496  0.2055 -0.7168
  612MOL0     H82608   5.979   5.336   8.335 -1.7003  0.5305  1.1889
  612MOL0     H82609   6.132   5.189   8.451 -0.4041  1.6096 -2.8435
  612MOL0     H82610   6.247   5.079   8.591  0.7251  3.1382 -0.1346
  612MOL0     H82611   6.262   5.183   8.737  0.2073  0.4759 -0.8174
  612MOL0     H82612   6.256   4.985   8.884  1.0946 -1.5075  0.4446
  612MOL0     H82613   6.391   4.993   8.770  0.8805  1.8623 -0.2707
  612MOL0     H82614   6.272   4.832   8.624 -0.1300  2.6465 -0.6412
  612MOL0     H82615   6.151   4.810   8.758 -0.5515  2.2677  0.8032
  612MOL0     H82616   6.302   4.619   8.756  1.4537 -0.6971 -1.4576
  612MOL0     H82617   6.323   4.720   8.897  1.5484 -0.0758  0.5326
  612MOL0     H82618   6.692   4.703   8.694  0.6387  0.0629 -0.0061
  612MOL0     H82619   5.846   5.175   8.782  1.3493 -3.6968 -0.3167
  612MOL0     H82620   5.699   5.343   8.649 -0.8531 -0.4063 -0.7496
  613MOL0     O82621   7.351   0.410   0.217 -0.4583 -0.5824 -0.4024
  613MOL0     C82622   7.302   0.411   0.102 -0.5071 -0.0308  0.2867
  613MOL0     O82623   7.273   0.524   0.020 -0.0649 -0.1902 -0.6679
  613MOL0     C82624   7.313   0.653   0.041 -0.2659  0.7037 -0.2403
  613MOL0     C82625   7.271   0.749  -0.051 -0.6228  0.3041  0.0939
  613MOL0     C82626   7.303   0.886  -0.029  0.9434 -0.0459  0.6107
  613MOL0     C82627   7.382   0.922   0.075  0.0035 -0.0361  0.1453
  613MOL0     O82628   7.419   1.055   0.086 -0.1853  0.1908  0.7698
  613MOL0     C82629   7.511   1.093   0.192 -0.0063 -0.6448  0.4514
  613MOL0     C82630   7.651   1.075   0.147  0.3771  0.9673  0.0298
  613MOL0     C82631   7.752   1.126   0.244  0.2551  1.0009 -0.6886
  613MOL0     C82632   7.898   1.118   0.194  0.2513  0.2004  0.2606
  613MOL0     C82633   7.916   1.179   0.054 -0.7021  0.3389 -0.0513
  613MOL0     C82634   8.065   1.202   0.015 -0.6880 -0.8662  0.5053
  613MOL0     C82635   8.077   1.249  -0.133 -0.4158 -0.5290  0.7129
  613MOL0     C82636   8.036   1.397  -0.158 -0.3487 -0.2366  0.5458
  613MOL0     N82637   8.101   1.456  -0.280  0.3058 -0.0369  0.2782
  613MOL0     C82638   8.047   1.449  -0.406 -0.2637 -0.4372  1.4858
  613MOL0     C82639   8.151   1.480  -0.486 -0.4718 -0.2443 -0.1257
  613MOL0     C82640   8.137   1.452  -0.629  0.6570 -1.2029 -0.1003
  613MOL0     C82641   8.132   1.590  -0.698 -0.4415  0.3663 -0.1389
  613MOL0     C82642   8.273   1.657  -0.715  0.7299 -0.4542  0.9638
  613MOL0     C82643   8.274   1.807  -0.706  0.3905 -0.3839 -0.6106
  613MOL0     O82644   8.168   1.873  -0.772  0.2249  0.3535 -0.1190
  613MOL0     C82645   8.152   2.004  -0.732 -0.3216 -0.4533  0.4901
  613MOL0     C82646   8.032   2.055  -0.781  0.4332 -1.0974 -1.0607
  613MOL0     C82647   8.008   2.195  -0.760  0.7363  0.1138 -0.6784
  613MOL0     C82648   7.885   2.255  -0.820  0.5203 -0.5381  0.6733
  613MOL0     C82649   8.100   2.277  -0.694 -0.1922 -0.1011 -1.0096
  613MOL0     C82650   8.075   2.425  -0.660  0.0614 -0.1272  0.0003
  613MOL0     O82651   8.161   2.479  -0.563  0.9150  0.3883 -0.7517
  613MOL0     C82652   8.164   2.620  -0.544  0.3334 -0.2981 -0.2213
  613MOL0     C82653   8.283   2.660  -0.494 -0.5494 -1.1043 -0.6413
  613MOL0     C82654   8.317   2.794  -0.461 -0.2756  1.0014  0.3631
  613MOL0     C82655   8.217   2.891  -0.473 -0.1436  0.5598 -0.0618
  613MOL0     O82656   8.241   3.024  -0.468 -0.0848  0.0569  0.3198
  613MOL0     C82657   8.371   3.073  -0.440 -0.0680  0.7301 -0.4654
  613MOL0     C82658   8.395   3.079  -0.286  0.3871 -0.2205  0.6840
  613MOL0     C82659   8.289   3.166  -0.217 -0.9105  0.3069 -0.2771
  613MOL0     C82660   8.308   3.162  -0.066  0.0840  0.0726 -0.2643
  613MOL0     C82661   8.407   3.258  -0.010 -1.1735 -0.0052  0.3389
  613MOL0     C82662   8.409   3.410  -0.061 -0.5552  0.7161  0.0462
  613MOL0     C82663   8.521   3.487   0.006  1.2225  0.1068 -0.1086
  613MOL0     C82664   8.657   3.458  -0.054 -0.9800  0.5812  0.7734
  613MOL0    Cl82665   8.780   3.582  -0.013 -0.2175  0.0327 -0.1549
  613MOL0     C82666   8.097   2.853  -0.528 -0.6133  0.3748  0.7436
  613MOL0     C82667   8.056   2.713  -0.543 -0.4589 -0.0012 -0.3205
  613MOL0     O82668   7.999   2.492  -0.731  0.6196  0.7851  0.0045
  613MOL0     C82669   8.212   2.219  -0.639 -0.7049 -0.2823  0.5946
  613MOL0     C82670   8.241   2.082  -0.661 -0.1253 -0.8671 -0.1875
  613MOL0     N82671   8.262   1.506  -0.405 -0.6307  0.0341 -0.3888
  613MOL0     N82672   8.229   1.496  -0.282  0.3134  0.8749 -0.5030
  613MOL0     C82673   7.436   0.825   0.161  0.3113  0.1262  0.5133
  613MOL0     C82674   7.397   0.691   0.145 -0.5432 -0.6947  0.0141
  613MOL0     C82675   7.283   0.278   0.034 -1.0198 -0.7523 -0.3633
  613MOL0     C82676   7.179   0.259  -0.058  0.7300 -0.7225 -0.5310
  613MOL0     C82677   7.169   0.142  -0.130 -0.3047 -0.5850  0.7925
  613MOL0     C82678   7.253   0.035  -0.098 -0.0695  0.0111  0.1887
  613MOL0     O82679   7.257  -0.093  -0.155  0.2004  0.3631  0.7077
  613MOL0     C82680   7.178  -0.116  -0.272  0.4600  0.0537 -0.1151
  613MOL0     C82681   7.207  -0.031  -0.395  0.0785  0.7706 -0.3698
  613MOL0     C82682   7.346  -0.052  -0.454  0.3683  0.2901 -0.1361
  613MOL0     C82683   7.360   0.002  -0.598  0.2525  0.5216 -0.6224
  613MOL0     C82684   7.504   0.018  -0.617 -1.4320 -0.3494 -0.2100
  613MOL0     C82685   7.625   0.041  -0.617 -0.0934 -0.8632 -0.6281
  613MOL0     C82686   7.347   0.053   0.001  0.7873  0.1246 -0.5714
  613MOL0     C82687   7.364   0.169   0.072 -0.0950 -0.5886 -0.5040
  613MOL0     H82688   7.208   0.725  -0.135 -2.0559  2.2537  0.5424
  613MOL0     H82689   7.267   0.966  -0.093  0.8416  0.1772  0.9456
  613MOL0     H82690   7.484   1.199   0.201  0.9119 -0.1877 -1.6069
  613MOL0     H82691   7.489   1.051   0.291  3.9779  3.1966  3.3567
  613MOL0     H82692   7.671   0.972   0.117 -0.2266  0.9272 -0.2525
  613MOL0     H82693   7.656   1.139   0.059 -1.2087  1.7433  0.4683
  613MOL0     H82694   7.739   1.231   0.273  0.4686  0.4975  1.3558
  613MOL0     H82695   7.744   1.079   0.342  1.1310  2.7391  0.2580
  613MOL0     H82696   7.966   1.181   0.253 -0.3800  0.0125  1.1937
  613MOL0     H82697   7.939   1.017   0.199 -1.5115 -0.5999 -0.5126
  613MOL0     H82698   7.865   1.113  -0.017 -1.9580  1.0262  0.1864
  613MOL0     H82699   7.851   1.266   0.041 -1.0686 -0.1497 -1.7466
  613MOL0     H82700   8.110   1.292   0.058 -1.1324  0.9589 -2.5383
  613MOL0     H82701   8.123   1.111   0.036 -0.8388 -0.7197  1.5852
  613MOL0     H82702   8.184   1.251  -0.156  0.2775  1.7941  3.4696
  613MOL0     H82703   8.029   1.180  -0.202  3.7526 -0.9633 -2.1530
  613MOL0     H82704   8.073   1.455  -0.073 -0.9476  0.9772 -0.0035
  613MOL0     H82705   7.928   1.408  -0.152 -0.6246 -1.9065 -0.5274
  613MOL0     H82706   7.954   1.399  -0.430 -1.1568  1.5860  0.4628
  613MOL0     H82707   8.215   1.391  -0.675  0.3353 -1.3508 -0.4532
  613MOL0     H82708   8.043   1.402  -0.652 -0.3666 -1.0454  3.1323
  613MOL0     H82709   8.061   1.653  -0.644  1.5554  1.9096  0.8158
  613MOL0     H82710   8.088   1.583  -0.798  0.8141 -0.2462 -0.6820
  613MOL0     H82711   8.307   1.636  -0.817  0.6673  2.0181  0.3761
  613MOL0     H82712   8.352   1.615  -0.653 -1.5884 -3.4590  2.1106
  613MOL0     H82713   8.369   1.834  -0.752  0.9715 -1.4923 -0.0868
  613MOL0     H82714   8.279   1.844  -0.604  0.6224  2.8410 -1.6871
  613MOL0     H82715   7.970   1.991  -0.842 -1.8887 -0.6745  0.7055
  613MOL0     H82716   7.899   2.341  -0.886 -0.7337 -0.2544  0.7569
  613MOL0     H82717   7.831   2.177  -0.875  2.5850 -1.6261  0.0798
  613MOL0     H82718   7.817   2.290  -0.742  0.1110 -0.2747  0.2038
  613MOL0     H82719   8.368   2.594  -0.504  0.4454  0.2885 -1.7176
  613MOL0     H82720   8.418   2.811  -0.424 -0.6630 -0.5056  2.2600
  613MOL0     H82721   8.440   3.013  -0.499 -0.1073  2.0747 -1.9381
  613MOL0     H82722   8.386   3.174  -0.478  0.7622 -0.0349 -2.2629
  613MOL0     H82723   8.393   2.979  -0.241  4.4698 -0.4822  0.6316
  613MOL0     H82724   8.493   3.115  -0.254 -0.4420  1.2422  1.7489
  613MOL0     H82725   8.184   3.137  -0.231 -0.8998  0.8421 -1.7084
  613MOL0     H82726   8.300   3.269  -0.253  2.2534 -0.0310 -0.5251
  613MOL0     H82727   8.216   3.190  -0.014  1.7499  2.4631  1.6157
  613MOL0     H82728   8.331   3.058  -0.039  0.8100  0.0866 -0.7871
  613MOL0     H82729   8.505   3.214  -0.031 -0.6917  1.8021 -1.5506
  613MOL0     H82730   8.405   3.249   0.099  0.3264 -4.5753  0.2162
  613MOL0     H82731   8.423   3.413  -0.169  3.7934  2.5331  0.4568
  613MOL0     H82732   8.315   3.462  -0.039 -0.7170  1.1185 -1.4619
  613MOL0     H82733   8.517   3.467   0.114  0.4769  3.8655  0.6759
  613MOL0     H82734   8.503   3.595   0.006 -0.5541 -0.1510 -0.5644
  613MOL0     H82735   8.656   3.453  -0.164 -0.9643  2.9425  0.5954
  613MOL0     H82736   8.693   3.358  -0.029 -0.4781  0.6668  0.4298
  613MOL0     H82737   8.021   2.929  -0.539 -2.7026 -1.4540  1.8207
  613MOL0     H82738   7.955   2.676  -0.560  0.3880 -1.0670 -4.1001
  613MOL0     H82739   8.269   2.278  -0.567 -1.3412 -0.4414  1.2368
  613MOL0     H82740   8.335   2.044  -0.623  0.0108 -2.0291 -1.6025
  613MOL0     H82741   7.504   0.854   0.241  1.8134 -1.1513 -0.2537
  613MOL0     H82742   7.426   0.616   0.218 -1.7754  1.3809  2.8384
  613MOL0     H82743   7.116   0.343  -0.082  0.4356 -0.3017  1.5113
  613MOL0     H82744   7.081   0.139  -0.194 -1.5663 -0.2087  2.4390
  613MOL0     H82745   7.193  -0.221  -0.297 -0.8530 -0.3740  0.7875
  613MOL0     H82746   7.072  -0.095  -0.255  1.0305  2.1722  1.2545
  613MOL0     H82747   7.191   0.076  -0.379  0.1659  0.4729  2.0096
  613MOL0     H82748   7.147  -0.063  -0.481  3.3775 -1.0837 -2.1734
  613MOL0     H82749   7.354  -0.160  -0.470 -1.9403 -0.0272  0.5048
  613MOL0     H82750   7.415  -0.006  -0.383 -1.3293 -1.2395  2.7109
  613MOL0     H82751   7.310   0.097  -0.615  0.3928  0.2969 -2.4119
  613MOL0     H82752   7.318  -0.071  -0.668  2.2639 -0.9711 -0.3690
  613MOL0     H82753   7.730   0.059  -0.609 -0.0042 -2.1600  2.9924
  613MOL0     H82754   7.415  -0.030   0.019  0.4171 -0.1614 -0.5029
  613MOL0     H82755   7.444   0.177   0.145 -1.0496 -1.9389  0.7333
  614MOL0     O82756   6.982   1.389   2.056  0.3789 -0.6607 -0.2207
  614MOL0     C82757   6.896   1.468   2.092 -1.2329 -0.5447 -0.2161
  614MOL0     O82758   6.806   1.438   2.186  0.3039 -0.0654  0.2213
  614MOL0     C82759   6.774   1.307   2.214 -0.0491 -0.5044  0.3855
  614MOL0     C82760   6.762   1.209   2.115 -0.1846  0.0342 -0.1982
  614MOL0     C82761   6.717   1.082   2.148  1.2480 -0.0205 -0.7402
  614MOL0     C82762   6.675   1.052   2.280  1.2970 -0.8519 -0.1298
  614MOL0     O82763   6.623   0.937   2.340  0.6252  0.2805  0.3840
  614MOL0     C82764   6.588   0.837   2.240  0.4388 -0.0474  0.1991
  614MOL0     C82765   6.527   0.702   2.314 -0.1887  0.2417  0.0424
  614MOL0     C82766   6.622   0.580   2.324 -0.0402  0.5849 -0.0639
  614MOL0     C82767   6.532   0.460   2.340  0.2857  0.1298 -0.4175
  614MOL0     C82768   6.604   0.329   2.328 -0.3961 -0.3850  1.0731
  614MOL0     C82769   6.502   0.211   2.324 -0.0630  0.6448  0.7655
  614MOL0     C82770   6.571   0.076   2.291  0.4272  0.5822 -0.0613
  614MOL0     C82771   6.477  -0.033   2.337  0.0761 -0.4152  0.2048
  614MOL0     N82772   6.552  -0.158   2.312 -0.1749  0.2467 -0.5141
  614MOL0     C82773   6.530  -0.244   2.209 -0.0582 -0.0173  0.1552
  614MOL0     C82774   6.609  -0.354   2.229  0.2356 -0.1819  0.5302
  614MOL0     C82775   6.633  -0.475   2.140  0.7384 -0.5980  0.9487
  614MOL0     C82776   6.743  -0.569   2.192  0.2212  0.3752 -0.3236
  614MOL0     C82777   6.730  -0.607   2.349 -0.0220 -0.2965 -0.6678
  614MOL0     C82778   6.817  -0.733   2.368 -0.3425 -0.0320  1.0670
  614MOL0     O82779   6.781  -0.845   2.286  0.6811  0.2631 -1.0450
  614MOL0     C82780   6.859  -0.961   2.290 -0.7075 -0.0817 -0.7953
  614MOL0     C82781   6.921  -1.012   2.181 -0.4786 -0.1257 -0.2501
  614MOL0     C82782   7.007  -1.125   2.186 -0.6404 -0.4437  1.2587
  614MOL0     C82783   7.065  -1.161   2.056  0.9396 -0.0235 -0.0015
  614MOL0     C82784   7.025  -1.195   2.311 -0.0729  0.3215 -0.3798
  614MOL0     C82785   7.105  -1.323   2.325  1.0155  0.5050 -1.2125
  614MOL0     O82786   7.199  -1.364   2.236 -0.2198  0.7955  0.7822
  614MOL0     C82787   7.249  -1.493   2.231  0.1489 -0.3396  1.4036
  614MOL0     C82788   7.345  -1.560   2.310 -0.3412  0.1135 -1.5308
  614MOL0     C82789   7.397  -1.682   2.270 -0.2111 -0.2858  0.2536
  614MOL0     C82790   7.346  -1.741   2.152  0.5959  1.0435 -0.1983
  614MOL0     O82791   7.372  -1.870   2.111  0.1847  0.1308  0.1510
  614MOL0     C82792   7.507  -1.916   2.107 -1.0454  0.2812  0.4227
  614MOL0     C82793   7.520  -2.072   2.106 -1.2540 -0.4651  0.7986
  614MOL0     C82794   7.668  -2.121   2.088  0.6214 -0.0208  0.1707
  614MOL0     C82795   7.683  -2.266   2.042 -0.6309  0.5170 -0.1744
  614MOL0     C82796   7.626  -2.367   2.152  0.4228 -0.4523 -0.1547
  614MOL0     C82797   7.724  -2.386   2.267 -0.2669  0.8609 -0.1865
  614MOL0     C82798   7.834  -2.483   2.225  0.6373  0.6683  0.2607
  614MOL0     C82799   7.942  -2.505   2.320  0.2294  0.1589  1.1260
  614MOL0    Cl82800   8.047  -2.354   2.305  0.4209  0.2448  0.1097
  614MOL0     C82801   7.244  -1.688   2.073 -0.0554 -0.8693 -1.3458
  614MOL0     C82802   7.199  -1.564   2.117 -0.0467  0.5225 -0.6915
  614MOL0     O82803   7.083  -1.382   2.433 -0.2145  0.3694 -0.4209
  614MOL0     C82804   6.953  -1.144   2.418 -0.9075 -0.4762  0.4056
  614MOL0     C82805   6.879  -1.024   2.413  0.1102  0.0402 -0.8668
  614MOL0     N82806   6.660  -0.329   2.351 -0.7141  1.0923  0.0019
  614MOL0     N82807   6.633  -0.221   2.403 -0.1086 -0.6204  0.7042
  614MOL0     C82808   6.695   1.151   2.379 -0.2024 -0.0528  0.0929
  614MOL0     C82809   6.737   1.282   2.345  0.5168 -0.7312  0.1047
  614MOL0     C82810   6.903   1.596   2.024 -0.7323  0.9429  0.6093
  614MOL0     C82811   7.001   1.621   1.916  0.4928 -0.4612 -0.9223
  614MOL0     C82812   7.010   1.744   1.860 -1.1459 -0.3799  0.7332
  614MOL0     C82813   6.934   1.852   1.901  0.1606  0.2520 -0.1026
  614MOL0     O82814   6.954   1.976   1.854  0.0721 -1.0384 -0.1384
  614MOL0     C82815   7.045   2.004   1.752 -0.6794  0.2281 -0.4006
  614MOL0     C82816   7.041   2.159   1.739 -0.3740  0.3975 -0.4667
  614MOL0     C82817   7.136   2.204   1.631 -0.0223 -0.3448  0.6320
  614MOL0     C82818   7.116   2.354   1.587 -0.0513  0.3686  0.0728
  614MOL0     C82819   6.985   2.398   1.539  0.4799  1.4671  0.4953
  614MOL0     C82820   6.881   2.439   1.505  1.4288 -0.4440  0.3688
  614MOL0     C82821   6.843   1.826   2.005  0.2912  0.3166 -0.0063
  614MOL0     C82822   6.824   1.704   2.060  0.8859 -0.5327 -0.0042
  614MOL0     H82823   6.786   1.220   2.010 -2.1225 -0.4800 -0.7261
  614MOL0     H82824   6.719   1.004   2.073 -2.8221  0.0833 -1.2189
  614MOL0     H82825   6.517   0.878   2.168  1.1876 -2.4050 -2.0325
  614MOL0     H82826   6.677   0.810   2.183  0.5005  1.1070 -0.2835
  614MOL0     H82827   6.496   0.729   2.416 -0.9719 -0.7902  0.0926
  614MOL0     H82828   6.435   0.673   2.262  1.8042 -4.9584 -1.2306
  614MOL0     H82829   6.683   0.570   2.234 -2.2924 -0.3424 -1.5732
  614MOL0     H82830   6.687   0.589   2.412  0.2754  1.0425 -0.3395
  614MOL0     H82831   6.473   0.465   2.432  1.3317  1.4079  0.2168
  614MOL0     H82832   6.458   0.462   2.260 -0.4785  0.6305  0.2912
  614MOL0     H82833   6.669   0.330   2.240 -1.8307  1.2167 -0.0172
  614MOL0     H82834   6.675   0.310   2.409 -1.4387  0.7400  2.2914
  614MOL0     H82835   6.454   0.205   2.421 -4.3547  1.1147 -1.1262
  614MOL0     H82836   6.428   0.225   2.245  1.1627 -3.7174 -1.5394
  614MOL0     H82837   6.581   0.066   2.182  1.5106 -1.6564  0.1955
  614MOL0     H82838   6.673   0.069   2.330  0.3629  1.4551  0.2993
  614MOL0     H82839   6.390  -0.027   2.270  1.1682  0.0751 -1.2178
  614MOL0     H82840   6.446  -0.025   2.442  2.5404 -0.7794  1.0288
  614MOL0     H82841   6.477  -0.228   2.115 -1.6979  1.1419  1.2342
  614MOL0     H82842   6.543  -0.537   2.140 -0.6586  1.3218 -0.1981
  614MOL0     H82843   6.642  -0.445   2.035  0.0863 -0.9041  0.8041
  614MOL0     H82844   6.841  -0.520   2.197  0.8193 -0.9535  2.5074
  614MOL0     H82845   6.745  -0.661   2.132 -0.4916 -1.0622  1.7392
  614MOL0     H82846   6.624  -0.621   2.374  0.2290  0.1311  0.7406
  614MOL0     H82847   6.787  -0.531   2.402  2.4556 -2.2966 -0.2710
  614MOL0     H82848   6.796  -0.766   2.471 -0.7829 -0.0461  0.9739
  614MOL0     H82849   6.923  -0.706   2.366 -0.5914  1.0092 -1.4682
  614MOL0     H82850   6.934  -0.939   2.101  0.4949  3.0331  2.5232
  614MOL0     H82851   7.001  -1.238   2.012 -1.2324  1.0605  1.0726
  614MOL0     H82852   7.063  -1.071   1.994 -0.0773  0.4273  0.6562
  614MOL0     H82853   7.168  -1.196   2.063  0.8432 -0.2178  0.5071
  614MOL0     H82854   7.369  -1.510   2.403 -0.5695  0.8185 -1.8434
  614MOL0     H82855   7.469  -1.728   2.336 -0.9978  1.9645  2.8419
  614MOL0     H82856   7.556  -1.867   2.022 -0.3525  0.3063  0.8269
  614MOL0     H82857   7.562  -1.881   2.195  2.5486 -3.3496 -0.0274
  614MOL0     H82858   7.485  -2.114   2.200 -0.8477 -2.0403  0.2835
  614MOL0     H82859   7.467  -2.120   2.023  2.9374 -0.9587 -1.9364
  614MOL0     H82860   7.718  -2.116   2.185  0.9137  1.4433 -0.0271
  614MOL0     H82861   7.723  -2.047   2.030 -0.8757  1.2194  0.2446
  614MOL0     H82862   7.616  -2.281   1.956  1.7077 -2.4333 -1.6540
  614MOL0     H82863   7.786  -2.289   2.013  0.0145  1.7634  1.0500
  614MOL0     H82864   7.604  -2.464   2.107  2.6258 -0.9811 -0.2141
  614MOL0     H82865   7.539  -2.321   2.198 -0.2578  0.9453 -2.6863
  614MOL0     H82866   7.778  -2.294   2.293  3.2153 -0.8518 -0.7509
  614MOL0     H82867   7.686  -2.439   2.354  3.2717 -3.3778 -0.8704
  614MOL0     H82868   7.873  -2.454   2.127 -1.2456  0.5513 -0.5688
  614MOL0     H82869   7.789  -2.582   2.224 -0.5887  1.2112  0.2497
  614MOL0     H82870   7.988  -2.600   2.292 -2.4764 -0.9984  0.2910
  614MOL0     H82871   7.908  -2.536   2.419  0.8202 -0.4088  1.1618
  614MOL0     H82872   7.185  -1.741   1.998 -2.2564  0.0236 -0.3361
  614MOL0     H82873   7.120  -1.519   2.058 -0.6651  0.1076 -0.1984
  614MOL0     H82874   6.946  -1.193   2.514 -2.3899 -0.2162  0.4640
  614MOL0     H82875   6.824  -0.998   2.503 -1.5670 -3.2157 -0.7647
  614MOL0     H82876   6.657   1.126   2.477  0.3690 -2.1072 -0.1598
  614MOL0     H82877   6.739   1.369   2.410  0.4480 -1.8850  1.7444
  614MOL0     H82878   7.065   1.547   1.869 -0.0983 -2.0147  0.6315
  614MOL0     H82879   7.078   1.758   1.777  0.1857 -1.6582  1.5554
  614MOL0     H82880   7.148   1.972   1.772  0.8424  4.3296 -0.7047
  614MOL0     H82881   7.021   1.958   1.656 -0.6539  1.2620 -0.9235
  614MOL0     H82882   7.069   2.199   1.837 -2.2254  0.2521  0.1507
  614MOL0     H82883   6.941   2.190   1.710 -1.5172 -1.5550  1.1144
  614MOL0     H82884   7.109   2.144   1.544 -1.9961  3.0197 -1.3306
  614MOL0     H82885   7.237   2.181   1.665  0.4201 -0.5191 -0.7729
  614MOL0     H82886   7.188   2.378   1.509 -1.8164  0.4110 -1.6300
  614MOL0     H82887   7.138   2.413   1.677  0.5808 -1.8855  1.4765
  614MOL0     H82888   6.795   2.501   1.488  2.5053  1.8619  2.6333
  614MOL0     H82889   6.783   1.913   2.029 -1.3632 -0.1567 -2.1539
  614MOL0     H82890   6.765   1.707   2.151 -0.2062 -1.2890 -0.6740
  615MOL0     O82891   9.657   6.616   8.475 -0.1119  1.2084 -0.2130
  615MOL0     C82892   9.717   6.675   8.388 -0.2020 -0.4164 -0.6585
  615MOL0     O82893   9.723   6.814   8.379  0.1518 -0.1473  0.2335
  615MOL0     C82894   9.657   6.887   8.474  0.7399 -0.8928  0.4148
  615MOL0     C82895   9.740   6.935   8.579  0.7372  0.0370  0.1873
  615MOL0     C82896   9.677   7.007   8.686 -0.4417 -0.3734  0.4051
  615MOL0     C82897   9.536   7.021   8.689 -0.6065 -0.6793  0.0654
  615MOL0     O82898   9.470   7.073   8.797 -0.1399 -0.6530  0.2178
  615MOL0     C82899   9.523   7.077   8.929 -0.4861  0.3081  0.5109
  615MOL0     C82900   9.414   7.082   9.026 -0.3452  0.2640  0.5826
  615MOL0     C82901   9.336   7.209   9.037  0.1355 -0.9089 -0.0921
  615MOL0     C82902   9.263   7.224   9.166 -0.1058  0.4871 -0.1888
  615MOL0     C82903   9.215   7.374   9.182 -0.5306 -0.2820 -0.4227
  615MOL0     C82904   9.318   7.483   9.217 -0.7961  0.4373  0.0662
  615MOL0     C82905   9.264   7.622   9.224 -0.4423  0.2476  0.2737
  615MOL0     C82906   9.370   7.710   9.286 -1.0860  0.3142  0.4914
  615MOL0     N82907   9.335   7.847   9.319  0.9306  0.4017 -0.6590
  615MOL0     C82908   9.427   7.952   9.353  0.0208  1.3568  0.6885
  615MOL0     C82909   9.348   8.054   9.395 -1.2249  0.3978 -0.2441
  615MOL0     C82910   9.415   8.181   9.429 -0.0083  0.0842 -0.1291
  615MOL0     C82911   9.520   8.177   9.539  0.2770 -0.5613  0.0070
  615MOL0     C82912   9.495   8.276   9.651 -0.8222 -0.3852  0.0801
  615MOL0     C82913   9.506   8.421   9.601  0.4569  0.8113  1.4805
  615MOL0     O82914   9.512   8.515   9.711 -0.8142  0.8305 -0.4509
  615MOL0     C82915   9.412   8.581   9.768 -0.8966  0.6570 -0.5574
  615MOL0     C82916   9.443   8.703   9.832  0.0133 -0.3958  0.8711
  615MOL0     C82917   9.355   8.775   9.910  0.4296  0.1475 -0.1630
  615MOL0     C82918   9.410   8.895   9.991  1.1935 -1.2397  0.5399
  615MOL0     C82919   9.218   8.738   9.909  0.5339  0.7971 -0.1405
  615MOL0     C82920   9.106   8.807   9.983  0.6580 -0.8425  0.2163
  615MOL0     O82921   9.139   8.884  10.089  0.7129  0.3439  0.2530
  615MOL0     C82922   9.045   8.972  10.135 -0.2907  0.4913  0.7119
  615MOL0     C82923   8.978   8.957  10.253  0.1937  1.1059  0.4567
  615MOL0     C82924   8.900   9.060  10.312 -0.5074 -0.4680 -0.1547
  615MOL0     C82925   8.882   9.183  10.234 -0.0130 -0.2299 -0.7924
  615MOL0     O82926   8.820   9.277  10.303  0.3906  0.0720 -0.5760
  615MOL0     C82927   8.814   9.411  10.244 -1.4243  0.4206 -0.3172
  615MOL0     C82928   8.730   9.493  10.351 -0.2252 -0.9240 -0.0412
  615MOL0     C82929   8.702   9.418  10.483 -0.1729 -0.1891  0.0834
  615MOL0     C82930   8.591   9.496  10.567  0.3042 -0.0012  0.2848
  615MOL0     C82931   8.542   9.402  10.671 -0.3328 -0.6203  0.1005
  615MOL0     C82932   8.419   9.469  10.730  0.9796  0.9738 -0.3693
  615MOL0     C82933   8.345   9.367  10.820  0.4153 -0.9233 -0.1430
  615MOL0     C82934   8.414   9.319  10.950  0.5360 -0.1023  0.4389
  615MOL0    Cl82935   8.297   9.208  11.032  0.4295 -0.1498  0.4085
  615MOL0     C82936   8.918   9.189  10.097 -0.1432 -1.0840 -0.0549
  615MOL0     C82937   9.008   9.088  10.060 -0.3258 -0.1428  0.2307
  615MOL0     O82938   8.992   8.778   9.956  0.6057  0.2410 -1.0327
  615MOL0     C82939   9.181   8.619   9.844 -0.6455 -0.0756  0.0608
  615MOL0     C82940   9.280   8.544   9.771 -0.9711  0.2722  0.3736
  615MOL0     N82941   9.219   8.011   9.405  0.0454 -0.5749 -0.3668
  615MOL0     N82942   9.214   7.892   9.363 -0.4034  0.3758  0.2388
  615MOL0     C82943   9.459   6.981   8.581 -0.3592  0.1175  0.0847
  615MOL0     C82944   9.519   6.903   8.475  0.1548 -1.8458  0.9914
  615MOL0     C82945   9.775   6.596   8.279 -0.1532  0.0910  0.4902
  615MOL0     C82946   9.763   6.451   8.275 -1.4285 -0.4971  0.0072
  615MOL0     C82947   9.814   6.377   8.162 -1.1003 -0.2885  0.9530
  615MOL0     C82948   9.865   6.443   8.048  0.3057 -0.8391 -0.0378
  615MOL0     O82949   9.911   6.369   7.947 -0.4742  0.1321 -0.7664
  615MOL0     C82950   9.858   6.404   7.813  1.1686  0.2203 -0.2525
  615MOL0     C82951   9.959   6.385   7.696  0.3155 -0.0732 -0.7096
  615MOL0     C82952   9.930   6.248   7.639 -0.1849  0.3998  0.3127
  615MOL0     C82953  10.052   6.210   7.552  0.7719 -0.9033 -0.4494
  615MOL0     C82954  10.030   6.093   7.474 -0.1748 -0.3226  1.3201
  615MOL0     C82955  10.009   5.985   7.418  0.2223 -0.2704  0.2183
  615MOL0     C82956   9.863   6.584   8.050  0.5295  0.1593 -1.0126
  615MOL0     C82957   9.828   6.661   8.164 -1.2615  0.1139  0.6088
  615MOL0     H82958   9.848   6.922   8.574  0.4081 -2.8463 -2.0390
  615MOL0     H82959   9.740   7.037   8.770 -1.7166 -0.7644  1.5514
  615MOL0     H82960   9.571   6.980   8.946  1.3806  0.9578 -0.8056
  615MOL0     H82961   9.594   7.158   8.945 -0.2849  0.1049  0.6455
  615MOL0     H82962   9.356   6.994   8.996  1.9364 -1.2447  0.3489
  615MOL0     H82963   9.445   7.064   9.129  1.0178  3.6068  0.8800
  615MOL0     H82964   9.397   7.296   9.014  2.4332 -2.6461 -1.0155
  615MOL0     H82965   9.262   7.210   8.956 -1.5579  2.0440  1.3115
  615MOL0     H82966   9.179   7.155   9.178 -0.0557  0.8908  3.9035
  615MOL0     H82967   9.319   7.181   9.250 -2.2338 -2.8047 -0.2712
  615MOL0     H82968   9.169   7.398   9.086 -3.2438  2.3388  1.3730
  615MOL0     H82969   9.136   7.372   9.258 -1.8618  0.8060 -1.7227
  615MOL0     H82970   9.369   7.468   9.313  0.1346  1.1177 -0.3088
  615MOL0     H82971   9.402   7.474   9.148 -0.4267  1.8792  0.2951
  615MOL0     H82972   9.234   7.675   9.133 -3.3854  0.3935  1.2179
  615MOL0     H82973   9.173   7.610   9.284 -0.6712 -0.4133 -0.1835
  615MOL0     H82974   9.448   7.733   9.213 -1.6882  1.5693  0.2160
  615MOL0     H82975   9.419   7.652   9.364  0.9119  0.9393 -0.2241
  615MOL0     H82976   9.535   7.963   9.349 -0.0415  1.6875 -2.2123
  615MOL0     H82977   9.454   8.226   9.337 -0.7523 -0.7378 -0.8714
  615MOL0     H82978   9.333   8.244   9.465 -0.1105 -1.5043  2.7046
  615MOL0     H82979   9.619   8.199   9.498  0.8587  0.0621  1.6496
  615MOL0     H82980   9.523   8.074   9.575 -0.3821 -0.4095  0.5182
  615MOL0     H82981   9.584   8.276   9.716  0.3800 -0.1280 -1.5041
  615MOL0     H82982   9.417   8.232   9.713 -0.9645  2.0627  1.7876
  615MOL0     H82983   9.423   8.449   9.536  2.9688 -3.2413 -4.3151
  615MOL0     H82984   9.595   8.425   9.539 -0.4621  0.9729  0.1283
  615MOL0     H82985   9.543   8.744   9.838  0.6910 -1.6794 -0.6668
  615MOL0     H82986   9.519   8.901   9.985  1.1819 -1.3832  0.1166
  615MOL0     H82987   9.373   8.986   9.944 -0.4775 -3.0166 -1.8426
  615MOL0     H82988   9.388   8.890  10.098  0.7403 -3.6581  0.4003
  615MOL0     H82989   9.007   8.867  10.306 -1.0545 -0.0982 -0.8315
  615MOL0     H82990   8.864   9.038  10.412 -2.1455 -3.4846 -1.2782
  615MOL0     H82991   8.909   9.458  10.217  0.0982 -2.4824 -0.4595
  615MOL0     H82992   8.764   9.404  10.148 -0.4222 -0.3534 -0.8023
  615MOL0     H82993   8.792   9.574  10.388 -1.1283  0.1389 -0.7834
  615MOL0     H82994   8.639   9.527  10.301  0.2752  1.2006  0.3947
  615MOL0     H82995   8.797   9.405  10.534  0.3560 -2.3825 -1.3324
  615MOL0     H82996   8.659   9.322  10.453 -1.5701  0.6918 -0.8763
  615MOL0     H82997   8.634   9.591  10.602  1.3465  0.6543 -2.4305
  615MOL0     H82998   8.501   9.512  10.507  1.3888 -3.5903 -2.7301
  615MOL0     H82999   8.621   9.397  10.747  3.6350  0.8381 -3.5490
  615MOL0     H83000   8.509   9.304  10.636 -0.6225 -0.9650  1.2998
  615MOL0     H83001   8.445   9.550  10.799  0.9023  0.8979 -0.2503
  615MOL0     H83002   8.350   9.517  10.660  2.1506 -0.5658 -2.6658
  615MOL0     H83003   8.309   9.287  10.755  0.4460  0.0177 -1.3660
  615MOL0     H83004   8.259   9.428  10.849  2.0035  1.8733 -0.9370
  615MOL0     H83005   8.447   9.396  11.020 -2.4359  2.8806 -1.1708
  615MOL0     H83006   8.507   9.265  10.928 -0.9616 -2.2250 -1.0856
  615MOL0     H83007   8.889   9.276  10.039  0.1416 -0.6392  0.4521
  615MOL0     H83008   9.055   9.103   9.963  1.7650  0.0604  1.2268
  615MOL0     H83009   9.085   8.571   9.855 -1.5697  1.8634  1.1813
  615MOL0     H83010   9.261   8.444   9.734  2.8801  0.4178 -2.6714
  615MOL0     H83011   9.353   7.004   8.578 -0.5220 -0.7002 -1.6650
  615MOL0     H83012   9.454   6.860   8.399  0.0195  1.9547 -1.3434
  615MOL0     H83013   9.731   6.402   8.366  0.8992 -0.8547  0.6860
  615MOL0     H83014   9.812   6.269   8.149 -1.1891 -0.6363  3.3651
  615MOL0     H83015   9.772   6.339   7.797  1.2096  0.1188 -0.0628
  615MOL0     H83016   9.817   6.506   7.806  0.6379  0.0537  0.2964
  615MOL0     H83017  10.060   6.384   7.738 -1.0915 -1.5040  3.0251
  615MOL0     H83018   9.960   6.464   7.620  3.8384 -0.9686 -1.7978
  615MOL0     H83019   9.849   6.264   7.568  1.0500 -0.8040 -1.4421
  615MOL0     H83020   9.904   6.167   7.709  1.9928 -1.5974 -1.0397
  615MOL0     H83021  10.136   6.185   7.618  4.1940  2.0318 -3.2692
  615MOL0     H83022  10.086   6.297   7.495 -0.0555  1.0382  1.8688
  615MOL0     H83023   9.988   5.898   7.359 -3.6162  1.5323 -1.4469
  615MOL0     H83024   9.896   6.632   7.959  0.8967  1.7399 -0.0753
  615MOL0     H83025   9.854   6.766   8.176 -0.2638 -0.0582  0.0250
  616MOL0     O83026   2.309   2.875   7.986 -0.1610  0.1621 -0.2174
  616MOL0     C83027   2.316   2.971   7.908  1.0158 -0.2331 -0.4940
  616MOL0     O83028   2.266   2.971   7.783 -0.1783 -0.7154  0.2451
  616MOL0     C83029   2.201   2.867   7.725 -0.1278 -0.8828 -0.9414
  616MOL0     C83030   2.188   2.849   7.583  0.3128 -0.0414 -0.1150
  616MOL0     C83031   2.119   2.745   7.520 -0.5890 -0.0287  0.3514
  616MOL0     C83032   2.076   2.638   7.601  0.6773  0.5260  0.7067
  616MOL0     O83033   2.014   2.521   7.561 -0.2360  0.3537 -0.6521
  616MOL0     C83034   2.060   2.468   7.434  1.0819 -0.5181  0.0887
  616MOL0     C83035   2.075   2.312   7.449  0.0719 -0.6022 -0.1917
  616MOL0     C83036   1.942   2.247   7.407  0.3672  0.0332 -0.9098
  616MOL0     C83037   1.973   2.104   7.356 -0.3865 -0.2943  0.3515
  616MOL0     C83038   1.877   2.021   7.263  0.0111 -0.8561 -0.1219
  616MOL0     C83039   1.743   1.997   7.341  0.6836 -0.2627  1.0236
  616MOL0     C83040   1.654   2.118   7.349  0.4441  0.1147 -0.5258
  616MOL0     C83041   1.498   2.072   7.352 -0.0625  0.1132 -0.3514
  616MOL0     N83042   1.406   2.192   7.357 -0.5502  0.3455 -0.5550
  616MOL0     C83043   1.402   2.285   7.457 -0.3877  0.1819 -0.4522
  616MOL0     C83044   1.310   2.374   7.419 -1.0403  0.6500  0.4829
  616MOL0     C83045   1.284   2.492   7.502  0.1593 -0.2764  0.0022
  616MOL0     C83046   1.168   2.452   7.596 -0.0307  0.7143 -0.4614
  616MOL0     C83047   1.100   2.570   7.673  0.7650  0.2213  0.2762
  616MOL0     C83048   0.990   2.521   7.767 -0.2275 -0.0966 -0.1852
  616MOL0     O83049   0.923   2.645   7.802 -0.7238 -0.1678  0.0958
  616MOL0     C83050   0.786   2.660   7.786 -0.7009  0.2557  0.7302
  616MOL0     C83051   0.694   2.555   7.773 -0.7892  0.1475 -1.2408
  616MOL0     C83052   0.560   2.581   7.741 -1.0698  1.6704 -0.4439
  616MOL0     C83053   0.461   2.458   7.714 -0.3289 -0.1141  0.0970
  616MOL0     C83054   0.516   2.711   7.732 -0.3290 -0.4765  0.6855
  616MOL0     C83055   0.372   2.762   7.712  0.3185  0.5026 -0.1731
  616MOL0     O83056   0.261   2.671   7.720 -0.3958 -0.7703 -0.6983
  616MOL0     C83057   0.141   2.717   7.666  0.1220 -0.4712  0.0277
  616MOL0     C83058   0.057   2.805   7.742 -0.1718 -0.0246 -0.4332
  616MOL0     C83059  -0.053   2.868   7.676 -0.0910 -0.5098  0.1523
  616MOL0     C83060  -0.074   2.851   7.539  0.6344 -0.4326  0.0519
  616MOL0     O83061  -0.181   2.921   7.481  1.1922  0.4340 -0.0049
  616MOL0     C83062  -0.271   2.841   7.402 -0.1814  0.4085 -1.1290
  616MOL0     C83063  -0.393   2.923   7.365  0.7717 -0.6799 -0.0422
  616MOL0     C83064  -0.354   3.049   7.285  0.2957 -0.1910  0.1127
  616MOL0     C83065  -0.464   3.150   7.265 -0.9244  0.7788  0.0148
  616MOL0     C83066  -0.417   3.275   7.181  0.2576  0.5566 -0.3917
  616MOL0     C83067  -0.537   3.325   7.115 -0.7886  0.7641  0.2918
  616MOL0     C83068  -0.499   3.422   6.997 -0.9364 -0.0922  0.3827
  616MOL0     C83069  -0.427   3.552   7.038 -0.2895  0.8324 -0.3991
  616MOL0    Cl83070  -0.471   3.675   6.918  0.2196 -0.0535 -0.3251
  616MOL0     C83071   0.003   2.757   7.467 -0.1740 -0.1825 -0.0853
  616MOL0     C83072   0.111   2.688   7.538  0.8315  0.9401  0.4763
  616MOL0     O83073   0.365   2.880   7.689  0.1505  0.1454 -0.1405
  616MOL0     C83074   0.608   2.820   7.764 -0.1308 -0.0509 -0.8266
  616MOL0     C83075   0.742   2.780   7.793  0.3289  0.6880 -0.7298
  616MOL0     N83076   1.258   2.333   7.295 -0.7118  0.4856 -1.2681
  616MOL0     N83077   1.321   2.227   7.260 -0.9592  0.2239 -0.1972
  616MOL0     C83078   2.077   2.649   7.740  0.5865  0.2258  0.1871
  616MOL0     C83079   2.133   2.763   7.798  0.1124  0.7224 -0.3476
  616MOL0     C83080   2.383   3.097   7.943  0.2146  0.0593 -0.3392
  616MOL0     C83081   2.425   3.113   8.076 -0.1260 -0.1475  0.8843
  616MOL0     C83082   2.473   3.240   8.119  0.5949  0.0184 -0.4673
  616MOL0     C83083   2.494   3.346   8.038  1.1088  0.3768  0.2408
  616MOL0     O83084   2.561   3.458   8.108 -0.1357  0.4896  0.0341
  616MOL0     C83085   2.594   3.570   8.028  0.1275  1.4331  0.4162
  616MOL0     C83086   2.603   3.695   8.119 -0.1627  0.2001  0.4785
  616MOL0     C83087   2.734   3.711   8.204 -0.5545 -0.3355 -0.1132
  616MOL0     C83088   2.852   3.764   8.127  0.6417 -0.6791  0.9101
  616MOL0     C83089   2.982   3.752   8.201  0.9571  0.2631 -0.0674
  616MOL0     C83090   3.069   3.735   8.288 -0.0196  0.1042 -0.1671
  616MOL0     C83091   2.467   3.333   7.907 -1.2216  0.5396  0.3172
  616MOL0     C83092   2.409   3.208   7.863 -0.5111  0.6552  0.1462
  616MOL0     H83093   2.231   2.917   7.511 -1.6183  2.3151  0.8010
  616MOL0     H83094   2.108   2.745   7.412  1.6524  0.9583  0.0808
  616MOL0     H83095   1.990   2.498   7.356 -1.2101 -1.3340  1.7091
  616MOL0     H83096   2.155   2.514   7.405  0.7138  0.3915  0.2879
  616MOL0     H83097   2.153   2.293   7.374  0.4563  0.0034  0.0405
  616MOL0     H83098   2.112   2.279   7.547  0.8865  0.9805  0.0643
  616MOL0     H83099   1.868   2.238   7.488 -0.9047 -0.5660 -2.0963
  616MOL0     H83100   1.900   2.300   7.321 -0.8455 -3.2783 -2.5320
  616MOL0     H83101   2.053   2.129   7.286 -0.1184  1.6887  1.3124
  616MOL0     H83102   2.019   2.047   7.438  1.2308 -0.2084 -0.4501
  616MOL0     H83103   1.857   2.082   7.174 -1.3196 -0.6514  0.2958
  616MOL0     H83104   1.921   1.923   7.245 -0.6574 -1.5986  1.9897
  616MOL0     H83105   1.685   1.922   7.288 -2.5553  0.8065  2.8239
  616MOL0     H83106   1.768   1.946   7.434  0.5393 -5.3509 -1.3918
  616MOL0     H83107   1.676   2.179   7.438 -0.5407 -4.0264  2.8928
  616MOL0     H83108   1.665   2.181   7.261  2.2297  0.0606 -0.3619
  616MOL0     H83109   1.479   2.020   7.447  1.8209  0.8715  0.4956
  616MOL0     H83110   1.482   2.009   7.265  0.8902 -1.1154  0.3285
  616MOL0     H83111   1.460   2.283   7.549 -0.9589 -2.8216 -0.0469
  616MOL0     H83112   1.374   2.537   7.546  1.2193  0.7049 -2.8906
  616MOL0     H83113   1.251   2.572   7.435  2.4883  1.4905  0.8228
  616MOL0     H83114   1.216   2.390   7.673 -0.1723 -0.6238 -1.4202
  616MOL0     H83115   1.097   2.392   7.538  0.3248  0.5102 -0.6848
  616MOL0     H83116   1.053   2.635   7.598  0.3709 -0.9839 -0.5483
  616MOL0     H83117   1.175   2.633   7.723  1.3802 -0.1011 -0.2155
  616MOL0     H83118   1.029   2.469   7.855  0.2350 -2.0969 -1.4990
  616MOL0     H83119   0.918   2.463   7.708  1.5816 -0.1488 -2.5113
  616MOL0     H83120   0.709   2.450   7.798 -1.6708  0.3782  0.2996
  616MOL0     H83121   0.356   2.463   7.744 -0.8951 -3.5274 -0.8858
  616MOL0     H83122   0.464   2.429   7.609 -0.7845 -1.0835  0.3462
  616MOL0     H83123   0.487   2.382   7.788  0.7474  0.9568  0.8680
  616MOL0     H83124   0.084   2.830   7.844 -1.4526 -4.0438  1.0769
  616MOL0     H83125  -0.103   2.952   7.723  3.5779  3.4176 -2.2653
  616MOL0     H83126  -0.227   2.798   7.311  2.2566  0.9596 -0.2956
  616MOL0     H83127  -0.300   2.759   7.468  1.1487  0.4906 -0.4058
  616MOL0     H83128  -0.451   2.866   7.292  1.2020  2.7316 -3.3813
  616MOL0     H83129  -0.454   2.952   7.452 -0.4399  0.9905 -1.3816
  616MOL0     H83130  -0.315   3.016   7.189  1.6131  2.2225 -0.2767
  616MOL0     H83131  -0.271   3.101   7.334 -1.0606  0.1080  2.2309
  616MOL0     H83132  -0.541   3.094   7.212  0.1062  0.1588 -0.8554
  616MOL0     H83133  -0.506   3.188   7.359 -2.6283  3.1675 -1.6046
  616MOL0     H83134  -0.326   3.250   7.126 -0.2809 -0.6051 -0.7869
  616MOL0     H83135  -0.391   3.354   7.252 -1.2561  0.2359  0.5680
  616MOL0     H83136  -0.604   3.246   7.081  1.0590 -1.2198  1.0391
  616MOL0     H83137  -0.605   3.379   7.181  0.3239  1.9101  0.5481
  616MOL0     H83138  -0.591   3.446   6.942 -1.1036  1.4774  1.2900
  616MOL0     H83139  -0.436   3.374   6.922 -1.7504  0.0352 -0.4086
  616MOL0     H83140  -0.319   3.537   7.031 -0.2246 -0.3345  2.0046
  616MOL0     H83141  -0.453   3.579   7.141  0.7789  2.4732 -0.5313
  616MOL0     H83142  -0.003   2.753   7.359  1.3820  4.1812 -0.5523
  616MOL0     H83143   0.175   2.621   7.481 -0.2146  1.9412 -2.0218
  616MOL0     H83144   0.584   2.925   7.754  1.1298  0.4211  0.6034
  616MOL0     H83145   0.807   2.855   7.837 -0.4470 -0.7416  3.2665
  616MOL0     H83146   2.046   2.568   7.805  0.7022  0.8050  0.9932
  616MOL0     H83147   2.114   2.764   7.905  1.5591 -0.6081 -0.0467
  616MOL0     H83148   2.428   3.023   8.136  2.4512 -0.6351  0.1465
  616MOL0     H83149   2.510   3.258   8.219 -2.0321  0.2583  0.5351
  616MOL0     H83150   2.685   3.554   7.969 -1.1670 -2.5127 -0.8474
  616MOL0     H83151   2.517   3.583   7.951  1.8725  1.7987 -1.3557
  616MOL0     H83152   2.518   3.701   8.188 -0.4135 -0.4156  0.2353
  616MOL0     H83153   2.605   3.782   8.053  1.8855  1.1872  1.7572
  616MOL0     H83154   2.753   3.611   8.244 -0.3106 -0.8853 -1.5108
  616MOL0     H83155   2.723   3.770   8.295  2.0519 -1.6243  1.1461
  616MOL0     H83156   2.852   3.871   8.105  0.6262 -0.9440 -0.4514
  616MOL0     H83157   2.857   3.718   8.028 -1.3933  0.1959  0.3669
  616MOL0     H83158   3.165   3.723   8.335  0.6432 -0.6299 -1.6417
  616MOL0     H83159   2.499   3.407   7.835  2.0277  1.4272  2.4449
  616MOL0     H83160   2.379   3.207   7.759  4.0562 -0.7525 -1.3847
  617MOL0     O83161   1.296  11.059  11.302  0.7189 -0.2775  0.1072
  617MOL0     C83162   1.358  10.998  11.212  0.2356 -0.0282  0.0283
  617MOL0     O83163   1.495  10.984  11.196 -0.1224  0.5519  0.2536
  617MOL0     C83164   1.578  11.054  11.290  0.1072  0.2379  0.0652
  617MOL0     C83165   1.558  11.189  11.307  1.1878  1.0840  0.3943
  617MOL0     C83166   1.655  11.257  11.385  0.2530  0.2337  0.6991
  617MOL0     C83167   1.780  11.201  11.420  0.6177 -0.3753 -0.6281
  617MOL0     O83168   1.873  11.273  11.481 -0.4168 -0.4899  0.3661
  617MOL0     C83169   1.994  11.290  11.404  0.2406  0.3188  1.1347
  617MOL0     C83170   2.090  11.384  11.475  0.0857  0.0250 -0.5667
  617MOL0     C83171   2.213  11.423  11.402 -0.6970 -0.9220 -0.7087
  617MOL0     C83172   2.266  11.565  11.443 -0.2306  0.7160  0.6778
  617MOL0     C83173   2.356  11.625  11.339 -0.2064  0.2833  0.0518
  617MOL0     C83174   2.463  11.729  11.389 -0.1987  0.3922  0.7013
  617MOL0     C83175   2.534  11.805  11.269 -1.2524 -0.4017 -0.1825
  617MOL0     C83176   2.659  11.732  11.217 -0.0107  0.0257 -0.4643
  617MOL0     N83177   2.631  11.604  11.147 -0.8105 -0.0534  0.2479
  617MOL0     C83178   2.581  11.595  11.014 -0.9753 -0.0358 -0.6196
  617MOL0     C83179   2.589  11.461  10.988  0.4537 -0.0071  0.1247
  617MOL0     C83180   2.549  11.404  10.864  0.4794  0.6633 -0.3991
  617MOL0     C83181   2.396  11.401  10.850  0.5454 -0.1785 -0.2751
  617MOL0     C83182   2.316  11.305  10.929 -0.6419 -0.7305  0.1166
  617MOL0     C83183   2.170  11.311  10.883  0.0595 -0.4962 -0.0412
  617MOL0     O83184   2.084  11.234  10.972 -0.3789 -0.5287  0.4307
  617MOL0     C83185   1.961  11.196  10.921 -0.1852 -0.4937 -0.8599
  617MOL0     C83186   1.935  11.142  10.799 -0.1816 -0.7131  0.5377
  617MOL0     C83187   1.809  11.095  10.755  0.3949 -0.2840 -0.7690
  617MOL0     C83188   1.809  11.044  10.622  0.5208  0.8512  0.2609
  617MOL0     C83189   1.700  11.123  10.845  0.9033 -0.2660  0.2812
  617MOL0     C83190   1.554  11.107  10.820  0.2522  0.7113  1.6186
  617MOL0     O83191   1.473  11.210  10.855 -0.7656  0.1997 -0.4017
  617MOL0     C83192   1.336  11.217  10.824  0.8565 -0.9849  0.9876
  617MOL0     C83193   1.256  11.310  10.884  0.8216 -0.6772 -1.1214
  617MOL0     C83194   1.124  11.337  10.845 -0.3457  0.2633  0.0303
  617MOL0     C83195   1.060  11.258  10.750 -0.7698  0.5581  0.2243
  617MOL0     O83196   0.929  11.290  10.706  0.2716  0.7075 -0.2725
  617MOL0     C83197   0.847  11.171  10.691 -0.0155 -0.4373  0.1185
  617MOL0     C83198   0.772  11.174  10.562  0.6049 -0.6658  0.2982
  617MOL0     C83199   0.666  11.293  10.552  0.8992  0.9395  0.6327
  617MOL0     C83200   0.524  11.233  10.575 -0.1484 -0.2396 -0.0619
  617MOL0     C83201   0.422  11.340  10.586  0.0391  0.1894  0.5595
  617MOL0     C83202   0.294  11.284  10.651 -0.3451  0.6795  0.9975
  617MOL0     C83203   0.195  11.392  10.695 -0.1642  0.2993  0.4044
  617MOL0     C83204   0.144  11.472  10.574  0.4187 -0.0769  0.6770
  617MOL0    Cl83205   0.058  11.347  10.461  0.6239 -0.0153  0.7337
  617MOL0     C83206   1.133  11.157  10.687  0.0284  0.0687  0.5300
  617MOL0     C83207   1.269  11.144  10.723  0.9795  0.2138  0.5397
  617MOL0     O83208   1.523  11.005  10.753 -0.5200 -0.0772  0.2195
  617MOL0     C83209   1.733  11.168  10.975  0.7771 -0.6407 -0.9457
  617MOL0     C83210   1.858  11.202  11.014  0.3459 -0.1093 -0.7683
  617MOL0     N83211   2.641  11.399  11.093  0.1977 -0.1635 -0.3557
  617MOL0     N83212   2.674  11.480  11.180  0.2452 -0.2286  0.5635
  617MOL0     C83213   1.791  11.061  11.408 -0.0361  0.0538 -0.3882
  617MOL0     C83214   1.690  10.985  11.343 -0.8029 -0.0754  0.2273
  617MOL0     C83215   1.274  10.943  11.103  0.1938 -0.6038 -0.0760
  617MOL0     C83216   1.165  11.010  11.064  0.0036 -0.0538 -0.7068
  617MOL0     C83217   1.078  10.968  10.962  0.3655 -0.1922 -1.0923
  617MOL0     C83218   1.119  10.857  10.888 -0.6725  0.6323 -1.7179
  617MOL0     O83219   1.027  10.817  10.801 -0.5634 -0.0398  0.1960
  617MOL0     C83220   1.078  10.782  10.676  0.5437  0.2401 -0.2597
  617MOL0     C83221   0.980  10.812  10.576  0.7789  0.6318  0.4360
  617MOL0     C83222   1.010  10.727  10.442  0.0486 -0.0259  0.7859
  617MOL0     C83223   0.950  10.594  10.443 -0.9586 -0.1622  0.1116
  617MOL0     C83224   0.806  10.587  10.428  0.9390  0.2633  0.7861
  617MOL0     C83225   0.685  10.579  10.419 -0.8509  0.0186 -0.4419
  617MOL0     C83226   1.231  10.786  10.928  0.3472  1.0572 -0.0332
  617MOL0     C83227   1.308  10.825  11.037  0.0609  0.4038  0.3556
  617MOL0     H83228   1.472  11.246  11.271  2.5242  2.2486 -1.1150
  617MOL0     H83229   1.640  11.362  11.406  2.0646  0.4498  1.0728
  617MOL0     H83230   2.035  11.189  11.394 -3.0460 -0.9986 -0.7945
  617MOL0     H83231   1.988  11.335  11.305 -0.1144 -0.2628  0.8810
  617MOL0     H83232   2.046  11.482  11.499 -2.1065 -0.7578 -1.2050
  617MOL0     H83233   2.117  11.338  11.571  0.5051  1.5820  0.0999
  617MOL0     H83234   2.289  11.351  11.431 -1.6610 -1.0284  1.7636
  617MOL0     H83235   2.204  11.412  11.293  0.2129  0.9055 -1.0150
  617MOL0     H83236   2.194  11.634  11.487 -1.6912 -0.7946  0.7912
  617MOL0     H83237   2.336  11.560  11.527 -0.6171  0.6769  0.9998
  617MOL0     H83238   2.411  11.553  11.278 -2.8334 -0.8314 -1.1786
  617MOL0     H83239   2.286  11.678  11.272  0.1894 -0.5459 -1.0555
  617MOL0     H83240   2.409  11.805  11.446 -0.9449  0.3428  0.0817
  617MOL0     H83241   2.539  11.691  11.458 -2.0716  0.8244  3.1276
  617MOL0     H83242   2.471  11.837  11.186 -1.2818  2.4943  0.8398
  617MOL0     H83243   2.578  11.895  11.313 -1.0447 -0.3580 -0.4804
  617MOL0     H83244   2.714  11.714  11.310  1.5610  2.1899 -0.8947
  617MOL0     H83245   2.717  11.799  11.154 -1.3314 -0.7782 -2.6476
  617MOL0     H83246   2.560  11.662  10.932 -0.0281 -3.6377 -4.1078
  617MOL0     H83247   2.601  11.468  10.792  1.9265 -0.2792 -0.2304
  617MOL0     H83248   2.593  11.304  10.864  0.9317  0.8310  1.2624
  617MOL0     H83249   2.379  11.386  10.743  1.8423  3.2019 -1.0903
  617MOL0     H83250   2.357  11.499  10.881 -0.8652 -1.6362  3.0429
  617MOL0     H83251   2.314  11.326  11.037 -0.6499  2.6109 -0.4162
  617MOL0     H83252   2.352  11.205  10.904  1.3691 -0.4890  1.6996
  617MOL0     H83253   2.170  11.277  10.779  2.3051  0.1854 -0.3266
  617MOL0     H83254   2.147  11.417  10.888  0.9454 -0.2769 -0.3248
  617MOL0     H83255   2.008  11.137  10.720 -2.1545  1.6330 -1.6094
  617MOL0     H83256   1.720  10.997  10.579  0.8155  0.6683 -0.1562
  617MOL0     H83257   1.836  11.129  10.558  1.8072 -1.2218 -2.1654
  617MOL0     H83258   1.878  10.959  10.609  0.3730  0.4988  1.6327
  617MOL0     H83259   1.309  11.370  10.958 -0.6033 -2.3478  1.4030
  617MOL0     H83260   1.072  11.418  10.895 -1.4509 -2.2497  3.2362
  617MOL0     H83261   0.906  11.081  10.706  3.7533  1.4180 -1.9780
  617MOL0     H83262   0.784  11.173  10.780  3.8857  1.5187  3.2013
  617MOL0     H83263   0.844  11.192  10.482  1.9865 -0.6431  1.5026
  617MOL0     H83264   0.720  11.081  10.536  1.3011 -1.2279  0.8421
  617MOL0     H83265   0.675  11.336  10.452  0.6229 -0.0304  0.1749
  617MOL0     H83266   0.688  11.374  10.621 -4.0760  1.2522  2.2309
  617MOL0     H83267   0.489  11.166  10.495 -2.9787  0.5658  0.3771
  617MOL0     H83268   0.532  11.172  10.665  0.7334 -0.5479 -0.3391
  617MOL0     H83269   0.386  11.375  10.489 -1.1422  1.7911  1.5220
  617MOL0     H83270   0.450  11.420  10.656  1.9701 -0.8666  1.0561
  617MOL0     H83271   0.251  11.214  10.579  1.5839  2.2202 -1.8350
  617MOL0     H83272   0.322  11.219  10.735 -0.9106 -0.1060  0.5905
  617MOL0     H83273   0.232  11.459  10.773 -1.4643  0.0595  1.2397
  617MOL0     H83274   0.111  11.333  10.733  0.0337 -2.1381 -2.4819
  617MOL0     H83275   0.215  11.539  10.525 -2.2646 -0.1025 -3.8081
  617MOL0     H83276   0.064  11.540  10.603 -0.1630 -0.5505  0.2258
  617MOL0     H83277   1.099  11.095  10.604  1.1731  1.3010 -0.9218
  617MOL0     H83278   1.318  11.073  10.657 -0.5328 -0.2205 -0.1626
  617MOL0     H83279   1.665  11.189  11.057  1.1869 -0.5163 -0.6321
  617MOL0     H83280   1.886  11.239  11.112 -0.6058  1.3508 -1.0173
  617MOL0     H83281   1.883  11.018  11.448 -0.1465  0.1405 -0.0385
  617MOL0     H83282   1.700  10.879  11.321  0.9694  0.0289  0.3353
  617MOL0     H83283   1.136  11.103  11.112  2.5405  0.5089 -0.1174
  617MOL0     H83284   0.980  11.014  10.946  0.1637 -0.3029 -0.2409
  617MOL0     H83285   1.173  10.825  10.642  1.0353 -1.6522 -1.4209
  617MOL0     H83286   1.084  10.673  10.675  0.8479  0.1959  1.7124
  617MOL0     H83287   0.987  10.918  10.549  1.1833  1.0882  2.2189
  617MOL0     H83288   0.878  10.796  10.612  0.1592  0.6256 -1.2340
  617MOL0     H83289   1.119  10.722  10.436 -0.0007 -2.0582  1.1160
  617MOL0     H83290   0.979  10.784  10.353  0.7513  0.7810  1.0405
  617MOL0     H83291   1.000  10.535  10.521  0.5406 -0.1264 -0.7795
  617MOL0     H83292   0.998  10.552  10.354  1.0567 -3.8746  2.6685
  617MOL0     H83293   0.578  10.580  10.429 -0.9965 -4.9135  1.4762
  617MOL0     H83294   1.275  10.704  10.872  1.0218  0.5681  1.1790
  617MOL0     H83295   1.399  10.767  11.053 -1.6094 -2.8630 -1.0557
  618MOL0     O83296   7.022  10.773   0.504 -0.0445 -0.3137 -0.5634
  618MOL0     C83297   7.102  10.797   0.415 -0.1602 -0.6015 -0.0603
  618MOL0     O83298   7.187  10.909   0.410  0.2479  0.4786 -0.4952
  618MOL0     C83299   7.174  11.007   0.505 -0.3654  0.0805 -0.9175
  618MOL0     C83300   7.287  11.067   0.572 -0.0894 -0.9120 -0.0892
  618MOL0     C83301   7.280  11.151   0.683  0.3542 -0.0909  0.5867
  618MOL0     C83302   7.155  11.196   0.720  0.6287 -0.1437 -0.9580
  618MOL0     O83303   7.134  11.286   0.825  0.7965 -0.0925 -0.2886
  618MOL0     C83304   7.241  11.355   0.902  0.2561  0.0926 -0.4389
  618MOL0     C83305   7.180  11.412   1.032 -0.0803 -0.2035 -0.0868
  618MOL0     C83306   7.122  11.314   1.133 -0.3370  0.8759 -1.3400
  618MOL0     C83307   7.031  11.396   1.221 -0.8332  0.6447 -0.3917
  618MOL0     C83308   7.012  11.336   1.357  0.1043 -0.1024 -0.5986
  618MOL0     C83309   6.918  11.427   1.425  0.1477 -0.2127  0.6691
  618MOL0     C83310   6.876  11.377   1.566  0.3491 -0.8162 -1.1355
  618MOL0     C83311   6.775  11.478   1.644 -0.7396 -0.1928  0.9754
  618MOL0     N83312   6.770  11.452   1.787 -0.3676 -0.1565  0.7432
  618MOL0     C83313   6.877  11.451   1.868  0.2537 -0.0781 -0.0273
  618MOL0     C83314   6.823  11.431   1.994 -0.1238  0.5275 -0.6788
  618MOL0     C83315   6.875  11.418   2.137  0.0990 -0.0051 -0.7059
  618MOL0     C83316   7.027  11.415   2.161  0.4243 -0.7933  0.6206
  618MOL0     C83317   7.074  11.266   2.159  0.2909  0.0768  0.2717
  618MOL0     C83318   7.229  11.254   2.174  0.3229  0.2128 -0.4605
  618MOL0     O83319   7.273  11.134   2.235 -0.2300  0.6778  0.2796
  618MOL0     C83320   7.406  11.107   2.245  0.1436  0.2347 -0.9729
  618MOL0     C83321   7.514  11.190   2.211 -0.4187  0.8304 -0.3213
  618MOL0     C83322   7.651  11.152   2.231  0.4945 -0.1028 -0.5953
  618MOL0     C83323   7.751  11.258   2.201 -0.2219 -0.0641  0.5869
  618MOL0     C83324   7.680  11.022   2.288  0.7225  0.0688 -0.2933
  618MOL0     C83325   7.815  10.962   2.315  0.2083  0.0623 -0.8988
  618MOL0     O83326   7.825  10.835   2.361 -0.0128 -0.2729 -0.0010
  618MOL0     C83327   7.944  10.776   2.371  0.1065  0.8004 -0.0252
  618MOL0     C83328   7.971  10.657   2.297 -0.4762 -0.4948 -0.8929
  618MOL0     C83329   8.086  10.583   2.314 -0.3134 -0.2818 -0.4411
  618MOL0     C83330   8.187  10.618   2.408 -0.3542  0.2877  0.0878
  618MOL0     O83331   8.301  10.543   2.422  0.0845 -0.1437  0.4464
  618MOL0     C83332   8.421  10.600   2.478 -0.6156 -0.7570  0.4230
  618MOL0     C83333   8.535  10.515   2.478  0.8952  0.5663  0.5636
  618MOL0     C83334   8.583  10.463   2.339  0.0659  0.6335 -0.1811
  618MOL0     C83335   8.663  10.566   2.269  0.0082  0.0157 -0.3255
  618MOL0     C83336   8.801  10.572   2.328 -0.5062 -0.4489 -0.0127
  618MOL0     C83337   8.915  10.608   2.229 -0.1669  0.0258  0.1416
  618MOL0     C83338   8.974  10.499   2.140 -0.2213 -0.1579 -0.6231
  618MOL0     C83339   8.992  10.366   2.210  0.1389  0.2501  0.0191
  618MOL0    Cl83340   9.084  10.384   2.359  0.5321  0.0574 -0.1351
  618MOL0     C83341   8.158  10.741   2.478 -0.5596  0.3969  0.1859
  618MOL0     C83342   8.038  10.821   2.462  0.3275 -0.3492  1.0189
  618MOL0     O83343   7.912  11.030   2.294 -0.1725 -0.3542 -1.1325
  618MOL0     C83344   7.568  10.950   2.318 -0.7033 -0.2857  0.0702
  618MOL0     C83345   7.432  10.992   2.296  0.1035 -0.4752 -0.5956
  618MOL0     N83346   6.690  11.402   1.975 -1.0173 -0.3199 -0.3680
  618MOL0     N83347   6.660  11.429   1.856 -0.6688  0.2720  0.2861
  618MOL0     C83348   7.037  11.148   0.649 -0.1525 -0.3482 -0.5632
  618MOL0     C83349   7.046  11.061   0.541 -0.6855 -0.2467 -0.2214
  618MOL0     C83350   7.127  10.695   0.307 -0.1625 -0.0661  0.7346
  618MOL0     C83351   7.232  10.709   0.214 -0.4317 -0.6845  0.6309
  618MOL0     C83352   7.257  10.612   0.121 -0.4983  0.7880 -0.1947
  618MOL0     C83353   7.178  10.498   0.117  0.3619  0.4802  1.1701
  618MOL0     O83354   7.195  10.400   0.019 -0.6661  0.5781  0.4715
  618MOL0     C83355   7.170  10.435  -0.118  1.3945  0.3035 -0.2763
  618MOL0     C83356   7.022  10.489  -0.141 -0.8396  0.6998  1.0135
  618MOL0     C83357   6.996  10.634  -0.090  0.5118  0.7390  0.1153
  618MOL0     C83358   6.884  10.709  -0.165 -1.1813  0.8136  0.6507
  618MOL0     C83359   6.865  10.845  -0.128  0.1494  1.1773  0.1555
  618MOL0     C83360   6.831  10.958  -0.096  0.3836  0.0337  0.1163
  618MOL0     C83361   7.071  10.485   0.203  0.6202 -1.0423  0.0039
  618MOL0     C83362   7.040  10.585   0.296  0.1342 -0.5452 -0.4345
  618MOL0     H83363   7.385  11.030   0.542  0.9219  0.8909  0.7876
  618MOL0     H83364   7.367  11.186   0.738  0.3042 -1.7206  1.7605
  618MOL0     H83365   7.324  11.293   0.937 -0.9504 -0.2635  2.0124
  618MOL0     H83366   7.296  11.432   0.847  3.2762 -1.2319  0.5478
  618MOL0     H83367   7.263  11.462   1.083 -0.3914 -0.1669  0.3931
  618MOL0     H83368   7.109  11.492   1.006 -2.3609 -1.6365  1.3319
  618MOL0     H83369   7.066  11.242   1.074 -1.4470  2.8407 -2.8138
  618MOL0     H83370   7.198  11.266   1.194 -0.2805  1.1096 -1.2245
  618MOL0     H83371   7.056  11.502   1.233 -0.1953  0.5224 -0.5951
  618MOL0     H83372   6.939  11.399   1.163 -2.6692 -1.1860  2.1948
  618MOL0     H83373   6.963  11.239   1.345 -0.2879  0.1581 -1.1632
  618MOL0     H83374   7.105  11.324   1.412  1.2448  1.5652 -2.0560
  618MOL0     H83375   6.946  11.532   1.421  1.7739 -0.6554 -0.7099
  618MOL0     H83376   6.826  11.412   1.369 -0.5973  1.4687  1.3719
  618MOL0     H83377   6.828  11.280   1.551 -4.1428  0.6746  1.5591
  618MOL0     H83378   6.959  11.351   1.632 -0.0536 -5.4910 -2.1720
  618MOL0     H83379   6.680  11.459   1.594  0.1649 -4.0195  0.3484
  618MOL0     H83380   6.807  11.580   1.622 -2.0638 -0.3032 -1.8804
  618MOL0     H83381   6.983  11.459   1.845  0.3691 -0.9933  0.1526
  618MOL0     H83382   6.855  11.511   2.190  2.9589  1.5094 -2.0386
  618MOL0     H83383   6.820  11.337   2.187 -1.0078 -1.9008 -4.6349
  618MOL0     H83384   7.058  11.465   2.254 -1.8848 -1.8512  2.0579
  618MOL0     H83385   7.071  11.458   2.071 -1.0368 -3.8390 -1.7186
  618MOL0     H83386   7.054  11.209   2.067  2.9603  0.5140 -0.6843
  618MOL0     H83387   7.027  11.200   2.232  1.9669 -0.8852  0.5505
  618MOL0     H83388   7.256  11.327   2.251  1.1011  1.4912 -1.8780
  618MOL0     H83389   7.283  11.278   2.082 -0.8182 -2.4895 -1.9575
  618MOL0     H83390   7.485  11.288   2.176 -0.7662  0.5671 -0.7828
  618MOL0     H83391   7.695  11.352   2.202 -0.9352 -0.4790  1.8230
  618MOL0     H83392   7.835  11.267   2.270  0.1423 -2.6051  0.5704
  618MOL0     H83393   7.809  11.243   2.109  1.9010 -0.6580  1.9568
  618MOL0     H83394   7.898  10.618   2.227  2.0597 -0.4020 -3.8356
  618MOL0     H83395   8.102  10.499   2.248  3.8223  0.7492 -1.0296
  618MOL0     H83396   8.433  10.696   2.427 -0.9120 -1.2575 -0.6252
  618MOL0     H83397   8.399  10.634   2.580  1.7580  0.5430  0.5676
  618MOL0     H83398   8.619  10.555   2.536  0.7128 -1.1349  2.0647
  618MOL0     H83399   8.506  10.433   2.543 -0.9193 -1.2224 -2.2882
  618MOL0     H83400   8.494  10.440   2.280 -0.8465 -3.8584  2.4452
  618MOL0     H83401   8.644  10.372   2.348 -0.5329  0.0897 -1.4029
  618MOL0     H83402   8.674  10.537   2.165  0.8332 -1.0895  0.0539
  618MOL0     H83403   8.619  10.666   2.285 -0.6882 -0.5473  1.5397
  618MOL0     H83404   8.836  10.483   2.381  3.9877  0.1650 -1.4913
  618MOL0     H83405   8.810  10.663   2.388  1.8674 -1.4876  1.3383
  618MOL0     H83406   8.895  10.702   2.178  0.0453 -0.8986 -1.7159
  618MOL0     H83407   9.007  10.632   2.284  0.0872 -1.5206  0.4309
  618MOL0     H83408   9.061  10.537   2.086 -0.2936  5.1937  2.3094
  618MOL0     H83409   8.889  10.484   2.073  0.9681 -0.7158 -2.0449
  618MOL0     H83410   9.044  10.285   2.157  0.8588 -0.1366  1.2768
  618MOL0     H83411   8.890  10.337   2.237  0.3949 -0.2573  0.4589
  618MOL0     H83412   8.234  10.762   2.553  1.3695 -0.2370 -1.4725
  618MOL0     H83413   8.024  10.917   2.510  1.4758 -1.3868  3.6221
  618MOL0     H83414   7.572  10.853   2.366 -1.8234 -1.9395 -2.9165
  618MOL0     H83415   7.352  10.932   2.336 -1.0187  1.9868  1.0264
  618MOL0     H83416   6.940  11.191   0.668  0.1997  0.3628 -0.3207
  618MOL0     H83417   6.959  11.026   0.486  0.2610  1.3508 -2.9813
  618MOL0     H83418   7.294  10.798   0.226 -0.0676 -0.6417 -1.2891
  618MOL0     H83419   7.355  10.619   0.076  0.6386  3.5432  2.3794
  618MOL0     H83420   7.247  10.505  -0.151  1.8256  1.4759  2.8658
  618MOL0     H83421   7.177  10.341  -0.174 -1.2435 -1.4671  2.0196
  618MOL0     H83422   6.956  10.412  -0.102  1.4935 -1.9052  0.1666
  618MOL0     H83423   7.006  10.492  -0.249  2.4427 -1.6371  0.2846
  618MOL0     H83424   7.093  10.684  -0.090  1.4089 -0.9376  0.4538
  618MOL0     H83425   6.980  10.639   0.018  1.9595  0.0102  0.3801
  618MOL0     H83426   6.792  10.652  -0.152 -2.3110  1.9233 -1.9084
  618MOL0     H83427   6.909  10.706  -0.271  0.2518  2.6298  0.8778
  618MOL0     H83428   6.781  11.048  -0.065 -1.3097 -0.6141 -0.6296
  618MOL0     H83429   7.014  10.393   0.199 -0.8875 -0.1391 -0.1483
  618MOL0     H83430   6.959  10.576   0.368 -0.6195  2.3217 -0.8148
  619MOL0     O83431   7.743   5.170   8.958 -0.6169 -0.0885 -0.3590
  619MOL0     C83432   7.842   5.230   8.987 -0.0051 -0.0838  1.3906
  619MOL0     O83433   7.969   5.177   8.957 -0.4228 -0.0833  0.1984
  619MOL0     C83434   7.977   5.048   8.914 -0.1600  0.2710  0.3054
  619MOL0     C83435   8.058   5.017   8.805  0.1392  0.3465 -0.5444
  619MOL0     C83436   8.066   4.889   8.755 -0.1717  0.2937  0.5683
  619MOL0     C83437   7.990   4.778   8.808  0.1170  0.2109 -1.2080
  619MOL0     O83438   7.990   4.653   8.763 -0.3280  0.0422 -0.6105
  619MOL0     C83439   7.877   4.574   8.765 -0.2853  0.4176  0.1945
  619MOL0     C83440   7.889   4.461   8.657 -0.8159 -0.1804  0.2377
  619MOL0     C83441   7.835   4.328   8.711  0.0798 -0.4389  1.2532
  619MOL0     C83442   7.861   4.207   8.614 -0.0028 -0.2429  0.4622
  619MOL0     C83443   7.768   4.094   8.651 -0.6576 -0.3840  0.9020
  619MOL0     C83444   7.796   3.952   8.587 -0.6544  0.1041 -0.2776
  619MOL0     C83445   7.942   3.905   8.636 -0.5148 -0.2534 -0.2777
  619MOL0     C83446   7.972   3.758   8.642  0.2416  0.3931 -0.5596
  619MOL0     N83447   7.934   3.680   8.525  0.3355  0.9896  1.3454
  619MOL0     C83448   7.964   3.697   8.389  0.1253 -0.2390 -0.1536
  619MOL0     C83449   7.904   3.591   8.323 -0.3222 -0.0290  0.8757
  619MOL0     C83450   7.880   3.577   8.169  0.5385 -0.6688  0.0999
  619MOL0     C83451   7.890   3.714   8.096 -0.1159 -0.8558  0.5714
  619MOL0     C83452   7.750   3.773   8.064 -0.2730 -0.8190  0.0897
  619MOL0     C83453   7.672   3.830   8.196  0.1456 -0.2137  0.7950
  619MOL0     O83454   7.745   3.938   8.252 -0.2182  0.0453  0.4214
  619MOL0     C83455   7.697   4.067   8.255  1.0269 -0.1545  0.1481
  619MOL0     C83456   7.794   4.167   8.247 -0.0473 -0.7495 -0.1712
  619MOL0     C83457   7.752   4.309   8.247 -0.5838  0.3317  0.1274
  619MOL0     C83458   7.870   4.400   8.249  0.2305  0.4828  0.0994
  619MOL0     C83459   7.620   4.339   8.232  0.5123  0.5299 -0.6528
  619MOL0     C83460   7.570   4.475   8.221  1.0872  0.2349 -0.7016
  619MOL0     O83461   7.440   4.478   8.170  0.4338  0.3669 -0.1504
  619MOL0     C83462   7.383   4.604   8.157  0.4301 -0.1898 -0.3075
  619MOL0     C83463   7.321   4.660   8.270  0.1098 -0.4982  0.8563
  619MOL0     C83464   7.258   4.782   8.259 -0.0415 -0.6449 -0.0955
  619MOL0     C83465   7.246   4.851   8.132 -1.1739 -0.9311  0.2601
  619MOL0     O83466   7.190   4.974   8.110  0.2316  0.1362  0.1985
  619MOL0     C83467   7.075   4.971   8.029  0.2050 -0.0997 -0.4201
  619MOL0     C83468   7.008   5.110   8.023  0.7556 -0.7038 -0.8858
  619MOL0     C83469   6.878   5.130   7.942 -0.9933 -0.1777  0.2106
  619MOL0     C83470   6.776   5.017   7.965 -0.9072 -0.2495 -0.3959
  619MOL0     C83471   6.668   5.008   7.864 -0.5392 -0.2659 -0.3508
  619MOL0     C83472   6.578   4.886   7.891  0.8839  0.6843 -0.3251
  619MOL0     C83473   6.479   4.864   7.775  0.4891  0.2684 -0.9017
  619MOL0     C83474   6.397   4.739   7.815  0.0454 -0.2890  0.6312
  619MOL0    Cl83475   6.497   4.580   7.826 -0.0139  0.3696  0.5578
  619MOL0     C83476   7.308   4.782   8.024 -0.4829 -0.8358 -0.6222
  619MOL0     C83477   7.382   4.664   8.036  0.8096  1.0326 -0.4645
  619MOL0     O83478   7.624   4.572   8.269 -0.2617 -0.2389 -0.6097
  619MOL0     C83479   7.527   4.235   8.244 -0.1984  0.6011 -0.1407
  619MOL0     C83480   7.564   4.096   8.254  0.0450  0.3351  0.2681
  619MOL0     N83481   7.844   3.503   8.408  0.5513 -0.2527 -1.2690
  619MOL0     N83482   7.859   3.560   8.523  0.9691 -0.4327 -0.9417
  619MOL0     C83483   7.926   4.804   8.929 -0.1638 -0.0338 -0.1647
  619MOL0     C83484   7.921   4.939   8.986 -0.1341 -0.3881 -0.1456
  619MOL0     C83485   7.827   5.367   9.040  0.1831  0.1677 -0.4723
  619MOL0     C83486   7.938   5.430   9.091  0.5481 -0.4746 -0.2931
  619MOL0     C83487   7.933   5.544   9.157 -0.5000 -0.0336  0.4484
  619MOL0     C83488   7.814   5.612   9.167 -0.7533  0.0064 -0.1142
  619MOL0     O83489   7.806   5.738   9.226 -0.0100  0.9818 -0.3559
  619MOL0     C83490   7.747   5.844   9.146  0.0944  0.3566 -0.8598
  619MOL0     C83491   7.851   5.904   9.058 -0.4549 -0.0267 -0.3775
  619MOL0     C83492   7.976   5.962   9.141  0.3414  0.2231 -0.4034
  619MOL0     C83493   8.094   5.987   9.053  0.3856  0.3183 -0.1923
  619MOL0     C83494   8.065   6.064   8.927  1.0557  1.3201 -0.0102
  619MOL0     C83495   8.038   6.113   8.823  0.7192 -0.7356  0.2769
  619MOL0     C83496   7.700   5.549   9.122  0.2105 -0.2824  0.0346
  619MOL0     C83497   7.699   5.427   9.060  0.2619  0.4396 -0.1087
  619MOL0     H83498   8.103   5.099   8.751 -2.0120  2.1846  0.2930
  619MOL0     H83499   8.119   4.858   8.665 -1.5300 -4.6929  1.1557
  619MOL0     H83500   7.870   4.530   8.865  0.3766  0.6724  0.3584
  619MOL0     H83501   7.781   4.626   8.771 -1.0687 -0.9366  0.0188
  619MOL0     H83502   7.835   4.495   8.569 -0.9865 -1.8147 -0.3305
  619MOL0     H83503   7.995   4.453   8.631 -0.9194  0.2553 -0.3422
  619MOL0     H83504   7.887   4.298   8.803  2.2657 -3.5176 -0.8044
  619MOL0     H83505   7.728   4.342   8.732 -0.2891 -0.2278 -0.6510
  619MOL0     H83506   7.852   4.246   8.513  1.5716  1.5939  0.9634
  619MOL0     H83507   7.964   4.173   8.628 -0.7819 -3.1050 -0.1296
  619MOL0     H83508   7.777   4.077   8.759 -0.9353 -1.2898  0.7897
  619MOL0     H83509   7.666   4.130   8.631 -0.4286 -0.1882  0.0258
  619MOL0     H83510   7.713   3.897   8.633 -2.0719  1.1906 -1.4396
  619MOL0     H83511   7.781   3.943   8.479  1.5259  2.6641 -0.8974
  619MOL0     H83512   8.018   3.941   8.567  2.8584 -1.6582  2.3878
  619MOL0     H83513   7.972   3.956   8.728 -2.1463 -0.5404  0.4463
  619MOL0     H83514   7.919   3.702   8.720 -3.1460  1.6624 -1.7813
  619MOL0     H83515   8.081   3.763   8.653  0.7256 -0.6210 -3.7608
  619MOL0     H83516   8.028   3.774   8.347  1.8770 -1.1620  0.7294
  619MOL0     H83517   7.942   3.511   8.107 -0.7823 -0.4442 -1.5587
  619MOL0     H83518   7.778   3.541   8.151 -1.3041  3.3766  1.2005
  619MOL0     H83519   7.933   3.671   8.005 -1.5038 -0.5665 -0.2524
  619MOL0     H83520   7.958   3.786   8.144  1.5211 -1.5492 -0.5906
  619MOL0     H83521   7.698   3.690   8.015 -2.1922  0.0677  0.5359
  619MOL0     H83522   7.771   3.843   7.982 -2.4030 -0.0887  0.1129
  619MOL0     H83523   7.668   3.744   8.263  0.3520 -1.7840 -1.1274
  619MOL0     H83524   7.571   3.854   8.163  0.8975 -2.3366 -3.9347
  619MOL0     H83525   7.897   4.137   8.230  0.2623  0.9736 -1.5557
  619MOL0     H83526   7.844   4.479   8.176 -2.0937 -2.4769 -2.5909
  619MOL0     H83527   7.885   4.443   8.348 -0.5474  0.3138  0.2995
  619MOL0     H83528   7.964   4.351   8.224  0.2798 -0.2039  1.5821
  619MOL0     H83529   7.333   4.595   8.356  1.5631 -0.8988  0.3889
  619MOL0     H83530   7.212   4.822   8.348  1.4781 -1.9983  1.3646
  619MOL0     H83531   7.086   4.940   7.925  4.6624 -0.0583 -0.1740
  619MOL0     H83532   7.013   4.918   8.102  0.8595  2.9385  2.6644
  619MOL0     H83533   6.986   5.122   8.130  4.9396 -1.4082  0.2433
  619MOL0     H83534   7.088   5.180   7.998  0.6648 -0.3841 -0.3067
  619MOL0     H83535   6.894   5.143   7.835 -1.3202 -1.7500 -0.0471
  619MOL0     H83536   6.820   5.216   7.979 -2.2084 -0.5463 -0.7534
  619MOL0     H83537   6.842   4.929   7.961  2.6646  2.1621  0.7889
  619MOL0     H83538   6.736   5.027   8.067 -0.2156  1.3001 -0.2485
  619MOL0     H83539   6.707   4.996   7.763  0.0099 -1.8634  0.0347
  619MOL0     H83540   6.612   5.102   7.859  1.1294  0.8026  0.1900
  619MOL0     H83541   6.640   4.796   7.896  1.2877  0.8016 -2.4832
  619MOL0     H83542   6.526   4.902   7.986  6.6359 -0.6126  3.5512
  619MOL0     H83543   6.528   4.869   7.678  2.0484  2.3157 -0.0866
  619MOL0     H83544   6.406   4.945   7.765 -0.4800 -0.4528  0.0271
  619MOL0     H83545   6.327   4.737   7.731  2.9098  1.0739 -1.9839
  619MOL0     H83546   6.347   4.744   7.912 -2.9033  1.1898 -0.8360
  619MOL0     H83547   7.311   4.837   7.930  1.2006  1.6577  0.7641
  619MOL0     H83548   7.446   4.618   7.961  1.2057 -2.7671  1.9338
  619MOL0     H83549   7.421   4.251   8.230 -0.5508  2.4956  3.5465
  619MOL0     H83550   7.484   4.022   8.252 -0.1778  0.2756  4.0410
  619MOL0     H83551   7.864   4.727   8.974  1.5227  0.4416  3.3650
  619MOL0     H83552   7.872   4.959   9.080 -0.9552  0.3020 -0.7051
  619MOL0     H83553   8.037   5.388   9.107  0.4466 -0.9106 -0.7710
  619MOL0     H83554   8.026   5.592   9.186  1.2297 -3.2516  0.7025
  619MOL0     H83555   7.669   5.803   9.082 -0.1714 -0.9099  0.2323
  619MOL0     H83556   7.711   5.916   9.221 -0.2437 -3.8087  3.4512
  619MOL0     H83557   7.812   5.981   8.991 -0.2111  0.2072 -0.2515
  619MOL0     H83558   7.881   5.828   8.986 -2.2073  0.6327 -1.8887
  619MOL0     H83559   8.014   5.900   9.223  2.7382  1.0045 -0.8413
  619MOL0     H83560   7.946   6.055   9.190 -1.4361 -0.6401  0.2229
  619MOL0     H83561   8.154   5.907   9.010 -0.5243 -1.2032  1.2507
  619MOL0     H83562   8.180   6.025   9.109  1.2793  0.8946 -1.9012
  619MOL0     H83563   8.009   6.166   8.735  0.2768  0.5990  1.1937
  619MOL0     H83564   7.612   5.609   9.141  0.0142 -0.2419 -0.9267
  619MOL0     H83565   7.605   5.389   9.021 -0.2539  2.8961 -1.4358
  620MOL0     O83566   9.286   1.493  11.005  0.0820  0.0907 -0.1187
  620MOL0     C83567   9.379   1.446  10.934 -0.8313 -0.5027  0.1656
  620MOL0     O83568   9.470   1.353  10.974 -0.4449 -0.4984  0.8343
  620MOL0     C83569   9.473   1.304  11.103  0.0896 -0.0332 -0.3345
  620MOL0     C83570   9.437   1.363  11.229  0.0496 -0.5362 -0.2228
  620MOL0     C83571   9.442   1.287  11.346 -0.1949 -0.4311  0.3574
  620MOL0     C83572   9.478   1.158  11.344  0.7113 -0.9839 -0.4132
  620MOL0     O83573   9.484   1.076  11.463  0.0284 -0.1068  0.1049
  620MOL0     C83574   9.398   1.100  11.574  1.0100  0.1769 -0.2623
  620MOL0     C83575   9.429   1.001  11.681  0.3329 -0.0050  0.0592
  620MOL0     C83576   9.339   1.024  11.793 -0.2870 -0.0924  0.1494
  620MOL0     C83577   9.315   0.894  11.873  0.0898  0.7401 -0.6909
  620MOL0     C83578   9.430   0.872  11.978 -0.0855  0.7083  0.2442
  620MOL0     C83579   9.421   0.731  12.037 -0.8230 -0.4631 -0.2405
  620MOL0     C83580   9.510   0.724  12.153  0.1681 -0.7062  0.3646
  620MOL0     C83581   9.536   0.582  12.187 -0.1070  0.0154 -0.4784
  620MOL0     N83582   9.592   0.558  12.323 -0.5240  0.1330 -0.6658
  620MOL0     C83583   9.711   0.493  12.344  0.3481  0.2731  0.1121
  620MOL0     C83584   9.729   0.475  12.477  1.5755  0.2777  0.9824
  620MOL0     C83585   9.827   0.396  12.541 -0.7111  0.1463  0.0294
  620MOL0     C83586   9.972   0.464  12.536  0.8120 -0.0253 -0.1282
  620MOL0     C83587   9.984   0.604  12.600 -0.7511 -0.2370 -0.6437
  620MOL0     C83588  10.121   0.600  12.682 -0.7239 -0.7716  0.0308
  620MOL0     O83589  10.131   0.536  12.810  0.5563 -0.2000 -0.0736
  620MOL0     C83590  10.254   0.518  12.866  0.4822 -0.6006  0.2702
  620MOL0     C83591  10.255   0.433  12.979  0.1018  0.3290  0.8111
  620MOL0     C83592  10.364   0.401  13.056  0.0065 -0.5638 -0.0424
  620MOL0     C83593  10.341   0.310  13.180 -0.4283 -0.8936  0.0897
  620MOL0     C83594  10.486   0.455  13.021 -0.4495  0.1209  0.2953
  620MOL0     C83595  10.606   0.418  13.100  0.7291  0.5367 -0.2292
  620MOL0     O83596  10.717   0.384  13.033 -1.0176 -1.0011  0.3084
  620MOL0     C83597  10.834   0.353  13.111  0.5212 -0.2486 -0.0592
  620MOL0     C83598  10.963   0.423  13.099 -0.8550  0.4186 -0.0443
  620MOL0     C83599  11.087   0.361  13.160 -0.3391 -0.3284  0.2592
  620MOL0     C83600  11.069   0.246  13.244  0.0267 -0.0107  0.4596
  620MOL0     O83601  11.175   0.182  13.307 -0.8486 -0.5497 -0.1641
  620MOL0     C83602  11.303   0.258  13.324  0.1740  0.5488  0.4384
  620MOL0     C83603  11.397   0.180  13.418  0.1180  0.4252 -0.5479
  620MOL0     C83604  11.496   0.259  13.501  0.3821  0.6804  0.4234
  620MOL0     C83605  11.576   0.156  13.586 -0.1225 -0.1104  0.8556
  620MOL0     C83606  11.678   0.237  13.653 -0.0702  0.9503  0.3378
  620MOL0     C83607  11.759   0.156  13.766 -0.1527  0.4011 -0.0494
  620MOL0     C83608  11.834   0.026  13.733  0.1708 -0.1143  0.6226
  620MOL0     C83609  11.919   0.038  13.605  0.5799 -0.1272  0.0291
  620MOL0    Cl83610  12.013  -0.110  13.593  0.4505  0.2745 -0.2657
  620MOL0     C83611  10.950   0.177  13.250  0.3931 -1.3030 -0.2948
  620MOL0     C83612  10.838   0.223  13.177 -0.4474  0.6463 -0.1392
  620MOL0     O83613  10.593   0.432  13.222 -0.5169 -0.0924  0.1348
  620MOL0     C83614  10.495   0.535  12.909  0.0621  0.2014 -1.6192
  620MOL0     C83615  10.385   0.569  12.834  0.4940  0.1508  0.2461
  620MOL0     N83616   9.609   0.527  12.536  0.5068  0.0845 -0.4013
  620MOL0     N83617   9.532   0.570  12.439  0.7866 -0.1452  0.0640
  620MOL0     C83618   9.512   1.100  11.227 -0.2124 -0.7816 -0.0349
  620MOL0     C83619   9.524   1.173  11.111  0.6824  1.1353  0.0390
  620MOL0     C83620   9.380   1.516  10.801  0.7921 -0.1363  0.3793
  620MOL0     C83621   9.273   1.595  10.761 -0.9156 -0.1205 -0.8432
  620MOL0     C83622   9.280   1.655  10.640  0.0106 -0.1622 -0.3620
  620MOL0     C83623   9.393   1.646  10.554  0.7133  0.3879  0.3501
  620MOL0     O83624   9.401   1.682  10.420  0.7966 -0.1650  0.1699
  620MOL0     C83625   9.307   1.783  10.366 -0.6498 -1.0838  0.5834
  620MOL0     C83626   9.201   1.731  10.259  0.8966 -0.1252  0.0702
  620MOL0     C83627   9.114   1.846  10.201 -0.1915  0.7137  0.0087
  620MOL0     C83628   9.015   1.807  10.085 -0.4849  0.4717 -0.0054
  620MOL0     C83629   8.926   1.919  10.064  0.0276 -0.1469 -0.0781
  620MOL0     C83630   8.834   1.993  10.040 -0.1936  0.3985  0.1102
  620MOL0     C83631   9.494   1.556  10.600  0.0112 -1.8837  0.3037
  620MOL0     C83632   9.490   1.489  10.719  0.2712  0.1447 -0.5531
  620MOL0     H83633   9.405   1.466  11.243  0.8240 -0.6930  4.3068
  620MOL0     H83634   9.417   1.334  11.441  1.5900  0.4857  0.4075
  620MOL0     H83635   9.410   1.206  11.598  1.4812  0.2357 -0.7260
  620MOL0     H83636   9.294   1.089  11.542  0.8724  1.8885 -0.5072
  620MOL0     H83637   9.443   0.901  11.641 -3.0595 -1.4935  2.1769
  620MOL0     H83638   9.527   1.030  11.719  0.0520  1.4313 -0.2524
  620MOL0     H83639   9.384   1.097  11.861 -1.2151 -3.1972  4.6266
  620MOL0     H83640   9.245   1.064  11.754  2.4009  3.5017 -3.5409
  620MOL0     H83641   9.218   0.886  11.922 -0.7615 -0.5534 -2.4942
  620MOL0     H83642   9.322   0.814  11.799  5.6437 -0.1995  0.3297
  620MOL0     H83643   9.528   0.879  11.931  0.1535  2.7155  0.9275
  620MOL0     H83644   9.427   0.945  12.060  0.6415  2.5304 -1.2802
  620MOL0     H83645   9.320   0.697  12.063  0.1656 -0.1766  4.8139
  620MOL0     H83646   9.462   0.667  11.958  3.1363  1.1492  0.2976
  620MOL0     H83647   9.596   0.785  12.125  0.5330 -3.0087 -4.3902
  620MOL0     H83648   9.466   0.767  12.244 -3.7022  1.5981 -2.2889
  620MOL0     H83649   9.605   0.547  12.110 -0.3382  0.9570 -1.1324
  620MOL0     H83650   9.445   0.521  12.186  0.5942 -1.0564 -0.5571
  620MOL0     H83651   9.776   0.455  12.265  1.5919  2.3648  0.0647
  620MOL0     H83652   9.798   0.393  12.647  2.2807 -1.1495  0.8985
  620MOL0     H83653   9.831   0.294  12.503 -0.8279  0.0468  0.2823
  620MOL0     H83654   9.997   0.473  12.430 -1.7210  3.1184 -0.6387
  620MOL0     H83655  10.042   0.393  12.579  0.3395 -0.1368  0.4798
  620MOL0     H83656   9.901   0.621  12.670  0.6605  1.4108  0.7258
  620MOL0     H83657   9.979   0.677  12.519 -2.5125 -0.0357 -0.3886
  620MOL0     H83658  10.132   0.708  12.697  2.6648 -1.1115  0.9373
  620MOL0     H83659  10.203   0.569  12.616 -0.8403 -0.7107 -0.1423
  620MOL0     H83660  10.157   0.387  12.984 -0.8144  1.1962 -4.0642
  620MOL0     H83661  10.282   0.369  13.251  0.3634 -0.4884  0.4174
  620MOL0     H83662  10.286   0.221  13.147 -1.3547 -0.1424 -0.4663
  620MOL0     H83663  10.427   0.273  13.236 -0.8534  2.3474  3.2993
  620MOL0     H83664  10.953   0.513  13.040 -2.5536  1.6650  2.0360
  620MOL0     H83665  11.187   0.394  13.135  0.2288 -1.1675  1.3576
  620MOL0     H83666  11.352   0.272  13.227  0.7327  0.9052  0.7657
  620MOL0     H83667  11.282   0.355  13.370 -1.3238 -0.4014  1.8650
  620MOL0     H83668  11.341   0.115  13.486 -0.2333 -0.6395 -1.8111
  620MOL0     H83669  11.453   0.103  13.364 -0.1784 -0.6265  0.5928
  620MOL0     H83670  11.437   0.326  13.563 -1.7776 -1.3690  0.7451
  620MOL0     H83671  11.562   0.306  13.428  1.6908  2.3225  2.5575
  620MOL0     H83672  11.511   0.100  13.654  0.8287 -1.0444  1.0114
  620MOL0     H83673  11.629   0.088  13.518 -1.5855  0.1804 -0.6535
  620MOL0     H83674  11.634   0.327  13.697 -0.3555  1.8837 -1.7427
  620MOL0     H83675  11.751   0.268  13.577  2.9262 -1.0716  2.2033
  620MOL0     H83676  11.832   0.226  13.807  1.3826 -1.2831  0.2186
  620MOL0     H83677  11.691   0.127  13.847 -0.4444  0.1747 -0.3720
  620MOL0     H83678  11.756  -0.049  13.717 -2.6116  1.7877  3.9911
  620MOL0     H83679  11.894   0.003  13.821  1.4895  1.6546  0.2442
  620MOL0     H83680  12.005   0.104  13.619 -0.1376  0.4579  1.8711
  620MOL0     H83681  11.857   0.061  13.518 -0.8343 -1.7227  0.5652
  620MOL0     H83682  10.963   0.078  13.293 -1.5909 -0.9309  1.3584
  620MOL0     H83683  10.750   0.163  13.196 -0.4791 -0.1079 -2.3348
  620MOL0     H83684  10.587   0.578  12.872  0.5347  2.1572  1.4760
  620MOL0     H83685  10.400   0.626  12.743  0.7885 -0.9552 -0.4166
  620MOL0     H83686   9.531   0.995  11.247  0.0343 -0.7188  0.0714
  620MOL0     H83687   9.550   1.117  11.022  1.3935 -0.4848  1.2113
  620MOL0     H83688   9.202   1.628  10.836  2.3965 -0.0033  2.5492
  620MOL0     H83689   9.200   1.703  10.586  0.5665  2.1505  0.7529
  620MOL0     H83690   9.245   1.839  10.436 -0.7494  0.1227 -0.4343
  620MOL0     H83691   9.363   1.854  10.304 -3.2288 -3.2725 -5.0188
  620MOL0     H83692   9.135   1.667  10.318 -0.1064  0.8958  0.0805
  620MOL0     H83693   9.246   1.678  10.175  0.9799 -2.3288  1.4242
  620MOL0     H83694   9.185   1.913  10.151  2.1089 -1.6868 -0.1749
  620MOL0     H83695   9.065   1.904  10.280 -0.9801  0.6934 -0.4619
  620MOL0     H83696   8.953   1.721  10.112 -0.9543  0.5071 -0.9404
  620MOL0     H83697   9.070   1.768   9.999 -0.5003 -1.7862  0.9391
  620MOL0     H83698   8.745   2.052  10.028  1.3326  2.6934 -0.7848
  620MOL0     H83699   9.581   1.546  10.536 -1.5640 -1.0257 -2.1166
  620MOL0     H83700   9.577   1.433  10.751  0.7098  2.1043  2.0402
  621MOL0     O83701   7.435   8.107   7.837  0.4259 -0.5111  0.1532
  621MOL0     C83702   7.514   8.186   7.885 -0.0059 -0.8533  1.5604
  621MOL0     O83703   7.503   8.327   7.886  0.0663  0.3748 -0.2316
  621MOL0     C83704   7.400   8.406   7.842  0.0711  0.6762  0.0173
  621MOL0     C83705   7.425   8.543   7.838  0.4779  0.5117  1.6725
  621MOL0     C83706   7.323   8.640   7.807  0.0037  0.6802  0.7944
  621MOL0     C83707   7.194   8.601   7.768 -1.2190  0.0923 -0.1677
  621MOL0     O83708   7.091   8.701   7.765  0.7111 -0.2318  0.4239
  621MOL0     C83709   6.984   8.687   7.668  0.3087 -0.0335  0.6829
  621MOL0     C83710   6.866   8.608   7.732 -0.1424  0.2638 -0.6367
  621MOL0     C83711   6.784   8.529   7.634  0.2118 -1.3405  0.0723
  621MOL0     C83712   6.685   8.615   7.542 -0.0788  0.6244  0.2496
  621MOL0     C83713   6.567   8.517   7.493 -0.5339 -0.2403  0.0826
  621MOL0     C83714   6.468   8.599   7.416  0.0416 -1.0695 -0.0023
  621MOL0     C83715   6.376   8.509   7.332 -0.5817 -0.3773 -0.5325
  621MOL0     C83716   6.274   8.592   7.259 -0.3198 -1.8136 -0.4722
  621MOL0     N83717   6.209   8.526   7.144 -0.2111 -0.5641 -0.0183
  621MOL0     C83718   6.122   8.421   7.163 -0.4104  0.5863  0.2595
  621MOL0     C83719   6.058   8.398   7.051  0.5429 -0.0051  0.4242
  621MOL0     C83720   5.952   8.287   7.034  0.0490 -0.9169 -0.1190
  621MOL0     C83721   5.813   8.335   7.081 -0.8128  0.3880 -1.4421
  621MOL0     C83722   5.740   8.424   6.987 -0.0886  0.1415 -0.9406
  621MOL0     C83723   5.671   8.545   7.046  0.6771  0.1876  0.9364
  621MOL0     O83724   5.568   8.592   6.963  0.0152  0.8526 -0.0800
  621MOL0     C83725   5.458   8.651   7.028  1.4745 -0.1009  1.0417
  621MOL0     C83726   5.467   8.709   7.156 -0.2455  0.3516  0.5581
  621MOL0     C83727   5.364   8.779   7.215  0.7997  0.2109 -1.0427
  621MOL0     C83728   5.397   8.866   7.339  0.7419 -0.6507  0.4573
  621MOL0     C83729   5.233   8.776   7.153 -0.8156  0.3896 -1.0162
  621MOL0     C83730   5.107   8.845   7.210 -0.0440 -0.3860 -0.4412
  621MOL0     O83731   4.997   8.839   7.132 -0.2573 -0.3493  0.2122
  621MOL0     C83732   4.874   8.867   7.188  0.0258  0.0459  0.0249
  621MOL0     C83733   4.780   8.946   7.125 -0.1580 -0.2484 -0.6006
  621MOL0     C83734   4.657   8.963   7.183  0.1206  0.5272  0.2985
  621MOL0     C83735   4.619   8.904   7.304 -0.7101  0.3066 -0.9506
  621MOL0     O83736   4.498   8.920   7.378 -0.2886  1.3620  0.6169
  621MOL0     C83737   4.382   8.983   7.312  0.4646 -0.4733  0.4908
  621MOL0     C83738   4.261   8.921   7.390  0.5826 -1.2676 -0.5805
  621MOL0     C83739   4.129   8.995   7.336  0.1544 -0.2305  0.4387
  621MOL0     C83740   3.998   8.956   7.395 -0.2285 -0.0101  0.5480
  621MOL0     C83741   3.894   9.070   7.399 -0.1270 -0.0502 -0.1337
  621MOL0     C83742   3.754   9.019   7.435  1.0313  0.1967  0.3395
  621MOL0     C83743   3.673   9.143   7.479 -0.1291 -0.0658  0.4593
  621MOL0     C83744   3.537   9.084   7.527 -0.0356 -0.0834  0.2875
  621MOL0    Cl83745   3.450   9.043   7.381 -0.3524  0.1138  0.2427
  621MOL0     C83746   4.724   8.839   7.377  0.4952 -0.0941  0.2189
  621MOL0     C83747   4.844   8.814   7.317 -1.4331 -0.5597 -0.2863
  621MOL0     O83748   5.109   8.911   7.314 -0.0258 -0.7090  0.5939
  621MOL0     C83749   5.223   8.708   7.033  0.2835 -0.3927 -1.0283
  621MOL0     C83750   5.334   8.654   6.967  0.1563  1.1456  0.1539
  621MOL0     N83751   6.083   8.501   6.964 -0.7982 -0.0316  1.3827
  621MOL0     N83752   6.180   8.578   7.024 -0.6054 -0.5838  0.3193
  621MOL0     C83753   7.183   8.460   7.742  0.0349  0.4131  0.5590
  621MOL0     C83754   7.279   8.368   7.787  0.5595  0.7349  0.7560
  621MOL0     C83755   7.637   8.126   7.944  0.3735 -0.0693 -0.0534
  621MOL0     C83756   7.756   8.198   7.940  0.4058  0.3141 -0.2455
  621MOL0     C83757   7.879   8.140   7.973  0.8327  0.2068  0.5191
  621MOL0     C83758   7.883   8.006   7.992  0.3537 -0.1896  0.6882
  621MOL0     O83759   8.000   7.946   8.011 -0.7538  0.0169 -0.2041
  621MOL0     C83760   8.069   7.988   8.127  0.2197  0.1585  0.4841
  621MOL0     C83761   7.988   7.940   8.252 -1.0227  0.2669 -0.0953
  621MOL0     C83762   8.026   7.793   8.286  0.0555  0.8256  0.3817
  621MOL0     C83763   7.952   7.692   8.208  0.4525 -0.0564 -0.3624
  621MOL0     C83764   7.969   7.555   8.270  0.5890 -0.0996  0.0116
  621MOL0     C83765   7.991   7.444   8.305  0.3704 -0.2878  0.1530
  621MOL0     C83766   7.764   7.933   8.011  0.4030 -0.3200  0.1465
  621MOL0     C83767   7.642   7.996   7.988  0.5714  0.0238  0.1457
  621MOL0     H83768   7.521   8.571   7.880  1.0040  1.4278 -0.0487
  621MOL0     H83769   7.346   8.744   7.824  1.6055  0.7735 -1.5741
  621MOL0     H83770   6.947   8.783   7.632 -0.9491 -1.7841 -3.1806
  621MOL0     H83771   7.015   8.624   7.585 -1.7725 -0.1229 -0.0973
  621MOL0     H83772   6.893   8.539   7.812 -0.1447  2.6542  1.5837
  621MOL0     H83773   6.798   8.681   7.779 -2.7860 -1.5368 -1.4599
  621MOL0     H83774   6.854   8.463   7.582 -0.3646 -0.3749 -2.0108
  621MOL0     H83775   6.732   8.460   7.701  2.7263 -1.0598  2.5177
  621MOL0     H83776   6.650   8.704   7.594 -1.3547  0.3489 -0.1077
  621MOL0     H83777   6.734   8.665   7.457 -0.3510 -0.9000 -0.8542
  621MOL0     H83778   6.608   8.432   7.438 -0.0420  1.3642 -2.1440
  621MOL0     H83779   6.512   8.476   7.578 -1.8323  0.2368 -0.5061
  621MOL0     H83780   6.394   8.637   7.487 -0.9737 -3.0085  0.0740
  621MOL0     H83781   6.510   8.682   7.359 -0.0749 -1.2109 -0.3000
  621MOL0     H83782   6.440   8.461   7.257  0.0123  1.8148 -1.5198
  621MOL0     H83783   6.337   8.432   7.398  1.4402 -1.2437 -0.2701
  621MOL0     H83784   6.324   8.681   7.220 -1.0827 -1.0145  0.3126
  621MOL0     H83785   6.199   8.637   7.324 -1.6969 -1.3979 -2.2827
  621MOL0     H83786   6.097   8.364   7.252 -2.3736 -2.4733 -2.0569
  621MOL0     H83787   5.954   8.244   6.933 -4.3292 -0.0077 -0.7630
  621MOL0     H83788   5.982   8.202   7.096 -0.3666 -0.5896  0.5439
  621MOL0     H83789   5.835   8.394   7.171  1.6591 -0.2122 -1.5966
  621MOL0     H83790   5.747   8.250   7.097 -0.0358 -0.0920 -0.7013
  621MOL0     H83791   5.678   8.351   6.935  0.8949 -1.4241 -0.0097
  621MOL0     H83792   5.821   8.459   6.923  0.1429  0.6199 -0.4003
  621MOL0     H83793   5.746   8.622   7.067  2.7134 -1.1297 -1.0285
  621MOL0     H83794   5.619   8.514   7.137 -3.4719 -0.7998 -1.5393
  621MOL0     H83795   5.559   8.707   7.213  0.9219  0.8546 -1.2347
  621MOL0     H83796   5.347   8.823   7.426  1.3113 -1.2535  0.4924
  621MOL0     H83797   5.505   8.860   7.358  0.6500 -2.0965  0.5852
  621MOL0     H83798   5.361   8.968   7.322 -1.4173 -1.1400  1.7880
  621MOL0     H83799   4.796   8.998   7.031 -0.5149  0.1804 -0.4279
  621MOL0     H83800   4.578   9.011   7.128 -0.6185 -1.5752 -0.5933
  621MOL0     H83801   4.386   9.089   7.336 -1.7229  0.1214 -1.5387
  621MOL0     H83802   4.370   8.950   7.208 -1.0307  0.0447  0.4872
  621MOL0     H83803   4.253   8.812   7.381  3.4054 -1.5955 -0.1697
  621MOL0     H83804   4.262   8.942   7.497 -0.3446  2.0843 -1.1376
  621MOL0     H83805   4.132   8.981   7.228 -0.6671  4.3164 -0.3729
  621MOL0     H83806   4.149   9.102   7.352 -2.0284 -0.0198  2.2864
  621MOL0     H83807   3.966   8.877   7.326  1.4675  0.9549 -1.4623
  621MOL0     H83808   4.009   8.909   7.494 -0.9383 -0.0075  0.6360
  621MOL0     H83809   3.886   9.122   7.303 -0.4747 -1.6857 -1.0256
  621MOL0     H83810   3.918   9.151   7.470 -2.2194  1.0833 -0.6452
  621MOL0     H83811   3.702   8.963   7.357 -1.7445  0.1121  2.1057
  621MOL0     H83812   3.758   8.950   7.520 -0.9637 -1.2420 -0.6621
  621MOL0     H83813   3.662   9.203   7.388  2.1303 -1.9391 -1.1760
  621MOL0     H83814   3.720   9.202   7.558  0.5322  1.1838 -0.8185
  621MOL0     H83815   3.468   9.147   7.583 -1.9271 -2.2001  0.4890
  621MOL0     H83816   3.573   9.002   7.591  0.3228 -0.1004  0.0629
  621MOL0     H83817   4.692   8.821   7.479 -0.0057 -1.9247 -0.2237
  621MOL0     H83818   4.912   8.755   7.377 -0.5192  0.3003 -0.4541
  621MOL0     H83819   5.135   8.704   6.970  1.3782  1.1119 -2.7655
  621MOL0     H83820   5.328   8.614   6.866 -2.7841  2.3697 -0.2606
  621MOL0     H83821   7.082   8.426   7.719  0.2335  0.2327 -0.0603
  621MOL0     H83822   7.253   8.264   7.772 -0.8033  1.0635  0.7476
  621MOL0     H83823   7.754   8.305   7.921 -4.5270  0.6659  0.8769
  621MOL0     H83824   7.970   8.199   7.967  2.8166 -2.6231  1.0026
  621MOL0     H83825   8.168   7.940   8.121 -0.2422 -0.7179 -0.6000
  621MOL0     H83826   8.071   8.097   8.133 -2.1831  0.3235 -0.5993
  621MOL0     H83827   7.882   7.959   8.264 -1.6366 -3.2863  1.4431
  621MOL0     H83828   8.036   8.003   8.327 -0.3647  2.5057 -2.2603
  621MOL0     H83829   8.044   7.787   8.393  1.4677  2.8057  0.3178
  621MOL0     H83830   8.131   7.778   8.257 -0.0949  1.5882 -0.6255
  621MOL0     H83831   7.976   7.693   8.101 -0.3378 -0.4702 -0.5517
  621MOL0     H83832   7.843   7.704   8.211  0.3426 -1.2143  0.9635
  621MOL0     H83833   7.992   7.347   8.351 -0.8930  0.1837  1.2554
  621MOL0     H83834   7.784   7.827   8.024  2.6876 -0.2082 -1.8403
  621MOL0     H83835   7.550   7.938   7.985  0.5167 -0.2001  3.0772
  622MOL0     O83836  11.069   2.437   2.418 -0.8023 -0.3791 -0.1889
  622MOL0     C83837  11.069   2.375   2.523  0.1310 -0.2895 -0.7709
  622MOL0     O83838  11.161   2.285   2.562 -0.2528  0.1261 -0.4894
  622MOL0     C83839  11.237   2.220   2.464 -0.5320 -1.2637  0.0341
  622MOL0     C83840  11.332   2.273   2.376  0.8976 -1.0014  0.2668
  622MOL0     C83841  11.404   2.186   2.285  0.4643 -1.1974  0.4498
  622MOL0     C83842  11.371   2.052   2.290 -0.8222 -1.1474  0.4904
  622MOL0     O83843  11.434   1.962   2.211  0.8998 -0.2004 -0.3956
  622MOL0     C83844  11.481   1.993   2.087 -0.9784  0.7417 -0.1502
  622MOL0     C83845  11.435   1.890   1.992  0.7695 -0.3440 -0.2529
  622MOL0     C83846  11.442   1.931   1.832  0.0699  0.0409 -0.2466
  622MOL0     C83847  11.436   1.812   1.746  0.3491  0.6105 -0.3205
  622MOL0     C83848  11.382   1.852   1.602 -0.8611  0.2528  0.1340
  622MOL0     C83849  11.453   1.974   1.541  0.3570 -0.3161 -0.3172
  622MOL0     C83850  11.415   1.986   1.387  0.4533 -1.2118 -0.8936
  622MOL0     C83851  11.263   2.010   1.367  0.9310  0.0580  0.7184
  622MOL0     N83852  11.199   2.137   1.381 -0.4938 -0.1348 -1.0966
  622MOL0     C83853  11.190   2.241   1.287 -1.1328  0.7509 -0.3645
  622MOL0     C83854  11.138   2.346   1.356  0.0756  1.2460 -0.2788
  622MOL0     C83855  11.129   2.490   1.313  0.0541  0.2699  0.0559
  622MOL0     C83856  11.005   2.531   1.234 -0.8203  0.5646  0.0818
  622MOL0     C83857  10.900   2.582   1.335 -0.3461 -0.7594  0.1249
  622MOL0     C83858  10.765   2.598   1.273  0.3210 -0.4517  0.9629
  622MOL0     O83859  10.659   2.579   1.363  0.6564 -0.6190  0.4430
  622MOL0     C83860  10.535   2.586   1.309 -0.5046 -0.5538  1.0826
  622MOL0     C83861  10.455   2.472   1.321 -0.6217 -0.4684 -0.2407
  622MOL0     C83862  10.335   2.466   1.264  0.0330  1.0212  0.5203
  622MOL0     C83863  10.271   2.329   1.264 -0.5812  0.6933  0.1699
  622MOL0     C83864  10.283   2.579   1.191  0.4400 -0.4426  0.5544
  622MOL0     C83865  10.133   2.583   1.158 -0.3264 -1.0299 -0.0017
  622MOL0     O83866  10.100   2.698   1.079  1.0834  0.1638 -0.3550
  622MOL0     C83867   9.969   2.695   1.033  0.3917 -0.9105  0.4403
  622MOL0     C83868   9.956   2.674   0.892 -0.7769  0.9953 -0.9234
  622MOL0     C83869   9.842   2.675   0.825  0.9721 -0.6399  0.9100
  622MOL0     C83870   9.723   2.718   0.904  0.3363 -0.1036 -0.7191
  622MOL0     O83871   9.598   2.733   0.865 -0.2808  0.4085 -0.4368
  622MOL0     C83872   9.580   2.717   0.720 -0.7083 -0.5659  0.2979
  622MOL0     C83873   9.435   2.770   0.685  0.6402  0.9325  0.1801
  622MOL0     C83874   9.328   2.673   0.729  0.5403 -0.5718 -0.3193
  622MOL0     C83875   9.195   2.750   0.739 -0.4349 -0.0514  0.1202
  622MOL0     C83876   9.108   2.708   0.864 -0.3356 -0.1217 -0.0431
  622MOL0     C83877   9.053   2.569   0.849  0.6474 -0.6888 -0.7181
  622MOL0     C83878   8.972   2.528   0.981  0.4914  0.6727 -0.1670
  622MOL0     C83879   8.944   2.378   0.988  0.2893  0.1012  0.4793
  622MOL0    Cl83880   8.912   2.336   1.160  0.1689  0.1457 -0.4026
  622MOL0     C83881   9.736   2.749   1.038 -0.4980  1.2794 -0.1590
  622MOL0     C83882   9.859   2.742   1.102  0.2046  0.1501  0.3649
  622MOL0     O83883  10.054   2.515   1.223  0.3911  0.0474  0.5197
  622MOL0     C83884  10.373   2.683   1.161  0.5235 -0.2243  0.0889
  622MOL0     C83885  10.491   2.698   1.231  0.7677  0.1947 -0.4730
  622MOL0     N83886  11.124   2.306   1.489 -1.0222 -0.3014 -0.4552
  622MOL0     N83887  11.161   2.184   1.497  0.2906 -0.1629 -1.1079
  622MOL0     C83888  11.295   2.005   2.388  0.2140  0.6442  1.0858
  622MOL0     C83889  11.224   2.081   2.480 -0.4633  0.8968  0.4655
  622MOL0     C83890  10.946   2.399   2.608 -0.1318  1.2719  0.4605
  622MOL0     C83891  10.842   2.476   2.567  0.9992 -0.4713  0.9575
  622MOL0     C83892  10.720   2.482   2.640  0.3624 -0.5613  0.5010
  622MOL0     C83893  10.713   2.419   2.766  1.4278 -0.2263 -0.6204
  622MOL0     O83894  10.593   2.436   2.829  0.1378 -0.4049  0.1183
  622MOL0     C83895  10.587   2.393   2.964  0.2497  1.2501 -0.1967
  622MOL0     C83896  10.548   2.247   2.980 -0.1077  0.5833  0.7222
  622MOL0     C83897  10.546   2.199   3.121  0.5216 -0.0335 -0.7990
  622MOL0     C83898  10.524   2.044   3.128  0.6111  1.2836  0.2021
  622MOL0     C83899  10.388   2.003   3.108  1.7231  0.6763 -0.5777
  622MOL0     C83900  10.281   1.944   3.113 -0.1855 -0.2702 -0.0942
  622MOL0     C83901  10.822   2.352   2.817 -0.0380  0.6318  0.7318
  622MOL0     C83902  10.932   2.347   2.736 -1.0208 -0.6470  0.5599
  622MOL0     H83903  11.344   2.381   2.370 -0.4983 -0.7502  1.3398
  622MOL0     H83904  11.459   2.240   2.208  2.3137 -3.7359 -0.1017
  622MOL0     H83905  11.445   2.091   2.054 -1.8645 -0.6150 -3.6217
  622MOL0     H83906  11.590   1.991   2.090 -0.9559 -1.8169 -0.5051
  622MOL0     H83907  11.492   1.798   2.008  2.8436  0.7910 -0.6468
  622MOL0     H83908  11.332   1.871   2.022  1.0920 -0.7501  0.6339
  622MOL0     H83909  11.368   2.005   1.802 -0.3170 -1.2827 -2.8092
  622MOL0     H83910  11.532   1.990   1.812  0.5649 -1.0171 -1.2664
  622MOL0     H83911  11.535   1.768   1.727 -0.4018 -1.3675  0.1792
  622MOL0     H83912  11.373   1.727   1.772  2.3005 -0.8521 -0.1028
  622MOL0     H83913  11.380   1.763   1.537 -1.9538  0.0150  0.4751
  622MOL0     H83914  11.277   1.881   1.614 -1.2272 -0.8572 -0.2802
  622MOL0     H83915  11.431   2.067   1.594  0.5576 -0.7458  0.5341
  622MOL0     H83916  11.561   1.970   1.555  0.4246  0.4098 -0.5635
  622MOL0     H83917  11.463   2.072   1.340  0.2458  1.4641  3.2292
  622MOL0     H83918  11.445   1.893   1.339 -0.0009 -2.0794  0.4407
  622MOL0     H83919  11.206   1.934   1.421 -0.6999 -2.6301 -4.2083
  622MOL0     H83920  11.254   1.995   1.259 -0.8873  2.0735  0.5392
  622MOL0     H83921  11.217   2.251   1.183 -1.3496 -1.3390 -0.6593
  622MOL0     H83922  11.147   2.560   1.395 -0.3876  0.1190  0.2850
  622MOL0     H83923  11.216   2.508   1.248 -0.2791 -0.1459 -0.5208
  622MOL0     H83924  10.967   2.440   1.186 -0.6637  0.5538 -0.0220
  622MOL0     H83925  11.028   2.595   1.148  3.2769 -3.5608 -2.3384
  622MOL0     H83926  10.935   2.674   1.382  1.1774 -0.8615 -0.7252
  622MOL0     H83927  10.894   2.509   1.416 -1.5625 -0.3419  0.4283
  622MOL0     H83928  10.748   2.526   1.193 -4.1350 -0.5806  1.7771
  622MOL0     H83929  10.765   2.700   1.235 -0.8273 -0.2096  1.5620
  622MOL0     H83930  10.501   2.384   1.364 -0.1768 -1.4188 -2.5640
  622MOL0     H83931  10.219   2.323   1.360 -1.6495  1.5855 -0.3298
  622MOL0     H83932  10.214   2.306   1.173 -0.0369  3.8622 -1.0972
  622MOL0     H83933  10.354   2.258   1.272 -0.5332  0.6713 -0.4446
  622MOL0     H83934  10.049   2.638   0.850 -1.0293 -2.0473  0.8195
  622MOL0     H83935   9.834   2.664   0.718  1.7320 -0.6211  0.8501
  622MOL0     H83936   9.652   2.773   0.660 -2.3827 -0.1080 -1.3657
  622MOL0     H83937   9.584   2.615   0.682  2.8304 -0.5684  0.3797
  622MOL0     H83938   9.417   2.870   0.727 -0.2555  0.7522  0.2504
  622MOL0     H83939   9.434   2.781   0.577  3.0625  0.2455  0.0317
  622MOL0     H83940   9.344   2.641   0.832 -0.2916 -1.0709 -0.3345
  622MOL0     H83941   9.310   2.585   0.666 -0.1848 -2.1602  1.9875
  622MOL0     H83942   9.215   2.857   0.744 -0.9958 -0.0081  3.6616
  622MOL0     H83943   9.134   2.715   0.655  2.9944 -0.6316 -2.3628
  622MOL0     H83944   9.030   2.784   0.876  2.9867  3.6311 -0.0638
  622MOL0     H83945   9.178   2.721   0.947  0.9672 -0.3035 -1.0700
  622MOL0     H83946   8.988   2.567   0.761  1.2314  0.1240 -1.1767
  622MOL0     H83947   9.128   2.491   0.836  0.7589 -0.2787 -2.9222
  622MOL0     H83948   8.885   2.595   0.988 -0.5693 -0.3915 -2.0971
  622MOL0     H83949   9.049   2.544   1.056 -0.6684 -0.7587  1.4180
  622MOL0     H83950   9.026   2.314   0.954 -0.8756 -2.6490  2.4995
  622MOL0     H83951   8.852   2.350   0.937 -0.6321  1.7132  1.2029
  622MOL0     H83952   9.643   2.769   1.090 -0.0883 -0.2398  1.2199
  622MOL0     H83953   9.865   2.751   1.210  0.2786 -0.4766  0.4170
  622MOL0     H83954  10.340   2.778   1.118 -0.3806  0.9818  3.1764
  622MOL0     H83955  10.543   2.793   1.234  2.0312 -0.4884  0.0402
  622MOL0     H83956  11.275   1.900   2.369  1.5136  0.7040 -0.7804
  622MOL0     H83957  11.157   2.033   2.550  0.7952  0.2505  1.2597
  622MOL0     H83958  10.837   2.527   2.472 -2.1409  0.0801  1.3295
  622MOL0     H83959  10.629   2.530   2.605 -1.0879 -1.8383  2.3214
  622MOL0     H83960  10.680   2.409   3.019  1.4420 -1.3668 -1.2686
  622MOL0     H83961  10.523   2.460   3.022  0.4602 -0.4532  2.1721
  622MOL0     H83962  10.611   2.182   2.918 -0.1295 -0.0279  1.3389
  622MOL0     H83963  10.445   2.248   2.944 -0.1230 -0.5241  0.6879
  622MOL0     H83964  10.467   2.251   3.176  1.4963  0.5589  0.0626
  622MOL0     H83965  10.642   2.214   3.170  0.4280 -0.6129 -0.4229
  622MOL0     H83966  10.558   2.012   3.227  0.3410  3.1607  0.9500
  622MOL0     H83967  10.584   1.990   3.054 -2.0555 -3.3155  1.0410
  622MOL0     H83968  10.194   1.882   3.116 -1.8935  1.7628 -2.6424
  622MOL0     H83969  10.815   2.325   2.922 -0.5535  2.4113  1.1845
  622MOL0     H83970  11.022   2.295   2.766 -0.0945 -1.0492 -2.5484
  623MOL0     O83971   0.606   1.773   5.041 -0.4858 -0.0675 -0.0712
  623MOL0     C83972   0.515   1.684   5.060  0.2079 -0.0338 -0.4527
  623MOL0     O83973   0.433   1.680   5.182 -0.7219  0.2414  0.3925
  623MOL0     C83974   0.484   1.759   5.282  0.3509 -1.0560 -0.2687
  623MOL0     C83975   0.415   1.870   5.328  0.4286 -0.3337  1.2162
  623MOL0     C83976   0.471   1.961   5.417 -0.1051  0.0362  0.4541
  623MOL0     C83977   0.605   1.942   5.472 -0.0096  0.1067  1.2686
  623MOL0     O83978   0.655   2.028   5.563  0.2352 -0.4961 -0.2312
  623MOL0     C83979   0.577   2.025   5.681 -0.0395  0.5241 -0.2086
  623MOL0     C83980   0.600   2.153   5.764  0.0416 -0.1880 -1.1462
  623MOL0     C83981   0.491   2.158   5.870  0.0929  0.0029  0.1746
  623MOL0     C83982   0.516   2.261   5.978 -0.5611 -0.2766  0.1201
  623MOL0     C83983   0.413   2.254   6.086  0.2449 -0.2430 -0.3783
  623MOL0     C83984   0.463   2.335   6.213 -0.0284  0.3580  1.0103
  623MOL0     C83985   0.374   2.336   6.339 -0.2020  0.1236  0.1489
  623MOL0     C83986   0.438   2.403   6.464  0.1898  0.3222  0.4122
  623MOL0     N83987   0.425   2.555   6.466 -0.5112  1.2670 -0.5416
  623MOL0     C83988   0.350   2.623   6.556  0.9149 -0.1336 -0.0293
  623MOL0     C83989   0.364   2.750   6.520 -0.3894 -0.9572  0.2431
  623MOL0     C83990   0.292   2.865   6.599 -0.5637  0.1535 -0.4552
  623MOL0     C83991   0.171   2.910   6.517 -0.0362  0.3813  0.1701
  623MOL0     C83992   0.115   3.042   6.564  0.2414  0.3812  0.5496
  623MOL0     C83993  -0.028   3.073   6.515  0.0483 -0.6079 -1.1542
  623MOL0     O83994  -0.126   2.975   6.564 -0.6180 -0.1412  0.1600
  623MOL0     C83995  -0.243   2.946   6.503 -0.2648 -0.1201 -0.6639
  623MOL0     C83996  -0.305   3.024   6.402  0.4561 -0.3041  0.6711
  623MOL0     C83997  -0.436   3.000   6.368 -0.2448 -0.2801 -0.0613
  623MOL0     C83998  -0.485   3.103   6.267 -0.0561 -0.6681 -0.4580
  623MOL0     C83999  -0.513   2.900   6.427 -0.5354  0.8756  0.1626
  623MOL0     C84000  -0.656   2.879   6.396 -0.3753  0.0526 -0.0215
  623MOL0     O84001  -0.715   2.999   6.382  0.0558  0.5936 -0.6912
  623MOL0     C84002  -0.847   3.015   6.348  0.7095 -0.4282 -0.1878
  623MOL0     C84003  -0.903   3.148   6.340  0.4529  0.4786 -1.0179
  623MOL0     C84004  -1.036   3.166   6.307 -0.3333 -0.5312 -0.2438
  623MOL0     C84005  -1.121   3.067   6.284 -0.5680  0.6611  0.2218
  623MOL0     O84006  -1.245   3.114   6.243  0.6996 -0.3909  0.6090
  623MOL0     C84007  -1.349   3.023   6.222  0.3697  0.0276  0.3451
  623MOL0     C84008  -1.478   3.098   6.216  0.2054  0.1500  1.4192
  623MOL0     C84009  -1.589   3.013   6.143 -0.3965  0.0288 -0.1558
  623MOL0     C84010  -1.729   3.088   6.129 -0.2184 -0.6258  0.6309
  623MOL0     C84011  -1.727   3.199   6.020 -0.2228  0.1679  0.1643
  623MOL0     C84012  -1.698   3.145   5.878 -0.4959  0.2272  0.2147
  623MOL0     C84013  -1.737   3.226   5.758  0.3770 -0.0376 -0.7032
  623MOL0     C84014  -1.707   3.158   5.619 -0.2009  0.9353  0.9104
  623MOL0    Cl84015  -1.795   3.005   5.601  0.0146 -0.3154  0.0623
  623MOL0     C84016  -1.082   2.938   6.296 -0.3501 -0.0881 -0.7390
  623MOL0     C84017  -0.947   2.912   6.327 -0.2588 -0.5063  0.0859
  623MOL0     O84018  -0.704   2.769   6.399  0.3666  0.3213  0.6114
  623MOL0     C84019  -0.449   2.805   6.510 -0.8217  0.3851  0.6033
  623MOL0     C84020  -0.318   2.834   6.553 -0.2877 -0.0009  0.4065
  623MOL0     N84021   0.461   2.763   6.425 -0.0697 -0.3708 -0.0179
  623MOL0     N84022   0.496   2.644   6.392  0.8471 -0.1278  0.1536
  623MOL0     C84023   0.674   1.831   5.430 -0.3570  1.1911 -0.0808
  623MOL0     C84024   0.613   1.738   5.342 -0.0452 -0.3329 -0.3067
  623MOL0     C84025   0.502   1.577   4.953  0.5524 -0.3965 -0.5603
  623MOL0     C84026   0.594   1.557   4.854 -0.6366  0.5344 -0.4571
  623MOL0     C84027   0.567   1.459   4.755  0.6561  0.9191 -0.5212
  623MOL0     C84028   0.443   1.399   4.735 -0.1393 -0.2914  0.5978
  623MOL0     O84029   0.421   1.303   4.643 -0.6360 -0.0847  1.2003
  623MOL0     C84030   0.360   1.192   4.690 -0.1211  0.3893 -0.3049
  623MOL0     C84031   0.386   1.084   4.586 -0.3853  0.0240  0.1342
  623MOL0     C84032   0.533   1.040   4.579  0.2713 -0.6663  0.7234
  623MOL0     C84033   0.544   0.887   4.554 -0.6671  0.5203 -0.3082
  623MOL0     C84034   0.684   0.859   4.533  0.1576  0.4849  0.3969
  623MOL0     C84035   0.799   0.828   4.537  0.1134 -0.4955 -0.4402
  623MOL0     C84036   0.351   1.439   4.828  0.8679  0.2222 -0.1753
  623MOL0     C84037   0.377   1.516   4.942 -0.1839 -0.4271 -0.0406
  623MOL0     H84038   0.313   1.901   5.309  0.6274 -0.9291 -1.0530
  623MOL0     H84039   0.411   2.040   5.462  0.2849 -0.8703  2.6757
  623MOL0     H84040   0.470   2.021   5.661 -0.1170 -0.8772  0.3950
  623MOL0     H84041   0.606   1.940   5.743 -1.5558 -1.2313 -1.8149
  623MOL0     H84042   0.699   2.157   5.810  0.5544  0.6243 -2.2796
  623MOL0     H84043   0.584   2.247   5.710  1.1363  2.0090  2.0478
  623MOL0     H84044   0.394   2.174   5.823 -0.2681 -2.5294 -0.0980
  623MOL0     H84045   0.482   2.061   5.920  0.9181  0.6501  1.6297
  623MOL0     H84046   0.612   2.249   6.027 -1.3834  3.2005  2.9687
  623MOL0     H84047   0.512   2.361   5.933  0.8161 -0.7978 -1.2781
  623MOL0     H84048   0.317   2.295   6.052  1.3750  2.2256 -0.8185
  623MOL0     H84049   0.386   2.149   6.102 -2.0189 -0.2445 -3.2870
  623MOL0     H84050   0.558   2.303   6.256  0.3280 -1.0343 -0.6875
  623MOL0     H84051   0.489   2.439   6.191 -0.8379  1.1652  3.5875
  623MOL0     H84052   0.281   2.390   6.318  0.5685  1.3350 -0.1992
  623MOL0     H84053   0.356   2.231   6.363  0.5478 -0.0382  0.0359
  623MOL0     H84054   0.544   2.378   6.461  0.3732  0.6825  2.3529
  623MOL0     H84055   0.406   2.365   6.562  3.4932 -1.5146  0.9110
  623MOL0     H84056   0.285   2.590   6.637  2.1738  1.3289  1.6576
  623MOL0     H84057   0.269   2.830   6.700 -2.2341 -0.7850 -1.1237
  623MOL0     H84058   0.367   2.945   6.597  2.1570 -2.1704 -2.7690
  623MOL0     H84059   0.104   2.824   6.528 -0.0163  0.2108 -0.9959
  623MOL0     H84060   0.205   2.911   6.414 -2.8809 -0.1715 -0.8678
  623MOL0     H84061   0.182   3.116   6.519 -1.1619  2.1546  1.2296
  623MOL0     H84062   0.111   3.041   6.673  3.0663 -0.4746  0.7051
  623MOL0     H84063  -0.031   3.063   6.406 -0.3951 -0.3114 -1.1716
  623MOL0     H84064  -0.053   3.178   6.533  3.5963  0.1608  0.1388
  623MOL0     H84065  -0.257   3.111   6.358 -0.8022  0.2272  0.3066
  623MOL0     H84066  -0.398   3.162   6.236 -0.6234  1.4581  1.7316
  623MOL0     H84067  -0.530   3.043   6.187 -1.1739  0.0179 -0.3641
  623MOL0     H84068  -0.549   3.177   6.315 -1.8401  0.0708 -3.6781
  623MOL0     H84069  -0.837   3.233   6.356 -1.7439  2.2726 -0.8181
  623MOL0     H84070  -1.075   3.267   6.294 -2.5246 -1.4032 -0.9633
  623MOL0     H84071  -1.337   2.977   6.124  2.7244  0.7236  0.2300
  623MOL0     H84072  -1.356   2.944   6.297  1.4913 -0.1236  0.3087
  623MOL0     H84073  -1.502   3.129   6.318 -0.7908 -2.7454  2.1569
  623MOL0     H84074  -1.455   3.188   6.158  4.0986 -0.6813  1.3581
  623MOL0     H84075  -1.601   2.923   6.204  4.1672  0.4715  1.8184
  623MOL0     H84076  -1.573   2.971   6.043  0.1974 -1.8968  0.6983
  623MOL0     H84077  -1.809   3.013   6.119  0.5439 -1.4251  0.3607
  623MOL0     H84078  -1.738   3.144   6.222 -0.0379  2.7435 -1.2425
  623MOL0     H84079  -1.659   3.280   6.046  1.6274 -1.1940 -0.2758
  623MOL0     H84080  -1.830   3.237   6.017 -0.2205  0.1061 -1.0856
  623MOL0     H84081  -1.592   3.124   5.865 -0.1242  2.5599 -1.0518
  623MOL0     H84082  -1.747   3.047   5.868 -0.5130  0.4074 -1.8875
  623MOL0     H84083  -1.682   3.320   5.761 -1.6073  1.1581 -0.3846
  623MOL0     H84084  -1.843   3.252   5.764 -0.8389 -4.5567  2.2788
  623MOL0     H84085  -1.602   3.128   5.611  0.3779  3.0158  0.2229
  623MOL0     H84086  -1.729   3.212   5.527 -2.4780 -1.3977 -0.0349
  623MOL0     H84087  -1.149   2.852   6.290  0.5459 -1.2552  3.2754
  623MOL0     H84088  -0.916   2.809   6.315  0.6806 -0.2602  0.3276
  623MOL0     H84089  -0.514   2.735   6.562 -0.5078  0.6565  1.3897
  623MOL0     H84090  -0.260   2.768   6.616 -0.9377  1.3307  2.5071
  623MOL0     H84091   0.773   1.804   5.463 -0.3826  0.2843 -0.7007
  623MOL0     H84092   0.660   1.651   5.297 -2.7717 -1.9890 -0.1347
  623MOL0     H84093   0.685   1.616   4.859  1.6914 -2.8876  1.0652
  623MOL0     H84094   0.641   1.422   4.685  2.0378  0.2265  1.2203
  623MOL0     H84095   0.409   1.162   4.783 -0.7131  2.7425  0.8432
  623MOL0     H84096   0.252   1.199   4.703 -0.2013 -0.9646 -0.1296
  623MOL0     H84097   0.348   1.114   4.488 -1.4129 -0.6252  0.3257
  623MOL0     H84098   0.331   0.992   4.605  1.5427 -0.9127  1.5873
  623MOL0     H84099   0.588   1.070   4.668  1.4274  0.4425 -0.3103
  623MOL0     H84100   0.571   1.090   4.489 -1.2847 -3.1797 -1.4814
  623MOL0     H84101   0.482   0.849   4.472  0.7842 -3.4459  0.2167
  623MOL0     H84102   0.516   0.841   4.650 -1.4146  1.7991  0.1047
  623MOL0     H84103   0.904   0.824   4.557  0.2841  1.3468 -0.7488
  623MOL0     H84104   0.251   1.400   4.812  0.6524  1.6015 -2.5671
  623MOL0     H84105   0.297   1.549   5.007 -1.4232  1.5272 -2.4038
  624MOL0     O84106  10.500   4.661  10.202  0.6511 -0.2212 -0.0305
  624MOL0     C84107  10.471   4.551  10.152  0.0387  0.5108  0.3193
  624MOL0     O84108  10.378   4.465  10.206 -0.7930 -0.1705 -0.0250
  624MOL0     C84109  10.336   4.474  10.329 -0.5326 -0.9521  0.0401
  624MOL0     C84110  10.349   4.369  10.421  0.4308 -0.1628 -0.4835
  624MOL0     C84111  10.298   4.361  10.552 -0.7145  1.3021 -0.5865
  624MOL0     C84112  10.247   4.486  10.602  0.6792 -0.2101 -0.6201
  624MOL0     O84113  10.221   4.489  10.732 -0.0699  0.1795 -0.2555
  624MOL0     C84114  10.117   4.570  10.772  0.3075 -0.4294 -0.2807
  624MOL0     C84115  10.071   4.503  10.913 -0.2184 -0.4583  0.6880
  624MOL0     C84116  10.175   4.485  11.024  1.3991  0.5066  0.1268
  624MOL0     C84117  10.248   4.617  11.068 -0.0471  0.1650 -0.4244
  624MOL0     C84118  10.378   4.576  11.142 -0.2771 -0.6984 -0.6297
  624MOL0     C84119  10.436   4.701  11.220 -0.2635 -0.6158 -0.3057
  624MOL0     C84120  10.467   4.816  11.120  0.1970  0.1896 -0.4426
  624MOL0     C84121  10.538   4.939  11.194  0.1767 -0.5440 -0.2942
  624MOL0     N84122  10.445   5.013  11.276  1.0885 -0.2285  0.4350
  624MOL0     C84123  10.303   5.010  11.292 -0.1322 -1.0391  0.7388
  624MOL0     C84124  10.273   5.088  11.397  0.6066  1.2994  0.0630
  624MOL0     C84125  10.138   5.105  11.454  0.4486 -0.1842 -0.5146
  624MOL0     C84126  10.055   5.186  11.360 -0.4069 -0.8688 -0.1568
  624MOL0     C84127   9.901   5.156  11.383 -0.3570 -0.2871 -0.9875
  624MOL0     C84128   9.835   5.241  11.493  0.5045 -0.6754  0.3079
  624MOL0     O84129   9.813   5.379  11.438  0.3947  0.6626 -0.3144
  624MOL0     C84130   9.745   5.461  11.526  0.6809 -0.0244  0.1219
  624MOL0     C84131   9.804   5.584  11.557 -0.4450  0.7213  0.4802
  624MOL0     C84132   9.750   5.683  11.643 -0.0712  0.8547  1.3230
  624MOL0     C84133   9.832   5.807  11.661  0.3388  0.5615 -0.4004
  624MOL0     C84134   9.624   5.656  11.708 -0.8847  0.3275 -0.2439
  624MOL0     C84135   9.545   5.753  11.790 -1.1167  0.3401  0.8827
  624MOL0     O84136   9.417   5.779  11.765 -0.3206 -0.9719 -0.2171
  624MOL0     C84137   9.340   5.840  11.860 -0.2089  0.3480 -0.5275
  624MOL0     C84138   9.314   5.975  11.866  0.6348  0.0420  0.1329
  624MOL0     C84139   9.229   6.028  11.965  0.9126  0.3706  0.0666
  624MOL0     C84140   9.171   5.949  12.071 -0.3557 -0.3310  0.8200
  624MOL0     O84141   9.095   5.980  12.181  0.9533  0.0782 -0.1767
  624MOL0     C84142   9.003   6.091  12.158  0.2981  0.2072 -0.6140
  624MOL0     C84143   9.018   6.203  12.270  1.1281  0.3011  1.4463
  624MOL0     C84144   8.889   6.279  12.268  0.2899  0.3341 -0.4089
  624MOL0     C84145   8.886   6.391  12.371 -0.4004  0.5710 -0.5165
  624MOL0     C84146   8.753   6.477  12.360 -0.2885  0.5398 -0.0131
  624MOL0     C84147   8.767   6.595  12.459 -0.5601  1.0496 -0.4237
  624MOL0     C84148   8.817   6.560  12.604 -0.6810  0.0496  0.1454
  624MOL0     C84149   8.840   6.694  12.684 -0.1560 -0.4360 -0.4330
  624MOL0    Cl84150   8.994   6.779  12.639  0.0589 -0.1548 -0.3808
  624MOL0     C84151   9.196   5.818  12.054 -0.3426  0.7205  0.2777
  624MOL0     C84152   9.277   5.764  11.959  0.2367  0.2559  0.1177
  624MOL0     O84153   9.606   5.780  11.891  0.7341 -0.2288  0.1996
  624MOL0     C84154   9.566   5.533  11.679  0.2576  0.4601  0.3599
  624MOL0     C84155   9.629   5.433  11.598  0.6806 -0.5908  0.1178
  624MOL0     N84156  10.379   5.145  11.446 -0.2094  0.3998 -0.9523
  624MOL0     N84157  10.484   5.102  11.377  0.3055  0.1736 -0.4667
  624MOL0     C84158  10.228   4.595  10.517 -0.0875  1.1304  0.8386
  624MOL0     C84159  10.274   4.593  10.384  0.1808  0.5655  0.1817
  624MOL0     C84160  10.521   4.515  10.018  0.3712 -0.4218  0.2784
  624MOL0     C84161  10.581   4.609   9.934  0.1443 -0.4987 -0.5276
  624MOL0     C84162  10.638   4.569   9.810  0.4761  1.0331 -0.1388
  624MOL0     C84163  10.633   4.433   9.771 -0.0381 -0.7763  0.7222
  624MOL0     O84164  10.683   4.379   9.656 -0.3795  0.3907 -0.1928
  624MOL0     C84165  10.654   4.454   9.543 -0.7115 -0.1458 -0.0571
  624MOL0     C84166  10.662   4.376   9.413  0.1975 -0.4832 -0.7991
  624MOL0     C84167  10.596   4.436   9.293  1.1519  0.0111  0.2890
  624MOL0     C84168  10.664   4.556   9.227  0.7635  0.0770  0.5534
  624MOL0     C84169  10.582   4.608   9.120  0.1767  0.7336 -0.5076
  624MOL0     C84170  10.514   4.655   9.026 -0.4235 -0.3945  0.2761
  624MOL0     C84171  10.564   4.344   9.854  0.4664 -0.6713 -0.2382
  624MOL0     C84172  10.507   4.383   9.977 -0.0415  0.8298  0.5315
  624MOL0     H84173  10.399   4.284  10.376 -3.1044 -1.9565 -1.4620
  624MOL0     H84174  10.294   4.280  10.623  0.1625  0.6731 -1.2363
  624MOL0     H84175  10.159   4.668  10.794 -0.4678 -0.0304 -0.5275
  624MOL0     H84176  10.033   4.586  10.703 -1.2934 -2.3131  1.0949
  624MOL0     H84177  10.013   4.584  10.958 -2.0560  0.8429 -3.4550
  624MOL0     H84178  10.010   4.414  10.893  1.6417 -1.3830 -1.2329
  624MOL0     H84179  10.119   4.442  11.107 -3.2686  0.6924 -2.5647
  624MOL0     H84180  10.247   4.413  10.984 -1.3185 -2.0195 -0.5763
  624MOL0     H84181  10.279   4.670  10.978 -1.9223 -2.4107 -2.7791
  624MOL0     H84182  10.187   4.674  11.139 -0.3904  1.3407 -1.6290
  624MOL0     H84183  10.349   4.501  11.216 -3.3939  0.9613  0.0388
  624MOL0     H84184  10.458   4.543  11.075  0.6186  0.6353 -0.2501
  624MOL0     H84185  10.364   4.727  11.298  0.5805 -1.2384  0.7123
  624MOL0     H84186  10.527   4.659  11.264 -1.3957 -1.4315  1.3519
  624MOL0     H84187  10.540   4.769  11.053  1.7368  0.2417  1.1345
  624MOL0     H84188  10.390   4.863  11.058 -0.3236  0.4617  0.3949
  624MOL0     H84189  10.579   5.023  11.137  1.7708  0.3813  2.0228
  624MOL0     H84190  10.626   4.907  11.251  1.5110 -0.5626 -2.2405
  624MOL0     H84191  10.238   4.939  11.241 -0.3784 -0.5415  0.3455
  624MOL0     H84192  10.091   5.008  11.474 -0.3432 -0.4592 -3.3114
  624MOL0     H84193  10.156   5.169  11.541  0.6274 -1.3310  0.3176
  624MOL0     H84194  10.069   5.161  11.254  1.5495  2.9479 -0.9747
  624MOL0     H84195  10.077   5.293  11.358 -3.9137 -0.0168 -1.0489
  624MOL0     H84196   9.898   5.049  11.406 -2.9161  0.2427  1.7903
  624MOL0     H84197   9.856   5.174  11.285 -0.3814 -0.1480 -0.9521
  624MOL0     H84198   9.886   5.234  11.590  0.9979 -0.1010  0.0984
  624MOL0     H84199   9.737   5.200  11.517 -1.4040  1.3911 -3.2221
  624MOL0     H84200   9.899   5.607  11.510  1.5085 -1.5299  3.0693
  624MOL0     H84201   9.825   5.842  11.764 -2.5076  2.4664 -1.1491
  624MOL0     H84202   9.940   5.790  11.647  0.3411  0.4315 -0.2328
  624MOL0     H84203   9.803   5.888  11.594  2.2402  1.0969 -0.6592
  624MOL0     H84204   9.349   6.035  11.782 -1.0798 -2.0497 -2.2561
  624MOL0     H84205   9.228   6.135  11.980  1.6371  0.3287  0.4380
  624MOL0     H84206   9.022   6.143  12.063 -0.9457 -0.3110 -1.1677
  624MOL0     H84207   8.901   6.052  12.162  0.9397 -1.4431  0.2804
  624MOL0     H84208   9.036   6.145  12.361  0.0415  0.4578  1.7835
  624MOL0     H84209   9.101   6.265  12.237  1.8570 -1.7370 -0.8062
  624MOL0     H84210   8.800   6.223  12.298 -0.7006  2.3308  0.6187
  624MOL0     H84211   8.877   6.314  12.165  1.6412  0.5977 -0.4911
  624MOL0     H84212   8.892   6.351  12.472  0.7684  2.9302  0.4275
  624MOL0     H84213   8.978   6.448  12.353  3.1768 -3.7940  1.9698
  624MOL0     H84214   8.664   6.418  12.385  0.4071 -0.7395 -0.4665
  624MOL0     H84215   8.745   6.525  12.262 -0.1854  0.6506  0.0321
  624MOL0     H84216   8.833   6.674  12.420 -1.2717  1.0011 -1.7916
  624MOL0     H84217   8.664   6.634  12.465 -0.9300  0.1727 -0.9323
  624MOL0     H84218   8.910   6.505  12.624 -1.2939 -1.1441 -0.2077
  624MOL0     H84219   8.739   6.498  12.650 -0.1119 -2.9547 -2.6001
  624MOL0     H84220   8.849   6.667  12.789 -0.1140  0.8523 -0.0880
  624MOL0     H84221   8.749   6.754  12.691 -1.1818 -2.1085  1.4546
  624MOL0     H84222   9.159   5.755  12.135  1.1763  0.1040  0.5309
  624MOL0     H84223   9.310   5.661  11.959 -0.9531 -0.2457  3.4760
  624MOL0     H84224   9.468   5.515  11.721  1.2564 -0.5219  2.4145
  624MOL0     H84225   9.583   5.336  11.579  2.6254 -1.4330 -0.5906
  624MOL0     H84226  10.186   4.691  10.546 -3.3118 -0.1046  0.6190
  624MOL0     H84227  10.261   4.682  10.323 -3.7878 -0.4793 -0.8145
  624MOL0     H84228  10.584   4.712   9.969  0.2232 -0.3072 -1.0894
  624MOL0     H84229  10.717   4.627   9.764 -0.5477  2.4615 -0.1671
  624MOL0     H84230  10.557   4.504   9.547  1.0372  3.7139 -0.2117
  624MOL0     H84231  10.727   4.536   9.542 -1.4441  0.5479  1.1134
  624MOL0     H84232  10.617   4.279   9.436  1.6367 -1.0248 -0.1459
  624MOL0     H84233  10.770   4.368   9.403  0.3922  0.7354  0.0953
  624MOL0     H84234  10.497   4.472   9.325  0.1134 -1.1571 -1.4421
  624MOL0     H84235  10.574   4.360   9.218  2.2197 -0.5790  0.5680
  624MOL0     H84236  10.757   4.519   9.184  0.9525  2.1256 -0.9580
  624MOL0     H84237  10.691   4.632   9.301  2.5460  1.9171 -1.8347
  624MOL0     H84238  10.465   4.706   8.945  0.1182  0.3331  0.3978
  624MOL0     H84239  10.561   4.245   9.810  2.3693 -0.9696  0.2123
  624MOL0     H84240  10.449   4.313  10.036  2.5515 -1.1831  0.8728
  625MOL0     O84241   4.474   9.700   4.501  0.0753 -0.5306  0.0528
  625MOL0     C84242   4.349   9.681   4.502  0.3582 -0.3580 -0.0434
  625MOL0     O84243   4.278   9.606   4.411 -0.0759  0.5147 -0.4517
  625MOL0     C84244   4.349   9.546   4.310  0.7132 -0.6443 -0.4861
  625MOL0     C84245   4.331   9.586   4.182  0.0293 -0.1442 -0.0635
  625MOL0     C84246   4.390   9.523   4.075  1.2989 -0.2669  0.0261
  625MOL0     C84247   4.478   9.416   4.096  0.6222 -0.5652  0.2561
  625MOL0     O84248   4.527   9.353   3.988 -0.1546  0.2092 -1.1738
  625MOL0     C84249   4.614   9.243   4.010  0.0752 -0.4504 -0.2961
  625MOL0     C84250   4.664   9.184   3.882  0.3817 -0.6145  0.1172
  625MOL0     C84251   4.806   9.111   3.899  0.6685 -0.8855  0.3619
  625MOL0     C84252   4.834   9.001   3.806  0.1530 -0.7239  0.5266
  625MOL0     C84253   4.981   8.949   3.802  0.3135  0.1115  0.8850
  625MOL0     C84254   5.005   8.834   3.698 -0.1233  0.0918 -0.3367
  625MOL0     C84255   5.153   8.787   3.702 -0.7082  0.5758  0.4311
  625MOL0     C84256   5.254   8.887   3.640 -0.2688  0.8338  0.0144
  625MOL0     N84257   5.229   8.907   3.494 -0.5059  0.2426 -0.6161
  625MOL0     C84258   5.300   9.000   3.423 -0.1942  0.5582 -0.4975
  625MOL0     C84259   5.241   8.993   3.300  0.3743 -0.8811 -0.8354
  625MOL0     C84260   5.291   9.065   3.180  0.3242  0.0508 -0.7665
  625MOL0     C84261   5.194   9.172   3.116  1.0790 -0.9762 -0.4609
  625MOL0     C84262   5.131   9.263   3.219  0.3296 -0.9425  0.0676
  625MOL0     C84263   5.074   9.389   3.142  0.8817 -0.9266 -0.7261
  625MOL0     O84264   5.186   9.472   3.104 -0.4571  0.2479  0.0835
  625MOL0     C84265   5.172   9.599   3.044 -0.4522 -0.5156  0.6718
  625MOL0     C84266   5.284   9.642   2.980 -0.8181  0.0607 -0.4784
  625MOL0     C84267   5.290   9.753   2.899  0.8513  0.1397 -0.4021
  625MOL0     C84268   5.424   9.788   2.827  0.7275  0.2319  0.2413
  625MOL0     C84269   5.172   9.838   2.887 -0.3353 -0.1199 -0.6645
  625MOL0     C84270   5.158   9.964   2.802  0.2537  0.8805 -0.9702
  625MOL0     O84271   5.033  10.028   2.804  0.1356 -0.8370 -0.7027
  625MOL0     C84272   5.000  10.132   2.722 -0.0144  0.0276 -0.8169
  625MOL0     C84273   4.914  10.230   2.786 -0.0972  0.3309 -0.7444
  625MOL0     C84274   4.867  10.336   2.718  0.7106  0.0792 -0.3181
  625MOL0     C84275   4.896  10.356   2.591 -0.9268 -0.4780 -0.3096
  625MOL0     O84276   4.856  10.482   2.535  0.0518  0.1407  0.1680
  625MOL0     C84277   4.913  10.516   2.404 -0.3268  0.7980  0.4584
  625MOL0     C84278   4.877  10.654   2.358 -0.0435  0.4242  0.5206
  625MOL0     C84279   4.734  10.688   2.344 -0.5299 -1.1222 -0.0702
  625MOL0     C84280   4.711  10.839   2.335 -0.6718 -0.7146 -0.4043
  625MOL0     C84281   4.566  10.882   2.393 -0.0021  0.0420 -0.4921
  625MOL0     C84282   4.441  10.792   2.345  0.2257 -1.0124 -0.0789
  625MOL0     C84283   4.433  10.785   2.194  0.5432 -0.8198 -0.3303
  625MOL0     C84284   4.407  10.914   2.126  0.6391 -0.5892  0.2474
  625MOL0    Cl84285   4.394  10.882   1.960 -0.3891  0.1112  0.5428
  625MOL0     C84286   4.976  10.264   2.524 -0.2761 -0.3780  0.3610
  625MOL0     C84287   5.035  10.153   2.596 -0.5930 -0.3460  0.4454
  625MOL0     O84288   5.256  10.014   2.748  0.1049  0.7135  0.0500
  625MOL0     C84289   5.054   9.797   2.957 -0.3328 -0.4133  0.5119
  625MOL0     C84290   5.053   9.674   3.027 -0.3142  0.9419 -0.1025
  625MOL0     N84291   5.137   8.902   3.299  0.1275 -0.9158 -0.3629
  625MOL0     N84292   5.139   8.839   3.412  0.2447 -0.1444  0.1177
  625MOL0     C84293   4.509   9.382   4.232  0.7104 -0.1952  0.1172
  625MOL0     C84294   4.440   9.442   4.338 -0.5982  0.6264  0.0089
  625MOL0     C84295   4.268   9.760   4.590 -0.9963 -0.2287  0.1992
  625MOL0     C84296   4.125   9.764   4.564  0.3001  0.2465  0.1515
  625MOL0     C84297   4.040   9.824   4.655 -0.5154 -0.0631 -0.4141
  625MOL0     C84298   4.089   9.891   4.769 -0.4199  0.1010 -0.6148
  625MOL0     O84299   4.010   9.940   4.871 -0.6945  1.1097  0.5116
  625MOL0     C84300   3.874   9.889   4.872 -0.1761 -0.2958  0.4083
  625MOL0     C84301   3.782   9.953   4.985  0.3092  0.5612 -0.3083
  625MOL0     C84302   3.853   9.970   5.116 -0.4071 -0.4772 -0.1450
  625MOL0     C84303   3.757  10.014   5.223  0.6897  0.7660 -0.0255
  625MOL0     C84304   3.742  10.163   5.236 -0.1121 -0.9175 -0.0898
  625MOL0     C84305   3.729  10.285   5.238 -0.3424  1.0816  0.6648
  625MOL0     C84306   4.221   9.896   4.789  0.7547  0.5433  0.3537
  625MOL0     C84307   4.305   9.832   4.701  0.3243 -0.1051 -0.0227
  625MOL0     H84308   4.266   9.668   4.154  0.2573 -0.5859 -2.0783
  625MOL0     H84309   4.368   9.555   3.974  3.3993  0.3996 -0.2681
  625MOL0     H84310   4.708   9.276   4.057 -0.8409 -0.5490  1.6788
  625MOL0     H84311   4.577   9.171   4.083  2.9792 -1.8900 -0.0884
  625MOL0     H84312   4.590   9.109   3.851  1.3097 -1.1161 -0.9617
  625MOL0     H84313   4.668   9.257   3.802 -4.7933 -2.3149 -2.1414
  625MOL0     H84314   4.885   9.186   3.896 -1.7307  1.8009 -1.2859
  625MOL0     H84315   4.822   9.077   4.002 -0.6325  0.7047  1.1293
  625MOL0     H84316   4.761   8.919   3.803 -3.3616  2.1407  0.3289
  625MOL0     H84317   4.817   9.049   3.709  0.4320  0.6273  1.1291
  625MOL0     H84318   5.043   9.035   3.777 -2.7168  1.7943 -1.5149
  625MOL0     H84319   4.999   8.917   3.905 -0.8799  0.4303  1.2206
  625MOL0     H84320   4.941   8.746   3.710  1.5304 -1.1259 -0.0974
  625MOL0     H84321   4.990   8.890   3.605  1.3114  3.7025  1.3921
  625MOL0     H84322   5.159   8.757   3.807  0.0392  2.7981  1.0675
  625MOL0     H84323   5.171   8.692   3.650  2.4979  1.1527  0.3358
  625MOL0     H84324   5.347   8.836   3.666 -2.0821 -2.2636  0.9050
  625MOL0     H84325   5.238   8.985   3.685 -2.2488 -0.0644  1.4545
  625MOL0     H84326   5.375   9.071   3.457 -0.4577  0.6445 -0.0865
  625MOL0     H84327   5.381   9.119   3.211 -0.0627  0.4388 -0.3086
  625MOL0     H84328   5.334   8.994   3.108  2.7968 -1.9360  2.4299
  625MOL0     H84329   5.121   9.125   3.050 -0.8544 -1.2540  1.7352
  625MOL0     H84330   5.259   9.232   3.052 -1.5014  0.8303 -1.5593
  625MOL0     H84331   5.201   9.312   3.287  0.4626 -0.6334 -0.2907
  625MOL0     H84332   5.051   9.216   3.277 -1.7768 -0.5628 -2.3296
  625MOL0     H84333   5.003   9.444   3.205  0.7568 -0.3618 -1.3547
  625MOL0     H84334   5.018   9.357   3.054  0.2209 -0.7829 -0.3708
  625MOL0     H84335   5.369   9.576   2.969 -2.3233 -1.4735 -4.4145
  625MOL0     H84336   5.491   9.702   2.838  1.5696  1.0317  1.6272
  625MOL0     H84337   5.409   9.814   2.722  1.2560  1.5171  0.4710
  625MOL0     H84338   5.466   9.876   2.877 -0.4582  1.1515 -0.3206
  625MOL0     H84339   4.873  10.221   2.887  1.0137  1.7710 -0.1437
  625MOL0     H84340   4.803  10.406   2.772 -4.1493 -1.8457 -2.8994
  625MOL0     H84341   5.022  10.514   2.401 -0.1688  3.2586  1.6939
  625MOL0     H84342   4.873  10.453   2.325 -2.2353 -1.1279  2.8004
  625MOL0     H84343   4.925  10.719   2.432 -0.7944 -1.3168  2.6138
  625MOL0     H84344   4.917  10.671   2.257 -0.1123  4.2050  0.9945
  625MOL0     H84345   4.688  10.646   2.434 -0.2158  1.6336  1.4951
  625MOL0     H84346   4.685  10.641   2.258 -0.1095 -2.2010  0.2695
  625MOL0     H84347   4.789  10.889   2.393 -1.8785  1.4012 -0.5148
  625MOL0     H84348   4.725  10.859   2.228  0.6571 -3.5114 -0.8402
  625MOL0     H84349   4.549  10.989   2.377 -0.7158  0.9473  4.5320
  625MOL0     H84350   4.569  10.874   2.502 -3.1733 -1.5798 -0.3848
  625MOL0     H84351   4.440  10.692   2.388  1.2473 -0.5751  1.0325
  625MOL0     H84352   4.351  10.840   2.385  0.9739  0.8667 -0.5087
  625MOL0     H84353   4.352  10.715   2.168 -2.3076  1.2893  2.1704
  625MOL0     H84354   4.526  10.752   2.146  1.3627  1.6263 -0.5681
  625MOL0     H84355   4.495  10.978   2.139  0.7884 -0.0209 -2.8455
  625MOL0     H84356   4.325  10.969   2.174  1.2229  0.7443 -0.2132
  625MOL0     H84357   5.012  10.291   2.425  0.5101  5.7135  1.9245
  625MOL0     H84358   5.110  10.090   2.550 -0.5939  0.3536 -0.5610
  625MOL0     H84359   4.965   9.859   2.951  0.7060  1.1780  1.1750
  625MOL0     H84360   4.962   9.636   3.074 -1.3250  3.5204  0.1626
  625MOL0     H84361   4.572   9.300   4.263  0.1011 -0.0368  1.9139
  625MOL0     H84362   4.459   9.417   4.442 -2.5002  1.9000  0.7194
  625MOL0     H84363   4.077   9.721   4.477 -1.1916  3.8672 -1.0142
  625MOL0     H84364   3.936   9.825   4.622 -1.0135 -2.8229  0.7246
  625MOL0     H84365   3.824   9.902   4.776  0.4462 -1.7334 -0.1400
  625MOL0     H84366   3.880   9.780   4.881  0.5106 -0.7418 -3.5961
  625MOL0     H84367   3.689   9.895   4.993 -0.7190  1.9869 -1.3448
  625MOL0     H84368   3.742  10.049   4.951 -2.1117 -0.5487 -0.8542
  625MOL0     H84369   3.924  10.052   5.101 -4.0444  2.7583 -1.1083
  625MOL0     H84370   3.910   9.881   5.145  3.4352  1.3421 -1.3495
  625MOL0     H84371   3.796   9.983   5.320 -2.6736 -2.3369  0.5509
  625MOL0     H84372   3.661   9.968   5.199  0.6612  0.9158 -0.2029
  625MOL0     H84373   3.678  10.378   5.240 -1.8560  0.2808  0.7820
  625MOL0     H84374   4.256   9.942   4.881  2.0796 -0.4394  0.3644
  625MOL0     H84375   4.410   9.859   4.711  0.2922  0.1706 -0.4248
  626MOL0     O84376   0.621   5.284   8.197  0.1598 -0.1683  0.0231
  626MOL0     C84377   0.547   5.216   8.269 -0.3811  0.0780  0.8654
  626MOL0     O84378   0.591   5.150   8.372 -0.3369 -0.5813 -0.5422
  626MOL0     C84379   0.718   5.190   8.412  0.8957  0.3510  0.1132
  626MOL0     C84380   0.722   5.262   8.531  1.1885 -0.5056  0.5267
  626MOL0     C84381   0.835   5.329   8.577 -0.8817 -0.7611 -0.5485
  626MOL0     C84382   0.953   5.330   8.502 -0.1792  0.1709  0.2646
  626MOL0     O84383   1.058   5.420   8.529  0.2044 -0.9049 -0.2020
  626MOL0     C84384   1.104   5.455   8.663 -0.1901  0.3691  1.1039
  626MOL0     C84385   1.173   5.344   8.739  0.1621 -0.1625  0.5331
  626MOL0     C84386   1.293   5.278   8.663  0.3958 -0.5599 -0.7072
  626MOL0     C84387   1.257   5.132   8.621  0.0948 -0.4820 -0.7061
  626MOL0     C84388   1.358   5.080   8.528 -0.0525  0.0618  0.0754
  626MOL0     C84389   1.355   4.933   8.496 -0.4899 -0.5259 -0.2953
  626MOL0     C84390   1.218   4.898   8.444  0.6817  0.3294  0.7275
  626MOL0     C84391   1.164   4.953   8.313 -0.1674 -0.4029  0.0846
  626MOL0     N84392   1.253   4.920   8.206 -0.3278 -0.2045 -0.6563
  626MOL0     C84393   1.334   5.007   8.143 -0.1960  0.9388 -0.0901
  626MOL0     C84394   1.399   4.934   8.052 -0.5141  0.4678 -0.1042
  626MOL0     C84395   1.519   4.980   7.968  0.3038  0.6565  0.8706
  626MOL0     C84396   1.485   5.034   7.829 -0.0985  0.2065 -0.5135
  626MOL0     C84397   1.402   4.924   7.755  0.0704  0.7326  0.7150
  626MOL0     C84398   1.256   4.950   7.757  0.1649 -1.2674 -0.2309
  626MOL0     O84399   1.213   5.060   7.675  0.5327 -0.2783 -0.2129
  626MOL0     C84400   1.168   5.006   7.557 -0.6518  1.0548 -0.3270
  626MOL0     C84401   1.256   4.987   7.449  0.6306 -0.5880 -0.0652
  626MOL0     C84402   1.197   4.928   7.334 -0.3899  0.3487 -0.3566
  626MOL0     C84403   1.272   4.938   7.202  0.1577  0.2867 -0.2033
  626MOL0     C84404   1.065   4.875   7.332 -0.5304  0.4101 -0.2799
  626MOL0     C84405   1.011   4.795   7.224  0.2209  0.3924  0.1198
  626MOL0     O84406   0.884   4.842   7.176 -0.3090 -0.4190 -0.3337
  626MOL0     C84407   0.820   4.785   7.076 -0.2978  0.2509 -0.3001
  626MOL0     C84408   0.690   4.729   7.093  0.1373  0.8479 -0.3359
  626MOL0     C84409   0.624   4.676   6.990 -0.3110  0.0837  0.7538
  626MOL0     C84410   0.682   4.661   6.864  0.5576 -0.5538  0.2952
  626MOL0     O84411   0.615   4.621   6.752 -0.0050  0.3898  0.3979
  626MOL0     C84412   0.474   4.624   6.734  0.3215 -0.5800  0.0123
  626MOL0     C84413   0.433   4.557   6.601  0.0880 -0.3482 -0.2289
  626MOL0     C84414   0.282   4.526   6.589 -0.8610 -0.0175  0.5745
  626MOL0     C84415   0.195   4.658   6.585  0.2146 -0.2664  0.0798
  626MOL0     C84416   0.050   4.625   6.543  1.5250  0.6125 -0.6683
  626MOL0     C84417  -0.048   4.747   6.544 -0.0122 -1.2069 -0.1609
  626MOL0     C84418  -0.195   4.696   6.512 -0.1448 -0.0233 -0.4683
  626MOL0     C84419  -0.305   4.797   6.517  0.4892 -0.4669  0.7156
  626MOL0    Cl84420  -0.280   4.931   6.396  0.2763  0.5346 -0.0165
  626MOL0     C84421   0.816   4.699   6.840 -0.4398  0.0230 -0.3880
  626MOL0     C84422   0.879   4.768   6.949 -0.2870  0.2139  0.2244
  626MOL0     O84423   1.077   4.703   7.177 -0.2923 -0.2824  0.2578
  626MOL0     C84424   0.976   4.912   7.433 -0.9586 -0.0714  0.3136
  626MOL0     C84425   1.028   4.970   7.543 -0.6126 -0.9829 -0.0176
  626MOL0     N84426   1.339   4.805   8.041  0.2400 -0.3394 -0.1270
  626MOL0     N84427   1.256   4.798   8.141 -0.5133  0.0648 -0.7576
  626MOL0     C84428   0.950   5.247   8.388  0.1463 -0.6376 -1.1469
  626MOL0     C84429   0.843   5.176   8.339 -0.2142  0.7033 -0.4245
  626MOL0     C84430   0.406   5.207   8.242  0.3610  0.1011 -0.1821
  626MOL0     C84431   0.342   5.276   8.139  0.0125 -0.1945 -0.3107
  626MOL0     C84432   0.208   5.269   8.120 -0.5875 -0.6513  1.2108
  626MOL0     C84433   0.127   5.178   8.198 -0.4819  0.0024  1.0415
  626MOL0     O84434  -0.006   5.168   8.176  0.5508  0.4504 -0.1751
  626MOL0     C84435  -0.091   5.149   8.287 -0.4722 -0.4855  0.2398
  626MOL0     C84436  -0.236   5.151   8.249  0.1590 -0.1700 -0.9138
  626MOL0     C84437  -0.313   5.146   8.382 -0.1559 -0.0139  0.2633
  626MOL0     C84438  -0.458   5.110   8.348  0.2761  0.3576  0.0214
  626MOL0     C84439  -0.517   5.205   8.257 -0.4109 -0.6631  0.3696
  626MOL0     C84440  -0.558   5.296   8.176  0.5410  0.2155 -0.2362
  626MOL0     C84441   0.184   5.107   8.299 -0.3294  0.8662  0.4245
  626MOL0     C84442   0.332   5.121   8.320  0.5107 -0.1439 -0.0041
  626MOL0     H84443   0.627   5.268   8.582 -0.0713 -3.1717 -1.3128
  626MOL0     H84444   0.828   5.398   8.660  1.6409 -1.6988  0.5128
  626MOL0     H84445   1.174   5.537   8.641  0.0761  0.1861  1.2642
  626MOL0     H84446   1.025   5.499   8.725  0.2300  2.0650  0.5066
  626MOL0     H84447   1.223   5.393   8.823 -0.1875 -0.6925  1.0541
  626MOL0     H84448   1.107   5.261   8.766 -1.0934 -0.2058 -2.3258
  626MOL0     H84449   1.313   5.332   8.570 -1.6200 -3.2437 -2.8980
  626MOL0     H84450   1.382   5.271   8.727 -0.5853  0.1358  0.7760
  626MOL0     H84451   1.244   5.075   8.714 -0.7013 -1.1144 -1.1963
  626MOL0     H84452   1.164   5.139   8.565 -0.1246 -2.1961 -0.5987
  626MOL0     H84453   1.356   5.132   8.432 -1.3962  1.3482  0.7593
  626MOL0     H84454   1.446   5.104   8.588 -2.5279 -0.5749  4.4540
  626MOL0     H84455   1.429   4.919   8.416  1.4776  1.4278  1.0677
  626MOL0     H84456   1.380   4.855   8.568 -0.3570 -3.0240 -2.8873
  626MOL0     H84457   1.217   4.789   8.430  1.0882  0.4250 -0.1520
  626MOL0     H84458   1.145   4.935   8.516  1.9378 -0.0699  2.2690
  626MOL0     H84459   1.157   5.061   8.324  0.0170 -0.3408 -0.3706
  626MOL0     H84460   1.069   4.917   8.272  1.4097  0.4570 -5.0149
  626MOL0     H84461   1.350   5.111   8.168  2.9930 -0.2745  4.3267
  626MOL0     H84462   1.565   5.066   8.017  1.5580 -0.8116  2.4263
  626MOL0     H84463   1.592   4.899   7.960  0.2154  0.5909  0.7276
  626MOL0     H84464   1.579   5.047   7.775 -0.2124  1.7479 -0.3809
  626MOL0     H84465   1.444   5.136   7.829  0.6217  0.4991  0.0215
  626MOL0     H84466   1.425   4.829   7.803 -1.1016  1.0734  1.9993
  626MOL0     H84467   1.426   4.928   7.648  0.6137  2.4870  0.8616
  626MOL0     H84468   1.226   4.980   7.858 -0.7189  2.9033 -1.5258
  626MOL0     H84469   1.202   4.857   7.738 -0.0504 -1.3135  0.5508
  626MOL0     H84470   1.361   5.018   7.451  0.3344  0.4523  0.3455
  626MOL0     H84471   1.211   4.982   7.123  0.4234 -2.0796 -1.8498
  626MOL0     H84472   1.368   4.991   7.207  0.0819  0.5266 -1.0584
  626MOL0     H84473   1.289   4.842   7.152  2.4468 -0.4991  1.8959
  626MOL0     H84474   0.630   4.740   7.183  0.3687 -1.9079  0.2499
  626MOL0     H84475   0.519   4.652   7.001 -0.4769  1.5207  2.8879
  626MOL0     H84476   0.434   4.569   6.819  2.6616 -2.1325  0.2069
  626MOL0     H84477   0.439   4.727   6.727 -1.8924 -0.9322  3.6610
  626MOL0     H84478   0.463   4.610   6.510  3.1814  1.4237  1.6256
  626MOL0     H84479   0.478   4.457   6.609 -0.1062 -0.3137  1.9798
  626MOL0     H84480   0.249   4.466   6.675 -1.6417  0.2856  0.4913
  626MOL0     H84481   0.274   4.469   6.496  1.8588 -0.0722  0.2893
  626MOL0     H84482   0.181   4.701   6.685  0.7917  0.3609 -0.1025
  626MOL0     H84483   0.243   4.724   6.513  1.9710 -4.2606 -2.8074
  626MOL0     H84484   0.022   4.547   6.614  1.3252 -0.1062 -1.5190
  626MOL0     H84485   0.043   4.574   6.446 -3.3144  0.2927 -0.3607
  626MOL0     H84486  -0.048   4.792   6.644  0.5482  2.5708 -1.6535
  626MOL0     H84487  -0.003   4.814   6.469  2.4395 -2.7559 -0.1995
  626MOL0     H84488  -0.209   4.614   6.583  0.9706 -0.1548 -0.3825
  626MOL0     H84489  -0.206   4.658   6.410 -0.1670 -2.4866  0.3865
  626MOL0     H84490  -0.307   4.824   6.623  0.3305 -0.3188  0.6747
  626MOL0     H84491  -0.405   4.755   6.501  0.5109 -1.1688  2.2629
  626MOL0     H84492   0.870   4.670   6.750 -1.3118  1.2555 -1.3394
  626MOL0     H84493   0.980   4.806   6.936  0.0477 -0.9498 -0.8274
  626MOL0     H84494   0.871   4.886   7.427 -0.2269 -3.9757  1.2333
  626MOL0     H84495   0.954   4.982   7.622 -1.1418  5.3858 -0.9694
  626MOL0     H84496   1.042   5.251   8.331  0.6550  0.6444 -0.2917
  626MOL0     H84497   0.840   5.117   8.248  2.1567 -2.7098  1.4538
  626MOL0     H84498   0.392   5.343   8.069 -0.8977 -3.1939 -4.2012
  626MOL0     H84499   0.165   5.339   8.049  0.6085 -2.8747 -1.9845
  626MOL0     H84500  -0.066   5.053   8.335  0.8240 -0.1337  0.3104
  626MOL0     H84501  -0.064   5.223   8.362  3.6994 -0.4365 -1.0483
  626MOL0     H84502  -0.260   5.069   8.180 -1.7507  0.7135 -1.3897
  626MOL0     H84503  -0.252   5.251   8.208  2.3343  1.6195  2.2261
  626MOL0     H84504  -0.318   5.245   8.426  2.4089  1.0480 -1.5496
  626MOL0     H84505  -0.272   5.069   8.449  3.6256  2.8943  1.6776
  626MOL0     H84506  -0.495   5.103   8.451  3.1764 -2.1934  1.0604
  626MOL0     H84507  -0.467   5.008   8.308  2.1618  0.7487 -1.5429
  626MOL0     H84508  -0.594   5.365   8.102 -0.1704  0.5038  0.3702
  626MOL0     H84509   0.138   5.049   8.378 -2.2938  3.1209  1.0793
  626MOL0     H84510   0.363   5.074   8.412 -2.0524  2.8779  2.6655
  627MOL0     O84511   2.967   5.322   1.356 -0.4099  0.7427 -0.3809
  627MOL0     C84512   2.978   5.310   1.479  0.4913 -0.5290  0.1246
  627MOL0     O84513   3.035   5.195   1.537  1.3658 -1.0139  0.7939
  627MOL0     C84514   3.073   5.086   1.458  0.6781  0.0321 -0.2405
  627MOL0     C84515   3.192   5.025   1.510  0.0203 -0.6907 -0.4013
  627MOL0     C84516   3.226   4.899   1.458 -0.6526  0.1732 -0.4323
  627MOL0     C84517   3.149   4.847   1.351  0.6118  1.0964  0.2456
  627MOL0     O84518   3.177   4.730   1.291 -0.2825  0.1713  0.4572
  627MOL0     C84519   3.317   4.679   1.281 -0.0304  0.2169 -0.1710
  627MOL0     C84520   3.346   4.589   1.160 -0.4758  0.1342 -0.8455
  627MOL0     C84521   3.383   4.670   1.041  0.3557  0.5823 -0.0561
  627MOL0     C84522   3.395   4.588   0.902  0.7080  0.1094 -0.3121
  627MOL0     C84523   3.498   4.476   0.911 -0.4871  0.0754  0.4826
  627MOL0     C84524   3.521   4.398   0.782 -0.8114 -0.5406  0.8445
  627MOL0     C84525   3.662   4.325   0.769  0.0133  0.5938 -0.3843
  627MOL0     C84526   3.659   4.173   0.773  0.6540 -0.7717 -0.8415
  627MOL0     N84527   3.614   4.115   0.908 -1.3090  0.5716  0.9149
  627MOL0     C84528   3.674   4.146   1.029  0.7756  0.4312 -0.1791
  627MOL0     C84529   3.582   4.098   1.112 -0.5698 -0.3849 -1.5308
  627MOL0     C84530   3.591   4.093   1.260 -0.6914 -0.7265 -0.3891
  627MOL0     C84531   3.539   4.206   1.334  0.0423  0.8687  0.0984
  627MOL0     C84532   3.486   4.158   1.469  0.8989  0.3619 -0.0928
  627MOL0     C84533   3.389   4.258   1.531  0.9413  0.4229  0.5075
  627MOL0     O84534   3.444   4.389   1.547 -0.1134 -0.1171 -0.0305
  627MOL0     C84535   3.377   4.481   1.628 -0.4161 -0.0721  0.5632
  627MOL0     C84536   3.449   4.587   1.688 -0.1272 -0.8700 -0.8071
  627MOL0     C84537   3.391   4.688   1.764 -0.2578  0.8264 -0.9625
  627MOL0     C84538   3.484   4.790   1.818  0.8258  0.6712 -0.1639
  627MOL0     C84539   3.250   4.682   1.787 -0.2875 -0.8027 -0.1493
  627MOL0     C84540   3.176   4.800   1.854 -0.2848 -0.4381  0.7679
  627MOL0     O84541   3.051   4.786   1.901  0.7624  0.2927 -0.4107
  627MOL0     C84542   2.979   4.893   1.953 -0.1225 -0.1923  0.4166
  627MOL0     C84543   2.945   4.874   2.083 -0.0561 -0.3295  0.1308
  627MOL0     C84544   2.873   4.979   2.150  1.3748  0.4826 -0.4943
  627MOL0     C84545   2.823   5.092   2.072 -0.1532 -0.1414 -0.5241
  627MOL0     O84546   2.759   5.186   2.153  0.4130 -0.5244 -0.0458
  627MOL0     C84547   2.724   5.317   2.105 -0.6408  0.9825  0.5549
  627MOL0     C84548   2.648   5.389   2.217  0.1659 -0.2118 -0.2165
  627MOL0     C84549   2.636   5.534   2.198 -0.5155 -0.2574 -0.6795
  627MOL0     C84550   2.563   5.593   2.322 -0.1820  1.2651 -1.0500
  627MOL0     C84551   2.541   5.736   2.295 -0.2282  0.9757  0.6661
  627MOL0     C84552   2.486   5.792   2.430  0.2722  0.0815  0.2810
  627MOL0     C84553   2.450   5.932   2.402 -0.1586  0.5264 -0.0993
  627MOL0     C84554   2.426   6.014   2.536 -0.4799 -0.6176 -0.3899
  627MOL0    Cl84555   2.295   5.942   2.630  0.4929 -0.1147  0.1032
  627MOL0     C84556   2.865   5.103   1.941  0.0464  0.2117 -1.1284
  627MOL0     C84557   2.949   5.011   1.877  1.3425 -0.0100 -1.3225
  627MOL0     O84558   3.227   4.916   1.843 -0.5177 -0.0509 -0.0926
  627MOL0     C84559   3.184   4.571   1.743  0.5371 -0.6145  0.2267
  627MOL0     C84560   3.246   4.480   1.666 -0.2702 -0.3171  0.0488
  627MOL0     N84561   3.485   4.041   1.036  0.6277  0.7824 -0.3887
  627MOL0     N84562   3.499   4.048   0.911 -0.5682 -0.1885  0.9643
  627MOL0     C84563   3.034   4.909   1.302 -0.8131 -0.6691  1.0195
  627MOL0     C84564   3.000   5.032   1.354  0.6353 -0.4691 -0.1769
  627MOL0     C84565   2.976   5.433   1.560  0.7628  1.5428 -0.5699
  627MOL0     C84566   2.913   5.548   1.521 -0.0981  0.2973 -0.1781
  627MOL0     C84567   2.906   5.665   1.605 -0.2432  0.0445  0.4763
  627MOL0     C84568   2.975   5.664   1.733 -0.3215  0.2975  0.1520
  627MOL0     O84569   2.976   5.787   1.796 -0.1151 -0.3815  0.0069
  627MOL0     C84570   3.038   5.796   1.925 -0.5412 -0.1946  0.5987
  627MOL0     C84571   3.028   5.939   1.979  0.3634 -0.6724 -0.6266
  627MOL0     C84572   3.093   6.028   1.873  0.2217  0.7949  0.2498
  627MOL0     C84573   3.081   6.176   1.900 -0.8513 -0.7451 -0.2987
  627MOL0     C84574   3.170   6.238   2.003  0.6187  0.9897 -0.8186
  627MOL0     C84575   3.235   6.278   2.099 -0.9071  0.0231  0.1186
  627MOL0     C84576   3.037   5.545   1.778  0.1145  0.8493  0.8817
  627MOL0     C84577   3.033   5.431   1.696  0.3984 -0.1715  0.5980
  627MOL0     H84578   3.252   5.080   1.582  0.6135 -0.8920 -0.7404
  627MOL0     H84579   3.313   4.842   1.488  0.3362  1.3765 -0.8984
  627MOL0     H84580   3.393   4.756   1.267  2.1907 -2.1524 -2.2764
  627MOL0     H84581   3.339   4.627   1.375 -3.1328 -0.9841  0.0156
  627MOL0     H84582   3.426   4.521   1.192 -0.5755  0.3287 -0.1602
  627MOL0     H84583   3.269   4.513   1.141 -0.2968 -1.3351  3.3001
  627MOL0     H84584   3.300   4.741   1.032 -0.5475  0.1204  3.3205
  627MOL0     H84585   3.481   4.719   1.048  0.0298  1.4573 -1.4322
  627MOL0     H84586   3.300   4.544   0.869  0.1735  0.0177  1.2712
  627MOL0     H84587   3.422   4.669   0.834  2.9870  2.5025  3.1146
  627MOL0     H84588   3.591   4.519   0.950 -0.5118  0.2221  0.3837
  627MOL0     H84589   3.478   4.401   0.988  2.5177  0.4484  1.7875
  627MOL0     H84590   3.445   4.320   0.774 -0.1950 -1.0659 -0.1492
  627MOL0     H84591   3.511   4.469   0.699 -0.5936  0.1764  1.4176
  627MOL0     H84592   3.706   4.352   0.673  0.6053 -1.5985 -0.7841
  627MOL0     H84593   3.728   4.349   0.854 -0.4655 -2.5560  1.0450
  627MOL0     H84594   3.765   4.148   0.769  1.1192  1.1278 -2.3257
  627MOL0     H84595   3.602   4.131   0.690 -1.1961 -0.1965  0.0924
  627MOL0     H84596   3.753   4.213   1.063 -1.3978  2.7920  0.6274
  627MOL0     H84597   3.523   4.010   1.285 -1.0265  0.4453  3.2077
  627MOL0     H84598   3.695   4.078   1.288  0.7097  3.1741 -2.7394
  627MOL0     H84599   3.454   4.244   1.276 -1.3964 -1.8500  0.2558
  627MOL0     H84600   3.615   4.284   1.345 -2.5000  3.7478 -1.0536
  627MOL0     H84601   3.566   4.164   1.543  1.4906 -1.4488 -0.5413
  627MOL0     H84602   3.436   4.061   1.470 -1.7268  1.6233  1.3346
  627MOL0     H84603   3.366   4.221   1.631 -2.6816  0.6438 -0.1087
  627MOL0     H84604   3.298   4.267   1.471  1.6852  0.5987 -0.6184
  627MOL0     H84605   3.555   4.591   1.667  0.0947  0.1019  0.3791
  627MOL0     H84606   3.491   4.883   1.761 -0.8368  1.2476  0.5135
  627MOL0     H84607   3.453   4.814   1.920  1.7500  2.2062 -0.2225
  627MOL0     H84608   3.581   4.742   1.830  0.0299 -0.7264  1.0041
  627MOL0     H84609   2.970   4.788   2.144 -0.2689 -0.0226  0.6613
  627MOL0     H84610   2.841   4.971   2.253  0.8397  3.4840 -0.3369
  627MOL0     H84611   2.812   5.379   2.087 -0.6514  0.4688 -1.5408
  627MOL0     H84612   2.660   5.301   2.017  2.0274  0.9081 -1.4968
  627MOL0     H84613   2.545   5.354   2.229 -1.0487  2.2486 -2.4771
  627MOL0     H84614   2.698   5.370   2.313 -2.3363 -1.1066  0.9887
  627MOL0     H84615   2.573   5.556   2.112 -0.3357 -2.3697 -1.4082
  627MOL0     H84616   2.735   5.579   2.189 -0.6151  0.3152  0.8615
  627MOL0     H84617   2.465   5.548   2.339  0.2230  1.5305  2.6883
  627MOL0     H84618   2.628   5.575   2.407  1.6908 -1.5737 -2.8982
  627MOL0     H84619   2.470   5.734   2.212 -1.2243 -1.3248  1.4785
  627MOL0     H84620   2.635   5.787   2.272 -0.5371  0.7516 -1.2964
  627MOL0     H84621   2.392   5.738   2.446 -0.2671  0.5501 -1.1268
  627MOL0     H84622   2.564   5.769   2.503 -0.3349 -1.6887  0.4222
  627MOL0     H84623   2.360   5.941   2.341  1.7928 -1.1525 -3.5166
  627MOL0     H84624   2.521   5.983   2.338  0.8816 -1.4089 -0.5821
  627MOL0     H84625   2.389   6.110   2.500 -0.7991 -2.0531 -4.3930
  627MOL0     H84626   2.516   6.039   2.594  0.0002  0.0293 -1.3861
  627MOL0     H84627   2.831   5.189   1.884 -0.6483 -0.8046 -2.3010
  627MOL0     H84628   2.979   5.022   1.773 -1.1690  1.7505 -1.9488
  627MOL0     H84629   3.076   4.567   1.754  0.6826 -1.5351  1.5674
  627MOL0     H84630   3.181   4.405   1.622 -0.1137 -0.6734  0.4177
  627MOL0     H84631   2.962   4.862   1.236 -0.3610 -1.1584  0.8732
  627MOL0     H84632   2.911   5.090   1.331 -0.0617  0.0700  3.3978
  627MOL0     H84633   2.876   5.547   1.419  2.0877 -0.2356 -1.0175
  627MOL0     H84634   2.859   5.756   1.570  0.8563 -0.6025 -3.1122
  627MOL0     H84635   2.998   5.734   2.006 -0.8281 -0.5995  0.1520
  627MOL0     H84636   3.145   5.774   1.920 -0.3698  0.6149  0.4675
  627MOL0     H84637   3.081   5.949   2.074  0.8333  0.5890 -1.0026
  627MOL0     H84638   2.925   5.974   1.995  1.1327  2.1524 -1.3217
  627MOL0     H84639   3.049   5.997   1.778  2.2711  1.3374 -0.9387
  627MOL0     H84640   3.199   6.011   1.852 -0.2735 -3.5405  0.4557
  627MOL0     H84641   2.976   6.188   1.928 -0.6921  0.6496 -0.2023
  627MOL0     H84642   3.104   6.237   1.812  2.6468 -1.7334 -0.2063
  627MOL0     H84643   3.299   6.324   2.171  1.3298 -1.5783 -0.7607
  627MOL0     H84644   3.092   5.531   1.870  0.2866 -1.8930  0.4580
  627MOL0     H84645   3.078   5.340   1.734  1.2184 -0.6323 -1.3713
  628MOL0     O84646   1.925   0.371   8.435 -0.7849  0.3551  0.3357
  628MOL0     C84647   1.830   0.430   8.378  0.5565 -0.3545  0.1039
  628MOL0     O84648   1.796   0.424   8.241  0.9665  0.2452 -0.3326
  628MOL0     C84649   1.854   0.348   8.144  0.2061 -0.2658  0.5253
  628MOL0     C84650   1.823   0.369   8.009 -0.1122  0.9870  0.0544
  628MOL0     C84651   1.865   0.291   7.907 -0.5682  1.2318 -0.4122
  628MOL0     C84652   1.949   0.185   7.929 -0.0822 -0.6359 -0.6071
  628MOL0     O84653   2.001   0.097   7.841 -0.1185  0.6019 -0.2599
  628MOL0     C84654   1.993   0.137   7.703  0.4847 -0.0792  0.4098
  628MOL0     C84655   2.051   0.031   7.615 -0.0744 -0.2479 -0.6057
  628MOL0     C84656   2.122   0.081   7.496  0.2218 -0.7587 -0.2193
  628MOL0     C84657   2.056   0.026   7.367  0.5154 -0.0921  0.9108
  628MOL0     C84658   2.159   0.031   7.251 -0.0445  0.0448 -0.1971
  628MOL0     C84659   2.096  -0.015   7.121  0.0808  0.0569  0.9933
  628MOL0     C84660   2.181   0.025   6.999 -0.2200 -0.2919 -0.8163
  628MOL0     C84661   2.126  -0.062   6.890 -0.3379  0.2227  0.2451
  628MOL0     N84662   2.203  -0.055   6.761 -0.7532 -0.2370 -0.3050
  628MOL0     C84663   2.287   0.042   6.714  0.4735 -0.5596 -1.4129
  628MOL0     C84664   2.309   0.017   6.581 -0.1433 -0.2883  0.0347
  628MOL0     C84665   2.402   0.089   6.492 -0.1525 -0.5143  0.4723
  628MOL0     C84666   2.392   0.039   6.347 -0.7973  0.1724 -0.3386
  628MOL0     C84667   2.461   0.142   6.255 -0.2516 -0.4874 -0.4098
  628MOL0     C84668   2.459   0.089   6.109 -0.7455  0.6116  0.1201
  628MOL0     O84669   2.534   0.175   6.019 -0.3293 -0.2149 -0.0389
  628MOL0     C84670   2.673   0.194   6.012  0.1993 -0.1885 -0.7316
  628MOL0     C84671   2.761   0.098   6.052  0.0128  0.4780  0.1837
  628MOL0     C84672   2.903   0.110   6.035 -0.0531 -0.5231  0.8203
  628MOL0     C84673   3.000  -0.015   6.060 -0.0881 -0.3996 -0.3510
  628MOL0     C84674   2.951   0.233   5.986  0.5693 -0.1193 -0.0711
  628MOL0     C84675   3.104   0.264   5.960 -0.3593 -1.0545  0.0540
  628MOL0     O84676   3.128   0.373   5.873 -0.0782  0.3591 -0.3030
  628MOL0     C84677   3.258   0.432   5.868  0.4464 -0.3459 -0.6469
  628MOL0     C84678   3.275   0.561   5.921 -0.0826  0.2214  0.2892
  628MOL0     C84679   3.400   0.616   5.912 -0.3956 -0.0734 -0.4359
  628MOL0     C84680   3.505   0.547   5.864 -0.6352  0.0176  0.1923
  628MOL0     O84681   3.622   0.620   5.864  0.1921  0.5881 -0.0707
  628MOL0     C84682   3.740   0.565   5.802 -0.0427 -0.7524 -0.1552
  628MOL0     C84683   3.843   0.673   5.798  0.0991  0.5369 -0.2180
  628MOL0     C84684   3.895   0.715   5.953  0.2334 -1.1830 -0.5095
  628MOL0     C84685   3.948   0.858   5.963  0.4330  0.6028  0.0016
  628MOL0     C84686   3.981   0.896   6.105 -0.1631 -0.1641 -0.6601
  628MOL0     C84687   3.872   0.929   6.214  0.5195  0.8612  0.1629
  628MOL0     C84688   3.932   0.980   6.345  0.3497 -0.5543 -0.3458
  628MOL0     C84689   3.837   0.960   6.464 -0.3598  0.9741 -1.2023
  628MOL0    Cl84690   3.871   1.067   6.604 -0.3917  0.2697  0.0992
  628MOL0     C84691   3.490   0.421   5.809 -0.5005  0.0719 -0.7201
  628MOL0     C84692   3.368   0.363   5.813  0.8899  0.5449 -0.3520
  628MOL0     O84693   3.187   0.209   6.028  0.7108 -0.7477 -0.3726
  628MOL0     C84694   2.858   0.337   5.962  0.7689  0.3339 -0.1652
  628MOL0     C84695   2.718   0.313   5.963 -0.7103  0.3290 -1.4404
  628MOL0     N84696   2.231  -0.091   6.550  0.7828 -0.2053  0.2052
  628MOL0     N84697   2.173  -0.131   6.656 -1.1559 -0.4052  0.1542
  628MOL0     C84698   1.966   0.152   8.066  0.2024 -0.1620  0.0572
  628MOL0     C84699   1.926   0.238   8.172 -0.6946  0.0502  0.1514
  628MOL0     C84700   1.727   0.509   8.454 -0.4096 -0.1175 -0.0904
  628MOL0     C84701   1.606   0.534   8.395  0.6827 -0.8180  0.9370
  628MOL0     C84702   1.513   0.626   8.457  0.0452 -0.6867  0.6032
  628MOL0     C84703   1.537   0.672   8.585 -0.8809  0.5895  0.3278
  628MOL0     O84704   1.458   0.759   8.658 -0.6182  0.1256 -0.1159
  628MOL0     C84705   1.363   0.849   8.592  1.1442 -0.5404 -0.5283
  628MOL0     C84706   1.228   0.817   8.647 -0.7938 -0.3166  0.4605
  628MOL0     C84707   1.128   0.934   8.602  0.3244 -0.1920  0.2516
  628MOL0     C84708   1.088   0.932   8.454 -0.5416 -0.1336  0.8792
  628MOL0     C84709   1.154   1.025   8.364  0.2933 -0.1975  0.3194
  628MOL0     C84710   1.225   1.090   8.295  0.5210  0.6354  0.5686
  628MOL0     C84711   1.652   0.640   8.653 -0.8744  0.3156  0.6336
  628MOL0     C84712   1.747   0.565   8.581  0.5557  0.5633 -1.0951
  628MOL0     H84713   1.744   0.441   7.996 -1.9680 -1.2780 -2.1179
  628MOL0     H84714   1.852   0.327   7.805 -0.2317  1.0232 -0.5333
  628MOL0     H84715   1.888   0.144   7.673  0.8009  0.3989 -0.6256
  628MOL0     H84716   2.025   0.240   7.686 -0.8419  0.1697 -0.7910
  628MOL0     H84717   2.128  -0.016   7.676 -2.2832 -0.0684  2.5211
  628MOL0     H84718   1.977  -0.044   7.585  0.6765 -0.3588 -2.3110
  628MOL0     H84719   2.142   0.188   7.504  1.2890 -0.8638 -1.2079
  628MOL0     H84720   2.224   0.043   7.498  0.8558  0.7192 -1.7283
  628MOL0     H84721   2.019  -0.077   7.371 -2.8216  1.0084  1.2704
  628MOL0     H84722   1.976   0.090   7.328  0.7169 -2.2099 -3.5479
  628MOL0     H84723   2.178   0.137   7.233 -0.8559  0.3720  0.8493
  628MOL0     H84724   2.249  -0.027   7.272 -0.8567 -1.2376 -0.1642
  628MOL0     H84725   2.107  -0.124   7.124  1.1474  0.0205 -1.6574
  628MOL0     H84726   1.988   0.003   7.111 -0.3038 -2.8957 -2.3109
  628MOL0     H84727   2.168   0.133   6.991 -1.0633 -0.4821 -2.5083
  628MOL0     H84728   2.287   0.010   7.019  0.1035  0.7303 -1.6757
  628MOL0     H84729   2.024  -0.040   6.857 -0.0177 -0.3469 -1.1906
  628MOL0     H84730   2.143  -0.166   6.918  0.3291  0.4625  0.7413
  628MOL0     H84731   2.333   0.115   6.780 -0.0997  0.1643 -1.7925
  628MOL0     H84732   2.368   0.193   6.494  0.9239 -0.1730  1.7822
  628MOL0     H84733   2.501   0.081   6.536 -0.0866 -0.0839  0.4079
  628MOL0     H84734   2.286   0.017   6.330 -0.4190 -2.9199  0.7181
  628MOL0     H84735   2.447  -0.054   6.332  2.8021  1.8776  1.0727
  628MOL0     H84736   2.564   0.150   6.288 -0.1614 -0.8565 -0.6027
  628MOL0     H84737   2.412   0.240   6.252  0.7522  0.0632  0.5756
  628MOL0     H84738   2.353   0.088   6.080 -0.9808  2.1066  0.8059
  628MOL0     H84739   2.501  -0.012   6.102 -0.4878  0.7851 -1.0650
  628MOL0     H84740   2.712   0.012   6.096  1.4326 -1.9199 -2.5893
  628MOL0     H84741   2.945  -0.099   6.105 -0.1008 -0.3847 -0.3384
  628MOL0     H84742   3.055  -0.038   5.969 -2.9553 -2.6096 -1.7100
  628MOL0     H84743   3.077   0.014   6.132 -1.1579  2.9332 -0.3966
  628MOL0     H84744   3.196   0.620   5.966  0.0554  1.7151 -1.3079
  628MOL0     H84745   3.413   0.712   5.961  0.8738 -1.3564  1.9050
  628MOL0     H84746   3.766   0.475   5.857 -1.3981 -0.6091  0.7437
  628MOL0     H84747   3.709   0.532   5.702  0.0129  0.4380 -0.5828
  628MOL0     H84748   3.932   0.644   5.742 -0.3170 -0.9091 -0.1699
  628MOL0     H84749   3.802   0.757   5.741 -1.6471 -0.7122 -0.9099
  628MOL0     H84750   3.981   0.649   5.971  0.8324 -2.0797 -5.2932
  628MOL0     H84751   3.811   0.706   6.023 -1.6276  0.8535 -2.3183
  628MOL0     H84752   4.043   0.851   5.910  0.4672  2.2740 -0.2254
  628MOL0     H84753   3.884   0.938   5.924  1.0051  2.7195  3.0516
  628MOL0     H84754   4.045   0.983   6.086  1.4483 -1.1363  0.0368
  628MOL0     H84755   4.040   0.812   6.143 -1.5895 -0.5157  0.8530
  628MOL0     H84756   3.798   1.001   6.179  2.3737  2.2905 -1.0029
  628MOL0     H84757   3.826   0.833   6.238  2.0327  0.1503  0.3267
  628MOL0     H84758   3.949   1.088   6.337 -1.4907  0.2844  4.0146
  628MOL0     H84759   4.027   0.929   6.356  0.9731 -0.1990 -3.2726
  628MOL0     H84760   3.851   0.856   6.495  2.4159  1.8203  0.7628
  628MOL0     H84761   3.736   0.983   6.430 -1.4491 -0.4145  0.8955
  628MOL0     H84762   3.581   0.368   5.782 -0.1540 -0.4508  1.3509
  628MOL0     H84763   3.361   0.257   5.788  1.7157  0.0054  1.5090
  628MOL0     H84764   2.882   0.437   5.928 -2.6009  1.2696 -0.1503
  628MOL0     H84765   2.651   0.396   5.941  0.4575  2.2651  1.6412
  628MOL0     H84766   2.018   0.058   8.084  1.3569  0.2639 -0.9023
  628MOL0     H84767   1.948   0.197   8.270  1.9420 -1.6102 -1.0305
  628MOL0     H84768   1.575   0.495   8.299 -1.7455 -2.5796  2.3147
  628MOL0     H84769   1.416   0.637   8.411 -0.9205 -1.3981  2.3536
  628MOL0     H84770   1.380   0.954   8.617 -1.8758 -0.3757  1.3902
  628MOL0     H84771   1.356   0.836   8.484  1.2862  0.6669 -0.6960
  628MOL0     H84772   1.220   0.814   8.756  1.4005  1.4678  0.7697
  628MOL0     H84773   1.195   0.717   8.618  2.6864 -1.6369  0.5340
  628MOL0     H84774   1.163   1.035   8.627  0.2389  0.2455 -1.3012
  628MOL0     H84775   1.039   0.921   8.664  0.5197 -2.5232  0.1316
  628MOL0     H84776   0.981   0.956   8.451 -0.3013  1.4167  2.6943
  628MOL0     H84777   1.096   0.832   8.411 -5.3522 -0.2660 -0.3033
  628MOL0     H84778   1.285   1.138   8.219  1.1038 -2.0233 -0.7580
  628MOL0     H84779   1.669   0.663   8.758  2.3440 -1.4015  0.6290
  628MOL0     H84780   1.837   0.544   8.638 -1.2126  0.7037  1.9921
  629MOL0     O84781   7.411   8.920   4.104  0.4267 -0.2045 -0.0472
  629MOL0     C84782   7.311   8.977   4.055  0.8290  0.8831  0.4126
  629MOL0     O84783   7.197   8.915   4.006 -0.4665 -0.2916 -0.8437
  629MOL0     C84784   7.152   8.824   4.100  0.3723 -0.6800 -0.1081
  629MOL0     C84785   7.117   8.854   4.231  0.0256 -0.7110 -1.0238
  629MOL0     C84786   7.072   8.747   4.312  0.4156  0.1456  0.2976
  629MOL0     C84787   7.056   8.614   4.265 -0.0868 -0.5479 -0.8004
  629MOL0     O84788   7.009   8.517   4.350 -0.0427  0.9853  0.2865
  629MOL0     C84789   6.886   8.551   4.413  0.4925  0.0811 -1.2829
  629MOL0     C84790   6.779   8.468   4.336  0.5835  0.1486 -0.9863
  629MOL0     C84791   6.646   8.492   4.405  0.9066  0.1454  0.3990
  629MOL0     C84792   6.536   8.439   4.303 -0.1196 -0.1145 -0.8581
  629MOL0     C84793   6.404   8.430   4.379 -0.9310 -0.2928 -0.7902
  629MOL0     C84794   6.288   8.418   4.279  0.7327 -0.3502  0.3481
  629MOL0     C84795   6.166   8.374   4.358  0.8694  0.1752  0.3225
  629MOL0     C84796   6.112   8.232   4.343  0.5829  0.2893  0.1896
  629MOL0     N84797   5.985   8.227   4.423 -0.2087  0.7413  0.4335
  629MOL0     C84798   5.928   8.122   4.493 -0.2545  0.2853  0.2497
  629MOL0     C84799   5.800   8.151   4.533 -0.8156 -0.3162  0.5428
  629MOL0     C84800   5.705   8.060   4.614 -0.4379 -0.4375 -0.5081
  629MOL0     C84801   5.601   8.136   4.690  0.5138  1.0185  0.2203
  629MOL0     C84802   5.510   8.044   4.767 -0.0072 -0.0206 -0.2284
  629MOL0     C84803   5.574   7.988   4.896 -0.3036  0.2130  0.0901
  629MOL0     O84804   5.482   7.894   4.956 -0.9069  0.8952  0.3898
  629MOL0     C84805   5.506   7.848   5.088 -0.3057 -1.3911  0.6331
  629MOL0     C84806   5.619   7.895   5.175 -0.5365 -1.1876 -0.3951
  629MOL0     C84807   5.642   7.851   5.301  0.2315  0.5346  0.2430
  629MOL0     C84808   5.755   7.911   5.383  0.7005 -0.7977 -0.1428
  629MOL0     C84809   5.555   7.755   5.363 -0.5836 -0.0424  0.0880
  629MOL0     C84810   5.558   7.695   5.502  0.6620 -0.2047  0.1984
  629MOL0     O84811   5.442   7.645   5.553 -0.3267  0.3414 -0.4168
  629MOL0     C84812   5.426   7.655   5.687 -0.9232  0.5682 -0.8369
  629MOL0     C84813   5.392   7.775   5.753  0.1194 -0.1935 -0.9483
  629MOL0     C84814   5.367   7.769   5.893 -1.2619 -0.2591  0.0898
  629MOL0     C84815   5.387   7.654   5.970  0.8571  0.0604  0.8773
  629MOL0     O84816   5.379   7.648   6.106  0.0287 -0.0814  0.2107
  629MOL0     C84817   5.490   7.581   6.174  0.7712  0.6499  0.7525
  629MOL0     C84818   5.485   7.579   6.325  0.1001  0.0804 -0.0618
  629MOL0     C84819   5.630   7.593   6.376  0.6109 -0.2202  0.2076
  629MOL0     C84820   5.631   7.571   6.527 -0.1623  0.7802 -0.8751
  629MOL0     C84821   5.601   7.427   6.560  0.4528 -0.7266  1.0771
  629MOL0     C84822   5.602   7.410   6.711  0.6623 -0.4595  0.2352
  629MOL0     C84823   5.590   7.268   6.770  0.0457  0.3368  0.5510
  629MOL0     C84824   5.607   7.269   6.918 -0.5954 -0.5218 -0.5644
  629MOL0    Cl84825   5.568   7.104   6.980 -0.4716 -0.2684 -0.0966
  629MOL0     C84826   5.434   7.542   5.901 -0.4877  1.7855  0.8819
  629MOL0     C84827   5.435   7.541   5.765  0.1432 -0.0964  0.1310
  629MOL0     O84828   5.665   7.687   5.561  0.8009  0.0366 -0.4590
  629MOL0     C84829   5.461   7.700   5.272  0.4745  0.4996 -0.3078
  629MOL0     C84830   5.439   7.744   5.144 -0.6348 -0.2845  0.0156
  629MOL0     N84831   5.782   8.283   4.481  0.6441 -0.2538  0.2013
  629MOL0     N84832   5.889   8.318   4.413 -0.9418  0.2678  0.3708
  629MOL0     C84833   7.094   8.591   4.136 -0.1833 -1.4846  0.5975
  629MOL0     C84834   7.145   8.689   4.050 -0.4508  0.6934 -0.3383
  629MOL0     C84835   7.310   9.128   4.026  1.6361  0.0234  0.7498
  629MOL0     C84836   7.415   9.205   4.069 -0.4582  0.2985 -0.0408
  629MOL0     C84837   7.422   9.339   4.040  0.7310  0.0924  0.1851
  629MOL0     C84838   7.325   9.407   3.978  0.7788 -0.6670  0.4504
  629MOL0     O84839   7.328   9.545   3.974  0.0314  0.8003 -0.1320
  629MOL0     C84840   7.388   9.600   3.863  0.6728  0.0178  0.1321
  629MOL0     C84841   7.354   9.748   3.875  0.2836 -0.1081  0.8141
  629MOL0     C84842   7.330   9.812   4.023  0.4817 -0.2618  0.2163
  629MOL0     C84843   7.268   9.951   3.991 -0.1909  0.4777 -0.1983
  629MOL0     C84844   7.260  10.026   4.115  0.1782  0.3071  0.0412
  629MOL0     C84845   7.247  10.070   4.226  1.0013  0.6859 -0.5885
  629MOL0     C84846   7.209   9.336   3.944  0.1626 -0.4201 -0.0138
  629MOL0     C84847   7.197   9.197   3.975 -0.1599 -0.4237 -0.1876
  629MOL0     H84848   7.117   8.952   4.277 -3.5194  0.1510 -2.4636
  629MOL0     H84849   7.050   8.780   4.413 -0.6630  2.8317 -0.7279
  629MOL0     H84850   6.892   8.513   4.516  3.0531 -2.9000 -2.3643
  629MOL0     H84851   6.867   8.658   4.410  1.8654  0.3184 -1.8746
  629MOL0     H84852   6.773   8.497   4.231  0.1215  4.7861  0.0864
  629MOL0     H84853   6.807   8.362   4.340  0.8476  0.2418  1.4651
  629MOL0     H84854   6.639   8.455   4.507 -2.7064  0.9373  0.5649
  629MOL0     H84855   6.615   8.594   4.431 -0.9980 -0.7536  1.8728
  629MOL0     H84856   6.522   8.494   4.209  2.9216  0.1189 -1.2655
  629MOL0     H84857   6.563   8.337   4.275 -0.4678 -0.5782  0.4146
  629MOL0     H84858   6.399   8.351   4.455  1.3255  1.0704  0.8920
  629MOL0     H84859   6.381   8.518   4.438 -6.6377 -3.5406  2.7065
  629MOL0     H84860   6.276   8.521   4.244  1.2211  0.6783  2.9799
  629MOL0     H84861   6.307   8.351   4.195 -0.2593 -2.4721  1.7184
  629MOL0     H84862   6.183   8.397   4.464 -0.2756  1.0586  0.3375
  629MOL0     H84863   6.081   8.434   4.325  0.4610 -1.9862 -2.9416
  629MOL0     H84864   6.178   8.152   4.378 -1.3451 -1.4766  0.0392
  629MOL0     H84865   6.088   8.215   4.238 -0.2661  2.6386 -0.0436
  629MOL0     H84866   5.967   8.023   4.517 -1.3987 -1.0376 -2.8792
  629MOL0     H84867   5.647   7.997   4.546  2.1509 -0.8626 -2.4856
  629MOL0     H84868   5.768   7.993   4.674  2.7621  0.4138 -2.6218
  629MOL0     H84869   5.534   8.185   4.619 -0.1980 -0.1815  0.0184
  629MOL0     H84870   5.637   8.212   4.759  0.5840  0.4128  0.8665
  629MOL0     H84871   5.452   7.972   4.709 -0.4301  0.6168 -0.6216
  629MOL0     H84872   5.426   8.109   4.793 -0.4816  0.0174 -1.7465
  629MOL0     H84873   5.589   8.072   4.963  3.2489  0.7971 -1.2183
  629MOL0     H84874   5.667   7.934   4.874  0.8419  2.1860 -0.1045
  629MOL0     H84875   5.686   7.974   5.144  0.3948 -1.8223 -0.0132
  629MOL0     H84876   5.793   7.994   5.324 -1.0223 -0.8960 -1.4530
  629MOL0     H84877   5.725   7.950   5.481  3.8772  2.6126 -0.3124
  629MOL0     H84878   5.840   7.846   5.407  1.3194  1.3693  4.8806
  629MOL0     H84879   5.383   7.871   5.702 -2.0534  0.3045  0.2690
  629MOL0     H84880   5.342   7.855   5.954 -1.7980  0.6143 -1.2957
  629MOL0     H84881   5.496   7.476   6.143  0.2515  1.2451 -1.5243
  629MOL0     H84882   5.585   7.631   6.150  0.2393  2.1334  1.6342
  629MOL0     H84883   5.415   7.657   6.358  0.6432 -1.0453  4.4775
  629MOL0     H84884   5.433   7.491   6.364  2.7680 -0.1585  3.4235
  629MOL0     H84885   5.686   7.676   6.331 -0.1778 -0.5541 -1.4353
  629MOL0     H84886   5.677   7.499   6.347  0.5856 -0.5180  1.1033
  629MOL0     H84887   5.734   7.588   6.561 -0.5846 -0.7942  1.4062
  629MOL0     H84888   5.565   7.644   6.574 -0.3852 -0.9292  1.6416
  629MOL0     H84889   5.674   7.356   6.521  0.3069 -0.6357  0.6282
  629MOL0     H84890   5.501   7.393   6.531 -0.9315  1.8392  2.4796
  629MOL0     H84891   5.692   7.456   6.752  0.3044  0.2579  0.2221
  629MOL0     H84892   5.518   7.469   6.750 -0.4192 -1.2976 -0.7221
  629MOL0     H84893   5.670   7.213   6.719  1.0701  2.9707 -0.8677
  629MOL0     H84894   5.498   7.214   6.745 -0.8801  1.8913  0.5064
  629MOL0     H84895   5.551   7.348   6.970 -1.1901 -1.4354  0.2094
  629MOL0     H84896   5.712   7.276   6.946 -0.9702  1.1942  0.5805
  629MOL0     H84897   5.451   7.449   5.955  0.4150  2.0513  1.0664
  629MOL0     H84898   5.458   7.451   5.708  3.3876  0.6923 -0.0320
  629MOL0     H84899   5.410   7.612   5.310  1.4791  0.3818  0.8535
  629MOL0     H84900   5.384   7.683   5.073  0.0448 -1.4886  0.4930
  629MOL0     H84901   7.096   8.486   4.110  3.0358 -0.5428 -4.5162
  629MOL0     H84902   7.174   8.653   3.952 -0.7091 -0.7549  0.0924
  629MOL0     H84903   7.498   9.159   4.122 -2.7725 -3.2897  0.8837
  629MOL0     H84904   7.506   9.396   4.079  0.2286  0.4244  0.7928
  629MOL0     H84905   7.497   9.591   3.872  0.5516 -1.7871  0.1608
  629MOL0     H84906   7.366   9.538   3.776  1.2666 -0.2111  0.1408
  629MOL0     H84907   7.259   9.760   3.822 -3.3656 -0.2220  6.4224
  629MOL0     H84908   7.439   9.803   3.834  0.0832  0.3573  1.0193
  629MOL0     H84909   7.430   9.817   4.067  0.7306 -1.3203 -0.1875
  629MOL0     H84910   7.264   9.754   4.088 -0.2411  2.2406  1.8719
  629MOL0     H84911   7.168   9.923   3.955  0.0393 -0.8039  0.0976
  629MOL0     H84912   7.334  10.011   3.928 -1.2637  1.2667 -0.5995
  629MOL0     H84913   7.231  10.137   4.309  0.2573  3.1874 -2.6351
  629MOL0     H84914   7.137   9.388   3.882  0.1285  0.6694  0.9233
  629MOL0     H84915   7.107   9.148   3.941 -0.9562  1.4508 -0.9037
  630MOL0     O84916   7.854   7.403   5.359 -0.6685  0.2521  0.1669
  630MOL0     C84917   7.922   7.308   5.396 -0.0915  0.8946  1.0143
  630MOL0     O84918   8.041   7.319   5.457 -0.3828  0.1851  0.3049
  630MOL0     C84919   8.082   7.449   5.475  0.1778  0.9061 -0.6066
  630MOL0     C84920   8.034   7.542   5.573  0.2188 -0.6788  0.4213
  630MOL0     C84921   8.078   7.679   5.590  0.4388  0.2248  0.4874
  630MOL0     C84922   8.181   7.718   5.510 -0.5537  0.1640  0.8831
  630MOL0     O84923   8.240   7.836   5.536  1.1141  0.0263 -0.0338
  630MOL0     C84924   8.345   7.885   5.446 -0.4769 -0.6848 -0.8473
  630MOL0     C84925   8.407   8.002   5.522 -0.4718  0.1683  0.6577
  630MOL0     C84926   8.314   8.129   5.528  0.4093 -0.1721  0.6563
  630MOL0     C84927   8.403   8.251   5.547 -0.3060  0.0577 -0.2870
  630MOL0     C84928   8.483   8.289   5.420  0.6745 -0.8922  0.0649
  630MOL0     C84929   8.398   8.317   5.295  0.9980 -0.5963 -1.1975
  630MOL0     C84930   8.341   8.457   5.300  0.3620  0.2749  0.6148
  630MOL0     C84931   8.249   8.479   5.183  0.3914 -0.0106  0.1333
  630MOL0     N84932   8.140   8.380   5.156 -0.9682 -0.1022 -0.0413
  630MOL0     C84933   8.055   8.332   5.249 -0.7520  0.3330 -0.4578
  630MOL0     C84934   7.974   8.243   5.196  0.0994 -0.3946 -0.1866
  630MOL0     C84935   7.849   8.191   5.269  0.2652 -0.2920  0.8201
  630MOL0     C84936   7.779   8.305   5.331  0.2020  0.1324 -0.4828
  630MOL0     C84937   7.631   8.278   5.354  0.5133 -0.5470  0.6480
  630MOL0     C84938   7.578   8.140   5.397 -0.3925 -0.0673  0.3317
  630MOL0     O84939   7.440   8.154   5.446 -0.0576  0.1921 -0.3590
  630MOL0     C84940   7.330   8.161   5.364 -1.1184 -0.2472 -0.5390
  630MOL0     C84941   7.206   8.193   5.412  0.4578  0.0641 -0.2374
  630MOL0     C84942   7.084   8.183   5.333  0.3269  0.4719 -0.2715
  630MOL0     C84943   6.952   8.214   5.415 -0.7118  0.1989  0.6915
  630MOL0     C84944   7.091   8.131   5.199  0.1055 -0.2003 -0.1381
  630MOL0     C84945   6.974   8.106   5.117 -0.1963  0.2295 -0.0557
  630MOL0     O84946   6.986   7.999   5.029  0.5133 -0.5560 -0.4065
  630MOL0     C84947   6.916   7.984   4.910 -0.1716 -0.3653 -1.0063
  630MOL0     C84948   6.785   8.028   4.893  0.3325  0.3654  0.4149
  630MOL0     C84949   6.721   7.985   4.771 -0.2300  0.4887  0.2474
  630MOL0     C84950   6.785   7.912   4.669 -0.2327  1.1105 -1.0079
  630MOL0     O84951   6.726   7.852   4.562  0.3788 -0.0854 -0.5998
  630MOL0     C84952   6.584   7.879   4.543 -0.1019  0.0385 -0.1202
  630MOL0     C84953   6.534   7.837   4.407 -0.2041  0.1551  0.0739
  630MOL0     C84954   6.575   7.693   4.371 -0.6353  0.2853  0.2518
  630MOL0     C84955   6.481   7.654   4.262  0.9477 -0.5176 -0.7952
  630MOL0     C84956   6.516   7.523   4.197 -0.0016  0.4376  0.0851
  630MOL0     C84957   6.436   7.500   4.063  0.1359 -1.0866 -0.1328
  630MOL0     C84958   6.304   7.430   4.085  0.0257  0.1683 -0.2637
  630MOL0     C84959   6.236   7.384   3.956 -0.3330  0.5200  0.6516
  630MOL0    Cl84960   6.069   7.323   3.980  0.4496 -0.1350  0.0109
  630MOL0     C84961   6.916   7.876   4.688 -0.8124 -0.7467  0.3940
  630MOL0     C84962   6.980   7.902   4.811 -0.4201  0.0364  0.4049
  630MOL0     O84963   6.882   8.182   5.120  0.3598 -0.2920  0.8382
  630MOL0     C84964   7.222   8.104   5.151  0.5184  0.6401  0.5544
  630MOL0     C84965   7.338   8.124   5.223  0.4347  0.4754  0.6999
  630MOL0     N84966   8.000   8.249   5.057 -0.4762  0.4361 -0.2793
  630MOL0     N84967   8.114   8.321   5.042  0.9477  0.3991 -0.0934
  630MOL0     C84968   8.231   7.625   5.410 -0.2140 -0.7085 -1.2070
  630MOL0     C84969   8.184   7.490   5.403 -0.2481 -1.2650  0.8926
  630MOL0     C84970   7.884   7.176   5.344 -0.5001 -0.4934 -0.0898
  630MOL0     C84971   7.914   7.062   5.419  0.0692  0.8376  0.7006
  630MOL0     C84972   7.869   6.935   5.382  0.0220  1.4171 -0.2270
  630MOL0     C84973   7.802   6.918   5.264  0.8720  0.3045 -0.0223
  630MOL0     O84974   7.754   6.796   5.225  0.0023  0.8195  0.1312
  630MOL0     C84975   7.649   6.785   5.131 -0.8306  0.0358  0.4517
  630MOL0     C84976   7.614   6.641   5.138  0.5279  0.5149 -0.0635
  630MOL0     C84977   7.494   6.580   5.052  0.1417 -0.3228 -0.0586
  630MOL0     C84978   7.485   6.417   5.059  1.0273 -0.7710 -0.2447
  630MOL0     C84979   7.596   6.365   4.985  0.0533 -0.2028  0.4720
  630MOL0     C84980   7.676   6.303   4.915  1.0039  0.4304 -0.1705
  630MOL0     C84981   7.774   7.026   5.188 -0.3259 -0.0728  0.4056
  630MOL0     C84982   7.815   7.156   5.224  0.1874  0.8999  1.3986
  630MOL0     H84983   7.951   7.512   5.636 -0.1830  0.5645  0.5134
  630MOL0     H84984   8.044   7.742   5.671 -1.2523  3.2086 -2.3022
  630MOL0     H84985   8.426   7.814   5.426  3.4850  1.8591  3.7590
  630MOL0     H84986   8.308   7.921   5.350  0.2214  1.3327 -0.4274
  630MOL0     H84987   8.430   7.967   5.624 -1.0636 -0.5276  0.5586
  630MOL0     H84988   8.499   8.024   5.468  0.4218 -1.4692  1.4036
  630MOL0     H84989   8.248   8.140   5.441  1.5541  2.0101 -0.0077
  630MOL0     H84990   8.251   8.116   5.616 -0.4381 -0.0479  0.0795
  630MOL0     H84991   8.335   8.331   5.578  0.0412 -0.4107  1.8225
  630MOL0     H84992   8.468   8.237   5.634  0.8858 -0.6128 -1.2400
  630MOL0     H84993   8.541   8.381   5.433 -1.3798  0.4607  0.1424
  630MOL0     H84994   8.552   8.210   5.388 -0.6272 -1.6569 -0.9685
  630MOL0     H84995   8.454   8.309   5.202  2.4970 -0.1882 -0.3722
  630MOL0     H84996   8.330   8.231   5.291  2.7955 -2.2449  0.8081
  630MOL0     H84997   8.275   8.465   5.387 -2.1604 -1.8009 -0.9586
  630MOL0     H84998   8.416   8.536   5.297 -2.2504  2.9344 -2.0466
  630MOL0     H84999   8.310   8.473   5.093 -1.2252  0.3630 -1.0476
  630MOL0     H85000   8.201   8.576   5.200 -1.7937 -1.1856  1.0655
  630MOL0     H85001   8.041   8.372   5.349  1.7890  0.8248 -0.2428
  630MOL0     H85002   7.777   8.157   5.193 -0.0728 -1.3515  1.5896
  630MOL0     H85003   7.866   8.104   5.334 -0.0774 -1.7183 -0.9015
  630MOL0     H85004   7.786   8.398   5.274 -0.6915 -0.2419 -1.2209
  630MOL0     H85005   7.836   8.323   5.423  1.0092 -2.3587 -0.4250
  630MOL0     H85006   7.583   8.309   5.261  1.4848  1.3403  0.7194
  630MOL0     H85007   7.596   8.346   5.433  0.9013  0.5472 -0.1033
  630MOL0     H85008   7.633   8.119   5.489 -0.7463 -1.0275  0.3316
  630MOL0     H85009   7.582   8.062   5.321 -2.2717 -0.1918  0.3099
  630MOL0     H85010   7.202   8.238   5.511  0.1617  1.0417 -0.6804
  630MOL0     H85011   6.925   8.320   5.408 -0.5254  0.1314 -1.7510
  630MOL0     H85012   6.864   8.167   5.371  0.5623  0.4146 -2.3245
  630MOL0     H85013   6.962   8.176   5.517 -2.1919 -2.6635 -0.1257
  630MOL0     H85014   6.731   8.086   4.967 -0.7291 -0.3783  0.2582
  630MOL0     H85015   6.616   8.010   4.763  0.0897  2.2115  1.0329
  630MOL0     H85016   6.542   7.827   4.629  0.0908  1.4870  0.8880
  630MOL0     H85017   6.554   7.984   4.549 -2.3586 -0.4593 -1.4564
  630MOL0     H85018   6.432   7.877   4.403  0.1132  1.0064  0.3005
  630MOL0     H85019   6.592   7.908   4.347  3.7478 -0.5783  2.7065
  630MOL0     H85020   6.574   7.624   4.456  0.9568 -2.5780 -1.8407
  630MOL0     H85021   6.678   7.689   4.334 -0.3255 -0.2946  1.1441
  630MOL0     H85022   6.379   7.630   4.291 -0.7798  2.1859 -3.9567
  630MOL0     H85023   6.472   7.728   4.182 -0.8853  0.6880  0.4570
  630MOL0     H85024   6.509   7.438   4.267 -1.8407  2.8415  3.0688
  630MOL0     H85025   6.624   7.528   4.178  0.7162 -0.3983  3.2828
  630MOL0     H85026   6.423   7.597   4.013  0.5183  0.1339  2.0046
  630MOL0     H85027   6.504   7.432   4.011 -0.5942 -0.1940 -2.3444
  630MOL0     H85028   6.242   7.492   4.151 -0.0586 -1.2337  1.0469
  630MOL0     H85029   6.321   7.339   4.144 -0.2146 -0.8756 -1.7607
  630MOL0     H85030   6.296   7.309   3.904 -1.4850  0.3078 -0.4251
  630MOL0     H85031   6.228   7.466   3.885  1.8352  0.7458  0.6064
  630MOL0     H85032   6.970   7.812   4.619 -0.8690 -3.1811  2.4354
  630MOL0     H85033   7.079   7.871   4.841 -0.5881  0.2182  1.1742
  630MOL0     H85034   7.249   8.067   5.053  2.1554  3.1797 -0.0634
  630MOL0     H85035   7.438   8.096   5.192  0.2140 -2.4828  2.3152
  630MOL0     H85036   8.305   7.660   5.338 -1.5273  1.9416 -1.3902
  630MOL0     H85037   8.219   7.424   5.324 -0.4369  1.9262 -2.1055
  630MOL0     H85038   7.977   7.062   5.507 -3.9634 -6.3950  4.5325
  630MOL0     H85039   7.875   6.848   5.447 -0.3431  2.8240  1.8103
  630MOL0     H85040   7.571   6.852   5.169  1.3654  2.1061  1.5636
  630MOL0     H85041   7.671   6.819   5.029 -2.0381  1.1012  0.5162
  630MOL0     H85042   7.597   6.613   5.242  0.3072 -0.1347 -0.2656
  630MOL0     H85043   7.700   6.587   5.097 -1.6634 -1.1242 -2.9243
  630MOL0     H85044   7.496   6.625   4.953  1.0669  2.7805  1.2487
  630MOL0     H85045   7.400   6.613   5.099  1.3006  0.8323  1.5708
  630MOL0     H85046   7.391   6.388   5.011  2.6219 -2.3743 -2.6655
  630MOL0     H85047   7.486   6.376   5.160  0.0614  1.8329  0.9045
  630MOL0     H85048   7.760   6.269   4.859  1.0964  1.3338 -0.6030
  630MOL0     H85049   7.728   7.012   5.091  2.5731  1.0819 -1.2574
  630MOL0     H85050   7.803   7.242   5.158  2.0150 -1.4270 -2.3618
  631MOL0     O85051  11.003   6.430   2.702 -0.1583  0.3660  0.3245
  631MOL0     C85052  10.985   6.492   2.598  0.6417 -0.3155 -0.2757
  631MOL0     O85053  10.986   6.625   2.588  0.3513 -1.0468  0.3422
  631MOL0     C85054  11.023   6.702   2.698  0.1642 -0.5905  0.4543
  631MOL0     C85055  10.941   6.803   2.745 -0.0419 -0.1506  0.9101
  631MOL0     C85056  10.970   6.872   2.868  0.4712 -0.3482  0.0593
  631MOL0     C85057  11.089   6.855   2.930 -0.1231  0.3603 -1.3090
  631MOL0     O85058  11.134   6.933   3.036  0.5069 -0.3813 -0.0551
  631MOL0     C85059  11.037   6.992   3.122 -0.8171  0.0259 -0.4225
  631MOL0     C85060  11.093   7.012   3.263 -0.2151 -0.3425  0.7742
  631MOL0     C85061  11.214   7.112   3.265  0.0003 -0.3671 -0.0443
  631MOL0     C85062  11.265   7.132   3.401  0.3934 -0.9957 -0.1235
  631MOL0     C85063  11.373   7.245   3.425 -0.1439  0.6504  0.1038
  631MOL0     C85064  11.439   7.243   3.561  0.1194 -0.6632  0.4481
  631MOL0     C85065  11.564   7.328   3.571 -0.2099  0.0125  0.8349
  631MOL0     C85066  11.654   7.266   3.686 -0.1369  0.5992  0.5981
  631MOL0     N85067  11.741   7.378   3.735 -0.1857 -0.4836 -0.7473
  631MOL0     C85068  11.856   7.434   3.675  0.2412  0.3515 -0.1613
  631MOL0     C85069  11.889   7.536   3.750  0.8481  0.0354 -1.2495
  631MOL0     C85070  11.989   7.633   3.689 -0.2871 -0.0661 -0.1135
  631MOL0     C85071  11.934   7.723   3.581  0.0229 -0.1852 -0.3651
  631MOL0     C85072  12.003   7.855   3.575 -0.5400  0.0877  0.0137
  631MOL0     C85073  12.098   7.861   3.451 -0.6308 -0.2739 -0.1305
  631MOL0     O85074  12.011   7.877   3.342  0.0910 -0.1196 -0.1473
  631MOL0     C85075  12.038   7.977   3.259 -0.2247  0.8832  0.9339
  631MOL0     C85076  12.043   7.931   3.136 -0.3964  0.3719  0.8552
  631MOL0     C85077  12.065   8.018   3.013 -0.1280  0.0891 -0.0248
  631MOL0     C85078  12.085   7.943   2.882  0.4081  0.2502  0.7373
  631MOL0     C85079  12.065   8.158   3.038  0.4675 -0.5268  0.6961
  631MOL0     C85080  12.087   8.264   2.931 -0.1032  0.7481 -0.5199
  631MOL0     O85081  12.117   8.388   2.965  0.1572 -1.1817 -0.6700
  631MOL0     C85082  12.142   8.487   2.871  0.0687 -0.5049  0.9458
  631MOL0     C85083  12.151   8.478   2.732  0.0987 -0.2421 -0.2804
  631MOL0     C85084  12.162   8.586   2.645  0.9139 -0.3774  0.0952
  631MOL0     C85085  12.164   8.713   2.687  0.0326  0.6442  1.2047
  631MOL0     O85086  12.165   8.829   2.614  0.9305 -0.1900  0.8569
  631MOL0     C85087  12.133   8.831   2.472 -0.7506 -0.4976 -0.1821
  631MOL0     C85088  12.220   8.942   2.421 -0.7347  0.8243  0.1500
  631MOL0     C85089  12.179   8.994   2.285  0.1672  0.3269  1.0127
  631MOL0     C85090  12.186   8.901   2.160  0.4298 -0.0421  0.2394
  631MOL0     C85091  12.125   8.960   2.039 -0.2367  1.0780  0.1742
  631MOL0     C85092  11.972   8.969   2.050  0.3227  0.4374 -1.1771
  631MOL0     C85093  11.909   9.055   1.942 -0.6129  0.1639 -0.0225
  631MOL0     C85094  11.758   9.102   1.949 -0.2675 -0.0996 -0.6940
  631MOL0    Cl85095  11.629   8.979   1.937  0.0132 -0.3823  0.1945
  631MOL0     C85096  12.155   8.735   2.817 -0.4772  0.7363  0.7133
  631MOL0     C85097  12.141   8.618   2.910  0.5361 -0.4351 -1.1026
  631MOL0     O85098  12.074   8.224   2.819  0.6194  0.6041 -0.5947
  631MOL0     C85099  12.036   8.198   3.166 -0.0278  0.0368 -0.4140
  631MOL0     C85100  12.024   8.111   3.276 -0.4762 -0.3197  0.0352
  631MOL0     N85101  11.817   7.540   3.866  0.6990 -0.4226  0.0221
  631MOL0     N85102  11.715   7.451   3.846  0.6712 -0.0580 -1.3157
  631MOL0     C85103  11.178   6.765   2.869  0.2633  0.4190 -1.1511
  631MOL0     C85104  11.143   6.681   2.762 -0.8300  0.7465 -0.8839
  631MOL0     C85105  10.961   6.429   2.471  0.4683  0.7795  1.4755
  631MOL0     C85106  10.934   6.488   2.349 -0.3597 -0.9337 -0.1531
  631MOL0     C85107  10.937   6.422   2.231 -1.0500  0.1871 -0.1178
  631MOL0     C85108  10.935   6.286   2.231 -0.5040  0.4387 -0.8837
  631MOL0     O85109  10.949   6.215   2.118 -0.3281 -0.3406  1.2223
  631MOL0     C85110  10.828   6.219   2.045  0.2292 -0.5294  1.5612
  631MOL0     C85111  10.839   6.288   1.909 -0.4332 -0.3821  0.0607
  631MOL0     C85112  10.740   6.265   1.795 -0.5282  0.1376  0.7004
  631MOL0     C85113  10.756   6.373   1.690  0.2164 -0.7890 -0.1723
  631MOL0     C85114  10.883   6.374   1.630  0.3837 -0.7417 -0.2323
  631MOL0     C85115  10.998   6.369   1.589 -0.6346 -0.6974 -0.7725
  631MOL0     C85116  10.942   6.217   2.348 -0.9001  0.8293 -0.0895
  631MOL0     C85117  10.956   6.289   2.466 -0.6369 -0.7149 -0.3770
  631MOL0     H85118  10.842   6.805   2.701 -0.6124 -1.2097  2.0989
  631MOL0     H85119  10.911   6.963   2.883  1.4062  0.2447  0.1868
  631MOL0     H85120  11.003   7.091   3.090  0.3023 -0.0251 -1.8461
  631MOL0     H85121  10.947   6.933   3.144 -0.5011 -2.4752 -4.7785
  631MOL0     H85122  11.003   7.055   3.307 -1.1460 -0.2867 -1.0766
  631MOL0     H85123  11.123   6.912   3.295  0.7629 -0.9290 -1.6963
  631MOL0     H85124  11.301   7.079   3.208  3.4157  1.8771  3.3754
  631MOL0     H85125  11.186   7.210   3.223  3.4384  1.2979  1.1842
  631MOL0     H85126  11.180   7.152   3.468  1.5221 -2.7161  1.9493
  631MOL0     H85127  11.300   7.038   3.445 -0.4687 -1.1290  0.3051
  631MOL0     H85128  11.447   7.221   3.348  1.7396  0.1552  1.9549
  631MOL0     H85129  11.334   7.347   3.420 -1.6010  0.1232  0.3076
  631MOL0     H85130  11.364   7.283   3.630  0.3569 -1.1574  0.9956
  631MOL0     H85131  11.470   7.140   3.577 -1.2653 -1.0519  0.7253
  631MOL0     H85132  11.621   7.317   3.478  1.6753 -1.0096  2.0385
  631MOL0     H85133  11.539   7.432   3.594  1.8840  1.0949 -1.2908
  631MOL0     H85134  11.718   7.182   3.658  1.4539  1.8100  0.4726
  631MOL0     H85135  11.588   7.227   3.763 -0.1589 -2.2370 -0.7302
  631MOL0     H85136  11.896   7.409   3.578  0.5213 -0.2952  0.1123
  631MOL0     H85137  12.032   7.685   3.775  0.9137  2.1079 -1.9172
  631MOL0     H85138  12.067   7.573   3.641  1.2485 -0.5319  2.7442
  631MOL0     H85139  11.827   7.743   3.591  0.2215  2.1645 -2.1452
  631MOL0     H85140  11.948   7.676   3.483  0.9676  1.6913 -1.1863
  631MOL0     H85141  12.070   7.855   3.661  2.3815 -2.3588 -2.0732
  631MOL0     H85142  11.929   7.936   3.575 -0.9348 -0.2305 -1.7504
  631MOL0     H85143  12.146   7.766   3.428  1.6612  0.7646  0.1010
  631MOL0     H85144  12.177   7.935   3.463 -1.6776  0.5545  2.2681
  631MOL0     H85145  12.039   7.824   3.116 -1.8873  0.0259  2.7248
  631MOL0     H85146  12.163   7.987   2.820 -1.1489  4.4889  1.4446
  631MOL0     H85147  12.095   7.834   2.886 -0.3448 -0.0397 -2.5210
  631MOL0     H85148  11.993   7.954   2.824  1.4003 -1.7953 -1.3604
  631MOL0     H85149  12.114   8.387   2.685 -2.5136  1.8761 -2.6389
  631MOL0     H85150  12.161   8.559   2.540 -2.0493  0.5488 -0.2008
  631MOL0     H85151  12.139   8.739   2.412  0.5108 -1.4424  1.3170
  631MOL0     H85152  12.025   8.843   2.465 -0.6419  1.0650  0.5379
  631MOL0     H85153  12.230   9.023   2.494  0.8406  0.6729  0.1308
  631MOL0     H85154  12.321   8.902   2.412 -1.1609 -0.4337  0.6981
  631MOL0     H85155  12.252   9.069   2.254 -0.1880  0.2368 -0.0749
  631MOL0     H85156  12.082   9.044   2.293  1.4826  3.9943 -2.4574
  631MOL0     H85157  12.293   8.884   2.142  0.6019  0.3631  0.8488
  631MOL0     H85158  12.122   8.815   2.180  0.1558  0.6904  2.7485
  631MOL0     H85159  12.149   8.897   1.953 -0.0442 -1.1939  1.8075
  631MOL0     H85160  12.172   9.059   2.028  0.3242  0.6705 -1.3611
  631MOL0     H85161  11.941   8.865   2.055  4.3923 -0.9001  3.0132
  631MOL0     H85162  11.942   9.010   2.148  0.8374  2.2801 -1.7445
  631MOL0     H85163  11.914   9.001   1.847 -2.3829  1.5727 -0.9673
  631MOL0     H85164  11.971   9.146   1.942 -1.4604  0.7975  2.1857
  631MOL0     H85165  11.738   9.182   1.878 -3.2831 -0.3141 -0.2365
  631MOL0     H85166  11.748   9.148   2.048  0.3312 -3.4040  1.0467
  631MOL0     H85167  12.166   8.838   2.849  3.6784  0.6788  0.0421
  631MOL0     H85168  12.138   8.627   3.018  1.2080  0.0557 -1.1184
  631MOL0     H85169  12.025   8.304   3.187 -0.6170  0.1328 -1.1821
  631MOL0     H85170  12.002   8.161   3.370 -1.6894  1.5608 -1.1769
  631MOL0     H85171  11.275   6.748   2.914 -0.4400 -3.5383 -0.7955
  631MOL0     H85172  11.202   6.593   2.736 -1.3935 -0.3606  1.3240
  631MOL0     H85173  10.941   6.596   2.341  0.2470 -1.0136 -0.8569
  631MOL0     H85174  10.954   6.477   2.139 -2.4288  0.0083 -0.5102
  631MOL0     H85175  10.786   6.119   2.038  3.0492 -1.8444  1.8642
  631MOL0     H85176  10.745   6.264   2.100 -3.0487 -0.5471 -2.9173
  631MOL0     H85177  10.941   6.266   1.876 -0.9168 -1.5465 -0.7369
  631MOL0     H85178  10.839   6.396   1.920  4.8246 -0.2290  1.3219
  631MOL0     H85179  10.642   6.284   1.839 -1.9456  0.1891 -2.2560
  631MOL0     H85180  10.762   6.164   1.759  0.6383  1.0435 -1.2560
  631MOL0     H85181  10.729   6.471   1.731  0.2013 -1.1321  0.6593
  631MOL0     H85182  10.689   6.361   1.604 -0.0708 -0.4878  0.0097
  631MOL0     H85183  11.091   6.372   1.536  0.4131  0.7679  1.0354
  631MOL0     H85184  10.943   6.109   2.338 -0.0497  0.6316  1.6925
  631MOL0     H85185  10.968   6.240   2.562  3.1542 -2.1293 -1.3781
  632MOL0     O85186   0.601  11.286   5.072  0.0585  0.4435  0.3293
  632MOL0     C85187   0.619  11.168   5.067  0.1879  0.6712 -0.8957
  632MOL0     O85188   0.627  11.097   4.945 -0.9369 -0.5837 -0.1852
  632MOL0     C85189   0.651  11.177   4.832 -0.9123 -0.3616 -1.1826
  632MOL0     C85190   0.775  11.146   4.783 -0.0144  0.1324  0.9547
  632MOL0     C85191   0.826  11.224   4.687  0.5187  0.3149 -0.1031
  632MOL0     C85192   0.748  11.327   4.637 -0.0065 -0.4423 -0.8494
  632MOL0     O85193   0.804  11.389   4.532  0.5370 -0.7161 -0.3122
  632MOL0     C85194   0.787  11.531   4.511 -0.0282  0.2174  0.8234
  632MOL0     C85195   0.869  11.545   4.384 -0.6082 -0.3480  0.0333
  632MOL0     C85196   0.864  11.686   4.315  0.3375  0.6112  0.2579
  632MOL0     C85197   0.752  11.779   4.364  0.1249  0.5617  0.6586
  632MOL0     C85198   0.721  11.904   4.266  0.1035 -0.5420  0.3856
  632MOL0     C85199   0.827  12.014   4.247 -0.0393  1.2937  0.0568
  632MOL0     C85200   0.793  12.137   4.174 -0.0835 -1.4693 -0.2594
  632MOL0     C85201   0.906  12.198   4.099  0.7574  0.9112 -0.5465
  632MOL0     N85202   0.909  12.347   4.095  0.4244 -0.5905 -0.0771
  632MOL0     C85203   0.917  12.430   4.198 -0.2285  0.0420  0.2376
  632MOL0     C85204   0.920  12.553   4.143  0.4393  0.0191  0.2462
  632MOL0     C85205   0.914  12.692   4.206 -0.9543 -0.4552  0.6458
  632MOL0     C85206   0.827  12.696   4.338 -0.2945  0.1696  0.2417
  632MOL0     C85207   0.892  12.776   4.456  1.2755  0.1843 -0.1250
  632MOL0     C85208   0.944  12.685   4.570  0.3305 -1.6057 -0.0163
  632MOL0     O85209   1.003  12.777   4.664 -0.3403 -0.0477 -0.0989
  632MOL0     C85210   1.047  12.735   4.789  0.8582 -0.5453  0.5824
  632MOL0     C85211   1.137  12.824   4.854 -0.7130  0.0566  0.2845
  632MOL0     C85212   1.180  12.790   4.982 -0.1911 -0.0756 -0.4966
  632MOL0     C85213   1.249  12.901   5.060  0.3663 -0.2222 -0.2905
  632MOL0     C85214   1.139  12.675   5.052  0.3128 -0.0147  0.3899
  632MOL0     C85215   1.190  12.655   5.189 -0.8079  0.2980 -0.4784
  632MOL0     O85216   1.326  12.690   5.222 -0.7515 -0.3051 -0.4961
  632MOL0     C85217   1.380  12.680   5.352  0.1553 -0.3770  1.0820
  632MOL0     C85218   1.411  12.795   5.431  0.6881  0.0754 -0.1138
  632MOL0     C85219   1.475  12.783   5.554  0.5331  0.0175 -0.8372
  632MOL0     C85220   1.510  12.651   5.603 -0.7795 -0.2335 -0.4574
  632MOL0     O85221   1.580  12.623   5.720 -0.4108 -0.1202 -0.2543
  632MOL0     C85222   1.623  12.725   5.806  0.4267 -0.3091  0.5293
  632MOL0     C85223   1.699  12.672   5.922 -0.3162  0.9701 -0.6061
  632MOL0     C85224   1.790  12.781   6.005 -0.1406  0.6022 -0.4218
  632MOL0     C85225   1.843  12.732   6.149 -0.6801  0.4206  0.5453
  632MOL0     C85226   1.957  12.817   6.190  0.2365  0.2564 -0.2272
  632MOL0     C85227   2.019  12.775   6.320  0.9122 -0.0904  0.5108
  632MOL0     C85228   2.098  12.873   6.403 -0.4059 -0.6639  0.1991
  632MOL0     C85229   2.236  12.891   6.353 -0.1869 -1.1149 -0.0757
  632MOL0    Cl85230   2.322  12.737   6.393  0.7104  0.2652 -0.1632
  632MOL0     C85231   1.488  12.537   5.522  0.3753 -0.2355 -0.7586
  632MOL0     C85232   1.419  12.554   5.399  0.0182 -0.3432  0.6038
  632MOL0     O85233   1.118  12.587   5.259 -0.1487 -0.3505  0.2824
  632MOL0     C85234   1.055  12.589   4.981 -0.5745 -0.1593 -1.3459
  632MOL0     C85235   1.002  12.625   4.861  0.4327 -0.0049 -0.6546
  632MOL0     N85236   0.932  12.536   4.004 -0.1046 -0.0431 -0.5268
  632MOL0     N85237   0.918  12.418   3.978 -0.0917  0.4925 -0.6429
  632MOL0     C85238   0.614  11.350   4.679  0.3685 -0.8485 -0.3188
  632MOL0     C85239   0.559  11.269   4.776  0.4960  0.3723  0.5571
  632MOL0     C85240   0.613  11.096   5.196  0.7613 -0.3122 -0.6046
  632MOL0     C85241   0.607  10.960   5.202  0.2109 -0.0661  0.2768
  632MOL0     C85242   0.599  10.892   5.324 -0.2024 -0.6315 -0.0364
  632MOL0     C85243   0.586  10.969   5.439 -0.0025  0.1637 -0.1837
  632MOL0     O85244   0.578  10.903   5.556  0.0264 -0.4814 -0.3869
  632MOL0     C85245   0.592  10.970   5.689 -0.6577 -0.6968  0.6834
  632MOL0     C85246   0.457  11.018   5.747 -0.7974  0.7558  0.5481
  632MOL0     C85247   0.486  11.082   5.886  0.3339 -0.1562 -0.3166
  632MOL0     C85248   0.358  11.124   5.960  1.1740  0.0148 -0.0620
  632MOL0     C85249   0.401  11.195   6.086  0.1169 -0.4777 -0.4016
  632MOL0     C85250   0.441  11.215   6.204  1.2440  0.2495  0.2369
  632MOL0     C85251   0.587  11.107   5.428 -0.1439 -0.0269 -0.1340
  632MOL0     C85252   0.604  11.175   5.311  0.0544  0.2661 -0.0385
  632MOL0     H85253   0.837  11.063   4.818  2.1306  0.4584 -1.7069
  632MOL0     H85254   0.924  11.218   4.641  0.6980  1.8902  0.0217
  632MOL0     H85255   0.684  11.557   4.487  0.5212 -0.1741 -2.6101
  632MOL0     H85256   0.811  11.592   4.598  3.3708 -1.2190  1.0758
  632MOL0     H85257   0.973  11.520   4.409 -0.1570  2.6308  1.6299
  632MOL0     H85258   0.839  11.476   4.305  0.5040  2.6601 -3.2992
  632MOL0     H85259   0.966  11.723   4.327  1.8540 -3.4196  1.6764
  632MOL0     H85260   0.846  11.667   4.209 -0.9728  0.9851  0.4020
  632MOL0     H85261   0.663  11.717   4.364  1.1215 -1.2234 -3.6932
  632MOL0     H85262   0.776  11.821   4.462  0.2473 -2.2916  1.9424
  632MOL0     H85263   0.703  11.860   4.168 -0.3123 -1.2853  0.7890
  632MOL0     H85264   0.638  11.965   4.302  2.6936  2.3770  1.9201
  632MOL0     H85265   0.869  12.042   4.344 -0.8425 -1.7783  1.4359
  632MOL0     H85266   0.913  11.964   4.201 -1.9330 -0.2747 -1.9952
  632MOL0     H85267   0.713  12.116   4.102 -0.6006  0.0531 -0.1740
  632MOL0     H85268   0.743  12.209   4.239 -0.0934 -0.1865 -1.6287
  632MOL0     H85269   0.904  12.162   3.995 -3.7723  0.8761 -0.6422
  632MOL0     H85270   1.003  12.164   4.137  1.4051  1.5449 -1.5714
  632MOL0     H85271   0.927  12.400   4.302  1.1612 -0.0324  0.0920
  632MOL0     H85272   1.014  12.720   4.241 -0.8495  2.8532 -1.7377
  632MOL0     H85273   0.880  12.778   4.146 -0.4229  1.5860  3.1011
  632MOL0     H85274   0.807  12.594   4.369 -2.8938  0.5769  0.1113
  632MOL0     H85275   0.727  12.733   4.313 -0.3542  0.1565  0.4625
  632MOL0     H85276   0.812  12.837   4.498  2.4174  1.6566 -0.0350
  632MOL0     H85277   0.973  12.845   4.432  2.8714 -0.1202  3.6400
  632MOL0     H85278   1.027  12.621   4.537  2.9480 -0.5233  3.8513
  632MOL0     H85279   0.861  12.628   4.612 -2.9766  1.8331 -1.2815
  632MOL0     H85280   1.167  12.913   4.800  1.3813 -0.2781  0.8323
  632MOL0     H85281   1.197  12.930   5.152  2.4333  1.2330  0.5188
  632MOL0     H85282   1.348  12.875   5.098 -0.7098  0.8484  3.8209
  632MOL0     H85283   1.275  12.996   5.012 -0.1459  1.8668  3.1955
  632MOL0     H85284   1.387  12.899   5.407  2.6860  1.3209  2.6888
  632MOL0     H85285   1.505  12.874   5.606 -3.0810  0.7652  0.1909
  632MOL0     H85286   1.686  12.789   5.744  0.8725 -1.7427 -0.5710
  632MOL0     H85287   1.540  12.780   5.850  2.1415  1.4922  1.6854
  632MOL0     H85288   1.629  12.615   5.984  1.1834  1.1320  1.3485
  632MOL0     H85289   1.761  12.595   5.876 -2.3427 -0.8160 -0.5221
  632MOL0     H85290   1.737  12.877   6.007  1.6963  1.6492  0.2262
  632MOL0     H85291   1.882  12.806   5.950 -1.5475 -0.1377 -3.3093
  632MOL0     H85292   1.759  12.726   6.219  1.5627 -1.1667  3.3136
  632MOL0     H85293   1.884  12.632   6.132 -0.6087  0.7695 -1.6577
  632MOL0     H85294   1.914  12.914   6.215 -0.7878 -0.4592  0.8873
  632MOL0     H85295   2.028  12.830   6.108 -1.8353 -1.1287 -2.3466
  632MOL0     H85296   1.940  12.736   6.384  0.1393 -0.9708 -0.9355
  632MOL0     H85297   2.078  12.688   6.288 -1.6823 -1.5321 -0.6574
  632MOL0     H85298   2.108  12.828   6.502  2.5070  0.8845  0.7487
  632MOL0     H85299   2.044  12.966   6.424  1.9998  0.4919  1.6463
  632MOL0     H85300   2.280  12.971   6.414  0.3286  0.2379 -2.1102
  632MOL0     H85301   2.255  12.919   6.249 -2.3138  0.9648  0.0074
  632MOL0     H85302   1.505  12.441   5.569 -3.3431 -0.9678 -0.5817
  632MOL0     H85303   1.385  12.469   5.340  1.7764 -0.8983  0.3250
  632MOL0     H85304   1.024  12.507   5.045 -0.4257  0.7918 -0.0152
  632MOL0     H85305   0.924  12.561   4.821  1.2567 -0.5267 -1.4824
  632MOL0     H85306   0.547  11.419   4.629 -0.0486  0.6759  2.1604
  632MOL0     H85307   0.453  11.273   4.800  0.5010  1.9934  0.3985
  632MOL0     H85308   0.617  10.909   5.107  1.2447  2.6339 -1.1722
  632MOL0     H85309   0.605  10.784   5.336  1.0045 -0.4977  0.8219
  632MOL0     H85310   0.647  10.901   5.754 -3.0514 -0.8929  2.5993
  632MOL0     H85311   0.656  11.060   5.691  3.1954 -3.1738  3.2561
  632MOL0     H85312   0.392  10.930   5.751 -1.6128  1.3049 -0.1027
  632MOL0     H85313   0.415  11.093   5.679  0.2261  1.3567  0.5541
  632MOL0     H85314   0.546  11.173   5.876 -1.9260  1.1566 -3.4476
  632MOL0     H85315   0.544  11.007   5.941 -0.0950 -1.8572 -2.0653
  632MOL0     H85316   0.292  11.039   5.978 -1.8940  1.9310 -1.4919
  632MOL0     H85317   0.299  11.193   5.899 -0.8613 -0.5621  1.1623
  632MOL0     H85318   0.473  11.246   6.301  0.5457  1.8064  0.0032
  632MOL0     H85319   0.594  11.168   5.518  0.1447  0.4098 -0.4474
  632MOL0     H85320   0.608  11.283   5.321 -2.7773  0.2361  3.0452
  633MOL0     O85321   9.993   2.381   5.379  0.0837 -0.3746 -0.5293
  633MOL0     C85322   9.913   2.313   5.318 -0.2714 -0.5225  0.3019
  633MOL0     O85323   9.927   2.177   5.282  0.3436 -0.0853 -0.4037
  633MOL0     C85324  10.030   2.106   5.333 -0.4701 -0.9178 -0.0445
  633MOL0     C85325  10.049   2.096   5.468  1.1479  0.2380  0.1006
  633MOL0     C85326  10.154   2.021   5.508 -0.0718 -0.0295  0.0662
  633MOL0     C85327  10.237   1.950   5.414  0.5549  0.5377 -0.9188
  633MOL0     O85328  10.353   1.878   5.456  0.6043  0.5184  0.2611
  633MOL0     C85329  10.429   1.921   5.568 -0.6065  0.6363 -0.4509
  633MOL0     C85330  10.424   1.828   5.689  0.8180  0.0942 -1.1763
  633MOL0     C85331  10.516   1.871   5.802  0.9018 -0.5802 -0.3233
  633MOL0     C85332  10.666   1.902   5.774  0.8632  0.5900 -0.2041
  633MOL0     C85333  10.734   1.891   5.911 -0.3277  0.5002 -0.7080
  633MOL0     C85334  10.886   1.884   5.883 -0.3879  0.2140 -0.6200
  633MOL0     C85335  10.966   1.825   6.004  0.2060 -0.6692 -0.0998
  633MOL0     C85336  11.116   1.824   5.993  0.2745  0.2097  0.2187
  633MOL0     N85337  11.175   1.952   6.023 -0.1067 -0.1279  0.7095
  633MOL0     C85338  11.195   1.995   6.148 -0.1411  0.0702 -0.3049
  633MOL0     C85339  11.278   2.103   6.140  0.4854 -0.0488 -0.0094
  633MOL0     C85340  11.344   2.174   6.250  0.5031 -0.2858 -0.4425
  633MOL0     C85341  11.488   2.148   6.247  0.4410  0.3233 -0.0273
  633MOL0     C85342  11.509   2.045   6.353  0.3860 -0.1747  0.2207
  633MOL0     C85343  11.654   2.008   6.372 -0.8969  0.2684 -0.6995
  633MOL0     O85344  11.693   1.895   6.462 -0.4160 -0.4966 -0.3806
  633MOL0     C85345  11.676   1.767   6.407 -0.3481 -0.0451 -0.0380
  633MOL0     C85346  11.615   1.732   6.279 -1.0228  0.3895 -0.7436
  633MOL0     C85347  11.604   1.596   6.235 -0.8979  0.7227  0.3132
  633MOL0     C85348  11.543   1.575   6.099 -0.0597  0.3216 -0.6988
  633MOL0     C85349  11.661   1.486   6.305  0.0226  0.5684 -0.3543
  633MOL0     C85350  11.669   1.346   6.267  0.7167  0.2182 -0.8385
  633MOL0     O85351  11.711   1.251   6.364  0.4296  0.4747  0.3576
  633MOL0     C85352  11.751   1.131   6.327 -1.1616  0.1702  0.1676
  633MOL0     C85353  11.889   1.097   6.336  0.2113 -0.7779  0.1596
  633MOL0     C85354  11.930   0.965   6.304 -1.2271 -1.3230 -0.7301
  633MOL0     C85355  11.841   0.867   6.273  0.3928 -0.9651  0.5394
  633MOL0     O85356  11.868   0.739   6.250  0.1887  1.3619 -0.6151
  633MOL0     C85357  12.002   0.694   6.267  0.6238 -0.7087  0.4069
  633MOL0     C85358  12.084   0.720   6.136  0.6433  1.1794 -0.7282
  633MOL0     C85359  12.235   0.761   6.180  1.5317  0.6807 -0.1389
  633MOL0     C85360  12.313   0.808   6.057  1.2229 -0.1101  0.3727
  633MOL0     C85361  12.457   0.846   6.094 -0.0809  0.0578 -0.3002
  633MOL0     C85362  12.544   0.723   6.147  1.0181  0.2146  0.1503
  633MOL0     C85363  12.688   0.769   6.155  0.3076  0.4844  0.0928
  633MOL0     C85364  12.769   0.680   6.250 -0.2167 -0.4109 -1.0105
  633MOL0    Cl85365  12.696   0.673   6.422  0.4311  0.3385 -0.2400
  633MOL0     C85366  11.705   0.896   6.266  1.3522  0.2132 -0.4685
  633MOL0     C85367  11.662   1.027   6.292  0.8910 -1.4020 -0.1030
  633MOL0     O85368  11.653   1.324   6.146 -0.5165 -0.4716 -0.5097
  633MOL0     C85369  11.713   1.532   6.424  0.0866 -0.0893 -0.2134
  633MOL0     C85370  11.709   1.659   6.488  0.0792 -0.0585 -0.8190
  633MOL0     N85371  11.320   2.117   6.005 -0.1959  0.5005 -0.4586
  633MOL0     N85372  11.257   2.022   5.950 -0.1379 -1.3501  0.0670
  633MOL0     C85373  10.204   1.956   5.281  0.6803 -1.5575 -0.1667
  633MOL0     C85374  10.101   2.036   5.237  0.3570  0.2077 -0.5564
  633MOL0     C85375   9.789   2.387   5.281  0.2651 -0.7927 -0.4633
  633MOL0     C85376   9.768   2.525   5.268  1.1810  0.2712  1.0983
  633MOL0     C85377   9.647   2.572   5.209 -0.4926  0.7651 -0.1839
  633MOL0     C85378   9.544   2.491   5.152  0.2966  0.0047  0.2989
  633MOL0     O85379   9.438   2.535   5.074  0.1077  0.0653  0.5437
  633MOL0     C85380   9.405   2.672   5.069  0.0584 -1.6879  0.1617
  633MOL0     C85381   9.307   2.712   4.954  1.0099  0.5822 -0.1934
  633MOL0     C85382   9.301   2.862   4.933 -0.1482  0.0364 -0.1540
  633MOL0     C85383   9.177   2.902   4.849  0.2664  0.0524  0.0702
  633MOL0     C85384   9.050   2.905   4.924 -0.9763 -0.7885  0.2136
  633MOL0     C85385   8.945   2.900   4.977  0.3959 -0.5865  0.3697
  633MOL0     C85386   9.566   2.357   5.173 -0.3955 -0.2925  0.6127
  633MOL0     C85387   9.685   2.303   5.232 -0.1056 -0.8567 -0.5224
  633MOL0     H85388   9.996   2.164   5.533 -1.3083 -0.7108 -0.7777
  633MOL0     H85389  10.179   2.008   5.613  2.0648 -0.7397 -0.4954
  633MOL0     H85390  10.535   1.930   5.541 -0.8785  0.4891 -1.6482
  633MOL0     H85391  10.392   2.020   5.599  1.1685  1.3174 -0.3987
  633MOL0     H85392  10.322   1.815   5.727  0.9467  0.7082 -0.6005
  633MOL0     H85393  10.446   1.727   5.653 -1.5196 -2.0594  2.6656
  633MOL0     H85394  10.469   1.950   5.861  0.9972 -0.3091 -0.6040
  633MOL0     H85395  10.507   1.787   5.871 -2.4317 -0.2188 -0.1588
  633MOL0     H85396  10.716   1.845   5.696  0.4247 -0.1730  0.0655
  633MOL0     H85397  10.682   2.006   5.743  1.4204  0.9593  1.2487
  633MOL0     H85398  10.721   1.978   5.975  0.1011 -0.9538  1.4946
  633MOL0     H85399  10.706   1.801   5.968  0.3673 -0.2465 -1.5198
  633MOL0     H85400  10.910   1.814   5.802  2.2445 -1.5908  1.5658
  633MOL0     H85401  10.910   1.983   5.844 -3.7966  0.5868 -2.0779
  633MOL0     H85402  10.937   1.887   6.089  0.7902  1.1626 -1.1889
  633MOL0     H85403  10.945   1.721   6.029  2.5401 -0.7950  1.6698
  633MOL0     H85404  11.145   1.787   5.894 -3.9439 -1.2439 -0.6638
  633MOL0     H85405  11.169   1.751   6.055  3.8096 -1.9101 -4.5791
  633MOL0     H85406  11.156   1.941   6.234  0.8488 -1.4858 -0.7896
  633MOL0     H85407  11.330   2.279   6.226 -0.0600 -0.6010 -1.5955
  633MOL0     H85408  11.308   2.162   6.352  5.3258 -1.3043  1.4000
  633MOL0     H85409  11.539   2.241   6.273  0.8626  0.2688 -0.6177
  633MOL0     H85410  11.532   2.114   6.152 -0.2518 -0.0185 -0.2304
  633MOL0     H85411  11.459   1.950   6.333  1.7022 -1.0876  1.1136
  633MOL0     H85412  11.483   2.082   6.452  1.9064 -2.5891  1.6059
  633MOL0     H85413  11.695   2.100   6.415  1.5908 -1.3139  0.5615
  633MOL0     H85414  11.701   1.986   6.276  2.5453 -3.9515  1.5480
  633MOL0     H85415  11.571   1.809   6.217  0.7321  3.0216  1.0727
  633MOL0     H85416  11.623   1.552   6.027  3.5895  0.2193  3.0039
  633MOL0     H85417  11.463   1.500   6.097 -0.3639  0.5812  0.8194
  633MOL0     H85418  11.502   1.673   6.073 -3.6478 -0.4613  1.2993
  633MOL0     H85419  11.954   1.179   6.365  1.1983 -1.3906 -0.2910
  633MOL0     H85420  12.035   0.938   6.305 -0.3869  1.5432 -0.0906
  633MOL0     H85421  12.048   0.728   6.361 -2.1274  4.4880  0.2909
  633MOL0     H85422  11.988   0.586   6.272 -1.4221 -0.4985  0.0134
  633MOL0     H85423  12.083   0.634   6.068  1.4085  0.8940 -0.3948
  633MOL0     H85424  12.036   0.806   6.090  0.2609  2.7709  2.4310
  633MOL0     H85425  12.287   0.679   6.231  1.1437  1.1690  1.0801
  633MOL0     H85426  12.220   0.837   6.256 -4.4948 -1.1157  0.9949
  633MOL0     H85427  12.323   0.725   5.986 -0.6463 -0.0735  0.0170
  633MOL0     H85428  12.267   0.895   6.009  0.8669 -1.9658 -2.9671
  633MOL0     H85429  12.457   0.939   6.152 -0.6554  1.5437 -2.5787
  633MOL0     H85430  12.502   0.871   5.998 -0.1343  1.9353  0.1295
  633MOL0     H85431  12.505   0.691   6.245  2.1769  0.6977  0.7963
  633MOL0     H85432  12.548   0.639   6.077  1.6096 -2.0273  2.6907
  633MOL0     H85433  12.681   0.864   6.208  2.6939 -0.8861  3.1358
  633MOL0     H85434  12.730   0.776   6.054 -0.4665 -3.2945 -0.6480
  633MOL0     H85435  12.870   0.720   6.261 -0.6246  0.4508 -0.2437
  633MOL0     H85436  12.779   0.578   6.210  0.2588 -2.1134  3.0141
  633MOL0     H85437  11.636   0.814   6.255  1.2915  0.3848 -1.4097
  633MOL0     H85438  11.557   1.054   6.292  1.1049 -0.4926 -1.2456
  633MOL0     H85439  11.756   1.457   6.489  0.1444  1.6060  1.8429
  633MOL0     H85440  11.757   1.667   6.586 -2.0484 -2.3938  0.5287
  633MOL0     H85441  10.260   1.897   5.210  1.0057 -0.6315 -0.7013
  633MOL0     H85442  10.072   2.048   5.133 -2.4130  1.2140  0.2224
  633MOL0     H85443   9.851   2.589   5.298  0.9801  2.0495 -1.7541
  633MOL0     H85444   9.642   2.680   5.205 -0.3995  0.8105  0.6394
  633MOL0     H85445   9.368   2.689   5.170  4.4709 -2.4744  2.1658
  633MOL0     H85446   9.498   2.728   5.053  0.1778 -2.3574 -1.7669
  633MOL0     H85447   9.212   2.675   4.991  1.3294  0.3282  0.3845
  633MOL0     H85448   9.331   2.671   4.856  2.7245 -2.0481  1.2133
  633MOL0     H85449   9.389   2.905   4.885  2.0932 -1.4052  2.4432
  633MOL0     H85450   9.295   2.911   5.031  0.5998  0.0533 -0.1125
  633MOL0     H85451   9.173   2.828   4.768  0.6395  1.4560 -1.2738
  633MOL0     H85452   9.183   3.000   4.800 -0.6239 -0.3024 -0.7963
  633MOL0     H85453   8.855   2.901   5.034  1.2987 -0.9333  1.8431
  633MOL0     H85454   9.489   2.286   5.144 -2.1410  1.8142 -0.1870
  633MOL0     H85455   9.684   2.195   5.239  2.1933 -1.0095 -1.6630
  634MOL0     O85456   7.550   1.804   1.804  0.5465 -0.3635  0.0023
  634MOL0     C85457   7.447   1.744   1.838  0.1196 -0.3437  0.7463
  634MOL0     O85458   7.327   1.743   1.773 -0.6778 -0.0393  0.5675
  634MOL0     C85459   7.328   1.810   1.655  0.6693 -0.4434 -0.3170
  634MOL0     C85460   7.376   1.938   1.637 -0.1427  0.7702 -0.0843
  634MOL0     C85461   7.376   2.002   1.510 -0.1227 -0.5835 -0.3100
  634MOL0     C85462   7.342   1.934   1.394  0.0971  0.0372  1.2083
  634MOL0     O85463   7.318   1.977   1.266  0.2784  0.1968  0.4821
  634MOL0     C85464   7.309   2.120   1.246 -0.1651 -0.4414 -1.0038
  634MOL0     C85465   7.436   2.200   1.242  0.3595 -0.0307 -1.2163
  634MOL0     C85466   7.510   2.176   1.108 -0.7883 -0.4852 -1.0667
  634MOL0     C85467   7.595   2.045   1.113  0.1104  0.4282 -0.6679
  634MOL0     C85468   7.687   2.044   0.994 -0.1444  0.2216  0.7568
  634MOL0     C85469   7.805   1.955   1.025 -0.4931  0.3996 -0.4678
  634MOL0     C85470   7.869   1.902   0.893 -0.0766 -0.1859 -0.1825
  634MOL0     C85471   8.006   1.851   0.924  0.4332  0.0328 -0.2475
  634MOL0     N85472   8.005   1.716   0.987 -0.0058  0.1166 -0.2739
  634MOL0     C85473   8.019   1.688   1.123  0.2698 -0.4970  0.5413
  634MOL0     C85474   8.005   1.550   1.131  0.0634  0.1406  0.4158
  634MOL0     C85475   8.004   1.466   1.258 -0.0794 -0.1965 -0.3762
  634MOL0     C85476   8.142   1.394   1.283  0.3108  1.3600  1.1255
  634MOL0     C85477   8.252   1.499   1.314 -0.3330 -0.1601 -0.0120
  634MOL0     C85478   8.338   1.470   1.437  0.5844  0.7534  0.1127
  634MOL0     O85479   8.422   1.589   1.474  0.0452  0.5891 -0.2134
  634MOL0     C85480   8.476   1.603   1.600 -0.0065  0.0687  0.0090
  634MOL0     C85481   8.496   1.499   1.691 -0.2159  0.1715  1.0848
  634MOL0     C85482   8.557   1.514   1.818  0.2353  0.1487 -0.7713
  634MOL0     C85483   8.530   1.411   1.922  0.9363  0.2873 -0.6817
  634MOL0     C85484   8.594   1.645   1.853 -0.8408 -0.6113 -0.7034
  634MOL0     C85485   8.677   1.676   1.985 -0.7103  0.5784 -0.5375
  634MOL0     O85486   8.695   1.809   2.008  0.7194 -0.6758  0.4822
  634MOL0     C85487   8.757   1.848   2.121  0.0349  0.8778 -0.3890
  634MOL0     C85488   8.895   1.818   2.130  0.7998 -0.7997 -0.4465
  634MOL0     C85489   8.958   1.845   2.255 -0.5735 -0.0415  0.0855
  634MOL0     C85490   8.896   1.910   2.366  0.7862 -0.2151  0.6498
  634MOL0     O85491   8.956   1.978   2.461 -0.1617  0.3121 -0.1500
  634MOL0     C85492   9.040   1.890   2.537  0.2645 -0.2950 -0.0944
  634MOL0     C85493   8.966   1.781   2.613  0.2899 -0.2219 -0.2712
  634MOL0     C85494   8.845   1.841   2.686  0.1429  1.1653  0.0199
  634MOL0     C85495   8.809   1.745   2.802 -0.0279 -0.3444  0.5493
  634MOL0     C85496   8.691   1.804   2.876  0.6841  0.4512  0.2738
  634MOL0     C85497   8.615   1.681   2.935 -0.1302 -0.1127  0.2396
  634MOL0     C85498   8.692   1.577   3.027 -0.0988  0.1225 -0.1388
  634MOL0     C85499   8.706   1.608   3.177  0.0269 -0.3390 -0.9777
  634MOL0    Cl85500   8.804   1.741   3.251 -0.0767 -0.2877 -0.2755
  634MOL0     C85501   8.762   1.931   2.347  0.1424  0.4769  0.2917
  634MOL0     C85502   8.702   1.905   2.229  1.1664 -0.6308  0.1789
  634MOL0     O85503   8.730   1.587   2.050  0.3190  0.0802  0.8110
  634MOL0     C85504   8.597   1.751   1.760  0.3300  0.6633 -0.3635
  634MOL0     C85505   8.542   1.722   1.628 -0.2056 -0.3028 -0.3398
  634MOL0     N85506   7.992   1.500   1.001  0.7778 -0.3168 -0.6510
  634MOL0     N85507   7.988   1.592   0.921 -0.5007 -0.5330 -0.5984
  634MOL0     C85508   7.314   1.802   1.403 -0.0608 -0.1232 -0.5652
  634MOL0     C85509   7.319   1.738   1.529 -0.3578 -1.2288 -0.4656
  634MOL0     C85510   7.454   1.652   1.953 -0.9292 -0.1335  0.4613
  634MOL0     C85511   7.557   1.662   2.045  0.4928 -0.3471  0.6845
  634MOL0     C85512   7.557   1.571   2.155 -0.4575  0.8728  0.0221
  634MOL0     C85513   7.454   1.477   2.182 -0.3437 -0.0900  0.4086
  634MOL0     O85514   7.468   1.402   2.295 -0.3398  0.8297  0.0491
  634MOL0     C85515   7.405   1.276   2.295 -0.1897  0.5803  0.7586
  634MOL0     C85516   7.267   1.275   2.373  0.6515  0.7112 -0.3211
  634MOL0     C85517   7.288   1.332   2.520 -0.0286  0.4275 -0.6255
  634MOL0     C85518   7.180   1.301   2.623 -0.0799  0.6859  0.1700
  634MOL0     C85519   7.229   1.330   2.754 -1.0051  1.0383 -0.4580
  634MOL0     C85520   7.270   1.347   2.867  0.3998  0.1714  0.1873
  634MOL0     C85521   7.349   1.480   2.092  1.1216 -0.4659  0.0554
  634MOL0     C85522   7.348   1.565   1.980 -0.1646  0.2786 -0.1062
  634MOL0     H85523   7.398   1.982   1.733  0.8638 -0.0888  0.0919
  634MOL0     H85524   7.405   2.106   1.514  0.1476 -0.6778  0.4153
  634MOL0     H85525   7.233   2.133   1.168 -4.5931 -2.0805  2.5512
  634MOL0     H85526   7.247   2.161   1.326 -1.7707 -2.9207 -0.8751
  634MOL0     H85527   7.412   2.307   1.253 -2.3633 -0.7104  0.4321
  634MOL0     H85528   7.485   2.177   1.336  0.9453 -1.0869 -1.7622
  634MOL0     H85529   7.442   2.184   1.023  0.4568 -1.8405 -2.2303
  634MOL0     H85530   7.584   2.256   1.107 -1.7645  0.6271  2.3355
  634MOL0     H85531   7.659   2.054   1.201  0.2606 -2.9782 -0.2861
  634MOL0     H85532   7.529   1.958   1.121 -1.0254  1.2431 -0.9867
  634MOL0     H85533   7.628   1.996   0.915 -0.0245  2.2005 -0.6158
  634MOL0     H85534   7.708   2.144   0.954  0.6055 -1.8765 -5.1764
  634MOL0     H85535   7.878   2.026   1.065  0.6893  0.8099 -3.1615
  634MOL0     H85536   7.774   1.872   1.089 -2.2290  0.3352 -1.3124
  634MOL0     H85537   7.811   1.835   0.829 -0.9269 -0.7955  1.1811
  634MOL0     H85538   7.884   1.991   0.831  1.0710 -0.7956 -0.8273
  634MOL0     H85539   8.053   1.927   0.987 -0.2842  0.2841 -0.0069
  634MOL0     H85540   8.054   1.839   0.826 -1.7350  2.6898 -1.7607
  634MOL0     H85541   8.019   1.758   1.206  1.9083 -3.1365  2.9573
  634MOL0     H85542   7.989   1.530   1.346 -0.8542  0.3251 -0.8811
  634MOL0     H85543   7.922   1.393   1.258  0.0258 -0.3256  0.3578
  634MOL0     H85544   8.164   1.335   1.194 -1.6562  4.7286 -1.8587
  634MOL0     H85545   8.129   1.326   1.368 -3.4151  1.7885  1.0523
  634MOL0     H85546   8.208   1.598   1.330 -0.9812 -0.6260  1.1459
  634MOL0     H85547   8.316   1.508   1.226  0.5269 -0.2473  0.5929
  634MOL0     H85548   8.394   1.379   1.415 -1.5308 -0.6280  0.2434
  634MOL0     H85549   8.270   1.437   1.516 -0.2112 -0.0278 -0.8860
  634MOL0     H85550   8.451   1.401   1.681  0.5209 -0.0588 -0.3825
  634MOL0     H85551   8.620   1.363   1.961 -0.6948 -3.2443 -0.8745
  634MOL0     H85552   8.478   1.446   2.012 -0.9709 -1.0035 -1.2240
  634MOL0     H85553   8.469   1.325   1.894  0.9435 -0.3220  1.0250
  634MOL0     H85554   8.952   1.769   2.052 -0.2739 -0.0387 -1.7522
  634MOL0     H85555   9.062   1.814   2.259 -0.3509  0.7748  1.0459
  634MOL0     H85556   9.115   1.843   2.473  2.0187 -0.3084  1.8606
  634MOL0     H85557   9.101   1.949   2.607  0.7537  2.7798 -2.8433
  634MOL0     H85558   8.938   1.708   2.537  1.7726 -0.2967 -0.7620
  634MOL0     H85559   9.033   1.720   2.674 -2.7473 -1.3398  2.2205
  634MOL0     H85560   8.754   1.845   2.625 -0.4816 -1.6347  0.6328
  634MOL0     H85561   8.862   1.942   2.723 -3.2986  0.4923  4.3311
  634MOL0     H85562   8.784   1.650   2.754  0.0652 -0.2132  0.2367
  634MOL0     H85563   8.899   1.732   2.864  1.3249  2.8358 -0.5124
  634MOL0     H85564   8.616   1.852   2.812 -0.6494 -1.3036  0.4277
  634MOL0     H85565   8.717   1.872   2.957 -3.5608 -0.4398  2.7013
  634MOL0     H85566   8.534   1.728   2.992 -0.3521 -0.3297  0.1065
  634MOL0     H85567   8.574   1.620   2.854 -2.7466  0.8169  0.7550
  634MOL0     H85568   8.797   1.588   2.999 -0.6877  3.5916 -1.4418
  634MOL0     H85569   8.643   1.483   3.000 -1.5655  0.9708 -0.5705
  634MOL0     H85570   8.745   1.520   3.230 -1.0773  1.6099  3.5370
  634MOL0     H85571   8.607   1.648   3.201  0.3672  3.4744 -4.7606
  634MOL0     H85572   8.721   1.987   2.430 -1.8675 -0.3232 -0.1178
  634MOL0     H85573   8.594   1.918   2.233  1.1779 -0.5899  0.3730
  634MOL0     H85574   8.651   1.844   1.776  3.6548 -0.8386 -1.9508
  634MOL0     H85575   8.532   1.804   1.559 -2.6390  1.2201  1.6653
  634MOL0     H85576   7.305   1.736   1.318 -2.5120 -2.4135  1.3238
  634MOL0     H85577   7.315   1.630   1.533 -1.0140 -1.2943 -1.9592
  634MOL0     H85578   7.631   1.741   2.037 -2.5774  2.6483 -1.3272
  634MOL0     H85579   7.627   1.576   2.238 -1.9189 -0.5563  1.4211
  634MOL0     H85580   7.382   1.240   2.194 -1.0758 -0.3069  1.2663
  634MOL0     H85581   7.478   1.199   2.321  1.2458  0.7843 -2.1438
  634MOL0     H85582   7.230   1.173   2.389 -0.6964  1.5517  2.4650
  634MOL0     H85583   7.188   1.333   2.324 -0.6930  0.2495  1.2054
  634MOL0     H85584   7.279   1.440   2.506 -1.2893  0.3577 -0.4922
  634MOL0     H85585   7.391   1.308   2.549 -0.3638 -1.1666 -0.6656
  634MOL0     H85586   7.147   1.198   2.609  0.9765 -0.1928  3.3140
  634MOL0     H85587   7.085   1.352   2.607 -1.6240 -1.5898  1.4724
  634MOL0     H85588   7.293   1.377   2.967  0.5211 -0.9969  0.5299
  634MOL0     H85589   7.269   1.409   2.111  2.2709 -0.9607  4.0372
  634MOL0     H85590   7.269   1.539   1.911  2.0446 -0.5611 -2.4681
  635MOL0     O85591   8.702  10.388   5.934  0.0923  0.7678 -0.4134
  635MOL0     C85592   8.771  10.302   5.981 -0.5556  0.4371  0.1995
  635MOL0     O85593   8.845  10.214   5.910  0.1638  0.1884  0.6897
  635MOL0     C85594   8.813  10.159   5.789  0.6923  0.0811  0.1974
  635MOL0     C85595   8.686  10.122   5.762  0.3016  0.1019  0.5252
  635MOL0     C85596   8.652  10.043   5.647 -0.2823 -1.2382  0.0617
  635MOL0     C85597   8.752  10.019   5.555  0.0310 -0.2108 -0.2147
  635MOL0     O85598   8.730   9.955   5.429 -0.5560  0.3012 -0.1210
  635MOL0     C85599   8.600   9.909   5.389 -0.3093 -0.2920  0.1589
  635MOL0     C85600   8.599   9.857   5.245 -0.1699 -0.0782  0.0065
  635MOL0     C85601   8.731   9.844   5.167  0.4029 -0.4292  0.2721
  635MOL0     C85602   8.723   9.799   5.022 -0.0170  0.5100  0.3215
  635MOL0     C85603   8.642   9.888   4.934  0.4485  0.1401  0.8909
  635MOL0     C85604   8.650   9.847   4.781  0.7700  0.0386  0.0676
  635MOL0     C85605   8.531   9.909   4.703 -0.1986  1.3085  0.3605
  635MOL0     C85606   8.571   9.919   4.561  0.4949 -0.5945 -0.0842
  635MOL0     N85607   8.453   9.947   4.476  0.0166 -0.2630  0.7052
  635MOL0     C85608   8.433  10.075   4.421 -0.2621  0.6637  0.0423
  635MOL0     C85609   8.322  10.052   4.341 -0.3492  0.8925  0.4002
  635MOL0     C85610   8.259  10.158   4.258 -0.5877 -0.4428 -0.2209
  635MOL0     C85611   8.358  10.258   4.189  0.2783 -1.4539 -0.1084
  635MOL0     C85612   8.481  10.216   4.112 -0.2505  0.6444 -0.9564
  635MOL0     C85613   8.456  10.102   4.016 -1.0466 -0.3334  0.3256
  635MOL0     O85614   8.488   9.977   4.077  0.0373  0.3669 -0.9663
  635MOL0     C85615   8.431   9.860   4.021  0.4053  0.6588 -0.2276
  635MOL0     C85616   8.413   9.752   4.105 -0.3866  0.2813  0.7613
  635MOL0     C85617   8.358   9.632   4.071  0.6480  0.1177 -0.5899
  635MOL0     C85618   8.339   9.538   4.192 -0.3022  0.6014 -0.0186
  635MOL0     C85619   8.315   9.605   3.936 -0.4831 -0.5869  0.2612
  635MOL0     C85620   8.248   9.477   3.884  0.7429 -0.4890  1.2912
  635MOL0     O85621   8.195   9.493   3.757  0.5407  0.1232  0.8911
  635MOL0     C85622   8.143   9.389   3.678 -0.5642  0.2851  0.5810
  635MOL0     C85623   8.183   9.258   3.694 -0.0576 -0.8429 -0.0252
  635MOL0     C85624   8.121   9.154   3.625  0.4000  0.3984 -1.1040
  635MOL0     C85625   8.017   9.170   3.537 -0.5822  0.0510  0.2309
  635MOL0     O85626   7.965   9.059   3.487 -0.0807  0.0941 -0.0216
  635MOL0     C85627   7.843   9.058   3.411  0.1750  0.3099  0.0683
  635MOL0     C85628   7.807   8.927   3.350  0.3653 -0.8261 -0.2329
  635MOL0     C85629   7.759   8.814   3.443 -0.0520  0.3353 -0.0182
  635MOL0     C85630   7.711   8.693   3.362 -0.0803 -0.4799  0.3994
  635MOL0     C85631   7.674   8.563   3.436 -0.9242 -0.3417  0.1338
  635MOL0     C85632   7.622   8.454   3.335  1.2660 -0.1679 -0.8294
  635MOL0     C85633   7.561   8.326   3.411 -0.0270 -0.4547  0.0798
  635MOL0     C85634   7.460   8.252   3.331 -1.0842 -0.4486  0.7995
  635MOL0    Cl85635   7.301   8.315   3.330  0.2151  0.1245 -0.1762
  635MOL0     C85636   7.978   9.305   3.517  0.1181  0.1192  0.1791
  635MOL0     C85637   8.044   9.413   3.577  0.5780 -0.4408  0.2931
  635MOL0     O85638   8.216   9.386   3.956  0.0685 -0.8505 -0.1851
  635MOL0     C85639   8.338   9.715   3.845  0.4909  0.0144  0.4109
  635MOL0     C85640   8.396   9.835   3.881 -0.1496 -0.4474 -0.7383
  635MOL0     N85641   8.287   9.917   4.345  0.3233 -0.1113  0.3127
  635MOL0     N85642   8.357   9.856   4.434  0.6344  0.9799 -0.4586
  635MOL0     C85643   8.885  10.054   5.585 -0.7583  0.9479 -0.0226
  635MOL0     C85644   8.919  10.116   5.707  0.5493 -0.6079  0.6742
  635MOL0     C85645   8.751  10.269   6.124  0.1988  0.8930 -0.1842
  635MOL0     C85646   8.679  10.356   6.210  0.5000  0.4454 -0.8502
  635MOL0     C85647   8.687  10.352   6.352  0.0591 -0.4692  0.6280
  635MOL0     C85648   8.748  10.238   6.408 -0.2365  0.8611 -1.0821
  635MOL0     O85649   8.730  10.221   6.539 -0.7171 -0.5017 -0.5038
  635MOL0     C85650   8.788  10.117   6.625  0.2280 -0.7551  0.6041
  635MOL0     C85651   8.680  10.003   6.656 -0.4582 -0.3032  0.8373
  635MOL0     C85652   8.752   9.887   6.726 -0.0936  0.5196  0.0098
  635MOL0     C85653   8.657   9.755   6.751 -0.9509  0.2785  0.6799
  635MOL0     C85654   8.727   9.632   6.779 -0.1554 -0.7580 -0.0328
  635MOL0     C85655   8.746   9.517   6.816 -0.2089  1.0381  0.2558
  635MOL0     C85656   8.816  10.143   6.329 -0.3812  0.0856  0.0272
  635MOL0     C85657   8.817  10.160   6.188 -0.4188 -0.1605  0.9816
  635MOL0     H85658   8.608  10.160   5.828 -2.0383 -0.8109 -1.5768
  635MOL0     H85659   8.552  10.006   5.628 -1.0179  0.4419  0.4594
  635MOL0     H85660   8.581   9.835   5.468  0.4970  1.8409  2.4914
  635MOL0     H85661   8.527   9.988   5.406 -0.4637 -0.7486  1.8326
  635MOL0     H85662   8.550   9.760   5.238  2.1436 -1.3614  0.5717
  635MOL0     H85663   8.535   9.931   5.196  2.5159  0.4317 -3.0585
  635MOL0     H85664   8.757   9.950   5.160 -2.3623  0.2400 -1.5041
  635MOL0     H85665   8.803   9.787   5.225  0.6894 -0.1438  0.1978
  635MOL0     H85666   8.825   9.790   4.983 -0.8786 -4.4833 -1.4630
  635MOL0     H85667   8.680   9.698   5.016  2.7366 -0.6889 -1.1127
  635MOL0     H85668   8.538   9.899   4.965 -0.1158  0.6591 -1.0047
  635MOL0     H85669   8.689   9.986   4.944 -1.0572  1.5085 -3.2941
  635MOL0     H85670   8.747   9.880   4.741  3.0239 -1.7259  3.6158
  635MOL0     H85671   8.647   9.740   4.760  1.7731  0.0161 -0.0525
  635MOL0     H85672   8.445   9.842   4.701  1.1865 -0.5289 -0.0783
  635MOL0     H85673   8.509  10.010   4.739  0.8331  2.8898 -3.0190
  635MOL0     H85674   8.611   9.821   4.534  2.7912  0.6024 -1.3839
  635MOL0     H85675   8.651   9.993   4.550  0.7281 -0.8999 -0.4302
  635MOL0     H85676   8.486  10.170   4.429 -2.2910  2.1797 -2.7860
  635MOL0     H85677   8.190  10.102   4.195 -0.3412  0.2360 -1.1143
  635MOL0     H85678   8.191  10.224   4.313  2.2927  1.8980  0.8416
  635MOL0     H85679   8.390  10.327   4.268  0.8147 -2.5248  0.6283
  635MOL0     H85680   8.290  10.314   4.124  2.5435 -0.8845 -2.1123
  635MOL0     H85681   8.565  10.182   4.174 -0.3448  1.6862 -0.2313
  635MOL0     H85682   8.522  10.297   4.050  1.4084 -0.7798 -1.8107
  635MOL0     H85683   8.512  10.113   3.923  1.9894  1.2944  2.1594
  635MOL0     H85684   8.349  10.091   3.998 -1.1436 -2.7474  1.8993
  635MOL0     H85685   8.447   9.760   4.208 -0.6904 -1.4321  1.0238
  635MOL0     H85686   8.300   9.602   4.272  0.0402  0.0331  0.6110
  635MOL0     H85687   8.257   9.466   4.181  1.6338 -1.4680 -2.5279
  635MOL0     H85688   8.434   9.488   4.211 -0.4012  0.0521 -0.8818
  635MOL0     H85689   8.261   9.234   3.765 -0.7328  0.8314  1.3650
  635MOL0     H85690   8.150   9.052   3.645 -0.3136  0.8334  2.8135
  635MOL0     H85691   7.761   9.080   3.480 -0.7129 -0.1003 -0.8405
  635MOL0     H85692   7.850   9.133   3.332 -4.4725  1.6022  0.6070
  635MOL0     H85693   7.729   8.936   3.274  0.7255  1.3071 -0.3962
  635MOL0     H85694   7.896   8.886   3.300  0.3520 -1.8065  0.4995
  635MOL0     H85695   7.686   8.844   3.519  0.3801  0.2424  0.4375
  635MOL0     H85696   7.844   8.782   3.504 -0.4006 -3.4717 -1.2693
  635MOL0     H85697   7.620   8.731   3.314 -1.2118 -2.2100  1.0679
  635MOL0     H85698   7.784   8.665   3.286  1.8188 -2.4218  2.7811
  635MOL0     H85699   7.606   8.575   3.521  2.5179  3.1467  2.7416
  635MOL0     H85700   7.768   8.537   3.484  0.9466  3.9409 -0.7006
  635MOL0     H85701   7.539   8.501   3.281  0.0324  3.1620  3.3706
  635MOL0     H85702   7.696   8.430   3.259  1.3135  0.9550 -1.1467
  635MOL0     H85703   7.516   8.365   3.503  5.2777  2.5870  1.8317
  635MOL0     H85704   7.647   8.261   3.432  2.6184  1.5470 -3.4470
  635MOL0     H85705   7.468   8.153   3.375  1.3708 -1.9482 -2.5438
  635MOL0     H85706   7.507   8.250   3.232  4.5300  1.7795  2.9520
  635MOL0     H85707   7.902   9.336   3.446 -1.0156 -2.6171  0.0732
  635MOL0     H85708   8.025   9.514   3.542 -3.7971 -1.8377 -2.0634
  635MOL0     H85709   8.310   9.709   3.740 -1.7723  1.6544  0.8627
  635MOL0     H85710   8.401   9.913   3.806  0.9058 -0.8634 -1.1180
  635MOL0     H85711   8.961  10.018   5.517 -0.5300 -2.3071  1.7800
  635MOL0     H85712   9.027  10.119   5.715  0.5695 -2.6508  1.9788
  635MOL0     H85713   8.618  10.436   6.170 -2.9654 -0.7063  1.6928
  635MOL0     H85714   8.628  10.423   6.410 -3.7426 -3.2503  0.5425
  635MOL0     H85715   8.881  10.085   6.576  0.2831 -0.5622  0.5819
  635MOL0     H85716   8.822  10.164   6.718  2.8390  0.3701 -0.8050
  635MOL0     H85717   8.648   9.967   6.557 -1.8067  0.4232  0.9829
  635MOL0     H85718   8.595  10.042   6.713 -1.7039 -0.4108 -0.8515
  635MOL0     H85719   8.791   9.916   6.824  1.4869 -1.7340  0.1169
  635MOL0     H85720   8.847   9.865   6.676  0.0351  2.1105 -0.4971
  635MOL0     H85721   8.607   9.734   6.656  1.7392  2.7810 -1.4909
  635MOL0     H85722   8.587   9.779   6.832  1.1197 -0.6270  2.8524
  635MOL0     H85723   8.758   9.416   6.849  0.3291  0.0451 -2.6790
  635MOL0     H85724   8.875  10.058   6.361 -1.5896 -0.6783  0.2895
  635MOL0     H85725   8.867  10.089   6.124 -1.9040  0.1800 -0.6441
  636MOL0     O85726   5.626   2.887   6.512 -0.1782 -0.8997  0.3128
  636MOL0     C85727   5.729   2.936   6.562  0.0611 -0.1111 -0.8396
  636MOL0     O85728   5.722   3.023   6.669 -0.1467  0.8343 -0.0063
  636MOL0     C85729   5.614   3.014   6.751 -0.1941  0.1014  0.2583
  636MOL0     C85730   5.544   3.131   6.793 -0.1991 -0.1835 -0.9371
  636MOL0     C85731   5.434   3.119   6.886 -0.4723  0.1949 -0.4459
  636MOL0     C85732   5.389   2.991   6.933  0.6256 -0.2342 -0.4965
  636MOL0     O85733   5.282   2.955   7.015 -0.1558 -0.0440 -0.6306
  636MOL0     C85734   5.189   3.060   7.061  0.5069  0.3522  0.2400
  636MOL0     C85735   5.098   3.001   7.161  0.3359 -0.1187 -0.9865
  636MOL0     C85736   4.997   3.110   7.232  0.2849 -0.8940  0.1229
  636MOL0     C85737   4.920   3.048   7.351  0.3853 -0.1025 -0.5619
  636MOL0     C85738   5.000   3.016   7.475 -0.2186  0.5893 -0.1812
  636MOL0     C85739   5.071   3.137   7.539 -0.4629 -0.1789  0.3927
  636MOL0     C85740   5.120   3.082   7.671  0.6733  0.3438 -1.2435
  636MOL0     C85741   5.203   3.183   7.749  0.1966  0.3324 -0.3983
  636MOL0     N85742   5.138   3.300   7.801 -0.1837  0.2539 -0.0299
  636MOL0     C85743   5.072   3.316   7.917  0.5954 -0.4109  0.4434
  636MOL0     C85744   5.028   3.444   7.922  0.0526 -0.4329  0.6700
  636MOL0     C85745   4.952   3.510   8.020 -0.3775  0.6825 -0.8937
  636MOL0     C85746   5.045   3.575   8.117  0.2831  0.1135  0.6878
  636MOL0     C85747   5.134   3.474   8.205  0.1664 -0.7024 -0.0802
  636MOL0     C85748   5.226   3.549   8.293  0.0500 -0.0514  0.1091
  636MOL0     O85749   5.331   3.467   8.348 -0.4700  0.2616 -0.0946
  636MOL0     C85750   5.410   3.402   8.251  0.3915  0.2794 -0.2545
  636MOL0     C85751   5.434   3.266   8.270  0.5404 -0.2648  0.3566
  636MOL0     C85752   5.516   3.185   8.195  0.2576  0.4799  0.2794
  636MOL0     C85753   5.538   3.046   8.246 -0.2621 -0.2997  0.3960
  636MOL0     C85754   5.563   3.237   8.076 -0.1406 -0.3064  1.2471
  636MOL0     C85755   5.641   3.156   7.981 -0.4102 -0.8413 -0.1492
  636MOL0     O85756   5.724   3.230   7.893 -0.2253 -0.3073  0.0899
  636MOL0     C85757   5.794   3.156   7.795  0.0088 -0.7480 -0.6744
  636MOL0     C85758   5.938   3.168   7.788 -0.3289  1.0526  0.4168
  636MOL0     C85759   6.006   3.094   7.687  0.5319 -0.2829 -0.2705
  636MOL0     C85760   5.939   3.024   7.589  0.2361 -0.0864  0.4647
  636MOL0     O85761   6.003   2.958   7.487 -0.4913 -0.2081  0.0720
  636MOL0     C85762   5.986   3.026   7.358 -0.7279  0.2258 -0.4065
  636MOL0     C85763   6.085   2.961   7.263 -0.1826 -0.2840  0.3898
  636MOL0     C85764   6.113   3.045   7.138 -0.2043 -0.0901  0.2140
  636MOL0     C85765   6.249   3.019   7.069 -0.3809 -0.1041 -0.0117
  636MOL0     C85766   6.226   3.046   6.918  0.1371  0.0777  0.4680
  636MOL0     C85767   6.348   3.066   6.833  0.2711  0.1865  0.4882
  636MOL0     C85768   6.456   2.956   6.858 -0.4272 -0.1383  0.3014
  636MOL0     C85769   6.579   2.979   6.773 -0.0647  0.7668 -0.4018
  636MOL0    Cl85770   6.667   3.111   6.843 -0.0110  0.1046  0.4628
  636MOL0     C85771   5.798   3.026   7.586  0.8521 -0.3379 -0.1281
  636MOL0     C85772   5.726   3.091   7.687  0.2980  0.4640 -0.7205
  636MOL0     O85773   5.596   3.051   7.955 -0.4761 -0.0787 -0.1811
  636MOL0     C85774   5.542   3.369   8.047 -0.6746 -0.1640 -0.2126
  636MOL0     C85775   5.479   3.448   8.136  0.8275 -0.5000  0.1339
  636MOL0     N85776   5.082   3.513   7.810  0.2090  0.0252 -0.0795
  636MOL0     N85777   5.142   3.422   7.738 -0.2358 -0.5967  0.4838
  636MOL0     C85778   5.460   2.887   6.883 -0.0859  0.1761  0.5126
  636MOL0     C85779   5.562   2.895   6.796  0.4840  0.0677 -0.2929
  636MOL0     C85780   5.859   2.914   6.499 -0.4907 -0.4580  0.3340
  636MOL0     C85781   5.863   2.920   6.364 -0.1854  0.2451 -0.4695
  636MOL0     C85782   5.978   2.916   6.297 -0.0317 -1.3215  0.9102
  636MOL0     C85783   6.104   2.893   6.358  0.5548  0.0851 -0.0022
  636MOL0     O85784   6.218   2.866   6.290  0.3506  0.1958  0.0737
  636MOL0     C85785   6.215   2.745   6.207  0.3549 -0.2523 -0.3241
  636MOL0     C85786   6.347   2.726   6.141 -0.3760 -0.0091  1.0588
  636MOL0     C85787   6.383   2.845   6.051 -1.0734  0.0198 -0.5193
  636MOL0     C85788   6.467   2.812   5.924  0.3750  0.0786 -0.6311
  636MOL0     C85789   6.386   2.763   5.813 -0.2375  0.5763 -1.1610
  636MOL0     C85790   6.325   2.703   5.722 -0.4942 -0.0165  0.1080
  636MOL0     C85791   6.101   2.892   6.504 -0.1764 -0.2926  0.3112
  636MOL0     C85792   5.981   2.894   6.570  0.7262  0.0541 -0.1113
  636MOL0     H85793   5.579   3.225   6.752  2.3097 -0.4039  0.4859
  636MOL0     H85794   5.385   3.208   6.925 -2.5651 -0.1653 -2.0606
  636MOL0     H85795   5.245   3.141   7.108 -1.8605  1.9024  0.6217
  636MOL0     H85796   5.131   3.101   6.976  0.3034  0.2052  0.3071
  636MOL0     H85797   5.033   2.924   7.117 -6.9706  4.2762  0.3422
  636MOL0     H85798   5.150   2.953   7.245 -2.4244  1.3248  1.7453
  636MOL0     H85799   5.060   3.189   7.272 -0.1274 -0.6332  0.2612
  636MOL0     H85800   4.929   3.155   7.159  0.7685 -2.0498 -1.0963
  636MOL0     H85801   4.849   3.127   7.378 -1.4876 -2.0808  0.5218
  636MOL0     H85802   4.876   2.959   7.306  1.1680 -0.9752  0.3688
  636MOL0     H85803   4.928   2.961   7.538  0.6257 -1.0495 -0.5994
  636MOL0     H85804   5.074   2.940   7.451 -0.7379  0.4713 -1.4950
  636MOL0     H85805   5.151   3.170   7.472 -0.3205 -1.6834 -0.2086
  636MOL0     H85806   4.999   3.215   7.567  1.4434  1.3663  1.2273
  636MOL0     H85807   5.031   3.059   7.730  1.1083  4.7421  1.6605
  636MOL0     H85808   5.176   2.989   7.654  1.2987  0.4355  0.1583
  636MOL0     H85809   5.279   3.223   7.681 -1.5492  5.3309  0.1998
  636MOL0     H85810   5.241   3.116   7.827  4.0123  2.6213 -0.0662
  636MOL0     H85811   5.041   3.251   7.998 -3.4284  3.8566  2.7571
  636MOL0     H85812   4.883   3.581   7.973  0.0511  1.2938 -0.6180
  636MOL0     H85813   4.889   3.442   8.079  0.2109  2.5895  2.1650
  636MOL0     H85814   4.980   3.640   8.176  0.3728  2.1823 -1.3360
  636MOL0     H85815   5.100   3.654   8.065  2.4451 -0.3411  2.1587
  636MOL0     H85816   5.193   3.409   8.139 -0.3674 -1.0030 -0.2696
  636MOL0     H85817   5.071   3.420   8.277 -1.2737  1.1067  0.0818
  636MOL0     H85818   5.171   3.588   8.380 -3.3140 -1.2038 -1.3433
  636MOL0     H85819   5.278   3.624   8.233 -1.3945 -2.1614 -4.1435
  636MOL0     H85820   5.381   3.222   8.354 -1.9376  2.2534  0.2935
  636MOL0     H85821   5.478   2.984   8.179 -0.8642  0.8168 -0.1198
  636MOL0     H85822   5.642   3.013   8.254 -0.1318 -1.6751 -4.2003
  636MOL0     H85823   5.490   3.037   8.344  2.2603  0.2058  1.7846
  636MOL0     H85824   5.987   3.231   7.861  0.1910 -0.8383  1.7477
  636MOL0     H85825   6.114   3.103   7.691  0.7254 -1.1752 -2.0691
  636MOL0     H85826   5.885   3.021   7.318 -0.1069 -2.1161 -1.9088
  636MOL0     H85827   6.032   3.125   7.370  0.8563 -0.5742  0.4322
  636MOL0     H85828   6.181   2.947   7.314 -0.3610  0.6415  0.9994
  636MOL0     H85829   6.043   2.865   7.233 -0.2073 -0.6166  1.4242
  636MOL0     H85830   6.101   3.152   7.154 -1.9387 -0.5577  2.6019
  636MOL0     H85831   6.033   3.021   7.067  0.1235  3.5938 -1.6285
  636MOL0     H85832   6.312   3.102   7.103 -2.3043  1.1229  0.7674
  636MOL0     H85833   6.292   2.920   7.087 -2.8238 -0.7352  3.1619
  636MOL0     H85834   6.153   3.125   6.899  1.2962  0.9950 -0.3070
  636MOL0     H85835   6.173   2.961   6.875 -0.1538  1.9518 -3.2373
  636MOL0     H85836   6.326   3.045   6.728 -0.7014 -2.6292  1.1690
  636MOL0     H85837   6.390   3.167   6.842  2.2269 -0.4071 -1.1590
  636MOL0     H85838   6.411   2.857   6.846 -1.8209  0.3342  1.3783
  636MOL0     H85839   6.484   2.951   6.964  2.0028  3.6630  0.0412
  636MOL0     H85840   6.560   2.981   6.665 -0.9045  1.6288 -0.2483
  636MOL0     H85841   6.634   2.885   6.784 -1.5448  0.1261  2.3869
  636MOL0     H85842   5.739   2.983   7.506  1.6908  2.2697 -2.3008
  636MOL0     H85843   5.619   3.105   7.688  0.4541  1.9107  1.6617
  636MOL0     H85844   5.583   3.407   7.954 -0.5149 -0.1392 -0.1338
  636MOL0     H85845   5.472   3.554   8.113  0.4676  0.1047  2.7737
  636MOL0     H85846   5.448   2.783   6.909  1.1968  0.3051  1.7564
  636MOL0     H85847   5.621   2.809   6.767  2.1412  0.8899  0.4853
  636MOL0     H85848   5.778   2.948   6.302 -2.2824 -2.7848  0.7866
  636MOL0     H85849   5.977   2.920   6.189 -0.1914  2.0182  0.9253
  636MOL0     H85850   6.174   2.658   6.259  1.7639 -0.2891  0.7771
  636MOL0     H85851   6.138   2.750   6.129  0.9425  0.1246 -0.8892
  636MOL0     H85852   6.342   2.637   6.078 -1.0836  0.0121  1.0852
  636MOL0     H85853   6.429   2.710   6.213 -0.9359 -0.9864  1.4926
  636MOL0     H85854   6.443   2.918   6.107  0.8749 -3.0428  1.7401
  636MOL0     H85855   6.295   2.900   6.018 -3.7402 -2.5049  1.8055
  636MOL0     H85856   6.553   2.748   5.946  0.4029  0.7883  1.5084
  636MOL0     H85857   6.494   2.910   5.883 -2.9006  0.7138 -1.5523
  636MOL0     H85858   6.269   2.663   5.640 -4.5089 -1.6334  3.2851
  636MOL0     H85859   6.195   2.876   6.557  0.7687  2.2782 -0.4133
  636MOL0     H85860   5.975   2.892   6.679 -0.9928  1.9054 -0.1156
  637MOL0     O85861   8.519   3.506  11.047 -0.5736 -0.1995  0.0622
  637MOL0     C85862   8.526   3.569  10.943 -0.8750 -0.1790 -0.5295
  637MOL0     O85863   8.624   3.656  10.906  0.5736  0.6609 -0.0648
  637MOL0     C85864   8.747   3.648  10.968  0.5965  0.3965 -0.5872
  637MOL0     C85865   8.768   3.706  11.095 -0.3111 -0.6398 -0.0002
  637MOL0     C85866   8.885   3.687  11.167  0.1495 -0.0736 -0.2115
  637MOL0     C85867   8.992   3.631  11.108 -0.4852  0.6369  0.8450
  637MOL0     O85868   9.119   3.642  11.151 -0.2940  0.3339  0.3450
  637MOL0     C85869   9.144   3.567  11.272  0.8821 -0.9071 -0.4847
  637MOL0     C85870   9.205   3.429  11.248 -0.1986 -0.4749  0.3098
  637MOL0     C85871   9.357   3.442  11.203  0.4688 -0.7763  0.3475
  637MOL0     C85872   9.416   3.300  11.226  0.7826  0.6913 -0.2286
  637MOL0     C85873   9.560   3.284  11.174 -0.4930 -1.6845 -0.4173
  637MOL0     C85874   9.615   3.140  11.167  0.6094  0.4060  0.4828
  637MOL0     C85875   9.769   3.151  11.159  1.1843  0.7823  0.8214
  637MOL0     C85876   9.826   3.023  11.093 -0.3700  0.2526 -0.9618
  637MOL0     N85877   9.935   2.962  11.169  0.0852  1.1845 -0.8190
  637MOL0     C85878   9.925   2.862  11.264  0.2762 -0.0799 -0.6512
  637MOL0     C85879  10.048   2.814  11.278 -0.5895  0.1629  0.0361
  637MOL0     C85880  10.098   2.709  11.376 -0.0772  0.4194 -0.1680
  637MOL0     C85881  10.071   2.744  11.518 -0.4097 -0.1951  0.4077
  637MOL0     C85882  10.139   2.872  11.574 -0.3185  0.0650  0.7673
  637MOL0     C85883  10.279   2.866  11.619  0.1769 -0.7464  0.1703
  637MOL0     O85884  10.297   2.782  11.739  0.4879 -0.0722  1.2703
  637MOL0     C85885  10.424   2.739  11.766  0.1630  0.7119  0.4045
  637MOL0     C85886  10.542   2.806  11.728  0.0275 -1.0306 -0.2450
  637MOL0     C85887  10.665   2.761  11.761  0.3129  0.4663  0.9309
  637MOL0     C85888  10.784   2.825  11.695 -0.0698 -0.1790  0.3030
  637MOL0     C85889  10.685   2.641  11.834  0.0564  0.8089  0.8813
  637MOL0     C85890  10.812   2.575  11.877  0.2291  0.9961  0.4716
  637MOL0     O85891  10.803   2.440  11.900  0.2625 -0.0076 -0.5898
  637MOL0     C85892  10.920   2.369  11.929  0.8472  0.2545 -0.9814
  637MOL0     C85893  11.005   2.335  11.824 -0.4846  0.0685 -0.6294
  637MOL0     C85894  11.131   2.276  11.856 -0.2298  0.1598  0.2000
  637MOL0     C85895  11.165   2.248  11.985  0.5635 -0.1534  0.1163
  637MOL0     O85896  11.291   2.191  12.015 -0.6074  0.2546 -0.2282
  637MOL0     C85897  11.372   2.256  12.115 -0.9356  0.2463 -0.1056
  637MOL0     C85898  11.489   2.324  12.041 -0.0831  0.8275 -0.0424
  637MOL0     C85899  11.573   2.219  11.972  0.0140 -0.2923 -0.1740
  637MOL0     C85900  11.711   2.268  11.921  0.2225  0.3698  0.0311
  637MOL0     C85901  11.821   2.282  12.031  0.2946 -0.3817  1.5415
  637MOL0     C85902  11.962   2.258  11.972 -0.7368 -0.0385  0.3990
  637MOL0     C85903  11.972   2.103  11.946 -0.0631  0.1487 -0.0537
  637MOL0     C85904  12.109   2.066  11.894  0.7865 -0.0196  0.6362
  637MOL0    Cl85905  12.125   1.890  11.924  0.4552 -0.4135 -0.6748
  637MOL0     C85906  11.074   2.272  12.089 -0.0430 -0.6159 -0.4354
  637MOL0     C85907  10.946   2.330  12.057 -1.3139  0.0212 -0.0054
  637MOL0     O85908  10.912   2.644  11.897  0.2577 -0.3864  0.3034
  637MOL0     C85909  10.567   2.589  11.886 -0.8019  0.5136 -0.7106
  637MOL0     C85910  10.446   2.630  11.853  0.1805  0.0232  0.0713
  637MOL0     N85911  10.129   2.891  11.196 -0.1017 -0.6243  0.3271
  637MOL0     N85912  10.067   2.979  11.138 -0.7005  0.0468  0.2071
  637MOL0     C85913   8.975   3.576  10.979 -0.7680 -0.1144 -1.2728
  637MOL0     C85914   8.852   3.582  10.913  0.6204 -0.1248  0.0156
  637MOL0     C85915   8.415   3.564  10.847  0.2452  0.0038  0.3378
  637MOL0     C85916   8.388   3.652  10.746 -0.5444 -0.4880 -0.1439
  637MOL0     C85917   8.271   3.635  10.669 -0.0234  0.1267 -0.7072
  637MOL0     C85918   8.182   3.535  10.686  0.6952  0.1920  0.3980
  637MOL0     O85919   8.061   3.528  10.628 -0.0395 -0.9678  0.8435
  637MOL0     C85920   7.977   3.640  10.664  0.1111  0.6230  0.2728
  637MOL0     C85921   7.929   3.707  10.536 -0.4974 -0.3997  0.1889
  637MOL0     C85922   8.018   3.719  10.413  0.4492  0.2260  0.3372
  637MOL0     C85923   7.939   3.779  10.294 -0.2338  0.2008 -0.1588
  637MOL0     C85924   7.863   3.675  10.227  0.1435 -0.2130 -0.1692
  637MOL0     C85925   7.809   3.585  10.170 -0.0054 -0.4454  0.6348
  637MOL0     C85926   8.214   3.444  10.787 -0.4377 -0.3989 -0.7655
  637MOL0     C85927   8.328   3.464  10.864 -0.0842  0.3224 -0.4009
  637MOL0     H85928   8.687   3.772  11.122  2.3721  2.4825  1.0694
  637MOL0     H85929   8.893   3.724  11.269  2.3169 -4.6462  1.5444
  637MOL0     H85930   9.205   3.629  11.337 -3.7029  0.9713  2.5575
  637MOL0     H85931   9.047   3.550  11.321  1.2824  0.0969  0.6793
  637MOL0     H85932   9.198   3.383  11.347  0.7001  0.5921  0.8885
  637MOL0     H85933   9.146   3.379  11.170 -1.3728  3.2716 -1.4251
  637MOL0     H85934   9.375   3.469  11.099  3.3029  2.0795  1.4238
  637MOL0     H85935   9.410   3.513  11.267 -2.3538  0.0147  1.9931
  637MOL0     H85936   9.417   3.274  11.332  2.1835 -2.7645 -0.9601
  637MOL0     H85937   9.349   3.227  11.179  1.7728  0.6267 -1.6044
  637MOL0     H85938   9.580   3.321  11.072  3.5839 -0.6635  0.5907
  637MOL0     H85939   9.616   3.336  11.251  1.6148  0.1833 -3.0142
  637MOL0     H85940   9.594   3.082  11.258  2.0520 -1.0395 -0.0635
  637MOL0     H85941   9.567   3.088  11.084  1.8735 -1.3122  0.7764
  637MOL0     H85942   9.798   3.238  11.099 -0.5317 -0.9394 -2.8573
  637MOL0     H85943   9.813   3.169  11.258  2.1382  0.2821  0.5054
  637MOL0     H85944   9.867   3.045  10.994 -1.5707 -0.3611 -1.6206
  637MOL0     H85945   9.758   2.939  11.077  1.8903 -2.3255  1.7771
  637MOL0     H85946   9.838   2.812  11.305 -0.4172  0.5932 -1.2653
  637MOL0     H85947  10.047   2.616  11.350  1.7919 -0.5657 -0.5126
  637MOL0     H85948  10.205   2.689  11.378 -0.3643 -1.1987  0.8577
  637MOL0     H85949  10.108   2.670  11.589 -0.0134 -0.9037 -0.5237
  637MOL0     H85950   9.962   2.744  11.534 -0.2050 -1.2394  2.1991
  637MOL0     H85951  10.082   2.905  11.662 -0.1300  0.1043  0.8759
  637MOL0     H85952  10.121   2.951  11.500 -4.1438 -1.0559  0.2811
  637MOL0     H85953  10.309   2.971  11.626 -2.1355  0.0997 -1.3968
  637MOL0     H85954  10.328   2.819  11.533  2.8356 -1.0671  1.7747
  637MOL0     H85955  10.530   2.885  11.655  1.5007 -1.6962 -1.2468
  637MOL0     H85956  10.824   2.759  11.618  0.5300 -0.9847  1.2935
  637MOL0     H85957  10.755   2.922  11.653 -1.2972  0.0013  1.5082
  637MOL0     H85958  10.862   2.851  11.767 -1.5496  1.4573  1.4175
  637MOL0     H85959  10.976   2.360  11.722 -0.4873 -2.0517 -1.2040
  637MOL0     H85960  11.198   2.267  11.771  0.3092  1.3572  0.4726
  637MOL0     H85961  11.315   2.326  12.176  1.7129  3.9570 -1.5550
  637MOL0     H85962  11.421   2.179  12.175  2.0163  0.3869 -2.1606
  637MOL0     H85963  11.456   2.397  11.965 -0.4235  0.5870 -0.1263
  637MOL0     H85964  11.556   2.381  12.107 -0.0676 -0.0260  0.6927
  637MOL0     H85965  11.525   2.178  11.883  0.8612  2.0795 -1.8447
  637MOL0     H85966  11.581   2.144  12.051 -2.1655 -0.6020 -0.1968
  637MOL0     H85967  11.743   2.222  11.827  1.9684  3.2191 -0.9164
  637MOL0     H85968  11.703   2.375  11.900 -0.9107  0.8812  2.7350
  637MOL0     H85969  11.804   2.211  12.112  1.0280  1.8870  3.8450
  637MOL0     H85970  11.822   2.382  12.076  2.2565  0.5194 -0.3249
  637MOL0     H85971  11.973   2.321  11.882 -1.9681  1.1906  1.0780
  637MOL0     H85972  12.045   2.276  12.042  1.1783  0.0774 -1.7530
  637MOL0     H85973  11.890   2.068  11.884 -2.9586  0.3379  3.3397
  637MOL0     H85974  11.966   2.052  12.042  3.8836  1.3065  0.9973
  637MOL0     H85975  12.185   2.116  11.955  1.2248 -1.1657  1.0730
  637MOL0     H85976  12.119   2.096  11.789 -2.4272 -2.3059 -0.4785
  637MOL0     H85977  11.102   2.259  12.193  4.3627  4.2303 -0.5634
  637MOL0     H85978  10.877   2.377  12.126  1.0165  3.5280  0.2017
  637MOL0     H85979  10.582   2.504  11.952  1.7332 -0.0727 -1.9237
  637MOL0     H85980  10.355   2.601  11.904  1.0636 -1.2684  0.9991
  637MOL0     H85981   9.057   3.521  10.933  1.7932  1.5551  1.0195
  637MOL0     H85982   8.838   3.531  10.819  1.3877  1.3708 -0.9344
  637MOL0     H85983   8.449   3.740  10.728  0.8120 -1.6884 -1.8151
  637MOL0     H85984   8.261   3.713  10.594 -2.8038 -0.2179 -0.7991
  637MOL0     H85985   7.888   3.598  10.712 -0.5204  2.3436  0.6581
  637MOL0     H85986   8.036   3.714  10.719 -0.9095  0.3974  1.7366
  637MOL0     H85987   7.891   3.808  10.552  1.4165  0.0955  1.9143
  637MOL0     H85988   7.842   3.646  10.507  0.0342 -0.6521 -0.9617
  637MOL0     H85989   8.056   3.625  10.372 -0.0430  0.0341  0.3211
  637MOL0     H85990   8.107   3.782  10.425 -0.8759  2.8845 -2.2611
  637MOL0     H85991   8.008   3.828  10.224  0.7170 -0.4869  0.2758
  637MOL0     H85992   7.872   3.861  10.319  2.7299  2.9857 -0.5798
  637MOL0     H85993   7.761   3.511  10.109 -0.4886  0.4494 -0.0839
  637MOL0     H85994   8.151   3.357  10.805 -1.2529  0.4204  0.4639
  637MOL0     H85995   8.352   3.394  10.943 -1.5155  1.1057  0.7767
  638MOL0     O85996   0.289   2.869   4.169 -0.6220 -0.4337  0.3863
  638MOL0     C85997   0.208   2.787   4.117 -0.6616  0.2037  0.0479
  638MOL0     O85998   0.076   2.818   4.085  0.0809 -0.0625  0.1064
  638MOL0     C85999   0.018   2.942   4.113  0.2538 -0.1480  0.5583
  638MOL0     C86000  -0.125   2.927   4.118 -0.4256  0.8264  0.3781
  638MOL0     C86001  -0.211   3.033   4.139  0.4520 -0.3399 -0.0526
  638MOL0     C86002  -0.156   3.167   4.145 -0.2336 -0.1301  0.7906
  638MOL0     O86003  -0.235   3.281   4.151  0.1530 -0.0327  0.3003
  638MOL0     C86004  -0.330   3.295   4.049 -0.0545  0.0957 -0.0158
  638MOL0     C86005  -0.277   3.275   3.904  0.5091 -0.2676 -0.3064
  638MOL0     C86006  -0.153   3.368   3.890 -0.5409  0.2513  0.5120
  638MOL0     C86007  -0.061   3.329   3.771 -1.1196  0.4930 -0.2304
  638MOL0     C86008   0.091   3.375   3.776  1.4298  1.2610 -0.6925
  638MOL0     C86009   0.121   3.512   3.748  0.7072 -0.2044 -0.2390
  638MOL0     C86010   0.276   3.517   3.717 -0.7480  0.2655  0.4952
  638MOL0     C86011   0.312   3.661   3.689 -0.7822  1.1863  0.1556
  638MOL0     N86012   0.447   3.670   3.643  0.9453 -0.2098  0.0593
  638MOL0     C86013   0.550   3.646   3.733  0.5483  0.0511 -0.4709
  638MOL0     C86014   0.665   3.683   3.674 -0.1365  0.9001  0.3723
  638MOL0     C86015   0.805   3.685   3.746  0.1618 -0.4564 -0.3078
  638MOL0     C86016   0.829   3.819   3.797  0.8243  1.4446 -0.4566
  638MOL0     C86017   0.744   3.853   3.915 -0.1906  0.8719  0.0711
  638MOL0     C86018   0.645   3.971   3.889  0.1379 -0.6037  1.1455
  638MOL0     O86019   0.582   4.016   4.007  0.3524 -0.4151  0.6507
  638MOL0     C86020   0.530   4.145   4.002 -0.1040 -0.7200  0.2000
  638MOL0     C86021   0.512   4.207   4.122 -1.1673 -0.4817 -0.5441
  638MOL0     C86022   0.491   4.342   4.135  0.7651 -0.4130 -0.2309
  638MOL0     C86023   0.468   4.394   4.284 -0.0562  0.7804  0.6072
  638MOL0     C86024   0.467   4.427   4.024  0.0128  1.2214 -0.0554
  638MOL0     C86025   0.434   4.567   4.022  0.5636 -0.4954  0.0340
  638MOL0     O86026   0.443   4.628   3.893 -0.2482  0.0407 -1.0390
  638MOL0     C86027   0.400   4.757   3.882  0.6406 -0.6176 -0.2958
  638MOL0     C86028   0.464   4.863   3.957  0.9085  0.0060  0.0418
  638MOL0     C86029   0.409   4.992   3.944 -0.0119  0.4832  0.4504
  638MOL0     C86030   0.290   5.017   3.864  0.1369  0.0698  0.3205
  638MOL0     O86031   0.235   5.141   3.839 -0.3148  1.1393 -0.4397
  638MOL0     C86032   0.289   5.247   3.906  0.2541 -0.5727  0.7778
  638MOL0     C86033   0.207   5.357   3.853 -0.2912 -1.0452  0.5493
  638MOL0     C86034   0.271   5.404   3.721 -0.2652  0.5156  0.0305
  638MOL0     C86035   0.206   5.523   3.655 -0.3708  0.7173  0.0968
  638MOL0     C86036   0.312   5.572   3.551  0.6310  0.4797 -0.6445
  638MOL0     C86037   0.249   5.682   3.478  0.8362 -0.0541  0.3739
  638MOL0     C86038   0.349   5.764   3.389 -0.3360  0.2190 -0.6862
  638MOL0     C86039   0.357   5.712   3.242 -0.3647 -0.5577 -0.4781
  638MOL0    Cl86040   0.506   5.763   3.155  0.2702  0.1785  0.0204
  638MOL0     C86041   0.231   4.904   3.794  0.1770  0.1765  0.6943
  638MOL0     C86042   0.298   4.788   3.796  0.1106  0.2122  0.3323
  638MOL0     O86043   0.400   4.620   4.124  0.5485 -0.7902  0.3717
  638MOL0     C86044   0.480   4.364   3.908  0.2718  0.4490 -0.0139
  638MOL0     C86045   0.519   4.229   3.893  1.0098 -0.2581  1.4180
  638MOL0     N86046   0.631   3.738   3.550  0.2416  0.0063 -1.1437
  638MOL0     N86047   0.502   3.738   3.532  0.2853 -0.3546  0.0733
  638MOL0     C86048  -0.016   3.184   4.144  0.8227 -0.0454 -0.7657
  638MOL0     C86049   0.073   3.072   4.122 -0.4897 -0.3815 -0.6786
  638MOL0     C86050   0.258   2.643   4.099 -0.2179 -0.3795  0.1139
  638MOL0     C86051   0.359   2.588   4.168  0.3886 -0.7512 -0.5798
  638MOL0     C86052   0.401   2.462   4.152 -0.4063 -0.1949 -0.9470
  638MOL0     C86053   0.321   2.379   4.067 -0.2446 -0.2120 -0.3419
  638MOL0     O86054   0.348   2.247   4.044 -0.5714 -0.0423  0.6971
  638MOL0     C86055   0.465   2.193   4.090  0.0850 -0.7457  0.2810
  638MOL0     C86056   0.463   2.045   4.072 -0.7636  0.2340  0.2727
  638MOL0     C86057   0.338   1.970   4.128 -0.4438  1.1712  0.4456
  638MOL0     C86058   0.333   1.821   4.078 -0.0543 -0.0416 -0.6807
  638MOL0     C86059   0.356   1.795   3.930  0.9062 -0.4779 -0.4124
  638MOL0     C86060   0.403   1.764   3.827 -0.0065 -0.1458 -0.7516
  638MOL0     C86061   0.211   2.431   4.003  0.1570 -0.6802  0.4987
  638MOL0     C86062   0.180   2.563   4.009  0.6928 -1.5412 -0.1148
  638MOL0     H86063  -0.168   2.827   4.122  0.1622  0.6095  2.3552
  638MOL0     H86064  -0.315   3.013   4.166  0.3387  2.0225  1.5941
  638MOL0     H86065  -0.404   3.216   4.062  0.3609 -0.3897 -0.5564
  638MOL0     H86066  -0.380   3.391   4.068  0.5966  0.8104 -1.7168
  638MOL0     H86067  -0.248   3.179   3.862 -0.4053 -1.0542  0.8080
  638MOL0     H86068  -0.358   3.310   3.840 -0.3333 -0.6610  0.5312
  638MOL0     H86069  -0.181   3.470   3.862 -0.2947  0.3262  0.5303
  638MOL0     H86070  -0.083   3.374   3.974  0.9901 -2.0562 -0.4995
  638MOL0     H86071  -0.066   3.220   3.761  0.7782  0.2897  0.5199
  638MOL0     H86072  -0.094   3.389   3.686 -0.6079  1.7080  0.4095
  638MOL0     H86073   0.125   3.348   3.876 -1.3396 -3.0005 -0.6700
  638MOL0     H86074   0.141   3.315   3.699 -3.0112 -0.7916 -2.3273
  638MOL0     H86075   0.078   3.551   3.656 -1.0583 -0.1881  0.5620
  638MOL0     H86076   0.101   3.572   3.837  1.0397 -0.9964  0.3844
  638MOL0     H86077   0.324   3.470   3.802 -1.2057 -4.9098 -1.7664
  638MOL0     H86078   0.301   3.464   3.624 -1.1554 -0.4249  0.7764
  638MOL0     H86079   0.304   3.710   3.786  2.4503  1.1872  0.5170
  638MOL0     H86080   0.240   3.703   3.617 -2.6603 -0.0761  1.2005
  638MOL0     H86081   0.520   3.611   3.831 -2.0427  1.9405 -0.4982
  638MOL0     H86082   0.801   3.615   3.830  1.1297  0.1669  0.2741
  638MOL0     H86083   0.888   3.656   3.681  0.6820  1.0497 -0.3520
  638MOL0     H86084   0.812   3.892   3.717 -4.7060 -0.2601 -1.2581
  638MOL0     H86085   0.937   3.820   3.815  0.4815 -1.2465  2.7529
  638MOL0     H86086   0.803   3.864   4.007  1.4999  2.3490 -1.1192
  638MOL0     H86087   0.680   3.766   3.932  0.4399  0.4137  0.1723
  638MOL0     H86088   0.583   3.951   3.801  1.3814 -0.4844  0.2051
  638MOL0     H86089   0.711   4.051   3.854 -0.1302  0.1701  2.3595
  638MOL0     H86090   0.521   4.145   4.211 -3.1430 -0.1938 -0.0935
  638MOL0     H86091   0.372   4.441   4.307  0.2386  2.1040 -0.7156
  638MOL0     H86092   0.485   4.314   4.356  2.4874  1.2176  0.5779
  638MOL0     H86093   0.543   4.471   4.302  1.8449 -0.9368  0.3707
  638MOL0     H86094   0.546   4.840   4.024 -0.5854 -2.5238  1.1863
  638MOL0     H86095   0.448   5.079   3.997  0.0293  1.4042 -1.0421
  638MOL0     H86096   0.273   5.228   4.013 -0.2961 -1.6351  0.5279
  638MOL0     H86097   0.392   5.268   3.876 -0.6843  0.4475 -1.9718
  638MOL0     H86098   0.105   5.326   3.830 -1.4978  2.9802 -0.2589
  638MOL0     H86099   0.194   5.445   3.917 -0.2786 -0.2441 -0.5237
  638MOL0     H86100   0.269   5.318   3.653  1.0396  0.6485 -0.1900
  638MOL0     H86101   0.375   5.431   3.739 -0.7665  2.6808 -0.0623
  638MOL0     H86102   0.115   5.490   3.602  0.1951 -1.1128  0.1753
  638MOL0     H86103   0.199   5.602   3.729  0.8201  2.1140 -1.2296
  638MOL0     H86104   0.336   5.493   3.479 -2.0082  0.6376 -1.7886
  638MOL0     H86105   0.401   5.608   3.603  0.8066  2.3369 -2.1005
  638MOL0     H86106   0.171   5.647   3.409 -0.4514  0.0303  1.7470
  638MOL0     H86107   0.207   5.753   3.550  2.7356  0.7283  0.7494
  638MOL0     H86108   0.451   5.756   3.425 -1.0436  1.2217  1.7064
  638MOL0     H86109   0.314   5.867   3.386 -2.6209 -0.5038 -0.9526
  638MOL0     H86110   0.272   5.756   3.189  1.4617  4.6516  0.3761
  638MOL0     H86111   0.350   5.603   3.243  0.8395 -0.7062  2.7711
  638MOL0     H86112   0.139   4.921   3.739  0.9098  1.0411 -0.3101
  638MOL0     H86113   0.252   4.708   3.741  0.3089  2.7567 -3.9677
  638MOL0     H86114   0.463   4.408   3.811 -1.5168 -2.7617 -1.2736
  638MOL0     H86115   0.528   4.212   3.787 -2.4433  0.2937  0.9347
  638MOL0     H86116   0.021   3.283   4.165 -1.3688  0.9277 -1.1936
  638MOL0     H86117   0.182   3.082   4.126 -0.3485 -2.1081  0.4870
  638MOL0     H86118   0.433   2.642   4.225  1.9616 -2.3786 -0.9946
  638MOL0     H86119   0.475   2.425   4.223 -0.4948  0.8182 -0.3172
  638MOL0     H86120   0.545   2.236   4.029 -2.8949  1.6763 -2.2168
  638MOL0     H86121   0.483   2.215   4.196 -0.8350 -1.6206  0.6338
  638MOL0     H86122   0.556   1.998   4.103  0.4935 -0.1018 -3.4989
  638MOL0     H86123   0.475   2.036   3.963  4.4422 -0.9783  0.7057
  638MOL0     H86124   0.253   2.020   4.080 -0.2298  1.8256  0.7399
  638MOL0     H86125   0.335   1.973   4.238  1.5707 -1.8569  0.7061
  638MOL0     H86126   0.238   1.777   4.109  0.4022  0.1667  1.1412
  638MOL0     H86127   0.402   1.761   4.137  0.6301  0.4422 -0.9730
  638MOL0     H86128   0.438   1.736   3.730 -2.9681  0.0917 -1.9826
  638MOL0     H86129   0.167   2.356   3.937 -0.3481 -2.2693  2.5330
  638MOL0     H86130   0.097   2.599   3.949  1.2313 -1.6397 -0.9331
  639MOL0     O86131  10.816   9.597   7.292  0.4324 -0.3566 -0.5044
  639MOL0     C86132  10.802   9.709   7.346 -0.4171  0.2742  1.6249
  639MOL0     O86133  10.890   9.815   7.331 -0.4595  0.4038 -0.3418
  639MOL0     C86134  11.005   9.794   7.256  0.2908  0.2455  0.0061
  639MOL0     C86135  11.101   9.702   7.295  0.1265 -0.5029  0.4265
  639MOL0     C86136  11.224   9.688   7.219  0.2234  0.5125 -0.3781
  639MOL0     C86137  11.251   9.772   7.107  1.4908  0.7817 -0.1872
  639MOL0     O86138  11.356   9.774   7.019  0.2905 -0.0446 -0.7000
  639MOL0     C86139  11.487   9.726   7.069  0.8350 -0.4568  0.2551
  639MOL0     C86140  11.550   9.609   6.994 -0.4768  0.8760 -0.4123
  639MOL0     C86141  11.488   9.476   7.013 -0.3239 -0.1258 -0.3717
  639MOL0     C86142  11.357   9.457   6.946  0.3354  0.2187 -0.6226
  639MOL0     C86143  11.289   9.333   7.006 -0.1308  0.2414  0.7480
  639MOL0     C86144  11.152   9.309   6.944  0.0031  0.1042  0.5212
  639MOL0     C86145  11.061   9.431   6.949  0.0549 -0.3019  0.1512
  639MOL0     C86146  10.910   9.408   6.911  0.0957 -0.0297  0.8927
  639MOL0     N86147  10.819   9.524   6.887 -0.7647 -0.0275  0.5894
  639MOL0     C86148  10.808   9.646   6.950 -0.1412  0.1563  0.1396
  639MOL0     C86149  10.706   9.714   6.892 -0.3923 -0.0954  0.4977
  639MOL0     C86150  10.627   9.840   6.927  0.1418 -0.6281 -0.4741
  639MOL0     C86151  10.522   9.830   7.048  0.2017 -0.5160  0.3834
  639MOL0     C86152  10.427   9.946   7.047 -0.6509 -0.3058 -0.7315
  639MOL0     C86153  10.394   9.992   7.193  0.5344 -0.9802 -0.4896
  639MOL0     O86154  10.258   9.952   7.221 -0.2091  1.3110  0.5426
  639MOL0     C86155  10.183  10.027   7.317  0.3695 -0.0892  0.0592
  639MOL0     C86156  10.223  10.147   7.373 -0.6752 -1.2210 -0.8518
  639MOL0     C86157  10.129  10.243   7.419  0.0957 -0.1307 -0.1011
  639MOL0     C86158  10.177  10.384   7.446  0.2565  0.9318 -0.8819
  639MOL0     C86159   9.989  10.200   7.427  0.6581 -0.4797 -1.2917
  639MOL0     C86160   9.877  10.290   7.451 -0.5174 -1.2853  0.3012
  639MOL0     O86161   9.799  10.272   7.557  0.1985 -0.2987 -0.3596
  639MOL0     C86162   9.676  10.329   7.576  0.1847 -0.4017 -0.2788
  639MOL0     C86163   9.596  10.382   7.469  0.4780 -0.9643 -0.0150
  639MOL0     C86164   9.472  10.435   7.495 -0.8957  0.2807 -0.0673
  639MOL0     C86165   9.421  10.441   7.620 -0.6430 -0.0058 -0.3067
  639MOL0     O86166   9.299  10.505   7.646 -0.5715  0.4665 -0.4130
  639MOL0     C86167   9.203  10.440   7.733  0.6647 -0.6097 -0.3458
  639MOL0     C86168   9.115  10.533   7.811 -0.2583 -0.2430 -0.5451
  639MOL0     C86169   9.175  10.632   7.900  0.2736  0.5682 -0.7182
  639MOL0     C86170   9.241  10.558   8.019  0.1665 -0.0893  0.7568
  639MOL0     C86171   9.265  10.642   8.141  0.8125  0.2800  0.7302
  639MOL0     C86172   9.395  10.717   8.145 -0.9217 -0.0652  1.3658
  639MOL0     C86173   9.417  10.799   8.271 -0.6344  0.2068 -0.3889
  639MOL0     C86174   9.555  10.874   8.261  0.4687  0.8764 -0.5516
  639MOL0    Cl86175   9.608  10.919   8.088  0.3785 -0.2540 -0.1355
  639MOL0     C86176   9.496  10.386   7.728 -0.3346 -0.0492  0.0194
  639MOL0     C86177   9.619  10.332   7.699  0.2376  0.0367 -0.1960
  639MOL0     O86178   9.871  10.368   7.362  1.0584 -0.9040  0.0290
  639MOL0     C86179   9.957  10.067   7.379  0.5897 -0.1581  0.6553
  639MOL0     C86180  10.050   9.985   7.326  0.2242 -0.3322 -0.2607
  639MOL0     N86181  10.676   9.640   6.780 -0.7026  0.3532  0.1730
  639MOL0     N86182  10.749   9.532   6.770 -0.8359 -0.5475 -0.1556
  639MOL0     C86183  11.159   9.875   7.081  0.0511  0.7058 -0.3597
  639MOL0     C86184  11.034   9.882   7.154 -0.4785 -0.1675 -1.3295
  639MOL0     C86185  10.674   9.738   7.394  1.0853  1.1121  0.1509
  639MOL0     C86186  10.572   9.639   7.397 -0.9887  0.1269  0.5179
  639MOL0     C86187  10.443   9.662   7.457  0.1146 -0.0295  0.4431
  639MOL0     C86188  10.421   9.770   7.534 -0.2172 -0.1108  0.2775
  639MOL0     O86189  10.311   9.771   7.619 -0.2459  0.2258  0.6825
  639MOL0     C86190  10.257   9.902   7.661 -0.3650  0.4028 -0.0367
  639MOL0     C86191  10.118   9.867   7.708  0.4699 -0.2115 -0.1925
  639MOL0     C86192  10.046   9.976   7.772  0.9398  0.0860 -0.1913
  639MOL0     C86193   9.901   9.939   7.799 -0.1643  0.4233  0.2486
  639MOL0     C86194   9.830  10.027   7.890  0.2484  0.2602  0.8083
  639MOL0     C86195   9.759  10.089   7.960  0.3839 -0.5159  0.2605
  639MOL0     C86196  10.518   9.878   7.541  0.4394  0.1570  0.5100
  639MOL0     C86197  10.641   9.857   7.471  0.1715 -0.4969 -0.7876
  639MOL0     H86198  11.080   9.640   7.382  0.5624  0.9938  1.6280
  639MOL0     H86199  11.293   9.612   7.253  0.7761  1.7457  1.3926
  639MOL0     H86200  11.544   9.819   7.065 -2.9877  2.0947 -1.6289
  639MOL0     H86201  11.485   9.697   7.174  1.1673 -0.5860  0.2264
  639MOL0     H86202  11.566   9.626   6.887  2.3690  2.2940  0.1336
  639MOL0     H86203  11.654   9.603   7.029 -0.1620  0.9133 -1.3175
  639MOL0     H86204  11.551   9.390   6.988 -0.1402  0.1891 -1.0015
  639MOL0     H86205  11.475   9.455   7.120 -1.2407  1.0208 -0.2474
  639MOL0     H86206  11.294   9.546   6.956 -0.0376 -0.2267  1.4062
  639MOL0     H86207  11.372   9.439   6.839 -1.8648 -1.6778 -0.6972
  639MOL0     H86208  11.346   9.242   6.985 -2.9317 -1.5500  0.4136
  639MOL0     H86209  11.262   9.346   7.111  0.4264  1.1195  0.7892
  639MOL0     H86210  11.163   9.277   6.840 -1.8522  5.0066 -1.5230
  639MOL0     H86211  11.098   9.232   6.999 -1.6458 -0.0273 -1.1998
  639MOL0     H86212  11.073   9.491   7.040  3.1945  1.2419 -1.1253
  639MOL0     H86213  11.087   9.491   6.862 -0.6489 -2.2702 -1.5001
  639MOL0     H86214  10.877   9.349   6.996  0.6119 -1.5106  0.1031
  639MOL0     H86215  10.900   9.349   6.819  3.8316  0.7641 -0.2098
  639MOL0     H86216  10.865   9.675   7.037 -0.2278 -2.4149  1.1516
  639MOL0     H86217  10.691   9.927   6.941  0.6169 -0.9007 -0.8955
  639MOL0     H86218  10.566   9.865   6.840 -1.3321  4.9060  1.6929
  639MOL0     H86219  10.579   9.829   7.141  0.1513 -4.7677  0.5540
  639MOL0     H86220  10.466   9.736   7.040  1.2495 -1.0364 -1.8037
  639MOL0     H86221  10.337   9.914   6.993 -0.3927  0.2166 -1.4996
  639MOL0     H86222  10.476  10.029   6.995  1.4377 -0.3282  1.0583
  639MOL0     H86223  10.397  10.101   7.190 -0.1720 -0.9713 -1.0883
  639MOL0     H86224  10.470   9.959   7.264  2.5782 -3.6727 -3.6234
  639MOL0     H86225  10.328  10.174   7.378 -0.1894 -3.1997  1.8333
  639MOL0     H86226  10.275  10.393   7.397 -0.2338 -1.7924 -2.5842
  639MOL0     H86227  10.107  10.461   7.412 -0.9454 -0.4147 -1.5327
  639MOL0     H86228  10.203  10.397   7.551 -2.0476  4.5213 -0.5723
  639MOL0     H86229   9.637  10.382   7.369  0.1725  1.7423 -0.2043
  639MOL0     H86230   9.409  10.484   7.421 -0.6572 -0.4764 -0.7764
  639MOL0     H86231   9.140  10.383   7.664  1.1874 -1.4177 -0.1632
  639MOL0     H86232   9.249  10.369   7.802 -0.5244 -3.6601 -2.4880
  639MOL0     H86233   9.052  10.586   7.739 -0.2443  1.6069  0.7354
  639MOL0     H86234   9.055  10.470   7.877  1.8287 -2.1140 -0.3043
  639MOL0     H86235   9.091  10.691   7.938 -1.5981 -3.3861  1.9322
  639MOL0     H86236   9.251  10.694   7.851  2.1349 -0.4959  0.6552
  639MOL0     H86237   9.173  10.478   8.049 -1.5673  0.2886 -1.8449
  639MOL0     H86238   9.336  10.514   7.987  0.6725  1.9372 -0.7413
  639MOL0     H86239   9.255  10.578   8.230  3.7153 -1.8519 -0.3459
  639MOL0     H86240   9.184  10.715   8.149  0.0796  0.2321 -3.8542
  639MOL0     H86241   9.471  10.644   8.117 -2.4381 -1.3313  0.4435
  639MOL0     H86242   9.388  10.784   8.058  0.2841 -1.2027  0.3502
  639MOL0     H86243   9.418  10.748   8.368 -2.5201 -1.7953 -1.3449
  639MOL0     H86244   9.344  10.878   8.287  0.2912  0.9067  0.5049
  639MOL0     H86245   9.633  10.808   8.300 -1.3973  0.4656  2.8530
  639MOL0     H86246   9.561  10.966   8.319  1.2872  0.5948 -0.1750
  639MOL0     H86247   9.477  10.391   7.835 -1.8381  0.3687 -0.2403
  639MOL0     H86248   9.676  10.301   7.785 -0.0680  2.5842  1.0113
  639MOL0     H86249   9.851  10.044   7.370  0.7158 -0.4846 -0.0665
  639MOL0     H86250  10.010   9.894   7.281  1.1407 -1.2629  0.7713
  639MOL0     H86251  11.177   9.946   7.001 -0.1262  1.4463  0.2473
  639MOL0     H86252  10.967   9.967   7.145 -1.4443 -0.7600  0.0569
  639MOL0     H86253  10.600   9.538   7.366 -2.5694 -0.8351  2.0669
  639MOL0     H86254  10.360   9.593   7.451 -0.5208  0.7204  0.5632
  639MOL0     H86255  10.312   9.946   7.745  2.0646 -1.2785 -0.6338
  639MOL0     H86256  10.262   9.975   7.581  1.8482 -1.2170 -1.5289
  639MOL0     H86257  10.133   9.788   7.782 -3.1805  1.3909  2.5270
  639MOL0     H86258  10.065   9.814   7.628  0.5440 -2.6777  1.2959
  639MOL0     H86259  10.048  10.057   7.698 -2.0788  0.0236 -0.4701
  639MOL0     H86260  10.096  10.003   7.866  1.7972 -1.0197 -0.3154
  639MOL0     H86261   9.913   9.836   7.835  2.7328 -0.4407 -2.6664
  639MOL0     H86262   9.855   9.926   7.701  1.2622 -0.6934 -0.3170
  639MOL0     H86263   9.697  10.145   8.027 -0.3431  0.6735 -1.3750
  639MOL0     H86264  10.494   9.962   7.605  0.0365  0.0272  0.5307
  639MOL0     H86265  10.721   9.929   7.480 -0.3389  0.2488 -1.9494
  640MOL0     O86266  11.408   3.456   1.357  0.6781 -0.1456 -0.0387
  640MOL0     C86267  11.483   3.427   1.448  0.1573 -1.1643 -1.2323
  640MOL0     O86268  11.590   3.509   1.487  0.7367 -1.2495  0.3411
  640MOL0     C86269  11.583   3.636   1.433 -0.5169 -0.0512 -0.3496
  640MOL0     C86270  11.569   3.745   1.527 -0.0233 -0.5561  1.0246
  640MOL0     C86271  11.569   3.872   1.478  1.0155  0.2751 -0.3270
  640MOL0     C86272  11.584   3.902   1.346  0.3519 -0.1815  0.2278
  640MOL0     O86273  11.593   4.031   1.315 -0.4106 -0.1173  0.1127
  640MOL0     C86274  11.651   4.063   1.187 -0.7036 -0.8184  0.7327
  640MOL0     C86275  11.674   4.220   1.204  0.0319 -1.7010  0.1847
  640MOL0     C86276  11.782   4.273   1.307 -0.1742 -0.0874 -0.0527
  640MOL0     C86277  11.792   4.421   1.310  0.2787 -1.1252  0.3856
  640MOL0     C86278  11.880   4.462   1.431 -0.0912  0.7113  0.6063
  640MOL0     C86279  11.894   4.615   1.467 -0.3835 -0.3587 -0.6802
  640MOL0     C86280  12.016   4.635   1.545 -0.2581  0.5975  0.0816
  640MOL0     C86281  12.069   4.778   1.545  0.2089  0.4370 -0.1158
  640MOL0     N86282  11.972   4.869   1.596 -0.7202 -0.8498  0.1629
  640MOL0     C86283  11.936   4.883   1.729  1.4089  0.4712 -1.2757
  640MOL0     C86284  11.849   4.983   1.739  0.5345 -0.6475 -0.3831
  640MOL0     C86285  11.794   5.066   1.853  0.0251 -0.0664  0.1336
  640MOL0     C86286  11.686   4.986   1.919  0.4206  0.5299  0.5740
  640MOL0     C86287  11.644   5.053   2.054 -0.4692 -0.4460  0.6642
  640MOL0     C86288  11.559   4.967   2.146 -0.0251  0.0531  0.5415
  640MOL0     O86289  11.433   4.948   2.082  0.0188  0.7286  0.4544
  640MOL0     C86290  11.334   4.878   2.146 -0.3843  0.8154  0.8342
  640MOL0     C86291  11.348   4.786   2.237 -0.2608  0.0628 -0.0235
  640MOL0     C86292  11.244   4.735   2.313 -0.4264 -0.2330  0.1129
  640MOL0     C86293  11.288   4.642   2.423  0.4512  0.6316 -0.6203
  640MOL0     C86294  11.114   4.777   2.288  0.0761  0.0519 -0.9936
  640MOL0     C86295  10.995   4.738   2.374  0.5207 -0.5941  0.0667
  640MOL0     O86296  11.005   4.647   2.475 -0.0672 -0.1845  0.1565
  640MOL0     C86297  10.902   4.596   2.546 -0.0391  0.3174  0.4943
  640MOL0     C86298  10.765   4.599   2.508 -1.0289 -0.2010  0.0786
  640MOL0     C86299  10.672   4.539   2.588  0.5603  0.1793  0.4793
  640MOL0     C86300  10.695   4.471   2.710  0.3706  0.2893 -0.2719
  640MOL0     O86301  10.590   4.411   2.780 -0.2080 -0.0366 -0.2181
  640MOL0     C86302  10.633   4.311   2.872 -0.7467  1.2432 -0.2034
  640MOL0     C86303  10.538   4.236   2.974 -0.5784 -0.0415  0.3356
  640MOL0     C86304  10.621   4.140   3.053  0.2338  0.6283 -1.1128
  640MOL0     C86305  10.537   4.059   3.159 -0.4384 -0.1198  0.1213
  640MOL0     C86306  10.605   3.911   3.146  0.3268 -0.1515 -0.8243
  640MOL0     C86307  10.559   3.838   3.272  0.1057  0.6156  0.3605
  640MOL0     C86308  10.636   3.710   3.307  0.6728  0.5388  1.1272
  640MOL0     C86309  10.656   3.608   3.199 -0.0383  0.2701  0.8326
  640MOL0    Cl86310  10.795   3.534   3.249 -0.3185 -0.2261 -0.0504
  640MOL0     C86311  10.827   4.457   2.743 -0.1843 -1.0138  1.0782
  640MOL0     C86312  10.935   4.523   2.665  0.1668 -0.2914  0.0922
  640MOL0     O86313  10.895   4.808   2.357  0.4388 -1.0583 -0.3380
  640MOL0     C86314  11.094   4.864   2.182  0.4604 -0.4941  0.4693
  640MOL0     C86315  11.202   4.906   2.104 -0.5057 -0.1993 -0.1262
  640MOL0     N86316  11.826   5.024   1.605 -0.4475 -0.7449  0.3250
  640MOL0     N86317  11.906   4.961   1.514  0.0139 -0.3307 -0.9470
  640MOL0     C86318  11.615   3.799   1.261 -0.0250 -0.2027  0.4558
  640MOL0     C86319  11.608   3.671   1.299 -1.1307 -0.0709  0.1477
  640MOL0     C86320  11.449   3.315   1.531  0.0136 -0.3282 -0.3502
  640MOL0     C86321  11.326   3.250   1.527 -0.6931  0.3211 -0.4603
  640MOL0     C86322  11.304   3.138   1.604 -0.1857 -0.6392 -0.8897
  640MOL0     C86323  11.405   3.076   1.684 -0.4298  0.0826 -0.8900
  640MOL0     O86324  11.401   2.954   1.754 -0.6088  0.1720 -0.1382
  640MOL0     C86325  11.282   2.886   1.783  1.0035 -0.1370 -0.5350
  640MOL0     C86326  11.234   2.814   1.653 -1.2404  0.1127  0.5826
  640MOL0     C86327  11.084   2.763   1.659  0.3664 -0.4224  0.4124
  640MOL0     C86328  10.982   2.867   1.614 -0.4934  0.1195  0.5019
  640MOL0     C86329  10.851   2.804   1.624  0.4110  0.7270 -0.5331
  640MOL0     C86330  10.749   2.746   1.637  0.2492  0.3560  0.6575
  640MOL0     C86331  11.531   3.145   1.692 -0.2227  0.0903  0.2365
  640MOL0     C86332  11.549   3.261   1.615  0.6065  0.3692  0.0357
  640MOL0     H86333  11.542   3.726   1.631 -1.9752 -4.8041 -0.0535
  640MOL0     H86334  11.565   3.945   1.559 -0.8837  2.2753 -2.0754
  640MOL0     H86335  11.742   4.004   1.170 -1.4635 -1.7487 -0.1937
  640MOL0     H86336  11.587   4.048   1.100 -2.2055 -0.1238  1.6698
  640MOL0     H86337  11.701   4.248   1.102 -0.7913 -0.8258  0.1851
  640MOL0     H86338  11.569   4.251   1.209 -0.3584 -3.0950  1.2534
  640MOL0     H86339  11.751   4.239   1.407  0.0263 -1.2262 -0.3655
  640MOL0     H86340  11.878   4.233   1.272  2.4316  1.8233  4.0505
  640MOL0     H86341  11.833   4.453   1.214 -2.0114 -1.0035 -0.6225
  640MOL0     H86342  11.690   4.460   1.320  0.5256 -0.3894  0.0104
  640MOL0     H86343  11.856   4.402   1.519 -3.5657  0.6158 -0.2611
  640MOL0     H86344  11.979   4.439   1.390 -0.3795  0.5562 -0.0155
  640MOL0     H86345  11.918   4.671   1.375 -1.4032  0.2152 -0.6125
  640MOL0     H86346  11.801   4.655   1.509 -0.8527 -0.2239 -1.7943
  640MOL0     H86347  12.008   4.613   1.651  0.6184  0.9222  0.2231
  640MOL0     H86348  12.091   4.576   1.489 -2.5036  0.2752 -2.8529
  640MOL0     H86349  12.080   4.815   1.442  0.1243  0.2127 -0.2054
  640MOL0     H86350  12.150   4.791   1.617 -0.6061 -1.2877  1.1721
  640MOL0     H86351  11.971   4.831   1.818 -2.5851  0.7638  0.7070
  640MOL0     H86352  11.872   5.086   1.927 -0.9737  1.0635  0.9199
  640MOL0     H86353  11.758   5.162   1.816  1.0961  0.0705 -0.5836
  640MOL0     H86354  11.718   4.882   1.928 -0.9860 -0.0544 -0.7111
  640MOL0     H86355  11.605   4.980   1.845  1.2845  1.2276 -0.4534
  640MOL0     H86356  11.579   5.138   2.027  0.7249 -0.1359 -1.4728
  640MOL0     H86357  11.733   5.083   2.109  0.1272 -2.1932  0.6840
  640MOL0     H86358  11.534   5.025   2.235 -0.9986  0.3938  0.0720
  640MOL0     H86359  11.619   4.877   2.163 -1.2932 -0.5710  1.9808
  640MOL0     H86360  11.447   4.750   2.263  0.1004  0.7696 -0.3827
  640MOL0     H86361  11.397   4.635   2.431  0.2573 -2.3436  0.8432
  640MOL0     H86362  11.257   4.653   2.527  0.6186  0.0167 -0.5005
  640MOL0     H86363  11.245   4.544   2.398  1.2208  0.1183 -0.0092
  640MOL0     H86364  10.727   4.623   2.409  0.1710 -1.5238 -0.7346
  640MOL0     H86365  10.567   4.541   2.560  0.3240 -0.1288  1.3297
  640MOL0     H86366  10.693   4.241   2.813  1.5427  2.4607  0.5736
  640MOL0     H86367  10.700   4.366   2.938  1.7904  0.7597 -2.2241
  640MOL0     H86368  10.494   4.313   3.037 -0.2864 -1.6571  2.6538
  640MOL0     H86369  10.458   4.183   2.922  0.8592  1.0607 -3.2957
  640MOL0     H86370  10.707   4.189   3.101  0.1124 -1.1142  1.0418
  640MOL0     H86371  10.659   4.068   2.980 -0.6213  0.6440 -1.5828
  640MOL0     H86372  10.541   4.089   3.265 -4.0219  0.0907  0.3214
  640MOL0     H86373  10.430   4.054   3.139 -0.9094  1.1295  2.0810
  640MOL0     H86374  10.713   3.927   3.150 -0.1198  3.3034  0.8041
  640MOL0     H86375  10.581   3.860   3.052 -0.4393 -0.4888 -0.4541
  640MOL0     H86376  10.558   3.904   3.360  1.4434  2.4904 -0.9457
  640MOL0     H86377  10.463   3.789   3.260 -0.1745  0.6195  2.1986
  640MOL0     H86378  10.583   3.670   3.394 -1.6691 -0.2442 -0.5568
  640MOL0     H86379  10.733   3.737   3.350  1.6663 -0.0280 -0.6378
  640MOL0     H86380  10.678   3.662   3.106  0.6978 -1.4041 -0.0119
  640MOL0     H86381  10.563   3.551   3.191 -1.7026  2.5401  2.6619
  640MOL0     H86382  10.869   4.404   2.828  3.9311 -0.3348 -0.3125
  640MOL0     H86383  11.037   4.495   2.692  1.3572  0.8961 -2.7094
  640MOL0     H86384  10.992   4.897   2.165  0.6471  0.0317  0.3653
  640MOL0     H86385  11.193   4.986   2.032  1.8043  1.8766  1.7024
  640MOL0     H86386  11.623   3.799   1.153 -0.6703 -3.6488  0.2708
  640MOL0     H86387  11.626   3.590   1.228  0.2710  1.7520 -1.7044
  640MOL0     H86388  11.241   3.282   1.467 -0.7696 -5.0090 -3.9484
  640MOL0     H86389  11.204   3.098   1.605 -0.1249 -0.9579  1.7748
  640MOL0     H86390  11.296   2.806   1.857 -2.0023  0.9593  1.3803
  640MOL0     H86391  11.199   2.947   1.819  2.1142  0.8048  0.5362
  640MOL0     H86392  11.309   2.737   1.632 -1.2476  0.4531 -0.8099
  640MOL0     H86393  11.244   2.886   1.571 -1.0313  1.9412  2.1618
  640MOL0     H86394  11.065   2.736   1.763  3.3943  3.7138  2.3248
  640MOL0     H86395  11.073   2.669   1.605  1.7641 -1.8004  2.4076
  640MOL0     H86396  10.986   2.889   1.507  0.5219 -3.0699 -0.1938
  640MOL0     H86397  10.985   2.955   1.680 -1.4083  0.4411  0.1278
  640MOL0     H86398  10.666   2.678   1.634  2.5469 -2.6667 -0.5734
  640MOL0     H86399  11.617   3.117   1.753 -0.6423 -1.2150  0.2698
  640MOL0     H86400  11.645   3.310   1.601 -2.1019  5.8204 -2.6522
  641MOL0     O86401  10.767   6.395   3.382 -0.4982 -0.6538 -0.3917
  641MOL0     C86402  10.714   6.290   3.354 -0.8895 -0.5288 -0.3675
  641MOL0     O86403  10.768   6.171   3.371 -0.5632  0.0025 -0.2859
  641MOL0     C86404  10.880   6.143   3.443 -0.9249  0.9352 -0.8469
  641MOL0     C86405  10.862   6.104   3.578 -0.2620  0.4145 -0.3879
  641MOL0     C86406  10.967   6.105   3.677 -0.1750 -0.1885  0.5099
  641MOL0     C86407  11.087   6.160   3.633 -0.2657 -0.8682  0.3992
  641MOL0     O86408  11.191   6.168   3.718  0.0783 -0.3339  0.3465
  641MOL0     C86409  11.175   6.179   3.859  0.7070 -0.6608  0.0145
  641MOL0     C86410  11.102   6.313   3.899 -0.4748 -0.5040 -0.7368
  641MOL0     C86411  11.191   6.434   3.887  0.3112 -0.5149 -0.5006
  641MOL0     C86412  11.177   6.535   4.008  1.9108  0.9715 -0.1794
  641MOL0     C86413  11.235   6.674   3.979 -0.8141  0.0487  0.0422
  641MOL0     C86414  11.258   6.752   4.114 -0.6210  0.7568  0.6589
  641MOL0     C86415  11.379   6.698   4.186 -0.2108  0.2290 -0.3261
  641MOL0     C86416  11.415   6.785   4.306 -0.0993 -0.4505 -0.9355
  641MOL0     N86417  11.552   6.764   4.355 -0.5001 -0.0785 -0.3049
  641MOL0     C86418  11.661   6.814   4.293 -0.9132  0.1825  0.3288
  641MOL0     C86419  11.768   6.795   4.376 -0.2770  0.2183  0.1085
  641MOL0     C86420  11.903   6.873   4.351  0.5438  0.4783 -0.6079
  641MOL0     C86421  12.011   6.824   4.442 -1.1248 -0.4910  0.9777
  641MOL0     C86422  12.150   6.889   4.408  0.3587  0.3456 -0.7240
  641MOL0     C86423  12.199   7.004   4.510  0.1328  0.6667  0.6453
  641MOL0     O86424  12.106   7.108   4.480 -0.4406  0.1441  0.5316
  641MOL0     C86425  12.122   7.197   4.583 -0.3839 -0.4557  0.5706
  641MOL0     C86426  12.044   7.183   4.693  0.1339 -0.6317 -0.4167
  641MOL0     C86427  12.071   7.249   4.812  0.3030  0.8390  0.8251
  641MOL0     C86428  11.973   7.215   4.930 -0.1680  0.0974  1.3948
  641MOL0     C86429  12.158   7.362   4.807  0.3917 -0.3940 -0.2475
  641MOL0     C86430  12.193   7.434   4.932 -0.0553  0.1336  0.1981
  641MOL0     O86431  12.325   7.462   4.960  0.0560  0.0873 -0.1857
  641MOL0     C86432  12.354   7.516   5.083  0.7846 -0.8581 -0.3234
  641MOL0     C86433  12.322   7.458   5.199 -0.3967  0.6988 -0.3958
  641MOL0     C86434  12.342   7.518   5.320 -0.5730 -1.0285 -0.8723
  641MOL0     C86435  12.416   7.641   5.320 -0.5512  0.3418 -0.0136
  641MOL0     O86436  12.440   7.711   5.437 -0.0522  0.2261  1.0021
  641MOL0     C86437  12.443   7.644   5.558 -0.3022  0.0903  0.0006
  641MOL0     C86438  12.578   7.658   5.640 -0.1073  1.5199  0.7228
  641MOL0     C86439  12.650   7.518   5.649 -0.5101 -0.1728  0.7474
  641MOL0     C86440  12.583   7.432   5.748  0.0888  1.1084  0.4719
  641MOL0     C86441  12.638   7.289   5.776  0.8381 -0.0070  0.2417
  641MOL0     C86442  12.756   7.291   5.876  0.4927 -0.1245  0.5183
  641MOL0     C86443  12.821   7.154   5.877  0.1852  0.6228  0.1179
  641MOL0     C86444  12.907   7.144   6.005 -0.3164  0.1643  0.7140
  641MOL0    Cl86445  13.000   7.299   6.045 -0.3398  0.1430  0.1314
  641MOL0     C86446  12.444   7.713   5.201  0.6208 -0.6630 -0.7990
  641MOL0     C86447  12.417   7.645   5.086 -0.7578 -0.5717 -0.0353
  641MOL0     O86448  12.096   7.459   5.006 -0.2326 -0.8154 -0.2483
  641MOL0     C86449  12.229   7.392   4.685 -0.8411  1.8039  0.3430
  641MOL0     C86450  12.214   7.299   4.576 -0.0562  0.3456 -0.2700
  641MOL0     N86451  11.722   6.733   4.491  1.0477  0.3568 -0.0219
  641MOL0     N86452  11.589   6.719   4.475 -0.0707  0.4597 -1.2722
  641MOL0     C86453  11.113   6.195   3.503 -0.0273  0.0455  0.8650
  641MOL0     C86454  11.011   6.191   3.407 -0.7323 -0.6121  0.5344
  641MOL0     C86455  10.580   6.305   3.289  0.5691 -0.2066 -0.8110
  641MOL0     C86456  10.510   6.192   3.257 -0.7884  0.9982 -0.7311
  641MOL0     C86457  10.397   6.202   3.187  0.5337 -1.0820 -0.1145
  641MOL0     C86458  10.352   6.327   3.133  0.0267  1.4700 -0.2074
  641MOL0     O86459  10.228   6.327   3.064  0.1816 -0.6469 -0.0279
  641MOL0     C86460  10.229   6.287   2.930 -0.5088  0.1940 -0.5398
  641MOL0     C86461  10.223   6.411   2.837 -0.5015 -0.5616 -1.1035
  641MOL0     C86462  10.088   6.486   2.859 -0.7534  1.3010  0.2279
  641MOL0     C86463  10.059   6.617   2.778  0.0415  0.3398  0.6805
  641MOL0     C86464  10.083   6.585   2.638 -0.3906  0.4174 -0.2556
  641MOL0     C86465  10.092   6.555   2.517  0.0173  0.8552 -0.7741
  641MOL0     C86466  10.418   6.442   3.163  0.0186 -0.3584 -0.8593
  641MOL0     C86467  10.535   6.432   3.238 -0.0541  1.0194 -1.2793
  641MOL0     H86468  10.764   6.063   3.600  0.3270 -0.5248  0.5770
  641MOL0     H86469  10.940   6.066   3.775  1.0310  0.0582  0.9537
  641MOL0     H86470  11.132   6.084   3.892 -1.5117  1.3837  3.6922
  641MOL0     H86471  11.274   6.184   3.907  1.1811  0.4500 -1.0127
  641MOL0     H86472  11.017   6.327   3.832 -3.1103 -0.3633  2.3432
  641MOL0     H86473  11.059   6.308   4.000 -0.2814 -3.3942 -0.7082
  641MOL0     H86474  11.295   6.404   3.874 -0.0746 -1.1857 -2.3145
  641MOL0     H86475  11.163   6.489   3.796  4.9825  2.7066 -0.3164
  641MOL0     H86476  11.069   6.540   4.027  2.1605 -0.0899  1.7517
  641MOL0     H86477  11.229   6.487   4.091  0.1852 -0.5247  0.1121
  641MOL0     H86478  11.330   6.683   3.925 -0.6247  1.3009  0.5649
  641MOL0     H86479  11.158   6.721   3.917 -0.0840  0.1357 -0.8207
  641MOL0     H86480  11.270   6.854   4.078  0.7849  0.4528  0.1982
  641MOL0     H86481  11.180   6.763   4.190  0.7674  1.5616  2.0066
  641MOL0     H86482  11.369   6.596   4.224  0.2753  0.4049  0.2899
  641MOL0     H86483  11.462   6.704   4.115 -0.5496  1.6769 -0.6338
  641MOL0     H86484  11.338   6.767   4.381  0.9614 -0.9308  0.0660
  641MOL0     H86485  11.406   6.893   4.295 -0.1978 -0.1192  1.7623
  641MOL0     H86486  11.659   6.884   4.210 -1.2262  0.9386  0.9752
  641MOL0     H86487  11.921   6.846   4.246 -0.8520 -1.2254 -0.4530
  641MOL0     H86488  11.891   6.981   4.366 -1.4643  0.3576 -0.9757
  641MOL0     H86489  12.033   6.719   4.421  4.5267  0.1620  2.1423
  641MOL0     H86490  11.987   6.835   4.548  1.1015 -0.7037  1.5554
  641MOL0     H86491  12.150   6.933   4.308  1.7448  2.1751  0.0195
  641MOL0     H86492  12.224   6.809   4.417 -1.2814 -1.0667  0.7711
  641MOL0     H86493  12.296   7.045   4.478 -0.8873  1.8910 -1.0998
  641MOL0     H86494  12.204   6.981   4.617 -0.5481  1.3210  0.8289
  641MOL0     H86495  11.965   7.110   4.676 -1.8730  1.3812 -0.2185
  641MOL0     H86496  11.931   7.115   4.918 -1.2252  0.7463 -0.9099
  641MOL0     H86497  12.021   7.213   5.029  1.8906  1.4911  0.5095
  641MOL0     H86498  11.892   7.288   4.937 -0.1650  0.2701 -0.1291
  641MOL0     H86499  12.267   7.365   5.210  0.1526  0.4670  0.5376
  641MOL0     H86500  12.309   7.476   5.414  0.9684  2.4796  1.4672
  641MOL0     H86501  12.373   7.689   5.629 -1.1645  0.7606 -1.2634
  641MOL0     H86502  12.433   7.536   5.541 -1.5646  0.5021 -2.1297
  641MOL0     H86503  12.639   7.740   5.602  1.5409  0.1208  0.1754
  641MOL0     H86504  12.550   7.684   5.743  2.1575  0.9586  1.5559
  641MOL0     H86505  12.754   7.540   5.674 -0.2342  2.0127 -1.8430
  641MOL0     H86506  12.660   7.466   5.553 -0.8764 -1.8350  1.5837
  641MOL0     H86507  12.564   7.479   5.845  1.9323 -0.5684  1.7300
  641MOL0     H86508  12.486   7.419   5.701  0.1654  1.4817  0.2092
  641MOL0     H86509  12.665   7.250   5.678  2.2232 -0.2411  0.6942
  641MOL0     H86510  12.558   7.225   5.816 -1.6809  2.4693 -0.5128
  641MOL0     H86511  12.825   7.365   5.834 -0.1543 -0.1661 -0.6610
  641MOL0     H86512  12.714   7.338   5.965  0.2770  2.4696 -0.8549
  641MOL0     H86513  12.878   7.135   5.785 -0.0009  0.9894 -0.0744
  641MOL0     H86514  12.740   7.081   5.888  2.0203 -1.3423  1.5524
  641MOL0     H86515  12.970   7.055   5.998 -1.2475 -0.4578 -5.3354
  641MOL0     H86516  12.832   7.140   6.084 -1.5837 -2.8799 -0.4991
  641MOL0     H86517  12.500   7.806   5.202  1.8082 -1.3463  1.0130
  641MOL0     H86518  12.443   7.699   4.996  2.7207  0.7587  1.5731
  641MOL0     H86519  12.309   7.464   4.676  0.4746  0.3948  0.3717
  641MOL0     H86520  12.273   7.315   4.486  0.5482  0.0306  0.0661
  641MOL0     H86521  11.197   6.258   3.475 -0.3222  0.1091  0.0900
  641MOL0     H86522  11.018   6.239   3.310 -0.7338  1.0002  1.3061
  641MOL0     H86523  10.539   6.096   3.299 -3.7964 -0.3145 -1.4442
  641MOL0     H86524  10.340   6.112   3.166  1.2763 -1.1448 -2.1027
  641MOL0     H86525  10.321   6.231   2.908 -1.8108 -1.6672 -1.5959
  641MOL0     H86526  10.141   6.226   2.905  0.4344 -0.2571 -3.0157
  641MOL0     H86527  10.237   6.369   2.736 -0.2871 -1.9598 -0.5170
  641MOL0     H86528  10.317   6.461   2.862 -2.1598  3.0144 -1.3182
  641MOL0     H86529  10.054   6.508   2.961 -0.7876  0.9137  0.3024
  641MOL0     H86530  10.021   6.404   2.830  0.9891  0.5588 -1.9599
  641MOL0     H86531  10.121   6.701   2.810 -2.8180  2.2154  1.6432
  641MOL0     H86532   9.953   6.636   2.800  0.1395 -1.4041  3.0503
  641MOL0     H86533  10.100   6.515   2.418 -2.2481 -0.1776 -0.6100
  641MOL0     H86534  10.372   6.536   3.135  2.3139  0.4591 -2.1887
  641MOL0     H86535  10.585   6.522   3.275 -1.2139 -0.0730  3.7365
  642MOL0     O86536   1.115   3.782   5.838 -0.9874  0.3421  0.2296
  642MOL0     C86537   1.131   3.695   5.924 -0.0158 -0.6639 -0.4433
  642MOL0     O86538   1.105   3.711   6.056  0.8073  0.1734 -0.2154
  642MOL0     C86539   1.074   3.827   6.123 -0.2236 -0.0603  0.3824
  642MOL0     C86540   1.091   3.963   6.081 -0.0728  0.1139  0.1769
  642MOL0     C86541   1.057   4.067   6.174  0.5896  0.7900 -0.1574
  642MOL0     C86542   1.004   4.036   6.305  0.5777 -0.3279  0.0821
  642MOL0     O86543   0.976   4.126   6.409  0.0340 -0.8851  0.4733
  642MOL0     C86544   0.888   4.240   6.368  0.0113  0.7016 -0.0606
  642MOL0     C86545   0.872   4.342   6.482 -0.0984  0.7886 -0.3225
  642MOL0     C86546   0.810   4.273   6.606  0.4949  0.7584  0.3076
  642MOL0     C86547   0.870   4.306   6.739 -0.2662  0.0439  0.3622
  642MOL0     C86548   0.806   4.212   6.846 -0.0940 -0.5778  0.3958
  642MOL0     C86549   0.859   4.223   6.998  0.2001  0.4484  0.3826
  642MOL0     C86550   0.876   4.368   7.050  0.4344 -0.3722  0.3874
  642MOL0     C86551   0.893   4.361   7.196  0.4400 -0.6446 -0.2246
  642MOL0     N86552   0.763   4.342   7.265  0.2221  0.0270  0.4788
  642MOL0     C86553   0.722   4.245   7.350 -0.5531 -0.6535  0.6467
  642MOL0     C86554   0.606   4.282   7.403 -0.6115  0.8464  0.2125
  642MOL0     C86555   0.539   4.198   7.507 -1.3581 -0.2915 -0.3742
  642MOL0     C86556   0.584   4.246   7.657 -0.4105 -0.3136  0.4119
  642MOL0     C86557   0.547   4.136   7.753  1.2169  0.1066 -0.4002
  642MOL0     C86558   0.394   4.109   7.762  0.3218 -0.9455  0.2034
  642MOL0     O86559   0.327   4.218   7.819 -0.0776  1.1133  0.1926
  642MOL0     C86560   0.194   4.226   7.788 -0.4225 -0.1618  0.4643
  642MOL0     C86561   0.151   4.320   7.700  0.5265 -0.3534 -0.5387
  642MOL0     C86562   0.010   4.337   7.682  0.5920  0.1659 -0.9897
  642MOL0     C86563  -0.033   4.465   7.608 -0.1261 -0.0010 -0.4528
  642MOL0     C86564  -0.075   4.253   7.750  0.5722  0.2556 -0.3790
  642MOL0     C86565  -0.218   4.274   7.752  0.8662  0.4856  0.3846
  642MOL0     O86566  -0.296   4.232   7.863  0.0605 -0.3208  0.5192
  642MOL0     C86567  -0.421   4.280   7.881  0.1991 -0.0260 -0.0393
  642MOL0     C86568  -0.494   4.236   7.997  0.7629  0.2436 -0.5665
  642MOL0     C86569  -0.618   4.290   8.021  1.0574  0.7663  0.5105
  642MOL0     C86570  -0.673   4.376   7.928 -0.5689 -0.5777 -0.5238
  642MOL0     O86571  -0.796   4.419   7.942  0.2823 -0.4835 -0.1962
  642MOL0     C86572  -0.810   4.558   7.997 -0.1117  0.1812 -0.1900
  642MOL0     C86573  -0.957   4.577   8.041  0.0768  1.1472 -0.1266
  642MOL0     C86574  -0.974   4.708   8.127 -0.3368  0.2447 -0.8084
  642MOL0     C86575  -1.118   4.751   8.138  0.2881  0.4374 -0.5516
  642MOL0     C86576  -1.149   4.893   8.091  0.2684  0.6400 -0.3032
  642MOL0     C86577  -1.277   4.952   8.144  0.5756  0.0666 -0.2165
  642MOL0     C86578  -1.402   4.893   8.075 -0.0837  0.4730  0.1754
  642MOL0     C86579  -1.406   4.929   7.921 -0.0616 -0.7507  0.6283
  642MOL0    Cl86580  -1.582   4.931   7.861  0.1752 -0.1800  0.5204
  642MOL0     C86581  -0.594   4.429   7.825  0.4073 -0.0308 -0.2828
  642MOL0     C86582  -0.477   4.371   7.796  0.8434 -0.8654  0.4526
  642MOL0     O86583  -0.259   4.259   7.634 -0.3235 -0.5568  0.6522
  642MOL0     C86584  -0.025   4.161   7.845  0.0835  0.8768  0.2841
  642MOL0     C86585   0.106   4.151   7.863 -0.3644  0.2715 -0.0219
  642MOL0     N86586   0.567   4.400   7.345 -0.4458  0.2612  0.5582
  642MOL0     N86587   0.669   4.439   7.280  0.3977  1.0436  0.4751
  642MOL0     C86588   0.985   3.908   6.343 -0.5677 -0.0441  0.1042
  642MOL0     C86589   1.024   3.803   6.254 -0.4340  0.3085  0.0757
  642MOL0     C86590   1.194   3.568   5.890  0.2472  0.9702 -0.1129
  642MOL0     C86591   1.244   3.539   5.760  1.1876  0.7640  0.6385
  642MOL0     C86592   1.298   3.416   5.725 -0.5368  0.8132 -0.5262
  642MOL0     C86593   1.322   3.324   5.818  0.6195  0.4852 -0.1928
  642MOL0     O86594   1.399   3.213   5.783 -0.4334  0.5059 -0.4557
  642MOL0     C86595   1.399   3.096   5.877  0.2021  0.3615 -0.1429
  642MOL0     C86596   1.470   2.972   5.811  0.3052  0.3636  0.1068
  642MOL0     C86597   1.437   2.948   5.661 -0.7343 -0.9830 -0.4306
  642MOL0     C86598   1.517   2.812   5.629 -0.0215  0.6108  0.9266
  642MOL0     C86599   1.563   2.841   5.491  0.5803 -0.1391 -0.6504
  642MOL0     C86600   1.591   2.845   5.375  0.3387 -0.2217  0.3966
  642MOL0     C86601   1.289   3.355   5.954 -0.8369  0.7149 -0.5035
  642MOL0     C86602   1.212   3.468   5.988  0.7201 -0.0573 -0.9936
  642MOL0     H86603   1.118   3.999   5.982  2.3878 -0.3018  0.6320
  642MOL0     H86604   1.065   4.173   6.154  0.2262  1.8070  4.1105
  642MOL0     H86605   0.929   4.295   6.283 -0.6959  0.1148 -0.8154
  642MOL0     H86606   0.786   4.201   6.352 -0.4782  1.2862  1.4376
  642MOL0     H86607   0.969   4.386   6.506 -0.6352  1.6727  0.2619
  642MOL0     H86608   0.798   4.416   6.451  1.1878  1.1616 -2.6990
  642MOL0     H86609   0.704   4.301   6.607 -0.8740 -3.4642 -1.4853
  642MOL0     H86610   0.816   4.164   6.606  0.6918  0.7381  2.1343
  642MOL0     H86611   0.976   4.280   6.750  0.0760  0.7492 -1.0686
  642MOL0     H86612   0.856   4.413   6.757 -2.4073 -0.0669 -0.3289
  642MOL0     H86613   0.701   4.240   6.841 -0.7308 -2.3873  2.2476
  642MOL0     H86614   0.795   4.106   6.821  0.1997 -0.8328  1.2812
  642MOL0     H86615   0.791   4.166   7.061  3.3083 -1.4899  2.2539
  642MOL0     H86616   0.957   4.175   7.009  0.1598  0.4924  0.9895
  642MOL0     H86617   0.963   4.414   7.002 -0.2231 -0.5071 -1.0025
  642MOL0     H86618   0.792   4.431   7.021  0.4838 -0.6132 -0.3001
  642MOL0     H86619   0.925   4.455   7.242  1.4456 -0.9996 -0.1835
  642MOL0     H86620   0.952   4.272   7.220 -2.2955 -2.6902 -0.6779
  642MOL0     H86621   0.777   4.155   7.376  2.0926  0.6460 -0.0607
  642MOL0     H86622   0.432   4.210   7.490 -1.3537  1.1961  0.4041
  642MOL0     H86623   0.560   4.093   7.487  2.5948  0.1399  0.5216
  642MOL0     H86624   0.534   4.335   7.695 -1.8710 -0.8567 -0.1626
  642MOL0     H86625   0.691   4.264   7.650 -0.7875  1.8172 -0.8915
  642MOL0     H86626   0.602   4.142   7.848  0.9643  0.0097 -0.2471
  642MOL0     H86627   0.585   4.042   7.712 -0.3731 -1.5152  1.6076
  642MOL0     H86628   0.378   4.029   7.835 -2.4723  0.1864  0.9337
  642MOL0     H86629   0.357   4.091   7.660 -1.6386  0.6679  0.5731
  642MOL0     H86630   0.219   4.389   7.653 -1.8790  3.1035  0.6034
  642MOL0     H86631  -0.090   4.522   7.681  0.3661 -0.4456  0.2942
  642MOL0     H86632   0.054   4.523   7.574 -0.3290 -0.6020 -2.0766
  642MOL0     H86633  -0.100   4.447   7.524 -0.0268 -3.5387  0.0869
  642MOL0     H86634  -0.454   4.166   8.069  1.0982  0.1674 -0.8216
  642MOL0     H86635  -0.680   4.241   8.095  0.2622 -1.0584 -1.2866
  642MOL0     H86636  -0.746   4.562   8.086  1.8563  1.4980 -1.5747
  642MOL0     H86637  -0.780   4.640   7.931 -0.4995 -0.7464 -1.5493
  642MOL0     H86638  -1.014   4.582   7.948  2.3131  1.8090 -1.5539
  642MOL0     H86639  -0.980   4.487   8.099  0.4576 -0.5140 -2.4112
  642MOL0     H86640  -0.916   4.791   8.086  0.7004 -0.9328 -1.7804
  642MOL0     H86641  -0.935   4.691   8.228 -0.1360 -0.8889 -1.0669
  642MOL0     H86642  -1.185   4.682   8.086  2.1899  0.1339 -2.7384
  642MOL0     H86643  -1.135   4.754   8.246  0.3700  1.7479 -0.5584
  642MOL0     H86644  -1.148   4.899   7.981  0.8857  1.8481 -0.2423
  642MOL0     H86645  -1.072   4.964   8.121  1.0344 -0.3404  0.1191
  642MOL0     H86646  -1.273   4.950   8.253  0.4409  1.5471 -0.1738
  642MOL0     H86647  -1.274   5.059   8.123  0.3770 -0.1176 -1.2373
  642MOL0     H86648  -1.491   4.923   8.131 -1.2321 -1.9297 -0.2342
  642MOL0     H86649  -1.396   4.786   8.093 -1.1202  0.6299  1.7029
  642MOL0     H86650  -1.342   4.857   7.868  1.4098  0.3450  0.8571
  642MOL0     H86651  -1.364   5.026   7.894 -1.3239 -0.8856 -2.1842
  642MOL0     H86652  -0.651   4.495   7.760 -3.5888  0.6108  3.4182
  642MOL0     H86653  -0.432   4.394   7.700 -1.2976  0.0570 -0.4119
  642MOL0     H86654  -0.090   4.091   7.897 -1.3050 -0.2988 -2.7293
  642MOL0     H86655   0.145   4.066   7.919 -1.3192 -1.1795 -1.4467
  642MOL0     H86656   0.953   3.898   6.446  0.9972  2.8718  1.0063
  642MOL0     H86657   1.025   3.703   6.295  1.0931  0.3187  0.1230
  642MOL0     H86658   1.219   3.600   5.674 -3.9505 -0.6246  0.7627
  642MOL0     H86659   1.336   3.401   5.624 -0.9408 -1.5542 -0.3868
  642MOL0     H86660   1.454   3.128   5.966 -0.0535 -0.9181  0.4934
  642MOL0     H86661   1.296   3.081   5.907 -0.3187  2.2309 -0.8433
  642MOL0     H86662   1.436   2.882   5.862  1.5437  0.0119  0.3543
  642MOL0     H86663   1.579   2.974   5.822  0.3022  1.3230  0.0410
  642MOL0     H86664   1.455   3.037   5.599  0.5555  0.7399  2.2022
  642MOL0     H86665   1.329   2.932   5.654 -0.4722 -3.1121 -0.1997
  642MOL0     H86666   1.442   2.732   5.630 -0.9526  1.4331  2.3963
  642MOL0     H86667   1.597   2.787   5.699  2.9765  3.2367 -1.2993
  642MOL0     H86668   1.619   2.858   5.272  2.2385 -2.3700  0.5810
  642MOL0     H86669   1.326   3.306   6.044  2.8700  1.4946 -1.4331
  642MOL0     H86670   1.191   3.488   6.093  1.6019 -1.5634 -0.4865
  643MOL0     O86671  10.298   4.068   0.368  0.1557 -1.0275 -0.6038
  643MOL0     C86672  10.183   4.027   0.386 -0.5729  0.5497 -0.7588
  643MOL0     O86673  10.106   3.950   0.298 -1.0119 -0.3544 -0.2438
  643MOL0     C86674  10.180   3.927   0.185 -0.3693 -0.1195  0.2189
  643MOL0     C86675  10.135   3.966   0.057  0.1715 -0.7900  0.5484
  643MOL0     C86676  10.185   3.902  -0.065  0.0093  0.2184 -0.5074
  643MOL0     C86677  10.298   3.818  -0.053 -1.3264  0.7533 -0.1151
  643MOL0     O86678  10.331   3.750  -0.171  0.5460  0.3716  0.4838
  643MOL0     C86679  10.470   3.703  -0.181 -0.5682  0.3750  0.4280
  643MOL0     C86680  10.510   3.693  -0.329  0.8107  0.1401 -0.6330
  643MOL0     C86681  10.426   3.592  -0.408  0.7285  0.1351 -0.4801
  643MOL0     C86682  10.452   3.626  -0.556 -0.5314  0.4779 -0.9463
  643MOL0     C86683  10.381   3.519  -0.645 -0.5681 -0.1124  0.3453
  643MOL0     C86684  10.387   3.566  -0.791 -0.0832  0.0341 -0.7817
  643MOL0     C86685  10.349   3.459  -0.887  0.9054  0.1096 -0.3684
  643MOL0     C86686  10.317   3.489  -1.034 -0.3330 -0.5275 -1.4382
  643MOL0     N86687  10.176   3.516  -1.038 -0.3118 -0.3728  0.1913
  643MOL0     C86688  10.096   3.606  -0.975 -0.2312  0.5702  0.8871
  643MOL0     C86689   9.970   3.565  -0.998  0.2538  0.5061  0.9829
  643MOL0     C86690   9.842   3.635  -0.967  0.8018 -0.3412 -0.2297
  643MOL0     C86691   9.777   3.718  -1.083 -0.7009 -0.0283 -0.2265
  643MOL0     C86692   9.839   3.859  -1.093  0.7933  0.7940 -0.4834
  643MOL0     C86693   9.771   3.960  -1.184 -0.4423 -0.2405  1.2326
  643MOL0     O86694   9.633   3.984  -1.178  0.0358  1.2525 -0.1828
  643MOL0     C86695   9.579   4.045  -1.290 -0.5720 -0.8407  0.0585
  643MOL0     C86696   9.506   3.974  -1.380  0.2728 -1.2263 -0.1827
  643MOL0     C86697   9.463   4.033  -1.505  0.3375  0.8651 -0.3340
  643MOL0     C86698   9.374   3.946  -1.587  0.8145 -0.0610  0.0327
  643MOL0     C86699   9.501   4.161  -1.543  0.0041  0.8825  0.8056
  643MOL0     C86700   9.453   4.227  -1.675 -0.1670 -1.1047  0.5463
  643MOL0     O86701   9.469   4.358  -1.685 -0.5915 -0.8503 -0.0730
  643MOL0     C86702   9.406   4.448  -1.764  0.5593 -0.1402  0.2231
  643MOL0     C86703   9.425   4.587  -1.728  0.3573  0.4140  0.5194
  643MOL0     C86704   9.381   4.686  -1.820  0.4831  0.4506 -0.3839
  643MOL0     C86705   9.311   4.656  -1.938  0.4813 -0.0133 -0.1549
  643MOL0     O86706   9.266   4.749  -2.030  0.1910 -0.1122  0.1211
  643MOL0     C86707   9.293   4.887  -2.018 -0.0574 -0.5353 -1.1830
  643MOL0     C86708   9.207   4.971  -2.111  0.5596 -0.1625  0.2007
  643MOL0     C86709   9.256   5.115  -2.124 -0.0629 -0.9692  0.1485
  643MOL0     C86710   9.377   5.123  -2.207  0.3088 -1.0543 -0.4925
  643MOL0     C86711   9.426   5.266  -2.228  0.5362 -0.7468 -0.0313
  643MOL0     C86712   9.492   5.325  -2.104 -0.2025 -1.1065  0.0894
  643MOL0     C86713   9.506   5.476  -2.118 -0.2232 -0.5939 -0.7414
  643MOL0     C86714   9.607   5.532  -2.218  0.4037 -0.4420 -0.4677
  643MOL0    Cl86715   9.699   5.680  -2.159 -0.3037 -0.4487 -0.1126
  643MOL0     C86716   9.291   4.518  -1.966  0.2028 -0.5782 -0.5018
  643MOL0     C86717   9.331   4.420  -1.879 -1.2128 -0.4692 -0.1735
  643MOL0     O86718   9.388   4.158  -1.752  0.3691 -0.2735 -1.0645
  643MOL0     C86719   9.583   4.235  -1.450 -0.9287  0.9321 -0.1920
  643MOL0     C86720   9.626   4.172  -1.325  0.1988  0.7744 -0.1700
  643MOL0     N86721   9.981   3.445  -1.072  0.3668  0.2375 -0.1003
  643MOL0     N86722  10.097   3.428  -1.110 -0.3260 -0.8421 -0.1635
  643MOL0     C86723  10.358   3.799   0.065  0.3889  0.4105 -0.9898
  643MOL0     C86724  10.296   3.850   0.177  0.0997  0.0466 -0.0531
  643MOL0     C86725  10.106   4.066   0.502 -0.4675  0.5809  0.6337
  643MOL0     C86726   9.968   4.087   0.489 -1.1791  1.1330  0.6940
  643MOL0     C86727   9.885   4.101   0.598  0.8228 -0.1549  0.0922
  643MOL0     C86728   9.949   4.143   0.717  0.5030  0.5539  0.4406
  643MOL0     O86729   9.890   4.169   0.839  0.5424  0.4686 -0.1131
  643MOL0     C86730   9.747   4.138   0.849  0.2201  0.6015  0.4505
  643MOL0     C86731   9.682   4.139   0.984 -0.3856  0.0104  0.3068
  643MOL0     C86732   9.680   4.280   1.043 -0.3694  0.5807 -0.0904
  643MOL0     C86733   9.541   4.314   1.107 -0.0694  0.5905  0.5988
  643MOL0     C86734   9.508   4.206   1.200 -0.3499  0.1346 -0.9685
  643MOL0     C86735   9.488   4.134   1.296 -0.5004 -0.8042  0.0034
  643MOL0     C86736  10.088   4.128   0.731  0.3792  0.3218  0.5664
  643MOL0     C86737  10.157   4.076   0.629  0.3115  0.0431 -0.4334
  643MOL0     H86738  10.053   4.037   0.055  0.2862 -0.6833 -1.1806
  643MOL0     H86739  10.126   3.910  -0.155 -0.5307 -0.1977 -0.1977
  643MOL0     H86740  10.545   3.774  -0.145  0.8957  0.1438 -1.9546
  643MOL0     H86741  10.493   3.605  -0.139 -1.1401  1.1895  2.8536
  643MOL0     H86742  10.497   3.790  -0.378 -0.3425 -0.4440 -1.5362
  643MOL0     H86743  10.616   3.667  -0.325  0.7175 -0.0674  1.4456
  643MOL0     H86744  10.456   3.489  -0.391 -1.3296  0.0269  3.8754
  643MOL0     H86745  10.322   3.614  -0.382  1.4832  0.4231  2.8383
  643MOL0     H86746  10.411   3.726  -0.569 -2.1242  0.1175  0.8688
  643MOL0     H86747  10.561   3.626  -0.565 -0.6295 -2.5675 -4.0974
  643MOL0     H86748  10.423   3.420  -0.629  0.9622  0.7813  2.3311
  643MOL0     H86749  10.273   3.522  -0.626 -1.1037  2.2158 -2.3757
  643MOL0     H86750  10.332   3.658  -0.811  2.5571  2.2440  1.3431
  643MOL0     H86751  10.491   3.593  -0.814 -0.3453  1.4470 -0.4233
  643MOL0     H86752  10.435   3.391  -0.896  2.8505  2.3218  0.2417
  643MOL0     H86753  10.272   3.401  -0.835  1.1303  1.0501  1.1003
  643MOL0     H86754  10.345   3.404  -1.096 -0.8768 -1.1091 -0.9004
  643MOL0     H86755  10.353   3.584  -1.074 -4.9362  1.4561 -1.4596
  643MOL0     H86756  10.129   3.688  -0.913 -2.4469 -0.8672  4.2792
  643MOL0     H86757   9.771   3.563  -0.925 -0.4173  0.9349 -0.0385
  643MOL0     H86758   9.853   3.703  -0.883 -0.0619 -1.4749  0.8388
  643MOL0     H86759   9.670   3.737  -1.087 -0.7573 -0.2106  0.3891
  643MOL0     H86760   9.802   3.662  -1.174 -2.3621 -2.2907  0.6063
  643MOL0     H86761   9.943   3.838  -1.119  0.8589 -2.3169  1.7265
  643MOL0     H86762   9.850   3.903  -0.993 -1.3580  2.2402 -0.8191
  643MOL0     H86763   9.805   3.941  -1.286  0.8679 -1.8742  1.9281
  643MOL0     H86764   9.818   4.057  -1.166 -2.4107  1.1579 -0.6034
  643MOL0     H86765   9.484   3.872  -1.353 -0.5220 -1.2935 -1.0447
  643MOL0     H86766   9.428   3.918  -1.678 -0.0172 -0.3227 -0.3961
  643MOL0     H86767   9.332   3.857  -1.539 -3.0633  1.9452  0.7983
  643MOL0     H86768   9.280   4.001  -1.604 -1.0686 -1.6306  4.1406
  643MOL0     H86769   9.475   4.605  -1.633  1.3400 -0.2736  0.1501
  643MOL0     H86770   9.407   4.790  -1.806 -0.6520  0.9369 -1.7054
  643MOL0     H86771   9.271   4.914  -1.915 -1.3528 -1.6471 -1.1317
  643MOL0     H86772   9.401   4.895  -2.034 -0.1265  2.0314 -0.7166
  643MOL0     H86773   9.209   4.932  -2.213 -3.3566  0.9827 -0.4697
  643MOL0     H86774   9.102   4.967  -2.082 -0.3408 -0.0013 -2.7515
  643MOL0     H86775   9.288   5.162  -2.030  0.9806 -0.6818 -0.3355
  643MOL0     H86776   9.174   5.172  -2.168 -0.4107 -1.5841 -0.0088
  643MOL0     H86777   9.459   5.064  -2.164  2.0026  1.0133 -0.7158
  643MOL0     H86778   9.352   5.085  -2.306  0.4984 -1.2187 -0.4783
  643MOL0     H86779   9.341   5.329  -2.255  2.2179  2.4092  1.5023
  643MOL0     H86780   9.489   5.259  -2.317  1.2347 -0.9664  0.4676
  643MOL0     H86781   9.437   5.304  -2.012  0.3333  1.9692  1.2282
  643MOL0     H86782   9.589   5.274  -2.102  2.1865  3.0427  0.3722
  643MOL0     H86783   9.539   5.517  -2.022 -0.4351 -0.1413 -0.8572
  643MOL0     H86784   9.416   5.528  -2.153  1.2189  1.2332 -1.9085
  643MOL0     H86785   9.556   5.558  -2.311 -1.8222 -0.6130  0.6178
  643MOL0     H86786   9.670   5.444  -2.235 -0.4035 -0.5083 -3.7736
  643MOL0     H86787   9.232   4.487  -2.051 -1.5827 -0.2231  0.5449
  643MOL0     H86788   9.304   4.316  -1.894 -0.4292 -0.4465 -2.0024
  643MOL0     H86789   9.618   4.333  -1.481 -1.1035  0.4442 -2.1262
  643MOL0     H86790   9.685   4.228  -1.253 -0.3479 -3.0065  3.6220
  643MOL0     H86791  10.442   3.730   0.072 -0.0997 -0.0213  2.6566
  643MOL0     H86792  10.352   3.835   0.269  0.6393 -2.2748 -0.6991
  643MOL0     H86793   9.922   4.057   0.396 -0.9224 -0.8094  1.1563
  643MOL0     H86794   9.777   4.102   0.592  0.6737 -1.7929  1.5777
  643MOL0     H86795   9.700   4.207   0.779  0.1849  2.4038  2.1625
  643MOL0     H86796   9.745   4.034   0.815  2.9306  0.0546  1.6457
  643MOL0     H86797   9.740   4.077   1.053 -0.6808  3.8088  4.4138
  643MOL0     H86798   9.582   4.103   0.959  0.5279 -0.2041 -3.7491
  643MOL0     H86799   9.702   4.348   0.960 -1.8241  0.1107 -0.9091
  643MOL0     H86800   9.764   4.275   1.112 -2.1484 -1.8483  2.0791
  643MOL0     H86801   9.469   4.325   1.025  0.4816 -0.0192  0.0286
  643MOL0     H86802   9.561   4.408   1.159  2.5209  0.0240  0.7597
  643MOL0     H86803   9.468   4.067   1.378  1.8320  0.0076  1.3342
  643MOL0     H86804  10.146   4.143   0.821  1.6675 -1.2149  0.0284
  643MOL0     H86805  10.261   4.053   0.649  1.6183  3.6045 -2.1946
  644MOL0     O86806   7.004   3.456   9.755  0.8207  0.0718 -0.1759
  644MOL0     C86807   6.974   3.577   9.785  0.2399  0.2911  0.7586
  644MOL0     O86808   6.964   3.680   9.693  0.3234  0.7775 -0.0567
  644MOL0     C86809   7.019   3.662   9.569  0.7469 -0.1944 -0.0787
  644MOL0     C86810   6.937   3.700   9.469 -0.3432  0.6579 -0.1771
  644MOL0     C86811   6.991   3.712   9.338  0.5513  0.3768 -0.1117
  644MOL0     C86812   7.127   3.684   9.309  0.6331  0.2736 -0.1909
  644MOL0     O86813   7.185   3.678   9.180 -0.0201  0.0653  0.2156
  644MOL0     C86814   7.117   3.704   9.059 -1.1980 -0.1422 -0.6272
  644MOL0     C86815   7.101   3.850   9.022 -0.2282 -0.4142 -0.2236
  644MOL0     C86816   7.226   3.934   9.041  0.2343  0.1104  0.2386
  644MOL0     C86817   7.207   4.085   9.034  0.8884  0.3797 -0.2496
  644MOL0     C86818   7.129   4.143   9.148  0.1540  0.0830 -0.0028
  644MOL0     C86819   7.232   4.186   9.251  0.5218 -0.7075 -0.2847
  644MOL0     C86820   7.185   4.200   9.391 -0.3136  1.2760  0.4475
  644MOL0     C86821   7.170   4.059   9.463  0.6524  0.3321 -0.0372
  644MOL0     N86822   7.148   4.080   9.612 -0.3660  1.4687 -0.0714
  644MOL0     C86823   7.252   4.074   9.703  0.1194 -0.8653 -0.1096
  644MOL0     C86824   7.190   4.074   9.819  0.6130  0.1848 -0.3175
  644MOL0     C86825   7.240   4.054   9.963  0.0989 -0.2862  0.8116
  644MOL0     C86826   7.261   4.171  10.050  0.6261  0.1996  0.0522
  644MOL0     C86827   7.362   4.273   9.982 -0.2135 -0.3705 -0.2192
  644MOL0     C86828   7.436   4.355  10.098  0.6486  0.7811 -0.6248
  644MOL0     O86829   7.527   4.446  10.042  0.0217  0.4147  0.1399
  644MOL0     C86830   7.585   4.537  10.124 -0.1756  0.8444  0.3111
  644MOL0     C86831   7.627   4.653  10.069  0.3634  0.2558  0.1256
  644MOL0     C86832   7.714   4.736  10.141 -0.0162 -0.1262 -0.4621
  644MOL0     C86833   7.729   4.878  10.085  0.3376  0.0523  0.0686
  644MOL0     C86834   7.779   4.684  10.262  0.6133  0.3081 -0.1204
  644MOL0     C86835   7.894   4.751  10.321 -0.0782 -0.4976 -0.1362
  644MOL0     O86836   7.914   4.885  10.296 -0.8449 -0.6306  0.0634
  644MOL0     C86837   8.034   4.945  10.311  0.4294 -0.7093 -0.9116
  644MOL0     C86838   8.097   4.948  10.438 -0.8351 -0.1735 -0.6357
  644MOL0     C86839   8.200   5.038  10.474 -0.7364 -0.6367 -0.5759
  644MOL0     C86840   8.239   5.145  10.389  0.1583  0.8914  0.0311
  644MOL0     O86841   8.329   5.245  10.413  0.5872 -0.1964  0.2717
  644MOL0     C86842   8.344   5.288  10.547  0.0966  0.2717  0.1683
  644MOL0     C86843   8.454   5.397  10.541  0.0784 -0.3423  0.7440
  644MOL0     C86844   8.416   5.527  10.606 -0.3112  0.7784  0.2029
  644MOL0     C86845   8.397   5.519  10.760  0.4887 -0.0585 -0.2642
  644MOL0     C86846   8.360   5.651  10.814  0.5860 -0.0199  0.2239
  644MOL0     C86847   8.312   5.608  10.955 -0.3818 -0.3507 -0.3157
  644MOL0     C86848   8.290   5.737  11.041 -0.4956 -1.1962 -0.1414
  644MOL0     C86849   8.242   5.707  11.180 -0.3512  0.4222 -0.3799
  644MOL0    Cl86850   8.170   5.852  11.263 -0.0214 -0.2836  0.1520
  644MOL0     C86851   8.185   5.132  10.255 -1.2439 -0.6929 -0.0179
  644MOL0     C86852   8.080   5.039  10.225 -0.0704 -0.5100  0.6388
  644MOL0     O86853   7.967   4.678  10.389 -0.5982  0.8781 -0.6104
  644MOL0     C86854   7.737   4.560  10.312 -0.7928  0.2024 -0.0903
  644MOL0     C86855   7.640   4.494  10.244  0.2119  0.5759  0.5026
  644MOL0     N86856   7.054   4.086   9.804  0.3058  0.2167 -0.4490
  644MOL0     N86857   7.025   4.084   9.674 -0.3739  0.6132 -0.3216
  644MOL0     C86858   7.211   3.660   9.419  0.3428 -0.5717  1.3910
  644MOL0     C86859   7.152   3.635   9.544 -0.6491 -0.1596  0.0866
  644MOL0     C86860   6.930   3.621   9.925  0.7584  0.8054  0.6309
  644MOL0     C86861   6.935   3.524  10.024  1.1676  0.7401  0.9562
  644MOL0     C86862   6.909   3.558  10.155  0.0389 -0.7715  0.5096
  644MOL0     C86863   6.891   3.696  10.189  0.7320  0.1214 -0.0221
  644MOL0     O86864   6.882   3.737  10.324  1.0767 -0.1465 -0.1820
  644MOL0     C86865   6.811   3.646  10.419  0.0587 -0.9192  0.6236
  644MOL0     C86866   6.878   3.635  10.558  0.5750 -0.1101 -0.1278
  644MOL0     C86867   6.854   3.778  10.630  0.1592  0.4384 -0.0330
  644MOL0     C86868   6.922   3.785  10.772  0.1918 -0.3380  0.6214
  644MOL0     C86869   7.069   3.775  10.762 -0.5126  0.4800  0.5255
  644MOL0     C86870   7.186   3.746  10.765  0.5505 -0.0060  0.8443
  644MOL0     C86871   6.878   3.792  10.088  0.6579  0.5012  0.4911
  644MOL0     C86872   6.900   3.756   9.952 -0.3689  0.5243 -0.1443
  644MOL0     H86873   6.832   3.722   9.485 -0.1700  5.3398 -3.6313
  644MOL0     H86874   6.920   3.735   9.259  1.0813  0.6558 -0.5165
  644MOL0     H86875   7.179   3.669   8.976 -1.5993  3.8041 -2.8302
  644MOL0     H86876   7.016   3.661   9.057 -1.7842  1.2006 -0.8487
  644MOL0     H86877   7.065   3.858   8.919  1.4013 -0.1839 -0.7965
  644MOL0     H86878   7.033   3.894   9.096  2.7895  0.2163  2.4238
  644MOL0     H86879   7.269   3.912   9.139  3.6789 -0.8914 -1.3402
  644MOL0     H86880   7.306   3.907   8.970 -1.1797  0.3853 -1.5265
  644MOL0     H86881   7.299   4.143   9.022 -1.0912  3.9408  0.4526
  644MOL0     H86882   7.137   4.099   8.951 -0.5786  0.6090  0.9781
  644MOL0     H86883   7.072   4.225   9.104 -1.1355  1.8121  4.3525
  644MOL0     H86884   7.060   4.076   9.200  1.2463 -1.7217 -0.7610
  644MOL0     H86885   7.314   4.114   9.253  1.2458  0.1071  1.3994
  644MOL0     H86886   7.276   4.282   9.224 -0.5381 -0.0591  0.1991
  644MOL0     H86887   7.255   4.271   9.438  2.4618 -1.9115  1.5170
  644MOL0     H86888   7.085   4.241   9.408  0.0361  0.4397  7.5016
  644MOL0     H86889   7.253   3.992   9.438  0.7438  0.6324 -0.5675
  644MOL0     H86890   7.084   4.002   9.426 -1.2419  1.6308  2.0977
  644MOL0     H86891   7.357   4.071   9.676  0.9739  4.4121  1.3697
  644MOL0     H86892   7.172   3.986  10.015 -2.0005  1.3196  0.3243
  644MOL0     H86893   7.338   4.007   9.965  1.5545  2.5048 -0.0929
  644MOL0     H86894   7.305   4.149  10.147  0.9941  0.8672  0.0407
  644MOL0     H86895   7.165   4.218  10.075  0.2227 -1.6760  2.3614
  644MOL0     H86896   7.315   4.351   9.921 -0.5843 -0.4385 -0.0241
  644MOL0     H86897   7.445   4.232   9.923 -0.4444 -1.5315  0.2427
  644MOL0     H86898   7.486   4.306  10.182 -2.1458 -0.5769  0.3805
  644MOL0     H86899   7.357   4.414  10.146 -2.1425 -1.6619 -1.9062
  644MOL0     H86900   7.578   4.690   9.979 -2.3942 -0.1298  1.3813
  644MOL0     H86901   7.691   4.945  10.162  0.1802 -1.6873  1.5829
  644MOL0     H86902   7.836   4.889  10.061 -0.2154  1.0995 -2.1580
  644MOL0     H86903   7.673   4.880   9.991 -1.3169 -1.8041  0.9312
  644MOL0     H86904   8.051   4.896  10.521 -2.1158  2.1877  0.2422
  644MOL0     H86905   8.246   5.031  10.572  0.2068 -1.8648 -1.0747
  644MOL0     H86906   8.245   5.309  10.588 -0.4076 -0.6309 -0.5555
  644MOL0     H86907   8.376   5.202  10.606 -0.4195  0.0489  0.1260
  644MOL0     H86908   8.544   5.365  10.594  1.6579 -0.6826 -1.9546
  644MOL0     H86909   8.473   5.405  10.434 -4.6731  1.1795 -0.2444
  644MOL0     H86910   8.337   5.572  10.545  0.6175  1.1893 -0.7347
  644MOL0     H86911   8.500   5.594  10.587  0.2741 -0.2754 -1.1047
  644MOL0     H86912   8.319   5.446  10.782 -0.8187  1.2350 -0.4994
  644MOL0     H86913   8.488   5.472  10.801 -0.2124 -1.3234 -0.1033
  644MOL0     H86914   8.283   5.699  10.753 -0.8530 -1.4285  0.8687
  644MOL0     H86915   8.449   5.715  10.824 -0.0141  1.8137 -3.9577
  644MOL0     H86916   8.227   5.539  10.949  1.7572 -3.3839  1.5537
  644MOL0     H86917   8.393   5.548  10.999 -1.8268 -1.1046  1.4481
  644MOL0     H86918   8.201   5.779  10.992  0.0128  1.7005  1.2254
  644MOL0     H86919   8.377   5.803  11.048 -1.4510  0.0742  0.1691
  644MOL0     H86920   8.322   5.666  11.243 -0.3350 -4.5210 -3.1886
  644MOL0     H86921   8.158   5.637  11.184 -1.6775  1.7840 -2.6119
  644MOL0     H86922   8.207   5.207  10.180 -2.4688  2.3345  2.4594
  644MOL0     H86923   8.038   5.033  10.125 -1.3568 -0.0146  1.1460
  644MOL0     H86924   7.796   4.522  10.395 -2.1184  1.1751  1.3378
  644MOL0     H86925   7.634   4.393  10.282  1.9946  0.7764  1.4547
  644MOL0     H86926   7.315   3.633   9.409 -0.0661 -1.5805 -0.4972
  644MOL0     H86927   7.219   3.602   9.622 -0.1791  0.6822  0.0474
  644MOL0     H86928   6.978   3.426  10.009 -0.7276  0.1249 -0.9634
  644MOL0     H86929   6.926   3.485  10.233  1.3837 -0.3195  0.6685
  644MOL0     H86930   6.713   3.694  10.426 -0.2100 -0.9997 -1.6845
  644MOL0     H86931   6.802   3.543  10.383  1.5037 -0.7003 -0.4515
  644MOL0     H86932   6.984   3.611  10.541  0.4606  1.1158 -2.9899
  644MOL0     H86933   6.825   3.564  10.623 -3.6064  3.0466  0.3089
  644MOL0     H86934   6.745   3.786  10.626 -0.2701 -3.6248 -0.4477
  644MOL0     H86935   6.906   3.853  10.570  0.8273  0.8009  0.9637
  644MOL0     H86936   6.878   3.718  10.846 -2.8718  1.0720  0.2766
  644MOL0     H86937   6.898   3.885  10.809 -1.4025 -0.0172 -1.0759
  644MOL0     H86938   7.290   3.726  10.780  0.7442 -0.1640 -0.5189
  644MOL0     H86939   6.845   3.891  10.120  0.5467  1.0278 -1.1304
  644MOL0     H86940   6.865   3.821   9.873  0.4123 -0.0260 -0.9669
  645MOL0     O86941   8.087   8.804   0.838 -0.0396 -0.2748  0.0101
  645MOL0     C86942   7.981   8.804   0.901  0.2232  0.3205 -0.0200
  645MOL0     O86943   7.914   8.915   0.946  0.1286 -0.2910  0.3846
  645MOL0     C86944   7.984   9.032   0.919 -0.1737 -0.7777 -0.1417
  645MOL0     C86945   8.083   9.075   1.012  0.0410 -0.6188  0.3163
  645MOL0     C86946   8.141   9.206   1.007  0.1020 -0.2673  0.8260
  645MOL0     C86947   8.108   9.291   0.897  0.1158  0.5491  0.5404
  645MOL0     O86948   8.182   9.401   0.873  0.2526 -0.3583  0.3140
  645MOL0     C86949   8.291   9.394   0.779 -1.0582 -0.6478 -0.7983
  645MOL0     C86950   8.367   9.530   0.789  0.2917  0.8044  0.3134
  645MOL0     C86951   8.272   9.643   0.754  1.2070  0.6381  0.2056
  645MOL0     C86952   8.337   9.772   0.724 -1.6931 -0.2938  0.6889
  645MOL0     C86953   8.235   9.886   0.747  0.2518  0.5102  0.3342
  645MOL0     C86954   8.288  10.027   0.728  0.0822 -0.7497 -0.0546
  645MOL0     C86955   8.290  10.064   0.585  0.1912 -0.2450 -0.0963
  645MOL0     C86956   8.325  10.209   0.569  0.3632 -1.0382  0.4787
  645MOL0     N86957   8.366  10.239   0.431  0.1612  0.0469 -0.7043
  645MOL0     C86958   8.323  10.187   0.314  0.3609  0.1348  0.3140
  645MOL0     C86959   8.390  10.250   0.213  0.2873  0.0513  1.0986
  645MOL0     C86960   8.394  10.228   0.070 -1.1842  0.3944  0.9839
  645MOL0     C86961   8.498  10.136   0.033  0.1162  0.7487  0.0295
  645MOL0     C86962   8.475  10.087  -0.116 -0.3018  0.0929 -1.0557
  645MOL0     C86963   8.586   9.987  -0.142 -0.2806 -0.1828  0.0061
  645MOL0     O86964   8.562   9.924  -0.273  0.2907 -0.5626  0.6285
  645MOL0     C86965   8.623   9.811  -0.328  0.0279  0.3769 -0.6082
  645MOL0     C86966   8.696   9.723  -0.263 -0.7964 -0.3656 -0.8018
  645MOL0     C86967   8.765   9.618  -0.332  0.9160  0.3318  0.6624
  645MOL0     C86968   8.856   9.524  -0.238 -0.2830 -0.3932  0.3798
  645MOL0     C86969   8.751   9.614  -0.479  0.1705  0.4753 -0.5957
  645MOL0     C86970   8.810   9.505  -0.559  0.2047 -1.3159  1.3540
  645MOL0     O86971   8.852   9.403  -0.498  1.0815  0.4507  0.1198
  645MOL0     C86972   8.946   9.323  -0.548 -0.2598 -0.4546  0.0513
  645MOL0     C86973   9.072   9.291  -0.487 -1.0287 -0.3112 -0.6431
  645MOL0     C86974   9.161   9.209  -0.544 -0.3419  1.0123  0.1692
  645MOL0     C86975   9.128   9.148  -0.660 -0.3574  0.3498 -0.0981
  645MOL0     O86976   9.226   9.059  -0.700  0.6072 -0.1608 -0.0359
  645MOL0     C86977   9.228   9.026  -0.839  0.0221  0.1511  0.5511
  645MOL0     C86978   9.373   8.963  -0.857  0.9392  1.5466 -0.5187
  645MOL0     C86979   9.481   9.057  -0.898 -0.2632 -0.4934 -1.0792
  645MOL0     C86980   9.611   8.987  -0.929 -0.1271  0.9245  1.1324
  645MOL0     C86981   9.693   8.924  -0.823  0.0812  1.2425 -0.3089
  645MOL0     C86982   9.696   8.997  -0.692  0.5017 -1.0658  0.3169
  645MOL0     C86983   9.804   8.936  -0.597  1.0566 -0.6456 -0.0257
  645MOL0     C86984   9.735   8.920  -0.464  0.3900 -0.4420 -0.6033
  645MOL0    Cl86985   9.621   8.789  -0.472  0.2226 -0.2820  0.0736
  645MOL0     C86986   9.000   9.165  -0.720  0.3482 -0.6634  0.1055
  645MOL0     C86987   8.914   9.266  -0.670  0.1734  0.1411 -0.2111
  645MOL0     O86988   8.836   9.531  -0.682 -0.0402  0.3936 -0.4939
  645MOL0     C86989   8.664   9.709  -0.544 -0.1953 -0.8900  0.5617
  645MOL0     C86990   8.605   9.809  -0.466  0.4618 -0.2024 -0.3260
  645MOL0     N86991   8.471  10.342   0.272 -0.4184  0.4484 -0.5421
  645MOL0     N86992   8.457  10.336   0.409 -0.6036  0.4687 -1.0547
  645MOL0     C86993   7.998   9.251   0.816 -1.1365  0.5850  0.0739
  645MOL0     C86994   7.945   9.125   0.825  0.6789  1.4364  0.1226
  645MOL0     C86995   7.907   8.682   0.904 -0.9016  0.3565  0.0914
  645MOL0     C86996   7.965   8.568   0.846 -0.4867 -0.1323  0.0868
  645MOL0     C86997   7.895   8.446   0.851 -0.0346  0.9774 -0.1505
  645MOL0     C86998   7.779   8.430   0.917  0.2790  0.7772  0.1668
  645MOL0     O86999   7.720   8.310   0.932  0.4005  0.3689 -0.6986
  645MOL0     C87000   7.609   8.294   1.023  0.4730  0.0995  0.3512
  645MOL0     C87001   7.599   8.142   1.030 -0.8570 -0.1402  0.3929
  645MOL0     C87002   7.468   8.105   1.098 -0.4014 -0.3847 -0.4729
  645MOL0     C87003   7.472   7.956   1.140  0.3981 -0.8569 -0.0502
  645MOL0     C87004   7.345   7.894   1.163 -0.6924 -0.6452 -0.6041
  645MOL0     C87005   7.227   7.867   1.180  0.8738 -0.0632  1.3097
  645MOL0     C87006   7.722   8.540   0.989  0.1948  0.8889  1.0967
  645MOL0     C87007   7.789   8.665   0.968  0.0268  0.9626 -0.8294
  645MOL0     H87008   8.112   9.012   1.095  0.9580 -1.0325 -0.3080
  645MOL0     H87009   8.227   9.219   1.072 -0.3071 -0.7997  1.4844
  645MOL0     H87010   8.367   9.320   0.807 -0.9397  0.4211  2.0768
  645MOL0     H87011   8.257   9.362   0.680  2.4285 -2.4678 -1.5673
  645MOL0     H87012   8.403   9.557   0.889  0.1420  3.4638 -0.2777
  645MOL0     H87013   8.450   9.522   0.718 -0.8763  0.8044 -1.0872
  645MOL0     H87014   8.209   9.606   0.673 -1.4746  1.0197  1.9951
  645MOL0     H87015   8.221   9.649   0.850  1.5697  2.3017  0.3166
  645MOL0     H87016   8.429   9.782   0.783 -1.4739 -1.2820  0.5472
  645MOL0     H87017   8.367   9.760   0.619  0.3984  1.5452  0.9983
  645MOL0     H87018   8.151   9.874   0.678  1.0436 -0.3996 -0.5092
  645MOL0     H87019   8.202   9.876   0.851 -0.0124  0.3235  0.2352
  645MOL0     H87020   8.210  10.089   0.773 -0.4633 -0.7984 -0.9101
  645MOL0     H87021   8.388  10.058   0.761 -0.1559  1.3439 -1.1569
  645MOL0     H87022   8.378  10.018   0.537  0.5598  1.7428 -1.4308
  645MOL0     H87023   8.192  10.035   0.545  0.5670 -1.1975 -0.3697
  645MOL0     H87024   8.406  10.256   0.627 -1.0878  1.6810  0.4832
  645MOL0     H87025   8.234  10.264   0.597 -0.1429 -3.3655  4.1081
  645MOL0     H87026   8.257  10.103   0.300  1.3407 -1.3695  3.6296
  645MOL0     H87027   8.295  10.191   0.044 -0.8059 -0.8897  1.2773
  645MOL0     H87028   8.404  10.320   0.012 -0.1767  0.1746  0.7898
  645MOL0     H87029   8.511  10.053   0.104 -2.4769  0.4812  0.2758
  645MOL0     H87030   8.593  10.190   0.031 -0.3136  1.4871 -0.7336
  645MOL0     H87031   8.475  10.178  -0.177  2.4646 -0.7628 -2.4548
  645MOL0     H87032   8.376  10.042  -0.124 -1.0131  1.5164 -0.6927
  645MOL0     H87033   8.595   9.909  -0.066  1.1521 -1.0409 -1.0107
  645MOL0     H87034   8.688  10.026  -0.144  0.0609 -1.0179  0.6745
  645MOL0     H87035   8.717   9.734  -0.157  3.0410  0.1880 -1.4567
  645MOL0     H87036   8.959   9.535  -0.275  0.4586 -3.5883  1.1745
  645MOL0     H87037   8.855   9.547  -0.131 -3.1475  0.4155  0.2544
  645MOL0     H87038   8.833   9.420  -0.263  2.4511 -0.6554 -1.5108
  645MOL0     H87039   9.095   9.340  -0.393 -1.5267  0.7681 -1.0595
  645MOL0     H87040   9.261   9.175  -0.516 -0.5529 -1.8715 -2.0615
  645MOL0     H87041   9.155   8.951  -0.869  3.1147 -1.7761 -2.9403
  645MOL0     H87042   9.215   9.118  -0.896 -0.0347  0.8688  1.6953
  645MOL0     H87043   9.400   8.910  -0.765  2.2085  3.9888  0.6269
  645MOL0     H87044   9.365   8.887  -0.935 -0.0633  1.6674 -0.5440
  645MOL0     H87045   9.494   9.134  -0.820  0.1895  0.6840 -2.2731
  645MOL0     H87046   9.445   9.108  -0.988  0.4583 -2.4416 -2.5302
  645MOL0     H87047   9.598   8.909  -1.005  1.5009  3.9725 -2.5779
  645MOL0     H87048   9.679   9.055  -0.980 -1.6603  0.5846 -1.5931
  645MOL0     H87049   9.787   8.897  -0.870 -0.2179 -0.7697  0.1535
  645MOL0     H87050   9.644   8.828  -0.809 -1.3407  1.4257 -3.1802
  645MOL0     H87051   9.722   9.101  -0.713 -0.0112 -0.3898  2.6991
  645MOL0     H87052   9.595   9.006  -0.650 -0.1803 -1.5003 -1.1554
  645MOL0     H87053   9.881   9.013  -0.589  2.2803 -1.1222 -4.5288
  645MOL0     H87054   9.842   8.843  -0.640 -0.5760 -0.6656 -1.5367
  645MOL0     H87055   9.677   9.001  -0.420 -0.2409 -2.2259  2.1380
  645MOL0     H87056   9.806   8.885  -0.388 -1.7914  1.8363  2.7718
  645MOL0     H87057   8.956   9.110  -0.803  0.3775 -0.0471 -0.3271
  645MOL0     H87058   8.819   9.289  -0.716  0.2865  0.4351 -0.2954
  645MOL0     H87059   8.656   9.717  -0.652 -1.9737 -0.2537  0.6978
  645MOL0     H87060   8.543   9.890  -0.504 -0.6084  0.1399  2.0043
  645MOL0     H87061   7.966   9.308   0.729 -2.1006  0.6601  0.4583
  645MOL0     H87062   7.861   9.099   0.761  0.6883 -1.5580  1.1410
  645MOL0     H87063   8.060   8.575   0.795 -0.7404  0.6011 -0.2969
  645MOL0     H87064   7.942   8.360   0.805 -0.4707  2.1275 -2.9941
  645MOL0     H87065   7.627   8.332   1.124  0.5431  0.9521  0.0256
  645MOL0     H87066   7.522   8.338   0.974  1.8964 -0.5973 -3.1607
  645MOL0     H87067   7.684   8.101   1.086  0.2366  2.3913  0.6930
  645MOL0     H87068   7.589   8.105   0.928 -1.8985  1.3729 -0.0848
  645MOL0     H87069   7.381   8.123   1.035 -0.1994 -1.2070 -0.9966
  645MOL0     H87070   7.453   8.169   1.185  0.6286  0.2323 -0.7284
  645MOL0     H87071   7.537   7.945   1.227 -3.1989  0.4114  3.0432
  645MOL0     H87072   7.523   7.910   1.055  2.0405  3.5443 -1.7372
  645MOL0     H87073   7.130   7.823   1.171  1.1710 -0.4092 -0.7212
  645MOL0     H87074   7.627   8.539   1.040 -0.4858 -0.5360 -0.1037
  645MOL0     H87075   7.751   8.754   1.018 -0.9145  0.3950 -0.5017
  646MOL0     O87076  10.654   2.822  10.096  0.3087 -0.4308 -0.4462
  646MOL0     C87077  10.620   2.830  10.216  0.2920  1.0929 -0.4017
  646MOL0     O87078  10.703   2.850  10.321 -0.1171  0.2416 -0.6325
  646MOL0     C87079  10.843   2.843  10.315 -0.1592  0.3271  0.8708
  646MOL0     C87080  10.913   2.945  10.382 -0.3853  0.7050 -0.9061
  646MOL0     C87081  11.049   2.950  10.383  0.3099  0.6499  0.1918
  646MOL0     C87082  11.123   2.850  10.322  0.1585  0.1171  0.2995
  646MOL0     O87083  11.257   2.871  10.340  0.5247  0.3200 -0.1621
  646MOL0     C87084  11.347   2.758  10.338  0.1886 -0.1358 -0.7446
  646MOL0     C87085  11.355   2.721  10.486  0.7915 -0.1375 -0.1938
  646MOL0     C87086  11.455   2.797  10.583 -0.5710 -1.2282  0.0515
  646MOL0     C87087  11.600   2.766  10.543  0.1398  0.5083 -0.0477
  646MOL0     C87088  11.696   2.817  10.655 -0.9749  0.3896 -0.0566
  646MOL0     C87089  11.849   2.776  10.633  0.3295 -0.0431 -0.2442
  646MOL0     C87090  11.955   2.868  10.570  0.1618  0.1442  0.0638
  646MOL0     C87091  11.916   2.892  10.420  0.2731 -0.0595 -0.6023
  646MOL0     N87092  11.937   2.782  10.326  0.5896 -0.6400  0.0278
  646MOL0     C87093  12.061   2.727  10.310 -0.0754 -0.4713  0.9390
  646MOL0     C87094  12.036   2.609  10.249  0.1189 -0.1322  0.3019
  646MOL0     C87095  12.156   2.512  10.210  0.6031 -0.3218 -1.0505
  646MOL0     C87096  12.207   2.560  10.083 -1.0061  0.5579  0.8905
  646MOL0     C87097  12.112   2.527   9.967 -0.3752 -0.1586  0.8916
  646MOL0     C87098  12.102   2.381   9.927  0.7949  0.2025 -0.7927
  646MOL0     O87099  12.019   2.384   9.809 -0.4170 -0.5564  0.1087
  646MOL0     C87100  12.041   2.286   9.708 -0.2913 -0.3796 -0.4580
  646MOL0     C87101  12.129   2.181   9.729 -0.1956 -1.0120  0.1414
  646MOL0     C87102  12.168   2.084   9.632 -0.4350  0.1194  0.2610
  646MOL0     C87103  12.288   1.995   9.652  0.4959 -1.1344 -0.2576
  646MOL0     C87104  12.088   2.084   9.513 -0.2622  0.1543 -0.1378
  646MOL0     C87105  12.116   1.984   9.405 -0.6621 -0.7933  0.7577
  646MOL0     O87106  12.063   2.011   9.276  0.6764 -0.3645 -0.0518
  646MOL0     C87107  12.032   1.904   9.194  0.9551 -0.0681  0.5319
  646MOL0     C87108  11.963   1.783   9.222  0.4802 -0.3804  0.3900
  646MOL0     C87109  11.932   1.687   9.120  0.5868 -0.9097  0.3137
  646MOL0     C87110  11.971   1.703   8.990 -0.9394  0.1813  0.2878
  646MOL0     O87111  11.935   1.629   8.878 -0.6292 -0.2494 -0.0784
  646MOL0     C87112  11.861   1.511   8.906 -0.3822  0.9677 -0.8092
  646MOL0     C87113  11.935   1.383   8.949 -1.0446 -0.6255  0.2341
  646MOL0     C87114  11.853   1.267   8.998  0.8942 -0.3705 -0.5009
  646MOL0     C87115  11.932   1.133   8.994  0.7900  0.5915 -0.3668
  646MOL0     C87116  11.833   1.021   9.025 -0.0053  0.6932  0.4321
  646MOL0     C87117  11.855   0.906   8.918 -0.8479 -0.6355  0.5911
  646MOL0     C87118  11.755   0.798   8.952  0.3009 -0.2723 -0.0060
  646MOL0     C87119  11.792   0.665   8.895 -0.7088  0.6878 -0.0778
  646MOL0    Cl87120  11.790   0.666   8.721  0.2313 -0.3199  0.0044
  646MOL0     C87121  12.053   1.814   8.952  0.6696  0.2899 -0.1029
  646MOL0     C87122  12.073   1.919   9.052  0.5412  0.5681 -0.1066
  646MOL0     O87123  12.183   1.884   9.428 -1.0961 -0.2346 -0.0693
  646MOL0     C87124  12.004   2.193   9.485  0.9521 -0.2727 -0.2826
  646MOL0     C87125  11.981   2.293   9.586  0.4975 -0.4941  0.3227
  646MOL0     N87126  11.900   2.601  10.225  0.3301 -0.2009  0.5333
  646MOL0     N87127  11.841   2.710  10.264  0.5853 -0.3110 -0.4328
  646MOL0     C87128  11.061   2.757  10.251  0.0540 -0.0688 -0.3607
  646MOL0     C87129  10.917   2.758  10.245 -0.2597  0.4206  0.9562
  646MOL0     C87130  10.479   2.804  10.231 -0.3829 -0.9992 -1.0793
  646MOL0     C87131  10.409   2.917  10.268  0.6456 -0.3657  0.0563
  646MOL0     C87132  10.273   2.923  10.293  0.1544  0.4680 -0.7107
  646MOL0     C87133  10.202   2.807  10.262 -0.2547  0.7942  0.7585
  646MOL0     O87134  10.067   2.782  10.288  0.4693  0.6656 -0.1623
  646MOL0     C87135   9.990   2.882  10.347  0.2306 -0.8446  0.8099
  646MOL0     C87136   9.977   3.009  10.260 -0.2752 -0.3643 -0.2793
  646MOL0     C87137   9.841   3.021  10.190 -0.1027 -0.4223  0.7109
  646MOL0     C87138   9.840   3.100  10.055 -0.5720 -0.4245  0.4331
  646MOL0     C87139   9.841   3.245  10.068 -0.0751  0.5861 -0.0081
  646MOL0     C87140   9.845   3.366  10.091 -1.0992  0.4010  0.5715
  646MOL0     C87141  10.269   2.697  10.212 -0.2744  0.2012  0.0632
  646MOL0     C87142  10.409   2.693  10.194  0.1911  0.4600  0.6413
  646MOL0     H87143  10.851   3.016  10.436 -1.2096  0.2046 -1.1669
  646MOL0     H87144  11.103   3.025  10.441  1.4572  0.2777 -0.3600
  646MOL0     H87145  11.308   2.668  10.289 -2.3164  0.5805 -0.2022
  646MOL0     H87146  11.443   2.781  10.292 -1.5781 -0.1813 -4.8626
  646MOL0     H87147  11.253   2.739  10.522  1.5009  1.3876  1.2040
  646MOL0     H87148  11.375   2.614  10.495  2.0725  0.0865 -0.1291
  646MOL0     H87149  11.439   2.905  10.573 -0.2015 -0.9890  1.7861
  646MOL0     H87150  11.440   2.773  10.688  0.0133 -1.8239  0.0038
  646MOL0     H87151  11.614   2.658  10.548 -1.5463  0.3011  0.9846
  646MOL0     H87152  11.630   2.805  10.446 -1.3723 -0.5119 -0.9464
  646MOL0     H87153  11.698   2.927  10.651  1.1726  0.3596 -1.5603
  646MOL0     H87154  11.667   2.790  10.757  1.3216 -1.1615  0.2605
  646MOL0     H87155  11.883   2.756  10.735 -3.0935 -1.2393  0.7930
  646MOL0     H87156  11.857   2.676  10.589  1.1401  1.0541 -2.8013
  646MOL0     H87157  11.978   2.962  10.622 -0.2238 -0.8511  2.1607
  646MOL0     H87158  12.044   2.806  10.587 -1.4500 -2.2885  0.0931
  646MOL0     H87159  11.972   2.982  10.392 -3.4674  2.7245  0.1639
  646MOL0     H87160  11.812   2.923  10.408 -0.1894 -0.7723  1.1822
  646MOL0     H87161  12.160   2.761  10.336  1.1561 -4.0369  1.5345
  646MOL0     H87162  12.226   2.520  10.293 -1.9065  4.1836  1.0038
  646MOL0     H87163  12.121   2.408  10.212 -1.8829  0.4297  1.1965
  646MOL0     H87164  12.304   2.511  10.071 -1.1637  0.3858  0.2978
  646MOL0     H87165  12.225   2.667  10.091 -0.3599  0.5748 -0.4883
  646MOL0     H87166  12.162   2.572   9.880  0.3182 -2.2292  0.1669
  646MOL0     H87167  12.011   2.568   9.968 -0.9974 -1.6183  2.5580
  646MOL0     H87168  12.065   2.310  10.001  0.0538 -0.1646 -1.5009
  646MOL0     H87169  12.206   2.358   9.903  0.2323 -0.9028 -2.2760
  646MOL0     H87170  12.180   2.168   9.824  0.5559 -2.6059 -0.4317
  646MOL0     H87171  12.350   1.991   9.562 -0.4112 -2.1812 -0.8693
  646MOL0     H87172  12.333   2.024   9.747 -0.6791 -2.5038  0.7762
  646MOL0     H87173  12.252   1.894   9.674 -0.5527 -0.5618  0.8168
  646MOL0     H87174  11.925   1.774   9.323  0.5966 -2.2960  0.3023
  646MOL0     H87175  11.866   1.606   9.150  1.7835 -1.3747  1.8172
  646MOL0     H87176  11.783   1.538   8.979 -0.0108  2.0924 -0.8046
  646MOL0     H87177  11.795   1.485   8.823 -2.7565 -0.6015  1.3975
  646MOL0     H87178  11.989   1.349   8.859 -0.4443  3.2103 -1.0184
  646MOL0     H87179  12.020   1.396   9.017 -0.2392  0.4701 -0.9239
  646MOL0     H87180  11.768   1.254   8.930 -1.5434 -0.3559  2.3187
  646MOL0     H87181  11.827   1.291   9.101 -0.8110 -0.7885 -0.7991
  646MOL0     H87182  11.981   1.109   8.899 -1.7054  2.1957 -2.2133
  646MOL0     H87183  12.004   1.143   9.076 -0.9983 -1.1906  1.5610
  646MOL0     H87184  11.726   1.044   9.026 -0.4138 -1.0376 -0.3318
  646MOL0     H87185  11.838   1.008   9.133 -1.6657  3.5796  0.9763
  646MOL0     H87186  11.827   0.944   8.819  1.3115  2.2997  0.9726
  646MOL0     H87187  11.959   0.874   8.917 -0.9654 -1.1165  1.8768
  646MOL0     H87188  11.654   0.820   8.916  1.0659 -0.8651 -2.7533
  646MOL0     H87189  11.765   0.790   9.061  0.7124  0.6927  0.0408
  646MOL0     H87190  11.716   0.592   8.924 -1.3358  0.6345 -1.7348
  646MOL0     H87191  11.891   0.628   8.921 -1.0944 -0.0399  0.3901
  646MOL0     H87192  12.085   1.815   8.849 -1.4925  0.4582 -0.8125
  646MOL0     H87193  12.131   2.010   9.043  1.5217  0.1411  1.5486
  646MOL0     H87194  11.944   2.179   9.396  2.2036 -2.3254 -0.8554
  646MOL0     H87195  11.908   2.373   9.573  1.4113  0.2706 -0.2529
  646MOL0     H87196  11.114   2.684  10.191  2.2770  0.1320  1.2006
  646MOL0     H87197  10.877   2.687  10.174  0.7919  1.4146 -0.6752
  646MOL0     H87198  10.453   3.014  10.289 -1.1121  0.4803  0.0143
  646MOL0     H87199  10.229   3.013  10.334  0.8228  1.1774 -1.5098
  646MOL0     H87200   9.891   2.849  10.379  0.4019 -1.5851  0.5817
  646MOL0     H87201  10.043   2.922  10.433  0.4050  2.1026 -0.5309
  646MOL0     H87202  10.052   3.003  10.180 -1.9897 -0.2762 -1.9577
  646MOL0     H87203  10.003   3.094  10.325  2.6108 -1.5059  0.1999
  646MOL0     H87204   9.771   3.062  10.263 -0.5563  0.3470 -0.1368
  646MOL0     H87205   9.802   2.921  10.167  0.8414 -0.6067 -0.2130
  646MOL0     H87206   9.750   3.067  10.002 -1.0583  0.9859  0.3383
  646MOL0     H87207   9.930   3.085   9.995 -0.8805  2.1172 -0.7890
  646MOL0     H87208   9.871   3.467  10.116  0.6301  0.5804 -1.7359
  646MOL0     H87209  10.216   2.602  10.212 -0.0136  0.0506  0.9196
  646MOL0     H87210  10.458   2.608  10.149  2.8227  2.8036 -1.2247
  647MOL0     O87211   3.073   6.705   2.706 -0.2345  0.3139  0.4249
  647MOL0     C87212   3.121   6.600   2.660  0.7236 -0.5419 -0.6783
  647MOL0     O87213   3.139   6.487   2.732  0.9406 -0.2758 -0.6880
  647MOL0     C87214   3.100   6.491   2.868 -0.5717  1.1180  0.1784
  647MOL0     C87215   2.977   6.449   2.902 -1.4017  1.0183 -0.0389
  647MOL0     C87216   2.937   6.457   3.038  0.0738  0.0402  1.1892
  647MOL0     C87217   3.022   6.488   3.141 -0.6776 -1.0916 -0.2034
  647MOL0     O87218   2.971   6.491   3.271  0.2334  0.2683 -0.8358
  647MOL0     C87219   3.021   6.598   3.356  0.9460  0.2322 -0.3948
  647MOL0     C87220   2.927   6.617   3.475 -0.2838  0.3078  0.4338
  647MOL0     C87221   2.952   6.755   3.548 -0.2053  0.6943 -0.1287
  647MOL0     C87222   2.851   6.764   3.671  0.3701  0.5983  0.4991
  647MOL0     C87223   2.866   6.892   3.750  0.0504  0.3312 -0.8663
  647MOL0     C87224   2.765   6.913   3.867  0.3315  0.1687  0.8507
  647MOL0     C87225   2.796   6.815   3.968 -0.4044 -0.2763 -0.8949
  647MOL0     C87226   2.700   6.809   4.094 -0.5708 -0.0876 -0.7465
  647MOL0     N87227   2.693   6.936   4.167 -0.5142 -0.1519  1.1728
  647MOL0     C87228   2.768   6.976   4.273 -0.0906 -0.2732  0.0251
  647MOL0     C87229   2.716   7.092   4.311  1.1731 -0.1946  0.0096
  647MOL0     C87230   2.774   7.175   4.425 -0.0288  0.0129  0.1674
  647MOL0     C87231   2.652   7.250   4.492 -1.0534  0.5857  0.7449
  647MOL0     C87232   2.595   7.372   4.412 -0.3502  0.2479 -0.6026
  647MOL0     C87233   2.503   7.455   4.500  0.8477  0.0030 -0.2281
  647MOL0     O87234   2.444   7.387   4.613  0.0160 -0.2739 -0.8690
  647MOL0     C87235   2.338   7.302   4.590  0.0526  0.3174 -0.0572
  647MOL0     C87236   2.287   7.246   4.697 -0.4558 -0.2574  0.2556
  647MOL0     C87237   2.172   7.156   4.702  0.2209  0.2215  0.1777
  647MOL0     C87238   2.126   7.112   4.842 -0.0515 -0.4071 -0.7426
  647MOL0     C87239   2.110   7.125   4.579  0.6913  0.4051 -0.5470
  647MOL0     C87240   2.001   7.022   4.577 -1.0828 -0.1851 -0.5350
  647MOL0     O87241   1.871   7.061   4.560 -0.1343  0.4625 -0.4318
  647MOL0     C87242   1.770   6.970   4.579 -0.5741  0.0152  0.7080
  647MOL0     C87243   1.652   7.019   4.643 -0.8645  1.2297  0.5637
  647MOL0     C87244   1.546   6.935   4.667  0.1145  0.0790  0.8320
  647MOL0     C87245   1.553   6.796   4.629  0.7719 -0.7596 -0.7977
  647MOL0     O87246   1.453   6.720   4.687  0.4868  0.1375 -0.2171
  647MOL0     C87247   1.459   6.574   4.699 -0.0071  0.4227 -1.8305
  647MOL0     C87248   1.413   6.495   4.579  0.2965  0.3928  1.0448
  647MOL0     C87249   1.382   6.353   4.623  1.1122  0.5698  0.6266
  647MOL0     C87250   1.255   6.345   4.718 -0.8905 -0.9818 -0.4512
  647MOL0     C87251   1.231   6.196   4.761 -0.3620  0.3190 -0.5842
  647MOL0     C87252   1.118   6.145   4.677 -0.3600  0.4729 -0.9567
  647MOL0     C87253   1.104   5.986   4.688 -0.5916 -0.2236 -0.2129
  647MOL0     C87254   1.228   5.906   4.649 -0.3119  0.0352  0.7588
  647MOL0    Cl87255   1.252   5.913   4.468  0.0390 -0.0992  0.1368
  647MOL0     C87256   1.662   6.748   4.556  0.0555 -0.0785 -0.5501
  647MOL0     C87257   1.768   6.837   4.527  0.8420  0.7605 -0.5490
  647MOL0     O87258   2.047   6.911   4.583  0.1234 -0.4440 -0.3818
  647MOL0     C87259   2.161   7.185   4.461 -0.0752 -0.5718 -0.3135
  647MOL0     C87260   2.271   7.276   4.472 -0.1418 -0.2038  0.0607
  647MOL0     N87261   2.607   7.120   4.221  0.0106 -0.5185  0.2540
  647MOL0     N87262   2.598   7.028   4.134 -0.0730 -0.2945  1.2629
  647MOL0     C87263   3.140   6.543   3.103 -0.3739  0.4300 -0.2609
  647MOL0     C87264   3.183   6.533   2.969  0.1682  0.2020 -0.0028
  647MOL0     C87265   3.187   6.613   2.527 -0.0502  0.3278 -0.2607
  647MOL0     C87266   3.273   6.513   2.478  0.1849  0.0779 -0.0419
  647MOL0     C87267   3.341   6.530   2.352  0.5708 -0.5227  0.1416
  647MOL0     C87268   3.317   6.648   2.281  0.2987 -0.3532 -0.3009
  647MOL0     O87269   3.373   6.643   2.155  0.0471 -1.4314 -0.4993
  647MOL0     C87270   3.339   6.760   2.084  0.6486  0.0902 -0.3366
  647MOL0     C87271   3.373   6.746   1.939  0.6371 -0.2437 -0.2235
  647MOL0     C87272   3.294   6.623   1.880  0.3280 -0.4505  1.0914
  647MOL0     C87273   3.145   6.621   1.912 -0.5820  0.3005 -0.0774
  647MOL0     C87274   3.065   6.743   1.890 -0.6847 -0.1615  0.2763
  647MOL0     C87275   3.009   6.843   1.858 -0.3616 -0.8946 -0.5934
  647MOL0     C87276   3.266   6.758   2.346  0.2253  0.1673  0.4551
  647MOL0     C87277   3.197   6.740   2.467  0.1112 -0.1888 -0.0046
  647MOL0     H87278   2.903   6.431   2.825 -0.5102 -3.5380 -0.0807
  647MOL0     H87279   2.834   6.427   3.050 -0.4769  2.4569  3.6738
  647MOL0     H87280   3.119   6.587   3.402 -1.0665 -1.8558  3.9936
  647MOL0     H87281   3.020   6.693   3.302 -1.8998  1.3479  1.4050
  647MOL0     H87282   2.825   6.622   3.435 -1.0098  3.6780  2.3415
  647MOL0     H87283   2.942   6.528   3.536 -0.8894  0.4945  0.8629
  647MOL0     H87284   3.052   6.747   3.592 -0.9876  1.7356  2.0026
  647MOL0     H87285   2.939   6.844   3.487  1.3253  1.4913  0.6608
  647MOL0     H87286   2.752   6.744   3.628  1.2427 -0.6124 -1.0495
  647MOL0     H87287   2.880   6.671   3.722  3.2120  0.2124 -1.5859
  647MOL0     H87288   2.969   6.895   3.787  0.4150 -3.4784 -1.1847
  647MOL0     H87289   2.852   6.964   3.669 -0.1690  0.8877 -0.3436
  647MOL0     H87290   2.782   7.013   3.907 -0.4720  0.7513 -0.2281
  647MOL0     H87291   2.659   6.894   3.848 -0.0889  2.7996  0.1776
  647MOL0     H87292   2.806   6.715   3.924  0.5804 -0.1591 -0.9563
  647MOL0     H87293   2.892   6.841   4.013 -0.4932 -3.1209  1.2853
  647MOL0     H87294   2.735   6.742   4.173  1.1138  2.3953  0.7432
  647MOL0     H87295   2.602   6.778   4.057 -0.3068 -0.6793 -0.9720
  647MOL0     H87296   2.850   6.921   4.318 -1.0826 -1.0073  1.0057
  647MOL0     H87297   2.823   7.121   4.506  0.0610  1.3125  1.0174
  647MOL0     H87298   2.852   7.244   4.392 -0.3286  2.4623  3.9433
  647MOL0     H87299   2.688   7.274   4.592  2.7815 -2.9302  0.4724
  647MOL0     H87300   2.571   7.176   4.495  0.2897 -1.1041 -1.6337
  647MOL0     H87301   2.552   7.341   4.316 -2.3492  0.0525  0.3007
  647MOL0     H87302   2.672   7.443   4.380 -0.6587  1.6642  1.6102
  647MOL0     H87303   2.438   7.509   4.430  2.9901  2.3307 -0.5647
  647MOL0     H87304   2.568   7.535   4.538  0.2404  1.8851 -2.8601
  647MOL0     H87305   2.340   7.264   4.790  3.2905  2.4485 -2.0854
  647MOL0     H87306   2.209   7.081   4.906  0.5733  0.8724 -0.9115
  647MOL0     H87307   2.069   7.181   4.904  0.6441 -0.7903  0.3502
  647MOL0     H87308   2.054   7.030   4.829 -3.3679  2.2149 -0.1988
  647MOL0     H87309   1.650   7.125   4.666  0.6146  0.8097  2.9993
  647MOL0     H87310   1.459   6.962   4.726 -1.3854 -0.7386 -0.9246
  647MOL0     H87311   1.560   6.538   4.719 -1.2574 -1.1541  2.8506
  647MOL0     H87312   1.403   6.554   4.790  1.8720  1.3018 -0.4035
  647MOL0     H87313   1.322   6.539   4.538  0.2646  0.5133  1.2408
  647MOL0     H87314   1.497   6.505   4.510 -0.4846  2.7813  0.3196
  647MOL0     H87315   1.474   6.311   4.664  2.5031  1.8613 -1.0220
  647MOL0     H87316   1.359   6.290   4.537 -3.9636  0.6625  1.6232
  647MOL0     H87317   1.278   6.394   4.813  2.8483 -2.1737 -0.5713
  647MOL0     H87318   1.169   6.400   4.678 -0.1367  1.2074  0.8000
  647MOL0     H87319   1.201   6.197   4.867 -1.0256 -1.8375 -0.7015
  647MOL0     H87320   1.320   6.135   4.744 -0.7089 -0.1435 -0.7531
  647MOL0     H87321   1.026   6.198   4.704 -0.5584  0.3413 -1.3538
  647MOL0     H87322   1.143   6.167   4.572  2.1946 -1.5159 -0.8614
  647MOL0     H87323   1.012   5.953   4.639 -0.8173  0.8516 -0.5517
  647MOL0     H87324   1.087   5.971   4.795  0.7328  1.5974  0.3106
  647MOL0     H87325   1.220   5.799   4.667 -1.8735 -0.2018 -0.9855
  647MOL0     H87326   1.310   5.941   4.712  1.5094  0.6845 -1.8217
  647MOL0     H87327   1.675   6.643   4.530 -2.3163 -0.4021 -0.6192
  647MOL0     H87328   1.858   6.803   4.475  1.2049 -1.5013  1.3638
  647MOL0     H87329   2.117   7.170   4.363 -1.5454  1.6759 -0.0578
  647MOL0     H87330   2.315   7.329   4.388  0.3334  2.7456  1.9965
  647MOL0     H87331   3.206   6.592   3.174  0.1996 -0.0506 -0.4542
  647MOL0     H87332   3.273   6.580   2.931 -0.5108  0.0117 -1.9866
  647MOL0     H87333   3.310   6.422   2.524  1.8164 -0.7266 -2.6924
  647MOL0     H87334   3.404   6.450   2.314 -0.9786 -1.7693  0.0861
  647MOL0     H87335   3.234   6.788   2.090  0.5504 -0.1188 -1.0412
  647MOL0     H87336   3.394   6.846   2.124  0.4989  0.1110 -0.1724
  647MOL0     H87337   3.482   6.743   1.931  1.1217 -1.3142  4.1852
  647MOL0     H87338   3.345   6.831   1.876  2.5121  0.0638 -0.6908
  647MOL0     H87339   3.342   6.527   1.900  1.2218 -0.0495  0.8895
  647MOL0     H87340   3.313   6.633   1.773  0.7507 -0.4676  1.1652
  647MOL0     H87341   3.129   6.583   2.013 -2.6786  2.4421  0.4896
  647MOL0     H87342   3.097   6.540   1.856 -0.4781 -0.8069  1.3802
  647MOL0     H87343   2.959   6.935   1.835  0.2634 -0.2198  0.6381
  647MOL0     H87344   3.262   6.857   2.301  3.0224  0.3483  0.4547
  647MOL0     H87345   3.140   6.827   2.500 -0.2324 -0.3891 -0.0694
  648MOL0     O87346  10.609   4.704   6.987  0.5694 -0.3196  0.2865
  648MOL0     C87347  10.678   4.600   6.967  0.3837 -0.5492  0.1584
  648MOL0     O87348  10.714   4.510   7.060  0.1786 -0.4412  0.4650
  648MOL0     C87349  10.636   4.497   7.177 -0.3308 -0.2628 -0.2299
  648MOL0     C87350  10.499   4.527   7.188 -0.7586  0.7540  0.6017
  648MOL0     C87351  10.442   4.527   7.319 -0.7151  0.3080  0.0806
  648MOL0     C87352  10.514   4.496   7.440  0.7188 -0.4974  0.6300
  648MOL0     O87353  10.454   4.477   7.564 -0.4076  0.4833  0.3241
  648MOL0     C87354  10.312   4.490   7.588 -0.0054  0.3952  0.1960
  648MOL0     C87355  10.270   4.374   7.679 -0.1013 -0.5082  0.5724
  648MOL0     C87356  10.122   4.399   7.728 -0.5613 -0.4759  0.2701
  648MOL0     C87357  10.139   4.453   7.879  0.1806 -0.8497  0.3549
  648MOL0     C87358  10.023   4.496   7.965 -0.5655  0.7656  1.1117
  648MOL0     C87359   9.913   4.395   7.950  0.1410  0.9002  0.4268
  648MOL0     C87360   9.802   4.448   8.045 -1.0876 -0.9031 -0.1679
  648MOL0     C87361   9.675   4.370   8.029 -0.3685 -0.5881 -0.0499
  648MOL0     N87362   9.690   4.223   8.064 -0.5334 -0.3263  1.1134
  648MOL0     C87363   9.718   4.175   8.187 -0.8021  0.1235  0.2549
  648MOL0     C87364   9.751   4.049   8.177 -0.2822 -0.3916  0.7175
  648MOL0     C87365   9.793   3.977   8.304  0.1859 -1.0247  0.5863
  648MOL0     C87366   9.668   3.932   8.381  0.7766  0.8406 -0.5525
  648MOL0     C87367   9.715   3.837   8.500 -0.6817 -0.2988  0.2914
  648MOL0     C87368   9.729   3.697   8.457 -0.3133  0.5405 -0.5624
  648MOL0     O87369   9.748   3.609   8.570  0.2221  0.5015  0.4501
  648MOL0     C87370   9.862   3.597   8.644 -0.9024  0.0589 -0.1977
  648MOL0     C87371   9.859   3.524   8.766  0.6299 -0.2834  0.9483
  648MOL0     C87372   9.968   3.510   8.849 -0.4439 -0.5101 -0.4320
  648MOL0     C87373   9.943   3.422   8.975 -0.1634 -0.2980 -0.0140
  648MOL0     C87374  10.097   3.567   8.811  0.6113  0.1163 -0.0700
  648MOL0     C87375  10.218   3.557   8.888  0.1517  0.2386 -0.9879
  648MOL0     O87376  10.203   3.536   9.018 -0.1739 -0.7429 -0.0658
  648MOL0     C87377  10.294   3.496   9.122  0.2281 -0.7668  0.5014
  648MOL0     C87378  10.239   3.491   9.261 -0.8294 -0.0986  0.6617
  648MOL0     C87379  10.318   3.449   9.370  0.2379 -0.1863  0.2820
  648MOL0     C87380  10.449   3.412   9.359 -0.7188 -0.3543  0.2179
  648MOL0     O87381  10.502   3.375   9.482  0.0189 -0.7871  1.0291
  648MOL0     C87382  10.635   3.330   9.475 -1.1516 -0.9145 -0.3262
  648MOL0     C87383  10.672   3.199   9.409  0.0827 -0.2922 -0.5979
  648MOL0     C87384  10.817   3.177   9.380  0.6182  0.1437  0.0839
  648MOL0     C87385  10.900   3.162   9.504 -1.3164  0.0307 -0.6320
  648MOL0     C87386  11.024   3.083   9.477  0.3498  0.3108 -0.1132
  648MOL0     C87387  11.121   3.150   9.377  0.7141 -0.2495  0.0300
  648MOL0     C87388  11.273   3.132   9.407 -0.7319 -0.0962  0.6563
  648MOL0     C87389  11.357   3.189   9.289 -0.0317  0.0184 -0.0982
  648MOL0    Cl87390  11.537   3.246   9.324  0.4148  0.1371 -0.5515
  648MOL0     C87391  10.498   3.419   9.224  0.7070  0.2125  0.1664
  648MOL0     C87392  10.427   3.465   9.111 -0.4281  0.0205 -0.6984
  648MOL0     O87393  10.327   3.584   8.836  0.2952 -0.2018 -0.8945
  648MOL0     C87394  10.097   3.643   8.690  0.0738  0.8470 -0.1065
  648MOL0     C87395   9.980   3.653   8.613  0.3992 -1.4150  0.7863
  648MOL0     N87396   9.737   4.015   8.044  0.2301  0.5815 -0.3504
  648MOL0     N87397   9.703   4.123   7.982  0.3146 -0.5201  1.1700
  648MOL0     C87398  10.648   4.465   7.423 -0.2727 -0.8342  0.6039
  648MOL0     C87399  10.705   4.463   7.294 -0.4275 -0.1418 -0.8138
  648MOL0     C87400  10.733   4.572   6.833  0.2685 -0.5981  0.7542
  648MOL0     C87401  10.841   4.492   6.793  0.6378  0.4044  0.2823
  648MOL0     C87402  10.881   4.484   6.657  1.0457  0.6408  0.3081
  648MOL0     C87403  10.820   4.552   6.558  0.2652  0.8817 -1.0714
  648MOL0     O87404  10.856   4.539   6.424 -0.0060 -0.0582  0.1826
  648MOL0     C87405  10.983   4.476   6.391  0.8249 -0.3393 -0.7555
  648MOL0     C87406  11.032   4.500   6.248  0.5290  1.4233 -0.0123
  648MOL0     C87407  11.031   4.647   6.213  0.2551 -0.8260  1.2377
  648MOL0     C87408  11.075   4.679   6.074 -0.5811  1.5055  0.1774
  648MOL0     C87409  11.000   4.621   5.961  0.0376  0.4753  0.2232
  648MOL0     C87410  10.918   4.572   5.883 -1.5379 -0.3402 -0.8116
  648MOL0     C87411  10.718   4.634   6.596  0.9414 -0.1252 -0.8835
  648MOL0     C87412  10.672   4.639   6.731 -0.4848 -0.1564 -0.1012
  648MOL0     H87413  10.440   4.564   7.105 -0.6850  2.2332  1.1770
  648MOL0     H87414  10.334   4.535   7.315 -0.8498 -1.3453 -2.7805
  648MOL0     H87415  10.289   4.585   7.638  0.7367 -0.6590  2.6570
  648MOL0     H87416  10.246   4.476   7.501  1.7301 -0.2729 -1.0771
  648MOL0     H87417  10.278   4.281   7.622  0.4640 -0.5799  0.7631
  648MOL0     H87418  10.327   4.361   7.771 -3.0795  1.7971  2.9674
  648MOL0     H87419  10.068   4.469   7.664  0.8780  0.3393 -0.0849
  648MOL0     H87420  10.063   4.307   7.713 -1.9865  0.7236 -1.9944
  648MOL0     H87421  10.188   4.367   7.926 -0.9413 -1.3322  0.6674
  648MOL0     H87422  10.208   4.538   7.874 -0.2490 -0.3762  2.0879
  648MOL0     H87423  10.056   4.505   8.068  2.6986 -0.5030  0.2727
  648MOL0     H87424   9.987   4.592   7.925 -0.9575 -0.2201 -1.0299
  648MOL0     H87425   9.876   4.391   7.847  1.9765  0.1036 -0.2508
  648MOL0     H87426   9.953   4.297   7.977 -1.7391 -0.2376 -0.6700
  648MOL0     H87427   9.836   4.427   8.147 -1.4966 -0.9713 -0.0475
  648MOL0     H87428   9.784   4.555   8.032 -0.2953 -0.2392  3.1983
  648MOL0     H87429   9.636   4.376   7.927  1.0660  0.2227 -0.5747
  648MOL0     H87430   9.607   4.407   8.106  0.8590 -1.0041  1.2694
  648MOL0     H87431   9.714   4.240   8.273 -1.6854  1.2552 -0.6039
  648MOL0     H87432   9.844   3.889   8.264  1.1834  1.0089 -3.1172
  648MOL0     H87433   9.864   4.042   8.355 -1.3829  1.7158 -0.4993
  648MOL0     H87434   9.600   3.883   8.311  1.2347  2.0792 -1.9144
  648MOL0     H87435   9.616   4.018   8.424  0.1686 -0.6457  1.8535
  648MOL0     H87436   9.646   3.840   8.585 -0.3190 -0.2074  0.5854
  648MOL0     H87437   9.810   3.873   8.541 -0.8851  1.1755 -0.4834
  648MOL0     H87438   9.817   3.686   8.393  0.4482 -0.7941  0.6422
  648MOL0     H87439   9.645   3.668   8.394 -0.2410 -0.7232 -0.0970
  648MOL0     H87440   9.763   3.475   8.776 -0.6616  1.5707 -1.3929
  648MOL0     H87441  10.008   3.334   8.962 -2.3646 -1.9072 -0.7367
  648MOL0     H87442   9.972   3.469   9.070  1.1134 -3.7617  1.5065
  648MOL0     H87443   9.843   3.380   8.983  0.4961 -1.7003  1.8573
  648MOL0     H87444  10.132   3.504   9.273 -1.2572 -3.7118  1.9242
  648MOL0     H87445  10.272   3.444   9.468 -0.0553 -0.4607  0.1309
  648MOL0     H87446  10.701   3.409   9.438 -0.6145 -0.0355  2.2954
  648MOL0     H87447  10.663   3.317   9.580  0.5731 -2.1629 -0.8905
  648MOL0     H87448  10.629   3.121   9.473 -2.8785  3.3493  2.3618
  648MOL0     H87449  10.622   3.190   9.313  0.6473  1.0004 -1.0380
  648MOL0     H87450  10.867   3.247   9.313 -1.8871  3.9699  1.8414
  648MOL0     H87451  10.808   3.086   9.320 -0.0091  1.2538 -1.5871
  648MOL0     H87452  10.943   3.259   9.531 -0.3584  0.7377 -4.2083
  648MOL0     H87453  10.849   3.127   9.595  3.7601  0.3659  2.7617
  648MOL0     H87454  11.004   2.983   9.439  1.1436 -0.1106  0.5411
  648MOL0     H87455  11.079   3.073   9.571  2.2347  1.4580 -1.0259
  648MOL0     H87456  11.089   3.133   9.274 -0.6637  2.2068 -0.0310
  648MOL0     H87457  11.118   3.260   9.381 -2.2036 -0.1028 -2.3618
  648MOL0     H87458  11.316   3.032   9.417  1.7499  0.9969  1.6457
  648MOL0     H87459  11.281   3.190   9.499 -0.3313  2.1734 -0.7388
  648MOL0     H87460  11.312   3.286   9.265 -1.4714 -0.1366  1.6998
  648MOL0     H87461  11.349   3.125   9.201 -0.2816  2.2622 -1.7869
  648MOL0     H87462  10.596   3.379   9.202 -0.2195 -2.3911  0.4241
  648MOL0     H87463  10.473   3.474   9.013  0.6266  1.4210 -0.0995
  648MOL0     H87464  10.189   3.691   8.659  0.5517 -1.6143 -3.0623
  648MOL0     H87465   9.989   3.719   8.527  1.0489  3.1950  4.0015
  648MOL0     H87466  10.701   4.428   7.511 -1.4066 -0.6773  1.3663
  648MOL0     H87467  10.802   4.415   7.282 -1.4661 -3.2692  1.8238
  648MOL0     H87468  10.888   4.427   6.866 -0.5909 -0.4113  0.3960
  648MOL0     H87469  10.952   4.405   6.636  0.4673 -0.7460  3.1226
  648MOL0     H87470  11.064   4.505   6.459 -1.4495  2.7999  0.8621
  648MOL0     H87471  10.956   4.370   6.402 -1.4730  0.2245 -0.4815
  648MOL0     H87472  10.965   4.444   6.182  1.1721 -0.8398  1.1558
  648MOL0     H87473  11.129   4.453   6.229  0.5662  1.3818  0.2782
  648MOL0     H87474  11.103   4.697   6.278 -0.5701  1.7493  0.3244
  648MOL0     H87475  10.931   4.691   6.212  0.1704 -0.7099 -2.5311
  648MOL0     H87476  11.176   4.637   6.059  0.0405  2.0060  2.5850
  648MOL0     H87477  11.095   4.786   6.065 -2.2828  1.6818 -3.3343
  648MOL0     H87478  10.842   4.533   5.819  0.8664  0.1306 -4.1710
  648MOL0     H87479  10.672   4.705   6.528 -3.7916 -0.2226  1.8043
  648MOL0     H87480  10.586   4.703   6.751 -1.9754 -2.1434  0.1115
  649MOL0     O87481   7.033   7.763   2.631 -0.3035  0.2919  0.2424
  649MOL0     C87482   7.029   7.662   2.701 -0.8753  0.2176  0.5287
  649MOL0     O87483   7.112   7.631   2.811  0.4656 -0.2727  0.0835
  649MOL0     C87484   7.153   7.728   2.904  0.1825 -0.7023 -0.2397
  649MOL0     C87485   7.119   7.866   2.908  0.0441  0.7204  0.1579
  649MOL0     C87486   7.140   7.950   3.019 -1.2467  0.9929 -0.1021
  649MOL0     C87487   7.217   7.893   3.129 -0.2349 -0.6437 -0.2480
  649MOL0     O87488   7.249   7.963   3.248  1.0735 -0.0200 -0.0136
  649MOL0     C87489   7.122   7.997   3.323 -0.4813 -0.3554 -1.0067
  649MOL0     C87490   7.139   8.036   3.472 -0.7033 -0.0521 -0.1848
  649MOL0     C87491   7.243   7.931   3.523 -0.0381 -0.2343  0.9682
  649MOL0     C87492   7.225   7.904   3.678  0.0888 -0.6594  0.6300
  649MOL0     C87493   7.334   7.809   3.741 -0.1880  0.2042  1.2445
  649MOL0     C87494   7.312   7.785   3.897  0.2919  0.0817  0.7055
  649MOL0     C87495   7.398   7.871   3.986  0.4467  0.7962 -0.0509
  649MOL0     C87496   7.352   8.017   3.999 -0.4819  0.6967  1.1025
  649MOL0     N87497   7.220   8.020   4.063 -0.3217  0.6269 -0.1061
  649MOL0     C87498   7.201   7.960   4.184 -0.8112 -0.4249 -0.9622
  649MOL0     C87499   7.081   8.003   4.227  1.3089 -0.3022 -0.9716
  649MOL0     C87500   6.997   7.993   4.358  0.1784 -0.6837 -0.3335
  649MOL0     C87501   6.934   8.125   4.410 -0.7160 -0.3110 -0.1191
  649MOL0     C87502   7.017   8.208   4.517  0.2766 -0.1160  0.9148
  649MOL0     C87503   7.158   8.248   4.476  0.0815 -0.7541  0.0810
  649MOL0     O87504   7.244   8.134   4.491  0.3723  0.0628 -0.3540
  649MOL0     C87505   7.359   8.122   4.430  0.1775 -0.4805 -0.4421
  649MOL0     C87506   7.414   8.221   4.358 -0.9955  1.3241  1.0603
  649MOL0     C87507   7.531   8.202   4.285 -0.2366  0.4656  0.1810
  649MOL0     C87508   7.570   8.312   4.193  0.2548  0.0182  0.6716
  649MOL0     C87509   7.599   8.081   4.300  0.0614 -0.5388 -0.0305
  649MOL0     C87510   7.721   8.050   4.231  0.7291 -0.3204 -1.2089
  649MOL0     O87511   7.716   7.949   4.142  0.1601 -0.1820  0.0587
  649MOL0     C87512   7.819   7.920   4.064  0.3076 -0.0262  0.5184
  649MOL0     C87513   7.912   8.015   4.008 -0.7206  0.1057  0.0261
  649MOL0     C87514   8.003   7.960   3.914 -0.2771 -0.6146  0.7291
  649MOL0     C87515   8.013   7.837   3.862  0.1124  0.4822 -0.0114
  649MOL0     O87516   8.099   7.800   3.760 -0.4797 -0.1847  0.8683
  649MOL0     C87517   8.139   7.660   3.745 -0.2229  0.2756  0.2462
  649MOL0     C87518   8.227   7.655   3.615  0.1629  0.9335 -0.2592
  649MOL0     C87519   8.247   7.525   3.567  0.1775 -0.0687  0.1029
  649MOL0     C87520   8.383   7.472   3.516 -0.1065 -0.1765 -0.6953
  649MOL0     C87521   8.430   7.550   3.398 -0.9924 -0.8052  0.7301
  649MOL0     C87522   8.361   7.493   3.277 -0.1460 -0.1992  0.1061
  649MOL0     C87523   8.427   7.548   3.149 -0.4858 -0.0638 -0.4625
  649MOL0     C87524   8.419   7.448   3.037  0.7730 -0.0344 -1.5077
  649MOL0    Cl87525   8.466   7.512   2.874  0.0897  0.0161 -0.2563
  649MOL0     C87526   7.928   7.743   3.928  0.7587  0.5548 -0.6729
  649MOL0     C87527   7.830   7.784   4.029 -1.3269  0.3499 -0.6086
  649MOL0     O87528   7.810   8.111   4.283 -0.3012  0.0683 -0.9015
  649MOL0     C87529   7.545   7.980   4.379 -0.0516 -0.1205  0.2119
  649MOL0     C87530   7.427   7.999   4.450  0.2214  0.4422  0.3121
  649MOL0     N87531   7.016   8.069   4.128 -0.4636 -0.9456  0.6994
  649MOL0     N87532   7.104   8.088   4.031 -1.3966 -0.1823  0.3457
  649MOL0     C87533   7.266   7.766   3.114 -0.0173 -1.0110  0.2367
  649MOL0     C87534   7.239   7.684   2.996 -0.1602 -0.6851 -0.8816
  649MOL0     C87535   6.930   7.550   2.673  0.3794 -0.3949 -0.2481
  649MOL0     C87536   6.809   7.583   2.601 -0.5643 -0.1980  0.5249
  649MOL0     C87537   6.694   7.505   2.573 -0.2930  0.1875  0.7435
  649MOL0     C87538   6.698   7.370   2.625  0.4520 -0.4000  0.2244
  649MOL0     O87539   6.604   7.281   2.592 -0.2524 -0.0336  0.7156
  649MOL0     C87540   6.633   7.196   2.483  0.1661 -0.3351  0.2311
  649MOL0     C87541   6.633   7.275   2.347  0.3916  1.4175  0.5662
  649MOL0     C87542   6.496   7.308   2.278 -0.2703 -0.1084 -0.4719
  649MOL0     C87543   6.416   7.179   2.230 -0.0519 -0.1308  0.1954
  649MOL0     C87544   6.293   7.235   2.161  0.4735  0.6028  0.4540
  649MOL0     C87545   6.213   7.300   2.099  0.6123  0.3866  0.6705
  649MOL0     C87546   6.815   7.329   2.694  0.1491 -0.1170  0.0862
  649MOL0     C87547   6.922   7.413   2.718 -0.1970  0.2203  1.3068
  649MOL0     H87548   7.051   7.903   2.831  1.3413 -0.4602 -1.6147
  649MOL0     H87549   7.095   8.048   3.031 -2.4481  0.5719 -1.0301
  649MOL0     H87550   7.107   8.092   3.272  1.1509  0.4691 -0.0439
  649MOL0     H87551   7.043   7.922   3.312 -1.1076  0.3358 -1.2555
  649MOL0     H87552   7.160   8.143   3.480 -0.2875 -0.2116  1.0192
  649MOL0     H87553   7.045   8.023   3.525 -1.6998 -1.7004 -2.1964
  649MOL0     H87554   7.234   7.833   3.474  1.0695  0.4735 -0.7503
  649MOL0     H87555   7.346   7.962   3.503 -0.0335 -1.0196 -0.3471
  649MOL0     H87556   7.241   7.995   3.736 -0.9795 -1.1493  1.7241
  649MOL0     H87557   7.124   7.866   3.697 -0.6877  1.1034  0.2128
  649MOL0     H87558   7.326   7.711   3.694 -1.8845 -0.0497  1.9757
  649MOL0     H87559   7.435   7.848   3.722 -1.3905  1.7761 -3.3167
  649MOL0     H87560   7.207   7.779   3.927 -0.2908  0.0998 -1.2153
  649MOL0     H87561   7.359   7.686   3.902 -1.5431 -0.7914  1.2856
  649MOL0     H87562   7.409   7.821   4.083  0.4445  1.4432  0.2932
  649MOL0     H87563   7.504   7.869   3.957  0.4301 -1.0157 -0.0828
  649MOL0     H87564   7.332   8.064   3.902  0.9176 -0.2601  0.3168
  649MOL0     H87565   7.424   8.076   4.058 -1.6415 -0.2013  3.5512
  649MOL0     H87566   7.270   7.907   4.250 -2.9921 -0.1740  1.7085
  649MOL0     H87567   6.916   7.920   4.353 -0.3793 -0.3663  2.5686
  649MOL0     H87568   7.066   7.950   4.432 -0.5062 -1.3445 -0.0723
  649MOL0     H87569   6.849   8.098   4.473  0.7855 -1.8391  1.3347
  649MOL0     H87570   6.900   8.183   4.323 -0.8785 -2.2022 -1.3728
  649MOL0     H87571   7.017   8.156   4.613 -2.9598 -1.3635  0.3460
  649MOL0     H87572   6.965   8.304   4.525 -1.0736 -0.9078  1.9847
  649MOL0     H87573   7.201   8.323   4.543  1.8647 -2.8639  1.3885
  649MOL0     H87574   7.162   8.293   4.376 -0.6606  1.4195  0.9659
  649MOL0     H87575   7.362   8.315   4.343  1.8660  3.0486  1.2218
  649MOL0     H87576   7.671   8.346   4.216 -0.2021  0.4956  2.1107
  649MOL0     H87577   7.585   8.262   4.098  2.1987 -0.6850  1.3085
  649MOL0     H87578   7.492   8.388   4.176 -0.4412 -0.6144  0.9775
  649MOL0     H87579   7.898   8.122   4.020 -2.1603  0.2621 -2.4495
  649MOL0     H87580   8.061   8.035   3.861 -2.8907  1.5748  0.8011
  649MOL0     H87581   8.200   7.623   3.828  1.3964  1.0259 -0.5393
  649MOL0     H87582   8.049   7.599   3.744  0.3395 -0.5790 -0.2259
  649MOL0     H87583   8.185   7.723   3.540  2.7746  1.7276 -1.1376
  649MOL0     H87584   8.326   7.696   3.636 -0.7539  1.3623  4.4613
  649MOL0     H87585   8.180   7.517   3.481 -1.7180  0.5865  1.4508
  649MOL0     H87586   8.219   7.453   3.645 -0.5122  0.9072  0.7812
  649MOL0     H87587   8.458   7.473   3.595  0.4654  2.9787 -1.1409
  649MOL0     H87588   8.369   7.365   3.498  0.9565 -0.0363 -2.5496
  649MOL0     H87589   8.537   7.535   3.387 -0.4363  1.4367  2.3431
  649MOL0     H87590   8.406   7.656   3.408 -0.9088 -0.5867 -1.0468
  649MOL0     H87591   8.384   7.386   3.283 -1.8196 -1.0174 -4.1455
  649MOL0     H87592   8.252   7.504   3.273 -0.7753 -4.0193  2.0676
  649MOL0     H87593   8.530   7.580   3.163 -1.1323  1.6550  0.6995
  649MOL0     H87594   8.380   7.643   3.120  0.1695  1.0562  1.8800
  649MOL0     H87595   8.319   7.402   3.043 -0.5385  2.7849  2.4839
  649MOL0     H87596   8.488   7.367   3.061 -0.7807 -1.8935 -2.9760
  649MOL0     H87597   7.935   7.634   3.923  0.9775  0.5049  0.4921
  649MOL0     H87598   7.778   7.717   4.096 -0.0545 -0.1962 -0.1308
  649MOL0     H87599   7.595   7.885   4.396  1.1695  1.0553  4.6309
  649MOL0     H87600   7.380   7.924   4.512 -2.3037 -0.4037 -2.3770
  649MOL0     H87601   7.332   7.716   3.183  1.0544  0.3344  0.2266
  649MOL0     H87602   7.272   7.580   2.999 -0.5908 -0.8114  0.9932
  649MOL0     H87603   6.797   7.684   2.563  2.0211 -0.5107 -1.3533
  649MOL0     H87604   6.604   7.531   2.519 -1.2654 -1.0323  1.7388
  649MOL0     H87605   6.725   7.140   2.499  2.6366  3.2161 -0.3660
  649MOL0     H87606   6.552   7.123   2.474  0.2290 -0.5667  1.3337
  649MOL0     H87607   6.684   7.209   2.277 -4.1123 -2.1871  0.1822
  649MOL0     H87608   6.682   7.372   2.353  1.9430  0.7589 -0.7495
  649MOL0     H87609   6.512   7.381   2.198  1.7776 -2.2207 -2.1252
  649MOL0     H87610   6.438   7.361   2.353  0.2380  0.6320 -0.5913
  649MOL0     H87611   6.396   7.121   2.321  2.9878 -0.7976  0.5488
  649MOL0     H87612   6.467   7.111   2.162 -2.7643 -0.3613 -1.8004
  649MOL0     H87613   6.134   7.349   2.046  0.2430 -0.2965  0.5712
  649MOL0     H87614   6.833   7.230   2.734  0.6921 -0.4204 -0.8858
  649MOL0     H87615   7.001   7.379   2.784  2.2375  3.2498  0.2463
  650MOL0     O87616   3.259  10.253   7.740 -0.1193 -0.9681  0.0559
  650MOL0     C87617   3.135  10.256   7.722 -0.3147 -0.0123  0.0435
  650MOL0     O87618   3.044  10.255   7.820 -0.2016 -0.6002  0.4848
  650MOL0     C87619   3.085  10.253   7.952 -0.1088 -1.0375 -0.5937
  650MOL0     C87620   3.061  10.138   8.017 -0.5706  0.0556  0.0982
  650MOL0     C87621   3.106  10.125   8.151  0.7824  0.5737 -0.7404
  650MOL0     C87622   3.162  10.228   8.222  0.8707 -0.6628 -0.2014
  650MOL0     O87623   3.208  10.213   8.352 -0.3280 -0.3576  0.0097
  650MOL0     C87624   3.239  10.325   8.438  0.4170  0.2013  0.1256
  650MOL0     C87625   3.317  10.305   8.571  0.0713  0.0107 -0.2886
  650MOL0     C87626   3.224  10.280   8.696 -0.6227 -1.0298 -0.2866
  650MOL0     C87627   3.099  10.182   8.673 -1.0831  0.6442 -0.9165
  650MOL0     C87628   3.023  10.141   8.802  0.4796 -0.7628 -0.3515
  650MOL0     C87629   2.946  10.254   8.870  0.0926 -0.8188  0.3237
  650MOL0     C87630   2.855  10.339   8.771  1.6300  0.7440  0.7365
  650MOL0     C87631   2.763  10.413   8.863  0.3522 -0.3794  1.2153
  650MOL0     N87632   2.846  10.517   8.933  0.0018 -0.0046  0.3532
  650MOL0     C87633   2.916  10.612   8.867 -0.6908 -0.4657  0.0184
  650MOL0     C87634   2.958  10.709   8.953  0.3052  0.9263  0.3957
  650MOL0     C87635   3.036  10.827   8.907  0.1145 -0.3310  0.2995
  650MOL0     C87636   3.164  10.779   8.835  0.2511 -0.4824  0.5525
  650MOL0     C87637   3.280  10.746   8.924 -0.1100 -0.0913  1.0854
  650MOL0     C87638   3.396  10.688   8.840 -0.4770  0.1114 -0.7879
  650MOL0     O87639   3.458  10.792   8.757 -0.0867 -0.6391 -0.5158
  650MOL0     C87640   3.564  10.743   8.693  1.1471  0.2334  0.6656
  650MOL0     C87641   3.651  10.831   8.642  0.3830 -0.4235 -0.0967
  650MOL0     C87642   3.755  10.790   8.557  0.3694 -0.1205  0.9451
  650MOL0     C87643   3.857  10.898   8.520 -0.2309  0.3439  0.0139
  650MOL0     C87644   3.783  10.656   8.525 -0.4266  0.2523 -0.2669
  650MOL0     C87645   3.889  10.606   8.436  0.0371 -0.3158 -0.3922
  650MOL0     O87646   3.946  10.487   8.458  0.2406 -0.8456 -0.4321
  650MOL0     C87647   4.042  10.440   8.370  0.4844  0.4500 -0.1729
  650MOL0     C87648   4.016  10.440   8.231  1.0614 -0.3994  0.5596
  650MOL0     C87649   4.104  10.390   8.141 -1.2687  1.0948 -0.4696
  650MOL0     C87650   4.222  10.319   8.193 -0.3826 -0.2734 -0.1637
  650MOL0     O87651   4.306  10.275   8.102  0.5680  0.1563  0.8537
  650MOL0     C87652   4.448  10.284   8.137  0.1697  0.3234  0.5282
  650MOL0     C87653   4.518  10.229   8.010 -0.3703  0.6722  0.0615
  650MOL0     C87654   4.472  10.084   7.964  0.2665  0.4964 -0.2061
  650MOL0     C87655   4.558  10.032   7.849 -0.1862  1.4128 -0.3579
  650MOL0     C87656   4.496   9.908   7.791 -0.1303 -0.3523 -0.4391
  650MOL0     C87657   4.587   9.824   7.702  0.6797  0.7987 -1.0987
  650MOL0     C87658   4.521   9.689   7.682 -0.1509 -0.0251  0.1751
  650MOL0     C87659   4.623   9.586   7.635  0.7090 -0.7391  0.3688
  650MOL0    Cl87660   4.721   9.648   7.504  0.2411 -0.1780  0.1842
  650MOL0     C87661   4.249  10.315   8.331  0.3633 -0.5406 -0.4415
  650MOL0     C87662   4.154  10.363   8.418 -0.1946  0.8395  0.9936
  650MOL0     O87663   3.912  10.684   8.342 -0.3489  0.6050 -0.3674
  650MOL0     C87664   3.693  10.562   8.577  0.9015 -0.6403  0.7129
  650MOL0     C87665   3.586  10.606   8.655 -0.3760  0.5357 -1.0370
  650MOL0     N87666   2.921  10.668   9.078 -0.1268  0.1706 -0.4048
  650MOL0     N87667   2.850  10.558   9.064  0.4782 -0.0163  0.7652
  650MOL0     C87668   3.172  10.346   8.153 -1.0466 -0.6177 -0.1854
  650MOL0     C87669   3.143  10.367   8.019 -0.2684 -0.0783  0.1098
  650MOL0     C87670   3.080  10.252   7.577  0.0365 -0.4457 -0.3575
  650MOL0     C87671   2.938  10.234   7.553 -0.4623 -1.4064 -0.0196
  650MOL0     C87672   2.891  10.234   7.427  0.4586 -0.0759  0.0623
  650MOL0     C87673   2.970  10.244   7.319  0.2004  0.0578  0.2204
  650MOL0     O87674   2.905  10.245   7.198  0.7022  0.3693 -0.6361
  650MOL0     C87675   2.965  10.200   7.076  0.1299  0.8177  0.9106
  650MOL0     C87676   2.865  10.138   6.985  0.5594  0.1009  0.0399
  650MOL0     C87677   2.773  10.251   6.923  0.7637 -0.1460  1.0106
  650MOL0     C87678   2.841  10.347   6.825 -0.5590  0.6170 -0.6418
  650MOL0     C87679   2.753  10.469   6.819  0.2599  0.9753 -0.9823
  650MOL0     C87680   2.682  10.569   6.814 -0.3278  0.5035 -0.5525
  650MOL0     C87681   3.109  10.244   7.335 -0.3651 -0.5915 -0.5136
  650MOL0     C87682   3.160  10.251   7.464 -0.7098 -0.4797 -0.0638
  650MOL0     H87683   3.027  10.050   7.962 -0.6071 -0.7852  1.4099
  650MOL0     H87684   3.102  10.034   8.210  2.1535 -0.0087 -1.4966
  650MOL0     H87685   3.304  10.395   8.385  3.3787  1.5715  4.9702
  650MOL0     H87686   3.154  10.389   8.462  1.1848  1.9206 -1.4939
  650MOL0     H87687   3.379  10.218   8.551 -1.2435 -0.6603 -1.6374
  650MOL0     H87688   3.384  10.390   8.584  0.1131  0.2898 -2.0755
  650MOL0     H87689   3.287  10.246   8.779 -0.1105  0.6712  0.0527
  650MOL0     H87690   3.182  10.376   8.726  0.8850 -0.6437  0.6964
  650MOL0     H87691   3.032  10.234   8.603 -1.0526  2.4358  0.3242
  650MOL0     H87692   3.134  10.088   8.629 -0.6328  0.7902 -0.8701
  650MOL0     H87693   2.954  10.059   8.778 -0.8278 -0.0357  0.7833
  650MOL0     H87694   3.095  10.099   8.872  2.1088 -2.0281 -2.6421
  650MOL0     H87695   2.887  10.206   8.949 -1.5913  0.2874 -0.1962
  650MOL0     H87696   3.021  10.316   8.919  2.0564  1.9578 -5.3462
  650MOL0     H87697   2.912  10.401   8.702 -1.0660  3.3206  0.6427
  650MOL0     H87698   2.795  10.268   8.714  3.4487 -0.4173  0.1785
  650MOL0     H87699   2.721  10.340   8.933  1.9394 -1.4159  1.1323
  650MOL0     H87700   2.680  10.466   8.817  0.3780 -0.5076  1.0202
  650MOL0     H87701   2.912  10.629   8.759  1.2296  2.2508  0.2570
  650MOL0     H87702   2.975  10.885   8.837 -0.4107  1.2263  1.9407
  650MOL0     H87703   3.061  10.888   8.995  1.6045 -0.6541  0.1273
  650MOL0     H87704   3.198  10.856   8.765  1.7592 -3.4338 -2.2053
  650MOL0     H87705   3.142  10.694   8.770  1.5698  0.4086 -1.1495
  650MOL0     H87706   3.258  10.663   8.991 -0.6560  0.2698  1.3633
  650MOL0     H87707   3.310  10.829   8.988  2.8869  1.9653 -2.5932
  650MOL0     H87708   3.354  10.609   8.778 -3.2480  1.5705 -0.9585
  650MOL0     H87709   3.467  10.651   8.915 -3.2969 -0.8607  1.5875
  650MOL0     H87710   3.647  10.934   8.675 -1.4225  0.6107 -3.1251
  650MOL0     H87711   3.961  10.864   8.525 -0.8746 -2.0696 -1.5721
  650MOL0     H87712   3.848  10.942   8.420 -0.3370  1.5421  0.5266
  650MOL0     H87713   3.850  10.977   8.595  1.1609 -0.9872  1.6334
  650MOL0     H87714   3.933  10.504   8.201 -0.1705 -1.9835  0.4631
  650MOL0     H87715   4.104  10.408   8.034 -1.9606 -5.1743 -1.9233
  650MOL0     H87716   4.468  10.391   8.146 -1.6916  0.6975  0.6329
  650MOL0     H87717   4.477  10.226   8.225  3.3793  0.4845 -0.3217
  650MOL0     H87718   4.510  10.295   7.923  2.2064 -2.6091 -2.9993
  650MOL0     H87719   4.625  10.228   8.032 -0.1937  1.2007 -0.7234
  650MOL0     H87720   4.369  10.087   7.929 -0.1202 -0.0301  0.8530
  650MOL0     H87721   4.472  10.009   8.044 -0.2414  1.4309  0.6858
  650MOL0     H87722   4.574  10.111   7.776 -0.2774  2.4605  0.7232
  650MOL0     H87723   4.655  10.001   7.890 -1.2428 -1.8671 -0.0756
  650MOL0     H87724   4.412   9.944   7.731 -1.5526  1.0627  2.2092
  650MOL0     H87725   4.454   9.848   7.872 -0.1156  0.6343  0.3129
  650MOL0     H87726   4.599   9.856   7.598 -0.1327 -1.5581 -1.9832
  650MOL0     H87727   4.683   9.814   7.754 -0.2506 -6.0094  0.2547
  650MOL0     H87728   4.445   9.706   7.606  0.1382 -1.2787 -0.4055
  650MOL0     H87729   4.473   9.653   7.774 -3.6970  2.5567 -0.4565
  650MOL0     H87730   4.555   9.506   7.602  0.4269  0.4780 -2.2370
  650MOL0     H87731   4.695   9.549   7.709 -0.5028 -1.3152  1.2958
  650MOL0     H87732   4.340  10.273   8.373 -0.0026  1.1591  2.2901
  650MOL0     H87733   4.189  10.369   8.521 -1.0814 -0.1128  1.3739
  650MOL0     H87734   3.711  10.457   8.555  0.3671 -0.5496 -0.2318
  650MOL0     H87735   3.508  10.535   8.681  0.4111  0.6207  1.8587
  650MOL0     H87736   3.226  10.432   8.190  0.2815  0.0443 -3.3368
  650MOL0     H87737   3.187  10.451   7.966  0.6883 -0.5969  0.0657
  650MOL0     H87738   2.863  10.219   7.630  1.3071 -2.3670  1.6283
  650MOL0     H87739   2.787  10.218   7.400  1.2680  0.3478 -4.0043
  650MOL0     H87740   3.015  10.285   7.028 -2.6334  1.8181 -0.4196
  650MOL0     H87741   3.048  10.133   7.098  0.4978  1.5065  1.6804
  650MOL0     H87742   2.823  10.066   7.057  1.6440 -1.3927 -0.7530
  650MOL0     H87743   2.913  10.087   6.901  0.9079  3.0744 -1.6971
  650MOL0     H87744   2.729  10.304   7.008 -0.5746 -0.0056  0.2485
  650MOL0     H87745   2.690  10.191   6.885  0.0068  0.7351  1.2347
  650MOL0     H87746   2.855  10.292   6.732  1.2014 -0.8857  0.4429
  650MOL0     H87747   2.941  10.376   6.859 -0.6084  1.1104 -0.9043
  650MOL0     H87748   2.630  10.663   6.807 -0.8830  0.2691  0.2158
  650MOL0     H87749   3.180  10.258   7.254 -2.5477 -2.7776 -2.9938
  650MOL0     H87750   3.266  10.266   7.482 -0.5297 -3.0620  1.6066
  651MOL0     O87751   0.094   6.155   9.553  0.3942  0.3912  0.4522
  651MOL0     C87752   0.175   6.228   9.515 -0.2041  0.8891 -0.3572
  651MOL0     O87753   0.218   6.334   9.585 -0.0181 -0.4048 -0.4644
  651MOL0     C87754   0.198   6.352   9.727  0.6133 -0.1178  0.9773
  651MOL0     C87755   0.274   6.458   9.784  0.5558 -0.7794 -0.2771
  651MOL0     C87756   0.256   6.493   9.920 -0.1679 -0.0000  0.4493
  651MOL0     C87757   0.163   6.433  10.003 -0.2040 -0.6145  0.2931
  651MOL0     O87758   0.139   6.491  10.128 -0.1501  0.2212  0.3021
  651MOL0     C87759   0.117   6.403  10.240 -0.4048  0.1956  0.0003
  651MOL0     C87760   0.242   6.313  10.270  0.8241  0.0137  0.7374
  651MOL0     C87761   0.361   6.393  10.320 -1.0054 -0.5564  0.0457
  651MOL0     C87762   0.444   6.324  10.410 -0.2354  0.1877  0.0192
  651MOL0     C87763   0.548   6.411  10.478  0.0911 -0.5364 -0.3062
  651MOL0     C87764   0.649   6.345  10.576 -0.5119 -0.9893  1.4052
  651MOL0     C87765   0.756   6.435  10.637 -0.4742 -0.8624  0.5553
  651MOL0     C87766   0.865   6.470  10.530  0.2091 -0.8629  0.1267
  651MOL0     N87767   0.966   6.568  10.584 -0.1929  0.0960  0.5316
  651MOL0     C87768   1.054   6.562  10.692 -0.4916 -0.0049 -1.2116
  651MOL0     C87769   1.144   6.659  10.684  0.7175 -0.5071 -0.1607
  651MOL0     C87770   1.242   6.689  10.798 -0.1266 -0.1474 -0.2539
  651MOL0     C87771   1.335   6.579  10.820 -0.0575  0.8044 -0.3279
  651MOL0     C87772   1.448   6.574  10.721 -0.5309 -0.8755 -0.9308
  651MOL0     C87773   1.514   6.434  10.697 -1.2357 -0.4922  0.2013
  651MOL0     O87774   1.426   6.324  10.703  0.7186 -0.4422  0.5142
  651MOL0     C87775   1.339   6.306  10.597  0.3928  0.5049 -0.3129
  651MOL0     C87776   1.346   6.377  10.480  0.4043 -0.5930  0.1498
  651MOL0     C87777   1.259   6.341  10.376  0.1080  0.3520  0.6654
  651MOL0     C87778   1.287   6.424  10.252  0.7407  0.6265  1.1213
  651MOL0     C87779   1.162   6.233  10.382 -0.2463  0.7261 -0.2251
  651MOL0     C87780   1.090   6.168  10.267 -0.6839  0.3555  0.1406
  651MOL0     O87781   0.992   6.087  10.297  0.0791  0.8761  0.5008
  651MOL0     C87782   0.892   6.069  10.217 -0.1894  0.6647  0.0431
  651MOL0     C87783   0.800   6.165  10.205  0.4915  0.1252 -0.3605
  651MOL0     C87784   0.694   6.154  10.108  0.2531 -0.0155 -0.5415
  651MOL0     C87785   0.671   6.044  10.023 -0.1184  0.6810  1.1529
  651MOL0     O87786   0.568   6.033   9.932 -0.2428 -0.0914 -0.9073
  651MOL0     C87787   0.442   6.066   9.994 -0.5546  0.6114  0.2541
  651MOL0     C87788   0.339   6.040   9.880 -0.2390  0.1794  0.3260
  651MOL0     C87789   0.336   5.898   9.847  0.5714  0.6306  0.4024
  651MOL0     C87790   0.227   5.861   9.742 -0.2362 -0.4635  0.5404
  651MOL0     C87791   0.291   5.864   9.599 -0.0589 -0.6176 -0.5137
  651MOL0     C87792   0.189   5.801   9.503  0.9659 -0.1787 -0.4244
  651MOL0     C87793   0.242   5.793   9.364  0.1398 -0.4481 -1.2511
  651MOL0     C87794   0.139   5.718   9.272 -0.6139 -0.6532 -0.5428
  651MOL0    Cl87795   0.116   5.550   9.323 -0.5169 -0.3068  0.1268
  651MOL0     C87796   0.772   5.943  10.043  0.0138  0.0534  0.2823
  651MOL0     C87797   0.884   5.956  10.128  0.8295 -0.1392  0.4162
  651MOL0     O87798   1.131   6.190  10.157  0.2506 -0.4709 -0.0992
  651MOL0     C87799   1.142   6.182  10.511 -0.2753 -0.0568 -0.4471
  651MOL0     C87800   1.229   6.210  10.621 -0.2821 -0.5126 -0.4778
  651MOL0     N87801   1.095   6.741  10.588  0.2432 -0.0405 -0.2924
  651MOL0     N87802   0.983   6.687  10.533 -0.9323  0.0648 -0.9964
  651MOL0     C87803   0.107   6.316   9.952 -0.0038 -0.3267 -0.4220
  651MOL0     C87804   0.103   6.288   9.811  0.4973 -0.8434 -0.4705
  651MOL0     C87805   0.228   6.219   9.380  0.0777  0.0599 -0.0644
  651MOL0     C87806   0.185   6.126   9.288 -0.6038 -1.2558 -0.6953
  651MOL0     C87807   0.228   6.140   9.157 -0.4571 -0.4352  0.5367
  651MOL0     C87808   0.307   6.240   9.110 -1.4325  0.7826 -0.1494
  651MOL0     O87809   0.350   6.236   8.975 -0.5268  0.3935 -0.0180
  651MOL0     C87810   0.476   6.289   8.946 -0.6493  0.2210 -0.1296
  651MOL0     C87811   0.597   6.184   8.934  0.1407 -0.4533  0.7528
  651MOL0     C87812   0.574   6.097   8.809 -0.0400 -0.4512  0.4209
  651MOL0     C87813   0.582   6.174   8.674  0.3156 -0.5913  0.4091
  651MOL0     C87814   0.704   6.240   8.644  0.4206  0.3040  0.0290
  651MOL0     C87815   0.807   6.292   8.607 -0.6539  0.9151  0.7754
  651MOL0     C87816   0.352   6.335   9.205  0.1746  0.0199 -0.6781
  651MOL0     C87817   0.312   6.327   9.340  0.2184 -0.2830 -0.1132
  651MOL0     H87818   0.334   6.514   9.714  1.2676 -1.6904 -0.4093
  651MOL0     H87819   0.302   6.588   9.943 -0.7753  1.1961 -2.7038
  651MOL0     H87820   0.096   6.460  10.331 -0.0285 -1.7575  1.3886
  651MOL0     H87821   0.037   6.332  10.218  2.7399 -5.1457  3.4207
  651MOL0     H87822   0.207   6.247  10.350 -0.7504 -0.0148  0.0583
  651MOL0     H87823   0.266   6.247  10.186 -2.3353  1.1548 -1.2236
  651MOL0     H87824   0.436   6.406  10.241  1.4759 -0.4125  2.2914
  651MOL0     H87825   0.331   6.487  10.368  1.9551 -0.0316  1.0722
  651MOL0     H87826   0.384   6.271  10.485  0.5098  0.7061  0.9981
  651MOL0     H87827   0.500   6.245  10.359 -0.1741 -1.3799  2.3482
  651MOL0     H87828   0.595   6.463  10.394 -4.6845  0.5381 -2.6736
  651MOL0     H87829   0.496   6.488  10.535 -1.0784 -1.9511  0.6114
  651MOL0     H87830   0.599   6.294  10.658 -1.0476 -1.4424  0.8109
  651MOL0     H87831   0.699   6.270  10.513  0.7053  2.7282 -2.5787
  651MOL0     H87832   0.711   6.526  10.679 -1.8326  0.2997 -3.0016
  651MOL0     H87833   0.811   6.377  10.711  2.6578  0.8402 -0.2710
  651MOL0     H87834   0.816   6.517  10.445 -2.4377 -1.6024  1.1315
  651MOL0     H87835   0.904   6.377  10.487  0.8038 -0.1529 -0.9004
  651MOL0     H87836   1.057   6.481  10.765  1.5116 -0.9695 -2.2856
  651MOL0     H87837   1.289   6.786  10.782  0.0698  0.1791  2.0855
  651MOL0     H87838   1.168   6.693  10.878  1.7144  1.4506  1.4576
  651MOL0     H87839   1.285   6.487  10.791 -1.3500  1.7890 -1.3261
  651MOL0     H87840   1.374   6.572  10.923  1.2939  1.6050 -0.7579
  651MOL0     H87841   1.520   6.649  10.754 -1.1087 -0.4264 -0.6631
  651MOL0     H87842   1.408   6.600  10.623 -0.0283  3.4477 -0.1689
  651MOL0     H87843   1.594   6.428  10.772  0.1230  1.1942 -1.0493
  651MOL0     H87844   1.568   6.437  10.602 -0.4333 -0.2151  0.6557
  651MOL0     H87845   1.422   6.452  10.459  0.0974 -1.5516 -6.0497
  651MOL0     H87846   1.198   6.478  10.217  0.6931 -0.4505 -0.5341
  651MOL0     H87847   1.376   6.487  10.259 -0.1447  2.4480 -1.8386
  651MOL0     H87848   1.307   6.350  10.174 -3.2743  0.3980  0.0829
  651MOL0     H87849   0.821   6.243  10.277 -3.0252 -0.9533  2.1546
  651MOL0     H87850   0.631   6.241  10.103 -0.7265 -0.7622 -2.0609
  651MOL0     H87851   0.425   6.002  10.081 -2.9901  0.6128 -0.1709
  651MOL0     H87852   0.440   6.172  10.024 -1.4379  0.5445  0.4403
  651MOL0     H87853   0.237   6.074   9.898 -0.0750  0.8607 -0.0044
  651MOL0     H87854   0.362   6.094   9.788 -3.5695 -1.7456 -1.8354
  651MOL0     H87855   0.305   5.844   9.936 -0.6260  0.9770  0.2191
  651MOL0     H87856   0.439   5.867   9.824  0.1581  0.1415 -0.8644
  651MOL0     H87857   0.194   5.760   9.768 -0.4797 -1.5358 -3.3258
  651MOL0     H87858   0.141   5.927   9.750  0.7150  1.6066 -3.3845
  651MOL0     H87859   0.377   5.797   9.607  0.5666 -0.1206 -2.5332
  651MOL0     H87860   0.338   5.956   9.564 -0.6258 -0.3777 -0.6638
  651MOL0     H87861   0.192   5.702   9.549  1.9963 -1.6535 -3.3776
  651MOL0     H87862   0.093   5.849   9.522  1.5202  1.0388 -0.5873
  651MOL0     H87863   0.333   5.733   9.372  1.8085  2.2079  1.2618
  651MOL0     H87864   0.263   5.894   9.328  1.9664 -0.2945  0.0992
  651MOL0     H87865   0.178   5.721   9.170 -0.4871  0.3640 -0.4783
  651MOL0     H87866   0.041   5.767   9.281 -0.4923 -0.6650  1.2045
  651MOL0     H87867   0.771   5.852   9.983  0.7601  0.7850 -0.8654
  651MOL0     H87868   0.959   5.879  10.139  1.2885  0.2872  0.2784
  651MOL0     H87869   1.061   6.111  10.525 -0.6236  0.6546  1.3549
  651MOL0     H87870   1.210   6.167  10.718  0.4280 -0.4064 -0.2880
  651MOL0     H87871   0.045   6.245  10.007 -2.2378  1.1206 -0.9339
  651MOL0     H87872   0.051   6.202   9.771 -2.0263 -0.5405  1.9086
  651MOL0     H87873   0.116   6.044   9.306 -2.2236  0.5796  2.1051
  651MOL0     H87874   0.201   6.063   9.086  0.4884  0.2497 -0.5930
  651MOL0     H87875   0.470   6.338   8.849  0.2516 -2.3531 -1.5832
  651MOL0     H87876   0.506   6.372   9.011 -1.9679  2.2256 -1.9470
  651MOL0     H87877   0.594   6.113   9.017 -2.5468 -1.6808 -0.2662
  651MOL0     H87878   0.691   6.240   8.939 -0.0422 -0.2829  3.5798
  651MOL0     H87879   0.478   6.047   8.824 -0.2719  0.0237  0.5325
  651MOL0     H87880   0.652   6.020   8.801 -0.2939 -0.9456  2.1644
  651MOL0     H87881   0.498   6.243   8.657  0.7221 -0.3545 -0.7284
  651MOL0     H87882   0.578   6.097   8.596 -1.3400 -0.0831 -0.0375
  651MOL0     H87883   0.902   6.333   8.578 -0.3307  1.3924  2.3927
  651MOL0     H87884   0.402   6.427   9.178  1.5950 -0.0478  1.4692
  651MOL0     H87885   0.360   6.403   9.401  1.1740  1.9294 -3.3568
  652MOL0     O87886   1.468   4.258   7.751 -0.6089 -0.4206  0.2204
  652MOL0     C87887   1.346   4.257   7.784  0.8242 -0.0242 -0.3580
  652MOL0     O87888   1.277   4.312   7.887 -0.3071 -1.0861  0.6468
  652MOL0     C87889   1.355   4.368   7.981 -0.1112 -0.5317  0.4916
  652MOL0     C87890   1.421   4.487   7.974 -0.4260 -0.2209 -0.5912
  652MOL0     C87891   1.510   4.535   8.083  0.4420 -0.7523 -0.8839
  652MOL0     C87892   1.519   4.463   8.202 -0.8591 -0.5560 -0.0932
  652MOL0     O87893   1.604   4.498   8.302 -0.1395 -0.2108  0.3050
  652MOL0     C87894   1.577   4.621   8.372  0.0285 -0.3418 -0.3089
  652MOL0     C87895   1.627   4.613   8.510  0.9947  0.5283  0.0692
  652MOL0     C87896   1.543   4.497   8.585  0.8162 -0.6113 -0.6012
  652MOL0     C87897   1.570   4.493   8.736  1.2527  0.8609  0.6162
  652MOL0     C87898   1.477   4.372   8.783 -0.1695  0.9795  0.3193
  652MOL0     C87899   1.508   4.336   8.933  0.0741 -0.5067  0.4531
  652MOL0     C87900   1.441   4.207   8.982  1.4111  0.0914 -0.0733
  652MOL0     C87901   1.478   4.180   9.132 -0.4445 -0.1296 -0.6514
  652MOL0     N87902   1.393   4.230   9.242 -0.2999 -0.0062  0.1637
  652MOL0     C87903   1.254   4.228   9.245 -0.7906 -0.1446  0.1489
  652MOL0     C87904   1.217   4.320   9.329  0.4492 -0.2588 -0.5664
  652MOL0     C87905   1.071   4.353   9.370  0.3424 -0.2214 -0.2494
  652MOL0     C87906   1.020   4.489   9.315  0.1901 -0.1464  0.7233
  652MOL0     C87907   0.867   4.497   9.330 -0.4064  0.2416 -0.3442
  652MOL0     C87908   0.827   4.564   9.463  0.6672  0.0718  0.0024
  652MOL0     O87909   0.827   4.474   9.571  0.2233 -0.5324 -0.0711
  652MOL0     C87910   0.740   4.365   9.579  0.1487 -0.4801  0.8736
  652MOL0     C87911   0.797   4.252   9.624  0.1809 -0.7980  0.3161
  652MOL0     C87912   0.731   4.130   9.606 -0.8273  0.2547  0.0421
  652MOL0     C87913   0.813   4.009   9.646 -0.2513 -0.5229 -0.0336
  652MOL0     C87914   0.604   4.126   9.545 -0.4776 -0.2675  0.2244
  652MOL0     C87915   0.536   3.998   9.526 -0.1789 -0.3369  0.4742
  652MOL0     O87916   0.404   3.994   9.563 -0.0733  0.7364 -0.4840
  652MOL0     C87917   0.354   3.875   9.590  0.4379  0.6574 -0.0904
  652MOL0     C87918   0.302   3.795   9.488  0.2897 -0.3538 -0.0498
  652MOL0     C87919   0.237   3.679   9.513  0.6350  0.2144 -0.0691
  652MOL0     C87920   0.199   3.646   9.648  0.9063  0.8202 -0.8012
  652MOL0     O87921   0.125   3.531   9.663  0.6215  0.2771  0.5805
  652MOL0     C87922  -0.013   3.534   9.631  0.0715  0.2910  0.2258
  652MOL0     C87923  -0.101   3.469   9.735  1.0034  0.1113 -0.0206
  652MOL0     C87924  -0.126   3.550   9.861  0.3678 -0.3195 -0.3545
  652MOL0     C87925  -0.107   3.478  10.001  0.2277  0.0095  0.1529
  652MOL0     C87926  -0.086   3.582  10.124  0.2372  0.3526 -0.2275
  652MOL0     C87927  -0.058   3.515  10.257  0.7495 -0.9224 -0.4869
  652MOL0     C87928  -0.190   3.458  10.332 -0.9347  0.4556  0.0651
  652MOL0     C87929  -0.280   3.571  10.409 -0.4381  0.3328 -0.6114
  652MOL0    Cl87930  -0.397   3.664  10.304 -0.2667 -0.0243  0.3555
  652MOL0     C87931   0.251   3.719   9.752  0.5061 -0.2348  0.4704
  652MOL0     C87932   0.329   3.833   9.723 -0.5770  0.7346 -0.2257
  652MOL0     O87933   0.603   3.906   9.476  0.3982  0.9068 -0.2577
  652MOL0     C87934   0.538   4.253   9.515 -0.1091 -0.1451  0.0916
  652MOL0     C87935   0.608   4.364   9.529 -0.4527 -0.1074 -0.0941
  652MOL0     N87936   1.324   4.388   9.375 -0.3168  0.6537  0.0821
  652MOL0     N87937   1.426   4.336   9.317 -0.7205 -0.4474 -0.1051
  652MOL0     C87938   1.445   4.338   8.208 -0.6839 -0.4840 -0.9154
  652MOL0     C87939   1.366   4.290   8.103 -0.1289 -1.1709  0.4181
  652MOL0     C87940   1.259   4.189   7.689 -0.2468  0.7941 -0.7402
  652MOL0     C87941   1.322   4.097   7.591 -0.5571  0.6201 -0.2963
  652MOL0     C87942   1.245   4.013   7.510 -0.7313 -0.2757  0.5644
  652MOL0     C87943   1.100   4.022   7.518  0.0368 -0.4749  0.2547
  652MOL0     O87944   1.005   3.968   7.438  0.1449  1.0857 -0.2866
  652MOL0     C87945   1.039   3.849   7.372 -0.0460  0.3983  0.9463
  652MOL0     C87946   0.916   3.779   7.323 -0.7049 -0.6860  0.8677
  652MOL0     C87947   0.815   3.745   7.426 -0.4812  0.5577 -0.2577
  652MOL0     C87948   0.707   3.845   7.433  0.3792 -0.0716 -0.6525
  652MOL0     C87949   0.589   3.798   7.514  0.9104 -0.1938 -0.5192
  652MOL0     C87950   0.503   3.755   7.594 -0.2842 -0.1111  1.5430
  652MOL0     C87951   1.042   4.106   7.610 -0.2608  0.6589 -0.6296
  652MOL0     C87952   1.123   4.183   7.697  0.6907  0.6673 -0.2659
  652MOL0     H87953   1.410   4.552   7.888 -0.6096  1.0696  0.3948
  652MOL0     H87954   1.562   4.630   8.078  0.7433 -0.8850 -0.2742
  652MOL0     H87955   1.639   4.702   8.330 -0.8042  0.4160 -0.1051
  652MOL0     H87956   1.475   4.656   8.352  1.2148  1.9895 -3.0827
  652MOL0     H87957   1.735   4.596   8.504  0.4339 -5.1334  1.2089
  652MOL0     H87958   1.608   4.712   8.553  2.2295  1.4399 -1.3903
  652MOL0     H87959   1.437   4.517   8.573  0.7745 -0.6148 -0.2564
  652MOL0     H87960   1.561   4.403   8.532 -1.7056 -0.5509 -1.6654
  652MOL0     H87961   1.672   4.468   8.768  2.7551  4.9480 -0.2881
  652MOL0     H87962   1.544   4.583   8.793 -1.4634 -1.5177  3.4928
  652MOL0     H87963   1.369   4.392   8.783 -0.4406 -0.1646  2.3835
  652MOL0     H87964   1.512   4.285   8.727  0.6995  0.9167  0.9486
  652MOL0     H87965   1.614   4.320   8.955  0.5181  1.9214  0.4450
  652MOL0     H87966   1.477   4.418   8.998 -1.9907 -0.7913 -0.1151
  652MOL0     H87967   1.333   4.217   8.979  1.6511  3.5097 -0.5689
  652MOL0     H87968   1.470   4.123   8.917 -1.6340 -0.6761 -0.6062
  652MOL0     H87969   1.580   4.220   9.137 -0.0056 -0.7854 -2.9044
  652MOL0     H87970   1.489   4.072   9.146  1.7878  0.2214  0.7719
  652MOL0     H87971   1.185   4.152   9.209 -2.0850  0.4162  1.3458
  652MOL0     H87972   1.002   4.273   9.341 -1.3712 -0.2006  3.2209
  652MOL0     H87973   1.067   4.361   9.479  1.7051 -1.1308 -0.1101
  652MOL0     H87974   1.043   4.502   9.209 -1.1254  1.3512  0.5751
  652MOL0     H87975   1.073   4.572   9.363  0.8893  0.4623 -1.0111
  652MOL0     H87976   0.817   4.403   9.306  1.2399 -0.1882 -2.4467
  652MOL0     H87977   0.824   4.561   9.252 -2.7745 -1.2958 -0.3841
  652MOL0     H87978   0.723   4.584   9.436  0.7037  1.5997  0.8853
  652MOL0     H87979   0.882   4.651   9.501  0.0295 -0.6599  2.7831
  652MOL0     H87980   0.897   4.269   9.662 -0.1493 -0.7426  1.1717
  652MOL0     H87981   0.844   3.961   9.553 -0.4450 -1.0941  0.1919
  652MOL0     H87982   0.902   4.046   9.698 -0.5381  1.1980 -0.6996
  652MOL0     H87983   0.765   3.935   9.712  1.1062 -1.9424 -0.5684
  652MOL0     H87984   0.317   3.822   9.384 -2.4381  1.5005 -0.0825
  652MOL0     H87985   0.190   3.624   9.432  0.9458  3.1693 -2.4234
  652MOL0     H87986  -0.055   3.635   9.622 -0.5116  0.0718  0.4358
  652MOL0     H87987  -0.029   3.489   9.533 -4.7275  0.4505  0.6856
  652MOL0     H87988  -0.196   3.435   9.694  0.0399  0.8102  1.5595
  652MOL0     H87989  -0.057   3.379   9.781 -4.4022 -2.6557  0.5090
  652MOL0     H87990  -0.230   3.576   9.843  0.4078 -0.5364 -0.9066
  652MOL0     H87991  -0.058   3.636   9.857 -0.6218  0.5010 -4.4670
  652MOL0     H87992  -0.197   3.417  10.011  0.1643  0.0536 -0.1363
  652MOL0     H87993  -0.023   3.409   9.995 -0.6417 -1.0943  0.3688
  652MOL0     H87994  -0.171   3.652  10.124  0.1564  0.2699 -1.3621
  652MOL0     H87995   0.010   3.628  10.100  0.6676 -0.8380 -0.8532
  652MOL0     H87996   0.021   3.440  10.250  1.1269 -0.7166  1.1227
  652MOL0     H87997  -0.017   3.590  10.325 -1.6446 -0.2694  0.3208
  652MOL0     H87998  -0.139   3.388  10.399 -0.8378  3.8343  3.9071
  652MOL0     H87999  -0.256   3.405  10.262 -1.0257  3.4376 -2.3074
  652MOL0     H88000  -0.208   3.645  10.443 -1.3215  0.5661  0.8410
  652MOL0     H88001  -0.319   3.512  10.493  2.2370 -2.4176 -1.1224
  652MOL0     H88002   0.219   3.701   9.854 -1.4263  3.1369  0.6301
  652MOL0     H88003   0.361   3.895   9.805  0.5969  1.0336 -0.8909
  652MOL0     H88004   0.443   4.247   9.462  0.8269  2.0656 -2.0271
  652MOL0     H88005   0.560   4.451   9.485 -2.3998 -1.5142 -0.8806
  652MOL0     H88006   1.453   4.287   8.304 -1.2816  0.3569 -0.3979
  652MOL0     H88007   1.309   4.204   8.136  1.8822 -2.3599  1.0065
  652MOL0     H88008   1.431   4.100   7.581 -0.6055 -0.7114 -1.6004
  652MOL0     H88009   1.291   3.940   7.443 -0.1461 -2.0931  2.8186
  652MOL0     H88010   1.104   3.872   7.287 -2.1412  0.1975 -0.8046
  652MOL0     H88011   1.095   3.781   7.437 -1.2153 -1.7274 -0.1346
  652MOL0     H88012   0.965   3.691   7.282 -0.7204  0.1091 -1.0019
  652MOL0     H88013   0.860   3.835   7.246 -0.4857 -0.0146  1.1877
  652MOL0     H88014   0.860   3.733   7.524 -1.7369 -2.4223  0.0646
  652MOL0     H88015   0.773   3.649   7.394  3.7985 -1.1050 -1.5856
  652MOL0     H88016   0.663   3.856   7.333  1.8937 -0.5715 -1.3937
  652MOL0     H88017   0.741   3.942   7.469 -0.5986 -0.8780  2.8734
  652MOL0     H88018   0.428   3.739   7.670 -1.9934  4.2328  1.0631
  652MOL0     H88019   0.937   4.131   7.613  0.0310  2.2581 -2.3490
  652MOL0     H88020   1.085   4.250   7.774 -2.4716 -0.3231 -0.8240
  653MOL0     O88021  10.742   0.577   9.450 -0.5412  0.0687  0.1721
  653MOL0     C88022  10.794   0.546   9.338  0.2711  0.0630  0.0746
  653MOL0     O88023  10.725   0.500   9.230  0.6222 -0.1611  0.9817
  653MOL0     C88024  10.599   0.441   9.237  0.1294  0.3799 -0.5100
  653MOL0     C88025  10.527   0.453   9.119 -0.2034 -0.9871 -0.0140
  653MOL0     C88026  10.402   0.387   9.106  0.2295 -0.1203  0.2793
  653MOL0     C88027  10.362   0.296   9.208 -0.4886 -0.0897 -0.5030
  653MOL0     O88028  10.259   0.209   9.181  0.1787  0.1351 -1.3717
  653MOL0     C88029  10.142   0.218   9.267 -1.4428 -0.1966 -1.1624
  653MOL0     C88030  10.095   0.078   9.313  0.6951 -1.4429  0.1476
  653MOL0     C88031  10.176   0.018   9.425  0.4572 -0.1511  0.0864
  653MOL0     C88032  10.093  -0.016   9.554  0.5124 -0.3771  0.0660
  653MOL0     C88033  10.018  -0.153   9.545 -0.2936  0.1668  0.3238
  653MOL0     C88034  10.126  -0.256   9.573 -0.0222  0.1882  0.4252
  653MOL0     C88035  10.061  -0.393   9.608 -0.0575 -0.3905  0.3342
  653MOL0     C88036  10.153  -0.508   9.631  0.4377 -0.7327 -0.1989
  653MOL0     N88037  10.247  -0.493   9.748 -0.1596  0.0151  0.8405
  653MOL0     C88038  10.213  -0.458   9.876 -0.0257 -0.5076  1.0069
  653MOL0     C88039  10.331  -0.445   9.947  0.9469 -0.5542  0.4761
  653MOL0     C88040  10.359  -0.431  10.096  0.0271 -0.3400  1.2925
  653MOL0     C88041  10.325  -0.294  10.156 -0.5848 -0.2503 -0.3923
  653MOL0     C88042  10.400  -0.187  10.070  0.1047  0.0043  0.3280
  653MOL0     C88043  10.404  -0.061  10.160 -0.2352  0.5525  0.3441
  653MOL0     O88044  10.286   0.013  10.131 -1.2014  0.4493  0.1755
  653MOL0     C88045  10.189  -0.010  10.222 -0.7512 -0.1078 -0.7361
  653MOL0     C88046  10.204   0.011  10.364  0.2028  0.3644  0.1371
  653MOL0     C88047  10.093  -0.016  10.452 -0.2893 -0.7135  0.2712
  653MOL0     C88048  10.111  -0.010  10.598  0.1552 -0.1252  0.3010
  653MOL0     C88049   9.968  -0.063  10.405  0.0967 -0.5245  0.5117
  653MOL0     C88050   9.842  -0.103  10.482  0.1098 -0.0368  0.8700
  653MOL0     O88051   9.718  -0.134  10.408  0.8726  0.3908  0.0167
  653MOL0     C88052   9.621  -0.188  10.492 -0.7173  0.3994  0.9830
  653MOL0     C88053   9.503  -0.119  10.521 -0.5531 -0.1546  0.6842
  653MOL0     C88054   9.416  -0.180  10.605  0.6345 -1.2335  0.9486
  653MOL0     C88055   9.433  -0.301  10.676  0.1287 -0.2316  0.2538
  653MOL0     O88056   9.342  -0.342  10.778 -0.5052  0.3883  0.1444
  653MOL0     C88057   9.301  -0.249  10.883 -0.0146  0.2660  0.3265
  653MOL0     C88058   9.150  -0.250  10.883  0.5344 -0.2401 -0.0856
  653MOL0     C88059   9.082  -0.196  10.754 -0.1357 -0.7172 -0.6750
  653MOL0     C88060   8.926  -0.202  10.758 -0.8296 -0.5656 -0.9080
  653MOL0     C88061   8.847  -0.122  10.648  0.6083  0.1000  0.2217
  653MOL0     C88062   8.849   0.025  10.676 -1.3949  0.2097 -0.4782
  653MOL0     C88063   8.708   0.096  10.645 -1.2509  0.0638 -0.6038
  653MOL0     C88064   8.602   0.090  10.760  0.6569  0.2074  0.6880
  653MOL0    Cl88065   8.559  -0.084  10.788  0.0450 -0.1617  0.3906
  653MOL0     C88066   9.552  -0.367  10.642 -0.7052 -0.6624  0.6971
  653MOL0     C88067   9.648  -0.311  10.552 -0.2405  0.6786 -0.1008
  653MOL0     O88068   9.847  -0.086  10.604  0.2405 -0.1876  0.0675
  653MOL0     C88069   9.954  -0.075  10.260 -0.0114 -0.6623 -0.6857
  653MOL0     C88070  10.068  -0.050  10.176  0.9081 -0.4698 -0.1798
  653MOL0     N88071  10.434  -0.472   9.853 -0.5872 -0.0389 -0.3634
  653MOL0     N88072  10.381  -0.494   9.738 -0.6350  0.2748  0.5904
  653MOL0     C88073  10.429   0.291   9.322  0.3036  1.1881  0.0851
  653MOL0     C88074  10.548   0.367   9.351  0.4641 -0.4777  0.3862
  653MOL0     C88075  10.933   0.595   9.317  0.0542  0.1072 -0.3975
  653MOL0     C88076  10.997   0.689   9.400  0.4485 -1.2180  0.1882
  653MOL0     C88077  11.137   0.711   9.393 -0.4750 -0.3971 -0.6699
  653MOL0     C88078  11.208   0.647   9.292 -0.0555 -0.9069  0.2671
  653MOL0     O88079  11.333   0.706   9.277  0.2367  0.7485  0.6643
  653MOL0     C88080  11.428   0.643   9.193 -0.2790  0.8983  0.5963
  653MOL0     C88081  11.521   0.583   9.297 -0.7790 -0.1933  0.4664
  653MOL0     C88082  11.624   0.685   9.349  0.2352  0.0385 -0.3579
  653MOL0     C88083  11.564   0.805   9.410  0.3166  0.0633 -0.5459
  653MOL0     C88084  11.658   0.891   9.487  0.1722  0.4890 -0.0087
  653MOL0     C88085  11.729   0.975   9.536 -0.7308  0.0363 -0.4468
  653MOL0     C88086  11.144   0.553   9.210 -1.0774  0.5573 -0.3050
  653MOL0     C88087  11.004   0.521   9.224 -0.9926  0.5066  0.3063
  653MOL0     H88088  10.557   0.505   9.029  0.1229 -0.2381  0.5131
  653MOL0     H88089  10.344   0.386   9.014 -1.1905 -0.8171  1.1533
  653MOL0     H88090  10.140   0.290   9.349  0.0335 -2.5812  1.1241
  653MOL0     H88091  10.064   0.247   9.196  0.8970  1.3766 -3.2487
  653MOL0     H88092   9.992   0.089   9.348  0.4655  0.7607 -1.0730
  653MOL0     H88093  10.085   0.019   9.222  0.1373  0.5083 -1.1190
  653MOL0     H88094  10.223  -0.072   9.385 -0.7064 -0.5908 -0.3281
  653MOL0     H88095  10.256   0.086   9.456  0.5785 -0.8570  1.4003
  653MOL0     H88096  10.149  -0.008   9.647  1.2803 -1.1607 -0.3174
  653MOL0     H88097  10.017   0.061   9.572  2.0692  0.9875  0.9851
  653MOL0     H88098   9.940  -0.161   9.622 -1.8347 -2.5044 -1.3704
  653MOL0     H88099   9.957  -0.155   9.455 -3.9644 -1.4376  2.6213
  653MOL0     H88100  10.199  -0.267   9.492 -2.6576 -0.3529 -2.0544
  653MOL0     H88101  10.184  -0.226   9.661  2.5850 -3.4279  0.1805
  653MOL0     H88102   9.995  -0.381   9.694 -1.8482  2.7134 -1.3150
  653MOL0     H88103  10.008  -0.409   9.514 -0.5403  1.3935  0.2652
  653MOL0     H88104  10.198  -0.536   9.535 -0.3234 -0.4937 -0.6390
  653MOL0     H88105  10.089  -0.595   9.650  1.2660 -1.4975 -0.8124
  653MOL0     H88106  10.113  -0.465   9.918 -0.5520 -1.7481 -0.3467
  653MOL0     H88107  10.292  -0.498  10.151  0.6040 -0.6871  1.5864
  653MOL0     H88108  10.467  -0.444  10.111  1.3264  2.0284 -3.8685
  653MOL0     H88109  10.366  -0.302  10.257  0.7882  3.5306 -0.4899
  653MOL0     H88110  10.217  -0.280  10.145 -0.7116 -0.3134  0.7139
  653MOL0     H88111  10.339  -0.169   9.981 -2.0972 -2.5687  1.1713
  653MOL0     H88112  10.504  -0.215  10.048 -0.1610  0.7667 -2.1967
  653MOL0     H88113  10.497  -0.011  10.133 -0.1475  0.0081 -0.4056
  653MOL0     H88114  10.419  -0.088  10.265  0.4010  1.2654  0.4419
  653MOL0     H88115  10.301   0.037  10.405 -0.5118  0.9733  1.5058
  653MOL0     H88116  10.042   0.060  10.645  0.1694  1.0556 -1.3525
  653MOL0     H88117  10.110  -0.103  10.655  0.3069  0.5279  1.3972
  653MOL0     H88118  10.209   0.037  10.615 -0.3832  1.0353  0.2610
  653MOL0     H88119   9.485  -0.025  10.469 -0.2095 -0.6804 -0.4266
  653MOL0     H88120   9.328  -0.123  10.634  1.5809 -0.1336  1.7718
  653MOL0     H88121   9.323  -0.291  10.982 -2.5487 -0.0492  0.8295
  653MOL0     H88122   9.355  -0.155  10.868  2.2529 -0.4922  2.8429
  653MOL0     H88123   9.118  -0.354  10.897  0.6930 -0.0261  2.2558
  653MOL0     H88124   9.113  -0.198  10.972 -4.2668 -0.5471 -1.5902
  653MOL0     H88125   9.117  -0.265  10.677 -0.5034 -4.6246  2.3586
  653MOL0     H88126   9.102  -0.090  10.736 -1.3906  0.7785  4.9610
  653MOL0     H88127   8.893  -0.306  10.763 -1.9830 -0.1788  0.2251
  653MOL0     H88128   8.884  -0.172  10.854  2.6964 -1.0220  0.9101
  653MOL0     H88129   8.746  -0.165  10.652  0.0828  1.3564  1.8049
  653MOL0     H88130   8.875  -0.134  10.543 -4.2327  1.0780 -1.4390
  653MOL0     H88131   8.874   0.034  10.782 -2.8199  0.2546 -0.1208
  653MOL0     H88132   8.925   0.079  10.619 -0.4102 -1.0880 -0.4425
  653MOL0     H88133   8.667   0.045  10.557 -0.1145 -2.0807  0.0132
  653MOL0     H88134   8.736   0.199  10.626 -2.0459  0.9204  2.3791
  653MOL0     H88135   8.519   0.151  10.724  2.0861  1.4931 -0.5743
  653MOL0     H88136   8.633   0.133  10.855  1.6406 -0.4470  0.6875
  653MOL0     H88137   9.565  -0.467  10.682  0.7047 -1.3313 -1.2701
  653MOL0     H88138   9.729  -0.379  10.525 -1.2571 -0.7475  0.2924
  653MOL0     H88139   9.860  -0.094  10.210  0.3653 -0.2833 -1.5490
  653MOL0     H88140  10.053  -0.059  10.069  2.0562  0.5422 -0.4421
  653MOL0     H88141  10.393   0.217   9.393  1.7492 -0.4708 -0.8214
  653MOL0     H88142  10.596   0.371   9.448  3.2998  0.8973 -0.9643
  653MOL0     H88143  10.942   0.748   9.473  2.4143  1.1709 -0.1767
  653MOL0     H88144  11.180   0.786   9.458  1.1520 -3.6420  2.4038
  653MOL0     H88145  11.380   0.565   9.133  0.5411  1.8469 -1.4012
  653MOL0     H88146  11.471   0.725   9.134 -0.2017 -0.2359 -0.9962
  653MOL0     H88147  11.579   0.502   9.252  2.4194  1.2861  1.5951
  653MOL0     H88148  11.470   0.539   9.384 -0.7116  1.6421  1.4763
  653MOL0     H88149  11.690   0.715   9.268 -0.5500  0.0772 -0.9954
  653MOL0     H88150  11.668   0.635   9.436  0.0563  0.0989 -0.2312
  653MOL0     H88151  11.474   0.777   9.466  1.5400  0.9375  1.9699
  653MOL0     H88152  11.527   0.871   9.331 -2.6271 -2.0584 -1.1071
  653MOL0     H88153  11.805   1.032   9.586  1.2118 -2.3265 -0.5265
  653MOL0     H88154  11.201   0.495   9.138 -2.9476 -1.0252 -0.5838
  653MOL0     H88155  10.964   0.440   9.163  0.7955 -0.3830  0.2562
  654MOL0     O88156  10.181   1.540  11.064  0.1123 -0.5981 -0.1413
  654MOL0     C88157  10.245   1.552  10.959  0.2907 -0.8686  0.1542
  654MOL0     O88158  10.380   1.575  10.958 -0.3902  0.1170 -0.1367
  654MOL0     C88159  10.454   1.580  11.081  0.2716 -0.0143  0.3615
  654MOL0     C88160  10.487   1.703  11.127  0.4986 -0.0029  0.3882
  654MOL0     C88161  10.579   1.723  11.231  0.0709  0.0003  0.7736
  654MOL0     C88162  10.619   1.609  11.305  0.2051 -0.0800 -0.7021
  654MOL0     O88163  10.684   1.619  11.429 -0.5757 -0.0592  0.3594
  654MOL0     C88164  10.817   1.666  11.432 -0.3931  0.2460  0.3465
  654MOL0     C88165  10.865   1.668  11.575  0.4702  0.7213 -1.1248
  654MOL0     C88166  10.826   1.798  11.632  0.0611 -0.2869 -0.8210
  654MOL0     C88167  10.914   1.845  11.758 -0.0801 -0.4453 -0.5545
  654MOL0     C88168  10.844   1.933  11.858  0.0781 -0.7196  0.7272
  654MOL0     C88169  10.919   1.976  11.977 -0.4809  0.5477 -0.0624
  654MOL0     C88170  10.939   1.866  12.087  1.1122  0.2690  1.3309
  654MOL0     C88171  11.053   1.908  12.179 -0.3012 -0.2541  0.4699
  654MOL0     N88172  11.023   1.882  12.315 -0.3283 -0.0166 -0.4968
  654MOL0     C88173  10.927   1.944  12.389 -0.7783 -0.1438 -0.3479
  654MOL0     C88174  10.935   1.899  12.522 -1.1369 -0.4439  0.3388
  654MOL0     C88175  10.843   1.935  12.641 -0.8402  1.2776 -0.8005
  654MOL0     C88176  10.844   2.083  12.682 -0.2179 -0.2670 -0.7563
  654MOL0     C88177  10.712   2.139  12.728 -1.0433  0.1909 -0.3295
  654MOL0     C88178  10.623   2.163  12.608  0.1795  0.0394  0.1321
  654MOL0     O88179  10.679   2.269  12.530  0.5840  0.5446 -0.6233
  654MOL0     C88180  10.602   2.294  12.426 -0.5885 -0.5889  0.0364
  654MOL0     C88181  10.637   2.261  12.296  0.8813  0.1096  0.5299
  654MOL0     C88182  10.543   2.282  12.189  0.2072 -0.8529  0.7612
  654MOL0     C88183  10.567   2.221  12.057 -0.5216  0.7066 -0.3167
  654MOL0     C88184  10.414   2.347  12.223  0.5864  0.8133  0.6301
  654MOL0     C88185  10.291   2.363  12.136  0.2601 -1.0792  0.3892
  654MOL0     O88186  10.314   2.364  12.003  0.0475 -0.1642 -0.1221
  654MOL0     C88187  10.195   2.342  11.931 -0.7399 -0.7917  0.5029
  654MOL0     C88188  10.146   2.211  11.897  0.1263 -0.1544 -0.1863
  654MOL0     C88189  10.030   2.191  11.822 -1.3225  0.1622 -0.8939
  654MOL0     C88190   9.969   2.301  11.764  0.4171  0.2527  1.3235
  654MOL0     O88191   9.866   2.283  11.672 -0.1562  0.0987  0.1351
  654MOL0     C88192   9.906   2.285  11.538 -0.5472 -0.5998  1.3352
  654MOL0     C88193   9.823   2.355  11.429  0.8375 -1.1078  0.1304
  654MOL0     C88194   9.735   2.469  11.481 -0.1499 -0.6527  0.0093
  654MOL0     C88195   9.669   2.543  11.364  0.0502  0.0080  0.1137
  654MOL0     C88196   9.579   2.656  11.420 -0.2574  0.2272  0.4332
  654MOL0     C88197   9.521   2.755  11.315 -0.6682  0.3333  0.4450
  654MOL0     C88198   9.389   2.827  11.373 -0.4950 -0.3074 -0.1107
  654MOL0     C88199   9.323   2.897  11.258  0.0061 -0.2027 -0.0416
  654MOL0    Cl88200   9.220   3.019  11.331 -0.2380  0.4275 -0.0298
  654MOL0     C88201  10.012   2.428  11.794 -0.7963  0.0230  0.1218
  654MOL0     C88202  10.122   2.450  11.876  0.6866 -0.1257  1.1207
  654MOL0     O88203  10.185   2.402  12.191 -0.5696  0.9047  0.4778
  654MOL0     C88204  10.401   2.398  12.350 -0.8556  1.0173 -0.0810
  654MOL0     C88205  10.488   2.371  12.452  0.5772  0.3334  0.6915
  654MOL0     N88206  11.037   1.815  12.525 -0.3391 -0.0538  0.6342
  654MOL0     N88207  11.087   1.806  12.404  0.3598 -0.2680 -0.0289
  654MOL0     C88208  10.568   1.487  11.265 -0.4372 -0.6224 -1.1561
  654MOL0     C88209  10.480   1.470  11.158 -1.1828  0.3975  0.6054
  654MOL0     C88210  10.178   1.548  10.832  0.7679 -1.3457  0.4340
  654MOL0     C88211  10.238   1.587  10.713 -0.0388  0.0550  0.1014
  654MOL0     C88212  10.172   1.578  10.584  0.1294  0.4701 -0.7088
  654MOL0     C88213  10.042   1.522  10.576 -0.4467  0.4654  0.7955
  654MOL0     O88214   9.993   1.510  10.451  0.0451  0.3976  0.4656
  654MOL0     C88215   9.854   1.463  10.441  0.5961  0.2699  0.1456
  654MOL0     C88216   9.828   1.314  10.451  0.0789 -0.0496  0.5192
  654MOL0     C88217   9.687   1.279  10.402 -0.3072  0.2657  0.2863
  654MOL0     C88218   9.658   1.312  10.259 -0.1260  0.2383  1.1040
  654MOL0     C88219   9.515   1.327  10.233 -0.4180  0.7289 -1.0230
  654MOL0     C88220   9.404   1.346  10.204 -0.0447  0.2389  0.1659
  654MOL0     C88221   9.975   1.485  10.701  0.5865 -0.6671 -0.1174
  654MOL0     C88222  10.047   1.499  10.824 -0.3080  1.0635 -0.8570
  654MOL0     H88223  10.454   1.792  11.074  1.6864  0.9899  1.2557
  654MOL0     H88224  10.620   1.818  11.263  1.2105 -0.0417 -0.4505
  654MOL0     H88225  10.879   1.592  11.379  3.4683  4.0667 -1.1113
  654MOL0     H88226  10.837   1.760  11.380  1.5443 -0.0806  0.4106
  654MOL0     H88227  10.817   1.588  11.632  2.0667  1.5523  1.5990
  654MOL0     H88228  10.971   1.647  11.589 -0.2090 -0.8679  2.9537
  654MOL0     H88229  10.839   1.876  11.556  0.1940  1.0924  0.5711
  654MOL0     H88230  10.719   1.792  11.654  0.6091 -1.7039  1.9318
  654MOL0     H88231  10.956   1.752  11.797 -0.2151 -0.2612  0.0351
  654MOL0     H88232  11.009   1.884  11.722 -0.6538  1.4663 -0.1237
  654MOL0     H88233  10.818   2.026  11.808 -1.8716 -0.4513  2.0915
  654MOL0     H88234  10.758   1.872  11.887  0.4667 -2.0712 -0.7836
  654MOL0     H88235  11.022   2.002  11.951  0.5928 -3.5728 -0.6575
  654MOL0     H88236  10.881   2.068  12.022  2.2514  0.5254  2.6533
  654MOL0     H88237  10.837   1.859  12.126  0.2315 -0.0113 -0.8329
  654MOL0     H88238  10.973   1.771  12.044  3.5322  0.8562  1.8093
  654MOL0     H88239  11.055   2.016  12.162  1.9513 -0.7738 -3.9587
  654MOL0     H88240  11.155   1.878  12.158  0.8631  3.3828  0.2718
  654MOL0     H88241  10.843   2.005  12.356 -0.2205 -0.7131 -2.9800
  654MOL0     H88242  10.743   1.893  12.632 -1.5128  2.1116  1.9049
  654MOL0     H88243  10.879   1.890  12.734 -2.2533  2.6610  0.4608
  654MOL0     H88244  10.897   2.144  12.607  1.2319 -1.3692 -0.6745
  654MOL0     H88245  10.913   2.093  12.766 -1.1521  0.6575 -0.0795
  654MOL0     H88246  10.725   2.230  12.788  0.5715  1.4815 -2.4666
  654MOL0     H88247  10.664   2.063  12.789 -0.6667 -0.4073 -0.7685
  654MOL0     H88248  10.519   2.172  12.642 -0.0529 -4.1982  1.1216
  654MOL0     H88249  10.614   2.074  12.544  0.4566  0.6132 -0.7256
  654MOL0     H88250  10.725   2.206  12.265 -0.7241 -0.4238 -3.9397
  654MOL0     H88251  10.670   2.186  12.040 -1.3421 -1.2949 -1.5677
  654MOL0     H88252  10.509   2.129  12.061  1.0784 -0.4219 -1.3591
  654MOL0     H88253  10.539   2.271  11.964  3.1771  0.9746 -1.4514
  654MOL0     H88254  10.212   2.132  11.933 -0.5859 -0.5136  0.3525
  654MOL0     H88255  10.012   2.090  11.787  0.4652  0.2349 -2.1726
  654MOL0     H88256  10.006   2.328  11.539 -0.9780  0.5443 -0.0545
  654MOL0     H88257   9.917   2.184  11.497 -1.2127  0.2536 -1.1446
  654MOL0     H88258   9.894   2.385  11.351 -1.7589 -1.2316 -2.4956
  654MOL0     H88259   9.760   2.294  11.364 -0.7920  0.3281  0.2746
  654MOL0     H88260   9.800   2.537  11.537 -1.0304  0.0315  0.2324
  654MOL0     H88261   9.659   2.443  11.556 -0.5290  2.2144  0.7129
  654MOL0     H88262   9.745   2.593  11.303 -2.1572 -0.7345 -3.6177
  654MOL0     H88263   9.625   2.467  11.298  1.1856 -0.5337 -0.0470
  654MOL0     H88264   9.625   2.712  11.502 -0.1823  0.1755  0.4271
  654MOL0     H88265   9.504   2.591  11.466  2.5723 -3.6430  0.0104
  654MOL0     H88266   9.590   2.834  11.282  1.5538 -1.5715  0.2436
  654MOL0     H88267   9.479   2.695  11.234 -1.8851 -0.5491  1.6914
  654MOL0     H88268   9.420   2.905  11.444 -0.1601 -0.3274 -0.2364
  654MOL0     H88269   9.326   2.748  11.416 -1.1559 -1.5951 -3.1878
  654MOL0     H88270   9.262   2.821  11.208  0.5228 -1.7441  1.5633
  654MOL0     H88271   9.401   2.945  11.198 -0.8342  2.1278  0.6084
  654MOL0     H88272   9.958   2.516  11.762 -3.2717 -1.7938 -0.9832
  654MOL0     H88273  10.151   2.554  11.887  1.4158 -0.3266  1.1574
  654MOL0     H88274  10.306   2.441  12.378 -1.1891  0.1332  0.1587
  654MOL0     H88275  10.455   2.403  12.551  0.1508 -0.6216  0.8715
  654MOL0     H88276  10.577   1.401  11.331 -1.5682 -0.9521 -1.4028
  654MOL0     H88277  10.419   1.382  11.137 -2.0179  1.1011  0.0040
  654MOL0     H88278  10.337   1.632  10.716 -0.8327  1.8818  0.6374
  654MOL0     H88279  10.218   1.616  10.494  1.4695  3.0781  0.9685
  654MOL0     H88280   9.794   1.507  10.521 -0.8606 -0.2276 -0.6212
  654MOL0     H88281   9.825   1.500  10.342  0.0744 -1.5164 -0.4029
  654MOL0     H88282   9.840   1.277  10.553  2.8301 -1.1060 -0.0992
  654MOL0     H88283   9.895   1.266  10.379 -0.2348 -0.0173  0.2015
  654MOL0     H88284   9.607   1.320  10.463 -1.8391 -0.2192 -1.3073
  654MOL0     H88285   9.680   1.174  10.429 -0.1710  0.7566  2.4222
  654MOL0     H88286   9.697   1.229  10.199  1.1811  0.1362  2.0510
  654MOL0     H88287   9.706   1.406  10.230 -3.6180  2.1169  0.9398
  654MOL0     H88288   9.303   1.368  10.177 -0.3658  0.2879  1.3342
  654MOL0     H88289   9.871   1.455  10.705 -0.9822  3.3660 -3.4405
  654MOL0     H88290   9.999   1.465  10.915 -1.6183  0.5572 -1.7042
  655MOL0     O88291   3.529   8.818   3.977 -0.2378  0.3798 -0.4977
  655MOL0     C88292   3.414   8.784   3.972 -0.4938 -0.4287 -0.0141
  655MOL0     O88293   3.322   8.820   3.881  0.1868  0.1641  0.2336
  655MOL0     C88294   3.348   8.905   3.779  0.6841  0.1585 -0.1137
  655MOL0     C88295   3.316   8.869   3.648 -0.2442  0.2725  0.3163
  655MOL0     C88296   3.328   8.950   3.544 -0.0816  0.2008  0.0713
  655MOL0     C88297   3.402   9.066   3.571 -0.2206 -0.0785 -0.8653
  655MOL0     O88298   3.440   9.149   3.470 -0.9178  0.1644 -0.1225
  655MOL0     C88299   3.499   9.078   3.360  0.8782 -0.1449 -0.2825
  655MOL0     C88300   3.543   9.174   3.244  0.5011 -0.6066 -0.7128
  655MOL0     C88301   3.611   9.085   3.132  0.5103 -0.7962 -0.5346
  655MOL0     C88302   3.640   9.168   3.004  0.4115 -0.7881 -0.5684
  655MOL0     C88303   3.753   9.113   2.916  0.3305 -0.0515 -0.3551
  655MOL0     C88304   3.713   8.967   2.874  0.0892  0.6291 -0.4257
  655MOL0     C88305   3.789   8.933   2.746  0.4785  0.8262  0.6041
  655MOL0     C88306   3.939   8.914   2.776 -0.0715 -0.8686  0.7431
  655MOL0     N88307   3.980   8.851   2.897  0.2841  0.0429  0.2003
  655MOL0     C88308   4.110   8.860   2.940 -0.7553 -0.4157 -0.0880
  655MOL0     C88309   4.127   8.753   3.023  0.2940 -0.0911 -0.3935
  655MOL0     C88310   4.252   8.712   3.098  0.2551 -0.2225  0.4921
  655MOL0     C88311   4.377   8.792   3.076 -0.2405 -0.8358 -0.2974
  655MOL0     C88312   4.446   8.769   2.947  0.4352  0.4801  0.6539
  655MOL0     C88313   4.552   8.880   2.910  0.6198  0.0060 -0.1687
  655MOL0     O88314   4.497   9.010   2.901  0.1306  0.8657 -1.1481
  655MOL0     C88315   4.414   9.058   2.804 -1.0878 -0.7797  0.1873
  655MOL0     C88316   4.359   8.986   2.698  0.2424  0.3253 -0.6770
  655MOL0     C88317   4.288   9.049   2.603  0.1951 -0.2351  0.3298
  655MOL0     C88318   4.239   8.957   2.497  0.6265 -0.5160 -0.3901
  655MOL0     C88319   4.248   9.182   2.619  0.0997 -0.5145  0.5692
  655MOL0     C88320   4.153   9.249   2.516  0.2737  0.4249  0.1091
  655MOL0     O88321   4.165   9.384   2.495  0.0572 -1.0443  0.5212
  655MOL0     C88322   4.060   9.436   2.432 -0.2427 -0.2875 -0.1244
  655MOL0     C88323   4.092   9.492   2.311 -0.1790  0.3820  0.3966
  655MOL0     C88324   3.993   9.548   2.224  0.2727 -0.0075  0.9036
  655MOL0     C88325   3.868   9.568   2.269  0.8083 -0.3723 -0.6959
  655MOL0     O88326   3.772   9.639   2.211 -0.2849 -0.8813  0.4034
  655MOL0     C88327   3.809   9.717   2.097 -0.3130  1.0066 -0.3761
  655MOL0     C88328   3.690   9.765   2.013 -0.3195 -0.4505 -0.1804
  655MOL0     C88329   3.723   9.833   1.883  0.0035  0.9827  0.4661
  655MOL0     C88330   3.741   9.724   1.773  0.3806 -0.1372 -0.3945
  655MOL0     C88331   3.779   9.794   1.639  0.5949  0.3645  0.7693
  655MOL0     C88332   3.924   9.833   1.632 -0.3374  0.4231  1.1608
  655MOL0     C88333   3.986   9.725   1.540  0.1425 -0.5854  0.7284
  655MOL0     C88334   4.128   9.748   1.494  0.1628 -1.1042 -0.3625
  655MOL0    Cl88335   4.135   9.900   1.399  0.4369  0.3167  0.2337
  655MOL0     C88336   3.837   9.518   2.391 -0.5670 -0.1961  0.1109
  655MOL0     C88337   3.925   9.449   2.472  1.2054  0.6693 -0.4578
  655MOL0     O88338   4.064   9.177   2.460  0.0395 -0.0124  0.0774
  655MOL0     C88339   4.299   9.256   2.721 -0.5051 -0.2521  0.0475
  655MOL0     C88340   4.382   9.184   2.823  0.4163  0.9598  0.9254
  655MOL0     N88341   4.018   8.669   3.010 -0.8059  0.2458 -0.3391
  655MOL0     N88342   3.935   8.732   2.938  0.0200  0.1560 -0.2636
  655MOL0     C88343   3.434   9.106   3.700 -0.2189  0.3426  0.3219
  655MOL0     C88344   3.404   9.023   3.809 -0.3229 -0.5993 -0.0745
  655MOL0     C88345   3.397   8.668   4.058  0.3036  0.5261  0.9842
  655MOL0     C88346   3.320   8.562   4.004 -0.3059 -1.2490 -0.1950
  655MOL0     C88347   3.294   8.442   4.078  0.5731 -1.2470  0.0358
  655MOL0     C88348   3.332   8.436   4.212 -1.0169 -0.4998  0.0316
  655MOL0     O88349   3.316   8.329   4.294 -0.1478  0.4711  1.1942
  655MOL0     C88350   3.236   8.218   4.244 -1.1429  0.8229 -0.4942
  655MOL0     C88351   3.190   8.119   4.338 -0.7402  0.1392  0.5269
  655MOL0     C88352   3.081   8.159   4.445 -0.5915  0.1605  0.1438
  655MOL0     C88353   3.044   8.032   4.511 -0.6862 -1.0554  0.1048
  655MOL0     C88354   2.978   8.060   4.642 -0.1773  0.7863 -0.2508
  655MOL0     C88355   2.907   8.086   4.734 -1.2905  0.0660 -0.1170
  655MOL0     C88356   3.410   8.545   4.271 -0.0841 -0.0478 -0.2003
  655MOL0     C88357   3.438   8.661   4.191 -0.2470  0.2253 -0.2177
  655MOL0     H88358   3.263   8.776   3.630  0.7894  0.1349 -2.6130
  655MOL0     H88359   3.298   8.908   3.448 -2.2227 -0.2433  0.8922
  655MOL0     H88360   3.567   8.994   3.376  0.2617 -0.1126  3.6928
  655MOL0     H88361   3.419   9.026   3.307 -0.7496  0.9663  0.9560
  655MOL0     H88362   3.453   9.224   3.207  0.5094  0.6535  0.8905
  655MOL0     H88363   3.613   9.250   3.278 -1.3166  0.4214  0.8809
  655MOL0     H88364   3.700   9.045   3.184 -0.7531 -0.9058  1.6866
  655MOL0     H88365   3.540   9.006   3.108 -0.4002  0.1777 -1.0919
  655MOL0     H88366   3.552   9.177   2.941  2.0258 -1.4668 -3.0717
  655MOL0     H88367   3.672   9.266   3.041 -0.0475 -1.9657  3.5151
  655MOL0     H88368   3.776   9.177   2.830 -0.7708  1.7480  0.6269
  655MOL0     H88369   3.843   9.100   2.976 -2.6636 -0.2060  4.7336
  655MOL0     H88370   3.738   8.891   2.949 -0.0387 -0.0983 -1.1052
  655MOL0     H88371   3.606   8.969   2.855  0.2515  0.7474 -1.3975
  655MOL0     H88372   3.750   8.840   2.705 -0.8677  1.3399  0.6873
  655MOL0     H88373   3.766   9.006   2.669 -2.4463  2.5844  2.9301
  655MOL0     H88374   3.989   9.008   2.751  0.7940 -1.7357 -0.9520
  655MOL0     H88375   3.982   8.841   2.707 -1.5312 -1.6865  0.6648
  655MOL0     H88376   4.177   8.943   2.918 -0.0907 -1.2657 -1.3965
  655MOL0     H88377   4.228   8.711   3.205 -0.1018  0.6380  0.4240
  655MOL0     H88378   4.260   8.604   3.079  0.8289 -0.6526  2.9122
  655MOL0     H88379   4.447   8.766   3.156 -1.0452  1.3025  1.1560
  655MOL0     H88380   4.354   8.897   3.092 -0.3459 -1.1656  2.0227
  655MOL0     H88381   4.369   8.771   2.869  2.1224  0.8044 -1.0777
  655MOL0     H88382   4.501   8.677   2.964 -1.2464 -0.2898  2.2555
  655MOL0     H88383   4.609   8.862   2.819 -0.8243  0.7261 -1.2438
  655MOL0     H88384   4.625   8.884   2.991 -1.6027 -0.5178  1.9861
  655MOL0     H88385   4.396   8.884   2.700 -0.1164  0.1457  3.0342
  655MOL0     H88386   4.270   8.852   2.496  2.9263 -0.0208 -4.0828
  655MOL0     H88387   4.130   8.948   2.502  0.5302  1.0504  1.5607
  655MOL0     H88388   4.261   9.009   2.403  1.4161 -1.1412 -0.5591
  655MOL0     H88389   4.195   9.489   2.277 -0.8475 -1.5077 -1.7783
  655MOL0     H88390   4.019   9.587   2.126 -0.4663 -0.0245  0.6927
  655MOL0     H88391   3.881   9.794   2.124 -0.0470  0.4164  0.6405
  655MOL0     H88392   3.875   9.666   2.025  2.4005  2.2517  1.0911
  655MOL0     H88393   3.632   9.675   1.990  0.2265 -0.3317 -2.1854
  655MOL0     H88394   3.622   9.834   2.065 -2.3131 -0.2456 -2.8278
  655MOL0     H88395   3.810   9.897   1.894  0.9328  0.1368 -1.4770
  655MOL0     H88396   3.639   9.896   1.852  0.1933  1.9330  1.8009
  655MOL0     H88397   3.816   9.658   1.818  0.9829  0.7811 -0.0002
  655MOL0     H88398   3.654   9.664   1.748  1.2023 -1.3461 -0.4304
  655MOL0     H88399   3.732   9.892   1.631  0.1391  0.1828  1.1306
  655MOL0     H88400   3.738   9.739   1.554  1.9301 -0.1450  0.4354
  655MOL0     H88401   3.938   9.928   1.580 -2.9908 -0.1463 -0.8137
  655MOL0     H88402   3.977   9.850   1.726  0.8970  1.9913  0.2282
  655MOL0     H88403   3.918   9.726   1.454  0.0153  0.0309  0.8319
  655MOL0     H88404   3.984   9.630   1.595 -1.9631 -0.1237  1.5402
  655MOL0     H88405   4.180   9.672   1.435  2.2077  1.9296 -2.8446
  655MOL0     H88406   4.189   9.765   1.583 -0.8707 -1.6732  0.4700
  655MOL0     H88407   3.733   9.519   2.424  0.2696 -2.9794  3.6227
  655MOL0     H88408   3.888   9.396   2.559 -0.0239 -2.7261 -2.8472
  655MOL0     H88409   4.266   9.359   2.729  3.0050  1.1193 -1.0469
  655MOL0     H88410   4.414   9.233   2.914  0.0349  1.9580  0.5398
  655MOL0     H88411   3.472   9.205   3.721 -1.0813  1.1598 -1.6277
  655MOL0     H88412   3.425   9.049   3.912 -0.8832 -1.7597  0.3589
  655MOL0     H88413   3.277   8.562   3.905 -1.8999 -2.3485  0.4539
  655MOL0     H88414   3.235   8.360   4.038  0.4058 -0.6406 -1.0112
  655MOL0     H88415   3.145   8.256   4.196 -2.2408 -2.0059 -0.8022
  655MOL0     H88416   3.289   8.170   4.161  1.8558 -0.5083  2.0304
  655MOL0     H88417   3.281   8.086   4.388  1.2618 -0.5216 -3.1960
  655MOL0     H88418   3.159   8.027   4.287  2.0714 -0.9322  0.5796
  655MOL0     H88419   3.001   8.221   4.404  1.6997  1.8268 -2.1037
  655MOL0     H88420   3.136   8.225   4.513  0.2809  1.1405 -1.4546
  655MOL0     H88421   3.136   7.974   4.524 -0.0141 -0.0145  0.0702
  655MOL0     H88422   2.978   7.977   4.442  2.0300 -1.5110 -2.3266
  655MOL0     H88423   2.862   8.112   4.828 -2.3626  1.5311 -0.9934
  655MOL0     H88424   3.431   8.539   4.377  0.2192  0.3723 -0.2340
  655MOL0     H88425   3.488   8.743   4.241 -2.4193  1.0002  0.8230
  656MOL0     O88426   5.633   4.439   8.578 -0.5863 -0.4187  0.1378
  656MOL0     C88427   5.547   4.459   8.498  0.9230 -0.3119  0.3522
  656MOL0     O88428   5.419   4.528   8.519 -0.0358 -0.0144  0.2345
  656MOL0     C88429   5.380   4.573   8.640  0.5833 -0.0520  0.1016
  656MOL0     C88430   5.248   4.569   8.673 -0.4977  0.2449  0.7029
  656MOL0     C88431   5.207   4.583   8.809  0.4971 -0.0197 -0.0822
  656MOL0     C88432   5.290   4.624   8.911  1.1751 -0.0378 -0.7040
  656MOL0     O88433   5.255   4.640   9.043  0.5077  0.2919  1.0222
  656MOL0     C88434   5.123   4.644   9.094 -0.0628 -0.3190  0.2259
  656MOL0     C88435   5.071   4.790   9.104 -0.2466 -0.1763  0.6856
  656MOL0     C88436   5.097   4.868   9.236  0.8999  0.0165  0.3309
  656MOL0     C88437   5.250   4.899   9.277  0.1557 -0.0842 -0.6726
  656MOL0     C88438   5.261   5.020   9.375 -0.6788  0.7354  0.1177
  656MOL0     C88439   5.219   5.154   9.317  0.4441 -0.4244  0.7098
  656MOL0     C88440   5.261   5.285   9.389  0.4358 -0.2629  0.3058
  656MOL0     C88441   5.404   5.323   9.376  0.5337  0.8555 -0.6819
  656MOL0     N88442   5.440   5.418   9.481  0.3868  1.0677 -0.2459
  656MOL0     C88443   5.422   5.388   9.619 -0.3878  0.7466  0.2891
  656MOL0     C88444   5.441   5.509   9.671  0.7489 -0.5671  0.0680
  656MOL0     C88445   5.418   5.529   9.819 -1.1292  0.1202 -0.4431
  656MOL0     C88446   5.550   5.585   9.893 -0.5740  0.2347  1.2646
  656MOL0     C88447   5.644   5.480   9.942 -0.1575  0.6837  0.5957
  656MOL0     C88448   5.746   5.510  10.050 -0.0281 -0.3233 -0.4725
  656MOL0     O88449   5.685   5.583  10.168 -0.5842  0.7256  0.3261
  656MOL0     C88450   5.769   5.637  10.265 -0.0605  1.0758  0.3365
  656MOL0     C88451   5.729   5.749  10.324 -0.3693 -0.2275 -0.9506
  656MOL0     C88452   5.795   5.796  10.442 -0.9887  0.0905 -0.5815
  656MOL0     C88453   5.745   5.921  10.502 -0.2119  0.6416  0.1149
  656MOL0     C88454   5.918   5.731  10.477  0.1716 -0.4163 -0.1820
  656MOL0     C88455   6.007   5.763  10.582 -0.4322 -0.3374  0.7012
  656MOL0     O88456   6.063   5.662  10.663 -0.1988 -0.0608  0.9703
  656MOL0     C88457   6.159   5.703  10.751 -0.2394  0.4296 -0.2494
  656MOL0     C88458   6.140   5.694  10.889  0.8506  0.2058  0.6594
  656MOL0     C88459   6.233   5.739  10.978  0.1557  0.7159 -1.0093
  656MOL0     C88460   6.361   5.781  10.928 -0.1020 -0.1308  1.0550
  656MOL0     O88461   6.458   5.809  11.019  0.5422 -0.2048 -0.1697
  656MOL0     C88462   6.576   5.880  10.973  0.2277 -0.3436 -0.2104
  656MOL0     C88463   6.564   6.035  10.963  0.0205 -0.0127 -0.0584
  656MOL0     C88464   6.699   6.099  10.970  0.1727  0.1806 -0.0451
  656MOL0     C88465   6.692   6.245  10.947  0.7080 -0.2828  0.4711
  656MOL0     C88466   6.825   6.320  10.979 -0.2116  1.3364 -0.4619
  656MOL0     C88467   6.806   6.400  11.101 -0.8079  0.3170  1.0146
  656MOL0     C88468   6.935   6.480  11.118  0.2069 -0.3210  0.2795
  656MOL0     C88469   7.041   6.412  11.188  0.5716 -0.0167  0.4939
  656MOL0    Cl88470   7.007   6.373  11.359  0.0615 -0.1072 -0.1076
  656MOL0     C88471   6.392   5.783  10.787 -0.8971  0.2963 -0.3062
  656MOL0     C88472   6.286   5.733  10.703  0.6632 -0.3252  0.5578
  656MOL0     O88473   6.054   5.870  10.564 -0.3575  0.0149  0.3468
  656MOL0     C88474   5.959   5.620  10.404 -0.9646  0.8942  0.4946
  656MOL0     C88475   5.888   5.569  10.298  0.9729 -0.8979 -0.0142
  656MOL0     N88476   5.491   5.595   9.576  0.4181 -0.1358  0.3575
  656MOL0     N88477   5.485   5.544   9.460  0.7544 -0.2145 -0.3747
  656MOL0     C88478   5.426   4.647   8.876  0.4709 -0.4670  0.3180
  656MOL0     C88479   5.469   4.624   8.738 -0.0287  0.0904  0.2101
  656MOL0     C88480   5.555   4.410   8.360  0.2323  0.0529  0.5518
  656MOL0     C88481   5.659   4.322   8.317  0.5546  0.0634 -0.7195
  656MOL0     C88482   5.694   4.296   8.181 -0.0765 -0.1612 -0.5015
  656MOL0     C88483   5.610   4.347   8.072  1.0485 -0.7798 -0.6763
  656MOL0     O88484   5.635   4.346   7.932  0.7231 -1.1014 -0.3390
  656MOL0     C88485   5.756   4.302   7.891 -0.1588 -0.5938 -0.3331
  656MOL0     C88486   5.854   4.413   7.871 -0.0990 -0.4091 -0.4134
  656MOL0     C88487   5.984   4.363   7.798 -0.4075  0.3419 -0.5156
  656MOL0     C88488   6.067   4.474   7.745 -0.7810  0.7466  0.2203
  656MOL0     C88489   6.051   4.599   7.826 -0.4437 -0.2016 -0.5442
  656MOL0     C88490   6.030   4.695   7.898  0.0766 -0.6904  0.1552
  656MOL0     C88491   5.500   4.429   8.120 -0.7334  1.0792  0.4715
  656MOL0     C88492   5.471   4.457   8.254 -0.3470 -0.4974  0.0994
  656MOL0     H88493   5.170   4.546   8.601  1.6688  3.7099 -3.2156
  656MOL0     H88494   5.107   4.551   8.840  0.6624  1.6930  2.5851
  656MOL0     H88495   5.065   4.580   9.026 -0.7544  0.7346 -0.1937
  656MOL0     H88496   5.117   4.594   9.192 -1.1672 -2.5053 -0.8673
  656MOL0     H88497   5.127   4.848   9.029  3.8093 -1.1740  2.6335
  656MOL0     H88498   4.962   4.795   9.094 -0.2377  2.9874  0.9535
  656MOL0     H88499   5.030   4.954   9.235 -0.6167 -1.0991 -1.4281
  656MOL0     H88500   5.066   4.811   9.324  1.4000  2.2833  2.0398
  656MOL0     H88501   5.287   4.814   9.335  0.4388 -0.1513 -0.9496
  656MOL0     H88502   5.306   4.911   9.184  1.2625  1.7767  0.1753
  656MOL0     H88503   5.203   5.003   9.467  0.3029 -0.0852  0.5958
  656MOL0     H88504   5.367   5.027   9.401 -0.1437 -1.0261 -1.3948
  656MOL0     H88505   5.249   5.161   9.212 -1.4966 -1.3411  0.0551
  656MOL0     H88506   5.110   5.159   9.315  0.3763 -1.7854  0.5847
  656MOL0     H88507   5.197   5.370   9.363  0.2636 -0.5253 -0.1539
  656MOL0     H88508   5.236   5.260   9.492 -2.8610 -1.3278 -0.6165
  656MOL0     H88509   5.421   5.356   9.273  1.7729  0.5365 -0.6023
  656MOL0     H88510   5.461   5.231   9.394 -0.9572  0.5038  3.1200
  656MOL0     H88511   5.395   5.295   9.668  1.1876 -1.1802 -2.2491
  656MOL0     H88512   5.345   5.607   9.844 -0.9275  0.1191  0.1592
  656MOL0     H88513   5.389   5.439   9.874  0.7898 -0.6154 -0.5729
  656MOL0     H88514   5.512   5.644   9.976 -0.9856  1.0664  0.5053
  656MOL0     H88515   5.601   5.648   9.819 -1.6799 -1.5652 -1.2017
  656MOL0     H88516   5.695   5.447   9.851 -0.2799  3.6942 -0.6659
  656MOL0     H88517   5.581   5.401   9.984  0.0357  1.7896  3.1477
  656MOL0     H88518   5.836   5.560  10.014  1.1211 -1.8657  0.1179
  656MOL0     H88519   5.773   5.408  10.081 -0.5169 -0.6064 -0.9525
  656MOL0     H88520   5.648   5.801  10.274  0.6481  0.7608 -1.6121
  656MOL0     H88521   5.639   5.915  10.528  0.3735 -4.3227  2.5850
  656MOL0     H88522   5.791   5.939  10.599 -0.4172 -0.0059  0.3369
  656MOL0     H88523   5.765   6.005  10.435  3.7354 -1.5445 -1.8511
  656MOL0     H88524   6.055   5.652  10.941  2.4466 -0.7066  2.6906
  656MOL0     H88525   6.209   5.724  11.083  0.1302 -2.8040 -1.3786
  656MOL0     H88526   6.648   5.878  11.055 -0.1617  0.3747  0.1679
  656MOL0     H88527   6.625   5.826  10.892 -2.8850 -1.9022 -1.2382
  656MOL0     H88528   6.517   6.065  10.869  1.3389  1.5914 -0.2717
  656MOL0     H88529   6.513   6.073  11.052 -1.1366  1.0816 -1.1409
  656MOL0     H88530   6.768   6.066  10.892  2.2392  1.3130  1.2153
  656MOL0     H88531   6.750   6.069  11.062  0.3373 -0.8624 -0.4622
  656MOL0     H88532   6.667   6.262  10.842  0.0628  1.5569  0.8738
  656MOL0     H88533   6.600   6.273  10.999  0.6339 -2.2227  1.4467
  656MOL0     H88534   6.844   6.393  10.900 -0.2474  1.0258 -0.7586
  656MOL0     H88535   6.896   6.238  10.982 -2.4450 -0.7045 -0.1864
  656MOL0     H88536   6.712   6.453  11.088 -1.3276  0.2913  3.9569
  656MOL0     H88537   6.787   6.356  11.200  1.4141  1.2447  1.9180
  656MOL0     H88538   6.903   6.569  11.172 -0.8558 -0.0252 -0.7903
  656MOL0     H88539   6.972   6.508  11.019 -5.3138  0.7222 -1.8206
  656MOL0     H88540   7.123   6.484  11.190  0.7642 -0.2433  0.8631
  656MOL0     H88541   7.084   6.332  11.126  3.6519  0.8155  1.3860
  656MOL0     H88542   6.485   5.821  10.747  0.1192 -1.8512 -0.1427
  656MOL0     H88543   6.302   5.734  10.595 -0.0352 -1.4819  0.4296
  656MOL0     H88544   6.032   5.551  10.446 -1.2038  0.3995  0.1050
  656MOL0     H88545   5.910   5.476  10.247  2.7935 -1.7230  2.1131
  656MOL0     H88546   5.500   4.682   8.948  1.7007 -0.5230 -0.8637
  656MOL0     H88547   5.572   4.629   8.707 -0.6354 -0.6051 -2.1054
  656MOL0     H88548   5.728   4.283   8.391 -0.0780 -2.1004 -1.2004
  656MOL0     H88549   5.784   4.236   8.177 -0.9643 -1.5293 -0.5254
  656MOL0     H88550   5.794   4.212   7.941  2.5220 -1.3255 -3.3046
  656MOL0     H88551   5.746   4.262   7.789 -0.8330 -1.3568  0.0203
  656MOL0     H88552   5.881   4.451   7.970  0.7767 -0.3089 -0.6838
  656MOL0     H88553   5.808   4.489   7.807  3.3672  0.1022 -2.5791
  656MOL0     H88554   5.958   4.286   7.724 -2.0264  1.7183 -1.4650
  656MOL0     H88555   6.045   4.309   7.871  3.4625  0.8853 -3.0317
  656MOL0     H88556   6.034   4.503   7.644 -0.8071 -0.2375 -0.0662
  656MOL0     H88557   6.166   4.429   7.730 -1.8424 -2.7752  2.5317
  656MOL0     H88558   6.018   4.772   7.972 -2.5411  1.4838 -2.2828
  656MOL0     H88559   5.438   4.467   8.040 -0.9293  0.3977  0.2916
  656MOL0     H88560   5.387   4.521   8.278  0.8253  1.9520 -1.7860
  657MOL0     O88561   7.174   8.169   8.567  1.3212  0.5592  0.3759
  657MOL0     C88562   7.095   8.251   8.526  0.9528 -0.4617  0.4278
  657MOL0     O88563   6.967   8.228   8.464 -0.0865 -0.3184  0.7640
  657MOL0     C88564   6.892   8.117   8.471  0.4033 -0.9505  0.1445
  657MOL0     C88565   6.772   8.111   8.398  0.4877  0.0385 -0.2926
  657MOL0     C88566   6.675   8.002   8.412 -0.2943 -0.9409  0.9872
  657MOL0     C88567   6.702   7.897   8.494  0.6513  0.6263  0.3867
  657MOL0     O88568   6.615   7.796   8.537  0.6786  0.0410 -0.0677
  657MOL0     C88569   6.512   7.845   8.627  0.6352  0.0295 -0.2911
  657MOL0     C88570   6.393   7.744   8.632 -0.6188  0.6976  0.4665
  657MOL0     C88571   6.313   7.753   8.489 -0.8164  0.0661  0.4496
  657MOL0     C88572   6.226   7.884   8.483  0.4866  0.2019 -0.6820
  657MOL0     C88573   6.125   7.879   8.370  0.1786 -0.4537 -0.2997
  657MOL0     C88574   6.102   8.014   8.309 -0.9620  0.0137 -0.2848
  657MOL0     C88575   6.032   8.003   8.176  0.0071  0.4776 -0.5085
  657MOL0     C88576   5.995   8.138   8.124  0.2816 -0.4166 -0.2437
  657MOL0     N88577   5.876   8.132   8.039 -0.4632  0.6164 -0.9127
  657MOL0     C88578   5.753   8.165   8.084  0.6083 -0.1165 -0.1975
  657MOL0     C88579   5.674   8.188   7.978 -0.4196 -0.2880 -1.2587
  657MOL0     C88580   5.532   8.212   7.968  1.0672  0.1599  0.4744
  657MOL0     C88581   5.491   8.302   8.090 -0.3719  0.8486 -0.4966
  657MOL0     C88582   5.520   8.453   8.079 -1.0462 -0.8409  0.0970
  657MOL0     C88583   5.539   8.506   8.224  0.5747 -0.3245  0.2112
  657MOL0     O88584   5.658   8.469   8.283  0.1221 -0.4146 -0.6105
  657MOL0     C88585   5.688   8.499   8.416 -0.1514 -0.3317  0.8190
  657MOL0     C88586   5.796   8.429   8.473  0.5477  0.1985 -0.4997
  657MOL0     C88587   5.836   8.456   8.606 -0.9185  0.0714  0.3367
  657MOL0     C88588   5.962   8.386   8.661 -0.2994 -0.4173  0.2754
  657MOL0     C88589   5.762   8.547   8.687 -0.4039  0.3381 -0.7677
  657MOL0     C88590   5.783   8.571   8.830 -0.7694  0.2570 -0.5587
  657MOL0     O88591   5.818   8.469   8.906 -0.9588  0.2676  0.4186
  657MOL0     C88592   5.860   8.483   9.033 -1.2484  0.3813 -0.1685
  657MOL0     C88593   5.837   8.371   9.120  0.3962 -0.2756 -0.2206
  657MOL0     C88594   5.860   8.389   9.258 -0.2867 -0.5686 -0.2078
  657MOL0     C88595   5.896   8.510   9.308  0.2333 -1.1490  1.0141
  657MOL0     O88596   5.891   8.528   9.445 -0.1973 -0.2688  0.3878
  657MOL0     C88597   5.770   8.480   9.512 -0.5349 -0.0189 -0.5319
  657MOL0     C88598   5.760   8.576   9.631  0.0792 -0.2097  0.3398
  657MOL0     C88599   5.636   8.557   9.720 -0.0281 -0.3476 -0.0848
  657MOL0     C88600   5.649   8.604   9.873  0.5516 -0.1192  0.2409
  657MOL0     C88601   5.518   8.637   9.946 -0.6346  0.0643  0.9784
  657MOL0     C88602   5.433   8.517   9.981  0.5602  1.4271  1.0972
  657MOL0     C88603   5.335   8.467   9.875 -1.7114 -0.6074  0.0423
  657MOL0     C88604   5.241   8.368   9.931  0.3498  0.5574 -0.1082
  657MOL0    Cl88605   5.305   8.197   9.946  0.4141  0.1154 -0.2411
  657MOL0     C88606   5.930   8.614   9.225  0.9374  0.5412  0.6363
  657MOL0     C88607   5.921   8.605   9.084  1.0525 -0.1742 -0.5159
  657MOL0     O88608   5.738   8.677   8.878 -0.7448 -0.1209  0.5642
  657MOL0     C88609   5.645   8.607   8.630 -0.0396 -0.0981  0.5456
  657MOL0     C88610   5.614   8.580   8.501  0.5300  0.3825  0.0402
  657MOL0     N88611   5.747   8.161   7.869 -0.7009  0.4437  0.6660
  657MOL0     N88612   5.872   8.147   7.905 -0.9546  1.2321  0.4455
  657MOL0     C88613   6.829   7.896   8.561  0.5183  0.7617  0.2388
  657MOL0     C88614   6.919   8.004   8.552  0.0864  0.2377 -0.1530
  657MOL0     C88615   7.155   8.389   8.521 -0.8490 -0.4954  0.0490
  657MOL0     C88616   7.282   8.416   8.577 -0.2276 -0.4160 -1.5694
  657MOL0     C88617   7.335   8.542   8.582  0.2555 -0.0251 -0.2045
  657MOL0     C88618   7.259   8.644   8.522 -0.0924 -0.0214  0.2166
  657MOL0     O88619   7.306   8.782   8.510  0.0129  0.3205 -0.2237
  657MOL0     C88620   7.450   8.794   8.528 -0.2245  0.2938  0.5035
  657MOL0     C88621   7.500   8.935   8.515 -0.5749 -1.0488  0.1585
  657MOL0     C88622   7.434   9.036   8.612  0.3388  0.0100 -0.0337
  657MOL0     C88623   7.491   9.028   8.759  0.4421  0.7104  1.2129
  657MOL0     C88624   7.461   9.150   8.825  0.4445 -0.9593 -0.2743
  657MOL0     C88625   7.446   9.258   8.873  0.0329  0.3537 -0.1662
  657MOL0     C88626   7.122   8.627   8.474 -0.5852 -0.9536  0.5668
  657MOL0     C88627   7.083   8.500   8.477 -0.4146 -0.7889  0.1918
  657MOL0     H88628   6.762   8.190   8.324  2.7623  0.6058 -0.0421
  657MOL0     H88629   6.593   8.023   8.344  2.1010  2.9104 -1.1490
  657MOL0     H88630   6.559   7.846   8.726  0.5210  3.2581 -0.1684
  657MOL0     H88631   6.475   7.942   8.595 -0.8141 -0.3723  0.1128
  657MOL0     H88632   6.442   7.648   8.650 -0.6874  0.7936  1.1812
  657MOL0     H88633   6.326   7.748   8.718 -1.7009  1.4179 -0.3842
  657MOL0     H88634   6.386   7.754   8.407 -0.7063  1.3742  0.5421
  657MOL0     H88635   6.251   7.663   8.492 -1.4835  0.3020 -2.5690
  657MOL0     H88636   6.177   7.896   8.580 -0.7677  0.3791 -1.3159
  657MOL0     H88637   6.297   7.964   8.463  2.3868 -1.0221  0.7602
  657MOL0     H88638   6.162   7.816   8.288 -3.3411 -1.0942 -1.5670
  657MOL0     H88639   6.031   7.841   8.412 -1.2351  3.5426  0.5198
  657MOL0     H88640   6.059   8.080   8.385  2.1910 -0.6290  2.3059
  657MOL0     H88641   6.199   8.065   8.300 -1.1960  0.6181  0.4377
  657MOL0     H88642   6.092   7.941   8.108 -4.2712 -3.1743 -1.4232
  657MOL0     H88643   5.944   7.938   8.183  0.0778  0.1619 -2.2755
  657MOL0     H88644   6.071   8.198   8.073 -0.8393  1.5649  0.3004
  657MOL0     H88645   5.980   8.215   8.201 -1.2693 -0.8695 -0.0542
  657MOL0     H88646   5.742   8.168   8.192  0.5451 -1.9301 -0.1192
  657MOL0     H88647   5.510   8.264   7.874 -0.7267  1.9236  1.7847
  657MOL0     H88648   5.478   8.117   7.968  0.7690  0.3253  0.3655
  657MOL0     H88649   5.529   8.249   8.178 -2.5996 -1.6276 -0.8821
  657MOL0     H88650   5.382   8.298   8.101 -0.0757 -0.3421  4.1494
  657MOL0     H88651   5.460   8.511   8.009 -1.2166 -0.4597  0.5527
  657MOL0     H88652   5.620   8.466   8.037 -0.0974 -2.2475  1.7687
  657MOL0     H88653   5.453   8.484   8.287  1.6058  1.2491  2.3107
  657MOL0     H88654   5.546   8.614   8.207  3.2934 -0.2597  1.2196
  657MOL0     H88655   5.838   8.347   8.416 -0.7539  0.0154 -1.2294
  657MOL0     H88656   6.019   8.341   8.579  0.5319 -3.1569  2.1997
  657MOL0     H88657   6.025   8.470   8.692  2.6350 -1.3467 -2.5765
  657MOL0     H88658   5.926   8.317   8.738 -4.1472  1.3998  0.3649
  657MOL0     H88659   5.796   8.278   9.081 -0.4421 -0.6310  1.4118
  657MOL0     H88660   5.820   8.315   9.327 -2.4589 -0.4499 -1.2436
  657MOL0     H88661   5.680   8.481   9.451 -0.7459 -4.7637 -0.6816
  657MOL0     H88662   5.777   8.374   9.539 -2.7453 -1.0588 -3.5293
  657MOL0     H88663   5.842   8.555   9.700 -1.2501  0.7306  2.3006
  657MOL0     H88664   5.758   8.681   9.601 -4.9588  0.1185  0.8813
  657MOL0     H88665   5.625   8.449   9.709  0.6139 -0.3248 -1.0426
  657MOL0     H88666   5.541   8.586   9.673  0.5732  1.6454 -0.1552
  657MOL0     H88667   5.710   8.531   9.927 -1.1629 -0.9943  1.0904
  657MOL0     H88668   5.702   8.699   9.862  1.6826 -0.7125  0.4391
  657MOL0     H88669   5.451   8.705   9.893 -2.2599 -1.3295  1.1819
  657MOL0     H88670   5.536   8.693  10.039  1.3857 -1.8824  1.8744
  657MOL0     H88671   5.494   8.435  10.020 -0.4377 -1.2931 -2.5317
  657MOL0     H88672   5.370   8.549  10.065 -4.3494 -1.7353 -0.9251
  657MOL0     H88673   5.400   8.426   9.797 -1.7644  0.6129 -0.6559
  657MOL0     H88674   5.278   8.553   9.839 -1.5722  0.2315  1.7255
  657MOL0     H88675   5.164   8.353   9.855  1.0975 -4.8605 -0.1916
  657MOL0     H88676   5.191   8.392  10.025 -1.0215 -3.4704  0.3622
  657MOL0     H88677   5.966   8.708   9.265 -1.0750  2.2872 -1.4015
  657MOL0     H88678   5.944   8.678   9.008  0.2801 -0.3535 -0.9355
  657MOL0     H88679   5.577   8.677   8.678 -2.1355 -0.7657 -1.2873
  657MOL0     H88680   5.526   8.622   8.453 -0.5408 -1.7903  0.0154
  657MOL0     H88681   6.839   7.813   8.631 -0.3736 -0.2263 -0.7683
  657MOL0     H88682   7.012   8.007   8.608 -0.0409  2.4712  0.0132
  657MOL0     H88683   7.351   8.346   8.621  0.2785  1.4358  0.8081
  657MOL0     H88684   7.433   8.566   8.622  0.8312 -1.3546 -0.7534
  657MOL0     H88685   7.480   8.754   8.625  1.2882  0.3150  0.0592
  657MOL0     H88686   7.489   8.723   8.455  1.4794 -0.6755  2.2597
  657MOL0     H88687   7.471   8.974   8.417 -0.2803  0.5483  0.6785
  657MOL0     H88688   7.607   8.947   8.531 -0.3426 -2.4356 -0.2913
  657MOL0     H88689   7.326   9.018   8.615  0.2722  0.4936  1.8317
  657MOL0     H88690   7.444   9.132   8.562  0.3908  0.0491  0.0518
  657MOL0     H88691   7.600   9.016   8.761  0.3085 -0.9708  0.3965
  657MOL0     H88692   7.444   8.954   8.825  0.3720  1.3324  1.8713
  657MOL0     H88693   7.455   9.363   8.890  3.5426  0.0698  0.3728
  657MOL0     H88694   7.054   8.703   8.436 -2.8332 -1.6905  2.7788
  657MOL0     H88695   6.980   8.488   8.447 -0.9433  1.0556  1.0942
  658MOL0     O88696  10.888   5.199   4.365  0.7250 -0.5570 -0.5652
  658MOL0     C88697  10.783   5.269   4.388  1.0505 -0.3985 -0.1415
  658MOL0     O88698  10.735   5.371   4.320 -0.1205  0.6366  0.3043
  658MOL0     C88699  10.795   5.432   4.215  0.7485  0.0382 -1.1913
  658MOL0     C88700  10.729   5.554   4.172 -1.0552 -0.3102  0.2877
  658MOL0     C88701  10.788   5.631   4.069  0.2397 -0.3927  0.7571
  658MOL0     C88702  10.910   5.590   4.019  0.4083  0.2476 -0.0270
  658MOL0     O88703  10.956   5.676   3.920 -0.4736 -0.0041 -0.2598
  658MOL0     C88704  11.071   5.641   3.841  0.1479 -0.7298  0.0326
  658MOL0     C88705  11.103   5.741   3.731  1.4422  0.0981  0.2492
  658MOL0     C88706  11.212   5.684   3.638  0.1744  0.0959 -0.4619
  658MOL0     C88707  11.282   5.783   3.539  0.6144  0.9888 -0.2245
  658MOL0     C88708  11.211   5.802   3.404 -0.5381  0.5949 -0.4394
  658MOL0     C88709  11.268   5.912   3.309 -0.6731 -0.2106  0.0362
  658MOL0     C88710  11.189   5.910   3.182  1.1252 -1.0408  0.0595
  658MOL0     C88711  11.230   6.022   3.083 -0.4671  1.3031  0.7191
  658MOL0     N88712  11.220   6.158   3.135 -0.4992 -0.0107  0.5399
  658MOL0     C88713  11.146   6.248   3.068  0.8182  0.2287  0.3783
  658MOL0     C88714  11.194   6.372   3.107 -0.1796  0.8646 -0.8300
  658MOL0     C88715  11.140   6.509   3.075 -0.5591 -0.7841 -0.0345
  658MOL0     C88716  11.025   6.545   3.170  0.2905  0.2892  0.2085
  658MOL0     C88717  11.086   6.606   3.297  0.5052  0.9177 -0.0321
  658MOL0     C88718  10.979   6.628   3.399  0.0742 -0.5050  1.1174
  658MOL0     O88719  10.968   6.764   3.440  0.0742  0.2840 -0.1213
  658MOL0     C88720  11.058   6.810   3.539 -0.6291 -0.0709  0.6086
  658MOL0     C88721  11.032   6.932   3.602  0.2642 -0.8260 -0.2680
  658MOL0     C88722  11.119   7.001   3.687 -0.6938  0.0728 -0.9280
  658MOL0     C88723  11.069   7.135   3.739 -0.4890 -0.5168  0.4443
  658MOL0     C88724  11.242   6.929   3.720 -0.1701  0.0888 -0.3677
  658MOL0     C88725  11.340   6.990   3.815  0.6129  0.1644  0.4385
  658MOL0     O88726  11.437   6.903   3.868 -1.2833  0.4955 -0.1463
  658MOL0     C88727  11.557   6.949   3.926  0.4548  0.0627  0.4601
  658MOL0     C88728  11.556   7.055   4.018 -0.4447  0.7204  0.7992
  658MOL0     C88729  11.679   7.123   4.043  0.4159  0.8430 -0.8080
  658MOL0     C88730  11.804   7.083   3.982  0.7286  0.2082 -0.8516
  658MOL0     O88731  11.921   7.152   4.002 -0.3289 -0.4106  0.1343
  658MOL0     C88732  11.930   7.293   4.051  0.2974 -0.1949  0.1421
  658MOL0     C88733  12.034   7.304   4.164 -0.0800  0.7275 -0.1501
  658MOL0     C88734  12.178   7.274   4.114 -0.8171  0.0753  0.4719
  658MOL0     C88735  12.245   7.400   4.125 -0.2763 -0.1290  0.4845
  658MOL0     C88736  12.388   7.436   4.071 -0.7807  0.2746 -0.2316
  658MOL0     C88737  12.506   7.406   4.160  0.3419 -0.3119  0.9227
  658MOL0     C88738  12.499   7.273   4.229 -0.2564 -0.0648  0.7856
  658MOL0     C88739  12.631   7.223   4.274 -0.0111 -0.4066 -0.0444
  658MOL0    Cl88740  12.626   7.062   4.354  0.0261 -0.3039 -0.1193
  658MOL0     C88741  11.806   6.969   3.911 -0.3419  0.7343  0.3927
  658MOL0     C88742  11.684   6.899   3.870 -0.5857 -0.8609  0.9722
  658MOL0     O88743  11.341   7.111   3.829 -1.1718  0.1547 -0.2237
  658MOL0     C88744  11.271   6.818   3.646  0.6988 -0.6309  0.5041
  658MOL0     C88745  11.176   6.748   3.569 -0.2795  0.4659 -0.2777
  658MOL0     N88746  11.302   6.350   3.192  0.9319  0.8261  1.0037
  658MOL0     N88747  11.323   6.223   3.195 -0.4855  0.6724  0.0265
  658MOL0     C88748  10.970   5.470   4.056 -0.1702  0.7247 -0.2359
  658MOL0     C88749  10.913   5.392   4.155 -0.8718 -0.8551  0.3636
  658MOL0     C88750  10.720   5.242   4.521  0.1697 -0.1962 -0.1417
  658MOL0     C88751  10.581   5.243   4.539  0.6296  0.6944 -1.1796
  658MOL0     C88752  10.532   5.215   4.666  0.2155 -0.4687 -0.8700
  658MOL0     C88753  10.604   5.173   4.779  0.4200  0.3056  0.0421
  658MOL0     O88754  10.549   5.139   4.892  0.1394 -0.9050 -0.2376
  658MOL0     C88755  10.425   5.070   4.876  0.7946  0.3134  0.5241
  658MOL0     C88756  10.459   4.925   4.841  0.2673 -0.1440  0.3184
  658MOL0     C88757  10.333   4.842   4.800  0.1926 -0.3476  0.7449
  658MOL0     C88758  10.342   4.693   4.791 -0.3902  0.5110  0.5411
  658MOL0     C88759  10.233   4.649   4.701  0.3010  0.3145 -0.6950
  658MOL0     C88760  10.152   4.600   4.630  0.0863 -0.5006  0.1041
  658MOL0     C88761  10.734   5.165   4.759  0.1554  1.1338 -0.0272
  658MOL0     C88762  10.799   5.198   4.633 -0.4379 -0.5214 -1.0408
  658MOL0     H88763  10.638   5.586   4.223 -1.9153 -2.4819  0.2259
  658MOL0     H88764  10.747   5.725   4.034  0.8284 -0.6506 -0.7147
  658MOL0     H88765  11.154   5.623   3.910  0.1832  4.3525  1.7950
  658MOL0     H88766  11.046   5.551   3.786  0.4404 -0.9790  0.3010
  658MOL0     H88767  11.006   5.770   3.689  1.1827  0.3858  1.0305
  658MOL0     H88768  11.143   5.819   3.797 -1.8094 -1.1911  4.1852
  658MOL0     H88769  11.298   5.651   3.697 -0.3871 -1.8686 -0.6754
  658MOL0     H88770  11.166   5.597   3.589 -1.3052 -0.2463  1.4405
  658MOL0     H88771  11.300   5.881   3.584  1.0996  0.3905  0.9065
  658MOL0     H88772  11.381   5.745   3.510  1.3869  2.3579  0.5461
  658MOL0     H88773  11.194   5.705   3.356 -1.2475  1.8668 -2.9358
  658MOL0     H88774  11.108   5.829   3.428 -0.6451  0.7282 -1.0239
  658MOL0     H88775  11.274   6.014   3.350  0.0705 -1.0301  2.0934
  658MOL0     H88776  11.369   5.887   3.276  0.2415  2.7415  0.2885
  658MOL0     H88777  11.212   5.819   3.126  0.9394 -1.6338  0.9297
  658MOL0     H88778  11.081   5.903   3.198  0.8288 -3.7011 -2.4341
  658MOL0     H88779  11.165   6.004   2.996  1.1074 -1.8593  0.0780
  658MOL0     H88780  11.330   5.991   3.049 -2.1630 -1.3055 -2.4753
  658MOL0     H88781  11.066   6.226   2.997  1.4170 -1.0557  0.0650
  658MOL0     H88782  11.214   6.589   3.071 -0.9398 -0.4657 -1.5779
  658MOL0     H88783  11.103   6.503   2.972 -0.5903  0.9679 -0.1614
  658MOL0     H88784  10.966   6.455   3.190  1.4886 -0.0261  2.8826
  658MOL0     H88785  10.964   6.613   3.109 -1.4679 -2.3364 -1.1473
  658MOL0     H88786  11.150   6.694   3.283 -1.1384  2.2039  0.2842
  658MOL0     H88787  11.154   6.534   3.344  0.2629  1.1675  0.7102
  658MOL0     H88788  10.984   6.568   3.491 -0.6241  1.2399  2.3412
  658MOL0     H88789  10.883   6.619   3.348  0.7022  4.9666 -1.8142
  658MOL0     H88790  10.928   6.963   3.592  0.0398 -1.0837  1.0130
  658MOL0     H88791  11.141   7.214   3.715 -0.7496 -1.4150 -4.1741
  658MOL0     H88792  10.981   7.165   3.683  0.5345  0.0204 -0.9407
  658MOL0     H88793  11.037   7.113   3.841 -0.4567 -1.3207  0.2825
  658MOL0     H88794  11.470   7.097   4.070 -2.6966 -2.4211 -0.0565
  658MOL0     H88795  11.691   7.196   4.123  0.5381  1.4898 -1.4006
  658MOL0     H88796  11.952   7.352   3.962 -2.4183 -0.2341 -0.6581
  658MOL0     H88797  11.834   7.337   4.081 -1.4641 -1.0116 -3.6555
  658MOL0     H88798  12.031   7.404   4.209  1.4948  0.5353  0.4670
  658MOL0     H88799  12.000   7.233   4.240 -0.5492  0.7451 -0.3393
  658MOL0     H88800  12.181   7.249   4.007  0.2491  1.9983  0.0017
  658MOL0     H88801  12.223   7.198   4.179  0.1181  1.0360  0.9771
  658MOL0     H88802  12.176   7.473   4.081 -0.2130 -1.7626 -2.6170
  658MOL0     H88803  12.255   7.419   4.232  1.4020 -1.0833  0.5309
  658MOL0     H88804  12.395   7.542   4.046 -1.5931  0.3281 -0.2501
  658MOL0     H88805  12.398   7.368   3.985  0.3318 -0.5084  0.4890
  658MOL0     H88806  12.596   7.413   4.098  1.3034  2.1896  2.4301
  658MOL0     H88807  12.502   7.471   4.248 -1.3795 -1.0315  1.4243
  658MOL0     H88808  12.466   7.197   4.158 -0.9631 -0.1805  1.2290
  658MOL0     H88809  12.430   7.280   4.314 -1.4682  1.0255 -0.2354
  658MOL0     H88810  12.674   7.291   4.349 -0.5238  2.6641 -2.3277
  658MOL0     H88811  12.705   7.212   4.194  2.2063 -2.4470  2.1092
  658MOL0     H88812  11.900   6.960   3.857 -0.3366  2.1984  0.1085
  658MOL0     H88813  11.691   6.818   3.798  0.0452 -0.0932  0.1486
  658MOL0     H88814  11.369   6.772   3.651  1.6852  0.9146 -2.3466
  658MOL0     H88815  11.208   6.663   3.510  2.2662  0.0183  1.5484
  658MOL0     H88816  11.063   5.455   4.002  0.2499  0.9636  0.4084
  658MOL0     H88817  10.970   5.308   4.193  1.2770  0.5764  0.4811
  658MOL0     H88818  10.502   5.264   4.469 -2.2195 -2.9044  0.6000
  658MOL0     H88819  10.427   5.241   4.670 -0.3371 -2.7048  1.9711
  658MOL0     H88820  10.375   5.074   4.973 -0.9249 -0.7681 -0.2684
  658MOL0     H88821  10.352   5.107   4.803 -1.3816 -0.6601  2.0876
  658MOL0     H88822  10.508   4.883   4.929 -0.6561  4.0374  3.1468
  658MOL0     H88823  10.517   4.910   4.750  0.0272 -1.6376  0.3827
  658MOL0     H88824  10.304   4.875   4.700  0.6922 -0.4805  0.5583
  658MOL0     H88825  10.257   4.856   4.878 -0.3999 -0.6350  0.2257
  658MOL0     H88826  10.317   4.646   4.886 -0.1932  2.7707  1.7732
  658MOL0     H88827  10.440   4.653   4.762 -0.6869  0.4980 -0.4909
  658MOL0     H88828  10.084   4.545   4.568 -2.6740 -0.3945  2.7658
  658MOL0     H88829  10.789   5.119   4.840  1.2206 -0.2374 -1.4679
  658MOL0     H88830  10.905   5.172   4.632 -0.2587 -0.7631  3.2994
  659MOL0     O88831  11.020  10.893   8.722  0.3916 -0.9219 -0.1935
  659MOL0     C88832  10.917  10.898   8.792 -0.1416  0.0958 -0.2532
  659MOL0     O88833  10.839  11.008   8.806 -0.2480 -0.5243 -0.5487
  659MOL0     C88834  10.865  11.110   8.726  1.5810  0.4413 -0.1561
  659MOL0     C88835  10.794  11.127   8.612  0.1316 -0.0186  0.5329
  659MOL0     C88836  10.804  11.237   8.524  0.1636  0.1769  0.0173
  659MOL0     C88837  10.884  11.348   8.561 -0.7356  0.0003  0.2352
  659MOL0     O88838  10.895  11.468   8.495  0.2864 -0.2139 -0.3488
  659MOL0     C88839  10.787  11.495   8.400  1.0760 -0.2048 -1.0475
  659MOL0     C88840  10.826  11.457   8.258  0.7847 -0.1206 -0.2841
  659MOL0     C88841  10.968  11.534   8.228 -0.2537  0.0169 -0.3112
  659MOL0     C88842  11.022  11.490   8.095  0.5775 -0.2041 -0.2341
  659MOL0     C88843  11.165  11.535   8.058  0.7401 -0.5562 -0.4776
  659MOL0     C88844  11.195  11.686   8.058 -0.6007 -0.0771 -0.2022
  659MOL0     C88845  11.176  11.743   7.920  0.1223 -0.5861  0.9143
  659MOL0     C88846  11.121  11.883   7.899 -0.3224  0.0049  1.3121
  659MOL0     N88847  11.191  11.986   7.958 -0.3863  0.7838  0.2186
  659MOL0     C88848  11.176  12.048   8.081  0.9948 -0.4619  0.3262
  659MOL0     C88849  11.270  12.150   8.089 -0.9744  0.3342 -0.7601
  659MOL0     C88850  11.297  12.239   8.219  0.0782  0.2276  0.2492
  659MOL0     C88851  11.383  12.165   8.321 -0.2994 -0.3532 -0.8433
  659MOL0     C88852  11.539  12.183   8.311  0.3889 -0.4449 -0.0692
  659MOL0     C88853  11.573  12.323   8.342  0.4839 -0.1897 -0.9189
  659MOL0     O88854  11.715  12.341   8.320  0.9567 -0.2766 -0.0847
  659MOL0     C88855  11.772  12.463   8.355  0.8186  0.0944  0.9874
  659MOL0     C88856  11.753  12.525   8.475  1.5654 -1.3784  0.3557
  659MOL0     C88857  11.826  12.640   8.498  0.0235  0.2344  0.0933
  659MOL0     C88858  11.790  12.727   8.616 -1.0966  0.4350  0.1132
  659MOL0     C88859  11.921  12.679   8.402  0.5989 -0.7536 -0.3640
  659MOL0     C88860  11.995  12.809   8.403 -0.3987 -0.4678 -0.2073
  659MOL0     O88861  12.082  12.842   8.299 -0.0327 -0.1388  0.0706
  659MOL0     C88862  12.147  12.957   8.305 -0.6002 -0.0601 -0.1050
  659MOL0     C88863  12.088  13.075   8.281  1.0700 -0.3492  0.7937
  659MOL0     C88864  12.154  13.193   8.291 -0.4800 -0.5632  0.6365
  659MOL0     C88865  12.291  13.199   8.327 -0.4657 -0.1793  0.4727
  659MOL0     O88866  12.354  13.317   8.323 -0.1207 -0.1560 -0.7937
  659MOL0     C88867  12.422  13.354   8.443  0.0355 -0.9030  0.1261
  659MOL0     C88868  12.338  13.439   8.530 -0.1987  0.7485 -0.2612
  659MOL0     C88869  12.298  13.578   8.470 -0.0778  0.4395  0.6599
  659MOL0     C88870  12.267  13.682   8.583 -1.0703  0.4195  0.4370
  659MOL0     C88871  12.146  13.650   8.662  0.7503 -0.2884  0.3272
  659MOL0     C88872  12.087  13.782   8.720  0.4168 -1.2467  0.2607
  659MOL0     C88873  11.968  13.752   8.808 -0.2466  0.5070  0.3985
  659MOL0     C88874  11.927  13.873   8.879 -0.3159  0.2033 -0.4340
  659MOL0    Cl88875  11.825  13.962   8.772 -0.1193 -0.3107 -0.0348
  659MOL0     C88876  12.360  13.080   8.358 -1.1000  0.3268  0.7331
  659MOL0     C88877  12.287  12.960   8.335 -0.7618 -1.1628  0.2083
  659MOL0     O88878  11.980  12.886   8.502 -0.4388 -0.1386  0.1721
  659MOL0     C88879  11.961  12.587   8.306  0.5083 -0.6521  0.6788
  659MOL0     C88880  11.875  12.482   8.270  0.3369 -0.5176 -0.6345
  659MOL0     N88881  11.334  12.144   7.967 -0.1652 -0.4262 -0.8750
  659MOL0     N88882  11.297  12.049   7.896  0.6362 -0.4790  0.4733
  659MOL0     C88883  10.966  11.325   8.674  0.3620 -0.1942 -0.2293
  659MOL0     C88884  10.952  11.216   8.766  0.4464 -0.7986 -0.1841
  659MOL0     C88885  10.878  10.790   8.884  0.3132  0.6391 -0.9376
  659MOL0     C88886  10.783  10.811   8.993 -0.1611  0.4625 -0.2718
  659MOL0     C88887  10.749  10.699   9.073  0.8370  0.1909 -0.6981
  659MOL0     C88888  10.808  10.577   9.053 -0.4280  0.2534  0.3747
  659MOL0     O88889  10.770  10.475   9.136 -0.9366  0.0619 -0.6941
  659MOL0     C88890  10.752  10.346   9.084  0.4474  0.3871  0.1219
  659MOL0     C88891  10.638  10.270   9.149 -0.2655 -0.2891  0.3702
  659MOL0     C88892  10.497  10.322   9.142  0.5753 -0.4956  0.3041
  659MOL0     C88893  10.451  10.371   9.006  0.1482  0.0842 -0.5208
  659MOL0     C88894  10.312  10.421   9.015  0.0107 -0.7329 -0.2843
  659MOL0     C88895  10.203  10.474   9.020 -0.2590 -1.0001  0.0567
  659MOL0     C88896  10.905  10.558   8.950  0.4040  1.4973 -0.1517
  659MOL0     C88897  10.939  10.662   8.869 -0.9514 -0.9560 -0.2912
  659MOL0     H88898  10.731  11.044   8.580  3.9940 -3.0192 -0.0946
  659MOL0     H88899  10.741  11.246   8.436  0.0206 -0.1641  0.0836
  659MOL0     H88900  10.692  11.453   8.435  1.0876  1.1729  0.7643
  659MOL0     H88901  10.768  11.602   8.408  0.3199 -0.4754  3.0195
  659MOL0     H88902  10.855  11.352   8.253  0.8303 -0.3045  2.4121
  659MOL0     H88903  10.747  11.477   8.186 -1.0872 -1.8213  1.1858
  659MOL0     H88904  10.934  11.638   8.226 -3.2644 -0.8059  0.9318
  659MOL0     H88905  11.043  11.511   8.305  0.1756 -0.1426 -0.7729
  659MOL0     H88906  11.021  11.382   8.107  2.1870 -0.2532 -0.2846
  659MOL0     H88907  10.952  11.534   8.023 -2.7140 -1.8804  1.7099
  659MOL0     H88908  11.224  11.502   8.144 -1.4294  3.1753  2.7567
  659MOL0     H88909  11.206  11.478   7.974 -1.2464 -3.5039  0.3887
  659MOL0     H88910  11.136  11.729   8.139  0.9632 -3.3380  2.9659
  659MOL0     H88911  11.297  11.701   8.096 -0.7800 -5.2065  3.3256
  659MOL0     H88912  11.270  11.725   7.867 -0.7894  0.9264 -1.3726
  659MOL0     H88913  11.107  11.672   7.875  0.4205 -0.3787  0.1135
  659MOL0     H88914  11.016  11.891   7.929  0.4408  2.9415  3.6285
  659MOL0     H88915  11.135  11.898   7.792  0.2059 -0.5214  1.3065
  659MOL0     H88916  11.103  12.009   8.151  2.3379 -2.4584  0.6681
  659MOL0     H88917  11.339  12.336   8.191  0.4875 -0.4649 -1.7420
  659MOL0     H88918  11.199  12.271   8.257 -0.2945  2.4801 -2.2845
  659MOL0     H88919  11.361  12.058   8.319  0.6888 -0.6095  0.7941
  659MOL0     H88920  11.350  12.205   8.417  1.6059  0.0718 -0.3198
  659MOL0     H88921  11.564  12.166   8.206  3.8568  1.4298  0.3022
  659MOL0     H88922  11.592  12.113   8.375  3.2858  1.7314  0.1586
  659MOL0     H88923  11.549  12.353   8.444  2.5954 -0.8131 -0.1747
  659MOL0     H88924  11.525  12.395   8.276 -0.7247 -0.0015  0.1309
  659MOL0     H88925  11.681  12.482   8.544 -0.0677  0.0612 -0.3666
  659MOL0     H88926  11.722  12.678   8.687 -0.3131 -4.4164 -2.1070
  659MOL0     H88927  11.884  12.727   8.672  0.6793 -3.1539 -2.4577
  659MOL0     H88928  11.766  12.831   8.593  0.5114  1.3447  2.2863
  659MOL0     H88929  11.982  13.073   8.258  0.8722  2.4254  1.2186
  659MOL0     H88930  12.100  13.287   8.280 -1.6658 -1.4693 -1.9899
  659MOL0     H88931  12.442  13.269   8.509 -0.1316  0.2895  1.7780
  659MOL0     H88932  12.513  13.409   8.418 -0.8823  0.6479  0.0441
  659MOL0     H88933  12.251  13.374   8.538 -1.0053  1.8873  0.4175
  659MOL0     H88934  12.383  13.454   8.628 -3.1124 -0.9787  1.4946
  659MOL0     H88935  12.228  13.567   8.387 -0.1788  1.2562  0.6222
  659MOL0     H88936  12.390  13.616   8.423  0.1012  2.0427  2.1794
  659MOL0     H88937  12.344  13.680   8.660  1.7462  1.7446 -2.1133
  659MOL0     H88938  12.254  13.781   8.538  0.3208  0.0638 -0.8347
  659MOL0     H88939  12.160  13.578   8.743 -2.0222 -2.0027 -0.5428
  659MOL0     H88940  12.099  13.590   8.584  1.4534 -0.5262  0.0843
  659MOL0     H88941  12.167  13.826   8.780  0.5034 -2.7585  1.3240
  659MOL0     H88942  12.048  13.847   8.641 -0.0295 -2.5678 -0.6600
  659MOL0     H88943  11.984  13.676   8.886 -1.3897  1.7311  1.8895
  659MOL0     H88944  11.884  13.719   8.745 -1.4724 -0.0480  2.2351
  659MOL0     H88945  12.007  13.937   8.917  2.3721 -2.6451 -0.8761
  659MOL0     H88946  11.851  13.843   8.952  0.3685 -2.5693 -0.7572
  659MOL0     H88947  12.454  13.085   8.411 -1.7513  0.5976  1.9043
  659MOL0     H88948  12.341  12.873   8.370  0.2686  0.0322  1.7208
  659MOL0     H88949  12.045  12.613   8.243  0.5929  1.3171  1.5128
  659MOL0     H88950  11.886  12.420   8.181 -0.7549 -2.4801  0.5311
  659MOL0     H88951  11.032  11.405   8.708 -2.2807  1.7028  0.7587
  659MOL0     H88952  11.005  11.211   8.860 -0.2687  2.7558  0.5350
  659MOL0     H88953  10.732  10.905   9.014  2.2581  2.1090 -1.3113
  659MOL0     H88954  10.684  10.705   9.160  0.9091  1.1173 -0.6977
  659MOL0     H88955  10.745  10.364   8.976  2.3563 -0.4881 -0.1865
  659MOL0     H88956  10.845  10.290   9.097  1.2396  0.8602 -2.7177
  659MOL0     H88957  10.659  10.258   9.256  1.1362  0.8112  0.2386
  659MOL0     H88958  10.660  10.171   9.109  2.5167 -0.0455  1.0873
  659MOL0     H88959  10.482  10.408   9.207 -0.1977 -0.9463  0.7380
  659MOL0     H88960  10.431  10.249   9.190  1.0655 -2.7100 -2.1488
  659MOL0     H88961  10.449  10.285   8.937 -1.4268 -0.9944  0.7934
  659MOL0     H88962  10.519  10.452   8.979 -1.2590  2.2223  1.9839
  659MOL0     H88963  10.123  10.543   9.037  0.6747  0.2660 -0.6177
  659MOL0     H88964  10.951  10.459   8.953 -2.1946  0.1809 -0.3600
  659MOL0     H88965  11.020  10.639   8.800 -2.3133 -2.9917 -1.3197
  660MOL0     O88966   9.583   5.928   7.222  0.0305  0.6724 -0.1287
  660MOL0     C88967   9.514   5.995   7.289 -0.4158  0.6201 -0.1638
  660MOL0     O88968   9.407   6.071   7.249  0.2611  1.2295  0.0589
  660MOL0     C88969   9.397   6.112   7.124 -0.1156  0.2081 -0.2611
  660MOL0     C88970   9.280   6.086   7.048  0.1841 -0.2402 -0.5600
  660MOL0     C88971   9.258   6.133   6.915  0.4995  0.0915 -0.3078
  660MOL0     C88972   9.354   6.213   6.852  0.6999 -0.9812 -0.0912
  660MOL0     O88973   9.327   6.262   6.726 -0.7399 -0.0481  0.4453
  660MOL0     C88974   9.313   6.401   6.715  0.6878  0.1136  0.5957
  660MOL0     C88975   9.204   6.419   6.607 -1.3942 -0.6435 -0.9067
  660MOL0     C88976   9.220   6.553   6.554 -0.9630  0.5411  0.1409
  660MOL0     C88977   9.100   6.585   6.469 -0.2549 -0.5371  0.8702
  660MOL0     C88978   9.095   6.732   6.417  0.6686 -0.3231  0.0502
  660MOL0     C88979   9.197   6.768   6.316  0.5167  0.6955  0.9015
  660MOL0     C88980   9.223   6.917   6.297  0.2505  0.1930 -0.3346
  660MOL0     C88981   9.117   7.000   6.226 -0.1690 -0.0387 -0.2479
  660MOL0     N88982   9.116   6.954   6.088  0.1035 -0.0343 -0.4871
  660MOL0     C88983   9.202   6.983   5.982  0.4341  0.4568 -0.0538
  660MOL0     C88984   9.146   6.926   5.873  0.5608  0.0463  0.7390
  660MOL0     C88985   9.182   6.934   5.728 -0.5361  0.1047  0.6864
  660MOL0     C88986   9.237   7.067   5.666  0.3273  1.0379  0.6158
  660MOL0     C88987   9.135   7.171   5.633  0.9179 -0.5488 -0.3365
  660MOL0     C88988   9.047   7.127   5.521 -0.0874  0.0478  0.0305
  660MOL0     O88989   8.961   7.232   5.477 -0.8404 -0.3011  0.1708
  660MOL0     C88990   8.848   7.193   5.405  0.5804 -0.1339 -0.1338
  660MOL0     C88991   8.742   7.286   5.403  1.0260  1.0730 -0.0166
  660MOL0     C88992   8.617   7.256   5.329  1.0700 -0.2707  0.2677
  660MOL0     C88993   8.508   7.363   5.313  0.1162 -0.2225  0.1172
  660MOL0     C88994   8.605   7.133   5.266 -0.2895  0.0147  0.1838
  660MOL0     C88995   8.488   7.087   5.188 -0.6156 -0.4522  0.4394
  660MOL0     O88996   8.412   7.183   5.118 -0.6394  0.2867 -0.4324
  660MOL0     C88997   8.306   7.137   5.040  0.1293  0.5405  1.2068
  660MOL0     C88998   8.195   7.074   5.091  0.0086 -0.0165 -0.8386
  660MOL0     C88999   8.073   7.058   5.016  0.1364 -0.0299 -1.1966
  660MOL0     C89000   8.073   7.099   4.881 -0.7346 -0.9959 -0.3606
  660MOL0     O89001   7.970   7.069   4.788 -0.6331  0.2407  0.5721
  660MOL0     C89002   7.844   7.023   4.845 -0.0736  0.1737  0.5299
  660MOL0     C89003   7.755   6.976   4.730 -0.0660 -0.5782 -0.6392
  660MOL0     C89004   7.771   6.833   4.702  0.0496  0.3349  0.1428
  660MOL0     C89005   7.669   6.774   4.596  1.1413  0.2623 -0.3896
  660MOL0     C89006   7.689   6.622   4.574 -0.1965 -0.4571 -0.4409
  660MOL0     C89007   7.623   6.580   4.449 -0.1288  0.3520 -0.0292
  660MOL0     C89008   7.665   6.431   4.435 -1.0911 -0.2184  0.0947
  660MOL0     C89009   7.587   6.360   4.322 -0.7209 -0.3636 -0.7299
  660MOL0    Cl89010   7.407   6.351   4.347  0.0939 -0.2946 -0.1922
  660MOL0     C89011   8.188   7.157   4.828  1.4486  0.6784  0.8325
  660MOL0     C89012   8.297   7.189   4.910 -1.0971  0.6579 -0.6174
  660MOL0     O89013   8.456   6.975   5.199 -0.1801  0.6616 -0.0234
  660MOL0     C89014   8.718   7.048   5.259 -0.2897  0.0281 -0.2965
  660MOL0     C89015   8.838   7.074   5.332  0.0840  0.7707 -0.0501
  660MOL0     N89016   9.035   6.856   5.921  0.2948  0.1402 -0.0952
  660MOL0     N89017   9.008   6.886   6.045 -0.1442 -0.0730 -0.5413
  660MOL0     C89018   9.474   6.242   6.922  0.3703  0.4549  0.0526
  660MOL0     C89019   9.498   6.191   7.052 -0.4085  0.0046 -0.6107
  660MOL0     C89020   9.549   5.993   7.436  0.1923 -0.2007  0.6695
  660MOL0     C89021   9.454   6.023   7.527  0.1991  0.5932  0.3893
  660MOL0     C89022   9.471   6.031   7.666 -1.0814 -0.4759 -0.7523
  660MOL0     C89023   9.595   6.010   7.719  0.5262  0.8160  0.2128
  660MOL0     O89024   9.622   6.022   7.858 -0.1666 -0.5958  0.4609
  660MOL0     C89025   9.573   6.133   7.926  0.8406  0.0351 -0.1243
  660MOL0     C89026   9.556   6.122   8.076  0.6096 -0.9718 -0.3292
  660MOL0     C89027   9.443   6.026   8.098 -1.0113 -0.8974 -0.7252
  660MOL0     C89028   9.412   5.993   8.246  0.2286 -0.3648  0.5860
  660MOL0     C89029   9.535   5.944   8.312 -0.3385 -0.3866  0.2458
  660MOL0     C89030   9.644   5.905   8.346 -0.3732 -0.9246  0.7145
  660MOL0     C89031   9.697   5.971   7.625 -0.2121 -0.0554 -0.1746
  660MOL0     C89032   9.673   5.961   7.489 -0.4458  0.6552 -0.6464
  660MOL0     H89033   9.210   6.026   7.105  1.0865  0.0599  0.9266
  660MOL0     H89034   9.176   6.099   6.852  0.5067  0.4758 -0.5280
  660MOL0     H89035   9.268   6.442   6.806 -1.5721  2.4944 -1.4226
  660MOL0     H89036   9.409   6.444   6.687  0.7384 -0.5172 -0.2472
  660MOL0     H89037   9.223   6.347   6.528  1.3656 -0.9290 -0.1047
  660MOL0     H89038   9.104   6.403   6.648 -0.4799 -1.7669  1.0606
  660MOL0     H89039   9.239   6.615   6.642 -1.1063 -0.9358  1.2598
  660MOL0     H89040   9.311   6.556   6.494 -1.5128  2.7006 -0.6524
  660MOL0     H89041   9.099   6.516   6.384 -0.1490 -1.2513  1.4396
  660MOL0     H89042   9.007   6.561   6.521  0.6043 -2.1726  1.7367
  660MOL0     H89043   8.993   6.753   6.385 -0.2039 -2.4603  1.2112
  660MOL0     H89044   9.121   6.796   6.502  1.0708  2.0041 -1.7338
  660MOL0     H89045   9.283   6.702   6.329 -0.9855 -1.8180 -0.9063
  660MOL0     H89046   9.159   6.740   6.217  1.4762  2.1925  0.0643
  660MOL0     H89047   9.252   6.962   6.393 -1.4261 -2.0845  1.3370
  660MOL0     H89048   9.317   6.925   6.242  0.2818 -1.7391 -0.6239
  660MOL0     H89049   9.139   7.107   6.237  0.2359 -0.3473  3.2364
  660MOL0     H89050   9.019   6.987   6.273 -1.5479  3.1255 -1.9507
  660MOL0     H89051   9.292   7.043   5.993  1.4955 -0.6440 -2.0039
  660MOL0     H89052   9.263   6.864   5.704 -0.5183 -0.8558  3.1931
  660MOL0     H89053   9.093   6.901   5.673 -1.7111  2.0899  1.3146
  660MOL0     H89054   9.275   7.032   5.570 -1.8820 -1.1040  0.4267
  660MOL0     H89055   9.313   7.098   5.738  0.8179 -2.0553  1.6021
  660MOL0     H89056   9.191   7.261   5.608  1.2328 -0.5135  0.4615
  660MOL0     H89057   9.068   7.198   5.715  1.3636  1.2011 -0.5158
  660MOL0     H89058   8.973   7.050   5.547 -1.3906  1.7602  1.7433
  660MOL0     H89059   9.108   7.099   5.435 -0.7103  0.1096 -0.4350
  660MOL0     H89060   8.753   7.385   5.446 -1.7872  2.2462 -1.7673
  660MOL0     H89061   8.549   7.459   5.344  0.7675 -0.2460 -0.6533
  660MOL0     H89062   8.466   7.378   5.213 -1.1949 -1.2752  0.4778
  660MOL0     H89063   8.432   7.333   5.386  0.6192 -1.0345  0.3213
  660MOL0     H89064   8.201   7.034   5.192 -0.5852  1.0014 -0.3913
  660MOL0     H89065   7.987   7.008   5.058 -0.7686  1.6940 -0.9159
  660MOL0     H89066   7.855   6.940   4.916 -0.4380 -2.3513 -2.1676
  660MOL0     H89067   7.795   7.107   4.893 -4.1990 -1.0283 -1.1114
  660MOL0     H89068   7.652   6.983   4.766 -0.6034 -1.7292 -1.8754
  660MOL0     H89069   7.763   7.038   4.640 -0.8874 -0.3968 -0.5934
  660MOL0     H89070   7.763   6.780   4.797 -0.7581  0.1323 -0.0297
  660MOL0     H89071   7.870   6.812   4.662  0.5658  0.8658  1.0898
  660MOL0     H89072   7.570   6.792   4.638  0.8409 -2.1113  0.0508
  660MOL0     H89073   7.683   6.823   4.499  3.2027  0.9553  0.1922
  660MOL0     H89074   7.661   6.563   4.663 -0.9014  1.4594  0.6532
  660MOL0     H89075   7.798   6.615   4.568 -0.3169 -2.0351 -1.3433
  660MOL0     H89076   7.516   6.588   4.473 -1.2934 -0.8018 -4.0853
  660MOL0     H89077   7.650   6.635   4.359  1.0743 -1.4885 -0.8565
  660MOL0     H89078   7.641   6.378   4.527  3.4591 -1.3150  0.8877
  660MOL0     H89079   7.773   6.427   4.419 -1.3341 -0.6315 -1.6552
  660MOL0     H89080   7.621   6.257   4.307 -1.4074 -0.5293 -1.1469
  660MOL0     H89081   7.609   6.435   4.246  1.1400  0.7820  0.8316
  660MOL0     H89082   8.186   7.200   4.729 -0.3418  0.4912  0.7481
  660MOL0     H89083   8.382   7.245   4.874 -2.7371  1.4828 -3.4939
  660MOL0     H89084   8.713   6.957   5.200  1.0839  0.3287 -0.9135
  660MOL0     H89085   8.923   7.007   5.327  1.4760  2.2267  2.0327
  660MOL0     H89086   9.549   6.304   6.873  2.2460 -2.3681 -0.9536
  660MOL0     H89087   9.593   6.211   7.101 -1.1218  0.3337  0.6923
  660MOL0     H89088   9.356   6.052   7.488  0.2945 -0.1343 -0.4177
  660MOL0     H89089   9.388   6.070   7.724  1.2035  0.9668  1.7379
  660MOL0     H89090   9.646   6.212   7.910 -0.1086  0.6798 -1.5179
  660MOL0     H89091   9.475   6.150   7.881  1.1870  0.6445 -0.6581
  660MOL0     H89092   9.536   6.217   8.127 -5.1665 -0.9572 -1.9304
  660MOL0     H89093   9.656   6.087   8.104  0.6656 -0.0098  0.7654
  660MOL0     H89094   9.480   5.935   8.049 -0.2895 -1.7514  1.2880
  660MOL0     H89095   9.358   6.071   8.046 -2.0048  0.8981  2.2475
  660MOL0     H89096   9.341   5.910   8.246  1.8055 -1.7843  1.3910
  660MOL0     H89097   9.381   6.087   8.294  3.1757  0.1117  1.7763
  660MOL0     H89098   9.734   5.850   8.365  0.7088  1.0690  1.5533
  660MOL0     H89099   9.789   5.950   7.677  0.3163 -0.4142 -1.2285
  660MOL0     H89100   9.754   5.919   7.431 -0.2269 -0.7544  0.6184
  661MOL0     O89101   7.618   3.118   3.540 -0.2306 -0.8238 -0.4267
  661MOL0     C89102   7.744   3.115   3.560  0.5791 -0.1155  0.1687
  661MOL0     O89103   7.804   3.135   3.681  0.0412  0.3323  0.8801
  661MOL0     C89104   7.737   3.161   3.803 -0.0714  0.4739 -0.5860
  661MOL0     C89105   7.790   3.086   3.915  0.1885 -0.2873 -0.2505
  661MOL0     C89106   7.744   3.103   4.042 -0.6361 -0.5584 -0.0078
  661MOL0     C89107   7.634   3.193   4.066  0.1439 -1.3281 -0.3997
  661MOL0     O89108   7.577   3.226   4.188  0.8584 -0.7465  0.0175
  661MOL0     C89109   7.657   3.220   4.316 -0.1390 -0.7260 -0.4823
  661MOL0     C89110   7.680   3.364   4.374  0.6969  0.5218  0.3114
  661MOL0     C89111   7.772   3.444   4.279 -0.4106  0.1276  0.9069
  661MOL0     C89112   7.853   3.557   4.357  0.1611 -0.2246 -0.3060
  661MOL0     C89113   7.971   3.622   4.281  0.2185  0.5772 -0.0671
  661MOL0     C89114   8.028   3.726   4.373  0.0433  0.1023 -0.6076
  661MOL0     C89115   8.115   3.823   4.306  1.0845  0.4314  0.7389
  661MOL0     C89116   8.228   3.770   4.224 -0.2897 -0.4469  0.7760
  661MOL0     N89117   8.335   3.703   4.302  0.3277  0.1198  0.0625
  661MOL0     C89118   8.436   3.763   4.368  0.5285  0.5303  0.1162
  661MOL0     C89119   8.503   3.651   4.417 -0.0385 -0.8628 -1.1032
  661MOL0     C89120   8.613   3.647   4.518 -0.4236  0.1787  0.6327
  661MOL0     C89121   8.569   3.567   4.633 -0.1976  0.4900 -0.2687
  661MOL0     C89122   8.480   3.639   4.729 -0.5159  0.5095 -0.1318
  661MOL0     C89123   8.506   3.592   4.873  0.0905  0.0293  0.4241
  661MOL0     O89124   8.501   3.444   4.877  0.1986 -0.1674 -0.3615
  661MOL0     C89125   8.505   3.388   5.006  0.1026 -0.2888 -0.2901
  661MOL0     C89126   8.516   3.249   4.991  0.1319 -0.0720  0.6470
  661MOL0     C89127   8.517   3.164   5.102 -0.4395 -0.2964 -0.3030
  661MOL0     C89128   8.539   3.019   5.076  0.3274 -1.2069 -0.8706
  661MOL0     C89129   8.490   3.220   5.235 -0.6149  0.4464  0.0092
  661MOL0     C89130   8.466   3.138   5.361  0.4814  0.4290  0.4636
  661MOL0     O89131   8.411   3.007   5.357 -0.7255  0.0156 -0.0329
  661MOL0     C89132   8.431   2.933   5.468 -0.1606  0.8406  0.2202
  661MOL0     C89133   8.325   2.909   5.559  0.1534  0.2605 -0.9993
  661MOL0     C89134   8.333   2.834   5.682  1.4380  0.4310 -0.1839
  661MOL0     C89135   8.461   2.786   5.719 -0.6726  1.1114  0.5457
  661MOL0     O89136   8.473   2.738   5.842 -0.6135  0.2643 -0.2640
  661MOL0     C89137   8.566   2.627   5.869 -0.2116  0.7059 -0.7072
  661MOL0     C89138   8.517   2.547   5.989  0.5619  0.0105  0.0399
  661MOL0     C89139   8.526   2.623   6.120  0.0776  0.5575  0.0540
  661MOL0     C89140   8.479   2.561   6.242  0.1922  0.8078 -0.5773
  661MOL0     C89141   8.474   2.656   6.360  0.2612 -0.0263 -0.2366
  661MOL0     C89142   8.385   2.781   6.350 -0.0128  0.4557  0.4297
  661MOL0     C89143   8.399   2.893   6.452  0.2740  1.0715 -0.2837
  661MOL0     C89144   8.341   2.853   6.584 -0.0297  1.4142 -0.1450
  661MOL0    Cl89145   8.440   2.735   6.674 -0.2702 -0.5233 -0.0986
  661MOL0     C89146   8.560   2.786   5.621  0.0133 -0.0575  0.3600
  661MOL0     C89147   8.545   2.852   5.497 -0.0833 -0.6479  0.6151
  661MOL0     O89148   8.498   3.195   5.466  0.3098  1.2878 -0.2575
  661MOL0     C89149   8.494   3.366   5.245 -0.4794 -0.3117 -0.4050
  661MOL0     C89150   8.512   3.450   5.139 -0.8493 -0.7404 -0.2191
  661MOL0     N89151   8.452   3.530   4.374 -0.1346 -0.5209  0.3388
  661MOL0     N89152   8.348   3.561   4.300 -0.6006 -0.2782 -0.4846
  661MOL0     C89153   7.571   3.246   3.953 -0.3030 -0.5999 -0.8862
  661MOL0     C89154   7.624   3.232   3.822  0.4196  0.6743  0.3435
  661MOL0     C89155   7.829   3.090   3.444  0.3546  0.4338 -0.0329
  661MOL0     C89156   7.772   3.048   3.314 -0.3096  0.6272 -0.0341
  661MOL0     C89157   7.855   3.005   3.210  0.7444  0.0045  0.5355
  661MOL0     C89158   7.992   3.025   3.224 -0.3689 -0.6622  0.1102
  661MOL0     O89159   8.082   2.972   3.129 -0.3394  0.5219 -0.1621
  661MOL0     C89160   8.091   3.052   3.008  0.5361  0.0988 -0.0012
  661MOL0     C89161   8.188   3.010   2.901 -0.7924 -0.5374 -0.1104
  661MOL0     C89162   8.306   2.936   2.962 -0.2935 -0.3556 -0.1388
  661MOL0     C89163   8.397   2.891   2.847  1.1320  0.4180  0.1528
  661MOL0     C89164   8.528   2.849   2.892 -0.0168 -0.5987  0.6735
  661MOL0     C89165   8.629   2.814   2.947 -0.5218  0.4712  0.3128
  661MOL0     C89166   8.042   3.099   3.334 -0.1145  0.1118 -0.3606
  661MOL0     C89167   7.964   3.128   3.445  0.1218 -0.5465  0.6500
  661MOL0     H89168   7.872   3.016   3.908  0.1448 -0.7727  2.6817
  661MOL0     H89169   7.806   3.073   4.125 -0.7979  1.8382  1.0617
  661MOL0     H89170   7.597   3.162   4.387  0.1256 -1.7901 -1.0936
  661MOL0     H89171   7.748   3.159   4.313  2.5117  2.8288  0.9408
  661MOL0     H89172   7.583   3.412   4.391  0.0359 -1.2194  1.8014
  661MOL0     H89173   7.724   3.357   4.474  1.7214  0.1080 -0.1567
  661MOL0     H89174   7.846   3.372   4.242 -2.4765 -1.5819 -0.1133
  661MOL0     H89175   7.715   3.481   4.193  1.2292 -0.0469 -0.3051
  661MOL0     H89176   7.784   3.642   4.369  0.6021  0.2571 -1.1233
  661MOL0     H89177   7.876   3.517   4.456 -0.0854 -0.6143 -0.4051
  661MOL0     H89178   8.043   3.546   4.251  1.8828  1.7768  0.7026
  661MOL0     H89179   7.934   3.669   4.189  0.6159 -1.7165 -1.4736
  661MOL0     H89180   7.951   3.786   4.423 -0.5731 -1.2647  0.1658
  661MOL0     H89181   8.079   3.676   4.456 -0.9746  0.9495  0.5570
  661MOL0     H89182   8.045   3.874   4.240  1.6829 -1.1131 -1.1768
  661MOL0     H89183   8.163   3.893   4.376  3.6026 -0.4721  0.0191
  661MOL0     H89184   8.266   3.853   4.164  0.0609 -0.8053  0.4972
  661MOL0     H89185   8.192   3.701   4.148  0.3205 -0.0638  0.1231
  661MOL0     H89186   8.444   3.869   4.392 -3.5577  0.8208  0.9990
  661MOL0     H89187   8.698   3.598   4.470 -1.4110 -0.5271 -0.4344
  661MOL0     H89188   8.645   3.747   4.549  0.5743  1.0862 -2.9330
  661MOL0     H89189   8.657   3.533   4.689  0.5728 -0.4569 -1.9890
  661MOL0     H89190   8.525   3.471   4.605  0.1671  0.0141  0.7301
  661MOL0     H89191   8.382   3.603   4.698 -0.5130 -0.8258  1.3044
  661MOL0     H89192   8.486   3.749   4.725  1.1074  0.4559  0.1692
  661MOL0     H89193   8.441   3.629   4.953 -0.2533  2.4391 -0.8550
  661MOL0     H89194   8.605   3.632   4.898 -0.4502  1.5027  0.3519
  661MOL0     H89195   8.514   3.205   4.891  0.4839  0.1197  0.5561
  661MOL0     H89196   8.569   2.976   5.172  4.0964  1.2584 -0.7176
  661MOL0     H89197   8.449   2.969   5.039 -1.7353  0.4409  1.5513
  661MOL0     H89198   8.624   3.012   5.008  1.5794  5.0784 -0.5959
  661MOL0     H89199   8.233   2.956   5.527  0.2454 -0.3616 -2.2500
  661MOL0     H89200   8.247   2.817   5.746  1.0914 -0.3116 -0.8347
  661MOL0     H89201   8.575   2.572   5.774  0.8538  0.5068 -0.5083
  661MOL0     H89202   8.669   2.660   5.883 -0.0571 -0.4056  1.0244
  661MOL0     H89203   8.412   2.527   5.967  0.9458  1.6807 -4.2963
  661MOL0     H89204   8.583   2.461   5.997  2.2350  1.0811 -1.5160
  661MOL0     H89205   8.464   2.712   6.111 -0.0416  0.7032  1.9378
  661MOL0     H89206   8.626   2.663   6.138  0.1277  1.2959 -1.6277
  661MOL0     H89207   8.377   2.524   6.223  0.4900  1.2116 -3.3323
  661MOL0     H89208   8.545   2.480   6.273 -1.2820  0.2211  1.2627
  661MOL0     H89209   8.578   2.673   6.389  0.8896 -2.5035 -0.8928
  661MOL0     H89210   8.414   2.601   6.433 -0.4653 -1.0606 -1.5756
  661MOL0     H89211   8.410   2.834   6.258  1.7476 -0.9227  0.0508
  661MOL0     H89212   8.281   2.749   6.356  0.3383 -1.6198 -2.5609
  661MOL0     H89213   8.335   2.972   6.411  3.2472  2.6004 -2.4297
  661MOL0     H89214   8.502   2.929   6.446  0.9672 -1.0229 -4.1120
  661MOL0     H89215   8.239   2.819   6.559 -0.2721  3.5052 -2.3645
  661MOL0     H89216   8.332   2.944   6.643 -0.1850  1.5140 -0.3211
  661MOL0     H89217   8.660   2.746   5.632  0.0124 -0.4192 -0.8825
  661MOL0     H89218   8.631   2.869   5.434 -2.6549  4.1216 -2.1919
  661MOL0     H89219   8.476   3.410   5.342  0.1309 -1.9928  0.5097
  661MOL0     H89220   8.493   3.555   5.156  1.5883  0.3160 -3.1637
  661MOL0     H89221   7.483   3.307   3.968  0.0949 -0.6033  2.0851
  661MOL0     H89222   7.574   3.279   3.738  0.4832  1.5685  0.7888
  661MOL0     H89223   7.670   3.022   3.288  0.2302 -2.3511  0.4603
  661MOL0     H89224   7.818   2.957   3.119  1.5293  0.6058 -0.1168
  661MOL0     H89225   7.994   3.053   2.958 -1.7529  2.0127  3.9383
  661MOL0     H89226   8.118   3.153   3.039 -0.3950  1.3836 -3.0155
  661MOL0     H89227   8.218   3.102   2.850  2.6218 -1.8988 -0.8112
  661MOL0     H89228   8.144   2.941   2.828  0.2892 -0.8434 -0.4878
  661MOL0     H89229   8.283   2.850   3.025  0.9806 -0.9617 -0.4708
  661MOL0     H89230   8.359   3.004   3.029  4.8326 -3.5441 -0.4318
  661MOL0     H89231   8.403   2.979   2.783  2.4161 -1.4934 -2.5246
  661MOL0     H89232   8.347   2.808   2.796 -2.3416 -0.1414  3.9422
  661MOL0     H89233   8.700   2.771   3.016 -0.0627 -1.5126 -1.2939
  661MOL0     H89234   8.149   3.120   3.336  0.2933 -1.7806 -0.6570
  661MOL0     H89235   8.014   3.184   3.523 -1.5382 -0.6859  1.8443
  662MOL0     O89236   8.939   1.205   3.192 -0.0277  1.3935  0.1055
  662MOL0     C89237   8.871   1.184   3.293  0.0724  0.9261  0.5718
  662MOL0     O89238   8.830   1.058   3.342  0.4458  0.4415 -0.3712
  662MOL0     C89239   8.861   0.950   3.268 -1.7827 -0.1491 -0.2117
  662MOL0     C89240   8.985   0.897   3.247  0.2424  0.3189 -0.6471
  662MOL0     C89241   9.001   0.778   3.180 -0.1289 -0.1537 -0.2085
  662MOL0     C89242   8.890   0.697   3.139  0.0961  0.1366  1.0319
  662MOL0     O89243   8.915   0.580   3.077  0.1368  0.1501  0.5708
  662MOL0     C89244   8.950   0.582   2.940 -0.6136 -0.2121  0.3816
  662MOL0     C89245   8.890   0.689   2.846 -0.7251  0.5500 -0.2765
  662MOL0     C89246   8.948   0.677   2.702  0.3384  0.4143 -0.4702
  662MOL0     C89247   8.826   0.695   2.603  0.0951 -0.1189  0.5109
  662MOL0     C89248   8.867   0.670   2.462  0.1264  0.1166  0.6942
  662MOL0     C89249   8.746   0.665   2.367  0.8845 -0.3649 -0.2091
  662MOL0     C89250   8.791   0.660   2.223  0.5661  0.4285  1.0405
  662MOL0     C89251   8.675   0.657   2.122  0.0729  0.3327 -0.7695
  662MOL0     N89252   8.715   0.667   1.983 -0.5406  0.4576  0.5062
  662MOL0     C89253   8.809   0.574   1.932 -0.7540 -0.1930 -0.4655
  662MOL0     C89254   8.830   0.621   1.804  0.5612 -0.2957  0.4001
  662MOL0     C89255   8.933   0.553   1.708  0.0303  0.2876  0.6032
  662MOL0     C89256   8.874   0.451   1.622 -0.0538  0.0454  0.1326
  662MOL0     C89257   8.983   0.400   1.525 -0.1224  0.2862  0.1152
  662MOL0     C89258   9.094   0.304   1.580 -0.2376  0.7385 -0.2938
  662MOL0     O89259   9.035   0.174   1.604 -0.1314 -0.2865 -0.1106
  662MOL0     C89260   9.103   0.077   1.679 -0.2706 -0.6592  0.8118
  662MOL0     C89261   9.022  -0.030   1.711 -0.5419  1.0906 -0.4134
  662MOL0     C89262   9.066  -0.144   1.780 -0.3933  0.4798 -0.2223
  662MOL0     C89263   8.974  -0.265   1.782  0.6507 -0.5110  0.4841
  662MOL0     C89264   9.199  -0.146   1.825 -0.7497 -0.1030 -0.1955
  662MOL0     C89265   9.261  -0.260   1.897  0.2948  0.1010  0.4505
  662MOL0     O89266   9.388  -0.234   1.945 -0.1335 -0.5086  0.3768
  662MOL0     C89267   9.463  -0.323   2.016 -0.6642  0.1167  0.0019
  662MOL0     C89268   9.602  -0.294   1.999 -0.3637  0.8479  0.0950
  662MOL0     C89269   9.701  -0.364   2.062 -0.2643 -0.2505  0.2337
  662MOL0     C89270   9.661  -0.454   2.163 -0.4578 -0.4506  0.7077
  662MOL0     O89271   9.767  -0.496   2.233 -0.4750  0.6728 -0.2086
  662MOL0     C89272   9.744  -0.562   2.357  0.0652  0.0685  0.9033
  662MOL0     C89273   9.766  -0.714   2.361 -0.6613  0.1074 -0.7231
  662MOL0     C89274   9.918  -0.729   2.328 -0.3471 -0.0032 -1.0230
  662MOL0     C89275   9.953  -0.873   2.315  0.2292 -0.5985  0.2319
  662MOL0     C89276  10.094  -0.887   2.271  0.0186 -0.4060  0.3602
  662MOL0     C89277  10.121  -1.002   2.178 -0.4668 -0.7339 -0.7343
  662MOL0     C89278  10.268  -1.033   2.140  1.1338  0.1126  0.9578
  662MOL0     C89279  10.356  -1.091   2.259  1.3237 -0.3626  0.1259
  662MOL0    Cl89280  10.527  -1.074   2.223  0.2779  0.1259 -0.3815
  662MOL0     C89281   9.520  -0.473   2.181 -0.7478  0.7293  0.5536
  662MOL0     C89282   9.415  -0.408   2.118 -0.3956  0.2955  0.2010
  662MOL0     O89283   9.201  -0.362   1.922  0.5132 -0.2214 -0.2810
  662MOL0     C89284   9.285  -0.040   1.793 -0.7882 -0.2771  0.0327
  662MOL0     C89285   9.234   0.074   1.724 -0.0463  0.0348 -0.6569
  662MOL0     N89286   8.770   0.742   1.778  0.1828  0.2336 -0.8850
  662MOL0     N89287   8.706   0.762   1.887 -0.3822  0.5188 -0.0825
  662MOL0     C89288   8.763   0.749   3.151 -0.6280 -0.0365 -0.1734
  662MOL0     C89289   8.756   0.873   3.214  0.7988 -0.8087  0.0231
  662MOL0     C89290   8.833   1.293   3.379 -0.3084 -0.3728  0.7307
  662MOL0     C89291   8.727   1.311   3.466 -0.5664 -0.2514  0.5132
  662MOL0     C89292   8.707   1.420   3.550 -0.2738  0.6601  0.6504
  662MOL0     C89293   8.811   1.511   3.554  0.3544 -0.3548  0.6666
  662MOL0     O89294   8.808   1.620   3.632 -0.2805 -0.8926  0.4106
  662MOL0     C89295   8.702   1.711   3.612 -0.5860 -0.4089  1.1875
  662MOL0     C89296   8.758   1.839   3.612  0.8633  0.9895  0.0361
  662MOL0     C89297   8.649   1.937   3.555  0.4128  0.1264  0.8106
  662MOL0     C89298   8.668   2.072   3.614  0.4490 -0.2682  0.5443
  662MOL0     C89299   8.576   2.167   3.545  0.6913  0.2282  0.0757
  662MOL0     C89300   8.495   2.246   3.492  0.2685 -0.2902 -0.1406
  662MOL0     C89301   8.928   1.502   3.474  0.1963 -0.3040 -1.1324
  662MOL0     C89302   8.933   1.400   3.380  0.0661  0.6348  0.7887
  662MOL0     H89303   9.059   0.966   3.285 -0.5836  1.4224 -0.9766
  662MOL0     H89304   9.103   0.742   3.175  2.2598  5.7113 -3.1717
  662MOL0     H89305   9.058   0.591   2.924 -0.6798  1.1336  0.5569
  662MOL0     H89306   8.917   0.487   2.895 -1.8541  1.6594 -3.0470
  662MOL0     H89307   8.783   0.668   2.839  0.1105 -4.0695 -3.6413
  662MOL0     H89308   8.905   0.788   2.890 -2.4960  0.5150  0.5300
  662MOL0     H89309   9.029   0.750   2.695  0.3701  0.5817  1.1151
  662MOL0     H89310   8.995   0.578   2.690  1.2620  1.0475 -2.3763
  662MOL0     H89311   8.749   0.620   2.627 -2.2442  1.0627 -2.5338
  662MOL0     H89312   8.780   0.794   2.605 -0.1129 -0.1549  4.2613
  662MOL0     H89313   8.925   0.758   2.434 -1.8243  0.2347 -4.0232
  662MOL0     H89314   8.925   0.577   2.467  0.6375  0.2309 -1.7644
  662MOL0     H89315   8.696   0.569   2.385  0.6142 -0.4584 -1.4078
  662MOL0     H89316   8.674   0.745   2.385 -0.4779 -1.4929 -0.3933
  662MOL0     H89317   8.840   0.753   2.192 -3.4194  1.3408 -3.8860
  662MOL0     H89318   8.864   0.581   2.201  0.4045  1.1986 -3.0342
  662MOL0     H89319   8.610   0.743   2.141  2.0828  1.7531  0.0006
  662MOL0     H89320   8.619   0.567   2.148  1.3033 -0.3703 -0.4755
  662MOL0     H89321   8.835   0.479   1.977  2.6790  0.3955 -0.9775
  662MOL0     H89322   8.990   0.630   1.654  0.9030 -0.5726  0.2612
  662MOL0     H89323   9.010   0.503   1.768  0.6241  0.0815 -0.3169
  662MOL0     H89324   8.797   0.500   1.562 -2.4479 -0.3151  2.7417
  662MOL0     H89325   8.818   0.373   1.673 -0.7140  1.5771  1.8503
  662MOL0     H89326   9.032   0.491   1.490 -0.5218  2.5217  4.5368
  662MOL0     H89327   8.937   0.341   1.445 -1.9342 -0.2976  1.5027
  662MOL0     H89328   9.155   0.332   1.666  1.5321 -0.4430 -1.1131
  662MOL0     H89329   9.168   0.306   1.499  0.3145  0.4841  0.1961
  662MOL0     H89330   8.920  -0.026   1.676 -0.3383  2.9222 -0.9010
  662MOL0     H89331   9.013  -0.364   1.760 -4.5967 -3.1487  1.4094
  662MOL0     H89332   8.928  -0.265   1.881 -0.5015 -4.5873  0.1184
  662MOL0     H89333   8.891  -0.246   1.713 -1.0182 -0.4600  2.4063
  662MOL0     H89334   9.624  -0.221   1.922 -0.8339  0.3661 -0.5097
  662MOL0     H89335   9.804  -0.352   2.030 -0.9708 -0.2310 -2.3022
  662MOL0     H89336   9.809  -0.532   2.439 -0.6545  0.0279  1.4961
  662MOL0     H89337   9.641  -0.539   2.384 -0.4571  0.8937 -1.4803
  662MOL0     H89338   9.740  -0.747   2.462 -3.4082  0.4310 -1.2319
  662MOL0     H89339   9.706  -0.765   2.284 -2.1666  0.8476 -0.0633
  662MOL0     H89340   9.968  -0.685   2.415 -2.8256  0.3865  0.2936
  662MOL0     H89341   9.958  -0.671   2.243  1.6885  1.1487  0.6183
  662MOL0     H89342   9.956  -0.908   2.419  2.5561  0.5525  0.6229
  662MOL0     H89343   9.877  -0.919   2.251 -1.4919 -0.7171  2.2525
  662MOL0     H89344  10.162  -0.898   2.357  0.3408 -3.6012 -0.1809
  662MOL0     H89345  10.141  -0.812   2.207  2.2698 -2.3619 -0.4434
  662MOL0     H89346  10.074  -1.089   2.224 -1.1938 -0.5827 -1.1859
  662MOL0     H89347  10.077  -0.975   2.082  2.0259  2.4829 -1.1847
  662MOL0     H89348  10.311  -0.942   2.099  1.6377  0.0174  1.2751
  662MOL0     H89349  10.268  -1.108   2.059  3.8701  0.2567  0.7322
  662MOL0     H89350  10.336  -1.197   2.277  3.2096 -0.2396  3.8821
  662MOL0     H89351  10.336  -1.028   2.346 -1.4254  2.6304 -2.3979
  662MOL0     H89352   9.485  -0.549   2.250  1.6372 -4.0881 -2.9296
  662MOL0     H89353   9.308  -0.412   2.138 -1.0616  3.8862 -1.8323
  662MOL0     H89354   9.390  -0.038   1.819 -1.0219 -1.6707  1.1851
  662MOL0     H89355   9.304   0.156   1.710 -0.3204  0.5428  0.7672
  662MOL0     H89356   8.672   0.698   3.124 -0.8864  0.2646  0.1063
  662MOL0     H89357   8.653   0.904   3.223  1.5204  2.5249 -1.4845
  662MOL0     H89358   8.662   1.223   3.467  0.5684 -1.1582 -0.9945
  662MOL0     H89359   8.618   1.421   3.613  0.1783  1.0890  1.2882
  662MOL0     H89360   8.644   1.698   3.521  1.9406  1.7181 -0.9021
  662MOL0     H89361   8.629   1.700   3.693 -2.9759 -0.7935 -0.8786
  662MOL0     H89362   8.852   1.849   3.556  1.0784  3.2951  0.7027
  662MOL0     H89363   8.785   1.878   3.711  0.7011  4.3313 -1.0929
  662MOL0     H89364   8.546   1.907   3.578  0.2737 -0.3812 -0.3924
  662MOL0     H89365   8.661   1.956   3.448 -2.5071  2.2691  0.7522
  662MOL0     H89366   8.774   2.093   3.604  0.8775 -2.4939 -0.0933
  662MOL0     H89367   8.635   2.066   3.719 -0.8797 -2.1592  0.0807
  662MOL0     H89368   8.425   2.308   3.439  1.9830  1.2633 -0.6900
  662MOL0     H89369   9.007   1.576   3.488 -1.3671  1.1761  0.3038
  662MOL0     H89370   9.026   1.403   3.325  0.8468  0.3762  2.0552
  663MOL0     O89371   1.363   1.535   9.209 -0.1548 -0.3777  0.5358
  663MOL0     C89372   1.412   1.442   9.142 -0.3689  0.7459 -0.7854
  663MOL0     O89373   1.500   1.345   9.196  0.1235  1.1293 -0.2692
  663MOL0     C89374   1.558   1.357   9.314  0.7984  0.0394 -0.4072
  663MOL0     C89375   1.477   1.385   9.438 -0.7649 -0.1804  0.3593
  663MOL0     C89376   1.552   1.401   9.553  0.0670  0.3462  0.7419
  663MOL0     C89377   1.691   1.389   9.556 -0.4932  0.3108 -0.4927
  663MOL0     O89378   1.754   1.413   9.675 -0.6843  0.2035  0.6099
  663MOL0     C89379   1.882   1.346   9.689  0.4113 -0.5779 -0.1221
  663MOL0     C89380   1.923   1.368   9.839  1.3191  0.0437  0.4028
  663MOL0     C89381   1.826   1.279   9.934  0.1414 -0.1028 -1.0847
  663MOL0     C89382   1.777   1.347  10.062 -0.9002 -0.6092  0.1594
  663MOL0     C89383   1.664   1.436  10.035  0.1109  0.8507  0.3294
  663MOL0     C89384   1.633   1.523  10.163 -0.1841 -0.2295  0.0873
  663MOL0     C89385   1.494   1.584  10.154  0.5740 -0.4684  0.2877
  663MOL0     C89386   1.487   1.690  10.269  0.4444 -0.0803  0.7769
  663MOL0     N89387   1.362   1.767  10.278  0.7170 -0.9192 -0.3329
  663MOL0     C89388   1.327   1.869  10.188  0.2607 -0.0249 -0.6288
  663MOL0     C89389   1.202   1.899  10.224  0.2839  0.0909  0.1751
  663MOL0     C89390   1.098   1.993  10.161 -0.1512  0.0282  0.1719
  663MOL0     C89391   1.165   2.118  10.133 -0.2309 -0.4136 -1.2430
  663MOL0     C89392   1.068   2.224  10.080  0.1325 -0.2923 -0.2236
  663MOL0     C89393   0.998   2.172   9.954  0.6208 -0.3650  1.2821
  663MOL0     O89394   1.094   2.105   9.858  0.5873  0.4010 -0.2868
  663MOL0     C89395   1.171   2.182   9.774 -0.2550 -0.5110  0.6950
  663MOL0     C89396   1.188   2.318   9.778 -0.0704 -0.1350  0.8949
  663MOL0     C89397   1.261   2.383   9.670  0.5184 -0.7677 -0.8256
  663MOL0     C89398   1.266   2.530   9.704 -0.3879 -0.6043  0.4441
  663MOL0     C89399   1.310   2.310   9.557  1.3841 -0.4266  0.6678
  663MOL0     C89400   1.393   2.367   9.441 -0.4306 -0.4610 -0.9247
  663MOL0     O89401   1.418   2.497   9.459 -0.2223  0.2829 -1.1547
  663MOL0     C89402   1.459   2.581   9.356 -0.9218 -0.9697  0.8906
  663MOL0     C89403   1.399   2.705   9.323  0.0159 -0.0200 -0.1092
  663MOL0     C89404   1.438   2.788   9.222 -0.0427  0.4308 -0.0089
  663MOL0     C89405   1.540   2.748   9.135  0.0451  0.0599 -0.0786
  663MOL0     O89406   1.574   2.828   9.031  0.4280  0.6044 -0.3376
  663MOL0     C89407   1.631   2.767   8.914  0.6355  0.8584 -0.9965
  663MOL0     C89408   1.641   2.868   8.794 -0.0404  0.3195  0.3379
  663MOL0     C89409   1.502   2.895   8.750 -0.9161  0.1392  0.3699
  663MOL0     C89410   1.444   2.769   8.678 -0.6886  0.4805 -0.1799
  663MOL0     C89411   1.292   2.759   8.666  0.5881 -1.0799  0.1684
  663MOL0     C89412   1.246   2.665   8.559  0.3714 -0.4682  1.4767
  663MOL0     C89413   1.286   2.522   8.585  0.0246 -0.5174  0.4687
  663MOL0     C89414   1.209   2.418   8.494 -0.0960 -1.0366 -0.5197
  663MOL0    Cl89415   1.256   2.423   8.331 -0.4819  0.1579 -0.1398
  663MOL0     C89416   1.596   2.623   9.151 -0.0628  0.2658 -0.3429
  663MOL0     C89417   1.564   2.543   9.270 -0.4928  0.5247  0.2621
  663MOL0     O89418   1.437   2.296   9.352  0.5395 -0.5029  0.2205
  663MOL0     C89419   1.272   2.180   9.549  0.7151 -0.0073  0.3841
  663MOL0     C89420   1.213   2.115   9.657 -0.0495 -0.1722 -0.7419
  663MOL0     N89421   1.168   1.827  10.342  0.1070 -0.1812  0.3869
  663MOL0     N89422   1.262   1.751  10.375 -0.4641  0.4246  0.1744
  663MOL0     C89423   1.757   1.358   9.437 -0.5388 -0.1297 -0.0007
  663MOL0     C89424   1.697   1.343   9.312  0.0580  0.1955 -0.5792
  663MOL0     C89425   1.376   1.425   8.997 -0.2159 -0.1643 -0.2731
  663MOL0     C89426   1.258   1.484   8.945  0.0258  0.0241  0.0680
  663MOL0     C89427   1.226   1.466   8.807 -0.6617 -0.0386  0.6453
  663MOL0     C89428   1.312   1.403   8.718  0.3715  0.7760  0.4099
  663MOL0     O89429   1.280   1.401   8.588  0.1121  0.2118 -0.7132
  663MOL0     C89430   1.241   1.523   8.521  1.3133 -0.6896 -1.1831
  663MOL0     C89431   1.263   1.511   8.366 -0.0286 -0.1186 -0.6756
  663MOL0     C89432   1.409   1.567   8.331 -0.1693 -0.5181  0.3819
  663MOL0     C89433   1.510   1.455   8.334 -0.0538 -0.1045  0.6213
  663MOL0     C89434   1.491   1.376   8.208  0.1364  0.1763  0.7509
  663MOL0     C89435   1.491   1.317   8.100 -1.3268  0.3418 -0.8914
  663MOL0     C89436   1.430   1.349   8.773 -0.6073  1.0155 -0.0773
  663MOL0     C89437   1.468   1.369   8.909  0.5611 -0.8238  1.3250
  663MOL0     H89438   1.369   1.396   9.439 -1.1350 -3.0165  2.1920
  663MOL0     H89439   1.514   1.461   9.635  0.9055  1.9007  0.0547
  663MOL0     H89440   1.877   1.238   9.677 -3.2463 -0.6309  0.6248
  663MOL0     H89441   1.955   1.391   9.622 -1.7813  2.5756 -0.6674
  663MOL0     H89442   2.023   1.326   9.858  0.7534 -1.4487  0.2694
  663MOL0     H89443   1.927   1.474   9.863 -1.5334  0.3025  0.0612
  663MOL0     H89444   1.743   1.223   9.889  0.5287 -3.2955  1.7006
  663MOL0     H89445   1.894   1.202   9.972  0.8589  2.2453  2.9810
  663MOL0     H89446   1.742   1.272  10.132  1.2170 -2.1177 -0.2814
  663MOL0     H89447   1.861   1.405  10.103 -1.7550 -1.6594  3.6877
  663MOL0     H89448   1.683   1.502   9.951 -1.8404  2.6177  1.1794
  663MOL0     H89449   1.567   1.391  10.010 -0.4914  0.9252  2.3578
  663MOL0     H89450   1.652   1.457  10.248 -1.6232  1.7271  2.0565
  663MOL0     H89451   1.709   1.598  10.188 -1.4134  0.8552  0.7467
  663MOL0     H89452   1.480   1.621  10.053  1.3481 -1.0536 -0.0430
  663MOL0     H89453   1.409   1.521  10.182 -0.2645  1.0748  1.3894
  663MOL0     H89454   1.564   1.760  10.234 -1.6164  0.6048 -2.8967
  663MOL0     H89455   1.514   1.654  10.368  1.8325 -3.2307 -0.5993
  663MOL0     H89456   1.385   1.912  10.107 -1.9561 -0.6064 -2.6265
  663MOL0     H89457   1.068   1.945  10.067  3.4624 -1.9738 -0.1508
  663MOL0     H89458   1.018   2.004  10.235  0.8157 -2.6249  1.7564
  663MOL0     H89459   1.251   2.097  10.069  1.1987 -1.7641  0.9734
  663MOL0     H89460   1.220   2.166  10.215  0.6410 -0.5828 -1.7139
  663MOL0     H89461   1.135   2.308  10.061 -0.3571  1.2072  3.7954
  663MOL0     H89462   0.993   2.253  10.154  0.3666 -0.1052 -0.0596
  663MOL0     H89463   0.954   2.254   9.895 -3.9315 -0.7049  3.7974
  663MOL0     H89464   0.913   2.112   9.987  1.0530 -0.5711  2.0476
  663MOL0     H89465   1.140   2.369   9.860  0.0293  0.0111  0.8604
  663MOL0     H89466   1.211   2.596   9.635  2.2564 -0.6433 -1.8627
  663MOL0     H89467   1.212   2.536   9.799  1.6087 -1.2221  1.6547
  663MOL0     H89468   1.365   2.572   9.724 -1.1206  1.6921 -0.3452
  663MOL0     H89469   1.313   2.741   9.377  1.2596  3.0947 -0.0053
  663MOL0     H89470   1.373   2.869   9.191  0.2626 -0.8640 -4.8628
  663MOL0     H89471   1.735   2.740   8.935  0.9475  1.3305 -1.8784
  663MOL0     H89472   1.575   2.674   8.902  1.8148 -0.1267  0.6732
  663MOL0     H89473   1.686   2.961   8.831 -1.0828  0.4023  1.4340
  663MOL0     H89474   1.703   2.822   8.716 -0.4331  0.3309  0.0179
  663MOL0     H89475   1.500   2.988   8.693 -0.2163  0.8683  1.4924
  663MOL0     H89476   1.446   2.917   8.841  1.6335 -2.8659  2.9402
  663MOL0     H89477   1.474   2.787   8.575 -1.4130  1.1997 -0.2728
  663MOL0     H89478   1.485   2.675   8.716 -0.5496  0.1644 -1.1009
  663MOL0     H89479   1.265   2.861   8.636 -0.6794 -1.1567  0.9812
  663MOL0     H89480   1.238   2.739   8.760  0.0199 -0.4966 -0.0208
  663MOL0     H89481   1.137   2.668   8.561 -0.0308 -2.5459 -3.3468
  663MOL0     H89482   1.273   2.680   8.454  1.0367 -0.6425  1.6139
  663MOL0     H89483   1.269   2.500   8.691 -0.8050  0.0939  0.4760
  663MOL0     H89484   1.391   2.499   8.567  0.1617 -0.6860  1.4271
  663MOL0     H89485   1.103   2.443   8.501  0.0366 -0.1934 -1.3018
  663MOL0     H89486   1.236   2.321   8.537  0.0805 -0.8383 -0.1761
  663MOL0     H89487   1.670   2.574   9.089 -0.1354 -2.4702  1.5314
  663MOL0     H89488   1.608   2.448   9.296 -2.4262  0.0052  1.8760
  663MOL0     H89489   1.297   2.126   9.458  0.5537  0.5244  0.0219
  663MOL0     H89490   1.200   2.007   9.659  0.4798 -0.2666  2.5004
  663MOL0     H89491   1.866   1.356   9.443 -0.4688  2.6642  1.7529
  663MOL0     H89492   1.747   1.310   9.222  0.9105 -0.2006  0.0283
  663MOL0     H89493   1.182   1.536   9.003 -0.4260 -2.9655  2.4331
  663MOL0     H89494   1.145   1.525   8.767  2.2562  2.5537 -1.9623
  663MOL0     H89495   1.135   1.518   8.550  1.2162 -1.1923 -1.6103
  663MOL0     H89496   1.294   1.610   8.561 -2.1701  1.1697 -0.2305
  663MOL0     H89497   1.181   1.569   8.323 -0.6809  0.1105  0.8243
  663MOL0     H89498   1.245   1.411   8.326 -0.5216 -0.2073 -0.2306
  663MOL0     H89499   1.440   1.640   8.406  0.6967 -1.3741  0.8786
  663MOL0     H89500   1.414   1.618   8.234  2.8966 -1.9790 -0.3505
  663MOL0     H89501   1.506   1.391   8.423 -1.4234 -1.4437 -0.3588
  663MOL0     H89502   1.608   1.504   8.330 -0.9071  1.6339 -3.2380
  663MOL0     H89503   1.492   1.278   8.000  2.4542 -0.7190 -0.5840
  663MOL0     H89504   1.494   1.300   8.701 -0.6922  2.8286 -1.4552
  663MOL0     H89505   1.559   1.327   8.948  0.6775 -2.1934 -0.3514
  664MOL0     O89506   2.704   3.496   8.500  0.2036 -0.1929  0.1963
  664MOL0     C89507   2.722   3.553   8.609 -0.0399  0.1228  1.3923
  664MOL0     O89508   2.840   3.565   8.666  0.5587 -0.5630  1.0381
  664MOL0     C89509   2.953   3.511   8.616  0.5754 -0.3920 -0.3820
  664MOL0     C89510   3.037   3.448   8.715  0.4412 -1.0503 -0.6907
  664MOL0     C89511   3.160   3.395   8.680 -0.5799 -0.6697  0.3686
  664MOL0     C89512   3.202   3.391   8.542  0.7784 -0.2426  0.1858
  664MOL0     O89513   3.332   3.349   8.521 -0.2708  0.1486 -0.1797
  664MOL0     C89514   3.382   3.338   8.378 -0.6398 -0.4282  0.0553
  664MOL0     C89515   3.520   3.270   8.397 -0.0239 -0.4584 -0.7671
  664MOL0     C89516   3.641   3.364   8.402  0.1731  1.2115  0.8379
  664MOL0     C89517   3.633   3.467   8.505 -0.5689 -0.4971  0.0808
  664MOL0     C89518   3.769   3.548   8.521 -0.1886 -1.2078 -0.4638
  664MOL0     C89519   3.889   3.473   8.593  0.3002 -0.0832 -0.2618
  664MOL0     C89520   4.012   3.560   8.611 -0.5634 -0.5764  0.2937
  664MOL0     C89521   4.111   3.494   8.691 -0.7670  0.4849 -0.8081
  664MOL0     N89522   4.192   3.390   8.618  0.0797 -0.2905  1.1869
  664MOL0     C89523   4.188   3.255   8.651 -0.1270 -0.3162 -0.6876
  664MOL0     C89524   4.288   3.193   8.579 -0.0240  0.3951 -0.3127
  664MOL0     C89525   4.340   3.048   8.587  0.0181 -0.4662 -0.2776
  664MOL0     C89526   4.462   3.042   8.665 -0.5197  0.5899 -0.6152
  664MOL0     C89527   4.444   3.091   8.819 -0.2410  0.3127 -0.0820
  664MOL0     C89528   4.571   3.168   8.874  0.7949  0.7273 -0.8626
  664MOL0     O89529   4.690   3.087   8.866 -0.1988  0.8253  0.1957
  664MOL0     C89530   4.723   2.991   8.960  0.4570  0.0579  0.0119
  664MOL0     C89531   4.854   2.935   8.965 -1.1678  1.3302 -0.1841
  664MOL0     C89532   4.893   2.848   9.063 -0.0486 -0.4655 -0.6476
  664MOL0     C89533   5.036   2.799   9.052 -0.6925 -0.3880  0.5545
  664MOL0     C89534   4.802   2.804   9.158  0.1273 -0.8021  0.1785
  664MOL0     C89535   4.835   2.697   9.256  0.7767 -0.0522 -0.0450
  664MOL0     O89536   4.728   2.646   9.319  0.2331 -0.4909 -1.2328
  664MOL0     C89537   4.757   2.548   9.407 -0.9033 -0.8756 -0.1821
  664MOL0     C89538   4.728   2.419   9.383 -0.2856 -0.7501 -0.4519
  664MOL0     C89539   4.770   2.319   9.478 -1.4391 -0.8965  1.2357
  664MOL0     C89540   4.827   2.342   9.598  0.6091  0.5804  0.3360
  664MOL0     O89541   4.879   2.233   9.664  1.1454  0.2023  0.5306
  664MOL0     C89542   4.996   2.250   9.745  0.6183  0.1223  0.5808
  664MOL0     C89543   4.951   2.295   9.885 -0.5874  0.8366  0.4647
  664MOL0     C89544   5.056   2.316   9.994  0.4345  0.2243  0.4283
  664MOL0     C89545   4.994   2.308  10.140 -0.5632  0.8768  1.1315
  664MOL0     C89546   5.105   2.301  10.246  0.9587  0.9984 -0.2089
  664MOL0     C89547   5.199   2.419  10.247  0.5595 -0.0690 -0.2532
  664MOL0     C89548   5.287   2.403  10.371 -0.2701  0.3798 -0.3401
  664MOL0     C89549   5.375   2.524  10.370  0.6292 -0.5172  0.7576
  664MOL0    Cl89550   5.501   2.530  10.236  0.0598  0.1299  0.0278
  664MOL0     C89551   4.841   2.474   9.627  0.0740 -0.0425 -0.0978
  664MOL0     C89552   4.816   2.577   9.533 -0.3471  0.2260  0.4380
  664MOL0     O89553   4.955   2.673   9.292 -0.5050 -0.0789 -0.3397
  664MOL0     C89554   4.668   2.850   9.150  0.2084  0.5924 -0.0962
  664MOL0     C89555   4.629   2.943   9.056 -0.3646  0.0058 -0.9137
  664MOL0     N89556   4.338   3.296   8.494  0.0870 -0.5986 -0.4064
  664MOL0     N89557   4.287   3.408   8.522  0.1724 -0.0109  0.3660
  664MOL0     C89558   3.118   3.447   8.443 -0.0294 -0.1577 -0.5476
  664MOL0     C89559   2.999   3.501   8.492  0.6010 -0.9204  0.2719
  664MOL0     C89560   2.610   3.619   8.665 -0.7016  0.2221 -0.5155
  664MOL0     C89561   2.505   3.667   8.581 -0.3363  0.9138 -0.0141
  664MOL0     C89562   2.392   3.731   8.638 -0.0558  0.2089  0.1245
  664MOL0     C89563   2.379   3.732   8.780 -0.1422 -0.4792  0.0895
  664MOL0     O89564   2.268   3.783   8.845 -0.3952 -0.4665  0.0832
  664MOL0     C89565   2.160   3.838   8.777  0.8004 -0.4969 -0.7276
  664MOL0     C89566   2.070   3.939   8.862 -0.5261 -0.4066 -0.8861
  664MOL0     C89567   1.927   3.936   8.803 -0.1668  0.4430  0.4794
  664MOL0     C89568   1.833   4.052   8.826  0.5650 -1.2213  0.6396
  664MOL0     C89569   1.867   4.140   8.713  0.4308 -1.1344  0.0413
  664MOL0     C89570   1.889   4.216   8.623 -0.2384  0.0176  0.0372
  664MOL0     C89571   2.486   3.687   8.856 -0.0744 -0.1806 -0.0259
  664MOL0     C89572   2.602   3.621   8.809 -0.0925  0.0322 -0.4009
  664MOL0     H89573   2.991   3.433   8.812 -1.4793  0.7960 -1.2310
  664MOL0     H89574   3.237   3.351   8.742  1.3031  1.8410 -0.0085
  664MOL0     H89575   3.315   3.279   8.315 -0.6704  0.2237 -0.5293
  664MOL0     H89576   3.388   3.442   8.348  0.2330 -0.9634 -1.7789
  664MOL0     H89577   3.523   3.204   8.484  1.4390 -2.0339 -1.9420
  664MOL0     H89578   3.534   3.192   8.321  1.4526 -1.1102  0.1302
  664MOL0     H89579   3.730   3.302   8.408 -1.8483 -2.0096  0.3012
  664MOL0     H89580   3.646   3.412   8.303 -3.6203  0.9631  0.3739
  664MOL0     H89581   3.547   3.533   8.490  0.3855  0.3951 -1.8641
  664MOL0     H89582   3.614   3.412   8.597 -1.7279  0.9755  0.7574
  664MOL0     H89583   3.796   3.586   8.422 -2.6804  1.0270 -0.4011
  664MOL0     H89584   3.730   3.630   8.581  0.1053 -1.1508 -0.3479
  664MOL0     H89585   3.853   3.431   8.687  2.4262  2.1872  1.7438
  664MOL0     H89586   3.921   3.386   8.536  0.2633  1.4390 -2.7842
  664MOL0     H89587   4.052   3.565   8.509  2.6682 -3.2674  1.2486
  664MOL0     H89588   3.977   3.656   8.650  1.6548  0.7864 -0.8584
  664MOL0     H89589   4.061   3.450   8.778  0.0988 -2.6749 -1.7825
  664MOL0     H89590   4.185   3.564   8.733 -0.7812 -2.1332  4.3157
  664MOL0     H89591   4.130   3.198   8.724  1.3935 -2.7784 -1.3119
  664MOL0     H89592   4.265   2.988   8.639  3.0822 -1.3625  3.5237
  664MOL0     H89593   4.353   3.002   8.488  2.7659  1.4850 -0.9563
  664MOL0     H89594   4.533   3.106   8.613 -2.8396  2.9314 -1.1162
  664MOL0     H89595   4.492   2.937   8.672 -1.7963  0.3005  1.6845
  664MOL0     H89596   4.412   3.008   8.883 -1.7872  0.3086 -0.8144
  664MOL0     H89597   4.365   3.166   8.829  1.9520  2.8892 -1.1322
  664MOL0     H89598   4.555   3.189   8.980  2.8704 -4.5006  0.7868
  664MOL0     H89599   4.601   3.250   8.807  0.8295 -1.7293 -4.0561
  664MOL0     H89600   4.938   2.945   8.897 -0.3878  1.5644  0.7904
  664MOL0     H89601   5.085   2.819   8.957 -3.1059 -0.9611 -0.9111
  664MOL0     H89602   5.101   2.850   9.123  1.0950 -1.8721  0.0466
  664MOL0     H89603   5.044   2.690   9.065  2.7277  0.0530  3.6703
  664MOL0     H89604   4.699   2.388   9.283 -0.5556  0.3975 -0.7375
  664MOL0     H89605   4.755   2.216   9.448 -1.9994 -0.2299 -1.0589
  664MOL0     H89606   5.051   2.157   9.760 -1.9937 -1.4805  0.6845
  664MOL0     H89607   5.062   2.328   9.704 -0.1596  2.5775  3.5941
  664MOL0     H89608   4.876   2.374   9.884 -0.7555  0.6824  0.7929
  664MOL0     H89609   4.902   2.207   9.927  1.1331 -0.1017  0.5887
  664MOL0     H89610   5.091   2.420   9.988  1.1519 -0.0472 -0.2752
  664MOL0     H89611   5.131   2.236   9.994  1.0774  0.6082  4.4233
  664MOL0     H89612   4.937   2.400  10.156 -1.9668  0.3562 -0.5570
  664MOL0     H89613   4.932   2.220  10.161  0.5098 -0.1970 -0.0334
  664MOL0     H89614   5.171   2.215  10.235  1.4638  0.9971  2.1500
  664MOL0     H89615   5.071   2.273  10.347 -1.5142 -4.1311 -2.1046
  664MOL0     H89616   5.256   2.418  10.154 -2.7585  0.5593 -2.4753
  664MOL0     H89617   5.141   2.512  10.246 -2.4967 -1.8245 -0.3998
  664MOL0     H89618   5.336   2.306  10.376 -2.2972 -0.6160  2.0777
  664MOL0     H89619   5.223   2.413  10.459 -0.6923 -0.2194 -0.5700
  664MOL0     H89620   5.421   2.526  10.469 -1.3041  0.1747  1.7029
  664MOL0     H89621   5.322   2.620  10.371 -1.1531 -1.4572  0.9496
  664MOL0     H89622   4.908   2.511   9.704  3.9242  1.0916 -3.6071
  664MOL0     H89623   4.853   2.678   9.548  0.0532  0.2522 -0.6130
  664MOL0     H89624   4.583   2.808   9.202  1.0700 -1.1250 -0.0042
  664MOL0     H89625   4.527   2.979   9.057 -0.6959 -0.9054 -1.0320
  664MOL0     H89626   3.159   3.451   8.343  3.1434 -1.4047  0.5533
  664MOL0     H89627   2.946   3.557   8.415 -1.0304  1.4919  2.9412
  664MOL0     H89628   2.511   3.638   8.477 -0.4258 -1.3085  0.5346
  664MOL0     H89629   2.306   3.761   8.580 -2.0375 -2.1684  1.6239
  664MOL0     H89630   2.200   3.902   8.698 -0.1775 -0.5009 -1.2277
  664MOL0     H89631   2.098   3.755   8.742 -0.8735 -0.1462  1.2189
  664MOL0     H89632   2.111   4.040   8.857 -0.3054 -0.4960 -0.9061
  664MOL0     H89633   2.059   3.905   8.965 -1.0700 -0.1597 -0.8626
  664MOL0     H89634   1.874   3.847   8.840 -0.6631  0.7384  0.4829
  664MOL0     H89635   1.934   3.924   8.695 -0.2537  2.1220  0.2699
  664MOL0     H89636   1.842   4.109   8.919 -0.3435  2.7610 -1.5088
  664MOL0     H89637   1.730   4.019   8.812 -0.2546  1.2447  0.3627
  664MOL0     H89638   1.912   4.270   8.534 -0.4936  0.8077  0.4426
  664MOL0     H89639   2.478   3.705   8.962  3.7227 -0.1777  0.3920
  664MOL0     H89640   2.697   3.603   8.859  1.1217  2.4766 -1.6310
  665MOL0     O89641   7.931   9.874   0.074  0.2908  0.1082 -0.3036
  665MOL0     C89642   7.966   9.948  -0.016  0.0373 -0.0532  0.9900
  665MOL0     O89643   8.022   9.901  -0.134 -0.6103 -0.5751  0.1367
  665MOL0     C89644   8.009   9.770  -0.180  1.0381  1.4416 -0.6084
  665MOL0     C89645   8.119   9.678  -0.200  0.2427 -0.1109  0.5164
  665MOL0     C89646   8.081   9.553  -0.268 -0.5023  0.0524 -0.4868
  665MOL0     C89647   7.946   9.516  -0.295  0.3626 -0.2977 -0.6021
  665MOL0     O89648   7.919   9.387  -0.344 -0.5764 -0.6789  0.1946
  665MOL0     C89649   7.986   9.278  -0.286 -0.4278 -0.2601  0.6784
  665MOL0     C89650   7.888   9.183  -0.229  0.4444  0.1764 -0.3841
  665MOL0     C89651   7.942   9.054  -0.176 -0.8306  0.0173  0.7170
  665MOL0     C89652   7.844   8.931  -0.197  0.2414  0.1060 -0.4745
  665MOL0     C89653   7.889   8.778  -0.156 -0.2645  0.4848 -0.5213
  665MOL0     C89654   7.766   8.687  -0.138  0.4917 -0.2135 -0.5626
  665MOL0     C89655   7.823   8.555  -0.077  0.1050 -0.4173 -0.1696
  665MOL0     C89656   7.733   8.448  -0.014 -0.1053  0.0263  0.0033
  665MOL0     N89657   7.806   8.342   0.063 -0.6121 -0.6140  1.6823
  665MOL0     C89658   7.770   8.291   0.180  0.5924  0.3760 -0.3942
  665MOL0     C89659   7.859   8.193   0.208 -0.0792  0.6088 -1.0291
  665MOL0     C89660   7.857   8.085   0.313  0.4188 -0.0136 -0.1374
  665MOL0     C89661   7.815   7.947   0.248 -0.1269  0.8038 -0.7703
  665MOL0     C89662   7.940   7.892   0.167  0.3032  0.4472  0.6889
  665MOL0     C89663   7.918   7.865   0.016 -0.2472 -0.2652  0.3382
  665MOL0     O89664   7.799   7.790   0.003 -0.2191 -0.2185  0.4715
  665MOL0     C89665   7.812   7.653   0.003  0.5539 -0.6770  0.0236
  665MOL0     C89666   7.876   7.583  -0.097 -0.0948 -0.2330 -0.1113
  665MOL0     C89667   7.874   7.445  -0.087  0.1748 -0.3990  0.1655
  665MOL0     C89668   7.947   7.368  -0.195  1.0404 -0.3117 -0.0757
  665MOL0     C89669   7.831   7.375   0.028  0.3784 -0.5341 -0.6980
  665MOL0     C89670   7.835   7.235   0.055  0.1042  0.4473 -0.1833
  665MOL0     O89671   7.862   7.203   0.175 -0.1251  1.3526 -0.0530
  665MOL0     C89672   7.884   7.076   0.222 -0.9395 -0.0546 -0.7320
  665MOL0     C89673   7.878   6.952   0.155 -1.1521  0.6863 -0.7075
  665MOL0     C89674   7.924   6.833   0.227 -0.1282  0.6298  0.5604
  665MOL0     C89675   7.987   6.837   0.356 -0.6204 -0.3610  0.7250
  665MOL0     O89676   8.052   6.725   0.406 -0.6307 -0.2332 -0.2785
  665MOL0     C89677   8.074   6.602   0.347  0.1394  0.7373  0.0869
  665MOL0     C89678   8.116   6.496   0.450  0.4517  0.4902 -0.7834
  665MOL0     C89679   8.220   6.540   0.554  0.0326  0.5385  0.4269
  665MOL0     C89680   8.231   6.431   0.661  0.2641  0.0392  0.6246
  665MOL0     C89681   8.278   6.288   0.613 -0.4526  0.7515  0.3770
  665MOL0     C89682   8.306   6.190   0.730 -0.6858 -0.4152 -0.5412
  665MOL0     C89683   8.441   6.225   0.793  0.0223  0.4320 -0.8350
  665MOL0     C89684   8.472   6.149   0.917 -0.1379  0.0710 -0.9936
  665MOL0    Cl89685   8.385   6.207   1.067 -0.2165  0.0510 -0.6322
  665MOL0     C89686   7.991   6.965   0.414 -0.2222 -0.2425 -0.2985
  665MOL0     C89687   7.950   7.079   0.350  0.4080 -0.1687 -0.2469
  665MOL0     O89688   7.806   7.157  -0.034  0.6112 -0.4526  0.3266
  665MOL0     C89689   7.778   7.456   0.132 -0.7099  1.0012  0.1058
  665MOL0     C89690   7.772   7.593   0.121  0.0956 -0.4523 -0.2795
  665MOL0     N89691   7.959   8.197   0.124 -0.5248 -0.2602  0.4609
  665MOL0     N89692   7.931   8.287   0.037  0.5286 -0.5289 -0.1346
  665MOL0     C89693   7.847   9.602  -0.265  0.2101  0.3360 -0.4616
  665MOL0     C89694   7.874   9.728  -0.210  0.5367  1.0184 -0.3605
  665MOL0     C89695   7.990  10.092   0.017  0.4507 -0.0169 -0.0950
  665MOL0     C89696   7.981  10.144   0.153  0.0817 -0.5649  1.1956
  665MOL0     C89697   8.019  10.272   0.181  0.4401 -1.2059  0.1312
  665MOL0     C89698   8.067  10.351   0.074  0.1115  0.2346 -0.1668
  665MOL0     O89699   8.120  10.481   0.085  0.5097  1.3428  0.6228
  665MOL0     C89700   8.173  10.527   0.217  0.3516 -0.6352  0.2280
  665MOL0     C89701   8.076  10.619   0.303 -1.0566 -0.1232  1.0016
  665MOL0     C89702   8.139  10.688   0.421 -0.4157 -0.3804  1.2275
  665MOL0     C89703   8.031  10.772   0.490  0.1529 -1.1984  0.1263
  665MOL0     C89704   8.039  10.752   0.635 -0.2913  0.4949 -0.6142
  665MOL0     C89705   8.031  10.725   0.757 -0.0936 -0.2402  0.7813
  665MOL0     C89706   8.058  10.302  -0.057 -0.4075 -0.1710 -0.7113
  665MOL0     C89707   8.017  10.183  -0.086  0.2082  0.3464 -0.0482
  665MOL0     H89708   8.219   9.716  -0.186 -0.7134  2.0147  2.0074
  665MOL0     H89709   8.146   9.471  -0.295 -0.5730  0.0366 -0.6105
  665MOL0     H89710   8.031   9.232  -0.375 -0.4153  4.0655 -1.8034
  665MOL0     H89711   8.068   9.302  -0.218  0.6893  2.0463 -1.3451
  665MOL0     H89712   7.845   9.240  -0.146  0.9883  1.1400 -0.7462
  665MOL0     H89713   7.797   9.170  -0.288 -0.9927 -1.9352  2.0634
  665MOL0     H89714   8.037   9.055  -0.231  1.3239  4.5586  3.8547
  665MOL0     H89715   7.968   9.069  -0.071  1.4644 -0.3364  0.2586
  665MOL0     H89716   7.759   8.955  -0.133  2.3753  3.1488  1.5222
  665MOL0     H89717   7.822   8.929  -0.304 -0.1513  0.7953 -0.4086
  665MOL0     H89718   7.957   8.739  -0.232 -0.4248 -1.8290  0.4460
  665MOL0     H89719   7.936   8.771  -0.058 -4.1240  0.6008  1.5556
  665MOL0     H89720   7.706   8.728  -0.056  0.3613  0.6226 -1.0694
  665MOL0     H89721   7.712   8.679  -0.232  0.5213  0.6181 -0.6544
  665MOL0     H89722   7.884   8.506  -0.153  2.0434  2.0294 -0.3303
  665MOL0     H89723   7.889   8.581   0.007  1.2834  0.4269 -1.3078
  665MOL0     H89724   7.671   8.399  -0.089 -0.5810 -0.4889  0.7213
  665MOL0     H89725   7.681   8.508   0.062  1.2196  1.6470 -0.2955
  665MOL0     H89726   7.681   8.321   0.234 -0.0551  0.4152 -1.4642
  665MOL0     H89727   7.953   8.078   0.364  0.7365  0.8773 -0.5704
  665MOL0     H89728   7.780   8.117   0.383  0.3245  0.0616 -0.2740
  665MOL0     H89729   7.723   7.965   0.192 -0.7087 -6.7904 -3.3469
  665MOL0     H89730   7.788   7.860   0.310  2.4978 -1.9756 -3.2105
  665MOL0     H89731   7.964   7.791   0.200  3.2648  0.2342 -1.6542
  665MOL0     H89732   8.039   7.934   0.186  0.7470 -0.2734  0.0102
  665MOL0     H89733   8.015   7.825  -0.014  0.7185  2.1583 -0.0596
  665MOL0     H89734   7.890   7.958  -0.035  0.1592 -0.0268  0.5449
  665MOL0     H89735   7.907   7.632  -0.189 -1.9501  2.9708  0.8033
  665MOL0     H89736   8.043   7.411  -0.228 -0.8199  2.6905 -2.0210
  665MOL0     H89737   7.969   7.266  -0.161  0.1891 -1.5030 -2.8148
  665MOL0     H89738   7.885   7.360  -0.285 -0.8294  1.6024  0.9704
  665MOL0     H89739   7.841   6.950   0.053  0.0410 -0.4461 -1.1432
  665MOL0     H89740   7.928   6.737   0.175  0.6787  0.9728 -0.0303
  665MOL0     H89741   7.980   6.560   0.309  0.5607  0.0059 -0.1590
  665MOL0     H89742   8.143   6.598   0.262  1.3813 -1.6917  1.0996
  665MOL0     H89743   8.025   6.467   0.503  1.1590 -1.7755 -0.6982
  665MOL0     H89744   8.143   6.408   0.391 -2.7314  0.3846 -2.2657
  665MOL0     H89745   8.178   6.630   0.597  0.0852  1.9783 -2.2874
  665MOL0     H89746   8.316   6.558   0.504 -0.7336 -4.1889 -3.5899
  665MOL0     H89747   8.298   6.479   0.733  0.9051  0.2055 -0.0652
  665MOL0     H89748   8.139   6.403   0.713 -0.2725 -0.2346 -0.4411
  665MOL0     H89749   8.366   6.297   0.548  2.3412  0.8851  3.8641
  665MOL0     H89750   8.197   6.247   0.552  1.1774  2.4288 -3.2215
  665MOL0     H89751   8.230   6.193   0.808 -1.0737  2.1533 -0.9313
  665MOL0     H89752   8.307   6.091   0.683 -0.5714  0.7623 -3.2153
  665MOL0     H89753   8.446   6.332   0.816 -2.9423  0.1555  1.6553
  665MOL0     H89754   8.523   6.206   0.723 -1.8817 -0.9155 -2.8316
  665MOL0     H89755   8.577   6.156   0.947 -0.3881  0.2466 -0.1271
  665MOL0     H89756   8.444   6.043   0.917 -2.0386  0.4696  1.2852
  665MOL0     H89757   8.041   6.967   0.511 -2.1077  1.7387  0.7252
  665MOL0     H89758   7.971   7.174   0.396  2.9948  0.4337 -2.4142
  665MOL0     H89759   7.743   7.422   0.229  2.2679  0.0720  0.9843
  665MOL0     H89760   7.727   7.637   0.209  1.1935 -2.1043  1.1773
  665MOL0     H89761   7.745   9.567  -0.279  0.2101 -0.3918  1.1965
  665MOL0     H89762   7.796   9.802  -0.192  2.1778  2.2197  2.6017
  665MOL0     H89763   7.960  10.083   0.240  2.6229 -4.2812 -0.5479
  665MOL0     H89764   8.018  10.310   0.282 -1.4011  1.3408 -0.7513
  665MOL0     H89765   8.195  10.447   0.289  2.3725 -0.0929  0.2631
  665MOL0     H89766   8.261  10.589   0.197 -0.0809 -0.8806 -3.0089
  665MOL0     H89767   7.990  10.562   0.339 -1.2766 -1.0714 -0.9259
  665MOL0     H89768   8.036  10.689   0.229  0.2025 -0.3417  0.0715
  665MOL0     H89769   8.211  10.752   0.370 -0.9847  1.1589  2.2870
  665MOL0     H89770   8.201  10.629   0.489  0.8441  1.5260  1.8095
  665MOL0     H89771   7.932  10.735   0.463 -0.4878 -0.1305  0.9455
  665MOL0     H89772   8.029  10.879   0.469  1.5511 -1.0269  0.7558
  665MOL0     H89773   8.033  10.710   0.863 -0.9212  0.2091  0.8713
  665MOL0     H89774   8.101  10.365  -0.134  0.7694  1.9154  1.5293
  665MOL0     H89775   8.032  10.146  -0.187 -0.2663 -1.5776  0.5384
  666MOL0     O89776   5.706   4.435  10.642  0.1150  0.5496  0.0200
  666MOL0     C89777   5.639   4.529  10.605 -0.5811 -0.3351 -0.1631
  666MOL0     O89778   5.681   4.656  10.568  0.3711  0.3148 -0.4456
  666MOL0     C89779   5.814   4.684  10.581  0.0203  0.1328  0.2312
  666MOL0     C89780   5.918   4.609  10.524 -0.7369 -0.1171  0.0666
  666MOL0     C89781   6.048   4.663  10.517  0.4529  0.1531 -0.0390
  666MOL0     C89782   6.080   4.781  10.588  0.1916  0.7843  0.3000
  666MOL0     O89783   6.207   4.825  10.569 -0.0355 -0.0988  0.2395
  666MOL0     C89784   6.270   4.877  10.686  1.4641  0.0142 -0.0653
  666MOL0     C89785   6.423   4.894  10.647 -0.0518  0.8541 -0.4809
  666MOL0     C89786   6.506   4.955  10.766  0.2364  0.4080  0.2166
  666MOL0     C89787   6.598   4.851  10.849  0.0405 -0.3412  0.5430
  666MOL0     C89788   6.705   4.919  10.929  0.0599  0.5738  0.3956
  666MOL0     C89789   6.784   4.809  11.004  0.8964 -0.3836 -0.1313
  666MOL0     C89790   6.879   4.869  11.114 -0.1781  0.6099  0.8367
  666MOL0     C89791   6.966   4.763  11.170  0.1107 -0.1513 -0.1003
  666MOL0     N89792   7.073   4.821  11.256  0.5159 -0.1707 -0.6995
  666MOL0     C89793   7.029   4.907  11.355 -0.4175 -1.2821 -0.9682
  666MOL0     C89794   7.152   4.973  11.372  0.4018  0.6094 -0.0023
  666MOL0     C89795   7.200   5.073  11.473  0.4091  0.7454 -0.1992
  666MOL0     C89796   7.081   5.142  11.554 -0.4143 -0.4247  0.1281
  666MOL0     C89797   7.120   5.275  11.624  0.2068 -0.1546 -0.3347
  666MOL0     C89798   7.002   5.334  11.700 -0.5806  0.5429 -0.5465
  666MOL0     O89799   7.056   5.434  11.774 -0.0011  0.6027 -0.5682
  666MOL0     C89800   6.979   5.543  11.808 -0.3744 -0.2884  0.6557
  666MOL0     C89801   7.049   5.649  11.850 -0.1236  0.0734  0.0522
  666MOL0     C89802   6.990   5.769  11.892  0.2986  0.2986  0.3527
  666MOL0     C89803   7.075   5.881  11.932  0.2570 -0.2501 -0.5010
  666MOL0     C89804   6.848   5.774  11.906  0.1927 -0.3109  0.1525
  666MOL0     C89805   6.765   5.886  11.961  0.9455 -0.6416 -0.2971
  666MOL0     O89806   6.628   5.862  11.967 -0.4781  0.1937 -0.5763
  666MOL0     C89807   6.554   5.956  12.032  0.1724 -0.6201 -0.4131
  666MOL0     C89808   6.591   5.988  12.170 -0.0998  1.1804  0.1129
  666MOL0     C89809   6.512   6.088  12.233 -0.2535  0.2975 -0.5326
  666MOL0     C89810   6.424   6.168  12.173  0.4936 -0.0821  0.5761
  666MOL0     O89811   6.336   6.247  12.247 -0.0658  0.2060 -0.2944
  666MOL0     C89812   6.244   6.335  12.174 -0.5085 -0.2291 -0.1930
  666MOL0     C89813   6.156   6.404  12.275 -0.0707 -0.2781 -1.2040
  666MOL0     C89814   6.105   6.540  12.217 -0.0455  0.7253  0.2698
  666MOL0     C89815   5.987   6.535  12.110 -0.0320 -0.5358  0.1343
  666MOL0     C89816   5.906   6.665  12.117  0.6938 -1.4546  0.8976
  666MOL0     C89817   5.771   6.667  12.034  0.6503  0.2735  0.0134
  666MOL0     C89818   5.779   6.621  11.892 -1.0987 -0.8439 -0.2460
  666MOL0     C89819   5.829   6.731  11.793  0.6903  0.4739  0.4161
  666MOL0    Cl89820   5.872   6.641  11.633  0.0128 -0.2846 -0.1810
  666MOL0     C89821   6.402   6.140  12.037 -0.2589  0.1685 -1.1130
  666MOL0     C89822   6.462   6.037  11.968  0.0826 -0.8591 -0.0830
  666MOL0     O89823   6.816   5.994  11.984  0.1379 -0.3255 -0.1710
  666MOL0     C89824   6.778   5.664  11.859  0.4421 -0.5762 -0.2839
  666MOL0     C89825   6.843   5.548  11.817  0.2468  0.1018  0.2178
  666MOL0     N89826   7.244   4.948  11.280  0.0590  0.7611  0.2050
  666MOL0     N89827   7.193   4.857  11.206  0.0161  0.0640 -0.0286
  666MOL0     C89828   5.980   4.851  10.657 -0.4195 -0.2301  0.1402
  666MOL0     C89829   5.847   4.811  10.645 -0.1773  0.4754  1.0802
  666MOL0     C89830   5.490   4.516  10.588 -0.6450  0.0836  0.6027
  666MOL0     C89831   5.423   4.393  10.598  1.0465  0.2479  0.2453
  666MOL0     C89832   5.284   4.384  10.595 -0.0804  0.7407  0.9907
  666MOL0     C89833   5.202   4.494  10.577 -0.1232  0.7369 -0.2262
  666MOL0     O89834   5.074   4.458  10.583  0.3235  0.0663 -0.1552
  666MOL0     C89835   4.979   4.551  10.524 -0.1551  0.9572  0.0965
  666MOL0     C89836   4.837   4.567  10.595 -0.9070  0.1338  0.9199
  666MOL0     C89837   4.741   4.653  10.510  0.6548  0.2061 -0.3517
  666MOL0     C89838   4.594   4.632  10.546 -0.4568  0.1597  0.8837
  666MOL0     C89839   4.519   4.677  10.431  0.5157 -0.1692 -0.2788
  666MOL0     C89840   4.465   4.720  10.331  0.1013 -0.0728  0.3350
  666MOL0     C89841   5.264   4.615  10.569 -0.4796 -0.7472 -0.9149
  666MOL0     C89842   5.411   4.629  10.572  0.2482 -0.4249  1.1272
  666MOL0     H89843   5.895   4.511  10.483 -0.7433  0.1213 -0.5088
  666MOL0     H89844   6.125   4.595  10.481 -1.2762 -0.3567 -3.1193
  666MOL0     H89845   6.225   4.976  10.702  0.7390 -0.1995 -0.7482
  666MOL0     H89846   6.252   4.805  10.767  0.3568  2.0805  1.6286
  666MOL0     H89847   6.460   4.792  10.630 -2.9945 -0.6598  1.3719
  666MOL0     H89848   6.428   4.955  10.557 -0.3528  0.8367 -0.5068
  666MOL0     H89849   6.566   5.035  10.720  0.1449  0.2718 -0.1391
  666MOL0     H89850   6.442   5.015  10.831  0.4782  2.3935 -1.2515
  666MOL0     H89851   6.532   4.793  10.914 -1.4964  1.2167  0.4612
  666MOL0     H89852   6.658   4.784  10.787  1.1204 -0.3278  1.5357
  666MOL0     H89853   6.772   4.975  10.864  0.4785 -0.3023  0.0595
  666MOL0     H89854   6.645   4.983  10.995 -1.8999  3.3372 -3.6099
  666MOL0     H89855   6.710   4.759  11.068  0.2193  0.8331  0.0652
  666MOL0     H89856   6.830   4.748  10.925 -3.6558 -3.0425 -1.0976
  666MOL0     H89857   6.944   4.937  11.058  1.1944 -1.6745 -0.4959
  666MOL0     H89858   6.825   4.923  11.192 -0.3441  0.9561  0.4902
  666MOL0     H89859   7.014   4.701  11.094 -0.1302 -0.6566  0.1537
  666MOL0     H89860   6.902   4.706  11.238  1.2649 -0.4611  0.7401
  666MOL0     H89861   6.938   4.901  11.414  2.6033 -2.3955  4.1686
  666MOL0     H89862   7.281   5.030  11.532 -0.4981 -0.2647  0.3420
  666MOL0     H89863   7.247   5.150  11.411  3.3740 -1.6373 -1.1502
  666MOL0     H89864   7.033   5.074  11.624 -0.0556 -1.1783 -0.3411
  666MOL0     H89865   7.006   5.165  11.478 -0.1858 -3.2684 -1.0929
  666MOL0     H89866   7.142   5.355  11.552 -0.6389 -0.9723 -1.5495
  666MOL0     H89867   7.210   5.251  11.680 -1.0217 -2.6414  0.7148
  666MOL0     H89868   6.961   5.257  11.766  2.1493 -0.4436  0.1224
  666MOL0     H89869   6.925   5.380  11.637 -0.4848  3.2153  1.1330
  666MOL0     H89870   7.156   5.630  11.856 -0.1232  0.4846  1.9040
  666MOL0     H89871   7.068   5.965  11.861  1.7105  2.0681  1.9298
  666MOL0     H89872   7.050   5.914  12.033 -0.5060 -3.0694  0.3238
  666MOL0     H89873   7.174   5.834  11.938  1.1054  1.4383 -0.7541
  666MOL0     H89874   6.678   5.943  12.217  0.0378  1.8021  0.4641
  666MOL0     H89875   6.545   6.110  12.333 -1.6030  1.5899 -0.3429
  666MOL0     H89876   6.303   6.403  12.112 -1.3321 -1.0535 -1.9359
  666MOL0     H89877   6.197   6.272  12.098  1.9892 -1.6012 -0.6906
  666MOL0     H89878   6.073   6.334  12.290  1.4797 -1.8812  0.4595
  666MOL0     H89879   6.203   6.420  12.373 -0.7557  5.0365 -1.4989
  666MOL0     H89880   6.186   6.607  12.187  2.1692 -0.3177  3.4525
  666MOL0     H89881   6.064   6.582  12.310 -1.3242  1.4428 -0.5871
  666MOL0     H89882   6.016   6.517  12.006 -1.5783  0.5924 -0.5278
  666MOL0     H89883   5.912   6.462  12.141 -3.6773  2.4007 -1.0516
  666MOL0     H89884   5.957   6.756  12.084 -0.1724 -1.3922 -0.3523
  666MOL0     H89885   5.895   6.676  12.225  2.7268 -3.0345  1.3253
  666MOL0     H89886   5.699   6.597  12.079  3.6567 -3.2499 -0.1327
  666MOL0     H89887   5.736   6.770  12.031 -0.2340  0.0311  1.1403
  666MOL0     H89888   5.678   6.588  11.867  0.1374 -3.7188 -1.8793
  666MOL0     H89889   5.847   6.536  11.879 -3.0192 -2.4430 -0.3053
  666MOL0     H89890   5.919   6.787  11.821  0.5255  0.4591  0.9749
  666MOL0     H89891   5.752   6.809  11.800 -0.0132 -0.3517  3.5456
  666MOL0     H89892   6.332   6.201  11.980 -2.2852 -1.0913 -0.0972
  666MOL0     H89893   6.421   6.020  11.869 -2.4115  1.0912  0.5275
  666MOL0     H89894   6.670   5.660  11.853  0.3050  1.7825 -0.7116
  666MOL0     H89895   6.769   5.473  11.792  0.1017 -0.1037  1.2233
  666MOL0     H89896   6.015   4.938  10.711  1.0196 -1.2186  0.8924
  666MOL0     H89897   5.775   4.886  10.675 -3.9871 -0.8079 -3.5807
  666MOL0     H89898   5.480   4.305  10.626  1.9169  0.6152 -0.3142
  666MOL0     H89899   5.231   4.289  10.586 -0.4416  1.1308 -2.3679
  666MOL0     H89900   5.021   4.652  10.534 -1.7255  1.9194 -2.2008
  666MOL0     H89901   4.961   4.520  10.420 -1.0722  0.6287  0.3461
  666MOL0     H89902   4.867   4.619  10.687 -0.4341  2.0030 -0.2162
  666MOL0     H89903   4.786   4.474  10.621 -2.9619  0.3203 -1.9340
  666MOL0     H89904   4.755   4.632  10.404 -0.0012  0.0816 -0.4114
  666MOL0     H89905   4.769   4.755  10.538 -2.4131 -0.0428  5.0311
  666MOL0     H89906   4.571   4.694  10.633 -1.5231  1.4336 -0.2562
  666MOL0     H89907   4.563   4.528  10.562 -2.1963 -0.1356 -3.2478
  666MOL0     H89908   4.409   4.749  10.245 -2.1896 -2.2363  0.9896
  666MOL0     H89909   5.220   4.715  10.562 -0.1013 -0.4450  0.7151
  666MOL0     H89910   5.467   4.721  10.565  0.9082 -0.7547  1.9954
  667MOL0     O89911   4.706   4.418  11.479  0.0519 -0.3323 -0.6089
  667MOL0     C89912   4.591   4.427  11.537  0.8178 -0.5858 -0.3715
  667MOL0     O89913   4.559   4.507  11.648  0.1895 -0.0831 -0.2475
  667MOL0     C89914   4.663   4.584  11.697 -0.1062 -0.2487  0.8687
  667MOL0     C89915   4.718   4.697  11.632  1.3001 -0.2744  0.6855
  667MOL0     C89916   4.813   4.778  11.700 -1.1453  0.2519 -0.2895
  667MOL0     C89917   4.870   4.733  11.818  0.6038  0.4334 -0.6491
  667MOL0     O89918   4.952   4.815  11.885  1.2736 -0.0483 -0.8041
  667MOL0     C89919   4.890   4.876  11.998 -0.5259  1.4546  1.8820
  667MOL0     C89920   4.980   4.966  12.076  0.0347 -0.1483  0.3645
  667MOL0     C89921   4.990   5.098  11.999 -0.5410  0.5495  0.2608
  667MOL0     C89922   5.087   5.195  12.076  0.6312  0.4685 -0.5792
  667MOL0     C89923   5.028   5.260  12.204  0.3341  0.4939  0.6570
  667MOL0     C89924   5.120   5.382  12.244  0.4575 -0.7384  0.4173
  667MOL0     C89925   5.079   5.467  12.363 -0.1941 -0.8756  0.9356
  667MOL0     C89926   5.096   5.378  12.489  0.7360  0.6285 -0.3355
  667MOL0     N89927   5.097   5.460  12.613  1.0646 -0.2222 -0.0259
  667MOL0     C89928   5.005   5.549  12.665  0.5264 -0.2081 -0.1706
  667MOL0     C89929   5.073   5.605  12.769 -0.5562 -0.1234  0.0655
  667MOL0     C89930   5.021   5.693  12.865 -0.0154 -0.8730  0.1146
  667MOL0     C89931   4.987   5.645  13.000  0.6001 -0.1819  0.1379
  667MOL0     C89932   5.108   5.649  13.098  1.1331  0.8878 -0.2127
  667MOL0     C89933   5.069   5.591  13.224  0.1031  0.5717 -0.1639
  667MOL0     O89934   5.100   5.443  13.218  0.5983 -0.1353 -0.5220
  667MOL0     C89935   5.175   5.382  13.320  0.3076 -0.6094  0.0018
  667MOL0     C89936   5.277   5.437  13.395  0.4462 -0.4651 -0.2606
  667MOL0     C89937   5.343   5.370  13.499 -0.0512 -0.9287 -0.0732
  667MOL0     C89938   5.478   5.420  13.555  0.0463  0.1131  0.4442
  667MOL0     C89939   5.274   5.247  13.548  0.7213 -0.4688 -0.3915
  667MOL0     C89940   5.329   5.165  13.659  0.8364 -0.6493  0.0604
  667MOL0     O89941   5.282   5.041  13.661  0.0528 -0.1215  0.2102
  667MOL0     C89942   5.345   4.945  13.742  0.5724 -1.2457  0.1570
  667MOL0     C89943   5.303   4.915  13.868  0.3893  0.3402  0.0299
  667MOL0     C89944   5.365   4.810  13.929  0.4710 -0.0497 -1.1732
  667MOL0     C89945   5.468   4.737  13.876  0.3281  1.0639 -0.0653
  667MOL0     O89946   5.502   4.612  13.925 -0.0850 -0.2269 -0.5621
  667MOL0     C89947   5.638   4.579  13.934 -0.7190 -0.2091  0.2923
  667MOL0     C89948   5.674   4.539  14.082 -0.6008 -0.2351  0.0256
  667MOL0     C89949   5.815   4.583  14.119 -0.8364 -1.1977  0.7127
  667MOL0     C89950   5.838   4.545  14.272 -0.3677 -0.3878  0.7138
  667MOL0     C89951   5.809   4.660  14.373 -0.2527  0.2418  0.2960
  667MOL0     C89952   5.865   4.619  14.508  0.6413 -0.0660 -0.9449
  667MOL0     C89953   5.867   4.746  14.600  0.1140 -0.6692 -0.6362
  667MOL0     C89954   5.739   4.833  14.593 -0.0031  0.1076 -0.1370
  667MOL0    Cl89955   5.748   4.949  14.732 -0.7470 -0.3396 -0.2130
  667MOL0     C89956   5.511   4.764  13.750 -0.2948 -0.2149  0.3583
  667MOL0     C89957   5.454   4.873  13.686  0.8723 -1.1843 -0.4720
  667MOL0     O89958   5.416   5.208  13.738  0.1728  0.7569  0.2601
  667MOL0     C89959   5.163   5.200  13.481 -0.5150 -0.6161  0.3963
  667MOL0     C89960   5.117   5.266  13.366  0.5980 -0.4026  0.3734
  667MOL0     N89961   5.204   5.554  12.780 -0.2052  0.3930 -0.4156
  667MOL0     N89962   5.219   5.467  12.686 -0.4451  0.0869 -0.5706
  667MOL0     C89963   4.833   4.603  11.870 -0.3536 -0.4953  0.7880
  667MOL0     C89964   4.719   4.538  11.816  0.1541 -0.3515 -0.5970
  667MOL0     C89965   4.472   4.372  11.474 -0.5772  1.1285  0.3277
  667MOL0     C89966   4.353   4.451  11.487 -0.6644 -0.8304 -0.1196
  667MOL0     C89967   4.244   4.399  11.418  0.3335  0.6089  0.2952
  667MOL0     C89968   4.243   4.285  11.331 -0.1066  0.0734 -0.7130
  667MOL0     O89969   4.140   4.257  11.244  0.5528  0.1455 -0.1718
  667MOL0     C89970   4.019   4.327  11.246  0.5962 -0.5925 -0.0215
  667MOL0     C89971   3.932   4.271  11.354  0.0448 -0.3713  0.9322
  667MOL0     C89972   3.788   4.330  11.339 -0.0940  0.0166 -0.1712
  667MOL0     C89973   3.701   4.259  11.437 -0.5438 -0.2544  0.2297
  667MOL0     C89974   3.563   4.258  11.398  1.1153 -0.1128  0.0681
  667MOL0     C89975   3.446   4.268  11.375 -0.0512 -0.6393 -0.1604
  667MOL0     C89976   4.365   4.217  11.322 -0.5882 -0.1273  0.2689
  667MOL0     C89977   4.469   4.261  11.393 -0.9302 -0.0530 -0.4832
  667MOL0     H89978   4.664   4.741  11.548  1.1868  0.5844  1.1903
  667MOL0     H89979   4.830   4.880  11.666 -1.9034  1.1758  1.9441
  667MOL0     H89980   4.802   4.931  11.964  0.5861  0.2060 -4.2097
  667MOL0     H89981   4.852   4.802  12.069  0.2758  2.4539  3.4157
  667MOL0     H89982   4.924   4.975  12.170  0.6605  0.2619  0.7094
  667MOL0     H89983   5.079   4.924  12.099 -0.3975 -1.0255  0.6584
  667MOL0     H89984   5.043   5.082  11.905 -0.8460  1.1674 -0.0179
  667MOL0     H89985   4.897   5.153  11.982 -0.7813  0.2150  0.4744
  667MOL0     H89986   5.180   5.149  12.110  1.2606  3.4753  2.2313
  667MOL0     H89987   5.121   5.276  12.010  2.7440  1.7742  1.9235
  667MOL0     H89988   4.925   5.291  12.186 -0.2014 -1.0857  0.8619
  667MOL0     H89989   5.035   5.179  12.277 -0.8233 -0.7720 -0.5860
  667MOL0     H89990   5.223   5.347  12.263  0.7561  0.2928  0.7735
  667MOL0     H89991   5.120   5.446  12.156 -1.9864 -0.9267  0.2132
  667MOL0     H89992   5.146   5.553  12.377 -2.4296  0.8358  1.8125
  667MOL0     H89993   4.975   5.503  12.363 -0.5821 -1.8292  2.9898
  667MOL0     H89994   5.192   5.326  12.484  1.9599  2.7067  0.3712
  667MOL0     H89995   5.018   5.302  12.489  0.3537  1.0056 -1.5710
  667MOL0     H89996   4.899   5.560  12.642  0.7859 -1.3703 -2.1609
  667MOL0     H89997   5.096   5.770  12.885  0.1451 -1.6376  2.7701
  667MOL0     H89998   4.935   5.748  12.825 -0.1547 -0.1245  1.3862
  667MOL0     H89999   4.953   5.542  12.990  1.3335 -0.3656 -0.6239
  667MOL0     H90000   4.909   5.717  13.026  1.8188  1.4425 -0.5262
  667MOL0     H90001   5.139   5.751  13.122  1.7811  0.5579  0.3779
  667MOL0     H90002   5.183   5.575  13.071 -2.6670 -3.5533  0.0554
  667MOL0     H90003   4.961   5.604  13.237 -0.1202  0.5073 -1.8079
  667MOL0     H90004   5.126   5.642  13.302  2.7278 -2.5111  0.1231
  667MOL0     H90005   5.325   5.529  13.362  2.1108 -1.8101 -1.7900
  667MOL0     H90006   5.548   5.337  13.565  0.7421  0.6511  0.1798
  667MOL0     H90007   5.511   5.506  13.496 -2.0812 -0.0148 -1.0842
  667MOL0     H90008   5.456   5.463  13.653  2.4997  1.1813  0.5930
  667MOL0     H90009   5.221   4.968  13.916  0.7728  0.1955  0.8496
  667MOL0     H90010   5.318   4.794  14.026  0.7758  1.4078 -0.7593
  667MOL0     H90011   5.667   4.504  13.860 -0.5015  1.9612 -1.9509
  667MOL0     H90012   5.705   4.662  13.909  0.7899 -1.3214  0.4952
  667MOL0     H90013   5.610   4.594  14.152 -1.8897 -1.8043  0.1376
  667MOL0     H90014   5.661   4.431  14.097  0.4275 -0.6092 -1.4930
  667MOL0     H90015   5.815   4.691  14.101  1.8802 -1.3210 -0.5760
  667MOL0     H90016   5.890   4.543  14.051 -0.6795  1.6704 -0.9821
  667MOL0     H90017   5.794   4.448  14.299 -1.5295  0.6389  2.7873
  667MOL0     H90018   5.946   4.530  14.282 -0.5024 -1.6071  0.5827
  667MOL0     H90019   5.703   4.684  14.379 -0.0505  0.9114  1.5853
  667MOL0     H90020   5.861   4.749  14.338  0.9285 -1.2706 -2.1168
  667MOL0     H90021   5.807   4.540  14.558  1.0269  1.1333  1.5815
  667MOL0     H90022   5.963   4.569  14.507 -2.2120 -6.6929 -1.5932
  667MOL0     H90023   5.955   4.808  14.582  2.1157 -3.1320 -0.0003
  667MOL0     H90024   5.869   4.690  14.694 -0.4982 -0.9665 -0.7896
  667MOL0     H90025   5.649   4.771  14.598  0.2643 -0.2691  0.1356
  667MOL0     H90026   5.733   4.900  14.507 -1.1363  3.8041  2.5858
  667MOL0     H90027   5.576   4.698  13.693 -0.5073 -0.8321  0.8128
  667MOL0     H90028   5.477   4.895  13.583  0.1691 -1.8891 -0.7849
  667MOL0     H90029   5.123   5.103  13.508 -0.1812 -1.6578 -2.4403
  667MOL0     H90030   5.029   5.234  13.311 -0.0180  3.9181 -1.5669
  667MOL0     H90031   4.878   4.578  11.966 -0.2583 -1.6201  0.4601
  667MOL0     H90032   4.691   4.441  11.855  1.3156 -0.9022 -1.0694
  667MOL0     H90033   4.338   4.536  11.553  0.5954 -1.8407  1.5600
  667MOL0     H90034   4.150   4.452  11.430 -0.5264 -0.8904  0.4818
  667MOL0     H90035   4.038   4.431  11.273 -1.5332 -0.9063  3.2166
  667MOL0     H90036   3.969   4.319  11.149 -3.1209  1.4727  1.5180
  667MOL0     H90037   3.971   4.303  11.451  0.1648  2.4695  0.0338
  667MOL0     H90038   3.922   4.164  11.334 -0.2755 -0.2045  0.1925
  667MOL0     H90039   3.749   4.320  11.237 -0.5811  0.4495 -0.0304
  667MOL0     H90040   3.783   4.437  11.361 -0.8663 -0.2937  1.3210
  667MOL0     H90041   3.726   4.321  11.523  3.5384 -1.1976 -0.0519
  667MOL0     H90042   3.739   4.158  11.457 -3.5010 -1.0501  2.6201
  667MOL0     H90043   3.347   4.277  11.337  0.4599 -2.0217 -1.9967
  667MOL0     H90044   4.364   4.123  11.267 -1.0128  2.2199 -4.1675
  667MOL0     H90045   4.559   4.201  11.386  1.3518  2.8672  1.3259
  668MOL0     O90046   2.853   9.300   2.781 -0.5271  0.6584  1.1464
  668MOL0     C90047   2.919   9.396   2.830  0.0566 -0.0626  1.1144
  668MOL0     O90048   2.969   9.495   2.758  0.4174 -0.0059 -0.1421
  668MOL0     C90049   2.906   9.554   2.648 -0.1285  0.3671 -0.8691
  668MOL0     C90050   3.001   9.608   2.559 -0.1317  0.5481  0.3224
  668MOL0     C90051   2.960   9.661   2.449  0.4236 -0.3751  0.8362
  668MOL0     C90052   2.822   9.682   2.423 -0.1892  0.3809  0.1181
  668MOL0     O90053   2.771   9.758   2.316 -0.2884  0.0138  0.1077
  668MOL0     C90054   2.867   9.829   2.242 -0.1896 -0.8756  1.0878
  668MOL0     C90055   2.945   9.744   2.136 -0.3953  0.2309  0.3576
  668MOL0     C90056   2.900   9.790   1.989 -0.7695 -0.2137 -0.7168
  668MOL0     C90057   2.964   9.715   1.882  0.2652  0.1105  0.4461
  668MOL0     C90058   2.905   9.750   1.744  0.6904  0.1471  0.5313
  668MOL0     C90059   2.950   9.644   1.637  0.5608  0.1425  0.1511
  668MOL0     C90060   2.851   9.673   1.520 -0.4863  0.3563 -0.0185
  668MOL0     C90061   2.892   9.595   1.391  0.5458  0.2846 -1.0016
  668MOL0     N90062   2.789   9.618   1.288 -0.6408 -0.1970  0.0192
  668MOL0     C90063   2.679   9.532   1.282  0.1603  0.1398  0.3214
  668MOL0     C90064   2.622   9.559   1.160  1.1433 -0.4936  0.0448
  668MOL0     C90065   2.512   9.483   1.091 -0.6600  0.4235  0.5947
  668MOL0     C90066   2.567   9.406   0.961  0.2542 -0.3213  0.5620
  668MOL0     C90067   2.464   9.328   0.890 -0.8214 -0.3765 -0.2292
  668MOL0     C90068   2.401   9.199   0.955  0.1182 -0.4305 -0.4868
  668MOL0     O90069   2.275   9.162   0.891 -0.0579  0.2606  0.4921
  668MOL0     C90070   2.278   9.145   0.756  1.1098 -0.9433 -0.6358
  668MOL0     C90071   2.355   9.069   0.684 -0.2800 -0.0629  0.7559
  668MOL0     C90072   2.339   9.046   0.546 -0.3616  0.0877 -0.2390
  668MOL0     C90073   2.455   8.979   0.468 -0.3050  0.3473 -0.2513
  668MOL0     C90074   2.226   9.110   0.476  0.0316 -0.4180 -0.0669
  668MOL0     C90075   2.196   9.101   0.328 -0.3210  0.7223  0.1490
  668MOL0     O90076   2.086   9.170   0.273 -0.9462  0.7511 -0.1392
  668MOL0     C90077   2.046   9.146   0.144  0.5332  0.6252 -0.3387
  668MOL0     C90078   1.921   9.083   0.125  1.7977 -0.9760 -0.1073
  668MOL0     C90079   1.881   9.038   0.008  0.5832 -0.2411 -0.5596
  668MOL0     C90080   1.954   9.067  -0.106  0.2171  0.5294 -0.2348
  668MOL0     O90081   1.905   9.039  -0.235  0.1180  0.0809 -0.6583
  668MOL0     C90082   1.981   8.937  -0.306  0.5958  0.8876 -0.4505
  668MOL0     C90083   1.915   8.885  -0.427  0.8886  0.4402 -0.2325
  668MOL0     C90084   2.016   8.800  -0.506 -0.0118 -0.3474  0.2146
  668MOL0     C90085   1.930   8.732  -0.622 -0.6977  0.3909 -0.5264
  668MOL0     C90086   2.031   8.652  -0.719  0.4124 -0.0749  0.1660
  668MOL0     C90087   2.139   8.739  -0.793  0.2719 -0.5583  0.1440
  668MOL0     C90088   2.193   8.666  -0.920 -0.1905 -0.6954  0.2781
  668MOL0     C90089   2.296   8.557  -0.914  0.1889 -0.5465  0.0115
  668MOL0    Cl90090   2.437   8.626  -0.816  0.0470 -0.1894  0.0661
  668MOL0     C90091   2.090   9.127  -0.091 -0.5229  0.4902  0.9024
  668MOL0     C90092   2.130   9.172   0.036  0.2646  1.2954  0.0758
  668MOL0     O90093   2.263   9.022   0.259  0.1970 -0.4791 -0.2012
  668MOL0     C90094   2.154   9.208   0.560 -0.0607  1.0743 -0.4468
  668MOL0     C90095   2.165   9.204   0.698 -1.0664  0.0005  0.3801
  668MOL0     N90096   2.690   9.673   1.103 -0.7345  0.0617 -0.5905
  668MOL0     N90097   2.788   9.710   1.189 -0.4757  0.3045  0.3393
  668MOL0     C90098   2.727   9.634   2.513 -0.0677  0.6826 -0.1286
  668MOL0     C90099   2.772   9.574   2.629  0.1781  0.7371 -0.5102
  668MOL0     C90100   2.958   9.398   2.968  0.2931 -0.4706 -0.4827
  668MOL0     C90101   3.025   9.513   3.035  0.2338  0.3046  1.0528
  668MOL0     C90102   3.046   9.520   3.178  0.0771  1.1997 -0.2928
  668MOL0     C90103   3.002   9.412   3.249  0.7504  0.4968 -0.3772
  668MOL0     O90104   3.026   9.410   3.383 -0.1707  0.0754  0.0760
  668MOL0     C90105   3.149   9.332   3.417  0.7946  0.0623 -0.1167
  668MOL0     C90106   3.199   9.375   3.561 -0.3400  0.8144 -0.1504
  668MOL0     C90107   3.270   9.511   3.572 -0.1885 -0.0952 -0.0786
  668MOL0     C90108   3.404   9.524   3.504  0.8964  0.0302  0.2846
  668MOL0     C90109   3.475   9.637   3.558  0.3592  0.2022  0.6712
  668MOL0     C90110   3.557   9.716   3.602  0.4922  0.5705  0.9722
  668MOL0     C90111   2.918   9.313   3.191  0.0686  0.6586 -0.1735
  668MOL0     C90112   2.907   9.302   3.055 -0.1837  0.1480  0.1574
  668MOL0     H90113   3.109   9.614   2.571  0.4751 -2.0170 -2.6291
  668MOL0     H90114   3.032   9.677   2.369 -1.4056  2.1794 -0.4367
  668MOL0     H90115   2.821   9.912   2.186 -0.4412 -2.1388 -0.6757
  668MOL0     H90116   2.929   9.873   2.320  0.3249 -3.5295  2.2651
  668MOL0     H90117   3.054   9.743   2.143 -0.2649  0.4189 -1.3030
  668MOL0     H90118   2.917   9.639   2.142  3.3593 -1.2602 -3.1476
  668MOL0     H90119   2.793   9.775   1.973 -0.3969 -1.4435 -2.3428
  668MOL0     H90120   2.927   9.895   1.977  0.4715 -0.6277 -1.8803
  668MOL0     H90121   3.070   9.743   1.880  1.6871 -4.4602 -0.3477
  668MOL0     H90122   2.971   9.606   1.888 -1.7232 -0.2010 -1.4687
  668MOL0     H90123   2.796   9.756   1.754  0.4658 -0.2702 -1.3006
  668MOL0     H90124   2.924   9.855   1.717  1.5943 -0.3573 -0.8787
  668MOL0     H90125   3.055   9.662   1.615 -0.5212  1.6968 -5.4499
  668MOL0     H90126   2.935   9.543   1.675 -0.2612  0.6952  1.3833
  668MOL0     H90127   2.746   9.652   1.545 -0.2222 -2.1395 -0.7178
  668MOL0     H90128   2.862   9.780   1.502  1.2710  0.3690  0.9781
  668MOL0     H90129   2.892   9.488   1.416 -1.0203 -0.0597 -2.2396
  668MOL0     H90130   2.989   9.636   1.362  0.9063 -0.8660 -1.5009
  668MOL0     H90131   2.646   9.449   1.344  1.1458  0.1602  0.8870
  668MOL0     H90132   2.463   9.410   1.157  0.9237 -0.8485  0.4413
  668MOL0     H90133   2.433   9.549   1.056  2.3060  3.1654 -1.4339
  668MOL0     H90134   2.645   9.333   0.984 -1.3710 -2.2468  0.3235
  668MOL0     H90135   2.603   9.482   0.891 -0.0029 -1.1778 -0.5310
  668MOL0     H90136   2.517   9.305   0.797  2.6727 -0.1554  1.5502
  668MOL0     H90137   2.380   9.394   0.868 -1.3870  0.1588  3.1042
  668MOL0     H90138   2.385   9.210   1.062 -1.2442  3.0282 -0.9204
  668MOL0     H90139   2.478   9.122   0.949 -0.1139 -0.7461  0.4961
  668MOL0     H90140   2.443   9.031   0.735 -0.1762  1.5987  1.9023
  668MOL0     H90141   2.535   8.946   0.535 -1.2524  0.1118  0.8083
  668MOL0     H90142   2.426   8.890   0.412  0.9800  1.5614 -3.0064
  668MOL0     H90143   2.499   9.060   0.411  1.0080 -0.5229 -0.5198
  668MOL0     H90144   1.872   9.073   0.221 -2.3018  3.1348 -1.4232
  668MOL0     H90145   1.781   8.998   0.020  0.4323 -0.1142 -1.3410
  668MOL0     H90146   2.080   8.981  -0.315  1.6619 -1.1618  0.6229
  668MOL0     H90147   1.987   8.842  -0.251  1.3190  0.5644 -1.0713
  668MOL0     H90148   1.830   8.822  -0.401  0.5705 -0.4042 -3.0375
  668MOL0     H90149   1.871   8.967  -0.484  2.8379  2.4553  0.9766
  668MOL0     H90150   2.068   8.727  -0.443  2.3271 -1.9813 -3.2782
  668MOL0     H90151   2.096   8.856  -0.555  1.3763 -2.3122  0.0945
  668MOL0     H90152   1.847   8.673  -0.584  0.3837 -0.3638  0.7507
  668MOL0     H90153   1.881   8.811  -0.681 -1.3138 -0.0261 -0.5805
  668MOL0     H90154   1.974   8.586  -0.786 -2.0601 -1.3722  3.2862
  668MOL0     H90155   2.083   8.574  -0.663  0.4061 -1.3543 -1.5017
  668MOL0     H90156   2.100   8.840  -0.813 -0.5420 -0.6076  1.3813
  668MOL0     H90157   2.220   8.753  -0.721  1.2334 -1.0421 -0.8264
  668MOL0     H90158   2.236   8.744  -0.984 -0.9580  0.9516  1.6699
  668MOL0     H90159   2.109   8.626  -0.978  0.1249 -1.0321  0.0496
  668MOL0     H90160   2.328   8.519  -1.012  1.9874  0.8755 -0.0076
  668MOL0     H90161   2.242   8.479  -0.859 -1.2054  1.3375  1.4294
  668MOL0     H90162   2.164   9.135  -0.170  1.0398 -1.0871  2.1446
  668MOL0     H90163   2.235   9.199   0.039  0.4383  0.6580 -0.0374
  668MOL0     H90164   2.082   9.271   0.508  0.1808  0.3678 -1.6823
  668MOL0     H90165   2.106   9.268   0.764 -0.8811 -0.2028  0.7446
  668MOL0     H90166   2.621   9.655   2.503 -0.3545 -0.8120 -0.5478
  668MOL0     H90167   2.704   9.543   2.708  0.2535  3.8353  0.9230
  668MOL0     H90168   3.064   9.598   2.980 -1.5243 -0.5512 -1.7344
  668MOL0     H90169   3.095   9.602   3.228  0.6106 -0.0812  1.3531
  668MOL0     H90170   3.129   9.225   3.423 -4.0640  0.8250  1.8996
  668MOL0     H90171   3.229   9.350   3.344  0.5840  3.5895  0.3436
  668MOL0     H90172   3.270   9.298   3.590  0.6307  0.7797 -2.4580
  668MOL0     H90173   3.112   9.378   3.628 -0.6938  0.1881 -0.5736
  668MOL0     H90174   3.282   9.536   3.678  1.9304  0.5602 -0.4225
  668MOL0     H90175   3.199   9.581   3.526 -1.2223 -0.8639  0.3000
  668MOL0     H90176   3.381   9.541   3.398  0.1753  1.7265  0.6876
  668MOL0     H90177   3.455   9.427   3.503 -0.4047 -0.6860  0.0709
  668MOL0     H90178   3.616   9.802   3.628  1.2672 -0.3629  2.4669
  668MOL0     H90179   2.881   9.229   3.249  2.7746  0.6830  1.7883
  668MOL0     H90180   2.858   9.216   3.011 -2.1935  1.4006 -0.1773
  669MOL0     O90181   5.479   5.655  10.631  0.1828  0.2763 -0.6492
  669MOL0     C90182   5.389   5.574  10.598 -0.7555 -0.2083 -0.0091
  669MOL0     O90183   5.264   5.569  10.661 -0.1925  0.5030 -0.0582
  669MOL0     C90184   5.239   5.643  10.771 -0.0312 -0.1829 -0.3767
  669MOL0     C90185   5.274   5.778  10.796  0.4787 -0.0671  0.3398
  669MOL0     C90186   5.244   5.843  10.918 -0.6969 -0.0934  0.8063
  669MOL0     C90187   5.163   5.785  11.009  0.6976 -0.7432 -0.4911
  669MOL0     O90188   5.128   5.837  11.140  0.4913 -0.0454  0.8020
  669MOL0     C90189   5.179   5.965  11.173 -0.6493 -0.7390  0.2281
  669MOL0     C90190   5.311   5.940  11.249  0.7490  0.1636 -0.6866
  669MOL0     C90191   5.418   6.039  11.227 -0.6652 -0.2593  0.5466
  669MOL0     C90192   5.531   5.972  11.307  1.5560  0.0796  0.4185
  669MOL0     C90193   5.659   6.037  11.264  0.4399 -0.3415 -0.2989
  669MOL0     C90194   5.665   6.188  11.297  0.9580 -0.0814  0.7061
  669MOL0     C90195   5.804   6.211  11.353  0.1820 -0.2218 -0.5451
  669MOL0     C90196   5.841   6.364  11.365 -0.0120  0.1731  0.3555
  669MOL0     N90197   5.836   6.429  11.234  0.3415  0.6638 -0.7323
  669MOL0     C90198   5.919   6.395  11.126  0.1374 -0.3868  0.0475
  669MOL0     C90199   5.872   6.476  11.021 -1.2836 -0.8724  0.1026
  669MOL0     C90200   5.929   6.478  10.879  0.9750  0.5125 -0.1948
  669MOL0     C90201   5.894   6.610  10.806 -0.3428 -0.4038  0.1246
  669MOL0     C90202   5.944   6.622  10.662 -0.0952  0.6749  0.1686
  669MOL0     C90203   6.072   6.692  10.664 -0.2169  0.4891 -0.0229
  669MOL0     O90204   6.099   6.737  10.534  0.0279  0.1009  0.7323
  669MOL0     C90205   6.226   6.691  10.481  0.3011  0.5274 -0.4116
  669MOL0     C90206   6.233   6.648  10.349 -0.0259 -0.9232 -0.8685
  669MOL0     C90207   6.350   6.600  10.298 -0.1986  0.0625  0.5023
  669MOL0     C90208   6.353   6.591  10.147 -0.4009 -0.2587  1.4119
  669MOL0     C90209   6.460   6.589  10.379 -0.0173 -0.3798  0.5551
  669MOL0     C90210   6.590   6.547  10.329  0.4219  0.0929  0.1513
  669MOL0     O90211   6.696   6.572  10.412 -0.0953 -0.2459 -0.2934
  669MOL0     C90212   6.822   6.545  10.367  0.3838 -0.1740 -0.1639
  669MOL0     C90213   6.889   6.591  10.253 -0.6002 -0.5100 -0.3610
  669MOL0     C90214   7.022   6.582  10.230 -0.1541 -0.2537  0.9299
  669MOL0     C90215   7.103   6.505  10.323 -0.0126 -0.0539  0.1288
  669MOL0     O90216   7.233   6.494  10.298 -0.5539  0.8157  0.3916
  669MOL0     C90217   7.271   6.347  10.273  0.1666 -0.2786  0.9285
  669MOL0     C90218   7.278   6.308  10.124  0.2904  0.4434 -0.9718
  669MOL0     C90219   7.340   6.172  10.100 -0.5864  0.0026  0.5718
  669MOL0     C90220   7.242   6.070  10.131  0.6054 -0.8860  0.4431
  669MOL0     C90221   7.295   5.930  10.093 -0.1731 -0.7090  0.3854
  669MOL0     C90222   7.313   5.923   9.938 -0.2846 -0.3914  0.4568
  669MOL0     C90223   7.412   5.802   9.906 -0.5319  0.4223  0.3139
  669MOL0     C90224   7.377   5.724   9.785  0.3260 -0.6040  0.2396
  669MOL0    Cl90225   7.226   5.632   9.818 -0.1458  0.4943 -0.7903
  669MOL0     C90226   7.035   6.465  10.434  0.8085  0.9791 -0.1818
  669MOL0     C90227   6.897   6.474  10.456  0.1033 -0.3747  0.4030
  669MOL0     O90228   6.603   6.495  10.216 -0.9786 -0.7565 -0.3045
  669MOL0     C90229   6.457   6.645  10.510 -0.2068  0.6047 -1.1878
  669MOL0     C90230   6.331   6.693  10.558 -0.6070 -0.0851  0.1535
  669MOL0     N90231   5.769   6.558  11.074 -0.1249  0.1446  0.6161
  669MOL0     N90232   5.743   6.524  11.196  0.0421  0.5516 -0.5942
  669MOL0     C90233   5.110   5.658  10.984 -0.5561 -0.1224  0.0867
  669MOL0     C90234   5.152   5.583  10.873 -0.4860  1.0030  0.5514
  669MOL0     C90235   5.426   5.457  10.515  0.4434  1.0360  0.8525
  669MOL0     C90236   5.564   5.440  10.474  0.1748 -0.3571 -0.2599
  669MOL0     C90237   5.596   5.336  10.401 -0.5351  0.3005 -0.0180
  669MOL0     C90238   5.500   5.240  10.361  0.5066 -0.1070 -0.0205
  669MOL0     O90239   5.554   5.131  10.303 -0.5061  0.2553 -0.1636
  669MOL0     C90240   5.484   5.000  10.314  0.5589 -0.6573  0.3102
  669MOL0     C90241   5.535   4.899  10.216  0.5082  0.0900  0.1394
  669MOL0     C90242   5.681   4.859  10.249 -0.7376  1.2576 -0.4139
  669MOL0     C90243   5.765   4.820  10.125 -0.1022 -0.1430 -0.3209
  669MOL0     C90244   5.909   4.793  10.155  0.5315 -0.1261  0.6580
  669MOL0     C90245   6.020   4.768  10.203  0.9600  0.3985  0.3480
  669MOL0     C90246   5.367   5.250  10.406 -0.4795 -1.8403 -0.7671
  669MOL0     C90247   5.329   5.356  10.489 -0.3752 -0.5444  0.0361
  669MOL0     H90248   5.323   5.839  10.720  1.3535  1.2953  1.9078
  669MOL0     H90249   5.303   5.934  10.930  2.1174 -1.8505  1.0871
  669MOL0     H90250   5.189   6.038  11.092 -0.8057  3.1154  3.3325
  669MOL0     H90251   5.108   6.014  11.241 -2.6743 -1.4189 -1.2991
  669MOL0     H90252   5.290   5.934  11.356  1.0033  2.0678 -0.4965
  669MOL0     H90253   5.347   5.840  11.223  1.0234 -0.4044  1.6851
  669MOL0     H90254   5.446   6.050  11.122  1.6306  0.2559  1.1625
  669MOL0     H90255   5.393   6.130  11.282  1.0944 -1.0964  2.9193
  669MOL0     H90256   5.514   5.972  11.415 -1.6640  2.4100  0.0645
  669MOL0     H90257   5.552   5.873  11.264  1.4346  1.1942 -2.3830
  669MOL0     H90258   5.733   5.977  11.318 -0.3948 -0.0615  1.2217
  669MOL0     H90259   5.672   6.030  11.155 -0.9053 -1.1940 -0.4271
  669MOL0     H90260   5.659   6.236  11.198  2.6488 -0.3090  0.4636
  669MOL0     H90261   5.581   6.228  11.355  0.3753  1.2288 -0.9459
  669MOL0     H90262   5.783   6.162  11.448 -1.7338  0.6811 -0.4424
  669MOL0     H90263   5.872   6.154  11.289 -0.9280 -3.9137  1.2689
  669MOL0     H90264   5.944   6.375  11.402  0.1191  1.8623 -0.3916
  669MOL0     H90265   5.777   6.417  11.436 -2.3027 -0.0875 -1.3952
  669MOL0     H90266   6.000   6.323  11.126 -0.8588 -1.6083  2.5879
  669MOL0     H90267   6.038   6.474  10.879  1.2427  4.1130 -0.5134
  669MOL0     H90268   5.892   6.399  10.813  1.8976  0.0073 -0.1186
  669MOL0     H90269   5.921   6.696  10.868 -0.9228  0.5924 -0.9506
  669MOL0     H90270   5.785   6.614  10.793 -0.5112  3.2457  1.5758
  669MOL0     H90271   5.867   6.664  10.596 -1.1560 -2.2802 -0.6606
  669MOL0     H90272   5.954   6.520  10.623 -2.6467 -0.1856  1.4826
  669MOL0     H90273   6.149   6.627  10.705  1.2219  1.5260 -0.9649
  669MOL0     H90274   6.071   6.784  10.723  1.6328  0.5991 -0.0847
  669MOL0     H90275   6.142   6.648  10.290 -0.5237 -2.0045 -0.1264
  669MOL0     H90276   6.420   6.666  10.104  1.5413 -2.6162  0.1336
  669MOL0     H90277   6.384   6.494  10.108 -0.2212  1.0732 -2.1389
  669MOL0     H90278   6.254   6.614  10.107  0.0131 -2.1372 -0.8775
  669MOL0     H90279   6.838   6.644  10.173 -2.2818 -1.7124 -0.1331
  669MOL0     H90280   7.058   6.615  10.133 -1.5480  3.1813  1.4208
  669MOL0     H90281   7.361   6.332  10.332 -0.6250  0.0534  2.2748
  669MOL0     H90282   7.196   6.277  10.312  1.8506 -1.8545  1.4417
  669MOL0     H90283   7.183   6.311  10.069 -1.1309 -2.2339  1.1244
  669MOL0     H90284   7.349   6.379  10.081  1.7867 -1.2016 -1.3168
  669MOL0     H90285   7.436   6.175  10.151 -0.6615 -1.3665  0.8137
  669MOL0     H90286   7.379   6.186   9.999  0.3429 -0.0388  0.9200
  669MOL0     H90287   7.208   6.080  10.234  2.3168  0.1269  0.9487
  669MOL0     H90288   7.147   6.087  10.080  1.0736 -1.2943 -0.5913
  669MOL0     H90289   7.234   5.851  10.138  0.0155 -1.5667 -0.8055
  669MOL0     H90290   7.393   5.914  10.138  1.7413  1.1877 -2.7458
  669MOL0     H90291   7.214   5.905   9.894 -1.2720  0.1381  2.3773
  669MOL0     H90292   7.371   6.004   9.893 -0.8332 -1.2552 -2.0115
  669MOL0     H90293   7.426   5.733   9.990  1.0128 -1.2784 -1.2485
  669MOL0     H90294   7.517   5.831   9.904 -0.2495 -0.4813  1.1282
  669MOL0     H90295   7.446   5.640   9.773  2.0019 -0.5745  6.3782
  669MOL0     H90296   7.356   5.788   9.699  2.3770  3.5656  2.5519
  669MOL0     H90297   7.087   6.403  10.507 -0.5451 -2.1339 -1.6408
  669MOL0     H90298   6.850   6.427  10.541  1.8600  0.1478  1.7285
  669MOL0     H90299   6.543   6.645  10.576 -0.1580  2.8825 -1.1938
  669MOL0     H90300   6.341   6.730  10.659  3.1569 -1.2178  0.3316
  669MOL0     H90301   5.045   5.616  11.060 -0.4728  1.0677  0.8542
  669MOL0     H90302   5.103   5.487  10.863 -0.5854  1.3225 -5.1064
  669MOL0     H90303   5.636   5.516  10.505 -0.7541  1.0993 -1.5055
  669MOL0     H90304   5.694   5.315  10.359  0.6683  1.9687  1.7671
  669MOL0     H90305   5.492   4.971  10.419 -2.6094  3.3953  1.9197
  669MOL0     H90306   5.378   5.004  10.287  0.5636 -2.2736 -0.0960
  669MOL0     H90307   5.532   4.945  10.117 -0.8994 -3.1781 -1.4783
  669MOL0     H90308   5.471   4.811  10.219  0.5233  0.0842  2.5723
  669MOL0     H90309   5.661   4.782  10.323 -1.1698  0.4798 -1.3197
  669MOL0     H90310   5.731   4.932  10.313  3.1621 -0.8747 -0.7614
  669MOL0     H90311   5.758   4.912  10.066 -2.1552  0.3554  0.6001
  669MOL0     H90312   5.711   4.749  10.063 -2.7534  0.4669  1.1551
  669MOL0     H90313   6.123   4.776  10.231  1.3251  1.9588 -1.2743
  669MOL0     H90314   5.292   5.172  10.397 -1.7102 -1.1695  2.2018
  669MOL0     H90315   5.223   5.367  10.507 -1.5501 -3.4988 -3.7348
  670MOL0     O90316   6.296   7.695   1.010 -0.0844  0.0069  0.1207
  670MOL0     C90317   6.230   7.788   1.062 -0.2366 -0.2447 -0.7927
  670MOL0     O90318   6.099   7.833   1.019 -0.2289 -0.1151 -0.6635
  670MOL0     C90319   6.058   7.812   0.889  0.8020  0.5277 -0.7493
  670MOL0     C90320   5.922   7.796   0.856 -0.8784 -0.3159  0.7983
  670MOL0     C90321   5.882   7.792   0.723  0.0418 -0.1908  0.3675
  670MOL0     C90322   5.976   7.798   0.619 -0.4029  0.2084 -0.4106
  670MOL0     O90323   5.945   7.801   0.489  0.2884 -0.8040  0.0921
  670MOL0     C90324   5.810   7.825   0.450 -0.0094 -0.0202 -1.3301
  670MOL0     C90325   5.810   7.871   0.305 -0.2303  0.5400  0.8645
  670MOL0     C90326   5.923   7.826   0.218  0.0734 -0.4643 -0.2814
  670MOL0     C90327   5.905   7.870   0.077  0.1613 -0.3122  0.3870
  670MOL0     C90328   6.020   7.866  -0.026  0.5285  0.3274 -0.5617
  670MOL0     C90329   6.021   7.740  -0.103 -1.3172 -0.3433  0.0157
  670MOL0     C90330   6.060   7.608  -0.034 -0.1079 -0.3017 -0.6679
  670MOL0     C90331   6.109   7.510  -0.146  0.6230 -0.2351  0.4259
  670MOL0     N90332   6.216   7.555  -0.241  0.0674  0.1492  0.1919
  670MOL0     C90333   6.333   7.614  -0.203 -0.1323  0.1020 -0.2992
  670MOL0     C90334   6.407   7.619  -0.318  0.8663  0.0135  0.9378
  670MOL0     C90335   6.542   7.686  -0.343 -0.3042  0.3210 -0.2179
  670MOL0     C90336   6.545   7.819  -0.268 -0.0443 -0.0110 -0.4489
  670MOL0     C90337   6.642   7.901  -0.350  0.5313 -0.5996 -0.4126
  670MOL0     C90338   6.709   8.029  -0.289  0.6500 -0.0602  1.0556
  670MOL0     O90339   6.597   8.127  -0.294  0.5367 -0.6893  0.3562
  670MOL0     C90340   6.607   8.249  -0.369 -0.5881  0.5711 -0.3582
  670MOL0     C90341   6.519   8.353  -0.349 -0.0715  0.1488  0.0638
  670MOL0     C90342   6.519   8.478  -0.426 -0.1280  0.2183 -0.0290
  670MOL0     C90343   6.397   8.558  -0.398  0.1420  0.5673 -0.3707
  670MOL0     C90344   6.615   8.503  -0.526 -0.8961 -1.2937  0.7577
  670MOL0     C90345   6.621   8.626  -0.610 -0.1020 -0.1929 -0.0314
  670MOL0     O90346   6.528   8.720  -0.581 -0.1514 -0.1089 -0.8320
  670MOL0     C90347   6.552   8.851  -0.600  0.2324  0.0233  0.3335
  670MOL0     C90348   6.626   8.916  -0.507 -0.3366  0.3341  0.2877
  670MOL0     C90349   6.662   9.052  -0.521 -0.2207 -0.1657 -1.0630
  670MOL0     C90350   6.615   9.127  -0.629 -0.6556 -0.7244  0.1446
  670MOL0     O90351   6.658   9.250  -0.670  0.2177 -0.1066 -0.6526
  670MOL0     C90352   6.732   9.324  -0.572 -0.7313  0.3305  0.2669
  670MOL0     C90353   6.777   9.463  -0.624  0.0813 -0.4859  0.0983
  670MOL0     C90354   6.891   9.461  -0.719 -0.2227  0.4737 -0.0074
  670MOL0     C90355   6.921   9.600  -0.776  0.3175 -0.1992  0.0288
  670MOL0     C90356   7.034   9.606  -0.872 -1.8150  0.2865 -0.0033
  670MOL0     C90357   7.079   9.756  -0.885  0.3690 -0.1114 -1.0428
  670MOL0     C90358   7.176   9.776  -0.996 -0.5372  0.6337 -0.2956
  670MOL0     C90359   7.317   9.716  -0.969 -0.6011 -0.2299 -0.9069
  670MOL0    Cl90360   7.401   9.740  -1.126 -0.1953  0.3240 -0.1953
  670MOL0     C90361   6.538   9.061  -0.724  0.2608 -0.4240 -0.0937
  670MOL0     C90362   6.500   8.931  -0.703 -0.0216  0.4263  0.3988
  670MOL0     O90363   6.718   8.641  -0.681 -0.8817  0.0959  0.0198
  670MOL0     C90364   6.714   8.399  -0.546 -0.0988  0.4667 -0.1322
  670MOL0     C90365   6.706   8.273  -0.470 -0.4458 -0.4453  1.0744
  670MOL0     N90366   6.331   7.556  -0.422 -0.1093  0.3211  0.3849
  670MOL0     N90367   6.219   7.529  -0.376 -0.4236  1.1619 -0.5016
  670MOL0     C90368   6.114   7.820   0.647 -0.0544 -0.3270  0.3426
  670MOL0     C90369   6.154   7.831   0.782  0.7638 -0.4016 -0.1148
  670MOL0     C90370   6.286   7.853   1.193  0.1188  0.4526  0.5403
  670MOL0     C90371   6.227   7.961   1.252 -0.3684  0.3259 -0.1056
  670MOL0     C90372   6.289   8.024   1.362 -0.6804  0.0928  0.4355
  670MOL0     C90373   6.403   7.968   1.424  0.0530  0.2516  0.7838
  670MOL0     O90374   6.458   8.047   1.526 -0.5247 -0.1036  0.5957
  670MOL0     C90375   6.521   7.979   1.630  0.0892  1.4435  0.3426
  670MOL0     C90376   6.463   8.044   1.760  0.0431  0.5921  0.4392
  670MOL0     C90377   6.471   7.952   1.886 -0.1672 -0.0119 -0.3239
  670MOL0     C90378   6.381   8.009   2.001  0.1673  0.2419 -0.7774
  670MOL0     C90379   6.349   8.146   1.988 -0.1477 -0.9872  0.1015
  670MOL0     C90380   6.326   8.269   1.988 -0.6754  0.7888 -0.2902
  670MOL0     C90381   6.464   7.852   1.369  0.9323  0.0582 -0.0249
  670MOL0     C90382   6.406   7.804   1.245 -0.1353 -0.5545 -0.7986
  670MOL0     H90383   5.845   7.787   0.932 -1.1917  0.6108  0.5997
  670MOL0     H90384   5.779   7.766   0.702  1.0586 -1.4270 -3.9929
  670MOL0     H90385   5.754   7.732   0.433 -0.5794  0.2343 -0.8706
  670MOL0     H90386   5.754   7.897   0.510 -0.0390  2.1261 -3.7621
  670MOL0     H90387   5.719   7.849   0.249  2.3431 -1.1088 -3.1480
  670MOL0     H90388   5.816   7.980   0.313 -0.8673  1.0952 -3.6595
  670MOL0     H90389   6.017   7.868   0.253 -0.4522  0.0969  0.4773
  670MOL0     H90390   5.926   7.717   0.221  1.1589 -0.6152 -3.2227
  670MOL0     H90391   5.814   7.822   0.042 -0.0189  0.7976 -0.7186
  670MOL0     H90392   5.880   7.976   0.070  4.5007  0.9181  0.5134
  670MOL0     H90393   6.008   7.942  -0.103  1.9258  2.5882  1.2923
  670MOL0     H90394   6.118   7.889   0.018  1.5229 -0.7443 -2.1361
  670MOL0     H90395   5.925   7.725  -0.153  0.3418  0.0778 -3.5958
  670MOL0     H90396   6.095   7.761  -0.181  0.5538  1.8820  2.2504
  670MOL0     H90397   6.151   7.625   0.025 -0.8388 -1.4775  0.8880
  670MOL0     H90398   5.991   7.570   0.043  2.4144  0.6267  2.2532
  670MOL0     H90399   6.018   7.482  -0.200 -1.0704  0.8573  2.5464
  670MOL0     H90400   6.142   7.417  -0.099 -2.0256 -1.2697  0.4028
  670MOL0     H90401   6.359   7.681  -0.122  0.3988  1.1315 -1.2999
  670MOL0     H90402   6.628   7.619  -0.336 -0.0551  0.6917  0.2522
  670MOL0     H90403   6.535   7.718  -0.448 -1.2552 -1.5460 -0.7790
  670MOL0     H90404   6.577   7.807  -0.164  0.9373 -1.0333 -0.8451
  670MOL0     H90405   6.443   7.857  -0.275 -0.5812 -1.4839 -1.1717
  670MOL0     H90406   6.586   7.924  -0.441  0.0534 -0.6403 -0.1294
  670MOL0     H90407   6.729   7.836  -0.366  2.4412  2.2159 -2.4069
  670MOL0     H90408   6.799   8.067  -0.339  0.1459 -1.8253 -1.3994
  670MOL0     H90409   6.737   8.014  -0.184  0.9539  0.0016  0.9838
  670MOL0     H90410   6.450   8.316  -0.273  0.6902 -1.8989 -0.1989
  670MOL0     H90411   6.340   8.511  -0.317  0.7251  1.9173  0.8683
  670MOL0     H90412   6.412   8.657  -0.355  0.3149  0.4540 -0.1672
  670MOL0     H90413   6.338   8.568  -0.490  0.1349  1.7806 -0.2487
  670MOL0     H90414   6.658   8.865  -0.416  1.3190 -1.5267 -1.2595
  670MOL0     H90415   6.718   9.096  -0.440  1.0276 -2.9664 -0.2737
  670MOL0     H90416   6.682   9.323  -0.475  0.7466  2.5029  1.1292
  670MOL0     H90417   6.823   9.266  -0.552 -0.7445 -0.8983 -2.6983
  670MOL0     H90418   6.682   9.508  -0.655  0.5633  2.9656  2.8896
  670MOL0     H90419   6.814   9.513  -0.534 -1.5047 -1.6660  1.4814
  670MOL0     H90420   6.861   9.397  -0.802  1.4676  0.7808 -0.9134
  670MOL0     H90421   6.988   9.424  -0.685  0.0223 -0.8531 -1.9740
  670MOL0     H90422   6.829   9.643  -0.817  1.3454 -0.3687 -2.6856
  670MOL0     H90423   6.939   9.662  -0.688 -2.2932 -0.8798  1.1628
  670MOL0     H90424   7.003   9.564  -0.968 -0.1195 -0.8761 -0.1036
  670MOL0     H90425   7.119   9.542  -0.847 -0.2786  1.3397 -2.2115
  670MOL0     H90426   6.995   9.822  -0.911 -0.0570 -0.9995 -1.9792
  670MOL0     H90427   7.124   9.782  -0.789  1.3893 -0.6722 -1.3554
  670MOL0     H90428   7.182   9.885  -0.999  0.7288  0.7438  2.6539
  670MOL0     H90429   7.146   9.744  -1.096 -3.7128  1.6555  0.2154
  670MOL0     H90430   7.322   9.610  -0.941 -0.4280 -0.1598 -0.6634
  670MOL0     H90431   7.364   9.784  -0.896  0.0281  0.5284 -1.9899
  670MOL0     H90432   6.509   9.109  -0.817  4.8636  1.6216 -0.7370
  670MOL0     H90433   6.447   8.884  -0.785  0.4772 -2.1123  1.4217
  670MOL0     H90434   6.794   8.407  -0.619  2.5616 -0.8393  2.4239
  670MOL0     H90435   6.777   8.199  -0.503 -1.1839 -1.1501  1.0225
  670MOL0     H90436   6.192   7.835   0.572 -0.7232  3.8077  0.2629
  670MOL0     H90437   6.257   7.862   0.799 -0.2154  2.3323  1.4208
  670MOL0     H90438   6.131   7.996   1.214 -0.4893  0.0626 -0.0464
  670MOL0     H90439   6.243   8.106   1.417 -3.5625 -2.3345  1.9211
  670MOL0     H90440   6.508   7.871   1.627  2.9448  1.0317 -1.3929
  670MOL0     H90441   6.629   7.998   1.628 -0.0239  2.1409  0.5111
  670MOL0     H90442   6.356   8.061   1.741 -0.7757 -2.8333  1.2339
  670MOL0     H90443   6.518   8.138   1.771  0.6089  0.7828 -2.9931
  670MOL0     H90444   6.572   7.936   1.927  0.5449 -1.0619 -2.3522
  670MOL0     H90445   6.436   7.850   1.869 -2.6260  0.7252 -0.0083
  670MOL0     H90446   6.446   7.990   2.087 -0.6890 -1.2265 -0.4085
  670MOL0     H90447   6.294   7.943   2.010  0.3673  0.2180  2.2033
  670MOL0     H90448   6.309   8.374   1.993 -1.8157  0.5769  1.2767
  670MOL0     H90449   6.551   7.803   1.412  0.0395 -3.0331 -1.4732
  670MOL0     H90450   6.456   7.724   1.192  1.1618 -1.9785  2.2805
  671MOL0     O90451   7.375   4.337   0.440 -0.3854 -0.7150 -0.1931
  671MOL0     C90452   7.263   4.380   0.419 -0.5117  0.1509 -0.1072
  671MOL0     O90453   7.197   4.367   0.308  0.1323  0.3856  0.1553
  671MOL0     C90454   7.256   4.309   0.193  0.6339 -0.2987 -1.0717
  671MOL0     C90455   7.214   4.178   0.163 -0.1062 -1.0326 -0.2502
  671MOL0     C90456   7.277   4.123   0.049  0.0822  0.5334 -0.3286
  671MOL0     C90457   7.379   4.188  -0.022  1.5817  0.0285  0.5707
  671MOL0     O90458   7.451   4.126  -0.118  0.1466  0.8338  0.5240
  671MOL0     C90459   7.594   4.128  -0.111  0.0406  0.6120  0.2405
  671MOL0     C90460   7.639   4.041  -0.225 -0.3768  0.0496  0.3887
  671MOL0     C90461   7.791   4.047  -0.254 -0.4037 -0.4750  0.5556
  671MOL0     C90462   7.840   3.915  -0.313  0.3827  0.2027 -0.2176
  671MOL0     C90463   7.989   3.895  -0.348 -0.1052  0.3026 -0.3608
  671MOL0     C90464   8.038   3.977  -0.464  1.4325  0.0564  1.3017
  671MOL0     C90465   8.168   3.926  -0.516  0.6773  0.0260 -0.2867
  671MOL0     C90466   8.230   4.023  -0.620 -0.0034 -0.4033 -0.0692
  671MOL0     N90467   8.148   4.047  -0.738 -0.0719  0.4286 -0.3504
  671MOL0     C90468   8.080   4.163  -0.767  0.4641  0.0474  0.5336
  671MOL0     C90469   8.011   4.143  -0.883  0.9885 -0.1996  0.2102
  671MOL0     C90470   7.924   4.253  -0.951 -0.1049 -0.8170 -0.5363
  671MOL0     C90471   8.013   4.369  -0.997 -0.3577 -0.0358  0.1884
  671MOL0     C90472   7.996   4.479  -0.890 -0.2157 -1.3505  0.5925
  671MOL0     C90473   8.116   4.575  -0.876 -0.0148  0.5152 -0.0952
  671MOL0     O90474   8.049   4.682  -0.799 -0.2499 -0.1027  0.2437
  671MOL0     C90475   8.121   4.784  -0.747  1.5558  0.2276  0.6208
  671MOL0     C90476   8.261   4.791  -0.761  0.5493  0.8422 -0.2562
  671MOL0     C90477   8.330   4.894  -0.697  1.1185 -0.7281  0.0406
  671MOL0     C90478   8.481   4.890  -0.690  0.2002  0.2552  0.3545
  671MOL0     C90479   8.259   4.997  -0.631  0.5344 -0.6386  0.0095
  671MOL0     C90480   8.326   5.119  -0.570 -0.4981 -0.4550  1.0636
  671MOL0     O90481   8.307   5.146  -0.439  0.0555  0.1475 -0.3004
  671MOL0     C90482   8.367   5.246  -0.366  0.0219  0.3773  0.1385
  671MOL0     C90483   8.295   5.306  -0.260  0.5395 -0.2219  0.4433
  671MOL0     C90484   8.363   5.398  -0.189  0.2434  1.2675  0.4717
  671MOL0     C90485   8.495   5.429  -0.198 -0.1876 -0.2440 -0.1142
  671MOL0     O90486   8.544   5.516  -0.116 -0.0747 -0.5741  0.4960
  671MOL0     C90487   8.689   5.543  -0.094  0.5049  0.3753 -0.1720
  671MOL0     C90488   8.700   5.684  -0.023  0.4269  1.3715  0.0790
  671MOL0     C90489   8.671   5.668   0.122  0.2079 -0.4033 -0.4526
  671MOL0     C90490   8.673   5.804   0.195 -0.3640  0.7984 -0.1412
  671MOL0     C90491   8.659   5.788   0.350 -0.4169 -0.3734 -0.7673
  671MOL0     C90492   8.638   5.929   0.414 -0.0367  0.4082 -0.4552
  671MOL0     C90493   8.583   5.905   0.557 -0.0612  1.3450 -0.0459
  671MOL0     C90494   8.687   5.844   0.650  0.5731 -0.4854  0.1917
  671MOL0    Cl90495   8.665   5.876   0.820 -0.1837  0.4260  0.1533
  671MOL0     C90496   8.567   5.371  -0.300  0.4021  1.5071  0.3427
  671MOL0     C90497   8.506   5.280  -0.386  0.4650 -0.7485 -0.2633
  671MOL0     O90498   8.404   5.177  -0.643  0.5917  0.0483 -0.8318
  671MOL0     C90499   8.120   4.995  -0.647  0.3202  0.8350  0.6260
  671MOL0     C90500   8.055   4.888  -0.686  0.4522  0.0014 -0.8718
  671MOL0     N90501   8.026   4.013  -0.923  0.2557  0.3196 -0.6811
  671MOL0     N90502   8.111   3.959  -0.834  0.0554  0.3278  0.2186
  671MOL0     C90503   7.408   4.320   0.014 -1.1018 -0.0231  0.6268
  671MOL0     C90504   7.354   4.376   0.130  1.0239  0.3675  0.5518
  671MOL0     C90505   7.200   4.452   0.531 -0.2215  0.0291  0.3483
  671MOL0     C90506   7.225   4.418   0.665  0.3326 -0.3691  0.1457
  671MOL0     C90507   7.171   4.494   0.766  0.0186  0.5944 -0.6515
  671MOL0     C90508   7.085   4.596   0.739 -0.4947  0.2637 -0.3752
  671MOL0     O90509   7.011   4.656   0.837  0.0508  0.2926  0.2682
  671MOL0     C90510   6.949   4.785   0.821  0.1570  1.7317 -0.4415
  671MOL0     C90511   6.807   4.780   0.775  0.2727  1.0051 -0.1579
  671MOL0     C90512   6.715   4.885   0.827  0.9380  1.4392 -0.0707
  671MOL0     C90513   6.773   5.014   0.886  0.2861  0.0751  0.4044
  671MOL0     C90514   6.658   5.104   0.922  0.4062 -0.6359  0.4682
  671MOL0     C90515   6.573   5.178   0.971 -0.3736 -0.0220  0.0052
  671MOL0     C90516   7.051   4.625   0.607  0.1757 -0.8044 -0.1425
  671MOL0     C90517   7.114   4.555   0.506 -0.0566 -0.3873 -0.1519
  671MOL0     H90518   7.154   4.113   0.225  0.4321 -0.9699  0.3546
  671MOL0     H90519   7.235   4.025   0.028 -0.1412  0.1633  1.7004
  671MOL0     H90520   7.625   4.232  -0.105 -1.1929  0.9276  1.6860
  671MOL0     H90521   7.634   4.082  -0.020  1.1360  1.3365  0.1443
  671MOL0     H90522   7.611   3.937  -0.205 -0.5461 -0.4620 -2.2035
  671MOL0     H90523   7.583   4.064  -0.316 -0.1759 -0.2140  0.2002
  671MOL0     H90524   7.815   4.131  -0.320  3.4379  1.3777  3.8647
  671MOL0     H90525   7.840   4.063  -0.158  3.3732  0.9798 -1.4010
  671MOL0     H90526   7.814   3.830  -0.248 -0.0851  0.4950 -0.0147
  671MOL0     H90527   7.778   3.906  -0.403 -0.1777 -1.4339  0.2929
  671MOL0     H90528   8.063   3.898  -0.268 -1.0278  3.1757  0.4865
  671MOL0     H90529   7.986   3.788  -0.370 -0.2026 -0.3406  2.3589
  671MOL0     H90530   7.964   3.981  -0.545  1.3037 -3.2496  1.1106
  671MOL0     H90531   8.059   4.082  -0.444  0.3405  0.5877 -0.1457
  671MOL0     H90532   8.237   3.924  -0.432 -0.1490  0.0897  0.4101
  671MOL0     H90533   8.158   3.823  -0.553 -0.3382 -0.2820  0.7908
  671MOL0     H90534   8.316   3.963  -0.650 -0.5311 -0.4970 -1.4724
  671MOL0     H90535   8.264   4.115  -0.573 -1.7734 -0.2754  1.0445
  671MOL0     H90536   8.059   4.245  -0.700 -4.3786 -0.5455  0.0363
  671MOL0     H90537   7.880   4.203  -1.037  0.1619  1.7624 -2.2901
  671MOL0     H90538   7.851   4.296  -0.882  1.4105  0.7433  0.1728
  671MOL0     H90539   7.980   4.404  -1.095 -1.1198  0.0250  0.4605
  671MOL0     H90540   8.117   4.337  -1.010 -0.1817  0.4990  0.2743
  671MOL0     H90541   7.983   4.443  -0.787 -0.3933 -1.6347  0.4702
  671MOL0     H90542   7.909   4.527  -0.935  2.8519  2.1967 -2.2087
  671MOL0     H90543   8.153   4.616  -0.970 -0.2222  0.4542 -0.2037
  671MOL0     H90544   8.196   4.532  -0.815  0.4626  1.9243  0.3083
  671MOL0     H90545   8.329   4.721  -0.807  2.4967 -0.2634  3.8528
  671MOL0     H90546   8.536   4.799  -0.716 -0.5987 -0.5674  1.4462
  671MOL0     H90547   8.515   4.971  -0.756 -2.8447  0.0465 -1.6449
  671MOL0     H90548   8.522   4.908  -0.590 -1.4095 -1.9981  1.5098
  671MOL0     H90549   8.191   5.279  -0.246  0.7996 -0.7345  1.4382
  671MOL0     H90550   8.295   5.457  -0.128  0.3284  0.7519  1.0648
  671MOL0     H90551   8.736   5.471  -0.028  1.9624 -0.6677 -2.2357
  671MOL0     H90552   8.742   5.543  -0.190 -1.5529 -0.2450 -1.4028
  671MOL0     H90553   8.805   5.714  -0.033  0.1959  1.5479 -2.3123
  671MOL0     H90554   8.640   5.761  -0.071 -0.3821 -0.5855 -2.2645
  671MOL0     H90555   8.746   5.600   0.163  3.0815  1.9855 -1.4445
  671MOL0     H90556   8.572   5.622   0.131 -0.5099  1.3751  1.3991
  671MOL0     H90557   8.755   5.862   0.153 -0.7832  0.0147 -2.1454
  671MOL0     H90558   8.587   5.857   0.153 -0.8609 -0.3232 -0.5815
  671MOL0     H90559   8.750   5.733   0.377  0.3354  0.5789 -1.2821
  671MOL0     H90560   8.572   5.724   0.365 -0.3601 -1.2307 -3.5660
  671MOL0     H90561   8.734   5.981   0.415 -0.9835  2.2727 -0.2529
  671MOL0     H90562   8.564   5.977   0.349 -1.2180 -1.6865 -0.7220
  671MOL0     H90563   8.499   5.836   0.552  1.2679 -0.5784  1.8833
  671MOL0     H90564   8.545   6.002   0.589  1.7070  1.6212  1.4171
  671MOL0     H90565   8.783   5.888   0.618  0.6862 -1.2677 -0.6042
  671MOL0     H90566   8.693   5.737   0.627 -1.1042 -0.4417 -0.5741
  671MOL0     H90567   8.674   5.382  -0.312  1.0337 -0.2130  3.2250
  671MOL0     H90568   8.558   5.221  -0.461  0.2122 -0.0027 -1.0424
  671MOL0     H90569   8.055   5.066  -0.597 -1.2869 -0.8473  1.0318
  671MOL0     H90570   7.947   4.882  -0.684  0.4312  0.2398 -1.2831
  671MOL0     H90571   7.487   4.375  -0.036 -1.0532 -1.3872 -0.8737
  671MOL0     H90572   7.374   4.475   0.169  0.3674  1.8206 -2.4557
  671MOL0     H90573   7.292   4.335   0.688 -1.0684 -1.6687 -0.2664
  671MOL0     H90574   7.199   4.474   0.869 -0.9461  1.6433 -0.1734
  671MOL0     H90575   6.951   4.820   0.924  0.7041 -0.3669  0.3083
  671MOL0     H90576   6.997   4.850   0.748 -1.5427  2.0990 -1.2782
  671MOL0     H90577   6.769   4.682   0.806 -0.8538  1.2691 -0.6496
  671MOL0     H90578   6.792   4.786   0.667  0.3158 -0.8223 -0.3040
  671MOL0     H90579   6.651   4.846   0.907  2.2569 -3.2706 -0.9732
  671MOL0     H90580   6.646   4.907   0.744  1.4982  2.4110 -0.2909
  671MOL0     H90581   6.832   5.062   0.808 -0.6404 -0.3191 -0.5621
  671MOL0     H90582   6.836   4.993   0.973 -1.7109  0.8859  2.1442
  671MOL0     H90583   6.494   5.236   1.013  0.2695  0.2473  0.8598
  671MOL0     H90584   6.971   4.697   0.599  2.3959  2.2598  2.6690
  671MOL0     H90585   7.081   4.577   0.405  2.3083  2.5330 -0.4574
  672MOL0     O90586   4.398   6.014   7.076  0.7769  0.2185 -0.1180
  672MOL0     C90587   4.291   5.970   7.026  0.0354 -0.7523 -0.2208
  672MOL0     O90588   4.261   5.836   6.998 -0.3684 -1.1976 -0.5073
  672MOL0     C90589   4.370   5.759   7.025 -0.0573 -0.7043 -0.4093
  672MOL0     C90590   4.350   5.682   7.129  0.5567  0.0775  0.1818
  672MOL0     C90591   4.450   5.593   7.173 -0.0541 -0.4829 -0.2960
  672MOL0     C90592   4.571   5.595   7.102  0.4191  0.9729 -0.7818
  672MOL0     O90593   4.667   5.498   7.122  0.2550  0.2795  0.4049
  672MOL0     C90594   4.636   5.357   7.107  0.4552 -0.0157 -0.1976
  672MOL0     C90595   4.717   5.283   6.999 -0.5104  0.2683 -0.2042
  672MOL0     C90596   4.697   5.323   6.858  0.7501 -0.6154  0.1295
  672MOL0     C90597   4.573   5.269   6.785  0.0774 -0.0307  0.2834
  672MOL0     C90598   4.557   5.316   6.637 -0.7233 -0.1615 -0.2363
  672MOL0     C90599   4.493   5.461   6.639  0.2279 -0.0549 -0.3340
  672MOL0     C90600   4.362   5.475   6.714 -0.1862 -0.3669 -0.4347
  672MOL0     C90601   4.282   5.596   6.650  0.1510  0.0109  0.0630
  672MOL0     N90602   4.149   5.617   6.702  0.7917 -0.3891 -0.8977
  672MOL0     C90603   4.113   5.604   6.837  0.7830 -0.1853 -0.0226
  672MOL0     C90604   3.989   5.663   6.849 -0.4842 -0.4147  0.9652
  672MOL0     C90605   3.914   5.695   6.975 -0.8609 -1.4744  0.4148
  672MOL0     C90606   3.763   5.729   6.940 -0.3094  0.7640 -0.0077
  672MOL0     C90607   3.662   5.740   7.057  0.6340 -0.3388  0.2460
  672MOL0     C90608   3.695   5.643   7.178  0.7459  0.3551  0.6367
  672MOL0     O90609   3.684   5.519   7.120  0.1881  0.4739  0.2898
  672MOL0     C90610   3.717   5.399   7.188 -0.2714  1.0790 -0.5475
  672MOL0     C90611   3.750   5.396   7.324 -0.5737 -0.0633  0.1550
  672MOL0     C90612   3.806   5.285   7.387  0.5510  0.2614 -0.8070
  672MOL0     C90613   3.848   5.289   7.531  0.1655  0.5790  0.0589
  672MOL0     C90614   3.820   5.165   7.313 -0.6670  0.0222  0.7746
  672MOL0     C90615   3.888   5.043   7.370  0.2522 -0.2111 -0.1168
  672MOL0     O90616   3.827   4.927   7.312  0.5514  0.2616  0.0678
  672MOL0     C90617   3.891   4.806   7.333 -0.2592 -0.2046 -0.4586
  672MOL0     C90618   3.930   4.752   7.461  0.4237 -0.2325  0.2383
  672MOL0     C90619   3.977   4.624   7.466 -0.3857 -0.9006 -0.4136
  672MOL0     C90620   4.000   4.548   7.353  0.1097  0.1298  0.8261
  672MOL0     O90621   4.053   4.421   7.349 -0.7670 -0.2462  0.0437
  672MOL0     C90622   4.087   4.353   7.474 -0.4920 -0.9777  0.9107
  672MOL0     C90623   4.119   4.212   7.436  0.0962  0.4309 -0.3342
  672MOL0     C90624   4.171   4.113   7.538  0.2189  0.4130  0.7620
  672MOL0     C90625   4.202   3.971   7.471 -0.5222 -0.5775  0.6267
  672MOL0     C90626   4.238   3.879   7.581 -0.9575  0.4350 -0.2242
  672MOL0     C90627   4.226   3.734   7.539 -1.5009  0.5258 -0.2072
  672MOL0     C90628   4.087   3.684   7.546  0.3715 -0.0157 -0.3422
  672MOL0     C90629   4.083   3.531   7.551  0.6556 -0.0770  0.1644
  672MOL0    Cl90630   3.907   3.481   7.524 -0.4283 -0.4062  0.2203
  672MOL0     C90631   3.978   4.609   7.227  0.4286  0.0698  0.4611
  672MOL0     C90632   3.930   4.736   7.222 -0.2872  0.3717  0.3035
  672MOL0     O90633   3.998   5.053   7.420  0.0647 -0.1700  0.1012
  672MOL0     C90634   3.773   5.162   7.179 -0.4771 -0.8543 -0.0516
  672MOL0     C90635   3.728   5.281   7.115 -0.1719  0.6343 -0.5245
  672MOL0     N90636   3.961   5.721   6.724 -0.2969  1.3273  0.4180
  672MOL0     N90637   4.061   5.695   6.637  0.6372  0.1794  0.0849
  672MOL0     C90638   4.585   5.677   6.987  0.0177 -0.0465 -0.0982
  672MOL0     C90639   4.480   5.761   6.952 -0.3056  0.5128 -0.8210
  672MOL0     C90640   4.206   6.071   6.958 -0.4029 -0.0005 -0.1211
  672MOL0     C90641   4.105   6.036   6.871  0.7711  0.1169 -0.2965
  672MOL0     C90642   4.019   6.132   6.815  0.7483 -0.1311 -0.3141
  672MOL0     C90643   4.037   6.264   6.838 -0.1204 -0.2151  0.1518
  672MOL0     O90644   3.955   6.346   6.762 -0.1417 -0.1177 -0.2829
  672MOL0     C90645   3.961   6.484   6.773  0.8160 -1.0203  0.0446
  672MOL0     C90646   3.884   6.556   6.662 -0.5728  0.3588 -0.7876
  672MOL0     C90647   3.932   6.548   6.515 -0.2497 -0.0456  0.5729
  672MOL0     C90648   3.857   6.453   6.423  0.6192  0.4128  0.5475
  672MOL0     C90649   3.723   6.517   6.372  0.0446  0.0642 -0.3657
  672MOL0     C90650   3.618   6.563   6.346  0.1974 -0.3009  0.9544
  672MOL0     C90651   4.144   6.300   6.929 -0.2221  0.2988 -0.2061
  672MOL0     C90652   4.231   6.202   6.985  0.3038 -0.1246 -0.5497
  672MOL0     H90653   4.269   5.707   7.198  1.9784  0.0745  1.9293
  672MOL0     H90654   4.440   5.531   7.262  1.5530  0.9582  0.9554
  672MOL0     H90655   4.655   5.324   7.210 -1.0484  0.0490  0.1210
  672MOL0     H90656   4.528   5.349   7.092  0.6264 -2.2695 -0.5965
  672MOL0     H90657   4.819   5.322   7.009 -0.0984 -0.0789 -2.4585
  672MOL0     H90658   4.704   5.175   7.004 -0.1771  0.2309 -0.1163
  672MOL0     H90659   4.701   5.433   6.858  1.2540 -0.5878 -1.8769
  672MOL0     H90660   4.785   5.301   6.797  1.1269  1.0888  0.0107
  672MOL0     H90661   4.581   5.160   6.789  1.9866  0.0366 -0.4682
  672MOL0     H90662   4.481   5.295   6.838 -0.2228 -0.2025 -0.1525
  672MOL0     H90663   4.658   5.317   6.594  0.4299 -0.3882  2.2748
  672MOL0     H90664   4.486   5.252   6.585  0.3893 -1.7603  0.1542
  672MOL0     H90665   4.566   5.536   6.672 -0.8730  0.8685  0.0669
  672MOL0     H90666   4.466   5.488   6.536 -2.7694  4.0985  1.2674
  672MOL0     H90667   4.308   5.379   6.718  0.5430 -0.7416  1.6130
  672MOL0     H90668   4.390   5.490   6.818  1.1218  1.2726 -0.9779
  672MOL0     H90669   4.271   5.579   6.543 -0.0254  0.8445 -0.0617
  672MOL0     H90670   4.347   5.683   6.667  0.1403 -0.3352  2.2050
  672MOL0     H90671   4.171   5.544   6.906  0.1102 -0.7192  0.0972
  672MOL0     H90672   3.918   5.610   7.044 -0.4906 -3.2541 -1.6544
  672MOL0     H90673   3.972   5.778   7.016 -2.0762 -0.2973 -0.1657
  672MOL0     H90674   3.719   5.657   6.870  3.3667  0.6602 -2.5517
  672MOL0     H90675   3.744   5.820   6.884 -1.0941  1.2514  1.0252
  672MOL0     H90676   3.556   5.745   7.028  0.4431  4.6255  0.8296
  672MOL0     H90677   3.665   5.836   7.111  0.2592 -0.0680 -0.2036
  672MOL0     H90678   3.616   5.647   7.254  0.3837 -0.4912  0.3216
  672MOL0     H90679   3.797   5.648   7.216  1.7172 -1.9158 -1.4078
  672MOL0     H90680   3.727   5.482   7.386 -0.0733 -0.0925  0.3901
  672MOL0     H90681   3.812   5.198   7.581 -0.2515 -0.0840 -1.3903
  672MOL0     H90682   3.956   5.302   7.535  0.5112 -1.4409 -1.2076
  672MOL0     H90683   3.796   5.370   7.583 -0.0571  1.1293 -0.9940
  672MOL0     H90684   3.893   4.803   7.549  2.5495 -1.8187  2.1552
  672MOL0     H90685   3.996   4.585   7.566 -1.2678  1.5909  0.8301
  672MOL0     H90686   4.182   4.389   7.515  0.5920 -2.6177 -0.0798
  672MOL0     H90687   4.012   4.351   7.554 -1.4778 -3.1601  0.0337
  672MOL0     H90688   4.028   4.159   7.405  0.9125 -0.5536 -1.1031
  672MOL0     H90689   4.184   4.219   7.349 -0.7589  2.0314 -0.8827
  672MOL0     H90690   4.098   4.095   7.617 -1.4243  6.2227  1.0173
  672MOL0     H90691   4.264   4.151   7.582  0.9333 -0.2777 -0.0983
  672MOL0     H90692   4.115   3.933   7.417  1.4648 -0.5134 -2.9257
  672MOL0     H90693   4.286   3.972   7.401 -0.9448 -1.8765  0.0623
  672MOL0     H90694   4.180   3.881   7.674  1.7302  0.3242  1.5957
  672MOL0     H90695   4.339   3.904   7.616  0.2271 -2.6981 -1.0355
  672MOL0     H90696   4.266   3.720   7.438 -0.5585 -0.9945  0.3425
  672MOL0     H90697   4.282   3.661   7.599  1.1151  0.5805 -2.4026
  672MOL0     H90698   4.044   3.724   7.454  1.2699  1.2027 -0.2544
  672MOL0     H90699   4.031   3.714   7.635  0.6953 -0.4181 -0.0024
  672MOL0     H90700   4.115   3.490   7.647  0.2306  0.1737  0.4159
  672MOL0     H90701   4.144   3.497   7.467 -2.2714 -3.9108 -0.6439
  672MOL0     H90702   3.995   4.561   7.131  0.8719  3.0770 -1.0780
  672MOL0     H90703   3.919   4.772   7.120 -2.1464  0.0391  0.3561
  672MOL0     H90704   3.774   5.074   7.114 -0.8727 -1.0995  0.2741
  672MOL0     H90705   3.708   5.290   7.008 -0.9849 -1.3242 -0.5851
  672MOL0     H90706   4.678   5.681   6.931 -0.3704  4.2175 -0.7499
  672MOL0     H90707   4.477   5.827   6.866 -0.4438  1.7241  0.0852
  672MOL0     H90708   4.077   5.933   6.851  0.0354 -0.1033  1.6505
  672MOL0     H90709   3.937   6.117   6.746  1.5505 -1.9109 -0.9209
  672MOL0     H90710   3.915   6.519   6.866  0.7523  2.8451 -1.2441
  672MOL0     H90711   4.067   6.512   6.780  0.4642 -0.1139  4.2521
  672MOL0     H90712   3.866   6.663   6.668 -1.1786  0.4077 -2.6359
  672MOL0     H90713   3.778   6.528   6.658 -1.4716  3.1700  0.5952
  672MOL0     H90714   4.037   6.518   6.519 -0.4719 -0.7535  1.6071
  672MOL0     H90715   3.912   6.644   6.467 -1.3240 -1.8344 -2.8727
  672MOL0     H90716   3.837   6.363   6.482 -1.9939  2.0310  2.4171
  672MOL0     H90717   3.921   6.428   6.339 -1.0129  0.4008 -0.7475
  672MOL0     H90718   3.523   6.604   6.316  0.8491  0.5259 -0.0740
  672MOL0     H90719   4.160   6.407   6.936  2.6955  0.1894 -3.0157
  672MOL0     H90720   4.316   6.248   7.034  0.2603  2.5367 -2.7071
  673MOL0     O90721   7.109   9.314   9.312  0.3988  0.2835 -0.2415
  673MOL0     C90722   7.216   9.275   9.276 -0.0525  0.9062 -0.4380
  673MOL0     O90723   7.330   9.344   9.274 -0.1061 -0.1876  0.9083
  673MOL0     C90724   7.322   9.483   9.288 -0.1251  0.1730 -0.3827
  673MOL0     C90725   7.326   9.541   9.423  0.4424 -0.3667 -0.0864
  673MOL0     C90726   7.332   9.677   9.420 -1.2178 -0.3740  0.3059
  673MOL0     C90727   7.349   9.742   9.299  0.0095 -1.3944 -1.1354
  673MOL0     O90728   7.351   9.884   9.291  0.3632 -0.2794  0.0465
  673MOL0     C90729   7.249   9.942   9.368 -0.3271 -0.9459  0.9522
  673MOL0     C90730   7.231  10.099   9.366  0.1282  0.0837  0.4223
  673MOL0     C90731   7.120  10.147   9.457  0.6062 -0.0054 -0.1859
  673MOL0     C90732   7.116  10.296   9.468  0.3543  0.4141  0.0695
  673MOL0     C90733   7.026  10.350   9.582 -0.1087  0.1248 -0.0673
  673MOL0     C90734   6.889  10.297   9.569  0.2114 -0.0389 -0.2692
  673MOL0     C90735   6.803  10.334   9.445 -0.4341 -0.4279  0.1354
  673MOL0     C90736   6.793  10.493   9.432  0.0832  0.8088 -0.0878
  673MOL0     N90737   6.697  10.508   9.324 -0.1062  0.1632  0.5931
  673MOL0     C90738   6.724  10.530   9.189  0.3587  1.2273  0.5961
  673MOL0     C90739   6.602  10.551   9.132 -0.5785 -0.0687  0.2432
  673MOL0     C90740   6.573  10.580   8.988  0.6943  0.2712 -0.4444
  673MOL0     C90741   6.669  10.504   8.902  0.4904 -0.0410 -0.3051
  673MOL0     C90742   6.595  10.484   8.765 -0.4612 -0.0374 -0.6237
  673MOL0     C90743   6.690  10.412   8.658 -0.5807 -0.0426 -0.2376
  673MOL0     O90744   6.819  10.469   8.653 -0.5273 -0.5317  0.4603
  673MOL0     C90745   6.901  10.430   8.551  0.4962 -0.3832  0.3097
  673MOL0     C90746   7.008  10.512   8.521 -0.3193 -0.6049  0.8907
  673MOL0     C90747   7.103  10.483   8.423 -0.4297  1.1726 -0.7470
  673MOL0     C90748   7.213  10.584   8.397  0.7129 -0.1237  0.0454
  673MOL0     C90749   7.100  10.360   8.361  0.2888  0.8775 -0.9678
  673MOL0     C90750   7.198  10.305   8.262  0.3274  0.2788 -0.8054
  673MOL0     O90751   7.145  10.227   8.174 -0.3373  0.0138  0.0041
  673MOL0     C90752   7.215  10.182   8.067 -1.1359  0.0354  0.6520
  673MOL0     C90753   7.249  10.268   7.957  0.4664 -0.3225 -1.2833
  673MOL0     C90754   7.331  10.231   7.860 -0.3060  0.8147  0.1439
  673MOL0     C90755   7.379  10.103   7.855 -0.5443 -0.5979  0.1943
  673MOL0     O90756   7.463  10.060   7.760 -0.2453 -0.0942 -0.3991
  673MOL0     C90757   7.460   9.927   7.709  0.3286  0.0590  0.7247
  673MOL0     C90758   7.549   9.925   7.594 -0.0597 -0.3851  0.5720
  673MOL0     C90759   7.481   9.993   7.475  0.4212  0.3517  0.3105
  673MOL0     C90760   7.564   9.971   7.352 -0.4116  0.6990 -0.0999
  673MOL0     C90761   7.513  10.039   7.225  0.1862  0.2126  0.4009
  673MOL0     C90762   7.613  10.048   7.117  0.0988 -0.5431  0.4640
  673MOL0     C90763   7.562  10.140   7.003  0.0234 -0.2660 -0.5283
  673MOL0     C90764   7.546  10.288   7.040 -0.9640  0.2436 -0.2027
  673MOL0    Cl90765   7.701  10.344   7.097 -0.6762 -0.0858  0.3468
  673MOL0     C90766   7.355  10.020   7.963 -0.2836  0.1387  0.2735
  673MOL0     C90767   7.270  10.054   8.069  0.5274  0.0476  0.6009
  673MOL0     O90768   7.312  10.340   8.274  0.3269  0.2585 -0.1615
  673MOL0     C90769   6.983  10.274   8.386  0.8360  0.6437  0.0110
  673MOL0     C90770   6.881  10.312   8.479  0.5685 -0.2530  0.3691
  673MOL0     N90771   6.504  10.560   9.233  0.5298  0.5106  1.3933
  673MOL0     N90772   6.560  10.529   9.342 -0.0845  0.2476 -0.5929
  673MOL0     C90773   7.343   9.689   9.171  0.3550  0.3374 -0.0376
  673MOL0     C90774   7.327   9.550   9.163 -0.2258  1.0451 -0.1684
  673MOL0     C90775   7.220   9.137   9.235  0.5224  1.0163  1.3581
  673MOL0     C90776   7.119   9.045   9.266 -0.2960 -0.1499 -0.4832
  673MOL0     C90777   7.140   8.903   9.237  0.2817 -1.1131  0.0787
  673MOL0     C90778   7.246   8.859   9.164 -0.3291 -0.0545  0.4389
  673MOL0     O90779   7.268   8.726   9.132  0.0679 -0.6347 -0.2063
  673MOL0     C90780   7.291   8.715   8.991 -0.6466  0.1418  0.1686
  673MOL0     C90781   7.239   8.569   8.951 -0.1297 -0.3083  0.7883
  673MOL0     C90782   7.086   8.553   8.972 -0.5902  0.2940  0.4728
  673MOL0     C90783   7.024   8.450   8.871 -0.2840  0.4398  0.4087
  673MOL0     C90784   6.889   8.425   8.909  1.0044  0.1348 -0.0801
  673MOL0     C90785   6.778   8.389   8.951 -0.0010 -0.7340  1.1428
  673MOL0     C90786   7.342   8.957   9.140  0.5607  0.5544  0.0367
  673MOL0     C90787   7.333   9.086   9.176 -0.0706  0.1317  0.7605
  673MOL0     H90788   7.323   9.487   9.516  0.5770  0.3724  0.3547
  673MOL0     H90789   7.321   9.728   9.515  1.0373  2.9408 -1.0073
  673MOL0     H90790   7.162   9.885   9.334  0.1372 -0.5030 -1.0773
  673MOL0     H90791   7.271   9.930   9.475  1.0391  1.5369  1.0096
  673MOL0     H90792   7.326  10.137   9.405  2.3449 -1.4999 -2.9733
  673MOL0     H90793   7.214  10.139   9.265  0.4368  0.2185  0.4249
  673MOL0     H90794   7.031  10.098   9.418  2.3617 -3.1313 -0.5948
  673MOL0     H90795   7.148  10.109   9.556  0.2023 -1.2583 -0.5395
  673MOL0     H90796   7.213  10.337   9.497 -0.7028  1.0911  2.8845
  673MOL0     H90797   7.104  10.343   9.370 -0.5503 -0.7696 -0.4164
  673MOL0     H90798   7.065  10.320   9.680 -0.7280  2.3030  0.9098
  673MOL0     H90799   7.034  10.459   9.584 -1.6564  0.2596  1.5042
  673MOL0     H90800   6.899  10.188   9.580  3.5002  0.2635  0.8851
  673MOL0     H90801   6.826  10.337   9.650 -1.0565  0.7722 -1.5989
  673MOL0     H90802   6.858  10.285   9.364  0.2675 -0.6206  0.7220
  673MOL0     H90803   6.708  10.282   9.459  0.4143 -1.7584  1.0760
  673MOL0     H90804   6.882  10.554   9.412  0.2541  1.1232  1.5074
  673MOL0     H90805   6.751  10.540   9.522  2.4743  4.5069 -0.6846
  673MOL0     H90806   6.817  10.525   9.134 -0.1577 -1.1198 -0.2027
  673MOL0     H90807   6.469  10.550   8.972  0.1943 -0.4735  3.2899
  673MOL0     H90808   6.574  10.689   8.973 -0.9926  0.8439  2.6622
  673MOL0     H90809   6.683  10.399   8.928 -5.2776 -0.9091  0.7358
  673MOL0     H90810   6.764  10.557   8.890  0.9076 -0.7810 -0.3182
  673MOL0     H90811   6.560  10.581   8.729 -0.2101  1.6695  3.1892
  673MOL0     H90812   6.509  10.418   8.773  0.2203 -0.9056 -0.3818
  673MOL0     H90813   6.626  10.418   8.570 -0.2719  0.3257 -0.4394
  673MOL0     H90814   6.696  10.307   8.690 -0.5146 -0.0545 -0.2865
  673MOL0     H90815   7.031  10.600   8.580 -1.1879  3.1951 -3.8128
  673MOL0     H90816   7.309  10.551   8.438  0.4959 -0.6700  0.1187
  673MOL0     H90817   7.224  10.591   8.288  1.1712  0.1813  0.1082
  673MOL0     H90818   7.187  10.678   8.448 -1.3572 -0.0513 -1.0455
  673MOL0     H90819   7.206  10.368   7.952  0.1188 -0.3740  0.2674
  673MOL0     H90820   7.357  10.313   7.794 -2.1550  0.3233 -1.2780
  673MOL0     H90821   7.501   9.846   7.770 -0.6608 -2.6696 -1.9949
  673MOL0     H90822   7.357   9.907   7.677  0.4436  0.6682 -0.0410
  673MOL0     H90823   7.642   9.976   7.622  0.2027 -0.9813  0.7934
  673MOL0     H90824   7.576   9.824   7.561 -1.4421 -0.6192  0.0913
  673MOL0     H90825   7.466  10.099   7.496  1.3730  0.6186 -0.2849
  673MOL0     H90826   7.383   9.949   7.456  0.0920  0.5750  1.4144
  673MOL0     H90827   7.665  10.005   7.377 -0.6544  1.2429  0.1453
  673MOL0     H90828   7.567   9.862   7.337 -1.3437  0.4304  1.4130
  673MOL0     H90829   7.497  10.140   7.265 -1.6720  0.6780 -1.3432
  673MOL0     H90830   7.418  10.004   7.185  1.3394 -1.5333 -0.9376
  673MOL0     H90831   7.708  10.085   7.157 -0.5834 -1.3942  3.0593
  673MOL0     H90832   7.638   9.946   7.087 -1.6742 -0.7900 -0.2827
  673MOL0     H90833   7.466  10.094   6.976 -1.1661  1.1475  1.0658
  673MOL0     H90834   7.614  10.129   6.908 -1.2343 -1.2990 -1.1350
  673MOL0     H90835   7.464  10.299   7.112  0.6625 -1.4241  2.0483
  673MOL0     H90836   7.517  10.352   6.957  0.3297  0.1227 -0.7818
  673MOL0     H90837   7.401   9.921   7.957 -1.3413 -0.3174 -0.5418
  673MOL0     H90838   7.260   9.987   8.154 -1.5587 -0.7553 -0.2058
  673MOL0     H90839   6.982  10.177   8.337  0.2987  2.1067 -3.1605
  673MOL0     H90840   6.801  10.242   8.501 -1.1530  1.3014 -0.7217
  673MOL0     H90841   7.367   9.738   9.077 -1.5164  1.4650  0.0215
  673MOL0     H90842   7.337   9.500   9.067 -0.9810  2.5380 -1.0648
  673MOL0     H90843   7.027   9.076   9.315 -0.7081 -1.3639 -0.4653
  673MOL0     H90844   7.067   8.831   9.272  1.1011 -2.6140 -1.1648
  673MOL0     H90845   7.241   8.791   8.930 -3.0460 -0.0644  1.7762
  673MOL0     H90846   7.398   8.726   8.972 -0.3770 -0.2736  1.3890
  673MOL0     H90847   7.303   8.498   9.003 -1.2057  0.4419  3.2823
  673MOL0     H90848   7.271   8.550   8.848  0.9427 -0.6278  1.1651
  673MOL0     H90849   7.037   8.649   8.952 -0.3446  0.0233 -1.7201
  673MOL0     H90850   7.070   8.520   9.075  2.5841  1.1636  1.3719
  673MOL0     H90851   7.075   8.355   8.858 -3.7217 -1.2278 -2.1892
  673MOL0     H90852   7.037   8.485   8.768 -0.5022 -2.7684 -0.7993
  673MOL0     H90853   6.682   8.361   8.988 -1.7153  2.4930 -0.4769
  673MOL0     H90854   7.434   8.934   9.088  2.8604  1.1352  3.5276
  673MOL0     H90855   7.413   9.154   9.152  2.0867 -3.0682 -2.0937
  674MOL0     O90856   4.520   0.985   1.137 -0.3086 -0.8507  0.7749
  674MOL0     C90857   4.613   1.068   1.114 -0.1606 -0.6884  0.5242
  674MOL0     O90858   4.704   1.056   1.006  0.2639 -0.7161  0.6692
  674MOL0     C90859   4.700   0.937   0.939 -0.1058  0.4038  0.5474
  674MOL0     C90860   4.741   0.811   0.995  0.1394  0.6787  0.2469
  674MOL0     C90861   4.743   0.691   0.908  0.0973 -1.2075 -0.8639
  674MOL0     C90862   4.707   0.702   0.772  0.8801  0.6640  0.2205
  674MOL0     O90863   4.695   0.582   0.700  0.4022  0.4671  0.3244
  674MOL0     C90864   4.691   0.585   0.559  0.0819 -0.0174  0.9628
  674MOL0     C90865   4.805   0.653   0.489  0.0431  0.1114 -0.0922
  674MOL0     C90866   4.749   0.729   0.359  0.0477  0.6659  0.4280
  674MOL0     C90867   4.841   0.724   0.237  0.0153  1.0150 -0.4158
  674MOL0     C90868   4.779   0.801   0.109  0.0081 -0.8168 -0.1160
  674MOL0     C90869   4.887   0.802  -0.018  0.5895  0.2529 -0.5675
  674MOL0     C90870   4.928   0.673  -0.080  0.0624 -0.3982  0.2753
  674MOL0     C90871   4.809   0.593  -0.133  0.3183 -0.5792  0.0145
  674MOL0     N90872   4.743   0.666  -0.239  0.7563 -0.2080  0.1016
  674MOL0     C90873   4.769   0.636  -0.373  0.5025 -0.7268 -1.7741
  674MOL0     C90874   4.696   0.726  -0.443  1.0536 -0.5521  0.6170
  674MOL0     C90875   4.695   0.729  -0.601 -0.7658  0.1648 -0.1760
  674MOL0     C90876   4.560   0.667  -0.642  0.1567  0.0792  0.4970
  674MOL0     C90877   4.527   0.648  -0.792 -1.6160 -0.2994 -1.1250
  674MOL0     C90878   4.649   0.589  -0.867 -0.7079 -0.3183  0.2728
  674MOL0     O90879   4.707   0.477  -0.803  1.3661 -0.9740  0.3101
  674MOL0     C90880   4.840   0.454  -0.822  0.1046 -0.4815 -0.4712
  674MOL0     C90881   4.914   0.391  -0.719 -0.4988  0.8152  0.9295
  674MOL0     C90882   5.056   0.351  -0.731 -0.1101  0.5982 -0.7167
  674MOL0     C90883   5.126   0.298  -0.608 -0.5000 -0.5942 -0.2035
  674MOL0     C90884   5.119   0.368  -0.859 -0.5887 -0.0327  0.4455
  674MOL0     C90885   5.254   0.324  -0.903 -0.4277  0.6829  0.4658
  674MOL0     O90886   5.322   0.387  -0.998 -0.5106  1.0738  1.1247
  674MOL0     C90887   5.394   0.317  -1.101  0.2179 -0.3545 -0.1297
  674MOL0     C90888   5.513   0.238  -1.080  1.5287  0.3056 -0.2728
  674MOL0     C90889   5.557   0.147  -1.176 -1.1688  0.1119 -0.8651
  674MOL0     C90890   5.521   0.158  -1.308 -0.0610 -0.0089  0.1917
  674MOL0     O90891   5.565   0.096  -1.425  0.0048  0.0765  0.2971
  674MOL0     C90892   5.682   0.018  -1.415 -0.4377  0.0804 -0.5282
  674MOL0     C90893   5.692  -0.067  -1.543  0.2227 -0.0111  0.1771
  674MOL0     C90894   5.832  -0.078  -1.608  1.1265  0.5570  0.0187
  674MOL0     C90895   5.797  -0.155  -1.746  0.3520 -0.4021  0.0535
  674MOL0     C90896   5.930  -0.182  -1.823 -0.2083 -0.1751  0.6471
  674MOL0     C90897   5.917  -0.219  -1.969 -0.5975  0.4048 -0.4397
  674MOL0     C90898   6.046  -0.234  -2.053 -0.2458 -1.1633  0.6676
  674MOL0     C90899   6.145  -0.122  -2.048  0.0540  0.5642 -0.3658
  674MOL0    Cl90900   6.293  -0.176  -2.124  0.1269 -0.4961 -0.3485
  674MOL0     C90901   5.410   0.238  -1.335  0.8451 -0.4839 -0.2628
  674MOL0     C90902   5.346   0.313  -1.233  0.1809  0.0088 -2.0996
  674MOL0     O90903   5.288   0.216  -0.861  0.0165  0.4099 -0.1097
  674MOL0     C90904   5.038   0.419  -0.955 -0.3341 -0.4202  0.4716
  674MOL0     C90905   4.906   0.464  -0.936 -0.6583 -0.1950 -0.1929
  674MOL0     N90906   4.629   0.807  -0.354  0.5241  0.2073  0.1706
  674MOL0     N90907   4.662   0.777  -0.236 -0.7858 -0.9276  0.2445
  674MOL0     C90908   4.668   0.827   0.727 -0.3245 -0.2380  1.4945
  674MOL0     C90909   4.663   0.944   0.798  0.1110 -0.0072 -0.0506
  674MOL0     C90910   4.632   1.176   1.217 -0.4254 -0.0394 -0.4470
  674MOL0     C90911   4.745   1.267   1.194  0.8147 -0.2341  0.1702
  674MOL0     C90912   4.766   1.372   1.288  0.1840 -0.3424  0.5507
  674MOL0     C90913   4.680   1.392   1.404  0.3338 -0.5734 -0.3828
  674MOL0     O90914   4.708   1.484   1.505 -0.1829 -0.6375  0.4799
  674MOL0     C90915   4.847   1.515   1.524  0.1618 -0.5039 -0.1543
  674MOL0     C90916   4.872   1.497   1.676 -0.3384  0.4579 -0.3646
  674MOL0     C90917   4.838   1.354   1.722 -0.9544 -0.6181  0.2511
  674MOL0     C90918   4.944   1.280   1.793 -0.0833 -0.5206 -0.5294
  674MOL0     C90919   5.070   1.267   1.716  0.3219 -1.4466  0.8184
  674MOL0     C90920   5.172   1.277   1.646 -0.5388  0.1419  0.7192
  674MOL0     C90921   4.580   1.298   1.420 -0.4202 -0.0744 -0.3470
  674MOL0     C90922   4.550   1.197   1.333 -0.6858 -0.0931 -0.3462
  674MOL0     H90923   4.769   0.814   1.100 -3.0099 -1.4267  1.2951
  674MOL0     H90924   4.776   0.593   0.938 -1.6724 -1.8615 -0.9230
  674MOL0     H90925   4.695   0.484   0.518  0.8812 -1.0034  3.3348
  674MOL0     H90926   4.597   0.635   0.534  0.3418 -0.2280 -0.5873
  674MOL0     H90927   4.870   0.711   0.555 -0.0596 -2.3404  2.3397
  674MOL0     H90928   4.881   0.579   0.461 -0.5403 -0.9324  0.9899
  674MOL0     H90929   4.656   0.681   0.325  1.6965 -0.4462 -3.0358
  674MOL0     H90930   4.729   0.835   0.379  4.8006  1.5579  1.5453
  674MOL0     H90931   4.929   0.785   0.261 -0.1280  1.2521 -0.4901
  674MOL0     H90932   4.868   0.622   0.207  0.7807  1.0019  0.2440
  674MOL0     H90933   4.678   0.772   0.079 -0.5030  2.4134 -2.0264
  674MOL0     H90934   4.757   0.903   0.142  0.1389 -1.4710  2.1207
  674MOL0     H90935   4.838   0.861  -0.096 -2.3835 -0.8957  0.3117
  674MOL0     H90936   4.976   0.855   0.018  0.3927 -1.1562  2.3011
  674MOL0     H90937   4.998   0.696  -0.161  2.0894 -0.4899  1.9099
  674MOL0     H90938   4.976   0.606  -0.008  1.2736 -0.5204 -0.6183
  674MOL0     H90939   4.745   0.574  -0.047 -0.1956 -1.1453 -0.4779
  674MOL0     H90940   4.850   0.500  -0.174  1.9477 -0.0681  0.4228
  674MOL0     H90941   4.850   0.574  -0.411  3.4596  1.3590  0.5933
  674MOL0     H90942   4.687   0.836  -0.623 -2.6842  0.0849 -0.0459
  674MOL0     H90943   4.790   0.690  -0.637  1.4007  0.4428  4.4182
  674MOL0     H90944   4.480   0.732  -0.607  0.0251  0.1399  0.0860
  674MOL0     H90945   4.544   0.568  -0.597  0.2794  1.0472  2.8257
  674MOL0     H90946   4.507   0.741  -0.846 -1.5581  1.0604  1.0555
  674MOL0     H90947   4.440   0.584  -0.810 -2.2542  0.5785 -1.2682
  674MOL0     H90948   4.721   0.671  -0.868  1.7871 -2.3637 -0.6836
  674MOL0     H90949   4.633   0.569  -0.974  1.2613  3.4430 -0.8940
  674MOL0     H90950   4.850   0.392  -0.631 -0.6462 -0.2903  0.8421
  674MOL0     H90951   5.215   0.356  -0.582 -0.1095 -1.5569  0.6779
  674MOL0     H90952   5.055   0.277  -0.527 -0.0292 -3.2933 -0.4062
  674MOL0     H90953   5.176   0.203  -0.628 -2.2445 -1.3000 -1.4184
  674MOL0     H90954   5.552   0.220  -0.980 -2.2302 -1.3313  1.1038
  674MOL0     H90955   5.626   0.069  -1.146 -2.0766 -1.2475 -2.1728
  674MOL0     H90956   5.768   0.084  -1.400  0.0045 -0.7277  0.6613
  674MOL0     H90957   5.667  -0.045  -1.327 -3.6833 -0.6401 -1.4623
  674MOL0     H90958   5.648  -0.166  -1.527  0.7916  0.0100  2.1561
  674MOL0     H90959   5.619  -0.032  -1.617 -0.7064  1.6519  1.8013
  674MOL0     H90960   5.899  -0.138  -1.547  1.0631  2.4482  2.0824
  674MOL0     H90961   5.882   0.015  -1.635  2.0150  0.3526  0.9349
  674MOL0     H90962   5.768  -0.260  -1.728  1.8368 -0.9536 -0.6468
  674MOL0     H90963   5.726  -0.109  -1.816 -0.9484 -1.2092  0.7973
  674MOL0     H90964   5.982  -0.255  -1.760  1.3591  0.7178  0.4269
  674MOL0     H90965   6.000  -0.098  -1.814 -0.8687  0.2152  3.1447
  674MOL0     H90966   5.881  -0.321  -1.982 -1.8558  1.0251 -2.3694
  674MOL0     H90967   5.842  -0.159  -2.022  0.9999  1.1744 -1.9734
  674MOL0     H90968   6.025  -0.251  -2.159  0.4765 -1.1975  0.5241
  674MOL0     H90969   6.095  -0.328  -2.026 -1.5718 -1.4628  2.2503
  674MOL0     H90970   6.161  -0.110  -1.940 -0.7978 -0.4596 -0.1098
  674MOL0     H90971   6.098  -0.043  -2.107 -1.8111 -0.6540 -0.5947
  674MOL0     H90972   5.374   0.251  -1.436  0.3553 -0.7015 -0.1211
  674MOL0     H90973   5.256   0.365  -1.264 -0.8177 -1.0704 -1.1165
  674MOL0     H90974   5.090   0.464  -1.039 -3.7341  0.4175 -1.3861
  674MOL0     H90975   4.860   0.532  -1.007  1.0683 -0.0499 -1.2429
  674MOL0     H90976   4.642   0.839   0.622  1.0747  0.2431  1.1744
  674MOL0     H90977   4.635   1.041   0.760 -1.1745 -0.6165 -0.7191
  674MOL0     H90978   4.796   1.251   1.100 -2.2529 -0.6446 -1.5696
  674MOL0     H90979   4.852   1.436   1.272  0.0539 -0.3350 -0.1710
  674MOL0     H90980   4.916   1.447   1.473  0.8497  1.5775 -2.1520
  674MOL0     H90981   4.883   1.611   1.486 -1.6622 -0.8496 -3.0335
  674MOL0     H90982   4.800   1.563   1.724 -1.2427 -2.4019  2.6047
  674MOL0     H90983   4.974   1.520   1.708 -0.2857 -3.9493  3.9594
  674MOL0     H90984   4.817   1.291   1.635 -0.5996 -0.7762  0.2751
  674MOL0     H90985   4.746   1.362   1.780 -2.1903 -2.8729 -1.2443
  674MOL0     H90986   4.909   1.184   1.832  0.8149 -0.1337  1.3617
  674MOL0     H90987   4.970   1.341   1.880  2.8571 -2.8136  0.4099
  674MOL0     H90988   5.260   1.286   1.585 -0.7928 -1.3188  0.0844
  674MOL0     H90989   4.529   1.329   1.512 -2.9328  1.6321 -2.1665
  674MOL0     H90990   4.459   1.140   1.350 -0.4705  0.1691  2.1700
  675MOL0     O90991   7.892   4.910   3.198  0.7116  0.7062 -0.0628
  675MOL0     C90992   7.970   4.846   3.126 -0.2931 -0.5842  0.1337
  675MOL0     O90993   8.033   4.891   3.013 -0.0636  0.0484  0.3382
  675MOL0     C90994   7.969   4.969   2.919 -0.8247  0.2282 -0.3011
  675MOL0     C90995   8.042   5.052   2.821 -0.3181  0.4141 -0.5331
  675MOL0     C90996   7.987   5.133   2.725  0.1538  0.2794 -0.4101
  675MOL0     C90997   7.843   5.136   2.710  0.3617  0.4002 -0.7325
  675MOL0     O90998   7.770   5.196   2.610 -0.0480  0.5668  0.0987
  675MOL0     C90999   7.838   5.295   2.534  0.7685 -0.2955 -0.4494
  675MOL0     C91000   7.736   5.368   2.450 -0.6389 -0.3252 -0.3921
  675MOL0     C91001   7.811   5.459   2.355  1.1004 -0.3901  0.5737
  675MOL0     C91002   7.710   5.527   2.251 -0.0531 -0.3920  0.3724
  675MOL0     C91003   7.772   5.642   2.181 -0.3460  0.0811 -0.5828
  675MOL0     C91004   7.738   5.766   2.257 -0.0313  0.2143  0.4721
  675MOL0     C91005   7.798   5.895   2.195  0.5939 -0.2888  0.2702
  675MOL0     C91006   7.773   6.024   2.271  0.4187 -0.5454 -0.1204
  675MOL0     N91007   7.858   6.118   2.202  0.0941 -0.7862  0.2888
  675MOL0     C91008   7.992   6.128   2.226 -0.3594  0.3092 -0.9673
  675MOL0     C91009   8.046   6.195   2.130  0.9006 -0.5398  1.4880
  675MOL0     C91010   8.185   6.212   2.091  0.2289 -0.7861  0.0105
  675MOL0     C91011   8.219   6.361   2.099 -0.6704  0.9314  0.1890
  675MOL0     C91012   8.182   6.446   2.220 -0.2207  0.0949 -0.6975
  675MOL0     C91013   8.230   6.377   2.353  0.8788 -0.0174 -0.6955
  675MOL0     O91014   8.359   6.322   2.356  0.6683  0.2095  0.0327
  675MOL0     C91015   8.413   6.271   2.473  0.1877  1.1527 -0.0603
  675MOL0     C91016   8.551   6.223   2.467  0.5690 -0.3022 -0.2483
  675MOL0     C91017   8.609   6.179   2.581 -0.4365  0.7051  0.8061
  675MOL0     C91018   8.757   6.149   2.561 -0.8439 -0.2080  0.4149
  675MOL0     C91019   8.543   6.171   2.712  0.2162 -0.1151  0.0572
  675MOL0     C91020   8.600   6.119   2.851  0.2369 -0.4581  0.7480
  675MOL0     O91021   8.513   6.137   2.959 -0.1568 -0.7809  0.0756
  675MOL0     C91022   8.534   6.090   3.090 -0.2504 -0.5812 -0.0004
  675MOL0     C91023   8.656   6.036   3.144  0.1975 -0.2164  0.4028
  675MOL0     C91024   8.655   5.979   3.273  1.3839  0.3554 -0.6519
  675MOL0     C91025   8.529   5.966   3.343 -0.4769 -1.2029  0.2258
  675MOL0     O91026   8.508   5.878   3.449  0.0312  0.1184 -1.2695
  675MOL0     C91027   8.589   5.887   3.564 -0.2853 -0.1821  0.0500
  675MOL0     C91028   8.507   5.845   3.684  0.1328 -0.7459  0.1160
  675MOL0     C91029   8.571   5.874   3.817  0.6958  0.2553  0.1562
  675MOL0     C91030   8.707   5.801   3.833  0.0676 -0.1243  0.1139
  675MOL0     C91031   8.754   5.813   3.972 -0.3951  0.5271  0.6338
  675MOL0     C91032   8.904   5.812   3.986 -0.9549  0.3538  0.1345
  675MOL0     C91033   8.946   5.865   4.125  0.4000  0.0470 -0.0525
  675MOL0     C91034   9.094   5.887   4.145 -0.1284  0.0510  0.2634
  675MOL0    Cl91035   9.167   6.004   4.027  0.5256  0.2382 -0.3701
  675MOL0     C91036   8.412   6.021   3.283  0.3854  0.2460 -0.7707
  675MOL0     C91037   8.418   6.091   3.161  0.6535  0.1150  0.0231
  675MOL0     O91038   8.717   6.064   2.853  0.4550 -0.4475  0.2169
  675MOL0     C91039   8.410   6.225   2.712 -0.4045  0.4128  0.7347
  675MOL0     C91040   8.344   6.264   2.594 -0.2441 -0.0916  0.0767
  675MOL0     N91041   7.942   6.245   2.048  0.4826  0.0962 -0.4038
  675MOL0     N91042   7.829   6.201   2.091 -0.1708  0.3067  0.6189
  675MOL0     C91043   7.769   5.057   2.802  0.4597 -0.0173  0.1057
  675MOL0     C91044   7.825   4.977   2.907  0.9263 -0.4591  0.2735
  675MOL0     C91045   8.009   4.705   3.168  0.6872  0.1587 -0.0340
  675MOL0     C91046   7.957   4.647   3.286  0.3858 -0.5637 -0.4912
  675MOL0     C91047   7.973   4.514   3.313 -0.4414 -0.1773  0.6597
  675MOL0     C91048   8.053   4.427   3.231  0.4182 -0.1287 -0.4449
  675MOL0     O91049   8.069   4.295   3.248  0.0256  0.0138 -0.3861
  675MOL0     C91050   8.007   4.214   3.346 -0.2210 -0.0684  0.2657
  675MOL0     C91051   8.091   4.203   3.476 -0.2701 -0.3931  0.7935
  675MOL0     C91052   8.209   4.104   3.463 -0.3506  0.7197  0.3196
  675MOL0     C91053   8.313   4.124   3.344 -0.5419 -0.2053  0.3173
  675MOL0     C91054   8.425   4.034   3.385 -0.2658 -0.5895 -0.2235
  675MOL0     C91055   8.516   3.959   3.420  0.5848 -0.1199 -0.0421
  675MOL0     C91056   8.112   4.481   3.119 -0.0308  1.8115  0.1451
  675MOL0     C91057   8.093   4.616   3.093 -0.6819 -0.6071  0.3393
  675MOL0     H91058   8.149   5.055   2.835 -0.1102 -3.4891 -0.1443
  675MOL0     H91059   8.052   5.203   2.674  1.5513  1.5725  2.8459
  675MOL0     H91060   7.881   5.365   2.607 -3.1600 -0.6131  2.5144
  675MOL0     H91061   7.915   5.240   2.478  1.1857 -0.6781  0.4707
  675MOL0     H91062   7.698   5.281   2.396  0.6743 -2.0567  1.3412
  675MOL0     H91063   7.665   5.414   2.519 -1.5779 -0.8016 -1.0217
  675MOL0     H91064   7.871   5.536   2.405 -2.1583  2.2809  0.6616
  675MOL0     H91065   7.877   5.390   2.301 -2.1121 -3.1261 -0.1411
  675MOL0     H91066   7.688   5.455   2.172 -2.6582  0.7357 -0.0366
  675MOL0     H91067   7.608   5.546   2.286  0.1576 -2.0361  1.9808
  675MOL0     H91068   7.880   5.625   2.185 -0.4596 -0.4569  1.7782
  675MOL0     H91069   7.737   5.648   2.078  1.5665  2.5430 -1.1736
  675MOL0     H91070   7.629   5.772   2.260 -0.4660 -1.6259 -3.5152
  675MOL0     H91071   7.763   5.761   2.363 -1.0443 -1.4248  0.6813
  675MOL0     H91072   7.904   5.888   2.172  0.4222 -0.7195 -0.4133
  675MOL0     H91073   7.746   5.903   2.099 -0.0232 -0.6744  0.5639
  675MOL0     H91074   7.800   6.007   2.376  4.4565 -1.3692 -1.1098
  675MOL0     H91075   7.669   6.052   2.257 -0.0210 -3.0069 -2.7046
  675MOL0     H91076   8.055   6.079   2.300  1.9646 -0.8812 -3.5749
  675MOL0     H91077   8.250   6.151   2.154 -0.0044 -3.7002 -2.3874
  675MOL0     H91078   8.208   6.164   1.996  0.4826 -0.2455 -0.2042
  675MOL0     H91079   8.168   6.406   2.013  0.3248 -3.2337 -2.9212
  675MOL0     H91080   8.326   6.366   2.077 -0.7179 -0.8447 -0.5540
  675MOL0     H91081   8.075   6.469   2.217 -0.2033  1.5295  3.4385
  675MOL0     H91082   8.245   6.535   2.215 -0.0458 -0.0120 -0.3665
  675MOL0     H91083   8.162   6.295   2.373  1.8159 -1.3808 -2.7921
  675MOL0     H91084   8.219   6.442   2.441  1.3912 -2.7328  1.5021
  675MOL0     H91085   8.617   6.229   2.381  3.2090 -0.5113  1.6519
  675MOL0     H91086   8.813   6.200   2.483  1.9205 -2.1067  0.9881
  675MOL0     H91087   8.825   6.167   2.645  3.9870 -0.8916 -2.9354
  675MOL0     H91088   8.754   6.041   2.539  1.7501 -0.4808  1.1233
  675MOL0     H91089   8.752   6.040   3.093  0.3676  1.1457  0.7881
  675MOL0     H91090   8.743   5.926   3.308  1.0915  0.2280 -0.1177
  675MOL0     H91091   8.674   5.818   3.567  0.6080  0.9248  1.7581
  675MOL0     H91092   8.620   5.992   3.569 -0.0038 -0.1229 -1.9875
  675MOL0     H91093   8.412   5.899   3.683  0.0728 -0.5273  3.6570
  675MOL0     H91094   8.489   5.738   3.676  1.8950 -1.0708  0.1166
  675MOL0     H91095   8.510   5.851   3.906  0.0384  1.7145  0.1115
  675MOL0     H91096   8.587   5.982   3.817  1.0763  0.2439 -2.4811
  675MOL0     H91097   8.698   5.696   3.807  1.1346  0.2495 -1.9366
  675MOL0     H91098   8.780   5.849   3.767  1.6891  3.5964  4.0979
  675MOL0     H91099   8.714   5.727   4.026  0.2153  0.5381  1.1213
  675MOL0     H91100   8.708   5.902   4.018 -0.0462 -0.0491  2.1609
  675MOL0     H91101   8.942   5.711   3.970  0.2794  1.0772 -1.9233
  675MOL0     H91102   8.950   5.868   3.904 -0.1920  1.9209  1.5625
  675MOL0     H91103   8.921   5.790   4.200  1.3563  0.2976  0.5387
  675MOL0     H91104   8.893   5.956   4.153  0.1013 -0.9724  3.0573
  675MOL0     H91105   9.153   5.799   4.116  0.3201  0.0654  1.1130
  675MOL0     H91106   9.116   5.922   4.246  0.5835 -3.2006  1.3581
  675MOL0     H91107   8.327   6.030   3.350  1.8634  0.5668  1.1221
  675MOL0     H91108   8.333   6.150   3.127 -1.7626 -1.0714  3.4975
  675MOL0     H91109   8.348   6.221   2.801  0.8334  2.4590  1.7738
  675MOL0     H91110   8.238   6.285   2.590 -0.3525 -0.7395 -3.3373
  675MOL0     H91111   7.663   5.072   2.817  0.3553  1.1376 -1.5569
  675MOL0     H91112   7.761   4.921   2.975 -1.9274  1.0430 -0.9872
  675MOL0     H91113   7.889   4.702   3.350  0.6076 -1.0496  0.1754
  675MOL0     H91114   7.927   4.471   3.401  1.0698 -2.0550  0.5835
  675MOL0     H91115   7.916   4.266   3.376  1.8627  4.7411 -0.7471
  675MOL0     H91116   7.984   4.116   3.303  1.3155 -0.4852  0.3105
  675MOL0     H91117   8.022   4.160   3.549 -2.3361  1.9488  0.3575
  675MOL0     H91118   8.132   4.301   3.505 -1.8196  0.3645  0.5174
  675MOL0     H91119   8.158   4.011   3.437  0.3663  1.4401 -4.6761
  675MOL0     H91120   8.254   4.097   3.562  0.2832 -0.4038 -0.0276
  675MOL0     H91121   8.348   4.228   3.339  0.2951 -0.5335 -0.9326
  675MOL0     H91122   8.276   4.098   3.245  0.4676  1.0709 -0.4261
  675MOL0     H91123   8.586   3.896   3.471 -0.0490  0.7230  1.9537
  675MOL0     H91124   8.177   4.429   3.050 -0.5316 -2.6736  2.6876
  675MOL0     H91125   8.143   4.662   3.009 -1.2002  0.0752  0.4030
  676MOL0     O91126   5.072   3.011   4.508 -0.2652 -0.7670  0.5910
  676MOL0     C91127   5.176   3.063   4.553 -0.1236  0.2145 -0.6092
  676MOL0     O91128   5.198   3.198   4.572 -0.0994  0.0767  0.0948
  676MOL0     C91129   5.102   3.291   4.538 -0.4592  0.0081  0.2373
  676MOL0     C91130   5.087   3.342   4.405 -0.4925 -0.7946 -0.1954
  676MOL0     C91131   4.998   3.446   4.372 -0.1945  0.5006  0.7494
  676MOL0     C91132   4.920   3.498   4.473 -0.7896 -0.0167 -0.5697
  676MOL0     O91133   4.835   3.601   4.447  1.1325  0.3004 -0.3447
  676MOL0     C91134   4.731   3.571   4.353 -0.5518 -0.1191  0.3192
  676MOL0     C91135   4.604   3.647   4.378 -0.0839  0.5456  0.1624
  676MOL0     C91136   4.558   3.621   4.526  0.1227  0.4264 -0.1890
  676MOL0     C91137   4.489   3.477   4.547  0.6538 -0.0036  0.5890
  676MOL0     C91138   4.486   3.427   4.697 -1.2266  0.0485  0.2485
  676MOL0     C91139   4.618   3.410   4.777  0.6841  0.0747 -0.0669
  676MOL0     C91140   4.592   3.408   4.935 -0.1134  0.1271  0.0200
  676MOL0     C91141   4.520   3.533   5.002  0.6186 -0.6798  0.3546
  676MOL0     N91142   4.376   3.520   5.026 -1.2756 -0.7774 -0.1024
  676MOL0     C91143   4.294   3.419   4.993 -0.5499  0.1782  0.5731
  676MOL0     C91144   4.179   3.454   5.047  0.6670 -0.4243  0.6507
  676MOL0     C91145   4.053   3.364   5.037 -0.4156 -0.9655  0.3728
  676MOL0     C91146   3.930   3.415   5.113  1.0442 -0.3556  0.5152
  676MOL0     C91147   3.937   3.385   5.269  0.1807 -0.2119  1.0017
  676MOL0     C91148   3.917   3.236   5.302  0.4549  0.1557  0.8218
  676MOL0     O91149   3.902   3.203   5.439  0.4956 -0.2221 -0.7351
  676MOL0     C91150   4.008   3.171   5.516 -0.0457  1.2483 -0.4247
  676MOL0     C91151   3.976   3.096   5.627  0.2742  0.8278 -0.5456
  676MOL0     C91152   4.078   3.062   5.723  0.8927 -0.0976 -0.5245
  676MOL0     C91153   4.029   3.003   5.858  0.5538 -0.1213  0.3828
  676MOL0     C91154   4.210   3.078   5.694 -1.1018  0.7801  0.5806
  676MOL0     C91155   4.325   3.024   5.774 -0.4870 -0.3018 -0.5958
  676MOL0     O91156   4.449   3.024   5.710 -0.0453  0.3454 -0.2939
  676MOL0     C91157   4.565   2.988   5.773  0.3374 -0.6931 -0.6929
  676MOL0     C91158   4.583   2.896   5.873 -0.0678  0.1262  0.5342
  676MOL0     C91159   4.697   2.892   5.948  0.2847  0.5709 -1.0277
  676MOL0     C91160   4.806   2.980   5.932 -0.2681  0.0255 -0.3246
  676MOL0     O91161   4.907   2.988   6.024 -0.1132 -0.3898  0.7515
  676MOL0     C91162   4.866   3.073   6.135  0.3283 -0.1614  0.5849
  676MOL0     C91163   4.985   3.104   6.216 -0.1300 -0.1690  0.4986
  676MOL0     C91164   5.016   2.973   6.283 -0.3628 -0.0991 -0.1405
  676MOL0     C91165   5.096   2.993   6.408 -0.4388 -0.7374 -0.1288
  676MOL0     C91166   5.125   2.863   6.472 -0.6079  0.1150  0.0864
  676MOL0     C91167   5.207   2.885   6.599  0.3701  0.5021 -0.0996
  676MOL0     C91168   5.128   2.949   6.716  0.5651 -0.2534 -1.4440
  676MOL0     C91169   4.974   2.929   6.734  1.0209  0.6777 -0.7526
  676MOL0    Cl91170   4.902   3.013   6.877 -0.3124  0.0096  0.8146
  676MOL0     C91171   4.797   3.061   5.821  0.2640 -0.1685  0.1187
  676MOL0     C91172   4.682   3.066   5.742 -1.0341 -0.1448 -0.5892
  676MOL0     O91173   4.306   2.989   5.890 -0.5495 -0.5412 -0.0094
  676MOL0     C91174   4.241   3.163   5.588 -0.0487  0.6021 -0.2262
  676MOL0     C91175   4.140   3.211   5.497  0.4126  0.5031 -0.4686
  676MOL0     N91176   4.184   3.582   5.100  0.4346  0.1114 -0.5501
  676MOL0     N91177   4.307   3.618   5.088  0.0538  0.1652  0.0041
  676MOL0     C91178   4.936   3.450   4.602  1.3867 -0.0289  0.1999
  676MOL0     C91179   5.020   3.339   4.635 -0.7120 -0.3183  0.0257
  676MOL0     C91180   5.294   2.980   4.581 -0.0219  0.7585 -0.0714
  676MOL0     C91181   5.276   2.839   4.599  0.2177 -0.8969  0.3223
  676MOL0     C91182   5.375   2.751   4.626  0.1221 -0.6516 -0.7743
  676MOL0     C91183   5.508   2.786   4.641 -0.9119 -0.0675  0.4806
  676MOL0     O91184   5.606   2.688   4.656 -0.1751  0.5055 -0.0075
  676MOL0     C91185   5.747   2.728   4.655  0.1303  0.4176 -0.7517
  676MOL0     C91186   5.846   2.628   4.701 -0.0271  0.2499  0.5571
  676MOL0     C91187   5.866   2.526   4.605 -0.0616  0.6433  0.3844
  676MOL0     C91188   5.942   2.416   4.671  0.3483  0.0214  0.6889
  676MOL0     C91189   6.067   2.446   4.747  0.5434 -0.6179 -0.3204
  676MOL0     C91190   6.168   2.461   4.808  0.4982  0.1752  0.0231
  676MOL0     C91191   5.529   2.924   4.628 -0.3300 -0.2771 -0.1527
  676MOL0     C91192   5.427   3.019   4.611 -0.2585 -0.5615  0.5913
  676MOL0     H91193   5.150   3.288   4.334 -0.2836 -1.1296  0.2430
  676MOL0     H91194   4.991   3.477   4.268  2.4253 -1.3301 -0.0568
  676MOL0     H91195   4.762   3.588   4.249 -1.7932 -0.0183 -0.0464
  676MOL0     H91196   4.713   3.464   4.364 -0.1080 -0.5030 -2.1088
  676MOL0     H91197   4.627   3.754   4.372 -1.1168  1.2721  4.9160
  676MOL0     H91198   4.533   3.614   4.301 -0.7953 -1.8040  1.7122
  676MOL0     H91199   4.639   3.622   4.599 -1.9750 -1.7040  2.3758
  676MOL0     H91200   4.479   3.694   4.547 -0.7078  1.0693 -4.5233
  676MOL0     H91201   4.390   3.483   4.500 -0.6886 -0.6048  3.1658
  676MOL0     H91202   4.559   3.406   4.503 -0.8441  1.0736 -4.0870
  676MOL0     H91203   4.430   3.502   4.754  2.9325  1.5622  2.8142
  676MOL0     H91204   4.424   3.337   4.695 -0.9748 -0.1574  1.3020
  676MOL0     H91205   4.662   3.319   4.735 -0.9777  0.8688 -4.0288
  676MOL0     H91206   4.675   3.503   4.763 -0.5371  1.1325  1.5922
  676MOL0     H91207   4.541   3.312   4.948  0.2794 -0.3065 -1.4500
  676MOL0     H91208   4.686   3.389   4.987  1.1248  0.4038 -1.9953
  676MOL0     H91209   4.551   3.624   4.950 -0.6644  1.4519  3.0898
  676MOL0     H91210   4.564   3.554   5.100  2.7432 -0.3492 -0.6172
  676MOL0     H91211   4.323   3.329   4.940 -0.0604  0.7967 -0.2293
  676MOL0     H91212   4.016   3.360   4.934 -2.8992  1.7459  1.0631
  676MOL0     H91213   4.086   3.273   5.088 -2.2304  0.7460  5.1068
  676MOL0     H91214   3.846   3.365   5.064  1.0317  1.3744 -1.3373
  676MOL0     H91215   3.908   3.522   5.108 -1.1548 -0.8302 -1.5900
  676MOL0     H91216   3.865   3.449   5.322 -1.1377 -0.2370 -0.6909
  676MOL0     H91217   4.032   3.412   5.316  0.1287 -1.4970  1.8842
  676MOL0     H91218   4.002   3.182   5.259  0.7856  3.1755 -2.8025
  676MOL0     H91219   3.827   3.200   5.252 -0.8099  1.4170  2.0867
  676MOL0     H91220   3.870   3.086   5.648  0.1538  1.5632 -0.7867
  676MOL0     H91221   3.920   2.988   5.860  0.5049  0.2904  0.8504
  676MOL0     H91222   4.074   2.904   5.873 -1.4853 -1.1390  0.1780
  676MOL0     H91223   4.082   3.073   5.923 -1.2231  2.6428 -0.9309
  676MOL0     H91224   4.501   2.829   5.897 -1.8729  1.0936 -2.3405
  676MOL0     H91225   4.695   2.818   6.027  3.6352  0.6119 -0.7395
  676MOL0     H91226   4.824   3.167   6.096  2.0384  1.0585  1.5523
  676MOL0     H91227   4.791   3.030   6.202  0.2844  0.7738  1.1591
  676MOL0     H91228   5.067   3.132   6.149  0.5672 -3.4103 -0.1688
  676MOL0     H91229   4.971   3.176   6.297  1.8777 -1.8267  2.4904
  676MOL0     H91230   5.073   2.921   6.206  0.8842  1.6167 -0.4363
  676MOL0     H91231   4.928   2.914   6.308  1.5209 -2.1977  2.1722
  676MOL0     H91232   5.191   3.037   6.378 -0.9710  3.2299  3.1285
  676MOL0     H91233   5.063   3.061   6.487  1.9868 -0.5888  0.8356
  676MOL0     H91234   5.173   2.804   6.394 -2.7445  0.8034 -1.8564
  676MOL0     H91235   5.030   2.811   6.490 -1.1197  1.1480  0.4278
  676MOL0     H91236   5.260   2.794   6.626  3.0911  1.7926 -0.7079
  676MOL0     H91237   5.290   2.954   6.584 -0.9117  1.7405 -2.0134
  676MOL0     H91238   5.139   3.057   6.732 -0.0816 -0.4979  1.0269
  676MOL0     H91239   5.176   2.896   6.799  5.0221 -0.9232 -4.1289
  676MOL0     H91240   4.937   2.826   6.729 -1.5194  1.5431 -1.2409
  676MOL0     H91241   4.921   2.961   6.643 -0.1047 -0.5900 -0.5771
  676MOL0     H91242   4.878   3.127   5.791  0.1898 -1.1593 -2.6101
  676MOL0     H91243   4.677   3.144   5.666 -3.1578 -1.7502 -2.2101
  676MOL0     H91244   4.346   3.171   5.561  0.9714 -2.9201  1.9300
  676MOL0     H91245   4.181   3.272   5.417  0.0903  0.3109 -0.7848
  676MOL0     H91246   4.874   3.494   4.679  1.8376  0.9591  0.0193
  676MOL0     H91247   5.038   3.313   4.739  1.1970  1.6607  0.2792
  676MOL0     H91248   5.176   2.799   4.582 -0.9879  1.6035  1.0436
  676MOL0     H91249   5.358   2.645   4.637 -0.7811 -0.3726  0.9181
  676MOL0     H91250   5.773   2.752   4.551  1.5845 -0.6559 -0.6588
  676MOL0     H91251   5.762   2.816   4.718 -2.3713 -0.9512  2.0078
  676MOL0     H91252   5.813   2.583   4.795 -2.1530 -0.3884 -0.4398
  676MOL0     H91253   5.933   2.694   4.710 -0.1398  0.5456 -0.4474
  676MOL0     H91254   5.926   2.556   4.519 -0.3544  0.2107  0.0254
  676MOL0     H91255   5.770   2.505   4.557  0.9677  0.7841 -1.8338
  676MOL0     H91256   5.974   2.348   4.592  0.1094 -0.8679  1.3537
  676MOL0     H91257   5.881   2.347   4.730 -0.2274 -1.1763 -1.2124
  676MOL0     H91258   6.256   2.462   4.868 -0.2833  1.2323  1.2309
  676MOL0     H91259   5.627   2.965   4.649 -0.8273  0.0090  1.8392
  676MOL0     H91260   5.467   3.120   4.611  4.4582 -2.1756  0.7478
  677MOL0     O91261   4.176   3.405  10.693  0.3273  0.1103  0.8903
  677MOL0     C91262   4.127   3.296  10.695 -0.1710  0.4876  0.7255
  677MOL0     O91263   4.059   3.241  10.591  0.0949 -0.3792 -0.6450
  677MOL0     C91264   4.053   3.292  10.464  0.5831 -0.4109 -0.2688
  677MOL0     C91265   4.111   3.400  10.405 -0.4240 -1.2571  0.0386
  677MOL0     C91266   4.074   3.430  10.270 -0.8524 -0.1926 -0.0571
  677MOL0     C91267   3.987   3.358  10.191 -0.2930 -0.4619 -0.1705
  677MOL0     O91268   3.935   3.401  10.070 -0.7995 -0.0490  0.3771
  677MOL0     C91269   4.003   3.505   9.995 -0.4019  0.0386 -0.4289
  677MOL0     C91270   3.911   3.566   9.889 -0.7980 -0.1606 -0.7349
  677MOL0     C91271   3.789   3.630   9.959 -0.4732 -0.1701  0.2576
  677MOL0     C91272   3.690   3.668   9.851  0.1621 -0.3951 -0.3637
  677MOL0     C91273   3.560   3.701   9.912 -0.1255 -0.2019  1.3343
  677MOL0     C91274   3.568   3.817  10.010 -0.2212  0.3692  0.1914
  677MOL0     C91275   3.433   3.844  10.081 -1.4536 -0.5816  0.3905
  677MOL0     C91276   3.325   3.888   9.985 -0.4233  0.8557  0.3841
  677MOL0     N91277   3.197   3.911  10.048  0.7843 -0.8968  0.1411
  677MOL0     C91278   3.148   4.041  10.075  0.5977  0.6287  0.6701
  677MOL0     C91279   3.014   4.018  10.104  0.2222 -0.0653 -0.1092
  677MOL0     C91280   2.919   4.126  10.139  0.2538  0.1512  0.2401
  677MOL0     C91281   2.794   4.101  10.046  0.5999  0.1566  0.1252
  677MOL0     C91282   2.680   4.179  10.104  0.7900  0.0552 -0.0384
  677MOL0     C91283   2.605   4.102  10.215  0.5420 -0.1309 -0.4220
  677MOL0     O91284   2.537   3.999  10.142  0.5458  0.3221  0.6286
  677MOL0     C91285   2.538   3.875  10.205  0.0928  0.4311 -0.3298
  677MOL0     C91286   2.415   3.805  10.209 -0.0989  0.0308 -0.7422
  677MOL0     C91287   2.400   3.684  10.277  1.0236  0.6220 -0.6175
  677MOL0     C91288   2.263   3.611  10.267  0.0829  0.2095 -0.2694
  677MOL0     C91289   2.516   3.620  10.346  0.2311 -1.1412  0.0148
  677MOL0     C91290   2.512   3.494  10.427 -0.5611  0.7487 -0.3474
  677MOL0     O91291   2.636   3.462  10.488  0.5823 -0.2916 -0.7081
  677MOL0     C91292   2.640   3.370  10.589 -0.3241  0.6514  0.4141
  677MOL0     C91293   2.547   3.377  10.697  0.0995  0.7379 -0.0554
  677MOL0     C91294   2.546   3.284  10.791  0.8785 -0.2248 -0.3507
  677MOL0     C91295   2.632   3.180  10.799 -0.7893 -0.1383  1.0095
  677MOL0     O91296   2.646   3.086  10.899  0.5381  0.6538 -0.3395
  677MOL0     C91297   2.573   3.093  11.017 -0.1193  0.2268  0.7932
  677MOL0     C91298   2.639   2.986  11.108 -0.5517  0.7589  0.1158
  677MOL0     C91299   2.590   2.982  11.252  0.4162 -0.2684 -0.3845
  677MOL0     C91300   2.679   2.918  11.351 -0.1907 -0.3508  0.6369
  677MOL0     C91301   2.635   2.939  11.490  0.4692 -0.4142 -0.6794
  677MOL0     C91302   2.713   2.851  11.597 -0.6871 -0.0342 -0.6268
  677MOL0     C91303   2.641   2.859  11.739 -0.2869  0.4748  0.0337
  677MOL0     C91304   2.743   2.809  11.849 -0.9787  0.3384 -0.3316
  677MOL0    Cl91305   2.751   2.635  11.841 -0.4445 -0.1097 -0.2207
  677MOL0     C91306   2.718   3.162  10.690 -0.8202 -0.4024  0.4758
  677MOL0     C91307   2.729   3.262  10.593  1.1050  0.4283  0.3962
  677MOL0     O91308   2.410   3.418  10.443 -0.3493  0.3819  0.6875
  677MOL0     C91309   2.638   3.694  10.333 -0.1354 -0.9138 -0.9012
  677MOL0     C91310   2.657   3.819  10.268 -0.2568 -0.1599  0.0598
  677MOL0     N91311   2.990   3.880  10.097  0.9923 -0.4240  0.2496
  677MOL0     N91312   3.102   3.818  10.077 -0.3383 -0.6134 -0.2661
  677MOL0     C91313   3.915   3.259  10.260  0.0302  0.0945  0.1812
  677MOL0     C91314   3.953   3.229  10.391 -0.6509  0.2403 -0.7912
  677MOL0     C91315   4.153   3.203  10.805  0.1599 -0.6825 -0.5034
  677MOL0     C91316   4.257   3.240  10.906  0.4998  0.2420  0.1790
  677MOL0     C91317   4.294   3.138  10.999 -0.4294 -0.5388 -0.9940
  677MOL0     C91318   4.225   3.013  10.998 -0.0085 -0.2736 -0.6165
  677MOL0     O91319   4.273   2.924  11.092 -0.4501  0.4668  0.0020
  677MOL0     C91320   4.342   2.961  11.215 -0.2332  0.2273 -0.0198
  677MOL0     C91321   4.359   2.832  11.301 -0.5803 -1.5249  0.0216
  677MOL0     C91322   4.405   2.855  11.446  0.0066 -0.4361  0.1698
  677MOL0     C91323   4.550   2.918  11.465  0.1037  0.0331 -0.5573
  677MOL0     C91324   4.649   2.822  11.420 -0.2097 -0.8814 -0.6129
  677MOL0     C91325   4.722   2.739  11.366 -0.6419 -0.0069 -0.3068
  677MOL0     C91326   4.138   2.977  10.902  1.3788 -0.1010 -0.0944
  677MOL0     C91327   4.098   3.074  10.813 -0.4302  0.6547  0.6683
  677MOL0     H91328   4.176   3.461  10.467 -1.5729  0.2071 -0.1352
  677MOL0     H91329   4.118   3.520  10.230  0.6891 -1.6149 -1.7498
  677MOL0     H91330   4.028   3.593  10.054  2.0452  0.7773 -2.4053
  677MOL0     H91331   4.102   3.492   9.950 -0.8049  0.9007 -1.6252
  677MOL0     H91332   3.974   3.634   9.831 -2.2008  0.3764 -1.7049
  677MOL0     H91333   3.883   3.484   9.823 -1.1696 -1.3751  0.8742
  677MOL0     H91334   3.742   3.565  10.033  1.1081  0.4706  1.8820
  677MOL0     H91335   3.820   3.723  10.007  2.2766 -0.1281 -1.3954
  677MOL0     H91336   3.718   3.747   9.782 -0.0423  0.3137  0.3552
  677MOL0     H91337   3.670   3.576   9.795  0.8346 -0.0657 -1.1742
  677MOL0     H91338   3.484   3.724   9.837 -1.3221 -3.4388  1.3903
  677MOL0     H91339   3.525   3.611   9.963  0.8740 -1.1653  0.3921
  677MOL0     H91340   3.644   3.788  10.083  1.2595  0.4384 -1.2734
  677MOL0     H91341   3.603   3.906   9.958  1.6645  0.5415  1.6554
  677MOL0     H91342   3.398   3.759  10.140  1.3222 -2.1405 -0.0339
  677MOL0     H91343   3.454   3.927  10.149  1.5372 -0.3662 -0.6166
  677MOL0     H91344   3.309   3.811   9.909  0.1281 -0.5771  1.6784
  677MOL0     H91345   3.369   3.977   9.938  1.7144 -1.8582 -3.3367
  677MOL0     H91346   3.201   4.135  10.060  0.0797  0.5102 -2.4609
  677MOL0     H91347   2.885   4.116  10.243 -1.4363 -2.6011 -0.4584
  677MOL0     H91348   2.970   4.221  10.125 -1.1968  0.8122 -0.7321
  677MOL0     H91349   2.779   3.993  10.047 -0.6418  0.3157  0.8507
  677MOL0     H91350   2.803   4.130   9.941 -1.6517  1.7333  0.3009
  677MOL0     H91351   2.600   4.195  10.031  0.0117 -0.9259  0.5730
  677MOL0     H91352   2.708   4.280  10.138  4.0626 -0.0894 -1.9015
  677MOL0     H91353   2.532   4.162  10.271  0.4416  0.3538 -1.0545
  677MOL0     H91354   2.679   4.055  10.279 -2.2197 -1.5201  2.0143
  677MOL0     H91355   2.335   3.850  10.150 -0.9043  0.6840  0.7855
  677MOL0     H91356   2.198   3.626  10.180  0.6533 -2.1880 -1.1640
  677MOL0     H91357   2.263   3.502  10.274  0.7208  0.3035  2.6478
  677MOL0     H91358   2.207   3.639  10.358 -1.3142  0.8769 -1.2921
  677MOL0     H91359   2.458   3.439  10.693 -1.9911 -1.9804  0.8130
  677MOL0     H91360   2.465   3.296  10.863 -1.7011  2.5170 -3.3779
  677MOL0     H91361   2.569   3.189  11.070 -0.8645 -0.9623  3.0464
  677MOL0     H91362   2.474   3.059  10.987  0.9616 -3.1908  0.6987
  677MOL0     H91363   2.614   2.889  11.063  1.8611  0.6096 -1.0424
  677MOL0     H91364   2.747   3.002  11.102 -0.1955 -1.2692  0.3828
  677MOL0     H91365   2.489   2.942  11.253 -1.5786  4.0802 -2.5510
  677MOL0     H91366   2.590   3.086  11.284  1.8984 -0.4642  0.3534
  677MOL0     H91367   2.678   2.812  11.321 -0.0621  0.3548 -2.2074
  677MOL0     H91368   2.781   2.956  11.356 -1.6630  3.8807  3.0643
  677MOL0     H91369   2.529   2.919  11.506  0.7249 -2.5910 -1.4067
  677MOL0     H91370   2.657   3.040  11.527  3.9374 -1.6552  1.1397
  677MOL0     H91371   2.723   2.749  11.559 -2.2107 -0.2241 -0.5964
  677MOL0     H91372   2.806   2.906  11.613 -1.3693  0.9902 -0.0680
  677MOL0     H91373   2.547   2.804  11.756 -0.4926  1.3644  2.0607
  677MOL0     H91374   2.638   2.968  11.752  2.2795  0.6353 -0.2384
  677MOL0     H91375   2.714   2.834  11.951 -0.6605 -1.4532  0.2241
  677MOL0     H91376   2.842   2.854  11.838 -0.0034 -1.9512 -1.6124
  677MOL0     H91377   2.792   3.083  10.694  0.4467  0.7612  1.0453
  677MOL0     H91378   2.803   3.247  10.514 -2.1371  0.2665 -2.8824
  677MOL0     H91379   2.734   3.656  10.368 -0.0485  1.0463  1.2791
  677MOL0     H91380   2.759   3.853  10.258 -0.6936  0.8017 -1.6120
  677MOL0     H91381   3.841   3.192  10.219 -0.7477  0.1166  1.4884
  677MOL0     H91382   3.900   3.152  10.447  0.7092  1.3131  2.1712
  677MOL0     H91383   4.305   3.335  10.925  0.4288 -0.2000  2.9108
  677MOL0     H91384   4.369   3.169  11.071 -1.1670  2.2361 -1.2992
  677MOL0     H91385   4.441   3.006  11.195 -0.2597 -0.7683 -2.9049
  677MOL0     H91386   4.285   3.031  11.276 -0.6701 -1.8173  2.0509
  677MOL0     H91387   4.444   2.784  11.253 -0.7735 -0.8862 -0.9877
  677MOL0     H91388   4.274   2.763  11.296 -0.6991 -1.3883  0.1300
  677MOL0     H91389   4.399   2.763  11.505  1.3806 -0.5283  0.1867
  677MOL0     H91390   4.337   2.928  11.492  0.3017 -0.4830  0.6961
  677MOL0     H91391   4.564   2.951  11.569 -1.0098  0.0929 -0.4145
  677MOL0     H91392   4.569   3.011  11.412 -0.8662 -0.1368 -1.2164
  677MOL0     H91393   4.795   2.670  11.328  0.2333  1.1279 -0.7707
  677MOL0     H91394   4.087   2.881  10.904 -1.3767  1.0750  5.2949
  677MOL0     H91395   4.018   3.052  10.743  0.0279  0.2429  0.2638
  678MOL0     O91396   6.172   2.859   9.174  0.3974  0.4145 -0.1895
  678MOL0     C91397   6.159   2.762   9.099  0.9162  1.1135  0.2555
  678MOL0     O91398   6.167   2.630   9.134 -0.3681 -0.3201  0.3052
  678MOL0     C91399   6.165   2.590   9.267  0.8238 -0.3474 -0.2022
  678MOL0     C91400   6.069   2.498   9.308  0.6096  0.2366  0.4909
  678MOL0     C91401   6.069   2.442   9.434  0.7198  0.8196 -0.0468
  678MOL0     C91402   6.150   2.479   9.532 -0.1768  0.0654  0.0883
  678MOL0     O91403   6.141   2.421   9.661  0.1526 -0.3872  0.2262
  678MOL0     C91404   6.229   2.463   9.769 -0.0251  0.1852  0.2276
  678MOL0     C91405   6.172   2.408   9.900 -1.1957 -0.1412  0.0153
  678MOL0     C91406   6.038   2.467   9.939  0.5104  0.0849 -0.0830
  678MOL0     C91407   5.970   2.389  10.051 -0.1361  0.1762  0.2772
  678MOL0     C91408   6.038   2.393  10.191  0.5149 -0.2999  0.0001
  678MOL0     C91409   6.019   2.523  10.270 -0.3236  0.9748 -0.6824
  678MOL0     C91410   6.030   2.507  10.422 -0.1476  0.0439  0.1934
  678MOL0     C91411   6.142   2.410  10.476 -0.2270 -0.0486 -0.6500
  678MOL0     N91412   6.183   2.428  10.610 -0.1735 -1.1808 -0.2620
  678MOL0     C91413   6.090   2.468  10.706  1.1918 -0.0132 -0.6130
  678MOL0     C91414   6.158   2.494  10.816  0.3440  0.5714 -0.7183
  678MOL0     C91415   6.107   2.512  10.955  1.1069  0.8034  0.0346
  678MOL0     C91416   5.955   2.486  10.976  0.0955  0.0898 -0.5293
  678MOL0     C91417   5.920   2.435  11.111 -0.0711  0.3405 -0.4618
  678MOL0     C91418   5.954   2.286  11.128 -0.0667  0.3963 -0.2577
  678MOL0     O91419   5.952   2.236  11.259 -0.6268 -0.2661  0.0811
  678MOL0     C91420   6.000   2.111  11.293  0.0794 -0.4798  0.0582
  678MOL0     C91421   6.029   2.099  11.425  0.9550 -0.1477  0.1586
  678MOL0     C91422   6.064   1.975  11.482 -0.1548 -0.6159 -0.3089
  678MOL0     C91423   6.100   1.981  11.628  0.2312 -0.1095  0.2388
  678MOL0     C91424   6.086   1.860  11.402 -0.0902 -0.3438  0.0573
  678MOL0     C91425   6.147   1.731  11.445  0.1730 -1.0227 -0.3559
  678MOL0     O91426   6.199   1.648  11.358  0.2931  0.1649 -0.2250
  678MOL0     C91427   6.239   1.526  11.402  0.7500 -0.5214  0.1854
  678MOL0     C91428   6.352   1.497  11.471  0.0020  0.5019  0.4899
  678MOL0     C91429   6.384   1.365  11.493 -0.8935  0.2870 -0.7418
  678MOL0     C91430   6.308   1.259  11.450  0.5258  0.2009 -0.6662
  678MOL0     O91431   6.343   1.133  11.476  0.1856  0.9742 -0.2297
  678MOL0     C91432   6.372   1.044  11.367 -0.4742 -0.4031 -0.1605
  678MOL0     C91433   6.434   0.923  11.425  0.7094  0.4207  0.1374
  678MOL0     C91434   6.488   0.823  11.318  0.0016  0.9372  0.7153
  678MOL0     C91435   6.375   0.771  11.227 -0.1901  0.2858  0.5996
  678MOL0     C91436   6.399   0.651  11.130 -0.2783 -0.1750  0.5296
  678MOL0     C91437   6.429   0.683  10.981 -0.4330 -0.3357 -0.7229
  678MOL0     C91438   6.463   0.565  10.897  0.4141  0.8774  0.2500
  678MOL0     C91439   6.396   0.585  10.762  0.1357 -0.2013  0.0664
  678MOL0    Cl91440   6.444   0.427  10.659  0.6537  0.4247 -0.0747
  678MOL0     C91441   6.189   1.295  11.378  0.2626  0.0526  0.0212
  678MOL0     C91442   6.155   1.426  11.349 -0.9745 -0.0759  0.6542
  678MOL0     O91443   6.144   1.712  11.562  0.4529  0.3286 -0.3753
  678MOL0     C91444   6.044   1.872  11.265 -0.0698 -0.4654 -0.5193
  678MOL0     C91445   5.999   1.997  11.212  0.9567 -0.2604 -0.8655
  678MOL0     N91446   6.297   2.478  10.789 -0.4428  0.2293  0.5084
  678MOL0     N91447   6.310   2.442  10.663  0.0112  0.3383  0.1003
  678MOL0     C91448   6.240   2.589   9.495  0.1089 -1.0818 -0.9686
  678MOL0     C91449   6.254   2.638   9.362  0.6707  0.4195  0.5847
  678MOL0     C91450   6.130   2.783   8.949  0.4937  0.9834 -0.2333
  678MOL0     C91451   6.094   2.914   8.906 -0.0971  0.6817 -0.2611
  678MOL0     C91452   6.072   2.935   8.767  0.1436 -0.7219 -0.7196
  678MOL0     C91453   6.073   2.833   8.677  0.1960 -0.3003 -0.1430
  678MOL0     O91454   6.031   2.866   8.559 -0.4426 -1.0403  0.3416
  678MOL0     C91455   5.992   2.778   8.456 -1.1903 -0.0342  0.3645
  678MOL0     C91456   5.931   2.857   8.344  0.1001  0.0524  0.8747
  678MOL0     C91457   6.036   2.925   8.255  0.8646  0.2774  0.1636
  678MOL0     C91458   5.976   3.043   8.181  0.3271  0.7687 -0.4863
  678MOL0     C91459   6.079   3.116   8.114  0.8188 -0.7070 -0.1632
  678MOL0     C91460   6.162   3.190   8.066  0.0407  0.3352  0.1551
  678MOL0     C91461   6.104   2.702   8.721 -0.8067  0.1764  0.2001
  678MOL0     C91462   6.134   2.679   8.850 -0.1855 -0.4397 -0.2960
  678MOL0     H91463   6.002   2.457   9.233  1.3292 -0.1953  0.0711
  678MOL0     H91464   6.004   2.356   9.444  0.6326  1.1335  3.7489
  678MOL0     H91465   6.330   2.422   9.754 -0.4699 -0.9203  0.1829
  678MOL0     H91466   6.240   2.571   9.784  1.7666 -0.1112  1.4044
  678MOL0     H91467   6.177   2.299   9.898  1.2603 -0.1527  2.0050
  678MOL0     H91468   6.250   2.439   9.969 -1.3017  1.5584 -0.5747
  678MOL0     H91469   6.048   2.571   9.971  0.5686  0.0799 -0.0855
  678MOL0     H91470   5.970   2.461   9.853 -0.1477  3.3929  0.0938
  678MOL0     H91471   5.867   2.426  10.050  0.5981  2.3858 -0.6241
  678MOL0     H91472   5.962   2.283  10.023 -1.9686  0.7060 -1.3836
  678MOL0     H91473   6.005   2.309  10.254 -4.9428  3.5940  3.2754
  678MOL0     H91474   6.144   2.373  10.175  0.4501 -0.6753  0.0177
  678MOL0     H91475   6.113   2.578  10.254  0.3342  0.1826  0.3829
  678MOL0     H91476   5.941   2.595  10.243  0.6873  2.9826  1.4164
  678MOL0     H91477   6.045   2.605  10.469 -0.5365  1.0836 -1.7860
  678MOL0     H91478   5.935   2.475  10.466  0.2673  1.3062  2.1282
  678MOL0     H91479   6.232   2.425  10.416 -0.3237  2.0344 -0.3301
  678MOL0     H91480   6.105   2.308  10.460  2.9516 -1.4610  0.2856
  678MOL0     H91481   5.982   2.462  10.700  1.0960  2.3058 -4.2177
  678MOL0     H91482   6.144   2.424  11.009 -4.0639 -0.9524  1.2109
  678MOL0     H91483   6.137   2.601  11.011 -1.8179  0.5936  2.1736
  678MOL0     H91484   5.900   2.434  10.896 -1.1581  3.4400 -2.0729
  678MOL0     H91485   5.910   2.584  10.957  1.2986  0.6758 -0.4244
  678MOL0     H91486   5.811   2.441  11.109 -0.1782 -1.3819 -1.9064
  678MOL0     H91487   5.956   2.492  11.197  3.1349 -0.2484 -1.2807
  678MOL0     H91488   6.049   2.257  11.082  1.2861 -0.3107  2.7647
  678MOL0     H91489   5.881   2.225  11.074 -0.9083 -1.1088  2.4157
  678MOL0     H91490   6.025   2.193  11.479 -0.1800  0.9059 -1.6618
  678MOL0     H91491   6.097   2.087  11.656 -1.7211  0.6131 -2.3056
  678MOL0     H91492   6.024   1.924  11.683 -1.5276  0.8774 -1.0405
  678MOL0     H91493   6.203   1.951  11.645  0.8328  0.0227 -2.6551
  678MOL0     H91494   6.426   1.575  11.489  0.2767  0.5028 -0.5987
  678MOL0     H91495   6.474   1.342  11.549 -0.8500  0.4032 -0.7641
  678MOL0     H91496   6.275   1.013  11.327 -0.7493  0.8608 -0.5365
  678MOL0     H91497   6.438   1.086  11.290 -1.1213 -1.2743 -1.2197
  678MOL0     H91498   6.505   0.942  11.505 -0.0162  0.2341  0.8411
  678MOL0     H91499   6.351   0.871  11.475  1.1321  0.6226  1.0643
  678MOL0     H91500   6.531   0.738  11.371  3.1034  2.9491  1.6582
  678MOL0     H91501   6.565   0.877  11.263  1.3757 -1.9163 -0.3294
  678MOL0     H91502   6.292   0.740  11.291  0.5220 -4.1987 -0.3002
  678MOL0     H91503   6.351   0.861  11.169  0.5170  1.4920  2.1023
  678MOL0     H91504   6.309   0.590  11.142 -1.2156  0.7588 -1.4390
  678MOL0     H91505   6.481   0.595  11.176 -0.3513  0.2318  1.1800
  678MOL0     H91506   6.343   0.741  10.945 -4.0607 -3.3740  2.1664
  678MOL0     H91507   6.517   0.747  10.973  0.6922 -1.7918 -0.3981
  678MOL0     H91508   6.427   0.470  10.939  0.1600  0.4634 -0.8767
  678MOL0     H91509   6.568   0.539  10.882  0.8415 -0.0376  3.7714
  678MOL0     H91510   6.435   0.673  10.710  1.5448  1.2076  3.2957
  678MOL0     H91511   6.289   0.601  10.779  0.4892  2.9251 -0.0706
  678MOL0     H91512   6.124   1.221  11.332 -0.1516 -1.1083  2.3168
  678MOL0     H91513   6.057   1.452  11.312 -0.9508  0.1518  0.7470
  678MOL0     H91514   6.047   1.779  11.210 -0.6833 -1.0604  0.4074
  678MOL0     H91515   5.965   2.012  11.111 -0.3265 -0.6936 -0.5203
  678MOL0     H91516   6.320   2.623   9.561  1.1719 -1.7484 -1.8687
  678MOL0     H91517   6.333   2.706   9.335  0.0167  1.5462  1.4466
  678MOL0     H91518   6.096   2.989   8.985 -0.7985 -2.0784  2.6061
  678MOL0     H91519   6.057   3.037   8.732 -0.0716 -0.7295 -0.6482
  678MOL0     H91520   6.081   2.735   8.409  0.4876  1.9877  1.5218
  678MOL0     H91521   5.934   2.688   8.482 -0.9258 -0.4810 -0.5343
  678MOL0     H91522   5.850   2.917   8.386 -2.0754 -2.7345  1.0135
  678MOL0     H91523   5.890   2.781   8.276  0.4442  0.2453  0.4503
  678MOL0     H91524   6.072   2.844   8.190 -0.3895  1.4416 -2.1205
  678MOL0     H91525   6.126   2.950   8.311  0.9114 -4.0792  2.4218
  678MOL0     H91526   5.924   3.107   8.253 -2.5627  0.7383 -2.3871
  678MOL0     H91527   5.904   3.006   8.108  0.6599  3.3485 -2.2339
  678MOL0     H91528   6.233   3.239   8.003 -0.2481  1.1986  0.4963
  678MOL0     H91529   6.110   2.614   8.658 -0.7749 -0.7796  1.5098
  678MOL0     H91530   6.152   2.576   8.880  1.6506  0.1970  0.9947
  679MOL0     O91531   3.987   4.688   5.156  0.0223 -0.2222  0.1666
  679MOL0     C91532   3.929   4.781   5.104 -0.3159 -0.8304  0.0690
  679MOL0     O91533   3.991   4.897   5.057 -0.4867  0.3300  0.6412
  679MOL0     C91534   4.127   4.915   5.041 -0.2068 -1.5518  0.0066
  679MOL0     C91535   4.234   4.846   5.090  1.2071 -0.6293 -0.2908
  679MOL0     C91536   4.365   4.887   5.056  0.6139 -0.2048 -0.1434
  679MOL0     C91537   4.377   5.002   4.971  1.1476 -0.8448 -0.5519
  679MOL0     O91538   4.493   5.056   4.920 -0.3129  0.1788  0.5342
  679MOL0     C91539   4.608   5.045   5.004 -0.8312 -0.5398  0.3455
  679MOL0     C91540   4.620   5.156   5.112  0.3066 -0.6129  0.7963
  679MOL0     C91541   4.498   5.245   5.151  0.5687 -0.6530 -0.4464
  679MOL0     C91542   4.540   5.342   5.273  0.5340 -1.4320 -0.2747
  679MOL0     C91543   4.634   5.450   5.226 -0.1463 -1.0875 -0.2219
  679MOL0     C91544   4.662   5.549   5.338 -0.5022 -0.1347  0.0348
  679MOL0     C91545   4.737   5.664   5.288  0.2207  0.0510 -0.7065
  679MOL0     C91546   4.690   5.741   5.168  0.2565  0.2740 -0.0937
  679MOL0     N91547   4.732   5.881   5.164 -0.7496 -0.5489  0.6868
  679MOL0     C91548   4.657   5.984   5.107  0.4003 -0.5539  0.6353
  679MOL0     C91549   4.743   6.087   5.117  0.3803  0.3507  0.9111
  679MOL0     C91550   4.723   6.233   5.067 -0.7083  0.7212 -0.4940
  679MOL0     C91551   4.774   6.330   5.176 -0.1025  1.2451 -0.7650
  679MOL0     C91552   4.802   6.467   5.104  0.7562  0.3301 -0.0559
  679MOL0     C91553   4.671   6.547   5.106 -0.1459 -0.6040  0.1042
  679MOL0     O91554   4.618   6.585   5.232 -0.3730  0.0566  0.4417
  679MOL0     C91555   4.517   6.678   5.237  0.6103 -0.1768 -1.3107
  679MOL0     C91556   4.530   6.791   5.323 -0.5239  0.0982 -0.5293
  679MOL0     C91557   4.425   6.882   5.347  0.2938 -0.2603 -0.5059
  679MOL0     C91558   4.455   6.991   5.453 -0.0197  0.1613  0.0951
  679MOL0     C91559   4.306   6.869   5.267 -0.8295  0.5324  0.6298
  679MOL0     C91560   4.204   6.978   5.258  0.2649  0.0717  0.1283
  679MOL0     O91561   4.092   6.943   5.199 -0.3541 -0.7440 -0.6464
  679MOL0     C91562   3.996   7.033   5.169  0.7336 -0.0974  0.2551
  679MOL0     C91563   3.954   7.141   5.252 -0.1980 -1.4767  0.3501
  679MOL0     C91564   3.848   7.228   5.212 -0.2238  0.9160 -0.8662
  679MOL0     C91565   3.787   7.204   5.094  0.4865  0.4157  0.7072
  679MOL0     O91566   3.705   7.295   5.035 -0.3742  0.4192 -0.0521
  679MOL0     C91567   3.772   7.395   4.971  0.0439 -0.2386  0.7074
  679MOL0     C91568   3.810   7.357   4.822 -0.5198 -0.2095  0.0081
  679MOL0     C91569   3.889   7.475   4.755 -0.1765 -0.0416  0.2139
  679MOL0     C91570   3.803   7.611   4.754 -0.4693  0.6017 -0.6296
  679MOL0     C91571   3.841   7.705   4.637  0.3775 -0.6570 -0.2849
  679MOL0     C91572   3.755   7.832   4.633 -0.0494 -0.3178  0.3592
  679MOL0     C91573   3.668   7.827   4.500 -1.2017 -0.4170 -1.0211
  679MOL0     C91574   3.574   7.697   4.498  1.3486 -0.1666  0.8364
  679MOL0    Cl91575   3.455   7.712   4.625  0.2370 -0.1344  0.4213
  679MOL0     C91576   3.831   7.098   5.012 -0.6961 -0.2645 -0.7160
  679MOL0     C91577   3.934   7.017   5.044 -0.5985 -0.5977 -0.0772
  679MOL0     O91578   4.227   7.089   5.315  0.3382  0.7245 -0.1273
  679MOL0     C91579   4.291   6.758   5.180 -0.1708  0.3575 -0.0974
  679MOL0     C91580   4.392   6.667   5.168  0.1497 -0.3331 -0.1172
  679MOL0     N91581   4.860   6.049   5.188 -0.0777 -0.2140  0.5624
  679MOL0     N91582   4.858   5.926   5.211  0.2144  0.3909  0.5054
  679MOL0     C91583   4.263   5.075   4.933  0.7682  0.4283  0.6578
  679MOL0     C91584   4.139   5.027   4.970 -0.5801  0.3838  0.3446
  679MOL0     C91585   3.787   4.803   5.133  0.4082  0.5125  0.4456
  679MOL0     C91586   3.711   4.716   5.218  0.2253 -0.2476  0.5195
  679MOL0     C91587   3.577   4.745   5.247  0.3572  0.1468 -0.3798
  679MOL0     C91588   3.518   4.855   5.193 -0.0745 -0.5623  0.4118
  679MOL0     O91589   3.385   4.884   5.228 -0.2014  0.3983 -0.1696
  679MOL0     C91590   3.288   4.821   5.147 -0.6247 -0.0801 -0.2825
  679MOL0     C91591   3.265   4.883   5.014  0.6992 -0.3346  0.1116
  679MOL0     C91592   3.219   5.035   5.029 -0.8995  0.7596 -0.5567
  679MOL0     C91593   3.221   5.118   4.903 -0.3249  0.3055 -0.4898
  679MOL0     C91594   3.354   5.126   4.837 -0.3958  0.6765  0.6426
  679MOL0     C91595   3.459   5.148   4.778 -0.3789 -0.1390 -0.3208
  679MOL0     C91596   3.584   4.944   5.111 -0.5228  0.5823  0.3293
  679MOL0     C91597   3.726   4.920   5.079  0.1672 -0.0704 -0.4057
  679MOL0     H91598   4.224   4.757   5.153  0.2581 -0.0851  0.3627
  679MOL0     H91599   4.440   4.824   5.102 -0.2256 -0.3863  1.0207
  679MOL0     H91600   4.631   4.942   5.033  2.1960  0.3389  1.3904
  679MOL0     H91601   4.696   5.051   4.940 -1.3585 -3.8884 -0.9427
  679MOL0     H91602   4.649   5.114   5.209 -1.4128 -1.1971  1.0815
  679MOL0     H91603   4.699   5.225   5.082 -0.3824  1.4214  3.3328
  679MOL0     H91604   4.447   5.295   5.068 -1.6928  0.9737  1.7749
  679MOL0     H91605   4.416   5.180   5.183  1.1753 -1.0450  0.3514
  679MOL0     H91606   4.447   5.391   5.305  1.0537  0.7125 -1.8291
  679MOL0     H91607   4.570   5.271   5.350 -2.7055 -1.2977  1.2687
  679MOL0     H91608   4.730   5.399   5.211  2.0115  2.0024  1.8624
  679MOL0     H91609   4.597   5.506   5.140  1.0845  0.4837  0.2066
  679MOL0     H91610   4.568   5.596   5.368  0.4006  1.8071 -0.0076
  679MOL0     H91611   4.717   5.500   5.419  0.1878  2.3549  1.1530
  679MOL0     H91612   4.745   5.735   5.370 -1.6191  0.6162 -0.9642
  679MOL0     H91613   4.836   5.629   5.257  0.5384 -4.4561  4.0687
  679MOL0     H91614   4.581   5.749   5.168  0.2082  0.1526 -2.0972
  679MOL0     H91615   4.722   5.695   5.074 -0.0131 -0.1117  0.0004
  679MOL0     H91616   4.561   5.970   5.059 -0.0895  1.2608  1.0071
  679MOL0     H91617   4.773   6.244   4.971 -2.8805  0.6501 -1.7116
  679MOL0     H91618   4.615   6.250   5.074 -1.2474 -2.2639  0.0079
  679MOL0     H91619   4.854   6.293   5.240 -0.0995  2.8265  0.2132
  679MOL0     H91620   4.704   6.333   5.260  0.5151 -0.1672 -0.1839
  679MOL0     H91621   4.838   6.450   5.002  1.2359 -3.5717  0.5984
  679MOL0     H91622   4.871   6.510   5.178  0.4023 -1.3189  1.2873
  679MOL0     H91623   4.593   6.488   5.057  0.3062 -1.8318  0.8229
  679MOL0     H91624   4.675   6.641   5.049 -2.5890  1.5218  3.1294
  679MOL0     H91625   4.624   6.802   5.377  0.0317 -3.1182 -0.6269
  679MOL0     H91626   4.542   6.969   5.515 -0.5315  0.0828  0.8000
  679MOL0     H91627   4.472   7.096   5.429  0.8164 -0.3977 -1.8902
  679MOL0     H91628   4.366   6.989   5.517  0.2424  0.3170  0.4652
  679MOL0     H91629   3.986   7.154   5.355 -0.3504  2.5073  0.0465
  679MOL0     H91630   3.818   7.312   5.272 -2.5225  0.7691 -1.6919
  679MOL0     H91631   3.697   7.474   4.965 -2.2412 -2.1153  2.4167
  679MOL0     H91632   3.854   7.440   5.027 -0.2404 -1.0356  1.7960
  679MOL0     H91633   3.879   7.272   4.816  0.4806  0.6847 -2.0929
  679MOL0     H91634   3.720   7.351   4.760  0.6541 -3.0558 -1.6040
  679MOL0     H91635   3.904   7.426   4.658 -0.7465  0.0626  0.0702
  679MOL0     H91636   3.985   7.491   4.803  0.1063 -2.3835  0.5473
  679MOL0     H91637   3.697   7.590   4.741 -0.7311  0.9725  0.7264
  679MOL0     H91638   3.833   7.672   4.840 -0.1581 -2.0767  1.2883
  679MOL0     H91639   3.826   7.639   4.552 -0.5669 -1.5648  0.5594
  679MOL0     H91640   3.945   7.735   4.627  0.3538 -0.3035  0.4130
  679MOL0     H91641   3.681   7.812   4.711  1.2332 -2.9767  1.0131
  679MOL0     H91642   3.800   7.931   4.633 -2.0467  0.8584 -4.2067
  679MOL0     H91643   3.719   7.837   4.404 -3.1408  0.5956 -2.0166
  679MOL0     H91644   3.608   7.917   4.490  1.1020  1.1514 -1.3620
  679MOL0     H91645   3.632   7.607   4.519 -2.5579 -3.3955 -0.9300
  679MOL0     H91646   3.531   7.689   4.398  2.0214 -1.2215  0.6208
  679MOL0     H91647   3.781   7.087   4.916 -2.4876 -1.8112  0.3288
  679MOL0     H91648   3.972   6.946   4.973  1.4926  0.6477 -0.2861
  679MOL0     H91649   4.209   6.755   5.108  0.7828  3.3903 -1.4571
  679MOL0     H91650   4.376   6.574   5.113 -1.2057  0.0033 -0.3339
  679MOL0     H91651   4.267   5.154   4.859 -1.1510 -2.6452 -3.0805
  679MOL0     H91652   4.045   5.070   4.937 -1.1393 -0.3358  0.9695
  679MOL0     H91653   3.753   4.627   5.263  0.2237  0.3997  1.8640
  679MOL0     H91654   3.516   4.689   5.318  1.4374 -0.8848 -0.2341
  679MOL0     H91655   3.311   4.714   5.138  0.7806  0.3073 -1.5755
  679MOL0     H91656   3.195   4.825   5.205 -0.2769 -2.7032  0.6054
  679MOL0     H91657   3.180   4.839   4.962 -0.5256 -1.4110  2.8532
  679MOL0     H91658   3.360   4.871   4.959  1.1948  2.3679  0.2596
  679MOL0     H91659   3.275   5.088   5.107  1.9326 -0.0202 -1.9141
  679MOL0     H91660   3.114   5.034   5.057 -0.6072  0.7907  0.5980
  679MOL0     H91661   3.180   5.216   4.931  1.3273  0.7086  0.6764
  679MOL0     H91662   3.152   5.067   4.835  2.0636 -1.9405 -1.3758
  679MOL0     H91663   3.552   5.167   4.730  1.6627  0.0267  3.3223
  679MOL0     H91664   3.535   5.027   5.061  3.4575  2.1109 -1.4280
  679MOL0     H91665   3.775   4.994   5.017 -1.3011  1.6860  0.4717
  680MOL0     O91666   3.334   5.297   8.255  0.9276  0.8021 -1.0723
  680MOL0     C91667   3.336   5.419   8.228  0.8634  0.0082 -0.5322
  680MOL0     O91668   3.271   5.521   8.299  0.5222  0.2740 -1.2361
  680MOL0     C91669   3.231   5.511   8.421  0.3973  0.2722 -0.9961
  680MOL0     C91670   3.301   5.585   8.510 -0.8034 -0.0152 -0.4950
  680MOL0     C91671   3.270   5.588   8.648 -0.4309  0.0336  0.0258
  680MOL0     C91672   3.165   5.507   8.693 -0.0268  0.1947 -0.6659
  680MOL0     O91673   3.130   5.492   8.823 -0.0648 -0.1407 -0.3639
  680MOL0     C91674   3.010   5.561   8.864 -0.3310  0.1765  0.0035
  680MOL0     C91675   3.061   5.689   8.932 -0.6903  0.7167  0.0089
  680MOL0     C91676   2.954   5.791   8.958  0.6966 -0.0180 -0.0199
  680MOL0     C91677   2.858   5.758   9.085 -0.5150 -0.0547 -0.5532
  680MOL0     C91678   2.746   5.851   9.132 -0.6768 -1.0441  0.1930
  680MOL0     C91679   2.651   5.870   9.025  1.0943 -0.2033 -0.4149
  680MOL0     C91680   2.547   5.973   9.077  0.2797 -0.1809  0.2461
  680MOL0     C91681   2.467   5.928   9.200  0.6859  1.0113  0.8536
  680MOL0     N91682   2.334   5.999   9.210 -1.5106  0.3100  0.3767
  680MOL0     C91683   2.326   6.133   9.215 -0.0515 -0.7693 -0.3384
  680MOL0     C91684   2.190   6.149   9.233  0.1609  0.7138 -0.0985
  680MOL0     C91685   2.137   6.282   9.271  0.0809 -0.3423  0.8960
  680MOL0     C91686   2.095   6.365   9.147  0.4667 -0.5809 -1.2239
  680MOL0     C91687   2.028   6.494   9.190  0.0952  0.4253  0.2432
  680MOL0     C91688   2.131   6.591   9.249 -0.5617 -0.8768  0.4573
  680MOL0     O91689   2.071   6.721   9.282 -0.7472 -0.2542 -0.1881
  680MOL0     C91690   2.034   6.761   9.402 -0.1151 -0.6376 -0.0273
  680MOL0     C91691   2.004   6.899   9.406  0.3632 -0.0079 -0.2966
  680MOL0     C91692   1.968   6.946   9.534 -0.0902 -0.4637  0.3431
  680MOL0     C91693   1.945   7.092   9.542 -0.3547  0.0686  0.8752
  680MOL0     C91694   1.967   6.859   9.652  0.7233  0.9097  0.3720
  680MOL0     C91695   1.951   6.906   9.794 -0.3748 -0.6457  1.2282
  680MOL0     O91696   1.884   7.029   9.821  0.1591 -0.3912  0.0988
  680MOL0     C91697   1.900   7.101   9.946  0.7689  0.4711 -0.3881
  680MOL0     C91698   2.022   7.108  10.019  0.9165  0.6643 -0.1063
  680MOL0     C91699   2.016   7.166  10.136 -0.1225  0.0930 -0.8345
  680MOL0     C91700   1.901   7.226  10.184  0.4608  0.1531 -1.4016
  680MOL0     O91701   1.921   7.301  10.297 -0.2314 -0.6526 -0.0789
  680MOL0     C91702   1.815   7.296  10.393 -0.3215  0.4051 -0.2689
  680MOL0     C91703   1.863   7.365  10.522  0.2863 -0.0958 -0.2802
  680MOL0     C91704   1.754   7.422  10.617 -0.8320  0.3988 -0.6018
  680MOL0     C91705   1.695   7.306  10.693  0.3134 -0.9019  0.3159
  680MOL0     C91706   1.581   7.348  10.787  0.5569  0.3972 -0.1146
  680MOL0     C91707   1.487   7.235  10.851 -1.6569  0.8624  0.5375
  680MOL0     C91708   1.372   7.286  10.940 -0.7126 -0.2184  0.3158
  680MOL0     C91709   1.256   7.187  10.965 -0.8548  0.4578 -0.1083
  680MOL0    Cl91710   1.332   7.039  11.040  0.4606 -0.0327  0.0886
  680MOL0     C91711   1.788   7.234  10.115  0.4655  0.0650  0.6315
  680MOL0     C91712   1.791   7.169   9.989  0.0360  0.6790 -0.1661
  680MOL0     O91713   2.024   6.850   9.869 -0.6851 -0.2498 -0.2757
  680MOL0     C91714   2.005   6.725   9.639  0.4506 -0.4034 -0.2893
  680MOL0     C91715   2.045   6.682   9.516  0.0959  1.1640 -0.2892
  680MOL0     N91716   2.120   6.027   9.232  0.0785 -0.7337  0.4482
  680MOL0     N91717   2.214   5.942   9.220  0.4709  1.0184 -0.1035
  680MOL0     C91718   3.085   5.443   8.598 -1.0029 -0.4569 -0.7795
  680MOL0     C91719   3.124   5.437   8.468  0.2572 -0.0853 -0.0843
  680MOL0     C91720   3.428   5.452   8.114  0.1326  0.6379 -0.0319
  680MOL0     C91721   3.467   5.584   8.093  0.1976 -0.3528 -0.6348
  680MOL0     C91722   3.552   5.623   7.991  0.4250 -0.0227  0.0691
  680MOL0     C91723   3.597   5.523   7.898  0.2093 -0.4506 -0.6974
  680MOL0     O91724   3.703   5.547   7.810  0.3945 -0.1021  0.3010
  680MOL0     C91725   3.766   5.673   7.825 -0.9197  0.0641 -0.1113
  680MOL0     C91726   3.711   5.795   7.765 -0.2469  0.8130 -0.4847
  680MOL0     C91727   3.797   5.913   7.773 -0.5477  0.0578  0.2852
  680MOL0     C91728   3.773   5.999   7.899  0.5544 -0.2465 -0.2263
  680MOL0     C91729   3.632   6.039   7.927  0.1041  0.3598  0.7291
  680MOL0     C91730   3.507   6.066   7.943 -0.5701  0.1706  0.9563
  680MOL0     C91731   3.546   5.394   7.915 -1.1807  0.5118  0.9877
  680MOL0     C91732   3.466   5.353   8.016 -0.4414 -0.7894 -0.6064
  680MOL0     H91733   3.387   5.641   8.476 -1.6302  0.5321 -1.7417
  680MOL0     H91734   3.315   5.646   8.728 -2.3681 -0.5787  1.6347
  680MOL0     H91735   2.946   5.576   8.777 -2.5247 -2.1070  1.0725
  680MOL0     H91736   2.973   5.484   8.934  0.7215 -1.4470 -1.1545
  680MOL0     H91737   3.096   5.649   9.028  1.5188  4.9210  1.1989
  680MOL0     H91738   3.143   5.732   8.873 -0.2987  1.6164  1.1662
  680MOL0     H91739   2.997   5.885   8.991 -0.5191  0.8080 -0.7256
  680MOL0     H91740   2.898   5.818   8.868 -2.9622 -0.9590  1.7817
  680MOL0     H91741   2.802   5.665   9.069  0.8297 -1.0733  0.5505
  680MOL0     H91742   2.927   5.742   9.168 -1.2023 -0.7837 -0.1075
  680MOL0     H91743   2.709   5.806   9.224  1.1835  1.0175  2.0531
  680MOL0     H91744   2.797   5.945   9.154  1.8213 -1.7038 -2.1649
  680MOL0     H91745   2.697   5.919   8.938  0.3780 -1.1149 -1.3328
  680MOL0     H91746   2.599   5.779   8.992 -0.7357  0.9699 -0.9514
  680MOL0     H91747   2.607   6.061   9.098 -0.5485 -0.0328  2.2249
  680MOL0     H91748   2.490   6.000   8.988  2.3059 -2.3054 -1.8572
  680MOL0     H91749   2.519   5.939   9.296 -3.9738  1.7100  3.6261
  680MOL0     H91750   2.438   5.827   9.172 -1.8342  2.7217 -3.7065
  680MOL0     H91751   2.412   6.199   9.212  2.0362 -3.3040  0.0515
  680MOL0     H91752   2.056   6.266   9.343 -1.9402 -0.3677 -1.2709
  680MOL0     H91753   2.222   6.345   9.300 -1.5116  2.9594 -1.0693
  680MOL0     H91754   2.017   6.311   9.093 -1.9638 -1.5692  2.8756
  680MOL0     H91755   2.175   6.380   9.074 -0.1931 -4.2503 -2.9072
  680MOL0     H91756   1.955   6.469   9.268 -0.2225 -2.0827 -0.7461
  680MOL0     H91757   1.971   6.539   9.109 -1.6628 -0.7675  0.7498
  680MOL0     H91758   2.218   6.607   9.186  1.1019  0.7602  2.9533
  680MOL0     H91759   2.185   6.541   9.330  0.1014 -1.3805 -0.2836
  680MOL0     H91760   2.021   6.959   9.317  2.4609  1.1713  0.8345
  680MOL0     H91761   1.846   7.119   9.581 -1.2494 -1.2581 -0.3620
  680MOL0     H91762   2.023   7.145   9.596 -0.7055  0.8868  0.6006
  680MOL0     H91763   1.954   7.120   9.437 -1.0128 -3.0526 -0.1110
  680MOL0     H91764   2.111   7.054   9.987 -1.1227 -3.6517  0.7129
  680MOL0     H91765   2.109   7.165  10.192 -0.8542 -1.4647  0.4192
  680MOL0     H91766   1.719   7.334  10.357 -0.5769 -0.7534 -0.8377
  680MOL0     H91767   1.798   7.190  10.413 -0.9678  0.7760  1.3451
  680MOL0     H91768   1.931   7.316  10.592 -1.3302  0.2743  1.6446
  680MOL0     H91769   1.922   7.452  10.491  0.6534  0.0982  0.9443
  680MOL0     H91770   1.689   7.485  10.555 -2.4067 -3.0288 -2.7375
  680MOL0     H91771   1.806   7.491  10.684  2.3031  1.5967 -3.9254
  680MOL0     H91772   1.651   7.240  10.618  0.9687 -0.5753 -0.3617
  680MOL0     H91773   1.756   7.245  10.760 -2.2461  0.2111  4.0020
  680MOL0     H91774   1.518   7.419  10.733  2.7609  3.8744  1.5045
  680MOL0     H91775   1.640   7.401  10.862 -0.6536  0.6583  0.6658
  680MOL0     H91776   1.449   7.189  10.759  2.5884 -2.6366  0.1848
  680MOL0     H91777   1.540   7.161  10.912  0.7745  2.0954  0.0380
  680MOL0     H91778   1.342   7.378  10.889  3.4911  0.7229 -0.7917
  680MOL0     H91779   1.416   7.320  11.034 -0.5215  1.7239 -0.4432
  680MOL0     H91780   1.199   7.156  10.877 -1.1972 -1.4740  0.7426
  680MOL0     H91781   1.192   7.238  11.038  0.7325  2.0445  0.2454
  680MOL0     H91782   1.694   7.287  10.119  1.7779  2.7480 -1.1905
  680MOL0     H91783   1.705   7.179   9.923 -3.7970  0.9420  4.3238
  680MOL0     H91784   2.001   6.661   9.727  0.4497 -0.5384 -0.3885
  680MOL0     H91785   2.066   6.575   9.519 -1.1955  0.9051  0.6715
  680MOL0     H91786   2.989   5.406   8.632 -0.7547 -0.5609 -0.1747
  680MOL0     H91787   3.066   5.382   8.395 -1.3702 -2.4977  2.8322
  680MOL0     H91788   3.422   5.658   8.158  0.1622 -0.7205 -0.2408
  680MOL0     H91789   3.579   5.726   7.970 -4.0614  1.1861 -1.0503
  680MOL0     H91790   3.789   5.700   7.928  0.2863 -0.2153 -0.3023
  680MOL0     H91791   3.867   5.662   7.784 -0.6760 -0.1061  0.5323
  680MOL0     H91792   3.608   5.825   7.788  0.3965  3.4456 -0.7775
  680MOL0     H91793   3.698   5.764   7.661 -0.5730  2.3773 -0.9436
  680MOL0     H91794   3.765   5.979   7.691 -4.6043 -1.1977  0.6592
  680MOL0     H91795   3.902   5.886   7.756 -0.8986 -0.0076 -2.2975
  680MOL0     H91796   3.838   6.086   7.909 -1.7436  1.5223  0.0321
  680MOL0     H91797   3.799   5.930   7.981 -4.3230  0.6495  2.4371
  680MOL0     H91798   3.406   6.071   7.976 -0.2633 -2.4679  2.6153
  680MOL0     H91799   3.582   5.330   7.835  2.5782  2.0334  1.2697
  680MOL0     H91800   3.442   5.247   8.020  3.3279 -1.7315  1.4851
  681MOL0     O91801   1.881   4.906   1.524 -0.0843  0.3021 -0.4034
  681MOL0     C91802   1.784   4.881   1.448 -0.3820 -0.8558  0.3874
  681MOL0     O91803   1.787   4.915   1.314  0.5378  0.9658  0.7923
  681MOL0     C91804   1.903   4.955   1.260 -0.0594  0.2187  0.1275
  681MOL0     C91805   1.952   5.091   1.285  0.4523  0.6014 -0.4606
  681MOL0     C91806   2.070   5.130   1.220  0.1120  0.1514 -0.2106
  681MOL0     C91807   2.129   5.054   1.125  1.4192  0.4139  0.0324
  681MOL0     O91808   2.236   5.095   1.051 -0.9503  0.2237 -0.2978
  681MOL0     C91809   2.240   5.239   1.019 -0.2742 -0.4078 -0.4579
  681MOL0     C91810   2.120   5.300   0.940 -0.6395 -0.8179  0.4835
  681MOL0     C91811   2.119   5.236   0.797 -0.0759 -0.3940 -1.2139
  681MOL0     C91812   2.214   5.299   0.697 -0.0660  0.7272  0.5621
  681MOL0     C91813   2.171   5.446   0.677  0.2314  0.4980  0.0214
  681MOL0     C91814   2.239   5.501   0.554 -0.3730 -0.0428 -1.0420
  681MOL0     C91815   2.177   5.637   0.528 -1.1079 -1.0488 -0.3888
  681MOL0     C91816   2.221   5.709   0.400  0.1311 -0.3738  0.7125
  681MOL0     N91817   2.171   5.850   0.392  0.3436  0.7006  0.1926
  681MOL0     C91818   2.045   5.885   0.361 -0.5112 -0.7015  1.1483
  681MOL0     C91819   2.036   6.020   0.383  0.6684  0.5949 -0.4649
  681MOL0     C91820   1.922   6.111   0.343  0.6671 -0.9854 -0.6769
  681MOL0     C91821   1.802   6.111   0.434 -0.3991 -0.2625  0.0138
  681MOL0     C91822   1.841   6.152   0.571  0.9707 -0.2675 -0.4179
  681MOL0     C91823   1.730   6.159   0.686 -0.2889  0.4287 -0.0355
  681MOL0     O91824   1.703   6.291   0.751 -0.5067 -0.5770 -0.7413
  681MOL0     C91825   1.800   6.388   0.789  0.2980 -0.1685  0.3855
  681MOL0     C91826   1.765   6.522   0.808 -0.1029  0.6551  0.5466
  681MOL0     C91827   1.863   6.620   0.841 -0.2810  0.6482 -0.8582
  681MOL0     C91828   1.809   6.754   0.886  0.3324  0.8174 -0.3412
  681MOL0     C91829   1.998   6.575   0.832 -0.6797 -0.3058 -0.0573
  681MOL0     C91830   2.105   6.674   0.840 -0.5274  0.0758 -0.5873
  681MOL0     O91831   2.117   6.754   0.729  0.0811  0.5457 -0.4121
  681MOL0     C91832   2.217   6.847   0.712  0.0796  0.4735 -0.3635
  681MOL0     C91833   2.347   6.841   0.772  0.5042  0.0284  0.5045
  681MOL0     C91834   2.441   6.944   0.752  0.9136 -0.5875 -0.2519
  681MOL0     C91835   2.397   7.056   0.678 -0.5814 -0.1923  0.4396
  681MOL0     O91836   2.475   7.167   0.652  0.0568 -0.6871 -0.0248
  681MOL0     C91837   2.593   7.183   0.727 -0.1244 -0.8105 -0.2210
  681MOL0     C91838   2.566   7.220   0.876  0.6636  0.3359 -0.7211
  681MOL0     C91839   2.673   7.308   0.926  0.3134  0.6359  0.2105
  681MOL0     C91840   2.676   7.450   0.868 -0.4891 -0.6264  0.8502
  681MOL0     C91841   2.766   7.532   0.952 -0.1305  0.4296  0.4708
  681MOL0     C91842   2.773   7.681   0.900  0.3389 -0.5477  1.6322
  681MOL0     C91843   2.891   7.763   0.963 -0.6571 -0.5546  0.1407
  681MOL0     C91844   3.008   7.766   0.857 -0.7255 -0.0138 -0.1082
  681MOL0    Cl91845   2.969   7.891   0.734 -0.5088 -0.0817 -0.1599
  681MOL0     C91846   2.270   7.057   0.619  0.3220  0.3674  0.3589
  681MOL0     C91847   2.182   6.957   0.632 -0.1394 -0.7712 -0.2897
  681MOL0     O91848   2.170   6.689   0.945 -0.6946  0.6831  0.2174
  681MOL0     C91849   2.033   6.443   0.823 -0.5616  0.0920  0.7705
  681MOL0     C91850   1.934   6.350   0.802  0.8794 -0.6759 -0.4192
  681MOL0     N91851   2.152   6.062   0.441 -0.2381 -0.7697 -0.4702
  681MOL0     N91852   2.227   5.956   0.441 -0.1302 -0.4323  0.3371
  681MOL0     C91853   2.085   4.913   1.111  0.1103  0.2200 -1.4615
  681MOL0     C91854   1.975   4.867   1.183 -0.2056  0.8865  0.0839
  681MOL0     C91855   1.654   4.842   1.507  1.2355  0.2496 -0.3373
  681MOL0     C91856   1.530   4.869   1.442 -0.0535  0.1579  0.3972
  681MOL0     C91857   1.411   4.806   1.489 -0.4666 -0.3272  0.0782
  681MOL0     C91858   1.407   4.728   1.601  0.5503  0.4098  0.8129
  681MOL0     O91859   1.292   4.673   1.662  0.1222  0.0031  0.1428
  681MOL0     C91860   1.161   4.712   1.604  0.3058 -0.3358 -0.0717
  681MOL0     C91861   1.131   4.650   1.466  0.4295  0.9695 -0.2595
  681MOL0     C91862   1.005   4.706   1.401  0.0402  0.5887 -1.1641
  681MOL0     C91863   0.948   4.618   1.297 -0.3315  1.3108  0.2163
  681MOL0     C91864   0.840   4.687   1.231 -0.0573  0.5220 -0.9676
  681MOL0     C91865   0.739   4.748   1.196  0.9962 -0.1728  0.7937
  681MOL0     C91866   1.530   4.716   1.671  0.9341  0.4711 -0.9982
  681MOL0     C91867   1.645   4.775   1.624  0.9848 -0.3450 -0.4919
  681MOL0     H91868   1.892   5.155   1.348  1.9210  0.8271  0.7804
  681MOL0     H91869   2.121   5.223   1.242 -0.9730  0.6285  0.3948
  681MOL0     H91870   2.267   5.293   1.111  1.3652 -1.2944 -0.3990
  681MOL0     H91871   2.328   5.254   0.956  1.5916  1.1257  2.3006
  681MOL0     H91872   2.022   5.280   0.983 -2.0038  1.3969 -1.4043
  681MOL0     H91873   2.122   5.409   0.934  0.4385 -0.8859 -0.8284
  681MOL0     H91874   2.135   5.128   0.802 -0.4600 -0.3921  0.7091
  681MOL0     H91875   2.014   5.254   0.770 -0.0167  1.3590 -0.4235
  681MOL0     H91876   2.321   5.293   0.717  0.1788 -1.1846 -0.9861
  681MOL0     H91877   2.205   5.231   0.612  0.4043 -0.9384  1.7953
  681MOL0     H91878   2.063   5.452   0.665 -0.0522 -1.0080  1.4503
  681MOL0     H91879   2.195   5.501   0.769  1.8709 -1.2220  0.6936
  681MOL0     H91880   2.346   5.522   0.558 -0.3326 -0.3385 -0.3821
  681MOL0     H91881   2.219   5.435   0.470 -2.1003  0.6667 -1.2308
  681MOL0     H91882   2.068   5.642   0.538 -1.0609  0.5200 -0.4235
  681MOL0     H91883   2.215   5.702   0.608 -0.8329  1.2041 -2.2581
  681MOL0     H91884   2.194   5.649   0.313  0.5160 -1.3915  1.2853
  681MOL0     H91885   2.330   5.719   0.403  0.2545 -0.4835 -1.7236
  681MOL0     H91886   1.976   5.815   0.316  2.5976 -3.3443  0.0858
  681MOL0     H91887   1.954   6.216   0.345 -2.8625  0.1902  0.3267
  681MOL0     H91888   1.892   6.102   0.238 -0.2522  2.0307 -0.7795
  681MOL0     H91889   1.763   6.009   0.435  2.1670 -1.3377 -0.9197
  681MOL0     H91890   1.720   6.172   0.394  1.7340  2.4296 -0.5399
  681MOL0     H91891   1.898   6.246   0.576 -0.7843  0.9947 -2.2720
  681MOL0     H91892   1.902   6.067   0.603 -1.5224 -2.5787 -1.4172
  681MOL0     H91893   1.745   6.088   0.767  0.7569 -1.8718 -2.1218
  681MOL0     H91894   1.638   6.124   0.639 -0.3954  0.8644 -0.1563
  681MOL0     H91895   1.660   6.548   0.818 -0.4106 -0.6554  0.9555
  681MOL0     H91896   1.870   6.837   0.852  0.3949 -0.0838 -2.6084
  681MOL0     H91897   1.711   6.773   0.842 -0.4563 -0.2054  0.8844
  681MOL0     H91898   1.783   6.768   0.991 -5.3611 -0.4474 -1.2650
  681MOL0     H91899   2.383   6.758   0.832  2.9394  1.9388  1.9234
  681MOL0     H91900   2.544   6.945   0.785  0.7164 -1.6465  0.4618
  681MOL0     H91901   2.652   7.094   0.704 -0.0015 -0.8146  0.1122
  681MOL0     H91902   2.647   7.267   0.681 -1.7481  0.9105  0.8933
  681MOL0     H91903   2.471   7.275   0.878  1.5783  1.9475  0.5018
  681MOL0     H91904   2.548   7.130   0.935  0.2953  1.2598  0.6245
  681MOL0     H91905   2.774   7.268   0.912  0.6464  1.1837  0.9815
  681MOL0     H91906   2.656   7.318   1.034 -3.1963 -0.0156 -0.1731
  681MOL0     H91907   2.719   7.460   0.768 -2.1917  0.8387  0.2107
  681MOL0     H91908   2.586   7.512   0.866  0.5568  0.9197 -0.2180
  681MOL0     H91909   2.868   7.493   0.950 -0.4724 -0.9895  3.4732
  681MOL0     H91910   2.736   7.538   1.058 -1.6627  0.3210  0.0660
  681MOL0     H91911   2.792   7.683   0.792  4.7653  0.9624  2.2276
  681MOL0     H91912   2.684   7.742   0.918  1.5059  1.6874  0.2940
  681MOL0     H91913   2.918   7.727   1.062 -2.4032  0.9040  1.2240
  681MOL0     H91914   2.866   7.867   0.988 -0.9781 -0.5779 -0.0761
  681MOL0     H91915   3.029   7.668   0.812  3.5302  0.0298  1.3594
  681MOL0     H91916   3.098   7.792   0.913 -0.0383 -0.5325 -0.9490
  681MOL0     H91917   2.249   7.146   0.559 -0.4523  1.0312  1.5854
  681MOL0     H91918   2.082   6.975   0.596  0.2063  0.4465 -0.6900
  681MOL0     H91919   2.135   6.409   0.823 -0.5404 -0.0273 -1.4444
  681MOL0     H91920   1.969   6.248   0.799  1.6122 -0.6054  2.5795
  681MOL0     H91921   2.127   4.842   1.041 -1.4169 -0.7233 -1.4578
  681MOL0     H91922   1.934   4.767   1.177  0.0310  0.8740 -2.1869
  681MOL0     H91923   1.524   4.937   1.358 -0.8105  0.3840  0.6200
  681MOL0     H91924   1.334   4.843   1.422 -0.2614  1.8916  0.9893
  681MOL0     H91925   1.077   4.676   1.664  1.7420 -2.2017  0.9169
  681MOL0     H91926   1.150   4.821   1.598  1.0159 -0.2680 -0.2576
  681MOL0     H91927   1.121   4.541   1.478  0.7852  0.5460 -3.0441
  681MOL0     H91928   1.221   4.649   1.404  0.6654 -0.0382  0.0783
  681MOL0     H91929   1.033   4.802   1.358  3.4621 -0.1513 -0.9352
  681MOL0     H91930   0.924   4.721   1.473  1.0927  2.5001 -0.3204
  681MOL0     H91931   0.911   4.523   1.335  0.0029  0.3322 -1.7695
  681MOL0     H91932   1.027   4.605   1.222 -1.7947  3.4689 -1.8740
  681MOL0     H91933   0.654   4.805   1.162  1.1794 -2.1541 -3.7511
  681MOL0     H91934   1.526   4.657   1.762  1.6832 -0.6161 -1.6434
  681MOL0     H91935   1.736   4.768   1.682  0.7674 -1.1788 -0.2459
  682MOL0     O91936   1.792   9.934   0.319 -0.2999 -0.3071 -0.6169
  682MOL0     C91937   1.775   9.819   0.275 -0.4860  0.6023 -0.5022
  682MOL0     O91938   1.651   9.768   0.223 -0.3271 -0.2004 -0.4828
  682MOL0     C91939   1.524   9.833   0.222  0.1099 -1.1102  0.3988
  682MOL0     C91940   1.424   9.762   0.168 -0.6049  0.9664  0.5734
  682MOL0     C91941   1.300   9.813   0.141 -0.2142 -0.4831  0.4768
  682MOL0     C91942   1.269   9.942   0.173 -0.4742 -0.4376  0.3954
  682MOL0     O91943   1.153  10.002   0.146  0.3481  0.0005  0.7397
  682MOL0     C91944   1.037   9.956   0.219 -0.3215  0.1793  0.5167
  682MOL0     C91945   0.918   9.977   0.133 -0.1856 -0.2351  0.3731
  682MOL0     C91946   0.822   9.855   0.155  0.0194 -0.1915 -0.7244
  682MOL0     C91947   0.693   9.879   0.079 -0.3542 -0.2056  0.7180
  682MOL0     C91948   0.594   9.973   0.143 -0.1012  0.1722 -0.1664
  682MOL0     C91949   0.454   9.972   0.076  0.6680 -0.8574 -0.0073
  682MOL0     C91950   0.435  10.042  -0.061  0.5223 -0.2296  0.1971
  682MOL0     C91951   0.304  10.123  -0.051 -0.4010  0.0568  0.5362
  682MOL0     N91952   0.272  10.178  -0.182  0.1347 -0.3233  0.2082
  682MOL0     C91953   0.270  10.109  -0.296  0.3317  1.0958 -0.1228
  682MOL0     C91954   0.282  10.197  -0.399 -0.2496 -0.2935  1.1402
  682MOL0     C91955   0.309  10.170  -0.544 -0.0392  0.0055 -0.0908
  682MOL0     C91956   0.462  10.167  -0.576  0.1196 -0.3272 -1.0548
  682MOL0     C91957   0.491  10.147  -0.722  0.4388  0.6044  1.4137
  682MOL0     C91958   0.465  10.284  -0.792  0.3002  0.2744  0.7531
  682MOL0     O91959   0.471  10.284  -0.936  0.0443  0.2437  0.0027
  682MOL0     C91960   0.356  10.262  -1.011  0.2284 -0.0253  0.6776
  682MOL0     C91961   0.375  10.271  -1.149 -0.3019  0.3625 -0.5335
  682MOL0     C91962   0.284  10.218  -1.244 -0.3374  0.3858 -0.0561
  682MOL0     C91963   0.327  10.206  -1.387 -0.2133 -0.0445 -0.2495
  682MOL0     C91964   0.151  10.184  -1.194 -0.4589 -0.5260 -0.1139
  682MOL0     C91965   0.028  10.177  -1.279  0.2018 -0.1267 -0.5874
  682MOL0     O91966   0.035  10.200  -1.417  0.4452  0.0658 -0.0414
  682MOL0     C91967  -0.077  10.204  -1.489  0.5917 -0.0777  0.4608
  682MOL0     C91968  -0.165  10.098  -1.489  0.2630  0.2520  0.2041
  682MOL0     C91969  -0.277  10.102  -1.569 -0.3470  0.5211  0.0069
  682MOL0     C91970  -0.300  10.214  -1.646 -0.7833 -0.8003 -0.6482
  682MOL0     O91971  -0.414  10.211  -1.721  0.0478  0.4982 -0.4061
  682MOL0     C91972  -0.494  10.327  -1.715  0.6492  0.0443 -0.3071
  682MOL0     C91973  -0.622  10.299  -1.781  0.5797 -0.1253 -0.1809
  682MOL0     C91974  -0.688  10.426  -1.823 -0.1930 -1.0081  0.7701
  682MOL0     C91975  -0.834  10.414  -1.871  0.3898  0.2851  0.4925
  682MOL0     C91976  -0.888  10.541  -1.933 -0.1046  0.2739 -0.6481
  682MOL0     C91977  -1.029  10.520  -1.982 -1.7580  0.4539 -0.4694
  682MOL0     C91978  -1.090  10.642  -2.043  0.5775  0.0204  0.2376
  682MOL0     C91979  -1.227  10.590  -2.083  0.1031  0.1965  0.5865
  682MOL0    Cl91980  -1.305  10.724  -2.149  0.1759 -0.3243 -0.3371
  682MOL0     C91981  -0.211  10.326  -1.648 -0.8669  0.1098 -0.9441
  682MOL0     C91982  -0.104  10.316  -1.566 -0.1024  0.0511  0.9166
  682MOL0     O91983  -0.080  10.151  -1.215  0.2664  0.0681 -0.5953
  682MOL0     C91984   0.130  10.190  -1.051  0.3433  0.2145  0.8187
  682MOL0     C91985   0.234  10.213  -0.963 -0.5366 -0.4192  0.7775
  682MOL0     N91986   0.291  10.325  -0.348 -0.0764 -0.5198 -0.0317
  682MOL0     N91987   0.300  10.313  -0.221  1.2689 -0.1351 -0.3455
  682MOL0     C91988   1.364  10.015   0.242 -0.4477  0.0531  0.5302
  682MOL0     C91989   1.493   9.967   0.265  0.0260  0.1350  0.4583
  682MOL0     C91990   1.892   9.723   0.309 -0.5628 -0.3705  0.6894
  682MOL0     C91991   2.016   9.777   0.349  0.4961  0.7810  0.1092
  682MOL0     C91992   2.126   9.697   0.367 -0.2804  0.3867 -0.3528
  682MOL0     C91993   2.121   9.560   0.337 -0.0400 -0.2135 -0.2647
  682MOL0     O91994   2.238   9.482   0.341 -0.1607  0.0007  0.1929
  682MOL0     C91995   2.315   9.505   0.228 -0.1757  0.3103  0.4724
  682MOL0     C91996   2.458   9.449   0.223  0.6402  0.8385 -0.6954
  682MOL0     C91997   2.562   9.544   0.290 -0.0092 -0.1676  0.6508
  682MOL0     C91998   2.555   9.562   0.438 -0.9949 -0.5861  0.3017
  682MOL0     C91999   2.655   9.487   0.504 -0.4632 -0.3620 -0.1451
  682MOL0     C92000   2.737   9.408   0.544 -0.5158  1.0486 -0.0283
  682MOL0     C92001   1.999   9.516   0.285 -0.4393  0.6525 -0.1363
  682MOL0     C92002   1.878   9.591   0.275 -0.0876  0.0032 -0.0207
  682MOL0     H92003   1.447   9.658   0.144  0.1253  0.6917  2.3404
  682MOL0     H92004   1.233   9.740   0.097  0.5896 -0.0977 -1.4774
  682MOL0     H92005   1.044   9.849   0.242 -0.8958 -0.1517 -0.7230
  682MOL0     H92006   1.024  10.010   0.313 -2.0483  0.6401  0.0610
  682MOL0     H92007   0.876  10.073   0.164  1.3780 -0.0392  2.0992
  682MOL0     H92008   0.951   9.987   0.029 -1.0532 -2.2781 -0.1532
  682MOL0     H92009   0.871   9.765   0.115  0.8102 -1.7110  3.1530
  682MOL0     H92010   0.799   9.835   0.260  2.0484  2.8526  0.4496
  682MOL0     H92011   0.724   9.917  -0.019  1.9898 -4.1453 -0.2952
  682MOL0     H92012   0.641   9.787   0.052  1.4668 -1.2829  0.7751
  682MOL0     H92013   0.573   9.949   0.247 -1.1867  0.7949 -0.2302
  682MOL0     H92014   0.629  10.075   0.125 -0.5567  0.3345 -0.1308
  682MOL0     H92015   0.438   9.866   0.054  1.3720 -0.3943 -3.3349
  682MOL0     H92016   0.389  10.004   0.158  0.7323 -0.5496 -0.0766
  682MOL0     H92017   0.521  10.107  -0.082 -0.8294  2.2154  1.6986
  682MOL0     H92018   0.421   9.969  -0.141 -3.0936 -0.3423  0.7472
  682MOL0     H92019   0.305  10.204   0.022 -1.5311  0.4315  0.1466
  682MOL0     H92020   0.223  10.065  -0.005 -0.7786  1.1749  1.3246
  682MOL0     H92021   0.279  10.003  -0.315 -0.0690  1.0863 -0.2641
  682MOL0     H92022   0.265  10.072  -0.564  1.2112 -1.2643  2.8326
  682MOL0     H92023   0.260  10.249  -0.601  0.2388  0.5995  0.4735
  682MOL0     H92024   0.516  10.095  -0.513 -0.8618 -2.2807 -2.3292
  682MOL0     H92025   0.509  10.260  -0.543  1.0878 -1.5635  1.3150
  682MOL0     H92026   0.416  10.080  -0.765  1.3137  1.8416 -2.4852
  682MOL0     H92027   0.594  10.112  -0.734 -0.0308 -0.3429 -0.0589
  682MOL0     H92028   0.542  10.347  -0.747  0.0468  0.2862  1.1758
  682MOL0     H92029   0.366  10.324  -0.767 -0.6350  1.0486 -3.4105
  682MOL0     H92030   0.471  10.305  -1.185  1.7693 -4.5169 -0.3585
  682MOL0     H92031   0.305  10.301  -1.437 -1.6011 -1.1632 -1.8939
  682MOL0     H92032   0.433  10.187  -1.402 -0.4670 -1.8142  0.0038
  682MOL0     H92033   0.275  10.131  -1.448 -2.6151  0.7408  0.7049
  682MOL0     H92034  -0.144  10.021  -1.416  0.8039  0.6244  0.4427
  682MOL0     H92035  -0.349  10.021  -1.571  0.8212 -0.8354  3.7629
  682MOL0     H92036  -0.518  10.354  -1.612  1.3378 -1.0055  0.1378
  682MOL0     H92037  -0.449  10.415  -1.763  2.1145  2.4763  4.8642
  682MOL0     H92038  -0.608  10.226  -1.861  0.9727  1.0853 -1.2448
  682MOL0     H92039  -0.678  10.257  -1.696  0.8695 -1.9727 -0.8465
  682MOL0     H92040  -0.630  10.473  -1.903 -0.7197  1.3188  1.6822
  682MOL0     H92041  -0.684  10.495  -1.738  1.1998 -0.1885  0.0719
  682MOL0     H92042  -0.842  10.334  -1.945  3.2703  0.3914 -0.0541
  682MOL0     H92043  -0.905  10.376  -1.797 -1.4167  1.2415 -0.6707
  682MOL0     H92044  -0.829  10.565  -2.022 -1.1250 -0.6883 -1.6085
  682MOL0     H92045  -0.880  10.634  -1.875 -0.1149 -0.6124  0.8437
  682MOL0     H92046  -1.027  10.432  -2.047 -1.3317 -0.4673  0.7382
  682MOL0     H92047  -1.077  10.508  -1.884  2.0916  1.1395  1.6936
  682MOL0     H92048  -1.029  10.668  -2.129  2.5891 -1.5609  1.0988
  682MOL0     H92049  -1.107  10.722  -1.971 -1.0098 -2.2005  2.5507
  682MOL0     H92050  -1.288  10.563  -1.997  0.2270  1.0258  0.9527
  682MOL0     H92051  -1.221  10.508  -2.155  1.1316  2.9699 -2.7636
  682MOL0     H92052  -0.215  10.425  -1.693  3.7979 -0.0361 -2.2563
  682MOL0     H92053  -0.040  10.403  -1.560 -0.4843  0.2437  2.9341
  682MOL0     H92054   0.026  10.189  -1.022 -0.1579 -0.2565 -0.9100
  682MOL0     H92055   0.217  10.196  -0.857  1.3851  3.3278  1.9072
  682MOL0     H92056   1.347  10.116   0.279 -1.1292  0.3022 -0.4179
  682MOL0     H92057   1.562  10.036   0.312  1.0898 -0.8102  0.3344
  682MOL0     H92058   2.037   9.881   0.374  0.5490  0.6002  0.8573
  682MOL0     H92059   2.221   9.737   0.401  1.4602 -2.8923 -0.9816
  682MOL0     H92060   2.263   9.459   0.143 -0.3014 -0.7123  1.0864
  682MOL0     H92061   2.320   9.610   0.201 -0.0314 -0.0932 -1.1929
  682MOL0     H92062   2.491   9.439   0.119 -0.0936 -1.8200 -0.7327
  682MOL0     H92063   2.454   9.356   0.280  1.0747  1.9419  1.2213
  682MOL0     H92064   2.564   9.642   0.241  5.7062 -0.4207 -0.3647
  682MOL0     H92065   2.661   9.505   0.264  1.5057  3.4636  0.3895
  682MOL0     H92066   2.461   9.520   0.477 -0.3499 -3.1273 -0.7013
  682MOL0     H92067   2.571   9.669   0.452 -1.5912 -0.5029  0.3951
  682MOL0     H92068   2.813   9.336   0.566 -1.1418 -0.1157 -1.5225
  682MOL0     H92069   2.010   9.412   0.260 -0.1286  0.2975  1.3487
  682MOL0     H92070   1.785   9.550   0.237 -1.1481  1.1094  1.2782
  683MOL0     O92071  11.018   2.274   3.137 -0.1106 -0.7258 -0.1466
  683MOL0     C92072  10.977   2.190   3.217  0.0555 -0.9742 -0.4356
  683MOL0     O92073  10.979   2.201   3.354  0.0227 -0.2466  1.0429
  683MOL0     C92074  11.049   2.310   3.413 -0.2254  0.4942  0.4749
  683MOL0     C92075  10.980   2.428   3.432 -0.2858 -0.1735  0.2451
  683MOL0     C92076  11.049   2.548   3.463 -0.6649 -0.8708 -0.3344
  683MOL0     C92077  11.185   2.546   3.483  0.5788  0.1293  0.0594
  683MOL0     O92078  11.268   2.645   3.516  0.2993 -0.4117 -0.2617
  683MOL0     C92079  11.223   2.738   3.621  0.1995 -0.6771 -0.5071
  683MOL0     C92080  11.338   2.771   3.711 -0.5447  0.5284  0.7940
  683MOL0     C92081  11.452   2.837   3.634 -0.4681  0.1441 -0.6399
  683MOL0     C92082  11.562   2.865   3.731  0.0569  0.0091  0.4605
  683MOL0     C92083  11.660   2.965   3.671 -0.0120  0.3818  0.2937
  683MOL0     C92084  11.757   2.991   3.771 -0.5110  0.3525 -0.4243
  683MOL0     C92085  11.874   3.078   3.730 -0.7406 -0.4560 -0.3407
  683MOL0     C92086  11.953   3.127   3.856  0.0388 -0.5918  0.2057
  683MOL0     N92087  12.070   3.210   3.817 -0.3887  0.2309  0.5028
  683MOL0     C92088  12.173   3.179   3.735 -0.2335 -1.0392  0.6603
  683MOL0     C92089  12.265   3.278   3.747 -0.2094 -0.3159 -0.8110
  683MOL0     C92090  12.397   3.288   3.667 -0.0527  0.7633  0.8664
  683MOL0     C92091  12.389   3.261   3.510  0.3304  0.7272  1.4494
  683MOL0     C92092  12.329   3.371   3.424 -0.2258 -0.6252 -0.7967
  683MOL0     C92093  12.185   3.403   3.446 -0.0017  0.5303  0.0505
  683MOL0     O92094  12.102   3.285   3.422  0.7123  0.2951 -0.1480
  683MOL0     C92095  11.970   3.306   3.386  0.4199  0.5882 -0.1343
  683MOL0     C92096  11.892   3.200   3.352  1.0230 -0.8483  1.1270
  683MOL0     C92097  11.759   3.216   3.302 -0.3298 -0.0011  0.0485
  683MOL0     C92098  11.686   3.089   3.272  0.3028  1.7414  0.2891
  683MOL0     C92099  11.706   3.343   3.279 -0.4012 -0.7245  0.5205
  683MOL0     C92100  11.565   3.368   3.225 -0.6778 -0.9159  0.8873
  683MOL0     O92101  11.534   3.492   3.194  0.2249 -0.3766 -0.0104
  683MOL0     C92102  11.407   3.538   3.157 -0.6307 -0.4208 -0.2263
  683MOL0     C92103  11.409   3.601   3.031 -0.7271 -0.9318 -1.0621
  683MOL0     C92104  11.297   3.667   2.980  0.3432  0.7583  1.7152
  683MOL0     C92105  11.179   3.663   3.051 -0.1989  0.6281  0.3100
  683MOL0     O92106  11.081   3.755   3.026  0.1245 -0.5971  0.4473
  683MOL0     C92107  11.080   3.824   2.899  0.3479  0.6631  0.2729
  683MOL0     C92108  10.958   3.916   2.918  0.2398 -0.8671  0.2524
  683MOL0     C92109  10.962   4.030   2.820  0.2220 -0.2851  0.3223
  683MOL0     C92110  11.003   3.992   2.681 -0.6525 -0.7095 -0.0155
  683MOL0     C92111  10.956   4.100   2.578 -0.1453  0.5101 -0.9977
  683MOL0     C92112  11.053   4.217   2.560 -0.2017 -0.1944 -0.1809
  683MOL0     C92113  11.027   4.306   2.435 -0.3745 -0.5864  0.1834
  683MOL0     C92114  11.076   4.227   2.306  0.7641 -0.5548 -0.2633
  683MOL0    Cl92115  11.092   4.361   2.182 -0.0904  0.0380  0.2187
  683MOL0     C92116  11.174   3.589   3.175  0.1873  0.8350 -0.1273
  683MOL0     C92117  11.288   3.532   3.224  0.1647 -0.6386  0.7532
  683MOL0     O92118  11.485   3.278   3.216  0.6144 -0.1926  0.1894
  683MOL0     C92119  11.786   3.452   3.313  0.1177  0.8969 -0.9827
  683MOL0     C92120  11.919   3.435   3.376  0.7150 -0.0252 -0.6073
  683MOL0     N92121  12.216   3.364   3.847  0.8625  0.4465  0.5619
  683MOL0     N92122  12.110   3.321   3.891  0.3372  0.0006 -0.8263
  683MOL0     C92123  11.246   2.419   3.477  0.2091 -1.1893 -0.3277
  683MOL0     C92124  11.193   2.298   3.441  0.3684 -0.1633 -0.6475
  683MOL0     C92125  10.920   2.065   3.159  0.1627  1.3130 -0.0456
  683MOL0     C92126  10.835   1.985   3.231  0.9477  0.5262 -0.5780
  683MOL0     C92127  10.809   1.857   3.191  0.2039  0.0371  0.3853
  683MOL0     C92128  10.834   1.821   3.054 -0.2470 -0.3760 -0.0675
  683MOL0     O92129  10.802   1.704   2.994  0.5818  0.0387 -0.1844
  683MOL0     C92130  10.753   1.597   3.083  0.0689  0.1220  0.5418
  683MOL0     C92131  10.744   1.464   3.008 -0.8619  1.0528 -0.3687
  683MOL0     C92132  10.664   1.365   3.087 -0.2515 -0.7036  1.6529
  683MOL0     C92133  10.519   1.353   3.045  0.3140  0.7865  0.1212
  683MOL0     C92134  10.432   1.467   3.083 -0.6782 -0.3267 -0.2766
  683MOL0     C92135  10.364   1.563   3.109  1.0941  0.0452 -0.1841
  683MOL0     C92136  10.892   1.917   2.970 -0.4496 -0.8201  0.3657
  683MOL0     C92137  10.940   2.033   3.028  0.0752  0.0022 -0.1656
  683MOL0     H92138  10.872   2.437   3.432 -0.1962  1.8618 -1.5782
  683MOL0     H92139  10.993   2.640   3.475 -0.7160 -0.9024 -0.3333
  683MOL0     H92140  11.183   2.833   3.587  3.2251  1.7976  2.1355
  683MOL0     H92141  11.145   2.693   3.684  3.4934 -4.7281  1.1864
  683MOL0     H92142  11.300   2.839   3.789  1.2237  1.6351  0.7440
  683MOL0     H92143  11.367   2.685   3.773 -1.7341  1.5619  2.9329
  683MOL0     H92144  11.488   2.761   3.565  0.2810 -1.6630  1.6279
  683MOL0     H92145  11.424   2.934   3.592  0.7420  0.5378 -0.5636
  683MOL0     H92146  11.523   2.913   3.821  0.6692  0.5624  0.4340
  683MOL0     H92147  11.603   2.768   3.761  1.4300  0.8070  1.2412
  683MOL0     H92148  11.709   2.929   3.581  1.2452 -0.2302  1.1881
  683MOL0     H92149  11.602   3.054   3.646 -1.4883 -0.4411  0.6470
  683MOL0     H92150  11.699   3.043   3.848  1.0444 -0.3332  1.2905
  683MOL0     H92151  11.791   2.895   3.810  0.3699  2.3311  4.4666
  683MOL0     H92152  11.929   3.008   3.668 -2.8084 -0.8922 -1.7893
  683MOL0     H92153  11.848   3.169   3.677 -3.0286  0.5130  2.1821
  683MOL0     H92154  11.989   3.047   3.921  0.3905 -2.1254 -1.7586
  683MOL0     H92155  11.879   3.182   3.915 -0.6452 -2.8732  1.6324
  683MOL0     H92156  12.172   3.101   3.661 -0.7942  0.5642 -1.0962
  683MOL0     H92157  12.454   3.380   3.685 -1.4160  1.7879  0.1401
  683MOL0     H92158  12.459   3.210   3.712  1.2925  1.2851 -0.0163
  683MOL0     H92159  12.313   3.186   3.485 -3.2290  4.4321  0.1481
  683MOL0     H92160  12.483   3.243   3.457 -0.5548  4.6484 -1.9974
  683MOL0     H92161  12.335   3.344   3.318 -2.9858 -0.2868 -1.1118
  683MOL0     H92162  12.386   3.464   3.435  1.3139 -1.5201 -0.8588
  683MOL0     H92163  12.169   3.494   3.387  3.4301  0.7321 -0.7451
  683MOL0     H92164  12.159   3.441   3.546 -4.0081  0.8440 -0.9442
  683MOL0     H92165  11.932   3.100   3.365 -0.1384 -1.3380  0.9811
  683MOL0     H92166  11.676   3.066   3.166  1.2314 -1.4924  0.7998
  683MOL0     H92167  11.739   3.008   3.322 -0.0692  1.1187 -0.3208
  683MOL0     H92168  11.585   3.095   3.313  0.5028  0.7894  0.9541
  683MOL0     H92169  11.509   3.608   2.989  0.7692 -2.9911  1.8126
  683MOL0     H92170  11.303   3.721   2.887 -0.4583 -1.1397  0.4930
  683MOL0     H92171  11.161   3.896   2.882  0.0855  0.9621  0.2851
  683MOL0     H92172  11.072   3.766   2.806  0.0495 -0.6350  1.0748
  683MOL0     H92173  10.871   3.852   2.903 -2.2944  2.4690 -0.4602
  683MOL0     H92174  10.949   3.957   3.019  1.1762  1.0180 -0.3875
  683MOL0     H92175  11.047   4.095   2.841  0.8122 -0.0380 -2.4459
  683MOL0     H92176  10.864   4.078   2.818 -0.7535 -2.1610 -1.3675
  683MOL0     H92177  11.110   3.977   2.665 -1.1765 -1.8781 -3.3921
  683MOL0     H92178  10.955   3.896   2.658 -0.8991 -1.0697  1.8273
  683MOL0     H92179  10.857   4.128   2.613 -0.7650 -0.5038 -1.8737
  683MOL0     H92180  10.958   4.040   2.486  1.7808  0.9536 -1.2913
  683MOL0     H92181  11.030   4.288   2.640 -4.7882 -0.1275 -1.2857
  683MOL0     H92182  11.153   4.172   2.563 -1.2878 -2.6650  0.9970
  683MOL0     H92183  11.084   4.398   2.450 -1.3013  0.0008  0.1336
  683MOL0     H92184  10.923   4.338   2.424 -0.2962 -0.2445  0.4273
  683MOL0     H92185  10.997   4.156   2.278  1.8517 -1.0962 -2.1511
  683MOL0     H92186  11.170   4.175   2.327  0.7380  0.3591  2.5458
  683MOL0     H92187  11.087   3.592   3.240  0.1475 -0.0302 -0.1241
  683MOL0     H92188  11.274   3.469   3.311  0.9667  0.6093  1.8189
  683MOL0     H92189  11.741   3.551   3.318 -0.6395  0.5451 -0.5609
  683MOL0     H92190  11.965   3.527   3.409 -2.6948  1.6733 -0.1572
  683MOL0     H92191  11.353   2.421   3.495 -0.3258  1.7010  3.8986
  683MOL0     H92192  11.244   2.207   3.412  1.4333  0.4282 -0.6844
  683MOL0     H92193  10.818   2.007   3.336  3.5707 -0.8324  0.2212
  683MOL0     H92194  10.760   1.798   3.268 -0.4175  2.0851  1.6213
  683MOL0     H92195  10.825   1.587   3.165 -0.9157  1.2496  1.5649
  683MOL0     H92196  10.657   1.625   3.126 -0.1240 -0.8578  0.7786
  683MOL0     H92197  10.843   1.419   2.999 -2.2768 -2.5477  0.2220
  683MOL0     H92198  10.692   1.477   2.912  1.0238 -0.9269 -1.7653
  683MOL0     H92199  10.665   1.387   3.194 -3.6125 -0.8914  1.8392
  683MOL0     H92200  10.707   1.267   3.064 -0.3298 -0.0615 -1.8404
  683MOL0     H92201  10.472   1.269   3.097 -0.0857 -0.0421 -1.4864
  683MOL0     H92202  10.504   1.321   2.941  1.1791 -1.7678  0.7200
  683MOL0     H92203  10.298   1.646   3.124 -1.2959 -2.2413  3.1190
  683MOL0     H92204  10.903   1.902   2.863  1.8673  0.8801  0.2713
  683MOL0     H92205  10.986   2.108   2.965 -1.7607  0.5801 -0.8556
  684MOL0     O92206   6.803   3.760   8.390 -0.3732 -0.4418 -0.4118
  684MOL0     C92207   6.898   3.686   8.430 -0.0689  0.7417  0.1516
  684MOL0     O92208   6.959   3.695   8.544  0.2320  0.4216 -0.1056
  684MOL0     C92209   6.925   3.778   8.641  0.0827 -0.3844  0.4934
  684MOL0     C92210   6.860   3.720   8.748  0.1453  0.2772  0.2480
  684MOL0     C92211   6.809   3.807   8.861 -1.3551 -0.5437  0.2296
  684MOL0     C92212   6.830   3.945   8.851  0.1693  0.8274 -0.4434
  684MOL0     O92213   6.804   4.017   8.959 -0.3681 -0.4935 -0.4654
  684MOL0     C92214   6.755   4.153   8.945  0.7248  0.5695 -0.0360
  684MOL0     C92215   6.732   4.219   9.074 -0.2985  0.6312 -1.0012
  684MOL0     C92216   6.698   4.362   9.054 -0.2396 -0.4201  1.1205
  684MOL0     C92217   6.652   4.437   9.171  0.2504 -0.1520  0.5778
  684MOL0     C92218   6.588   4.571   9.139 -1.2322 -0.4965  0.8790
  684MOL0     C92219   6.707   4.676   9.132  0.2648  0.4894 -0.0956
  684MOL0     C92220   6.659   4.818   9.101 -0.2110  0.9552 -0.4131
  684MOL0     C92221   6.773   4.923   9.098 -0.7064 -0.4803  0.1545
  684MOL0     N92222   6.716   5.060   9.084  0.8593  0.4835  0.0916
  684MOL0     C92223   6.654   5.114   8.977  0.4181  0.1532  0.2188
  684MOL0     C92224   6.632   5.243   9.009  0.3488  0.3919  0.2100
  684MOL0     C92225   6.568   5.353   8.927  0.2920  0.4878 -0.3926
  684MOL0     C92226   6.617   5.495   8.964  0.5082 -1.1241  0.7733
  684MOL0     C92227   6.527   5.613   8.922 -0.2017  0.4844  0.4428
  684MOL0     C92228   6.489   5.608   8.775 -0.0495 -1.1132  0.2178
  684MOL0     O92229   6.602   5.620   8.675  0.3553  0.2234 -0.1177
  684MOL0     C92230   6.581   5.604   8.546 -0.9619 -0.4541 -0.3672
  684MOL0     C92231   6.458   5.587   8.488 -0.6630  0.6341  1.2530
  684MOL0     C92232   6.441   5.571   8.345 -0.4142 -0.9279  0.2570
  684MOL0     C92233   6.304   5.562   8.283  0.2294  0.2823 -0.4547
  684MOL0     C92234   6.564   5.556   8.270  0.2446 -0.2852  0.2317
  684MOL0     C92235   6.554   5.560   8.125  0.2969  0.0478 -0.5971
  684MOL0     O92236   6.609   5.446   8.065  0.0171 -1.3800 -0.0074
  684MOL0     C92237   6.663   5.457   7.940 -0.4191 -0.1086 -0.8261
  684MOL0     C92238   6.783   5.530   7.925  0.3791 -0.0401 -0.3480
  684MOL0     C92239   6.833   5.547   7.799  0.0116 -0.2683 -0.2944
  684MOL0     C92240   6.799   5.467   7.695 -0.4065  0.6008  0.9479
  684MOL0     O92241   6.873   5.490   7.578  0.1750  0.0934 -0.4283
  684MOL0     C92242   6.865   5.389   7.479 -0.5747 -0.2724  0.7869
  684MOL0     C92243   6.925   5.461   7.350  0.5437  0.3944  0.2918
  684MOL0     C92244   6.829   5.567   7.293  0.1586  0.4161 -0.6612
  684MOL0     C92245   6.880   5.625   7.163  0.6515 -0.4584 -0.0312
  684MOL0     C92246   6.866   5.529   7.044 -0.0415 -0.2018  0.4333
  684MOL0     C92247   6.908   5.607   6.913 -0.8939  0.3287  1.5597
  684MOL0     C92248   6.982   5.514   6.812 -1.4648  0.2507 -0.9513
  684MOL0     C92249   6.971   5.568   6.672  0.9633  0.7942 -0.1114
  684MOL0    Cl92250   7.080   5.495   6.566 -0.1830  0.2925  0.3680
  684MOL0     C92251   6.690   5.377   7.709  0.8526  0.1466 -0.4530
  684MOL0     C92252   6.612   5.381   7.825 -0.3923  0.0421 -0.4497
  684MOL0     O92253   6.523   5.660   8.062  0.8845 -0.1260 -0.9940
  684MOL0     C92254   6.693   5.571   8.336  0.9981 -0.2635  1.2331
  684MOL0     C92255   6.697   5.597   8.475  0.7788 -0.5003  0.0627
  684MOL0     N92256   6.678   5.266   9.140  0.1209 -0.1443 -0.1884
  684MOL0     N92257   6.730   5.161   9.180  0.2128 -0.5978 -0.3440
  684MOL0     C92258   6.895   3.997   8.743 -1.0557 -0.7107  0.6678
  684MOL0     C92259   6.942   3.915   8.632 -0.0004  0.0106 -0.0542
  684MOL0     C92260   6.944   3.593   8.329 -0.5984  0.5246  0.3847
  684MOL0     C92261   7.041   3.491   8.355  0.7067 -0.3960 -0.4977
  684MOL0     C92262   7.075   3.406   8.252 -0.0771 -0.6502 -0.9975
  684MOL0     C92263   7.038   3.421   8.119 -0.4787 -0.2006  0.5061
  684MOL0     O92264   7.090   3.326   8.038  0.0819 -0.0594 -0.2798
  684MOL0     C92265   7.062   3.344   7.896 -0.4381  0.6072  1.8816
  684MOL0     C92266   7.132   3.239   7.804  0.2760  0.2323 -0.9294
  684MOL0     C92267   7.101   3.252   7.654  0.1102  0.5317 -0.4395
  684MOL0     C92268   6.980   3.188   7.615 -0.9394 -0.2783 -0.5228
  684MOL0     C92269   6.999   3.046   7.608 -0.5002  0.4841 -0.3614
  684MOL0     C92270   7.026   2.927   7.593  0.0574  0.0434  0.4868
  684MOL0     C92271   6.942   3.522   8.092  0.3712  0.3734  0.3798
  684MOL0     C92272   6.896   3.604   8.198 -1.1017  0.8872  0.4275
  684MOL0     H92273   6.843   3.613   8.741 -2.8211  0.7604 -1.4202
  684MOL0     H92274   6.759   3.764   8.948 -1.0817  0.8564  1.1106
  684MOL0     H92275   6.833   4.211   8.894  1.0080  0.5585  0.3772
  684MOL0     H92276   6.659   4.153   8.894  0.0822 -2.6965  0.9647
  684MOL0     H92277   6.656   4.161   9.130  0.8360  1.5572  1.6679
  684MOL0     H92278   6.825   4.221   9.130 -1.1230  0.2913  0.4470
  684MOL0     H92279   6.781   4.422   9.015 -1.8011 -0.2448 -2.3635
  684MOL0     H92280   6.622   4.367   8.975  2.0871 -2.3492 -1.4325
  684MOL0     H92281   6.578   4.373   9.220  1.0713  0.5444  2.8884
  684MOL0     H92282   6.737   4.457   9.238  0.9293  1.2473 -0.6448
  684MOL0     H92283   6.543   4.572   9.039 -1.9724  2.4126  1.1811
  684MOL0     H92284   6.508   4.597   9.208 -2.3905 -0.3124 -0.4952
  684MOL0     H92285   6.757   4.685   9.229  2.5603  0.1258 -1.1750
  684MOL0     H92286   6.779   4.650   9.054  0.0733  0.1504 -0.1603
  684MOL0     H92287   6.616   4.806   9.001  1.0357  0.3597 -0.8969
  684MOL0     H92288   6.585   4.857   9.171  0.6167 -1.6800  2.1276
  684MOL0     H92289   6.826   4.909   9.003 -0.2509  3.1691 -0.2806
  684MOL0     H92290   6.828   4.917   9.192 -1.3016 -1.6000  0.4545
  684MOL0     H92291   6.627   5.064   8.884 -1.4613  0.5531  0.5136
  684MOL0     H92292   6.577   5.349   8.818 -1.7648  0.4705 -0.6130
  684MOL0     H92293   6.461   5.343   8.948 -0.2484  1.7963 -2.3207
  684MOL0     H92294   6.708   5.521   8.908  0.7456 -3.0069  0.2171
  684MOL0     H92295   6.638   5.508   9.071 -1.0891  4.2602  0.7128
  684MOL0     H92296   6.587   5.704   8.927  0.2836  0.2013 -0.1959
  684MOL0     H92297   6.435   5.609   8.982 -1.9790 -1.2668 -2.1706
  684MOL0     H92298   6.420   5.692   8.760  1.1781 -0.2497 -0.8423
  684MOL0     H92299   6.426   5.520   8.757 -3.9715  1.3367  0.6946
  684MOL0     H92300   6.375   5.596   8.558 -1.1049  1.6447  0.6206
  684MOL0     H92301   6.318   5.489   8.202  0.0145 -0.1389 -0.1158
  684MOL0     H92302   6.232   5.539   8.362 -0.2196  3.4192  0.1793
  684MOL0     H92303   6.264   5.653   8.238 -2.5295 -0.4725  0.2981
  684MOL0     H92304   6.832   5.574   8.011  0.7232 -1.5948  0.2721
  684MOL0     H92305   6.922   5.609   7.790  0.3291 -0.9020 -1.8653
  684MOL0     H92306   6.933   5.305   7.501  0.0609 -0.1608 -0.6364
  684MOL0     H92307   6.765   5.353   7.453 -0.3559 -0.3991  0.0839
  684MOL0     H92308   7.022   5.507   7.370 -0.2891  2.1461  0.4922
  684MOL0     H92309   6.947   5.386   7.274 -3.0006 -1.8777  1.2453
  684MOL0     H92310   6.825   5.655   7.358  0.5222  0.9886 -1.3937
  684MOL0     H92311   6.729   5.523   7.284  0.9803 -1.7387  0.1709
  684MOL0     H92312   6.812   5.709   7.146  0.5184 -0.7939 -1.2435
  684MOL0     H92313   6.981   5.665   7.173  1.4178 -2.0925 -0.7382
  684MOL0     H92314   6.763   5.492   7.037 -1.0011  2.3491 -0.4031
  684MOL0     H92315   6.931   5.445   7.069 -0.6634 -0.5873  0.7907
  684MOL0     H92316   6.827   5.649   6.854 -0.0904 -0.6648 -0.3435
  684MOL0     H92317   6.970   5.692   6.944 -2.1228  1.1333  1.8793
  684MOL0     H92318   6.949   5.410   6.818  1.2604 -0.6122  0.7852
  684MOL0     H92319   7.089   5.513   6.835 -2.0870  0.6477  2.5548
  684MOL0     H92320   6.976   5.678   6.672 -0.2247  0.8720 -0.5488
  684MOL0     H92321   6.868   5.545   6.643  0.6047 -0.5440  2.0536
  684MOL0     H92322   6.658   5.317   7.625  0.2243  0.9245 -0.7762
  684MOL0     H92323   6.525   5.318   7.838  0.0539 -0.8082 -1.4174
  684MOL0     H92324   6.777   5.566   8.269  0.6436  0.6487  0.6948
  684MOL0     H92325   6.799   5.603   8.512  0.2439 -2.6901  2.1206
  684MOL0     H92326   6.930   4.100   8.738  0.1644 -1.1535 -3.3200
  684MOL0     H92327   6.993   3.959   8.548 -3.4241  0.8214 -1.9060
  684MOL0     H92328   7.072   3.478   8.458  1.7141  0.9697 -0.6091
  684MOL0     H92329   7.150   3.327   8.253  3.3312  2.3720 -0.1149
  684MOL0     H92330   6.955   3.330   7.876  0.3539  0.3688 -3.4872
  684MOL0     H92331   7.082   3.448   7.869  2.4186  0.8909  4.5527
  684MOL0     H92332   7.118   3.132   7.821 -0.1601  0.6971  2.1668
  684MOL0     H92333   7.240   3.244   7.818  0.1748 -2.0156  1.5335
  684MOL0     H92334   7.178   3.206   7.592  0.7001  1.1920 -0.2169
  684MOL0     H92335   7.097   3.356   7.620 -0.4968 -0.2823 -3.0231
  684MOL0     H92336   6.945   3.220   7.517 -0.6658 -1.2962 -0.9725
  684MOL0     H92337   6.903   3.227   7.683 -0.7682  1.2923 -1.1985
  684MOL0     H92338   7.056   2.825   7.579  0.8634  0.0903  1.7536
  684MOL0     H92339   6.888   3.524   7.998 -1.0710  2.0442  1.1816
  684MOL0     H92340   6.837   3.687   8.161  0.9102  0.7471 -3.6613
  685MOL0     O92341   0.449   8.606   8.941  0.0213  0.5930 -0.0164
  685MOL0     C92342   0.356   8.673   8.991  0.3687  0.0284 -0.4104
  685MOL0     O92343   0.365   8.807   9.035 -0.1305  0.1527 -0.0597
  685MOL0     C92344   0.481   8.870   9.018 -0.7387 -0.7970 -0.4995
  685MOL0     C92345   0.483   8.975   8.935  0.0323  0.1831 -0.1566
  685MOL0     C92346   0.605   9.027   8.900  1.4675 -0.1623 -0.2106
  685MOL0     C92347   0.727   8.995   8.964  0.2871 -0.6189  0.7041
  685MOL0     O92348   0.851   9.052   8.928 -0.1102 -0.1817 -0.1801
  685MOL0     C92349   0.870   9.105   8.794 -0.1991  0.3305  0.1295
  685MOL0     C92350   1.017   9.087   8.761  0.3367  1.2015  0.6767
  685MOL0     C92351   1.119   9.119   8.876 -0.2838 -0.2297 -0.1664
  685MOL0     C92352   1.259   9.056   8.849  0.6697  0.6107  0.4694
  685MOL0     C92353   1.346   9.108   8.958  0.2470 -0.3093 -0.2432
  685MOL0     C92354   1.421   9.241   8.929  0.6683 -0.0876 -0.7161
  685MOL0     C92355   1.540   9.257   9.028  0.3566  0.4506 -0.8277
  685MOL0     C92356   1.625   9.385   8.994  0.4921 -0.2175  0.0534
  685MOL0     N92357   1.707   9.352   8.881 -0.7238 -0.1435  0.2948
  685MOL0     C92358   1.686   9.415   8.760  0.2030  0.8550  0.6083
  685MOL0     C92359   1.809   9.413   8.700 -0.4341 -0.0905 -1.0485
  685MOL0     C92360   1.860   9.478   8.572  0.5230  0.0807  0.2074
  685MOL0     C92361   1.917   9.613   8.606  0.0435  0.1843  0.7335
  685MOL0     C92362   1.958   9.681   8.470 -0.2273  0.5371 -0.7970
  685MOL0     C92363   2.059   9.800   8.492 -0.1471  0.0753  0.6499
  685MOL0     O92364   2.051   9.880   8.370  0.2519 -0.4079  0.0536
  685MOL0     C92365   2.152   9.974   8.358 -0.1498  1.1466  0.4221
  685MOL0     C92366   2.255  10.006   8.447 -0.3250 -0.3282  0.5773
  685MOL0     C92367   2.357  10.104   8.421 -0.1779  0.2445  0.1889
  685MOL0     C92368   2.439  10.140   8.534  0.4958 -0.3699 -0.1073
  685MOL0     C92369   2.376  10.150   8.295 -0.7006 -0.6284 -0.4707
  685MOL0     C92370   2.492  10.234   8.247  0.2137 -0.6052  0.4049
  685MOL0     O92371   2.468  10.299   8.134  1.0432  0.6876  0.8025
  685MOL0     C92372   2.562  10.388   8.085 -0.4032 -0.4442 -0.0384
  685MOL0     C92373   2.702  10.376   8.085 -0.0811  0.8409  0.2192
  685MOL0     C92374   2.788  10.469   8.020 -0.7941 -0.4951  0.0406
  685MOL0     C92375   2.737  10.586   7.966 -0.0679  0.2659  0.3455
  685MOL0     O92376   2.816  10.663   7.894  0.1129 -0.2025  0.9250
  685MOL0     C92377   2.832  10.621   7.754  0.4772 -0.6570 -0.3221
  685MOL0     C92378   2.823  10.741   7.663  0.9619 -0.6888 -0.4952
  685MOL0     C92379   2.885  10.720   7.528  0.6709  0.0510  0.4797
  685MOL0     C92380   2.783  10.653   7.436 -0.5336 -0.2360 -0.3347
  685MOL0     C92381   2.853  10.593   7.315 -0.4927 -0.9302  0.3313
  685MOL0     C92382   2.931  10.685   7.216  0.6155  0.0267  0.7996
  685MOL0     C92383   2.847  10.811   7.164 -0.1306 -0.3173 -0.0943
  685MOL0     C92384   2.829  10.822   7.012 -0.0758  0.7221  0.3616
  685MOL0    Cl92385   2.712  10.953   6.966  0.0523 -0.0467  0.4156
  685MOL0     C92386   2.596  10.601   7.960  1.2799 -0.2751 -1.8273
  685MOL0     C92387   2.511  10.507   8.028 -0.4574 -0.0372  0.3770
  685MOL0     O92388   2.588  10.243   8.313 -0.7536  0.1904 -0.1517
  685MOL0     C92389   2.273  10.120   8.207 -0.3475 -0.6227 -0.7261
  685MOL0     C92390   2.174  10.027   8.230 -0.0672 -0.4916 -0.1475
  685MOL0     N92391   1.901   9.351   8.784 -0.1241 -0.4389 -0.2569
  685MOL0     N92392   1.840   9.315   8.890 -0.5990  0.8303  0.9333
  685MOL0     C92393   0.716   8.892   9.053 -0.3784  0.0905  0.4962
  685MOL0     C92394   0.601   8.829   9.080  0.7965  1.1332 -0.6400
  685MOL0     C92395   0.232   8.593   9.017 -0.6200 -0.2372 -0.1847
  685MOL0     C92396   0.216   8.463   8.969  0.3634  0.4644 -0.2632
  685MOL0     C92397   0.106   8.390   9.011 -0.8030 -0.1677  0.5615
  685MOL0     C92398   0.003   8.446   9.094  0.0862  1.5528  0.6435
  685MOL0     O92399  -0.108   8.373   9.121  0.1414  0.2018 -0.2025
  685MOL0     C92400  -0.120   8.350   9.263 -0.3896  0.0810  0.1816
  685MOL0     C92401  -0.253   8.269   9.278 -0.5495 -0.3250  0.3065
  685MOL0     C92402  -0.373   8.363   9.314 -0.2159  0.7848 -0.1484
  685MOL0     C92403  -0.418   8.461   9.202 -0.7308 -0.0511 -1.2944
  685MOL0     C92404  -0.516   8.561   9.245 -0.2582 -0.4660  0.0374
  685MOL0     C92405  -0.603   8.636   9.274 -0.7051 -0.5795  0.1047
  685MOL0     C92406   0.026   8.577   9.143 -0.3528  0.5911 -0.9061
  685MOL0     C92407   0.133   8.651   9.099 -0.3192 -0.5318 -0.5204
  685MOL0     H92408   0.395   8.997   8.876  1.0940 -0.3195 -2.0076
  685MOL0     H92409   0.599   9.103   8.823 -1.0382  0.4412  0.4868
  685MOL0     H92410   0.812   9.050   8.719 -1.4200 -0.9848  1.9689
  685MOL0     H92411   0.830   9.207   8.785 -0.2037  0.3755  0.6612
  685MOL0     H92412   1.032   8.981   8.743 -0.2708  0.9136  1.7628
  685MOL0     H92413   1.055   9.123   8.665 -0.3374  0.6326  0.1988
  685MOL0     H92414   1.139   9.226   8.876  0.2637 -0.2358 -2.9971
  685MOL0     H92415   1.078   9.083   8.971 -1.2054 -1.4869 -1.0003
  685MOL0     H92416   1.249   8.947   8.845  1.3293  0.5090  1.4176
  685MOL0     H92417   1.292   9.093   8.751 -1.2011  0.5952 -0.1968
  685MOL0     H92418   1.299   9.109   9.057  0.4275  0.6372 -0.1642
  685MOL0     H92419   1.411   9.020   8.968 -0.4320 -0.9690 -1.3452
  685MOL0     H92420   1.450   9.254   8.824 -1.0601 -0.7457 -1.3047
  685MOL0     H92421   1.349   9.319   8.956 -0.4745 -1.5852  0.7535
  685MOL0     H92422   1.488   9.260   9.124 -1.5781 -3.0174 -1.6279
  685MOL0     H92423   1.605   9.169   9.035  0.8427  0.8721  4.8853
  685MOL0     H92424   1.695   9.412   9.073  0.4637  0.5171 -0.1582
  685MOL0     H92425   1.559   9.470   8.974  2.7922  2.3343  2.4407
  685MOL0     H92426   1.598   9.455   8.711 -0.1923 -1.1063 -0.3850
  685MOL0     H92427   1.936   9.409   8.534 -0.0418 -1.1593  1.2593
  685MOL0     H92428   1.785   9.492   8.494 -0.5003  1.5526  1.4117
  685MOL0     H92429   2.011   9.595   8.660  0.6773 -0.8145 -0.6347
  685MOL0     H92430   1.844   9.679   8.654 -1.9667  0.6754 -2.6708
  685MOL0     H92431   1.872   9.723   8.416 -1.5009 -2.1628 -1.0385
  685MOL0     H92432   2.002   9.602   8.408 -0.0472 -2.0639  2.3418
  685MOL0     H92433   2.160   9.766   8.520 -0.2011  0.8402  1.8338
  685MOL0     H92434   2.028   9.861   8.577 -2.3866 -2.1658  1.5638
  685MOL0     H92435   2.264   9.943   8.535  2.4805 -0.1754  0.5021
  685MOL0     H92436   2.401  10.108   8.631  0.8637  0.4446  0.3178
  685MOL0     H92437   2.536  10.092   8.527  0.7164  0.0465  0.0599
  685MOL0     H92438   2.450  10.249   8.533  4.1708 -0.5264  2.7127
  685MOL0     H92439   2.750  10.288   8.127  0.5114  2.7975  4.0613
  685MOL0     H92440   2.894  10.451   8.011 -0.7630  0.1259 -1.0446
  685MOL0     H92441   2.934  10.583   7.745  0.6379 -0.3268  0.0748
  685MOL0     H92442   2.755  10.556   7.712 -1.1520  1.8138 -1.3923
  685MOL0     H92443   2.729  10.797   7.653 -0.1039 -2.5747 -1.5945
  685MOL0     H92444   2.892  10.813   7.709  2.7656 -2.9132  0.4957
  685MOL0     H92445   2.972  10.654   7.523  0.9063  0.4336 -0.6864
  685MOL0     H92446   2.918  10.813   7.480 -0.9776 -0.2559 -1.3591
  685MOL0     H92447   2.727  10.575   7.488 -0.8443 -0.5247 -1.0802
  685MOL0     H92448   2.713  10.730   7.402  0.6456  1.3953  0.7768
  685MOL0     H92449   2.783  10.554   7.241  0.6678  0.0395 -1.3477
  685MOL0     H92450   2.908  10.507   7.356  0.7093 -0.9552 -1.2300
  685MOL0     H92451   3.027  10.715   7.260  0.3077 -0.9152  2.1607
  685MOL0     H92452   2.957  10.628   7.126  1.3880  1.1732  0.2716
  685MOL0     H92453   2.897  10.903   7.197 -0.6813  0.2433 -0.7726
  685MOL0     H92454   2.745  10.814   7.204  0.1075  0.6552  0.4716
  685MOL0     H92455   2.788  10.725   6.980 -2.3344  1.8386 -0.3512
  685MOL0     H92456   2.924  10.838   6.961  2.1673 -0.8436  3.6776
  685MOL0     H92457   2.559  10.693   7.914 -0.8195 -0.1843 -0.0973
  685MOL0     H92458   2.405  10.530   8.026 -0.1963  1.4632  1.7185
  685MOL0     H92459   2.279  10.164   8.108 -3.0839  4.2290  0.9525
  685MOL0     H92460   2.110   9.997   8.147  0.9499  0.7906 -1.4634
  685MOL0     H92461   0.800   8.866   9.116  1.8240 -1.6466 -2.8224
  685MOL0     H92462   0.599   8.743   9.146  2.3264  0.8487 -0.9227
  685MOL0     H92463   0.295   8.418   8.912 -0.6560 -0.0452 -1.3072
  685MOL0     H92464   0.091   8.287   8.983 -0.6228  0.8971 -4.3214
  685MOL0     H92465  -0.040   8.290   9.308  1.4664  4.2880  3.1613
  685MOL0     H92466  -0.126   8.437   9.330 -0.7981 -0.9878  1.5792
  685MOL0     H92467  -0.243   8.194   9.357  2.2914 -0.5374 -0.1733
  685MOL0     H92468  -0.279   8.221   9.183 -4.9627 -0.8929  1.5624
  685MOL0     H92469  -0.345   8.415   9.406  0.8675  0.8873 -0.5140
  685MOL0     H92470  -0.452   8.295   9.347  0.0217  0.0762 -1.0180
  685MOL0     H92471  -0.469   8.401   9.126 -0.4300  0.0167 -1.5500
  685MOL0     H92472  -0.330   8.517   9.169  0.8106 -0.3568  1.9575
  685MOL0     H92473  -0.682   8.708   9.280  2.1084  2.6953  1.2285
  685MOL0     H92474  -0.041   8.635   9.205  2.0859  4.1181 -1.2697
  685MOL0     H92475   0.155   8.748   9.142 -0.7629 -0.8509  0.4695
  686MOL0     O92476   1.062   5.078   1.525  0.1254  0.7579  0.6838
  686MOL0     C92477   1.063   5.138   1.632  0.5594 -0.7862  0.5065
  686MOL0     O92478   0.962   5.212   1.684 -0.8768  0.0050  1.1470
  686MOL0     C92479   0.855   5.249   1.601 -0.3617 -0.1553  0.2564
  686MOL0     C92480   0.729   5.266   1.661  0.4228  0.2280  0.0948
  686MOL0     C92481   0.620   5.315   1.583 -0.3983  0.2141  0.3404
  686MOL0     C92482   0.638   5.335   1.443 -0.4118 -1.0765  0.6594
  686MOL0     O92483   0.532   5.356   1.364 -0.2814  0.3225  1.0898
  686MOL0     C92484   0.394   5.360   1.401 -0.0788 -0.5658  0.3937
  686MOL0     C92485   0.317   5.422   1.279  0.7539  0.3552 -0.0330
  686MOL0     C92486   0.159   5.448   1.312 -0.4017  0.5497 -0.4215
  686MOL0     C92487   0.103   5.587   1.276  0.0824  0.1089 -0.4541
  686MOL0     C92488  -0.042   5.630   1.326  0.1433  0.6220  0.0222
  686MOL0     C92489  -0.149   5.575   1.223  0.1048 -0.6780 -0.7261
  686MOL0     C92490  -0.285   5.637   1.253  0.3711 -0.3657 -0.3548
  686MOL0     C92491  -0.375   5.604   1.137 -0.0213  0.6924 -0.4203
  686MOL0     N92492  -0.498   5.677   1.180 -0.0389 -0.8022  0.5928
  686MOL0     C92493  -0.521   5.811   1.159 -1.4487  0.4573 -0.5347
  686MOL0     C92494  -0.636   5.836   1.224 -0.8450  0.9223  0.1852
  686MOL0     C92495  -0.700   5.970   1.249 -0.2942 -0.0941 -0.4298
  686MOL0     C92496  -0.607   6.073   1.309 -0.0105 -0.6497  0.0419
  686MOL0     C92497  -0.585   6.173   1.188 -0.6788  0.2591 -0.4877
  686MOL0     C92498  -0.505   6.294   1.253  0.3764  0.0067 -0.7920
  686MOL0     O92499  -0.479   6.402   1.164  0.1574 -0.1507  0.6545
  686MOL0     C92500  -0.388   6.502   1.185  0.2846  0.5204 -0.8113
  686MOL0     C92501  -0.405   6.613   1.111  0.5837  1.1557  0.2418
  686MOL0     C92502  -0.330   6.732   1.136  0.7801  0.1798 -0.1773
  686MOL0     C92503  -0.383   6.859   1.078  0.2317 -0.3336 -0.5508
  686MOL0     C92504  -0.219   6.716   1.218  0.2507 -0.4939  0.4186
  686MOL0     C92505  -0.111   6.819   1.240 -0.2434  0.2555 -0.0111
  686MOL0     O92506  -0.072   6.875   1.127  0.5921  0.6885 -0.1034
  686MOL0     C92507   0.037   6.957   1.137  0.0976 -0.5559  0.0938
  686MOL0     C92508   0.172   6.922   1.122  0.5569 -0.0497  0.3673
  686MOL0     C92509   0.269   7.019   1.128  0.6544  0.0537 -1.0104
  686MOL0     C92510   0.237   7.156   1.129  0.5849  0.1036 -0.5220
  686MOL0     O92511   0.340   7.242   1.134  0.4440  0.3450  0.1006
  686MOL0     C92512   0.423   7.258   1.015 -0.0455 -0.6499  0.1644
  686MOL0     C92513   0.506   7.379   1.048  0.3344 -0.4070  0.8161
  686MOL0     C92514   0.421   7.508   1.069  0.3235  0.1896 -0.1199
  686MOL0     C92515   0.445   7.611   0.957 -0.1215 -0.0759  0.1823
  686MOL0     C92516   0.355   7.735   0.961 -0.2284 -0.1219 -0.2400
  686MOL0     C92517   0.401   7.832   1.065 -0.5500 -0.1538 -0.3049
  686MOL0     C92518   0.490   7.943   1.003  1.0124 -0.1221 -0.0175
  686MOL0     C92519   0.584   8.009   1.096  0.3390  0.7007 -0.4712
  686MOL0    Cl92520   0.721   7.896   1.128 -0.1974 -0.0793  0.3057
  686MOL0     C92521   0.109   7.189   1.155 -0.0592 -0.3366 -0.0156
  686MOL0     C92522   0.013   7.092   1.157  0.7301 -0.1481 -0.1022
  686MOL0     O92523  -0.065   6.836   1.351 -0.3149  0.5111 -0.2320
  686MOL0     C92524  -0.208   6.611   1.300 -1.1487  0.1047  0.3429
  686MOL0     C92525  -0.294   6.502   1.286 -0.4546 -1.0128 -0.0898
  686MOL0     N92526  -0.668   5.724   1.295  0.0403  0.5510 -0.1922
  686MOL0     N92527  -0.590   5.632   1.261 -0.0987 -0.2744 -0.4418
  686MOL0     C92528   0.760   5.329   1.383 -0.3032  0.2646 -0.1802
  686MOL0     C92529   0.865   5.280   1.466 -0.0461 -0.4675  0.2759
  686MOL0     C92530   1.187   5.126   1.715 -0.4096  0.8480 -0.3355
  686MOL0     C92531   1.289   5.046   1.670  0.8938  0.5813  0.1374
  686MOL0     C92532   1.414   5.029   1.740  0.3478  0.0953  0.2205
  686MOL0     C92533   1.422   5.083   1.863 -0.3589 -0.1592 -1.2436
  686MOL0     O92534   1.541   5.072   1.941  0.5394 -0.9096 -0.1786
  686MOL0     C92535   1.655   4.993   1.897  0.3445  0.3669  0.5626
  686MOL0     C92536   1.744   5.075   1.802  0.3419  0.0881 -0.9082
  686MOL0     C92537   1.813   5.191   1.876  1.3941  0.3715  1.0573
  686MOL0     C92538   1.896   5.273   1.774  0.2078  0.1918  0.0679
  686MOL0     C92539   1.915   5.411   1.821  0.3920  0.2168 -0.2303
  686MOL0     C92540   1.915   5.528   1.857  0.1315 -0.0989 -0.2379
  686MOL0     C92541   1.309   5.145   1.924  0.0254 -0.2010  0.4955
  686MOL0     C92542   1.197   5.174   1.845  0.3520 -0.3454  0.8280
  686MOL0     H92543   0.707   5.234   1.763 -0.8061 -0.9375 -0.5198
  686MOL0     H92544   0.523   5.330   1.630  1.0493  2.0003  3.0150
  686MOL0     H92545   0.354   5.261   1.423 -0.2353 -0.8012 -0.8354
  686MOL0     H92546   0.380   5.428   1.485  0.6069  0.4313 -0.2654
  686MOL0     H92547   0.347   5.522   1.249  3.0894 -0.6394 -1.2802
  686MOL0     H92548   0.314   5.355   1.193 -3.0063  0.7548 -0.3962
  686MOL0     H92549   0.094   5.375   1.263  1.1975 -1.8719  0.8542
  686MOL0     H92550   0.132   5.425   1.416  2.3901 -1.3420  0.0107
  686MOL0     H92551   0.167   5.668   1.312 -2.9683  0.9130  3.9367
  686MOL0     H92552   0.098   5.596   1.167  0.9561  1.1733 -0.4319
  686MOL0     H92553  -0.059   5.577   1.420 -0.6874 -1.2154 -1.0981
  686MOL0     H92554  -0.057   5.738   1.334 -0.3301  0.5511  0.1446
  686MOL0     H92555  -0.107   5.610   1.128 -1.6908  1.2014 -0.9040
  686MOL0     H92556  -0.137   5.467   1.221  1.1389 -0.5608 -1.3670
  686MOL0     H92557  -0.323   5.607   1.351 -0.6251  2.8681  0.3644
  686MOL0     H92558  -0.265   5.744   1.258 -0.3667 -0.2408  0.0746
  686MOL0     H92559  -0.377   5.495   1.147 -0.6393  0.7293 -0.1361
  686MOL0     H92560  -0.335   5.633   1.039 -2.1126 -1.4852 -2.0178
  686MOL0     H92561  -0.467   5.882   1.097  2.4408 -0.7524  1.1083
  686MOL0     H92562  -0.742   5.997   1.152  0.2154 -2.7374 -1.4785
  686MOL0     H92563  -0.784   5.951   1.317 -0.6251 -4.0388 -1.6648
  686MOL0     H92564  -0.513   6.026   1.339 -0.0181 -0.2900  0.6438
  686MOL0     H92565  -0.636   6.132   1.397  1.7092  0.0045  0.2193
  686MOL0     H92566  -0.674   6.213   1.139  0.1170  1.4735 -1.0065
  686MOL0     H92567  -0.515   6.132   1.114  0.4132  2.9212 -1.0561
  686MOL0     H92568  -0.420   6.255   1.308  1.8269  0.0666 -2.8693
  686MOL0     H92569  -0.561   6.339   1.336  1.0758  1.9138 -1.2943
  686MOL0     H92570  -0.491   6.607   1.045  0.0396 -0.0687  1.0282
  686MOL0     H92571  -0.306   6.928   1.043  0.2531 -0.6262 -1.0868
  686MOL0     H92572  -0.450   6.829   0.997 -0.7800  1.5075 -0.4588
  686MOL0     H92573  -0.445   6.912   1.152  0.2946 -1.9821  0.7478
  686MOL0     H92574   0.204   6.819   1.111  0.5620 -0.2214  1.7895
  686MOL0     H92575   0.372   6.985   1.125  0.3058 -1.8972  2.5822
  686MOL0     H92576   0.492   7.176   0.994  1.7700  0.4398  1.5453
  686MOL0     H92577   0.364   7.291   0.929 -2.2320 -3.4480  0.4652
  686MOL0     H92578   0.576   7.359   1.130  3.2692  0.0724 -1.3765
  686MOL0     H92579   0.565   7.388   0.956 -0.0934 -2.3970  0.2978
  686MOL0     H92580   0.441   7.560   1.163 -0.3449  0.6010 -0.1996
  686MOL0     H92581   0.315   7.482   1.065  0.3275  0.2756 -1.7448
  686MOL0     H92582   0.547   7.652   0.951 -0.0066  0.4413  3.7389
  686MOL0     H92583   0.405   7.558   0.870 -0.4816 -1.5164  1.2059
  686MOL0     H92584   0.251   7.710   0.986 -0.4103 -1.4714 -2.1575
  686MOL0     H92585   0.362   7.780   0.862  1.0258 -3.4410 -1.8050
  686MOL0     H92586   0.312   7.867   1.119 -0.5270  1.9550 -1.4892
  686MOL0     H92587   0.480   7.794   1.130 -0.1343  2.7482  1.0426
  686MOL0     H92588   0.426   8.025   0.969  0.7095  1.1147  3.1351
  686MOL0     H92589   0.552   7.909   0.920  3.7115  3.2194  0.3823
  686MOL0     H92590   0.535   8.038   1.190 -1.3172  2.8950 -1.9077
  686MOL0     H92591   0.628   8.102   1.058 -1.1622  1.7586  0.2446
  686MOL0     H92592   0.097   7.296   1.154  1.6011 -0.1220  0.5445
  686MOL0     H92593  -0.091   7.119   1.168  0.2921 -1.1946 -1.3911
  686MOL0     H92594  -0.132   6.604   1.378  1.1502 -2.0619 -1.9073
  686MOL0     H92595  -0.276   6.422   1.356  1.0330  0.5986  1.4501
  686MOL0     H92596   0.776   5.337   1.276  2.5810 -3.1961 -0.1901
  686MOL0     H92597   0.952   5.257   1.405 -1.0867  0.6189 -1.7271
  686MOL0     H92598   1.281   4.998   1.573 -0.8399 -0.7675  0.9041
  686MOL0     H92599   1.491   4.965   1.698 -1.8653 -1.0637 -2.3500
  686MOL0     H92600   1.707   4.968   1.990  3.4205 -1.0774 -1.3519
  686MOL0     H92601   1.619   4.899   1.854  1.2018  0.7128 -0.9786
  686MOL0     H92602   1.684   5.116   1.720  1.0772  5.1891  0.7524
  686MOL0     H92603   1.829   5.024   1.755  0.6067  1.1371 -1.6155
  686MOL0     H92604   1.882   5.147   1.949  2.1545 -5.3124 -2.4553
  686MOL0     H92605   1.742   5.254   1.929 -0.6981 -1.0630  0.0680
  686MOL0     H92606   1.843   5.279   1.678  0.6480  0.7758 -0.1459
  686MOL0     H92607   1.989   5.219   1.750 -0.2373 -1.3515  1.5536
  686MOL0     H92608   1.927   5.628   1.896 -0.1772 -0.9697  2.3017
  686MOL0     H92609   1.320   5.178   2.026  4.6373  0.7739 -0.1173
  686MOL0     H92610   1.114   5.230   1.888  0.4041  0.9502 -0.6906
  687MOL0     O92611   7.274   7.786   7.899  0.1009 -0.2640  0.7797
  687MOL0     C92612   7.306   7.674   7.931 -0.4968 -0.7871  0.7626
  687MOL0     O92613   7.226   7.596   7.995 -0.1934 -0.0689  0.7856
  687MOL0     C92614   7.100   7.639   8.026  0.3560 -0.0830 -1.0549
  687MOL0     C92615   7.079   7.654   8.165 -0.1875  0.9938 -0.2950
  687MOL0     C92616   6.953   7.692   8.224 -0.0275  0.3553 -0.0425
  687MOL0     C92617   6.840   7.714   8.136 -0.8904  0.2481 -0.5044
  687MOL0     O92618   6.724   7.778   8.186  0.6409  0.1136  0.3450
  687MOL0     C92619   6.599   7.774   8.115  0.3169 -0.3500  0.0175
  687MOL0     C92620   6.582   7.893   8.026 -0.7911 -1.4523 -0.7077
  687MOL0     C92621   6.460   7.880   7.930  0.3053  0.3433  0.0043
  687MOL0     C92622   6.411   8.020   7.894 -0.0153  0.2016  0.0767
  687MOL0     C92623   6.278   8.052   7.817  0.5500 -0.8661  0.4255
  687MOL0     C92624   6.263   8.205   7.801 -1.1384 -0.4962  0.1190
  687MOL0     C92625   6.158   8.241   7.708 -0.0320  0.2336 -0.3448
  687MOL0     C92626   6.119   8.393   7.711 -0.1138 -0.5605 -0.3348
  687MOL0     N92627   6.027   8.425   7.603  0.8056  0.2947  0.7005
  687MOL0     C92628   5.898   8.388   7.590  0.0378  0.4749  0.6914
  687MOL0     C92629   5.851   8.443   7.474  0.5298 -0.1978  0.5831
  687MOL0     C92630   5.705   8.431   7.415 -0.0528 -0.1816 -0.5791
  687MOL0     C92631   5.606   8.522   7.484 -0.6634 -0.3439 -0.2085
  687MOL0     C92632   5.543   8.453   7.606  0.0873 -0.1662  0.0171
  687MOL0     C92633   5.434   8.539   7.662  0.4410  0.4477  0.6933
  687MOL0     O92634   5.363   8.458   7.762 -0.2235  0.2217  0.1635
  687MOL0     C92635   5.222   8.489   7.781 -0.3683 -0.0307  0.1933
  687MOL0     C92636   5.142   8.416   7.855 -0.0365  0.4421 -1.5322
  687MOL0     C92637   5.011   8.440   7.885  0.4113 -0.0907  0.4227
  687MOL0     C92638   4.939   8.346   7.983  0.2045 -0.3978 -1.3031
  687MOL0     C92639   4.950   8.553   7.829  0.6439  0.1871 -1.1341
  687MOL0     C92640   4.806   8.579   7.835  1.3317 -0.4659  0.3816
  687MOL0     O92641   4.757   8.674   7.752  0.4607 -0.3476 -0.1038
  687MOL0     C92642   4.624   8.699   7.755  0.5756  0.2317 -0.7065
  687MOL0     C92643   4.591   8.784   7.860  0.7976 -0.1808 -0.3028
  687MOL0     C92644   4.460   8.815   7.877  0.3281 -0.6003  0.2056
  687MOL0     C92645   4.358   8.774   7.784  0.6671  0.0240 -0.5681
  687MOL0     O92646   4.233   8.829   7.791  0.2555 -0.4626  0.1716
  687MOL0     C92647   4.169   8.850   7.919 -0.0059 -0.5521  0.2071
  687MOL0     C92648   4.013   8.864   7.902 -1.0159  0.2368 -0.3474
  687MOL0     C92649   3.979   8.984   7.807  0.0201  0.6327 -0.4021
  687MOL0     C92650   3.993   9.126   7.881  0.3142 -0.2852  0.5584
  687MOL0     C92651   3.890   9.223   7.816  1.0752 -0.2385  0.1706
  687MOL0     C92652   3.900   9.364   7.876  0.4816  0.3540 -0.4552
  687MOL0     C92653   3.804   9.369   7.994  0.7674 -0.5149  0.1327
  687MOL0     C92654   3.853   9.472   8.107 -0.2440  0.4827 -0.6111
  687MOL0    Cl92655   3.966   9.409   8.225  0.1494 -0.1178 -0.3341
  687MOL0     C92656   4.394   8.694   7.679  0.1094  0.1970  0.4270
  687MOL0     C92657   4.531   8.661   7.661  0.2291  0.0162  0.0078
  687MOL0     O92658   4.735   8.497   7.889  0.4152 -0.1531  0.2432
  687MOL0     C92659   5.029   8.634   7.744  0.7769  0.2186 -0.2412
  687MOL0     C92660   5.159   8.599   7.716 -0.1891 -0.2324  0.3491
  687MOL0     N92661   5.955   8.517   7.423  0.2886  0.7767 -0.5473
  687MOL0     N92662   6.058   8.503   7.495  0.3441  0.1735  0.4117
  687MOL0     C92663   6.861   7.691   7.998 -0.2345 -0.2582  0.0678
  687MOL0     C92664   6.986   7.655   7.942 -0.2111 -0.0466 -0.6312
  687MOL0     C92665   7.446   7.634   7.912  0.2089 -0.7028  0.9837
  687MOL0     C92666   7.535   7.680   7.816 -0.0550 -0.7209 -0.9639
  687MOL0     C92667   7.671   7.632   7.810  0.3144  0.9584 -0.4785
  687MOL0     C92668   7.728   7.553   7.904 -0.6354  1.0969 -1.2365
  687MOL0     O92669   7.866   7.522   7.909  0.6770 -0.6764  0.5032
  687MOL0     C92670   7.913   7.398   7.944  0.1415 -0.5643 -0.0699
  687MOL0     C92671   7.867   7.292   7.846 -0.1178 -0.2947 -0.5885
  687MOL0     C92672   7.913   7.317   7.705 -1.1049  0.1807 -1.3345
  687MOL0     C92673   7.823   7.230   7.610  0.2626 -0.2261  0.3591
  687MOL0     C92674   7.813   7.308   7.482  0.0116 -0.5626  0.0315
  687MOL0     C92675   7.802   7.383   7.381 -0.0510  0.8449  0.2708
  687MOL0     C92676   7.637   7.506   8.005 -0.1853 -0.0754 -0.2320
  687MOL0     C92677   7.500   7.543   8.006 -0.2324 -0.0733  0.4223
  687MOL0     H92678   7.156   7.626   8.236  1.1719 -1.1914 -2.4754
  687MOL0     H92679   6.946   7.722   8.328  2.4758  2.0648 -0.2680
  687MOL0     H92680   6.599   7.684   8.053  1.3592 -0.1310 -0.3171
  687MOL0     H92681   6.522   7.767   8.193 -0.3499 -0.4716 -0.6436
  687MOL0     H92682   6.569   7.972   8.099 -1.4234 -1.1958 -1.0880
  687MOL0     H92683   6.670   7.916   7.965  1.3520  0.1320  2.7191
  687MOL0     H92684   6.486   7.826   7.838 -0.3825  0.6507 -0.3755
  687MOL0     H92685   6.376   7.829   7.979  0.0297  1.8447  1.1612
  687MOL0     H92686   6.394   8.075   7.987 -1.6495  0.1375 -0.1634
  687MOL0     H92687   6.492   8.074   7.843  2.1603 -3.7290 -1.0824
  687MOL0     H92688   6.274   8.005   7.719 -2.7266  5.6788 -3.2508
  687MOL0     H92689   6.194   8.025   7.883  0.1988 -0.4125  0.1738
  687MOL0     H92690   6.237   8.233   7.903  0.7552  2.8714 -0.1693
  687MOL0     H92691   6.361   8.243   7.772 -1.5342  0.4466 -0.0186
  687MOL0     H92692   6.207   8.217   7.613  1.0051  1.6100 -0.1843
  687MOL0     H92693   6.070   8.183   7.736 -0.0964  0.6740  0.4016
  687MOL0     H92694   6.206   8.459   7.703 -0.5339  0.7301  3.6626
  687MOL0     H92695   6.091   8.422   7.813  0.4603 -1.5278  0.1073
  687MOL0     H92696   5.849   8.323   7.661 -0.0983 -0.1273  0.0556
  687MOL0     H92697   5.713   8.457   7.309 -0.4322  0.8604 -0.3732
  687MOL0     H92698   5.656   8.334   7.420 -2.3440  0.8985 -0.6794
  687MOL0     H92699   5.527   8.557   7.417  0.4808  0.3068 -1.2569
  687MOL0     H92700   5.666   8.611   7.501  1.0058 -1.5203  0.2759
  687MOL0     H92701   5.621   8.441   7.681 -1.6226 -1.3422  1.7218
  687MOL0     H92702   5.494   8.356   7.589 -1.5732  0.7395 -0.6607
  687MOL0     H92703   5.367   8.567   7.580  0.8819 -1.5216 -0.4175
  687MOL0     H92704   5.471   8.636   7.698  2.8516  0.2979 -1.1102
  687MOL0     H92705   5.196   8.329   7.891  0.7680  0.9378 -1.5239
  687MOL0     H92706   4.876   8.278   7.925 -0.3167  1.2772 -2.7720
  687MOL0     H92707   5.005   8.288   8.050  1.4309  0.2830 -1.8944
  687MOL0     H92708   4.875   8.399   8.054  1.4127  0.6049 -0.9228
  687MOL0     H92709   4.675   8.829   7.913  2.3478 -0.6360 -2.2726
  687MOL0     H92710   4.436   8.886   7.956 -1.6937 -1.8908  0.8315
  687MOL0     H92711   4.186   8.761   7.980  1.3048 -0.9541 -0.7093
  687MOL0     H92712   4.223   8.928   7.973  0.1577 -1.4474  1.3676
  687MOL0     H92713   3.961   8.777   7.863  1.7715 -2.3503  1.2868
  687MOL0     H92714   3.961   8.889   7.994  0.7219  1.6543  0.3350
  687MOL0     H92715   3.876   8.970   7.773  0.2158 -1.9064 -0.1336
  687MOL0     H92716   4.054   8.986   7.727  1.0547  1.2192  0.5505
  687MOL0     H92717   3.978   9.119   7.989  0.8849 -2.4461  0.5378
  687MOL0     H92718   4.090   9.174   7.868 -0.2914  1.0791  0.9149
  687MOL0     H92719   3.784   9.195   7.826  0.7561  1.3163  1.7466
  687MOL0     H92720   3.923   9.225   7.712 -0.2422  0.5317 -0.2559
  687MOL0     H92721   4.007   9.381   7.893  0.6899 -1.2180 -0.0501
  687MOL0     H92722   3.855   9.429   7.800 -0.9793 -0.9102 -0.7019
  687MOL0     H92723   3.787   9.272   8.042 -4.3325  0.4833  0.9427
  687MOL0     H92724   3.706   9.389   7.950  0.5053  1.1850  1.3696
  687MOL0     H92725   3.766   9.492   8.170 -0.7782 -1.3941 -0.6762
  687MOL0     H92726   3.868   9.573   8.070 -0.2480  0.4162 -0.7921
  687MOL0     H92727   4.311   8.659   7.618 -0.9596 -0.2622  2.0936
  687MOL0     H92728   4.555   8.604   7.571  0.0990 -0.1277  0.0632
  687MOL0     H92729   5.003   8.730   7.698  2.7159  0.0156 -1.9336
  687MOL0     H92730   5.221   8.677   7.674  0.8239 -0.7755  0.8032
  687MOL0     H92731   6.785   7.721   7.927 -0.0499 -0.0383 -0.0404
  687MOL0     H92732   7.020   7.659   7.839  2.0047  2.1449  0.0710
  687MOL0     H92733   7.490   7.756   7.753 -0.7800  0.3379  0.7600
  687MOL0     H92734   7.730   7.660   7.723  1.9055  0.7048  0.4812
  687MOL0     H92735   8.022   7.408   7.951  0.0843  1.1037 -1.0535
  687MOL0     H92736   7.879   7.377   8.046 -0.2474  1.1308  0.1867
  687MOL0     H92737   7.759   7.285   7.855 -0.1261 -3.5922 -1.7876
  687MOL0     H92738   7.915   7.198   7.875  2.3092  0.9960 -0.0892
  687MOL0     H92739   8.018   7.292   7.688 -0.5637  1.2514  0.2744
  687MOL0     H92740   7.891   7.422   7.684  1.2264  0.7600 -1.1766
  687MOL0     H92741   7.721   7.227   7.648  0.0374 -0.8042 -0.2483
  687MOL0     H92742   7.859   7.127   7.596  1.7774  0.3928 -0.5901
  687MOL0     H92743   7.790   7.445   7.294 -1.8625 -1.6079 -1.3864
  687MOL0     H92744   7.681   7.435   8.075  0.1963  1.8833  1.6192
  687MOL0     H92745   7.439   7.506   8.087 -0.8765 -0.6563 -0.3115
  688MOL0     O92746   8.089   5.702   2.866 -0.0434 -0.5743 -0.0921
  688MOL0     C92747   8.006   5.625   2.924 -1.2431  0.0609 -0.8436
  688MOL0     O92748   7.870   5.606   2.895  0.3133 -0.3678 -0.2532
  688MOL0     C92749   7.807   5.701   2.821  0.2952 -0.1649  0.2399
  688MOL0     C92750   7.744   5.678   2.701  0.1597  0.2629 -0.1898
  688MOL0     C92751   7.691   5.788   2.631 -0.7353  0.6108  0.1934
  688MOL0     C92752   7.687   5.915   2.681 -0.9895  0.1260 -0.4325
  688MOL0     O92753   7.627   6.008   2.607 -0.7034  0.4551  0.6527
  688MOL0     C92754   7.592   6.135   2.666 -0.8554  1.0117  0.8892
  688MOL0     C92755   7.572   6.228   2.551  0.6510  0.3913 -0.7316
  688MOL0     C92756   7.451   6.182   2.464  0.0514 -0.4729 -0.0010
  688MOL0     C92757   7.415   6.275   2.341  0.3202  0.2330  0.0712
  688MOL0     C92758   7.311   6.195   2.254 -0.1351  0.2324 -0.2039
  688MOL0     C92759   7.234   6.299   2.176  0.3509  0.3778 -0.5146
  688MOL0     C92760   7.127   6.231   2.091  0.2785  0.6387 -0.0681
  688MOL0     C92761   7.190   6.184   1.953  0.4108  0.6136 -0.2974
  688MOL0     N92762   7.099   6.146   1.847  0.2225 -0.7131  0.2210
  688MOL0     C92763   6.961   6.117   1.852  0.1463 -0.6643 -1.2863
  688MOL0     C92764   6.917   6.106   1.726 -0.0502  0.4692 -0.3117
  688MOL0     C92765   6.776   6.081   1.676 -0.0901 -0.2094 -0.1599
  688MOL0     C92766   6.736   6.210   1.597 -0.8001  0.0610 -0.1305
  688MOL0     C92767   6.585   6.213   1.558 -0.3619  0.6429 -0.2060
  688MOL0     C92768   6.562   6.318   1.450 -0.2694 -0.1193 -0.5265
  688MOL0     O92769   6.639   6.267   1.344  0.6028  0.3123 -0.1796
  688MOL0     C92770   6.614   6.331   1.225 -0.2867 -0.9030  0.3182
  688MOL0     C92771   6.533   6.444   1.208  0.3016 -0.0144  0.1074
  688MOL0     C92772   6.510   6.510   1.076 -0.4852  0.7640  0.0433
  688MOL0     C92773   6.402   6.611   1.081 -0.2438 -0.1722 -0.3445
  688MOL0     C92774   6.586   6.455   0.966 -0.1948  0.9150  0.1616
  688MOL0     C92775   6.570   6.496   0.824  1.2059 -0.7649  0.4154
  688MOL0     O92776   6.653   6.431   0.740  0.7718 -0.4150 -0.0786
  688MOL0     C92777   6.663   6.470   0.608 -0.2520 -0.3748  0.4056
  688MOL0     C92778   6.681   6.361   0.516 -0.2431 -0.2343 -0.0209
  688MOL0     C92779   6.694   6.398   0.375  0.4714  0.0793 -0.1345
  688MOL0     C92780   6.681   6.530   0.327  0.6955 -0.3917 -0.9738
  688MOL0     O92781   6.671   6.567   0.198 -0.8409 -0.9944  0.3100
  688MOL0     C92782   6.700   6.468   0.099 -0.4555  0.6690 -0.2007
  688MOL0     C92783   6.693   6.529  -0.038  1.1277 -0.7012  0.4228
  688MOL0     C92784   6.566   6.607  -0.061  0.9855 -0.9872  0.0767
  688MOL0     C92785   6.549   6.631  -0.208 -0.0564 -0.7164  0.7488
  688MOL0     C92786   6.425   6.721  -0.230 -0.2065  0.0314 -0.3251
  688MOL0     C92787   6.382   6.730  -0.380  0.1161  0.3679 -1.0324
  688MOL0     C92788   6.493   6.787  -0.476 -0.1476 -0.6394 -0.4621
  688MOL0     C92789   6.427   6.785  -0.615 -0.3565 -0.1877 -0.6040
  688MOL0    Cl92790   6.298   6.900  -0.637 -0.1706  0.2494 -0.3066
  688MOL0     C92791   6.683   6.634   0.424  1.0122  0.6459  0.1024
  688MOL0     C92792   6.668   6.598   0.564  0.0796 -0.1617  0.2708
  688MOL0     O92793   6.500   6.597   0.803  0.4271  0.2743 -0.1950
  688MOL0     C92794   6.669   6.339   0.988  0.2556 -0.8226 -0.6642
  688MOL0     C92795   6.676   6.286   1.116 -0.3540  1.4296  0.7126
  688MOL0     N92796   7.029   6.138   1.643  0.1123 -0.6786 -0.5228
  688MOL0     N92797   7.135   6.165   1.719 -1.1052  0.0642  0.3174
  688MOL0     C92798   7.749   5.944   2.804 -0.4518  0.9434  0.4893
  688MOL0     C92799   7.811   5.838   2.874 -1.0611  1.2780 -0.8628
  688MOL0     C92800   8.072   5.535   3.014  0.0297  0.1539 -0.3609
  688MOL0     C92801   8.008   5.419   3.060  0.2660  0.2016  0.5505
  688MOL0     C92802   8.073   5.335   3.157 -0.0412  0.4265 -0.4148
  688MOL0     C92803   8.208   5.363   3.195  0.7970 -0.3643 -0.3512
  688MOL0     O92804   8.293   5.294   3.275  0.4144 -0.1409  0.1796
  688MOL0     C92805   8.282   5.154   3.242 -0.4972  0.0887 -0.0648
  688MOL0     C92806   8.390   5.073   3.297 -0.1691 -0.2752 -0.2041
  688MOL0     C92807   8.367   4.927   3.310  0.1295  0.3031  0.7346
  688MOL0     C92808   8.257   4.856   3.403  0.0230 -0.2911  0.4170
  688MOL0     C92809   8.271   4.911   3.544  0.9400 -0.2209  0.2815
  688MOL0     C92810   8.290   4.944   3.658 -0.3328  0.5834 -0.7545
  688MOL0     C92811   8.268   5.472   3.137  0.6280 -0.1420 -0.6516
  688MOL0     C92812   8.200   5.565   3.065 -0.5009 -0.3962  0.8301
  688MOL0     H92813   7.738   5.578   2.659 -0.3949 -0.5480  1.6891
  688MOL0     H92814   7.644   5.752   2.539 -0.3571 -1.3468  0.7112
  688MOL0     H92815   7.497   6.117   2.718 -2.3679 -2.8287 -2.6039
  688MOL0     H92816   7.661   6.167   2.745  2.3732 -2.2447 -0.3413
  688MOL0     H92817   7.548   6.327   2.592  5.0785  2.5797 -2.6731
  688MOL0     H92818   7.658   6.251   2.486  1.8816 -1.9796 -0.0368
  688MOL0     H92819   7.462   6.081   2.424 -3.5711 -1.0580  0.1370
  688MOL0     H92820   7.365   6.162   2.527  0.0691  0.9821  0.5196
  688MOL0     H92821   7.381   6.370   2.383  0.7405  0.1760  0.5489
  688MOL0     H92822   7.510   6.290   2.289  1.9341  0.8376  2.9685
  688MOL0     H92823   7.362   6.129   2.184  1.8412  1.1608  0.2765
  688MOL0     H92824   7.247   6.132   2.317  1.5519 -1.1525  0.2204
  688MOL0     H92825   7.192   6.374   2.244  1.3628 -0.0477  0.6318
  688MOL0     H92826   7.297   6.366   2.116  0.9540  1.1743  0.9398
  688MOL0     H92827   7.096   6.144   2.151 -0.8048  1.5529  0.7499
  688MOL0     H92828   7.041   6.293   2.064  0.0412  0.4215  0.1786
  688MOL0     H92829   7.270   6.110   1.948 -0.0589  0.1435 -1.0050
  688MOL0     H92830   7.250   6.265   1.911  4.2966 -0.5430  2.4074
  688MOL0     H92831   6.904   6.104   1.943  2.5335  1.0217  0.5689
  688MOL0     H92832   6.775   5.988   1.619 -2.6618 -0.7562  0.6487
  688MOL0     H92833   6.703   6.071   1.758  1.8024 -1.7811  1.4435
  688MOL0     H92834   6.809   6.206   1.516 -1.1244  1.3728 -0.5142
  688MOL0     H92835   6.760   6.309   1.639  0.0921  0.5323 -1.6928
  688MOL0     H92836   6.531   6.233   1.652 -1.0721 -0.7131 -0.2909
  688MOL0     H92837   6.549   6.122   1.508 -0.8608  0.3232  0.7061
  688MOL0     H92838   6.593   6.418   1.484 -0.4779  0.9958 -3.3728
  688MOL0     H92839   6.456   6.322   1.426 -1.2907  0.9928  3.4603
  688MOL0     H92840   6.480   6.496   1.287  0.8709  1.2708 -0.3448
  688MOL0     H92841   6.308   6.558   1.062  1.1725 -3.5968  1.2408
  688MOL0     H92842   6.394   6.660   1.179 -3.1208  0.8412 -1.0104
  688MOL0     H92843   6.411   6.689   1.005 -1.7427 -0.5182 -0.9086
  688MOL0     H92844   6.688   6.258   0.550 -0.2355 -0.4861 -0.7668
  688MOL0     H92845   6.699   6.322   0.298 -3.5113  0.0222 -0.5426
  688MOL0     H92846   6.802   6.429   0.112 -0.4828  0.8569  0.6277
  688MOL0     H92847   6.617   6.401   0.120 -1.2133  1.1484 -1.5575
  688MOL0     H92848   6.781   6.586  -0.069 -0.0206  0.0254 -1.6273
  688MOL0     H92849   6.687   6.444  -0.107  2.4783 -1.2052  0.8881
  688MOL0     H92850   6.576   6.704  -0.011  1.7161 -1.3012  0.5632
  688MOL0     H92851   6.477   6.555  -0.024 -2.0171  2.6949 -1.3239
  688MOL0     H92852   6.639   6.664  -0.259 -1.5272  0.5833 -1.1667
  688MOL0     H92853   6.530   6.540  -0.266  2.9430  0.4302 -2.3658
  688MOL0     H92854   6.441   6.822  -0.191  0.7079 -0.6409  1.1195
  688MOL0     H92855   6.337   6.681  -0.178 -0.0141  0.0802  0.0396
  688MOL0     H92856   6.342   6.638  -0.422 -2.3813  1.0626 -0.3847
  688MOL0     H92857   6.290   6.791  -0.377  0.7386  1.3424 -1.3593
  688MOL0     H92858   6.579   6.719  -0.470  1.0220  0.8317 -0.0307
  688MOL0     H92859   6.520   6.885  -0.435 -3.5060 -0.9267  2.9595
  688MOL0     H92860   6.387   6.685  -0.636 -1.9112 -0.4988  3.1353
  688MOL0     H92861   6.509   6.809  -0.683  0.8121 -0.5245  0.6326
  688MOL0     H92862   6.666   6.738   0.398  0.2278  0.7150  0.8653
  688MOL0     H92863   6.658   6.680   0.634  0.0860 -1.9284  2.4634
  688MOL0     H92864   6.724   6.291   0.907  1.9914  2.9650 -1.9396
  688MOL0     H92865   6.738   6.197   1.117  1.9034  2.9016  2.4148
  688MOL0     H92866   7.773   6.037   2.855  1.0164  0.0747  1.4352
  688MOL0     H92867   7.870   5.857   2.963 -3.3821  0.9699  0.8546
  688MOL0     H92868   7.906   5.392   3.034  0.2374  0.7956  0.0213
  688MOL0     H92869   8.023   5.247   3.195  2.9906 -0.9057  0.7693
  688MOL0     H92870   8.191   5.112   3.285 -0.5834 -1.7666 -1.8869
  688MOL0     H92871   8.274   5.144   3.134  2.5801 -1.4956 -0.2754
  688MOL0     H92872   8.408   5.116   3.396  0.6452  0.9908 -0.8681
  688MOL0     H92873   8.484   5.091   3.243  0.5550  1.1868  1.4436
  688MOL0     H92874   8.461   4.889   3.349  0.2600  0.2485  0.3770
  688MOL0     H92875   8.356   4.892   3.206 -1.3541 -1.5292  1.4500
  688MOL0     H92876   8.268   4.748   3.390  0.0306 -0.2313 -0.0732
  688MOL0     H92877   8.154   4.875   3.372  0.4440  0.1957 -0.7234
  688MOL0     H92878   8.297   4.952   3.764 -1.8109  0.9836 -0.6606
  688MOL0     H92879   8.374   5.489   3.152  0.6797 -0.9751  0.0772
  688MOL0     H92880   8.252   5.654   3.031 -0.5572 -0.6687  0.0062
  689MOL0     O92881   7.168   9.006   0.258 -0.9965  0.4211  0.0261
  689MOL0     C92882   7.196   9.123   0.277 -0.0182  0.1162 -0.9824
  689MOL0     O92883   7.137   9.220   0.205  0.4474  0.5117  0.0914
  689MOL0     C92884   7.007   9.189   0.163  0.0253 -0.6098  0.7259
  689MOL0     C92885   6.892   9.179   0.241 -0.6660  0.0495 -0.4391
  689MOL0     C92886   6.767   9.161   0.182 -0.3954 -0.7874 -0.6047
  689MOL0     C92887   6.746   9.150   0.049  0.3544 -0.6286 -0.5460
  689MOL0     O92888   6.622   9.146  -0.012 -1.2190  0.4174 -0.3498
  689MOL0     C92889   6.506   9.212   0.043 -0.9073 -0.2934  0.2124
  689MOL0     C92890   6.401   9.187  -0.069 -0.3461  0.4643 -0.1250
  689MOL0     C92891   6.413   9.292  -0.181  0.2935 -0.3017 -0.3576
  689MOL0     C92892   6.319   9.260  -0.291  0.3899  0.0035 -0.3432
  689MOL0     C92893   6.339   9.355  -0.402  0.0948 -0.1707  0.5211
  689MOL0     C92894   6.230   9.363  -0.504  0.1956 -0.6439  0.1580
  689MOL0     C92895   6.250   9.432  -0.640 -0.0226  0.3577 -0.0954
  689MOL0     C92896   6.316   9.346  -0.752 -0.0656 -0.2959  0.2251
  689MOL0     N92897   6.303   9.416  -0.883 -0.1639  0.3948 -0.1598
  689MOL0     C92898   6.183   9.448  -0.938 -0.0558 -0.3423  0.5590
  689MOL0     C92899   6.201   9.559  -1.006  0.1155  0.3777 -0.1930
  689MOL0     C92900   6.098   9.642  -1.086  0.3310  0.0418 -0.3032
  689MOL0     C92901   5.986   9.705  -1.010  0.1828  0.1738  0.0421
  689MOL0     C92902   6.024   9.813  -0.913  0.3914  0.3034 -0.7756
  689MOL0     C92903   5.938   9.937  -0.923 -0.1460 -0.3900  0.5135
  689MOL0     O92904   5.812   9.925  -0.862  0.5174 -0.5659 -0.0130
  689MOL0     C92905   5.779   9.978  -0.741 -0.1309  0.1786  0.0471
  689MOL0     C92906   5.856  10.065  -0.663 -0.1106 -0.8514 -0.2761
  689MOL0     C92907   5.812  10.106  -0.534  0.2148  0.8738 -1.0845
  689MOL0     C92908   5.901  10.197  -0.452  0.2511  0.1821 -0.1850
  689MOL0     C92909   5.690  10.050  -0.476 -0.0093  1.1007 -0.3013
  689MOL0     C92910   5.629  10.083  -0.345  0.2000 -0.6362 -0.2396
  689MOL0     O92911   5.493  10.044  -0.321  0.4837  0.1534 -0.6473
  689MOL0     C92912   5.422  10.088  -0.204 -0.1854 -0.3483 -0.0513
  689MOL0     C92913   5.478  10.067  -0.075  0.1840  0.3291  0.2796
  689MOL0     C92914   5.407  10.101   0.042  0.1350  0.2435  0.2460
  689MOL0     C92915   5.279  10.163   0.027  0.4228  0.8723  0.9977
  689MOL0     O92916   5.215  10.208   0.135 -0.3518  0.3253  0.0486
  689MOL0     C92917   5.205  10.119   0.253 -0.3348 -0.1183  1.6020
  689MOL0     C92918   5.121  10.186   0.359  1.0678  0.1423 -0.0855
  689MOL0     C92919   4.975  10.233   0.326 -0.1213 -0.6929  0.0673
  689MOL0     C92920   4.980  10.378   0.271 -0.1819  0.2415 -0.5321
  689MOL0     C92921   4.837  10.436   0.279  0.4063  0.5319  0.3171
  689MOL0     C92922   4.822  10.561   0.196  0.5028 -0.8844  0.7370
  689MOL0     C92923   4.869  10.684   0.272  0.1457 -0.4958  0.1318
  689MOL0     C92924   4.795  10.798   0.212  0.0145 -0.5182 -0.3852
  689MOL0    Cl92925   4.625  10.812   0.257  0.0611  0.1165 -0.1736
  689MOL0     C92926   5.227  10.180  -0.103 -0.2568 -0.0537 -0.3342
  689MOL0     C92927   5.295  10.140  -0.214  0.7042 -0.6368  0.2980
  689MOL0     O92928   5.699  10.151  -0.264 -0.0422 -1.0240 -0.4309
  689MOL0     C92929   5.603   9.978  -0.565  0.2154 -0.5214  0.4366
  689MOL0     C92930   5.655   9.949  -0.694 -0.2498  0.3362  0.0178
  689MOL0     N92931   6.342   9.595  -1.003  0.5303  0.4488  0.6251
  689MOL0     N92932   6.391   9.510  -0.926  0.9120  0.5145 -0.1175
  689MOL0     C92933   6.859   9.165  -0.034  0.2489 -0.3224 -0.7888
  689MOL0     C92934   6.990   9.180   0.022 -0.1189  0.5357 -0.2261
  689MOL0     C92935   7.299   9.161   0.365 -0.3385 -0.8340  0.0151
  689MOL0     C92936   7.328   9.296   0.378 -0.3548  0.7193  0.0249
  689MOL0     C92937   7.430   9.354   0.460 -0.7576 -0.8236  0.8704
  689MOL0     C92938   7.502   9.268   0.549  0.8656  0.1424  0.2040
  689MOL0     O92939   7.586   9.303   0.654  0.1253 -0.6320 -0.4216
  689MOL0     C92940   7.607   9.447   0.673  0.3495 -0.6173  0.1859
  689MOL0     C92941   7.712   9.480   0.780  0.8437 -0.3318  0.5113
  689MOL0     C92942   7.747   9.623   0.787 -0.4025 -0.5930 -0.0489
  689MOL0     C92943   7.902   9.636   0.823  0.5316 -0.5582  0.0773
  689MOL0     C92944   7.925   9.772   0.882 -0.5166  0.3107 -0.6281
  689MOL0     C92945   7.950   9.885   0.919  0.6900  0.8365  0.1768
  689MOL0     C92946   7.480   9.132   0.532  0.6403  0.1909  0.2318
  689MOL0     C92947   7.381   9.077   0.442 -0.0967  0.7906 -0.5799
  689MOL0     H92948   6.894   9.191   0.349 -4.4462 -0.4396 -0.1613
  689MOL0     H92949   6.677   9.153   0.242  0.0093 -0.0843  0.1276
  689MOL0     H92950   6.479   9.165   0.138  1.3285  0.3371  1.2187
  689MOL0     H92951   6.518   9.320   0.051 -1.7858 -0.1862  0.2445
  689MOL0     H92952   6.404   9.084  -0.105 -2.6521 -0.0847  1.0489
  689MOL0     H92953   6.308   9.199  -0.012  0.1894  0.7806  0.6937
  689MOL0     H92954   6.391   9.389  -0.135  3.7836  0.8075 -0.7317
  689MOL0     H92955   6.517   9.304  -0.212 -0.1745 -0.3394 -2.0316
  689MOL0     H92956   6.345   9.161  -0.330 -1.3618 -1.0100  0.9321
  689MOL0     H92957   6.213   9.259  -0.264  1.1527  1.0066  3.2614
  689MOL0     H92958   6.368   9.453  -0.361  1.6125 -0.2472 -0.2855
  689MOL0     H92959   6.433   9.324  -0.449  0.4859  1.7216 -0.0509
  689MOL0     H92960   6.190   9.264  -0.527 -0.8377  0.3451 -2.7708
  689MOL0     H92961   6.148   9.413  -0.452 -0.8848  0.9258 -2.8436
  689MOL0     H92962   6.147   9.449  -0.673 -1.6129 -3.5843  2.2078
  689MOL0     H92963   6.294   9.532  -0.640 -0.5573  0.6737 -2.7004
  689MOL0     H92964   6.273   9.246  -0.761 -2.6615  0.7518  0.0891
  689MOL0     H92965   6.420   9.318  -0.734 -0.3463 -2.6185 -1.3362
  689MOL0     H92966   6.098   9.381  -0.938  0.0450 -0.4734  1.0044
  689MOL0     H92967   6.149   9.718  -1.145 -1.9718  1.9089 -0.0271
  689MOL0     H92968   6.051   9.576  -1.158 -1.3421  0.9986 -0.1294
  689MOL0     H92969   5.942   9.621  -0.956  2.6382 -0.5845  0.9950
  689MOL0     H92970   5.906   9.741  -1.077 -0.6877 -0.2221  0.8397
  689MOL0     H92971   6.128   9.849  -0.917 -0.4717  3.3532  0.8499
  689MOL0     H92972   6.015   9.780  -0.809  4.7737  3.8370  1.0594
  689MOL0     H92973   5.923   9.949  -1.031 -5.3249 -4.1989  0.4323
  689MOL0     H92974   5.984  10.032  -0.897  1.0131 -1.2363  1.6617
  689MOL0     H92975   5.948  10.110  -0.697 -2.3479  3.2543 -1.6344
  689MOL0     H92976   5.935  10.148  -0.361 -1.1673  0.9651  0.8044
  689MOL0     H92977   5.985  10.229  -0.514 -0.5516 -1.0030 -1.9782
  689MOL0     H92978   5.833  10.276  -0.419 -1.8237 -2.1758  1.6182
  689MOL0     H92979   5.579  10.027  -0.069 -0.5946 -2.0031 -0.8679
  689MOL0     H92980   5.446  10.090   0.143  3.1960 -1.3446 -0.9830
  689MOL0     H92981   5.137  10.038   0.224 -3.8654  2.4927  1.9781
  689MOL0     H92982   5.301  10.084   0.293 -1.5264 -4.3266  1.2319
  689MOL0     H92983   5.101  10.103   0.427 -1.8152  0.9715  0.2261
  689MOL0     H92984   5.177  10.256   0.421 -1.5267  3.3976 -1.0964
  689MOL0     H92985   4.919  10.236   0.420  0.9082  1.4966  0.6672
  689MOL0     H92986   4.918  10.161   0.267 -1.1231 -1.0054  1.3741
  689MOL0     H92987   5.037  10.449   0.330  0.2452  1.8675 -2.7775
  689MOL0     H92988   5.011  10.366   0.167  1.2985 -3.7462  0.1907
  689MOL0     H92989   4.809  10.450   0.383  1.3821 -2.6350  1.1027
  689MOL0     H92990   4.775  10.357   0.236  2.0744 -0.5430 -0.1912
  689MOL0     H92991   4.845  10.565   0.089 -0.2432 -1.3039  0.5554
  689MOL0     H92992   4.715  10.579   0.185  0.5037 -1.5860 -0.7051
  689MOL0     H92993   4.970  10.705   0.237 -0.3297 -0.5815 -1.3609
  689MOL0     H92994   4.875  10.677   0.381  1.2933  0.1590  0.1271
  689MOL0     H92995   4.815  10.793   0.104  2.4574 -0.1401 -0.0094
  689MOL0     H92996   4.840  10.894   0.237 -1.2187 -0.4608  1.8487
  689MOL0     H92997   5.131  10.230  -0.114 -0.0417  1.1155  2.2137
  689MOL0     H92998   5.257  10.149  -0.315  0.3273  3.6066  0.6112
  689MOL0     H92999   5.502   9.945  -0.543 -0.7736  3.4402  2.7869
  689MOL0     H93000   5.589   9.886  -0.753  1.1296 -1.1940  0.0200
  689MOL0     H93001   6.841   9.162  -0.141 -1.4815  1.2759 -0.5823
  689MOL0     H93002   7.076   9.203  -0.040 -0.5294  0.9312 -0.6628
  689MOL0     H93003   7.274   9.370   0.319 -2.0418 -0.8039 -0.4203
  689MOL0     H93004   7.441   9.462   0.460  3.1788 -1.0699  1.2906
  689MOL0     H93005   7.652   9.480   0.579  2.4341 -1.1972  0.9317
  689MOL0     H93006   7.510   9.495   0.687  0.4465  0.8354 -3.1783
  689MOL0     H93007   7.796   9.415   0.754 -0.2941 -2.7169  2.2813
  689MOL0     H93008   7.701   9.447   0.884  2.5463 -0.1574  0.7694
  689MOL0     H93009   7.682   9.662   0.866  1.5568  1.2190  0.7606
  689MOL0     H93010   7.730   9.680   0.696 -1.1204  0.3848  0.6727
  689MOL0     H93011   7.971   9.637   0.738  2.0340  1.7573  1.2156
  689MOL0     H93012   7.940   9.563   0.895  0.7283  0.8491  1.4562
  689MOL0     H93013   7.968   9.984   0.956 -0.2538  1.2212 -0.3549
  689MOL0     H93014   7.547   9.061   0.579  1.4016  1.2943  0.8556
  689MOL0     H93015   7.376   8.969   0.438 -2.3038  0.7555  1.1783
  690MOL0     O93016   1.430  10.406   1.067  0.1125  0.2835  0.5567
  690MOL0     C93017   1.436  10.284   1.039 -0.1796 -0.7410 -0.8486
  690MOL0     O93018   1.320  10.219   0.998  0.9633 -0.0096  0.4028
  690MOL0     C93019   1.191  10.267   1.015  0.2223  0.4420 -0.2692
  690MOL0     C93020   1.153  10.357   1.118  0.7258 -0.3747  0.3055
  690MOL0     C93021   1.023  10.413   1.132 -0.6910  0.5534  0.7763
  690MOL0     C93022   0.919  10.366   1.052 -0.6461 -0.3363 -0.0951
  690MOL0     O93023   0.796  10.419   1.060 -0.6861 -0.1423 -0.4999
  690MOL0     C93024   0.782  10.563   1.083  0.7530 -0.9877  0.3868
  690MOL0     C93025   0.629  10.605   1.074  0.2888  1.0858  0.4677
  690MOL0     C93026   0.574  10.567   1.214 -0.2029  0.3442  0.6339
  690MOL0     C93027   0.421  10.602   1.242 -0.2687  0.5010 -0.4757
  690MOL0     C93028   0.318  10.592   1.130  0.9274 -0.7736  0.3471
  690MOL0     C93029   0.184  10.613   1.192  0.8927  0.7379  0.3093
  690MOL0     C93030   0.152  10.762   1.178  0.5924 -0.8387  0.4261
  690MOL0     C93031   0.008  10.799   1.206  0.9887  0.2084  1.2099
  690MOL0     N93032  -0.014  10.931   1.147  0.7538 -0.0310 -0.5654
  690MOL0     C93033  -0.086  10.942   1.029 -0.3895 -0.1096  0.0778
  690MOL0     C93034  -0.120  11.068   1.029  0.8780  0.2901  0.1496
  690MOL0     C93035  -0.197  11.134   0.915 -0.7661 -0.9387  0.2223
  690MOL0     C93036  -0.095  11.166   0.797  0.7657 -0.1478 -0.4533
  690MOL0     C93037   0.032  11.243   0.828 -0.5699 -0.4656 -0.6018
  690MOL0     C93038   0.059  11.327   0.706  0.5373  0.0694 -1.4005
  690MOL0     O93039   0.195  11.380   0.712  0.3544  0.8381  0.9203
  690MOL0     C93040   0.304  11.296   0.690  0.4987 -1.1082  0.1084
  690MOL0     C93041   0.434  11.335   0.710  0.2865 -0.8217 -0.0507
  690MOL0     C93042   0.550  11.269   0.675  0.4362  0.4529  0.3787
  690MOL0     C93043   0.675  11.350   0.713 -0.2364 -0.3638  0.2014
  690MOL0     C93044   0.535  11.134   0.628 -0.9918  0.7915  0.7707
  690MOL0     C93045   0.652  11.044   0.597  0.0257 -0.3935 -0.4531
  690MOL0     O93046   0.779  11.093   0.608  0.2396 -0.4968 -0.0748
  690MOL0     C93047   0.884  11.053   0.528  0.2384 -0.0468  0.6470
  690MOL0     C93048   1.018  11.043   0.584  0.1326  0.2702 -0.4569
  690MOL0     C93049   1.129  11.014   0.503  0.2904 -0.1520  0.2113
  690MOL0     C93050   1.108  10.989   0.368 -0.9666 -0.3930 -0.0964
  690MOL0     O93051   1.224  10.938   0.305  0.3122 -0.3553 -0.0127
  690MOL0     C93052   1.284  11.030   0.211  0.2420  0.3208 -0.1582
  690MOL0     C93053   1.395  10.964   0.125  0.3008 -0.4175  0.1843
  690MOL0     C93054   1.516  10.894   0.209  0.3564  0.5352 -0.1965
  690MOL0     C93055   1.546  10.950   0.355 -0.4060  0.2417  1.3401
  690MOL0     C93056   1.660  10.874   0.424 -0.7323  0.1594 -0.4236
  690MOL0     C93057   1.791  10.893   0.346  1.3744 -0.6691  1.1418
  690MOL0     C93058   1.914  10.839   0.417 -0.4018  0.1890  0.2399
  690MOL0     C93059   2.015  10.804   0.307 -0.2735 -0.3327  0.6878
  690MOL0    Cl93060   2.074  10.962   0.239 -0.4023 -0.6629 -0.2595
  690MOL0     C93061   0.980  11.006   0.306  0.1812  0.8383 -0.1627
  690MOL0     C93062   0.866  11.020   0.394 -0.9085 -0.4564  0.0352
  690MOL0     O93063   0.626  10.928   0.565  0.3582 -0.2628 -1.2189
  690MOL0     C93064   0.406  11.082   0.613  0.3197  0.4454  0.8233
  690MOL0     C93065   0.293  11.160   0.650  0.9971 -0.1398 -0.8196
  690MOL0     N93066  -0.061  11.130   1.141  0.0113 -0.0849 -0.9921
  690MOL0     N93067  -0.011  11.043   1.217  0.7216 -0.5603 -0.2446
  690MOL0     C93068   0.953  10.269   0.948 -0.2840 -0.2995 -0.7431
  690MOL0     C93069   1.090  10.224   0.928 -0.2292  0.1377  0.3534
  690MOL0     C93070   1.564  10.211   1.045 -0.8977 -0.0126  0.8530
  690MOL0     C93071   1.563  10.071   1.009 -0.7347 -0.4477  0.4985
  690MOL0     C93072   1.688  10.001   1.021  0.0346 -0.4483 -0.6527
  690MOL0     C93073   1.809  10.068   1.051  0.2523  0.7609 -0.0873
  690MOL0     O93074   1.924  10.004   1.059  0.1610 -0.0696 -0.0442
  690MOL0     C93075   1.939   9.980   1.205 -0.2873 -0.4707 -0.7225
  690MOL0     C93076   2.064   9.901   1.223  0.9902 -1.1549  0.1297
  690MOL0     C93077   2.036   9.749   1.211  0.0096  0.1601 -0.4887
  690MOL0     C93078   2.160   9.661   1.171  0.6660 -0.0461  0.2536
  690MOL0     C93079   2.215   9.573   1.278  0.4899 -0.3907  0.0103
  690MOL0     C93080   2.281   9.504   1.363  0.3486 -0.2731  0.5316
  690MOL0     C93081   1.804  10.209   1.058 -1.1828 -0.2122 -0.8534
  690MOL0     C93082   1.685  10.284   1.055  0.2503 -0.0695  0.7555
  690MOL0     H93083   1.230  10.392   1.187 -0.0041  2.8257 -0.3527
  690MOL0     H93084   1.009  10.488   1.210 -4.1326  2.1405 -1.1244
  690MOL0     H93085   0.824  10.593   1.179  1.1360 -1.8505  0.4955
  690MOL0     H93086   0.828  10.619   1.001 -2.4639  3.6991  1.4230
  690MOL0     H93087   0.625  10.713   1.055 -2.4112  0.7259 -1.7187
  690MOL0     H93088   0.574  10.551   0.997 -0.8106  3.3179 -0.4214
  690MOL0     H93089   0.590  10.461   1.235 -3.4127 -0.9891 -2.5537
  690MOL0     H93090   0.620  10.629   1.291 -3.6750  3.8260  0.1698
  690MOL0     H93091   0.386  10.542   1.326 -2.6549 -1.5000 -2.7303
  690MOL0     H93092   0.422  10.708   1.268  2.4699  0.2051  1.0001
  690MOL0     H93093   0.341  10.649   1.039 -1.2486 -3.1931 -1.8926
  690MOL0     H93094   0.322  10.489   1.095  1.9396 -1.2234  1.7182
  690MOL0     H93095   0.107  10.550   1.148  1.2219 -1.1087  2.2200
  690MOL0     H93096   0.186  10.592   1.299  0.9910  2.2917  0.6419
  690MOL0     H93097   0.216  10.826   1.241  1.1155 -1.9208  1.0169
  690MOL0     H93098   0.174  10.786   1.074  2.3127 -1.1887  0.6922
  690MOL0     H93099  -0.016  10.792   1.313 -2.4244 -1.6351  0.4551
  690MOL0     H93100  -0.061  10.734   1.152  2.9238  0.1656 -1.4032
  690MOL0     H93101  -0.123  10.866   0.960 -1.6103 -1.6793  2.3264
  690MOL0     H93102  -0.265  11.061   0.869 -1.1016 -1.1409  1.0214
  690MOL0     H93103  -0.262  11.217   0.944  2.8130  3.2792 -2.5249
  690MOL0     H93104  -0.151  11.217   0.718 -2.2760  2.0819  2.8302
  690MOL0     H93105  -0.042  11.080   0.755  3.3337 -0.0749  2.3038
  690MOL0     H93106   0.112  11.171   0.849 -0.2880 -0.0216 -0.1458
  690MOL0     H93107   0.014  11.305   0.916  0.1593 -1.2854  0.1468
  690MOL0     H93108  -0.008  11.414   0.697  2.8137  2.4376  2.0994
  690MOL0     H93109   0.039  11.277   0.611 -2.5229  0.6213 -1.1528
  690MOL0     H93110   0.446  11.427   0.767 -1.0401 -1.1782  0.8335
  690MOL0     H93111   0.755  11.358   0.638  1.7992  0.5017  2.3407
  690MOL0     H93112   0.642  11.455   0.710 -1.3862 -0.7258 -2.0956
  690MOL0     H93113   0.706  11.311   0.810  0.4796 -0.1335  0.0738
  690MOL0     H93114   1.041  11.050   0.690 -2.9523  2.2908  0.2017
  690MOL0     H93115   1.227  11.007   0.548  1.3370 -1.5747 -2.0727
  690MOL0     H93116   1.208  11.081   0.152 -0.0684 -0.0433 -0.0729
  690MOL0     H93117   1.344  11.102   0.266  1.9962 -1.0210 -0.2208
  690MOL0     H93118   1.352  10.899   0.048  0.7105  0.5062 -0.8668
  690MOL0     H93119   1.434  11.049   0.068 -2.1621  0.7721  0.1247
  690MOL0     H93120   1.599  10.907   0.140  2.2238 -1.3243  1.5670
  690MOL0     H93121   1.490  10.788   0.213  0.0464  0.4567 -2.7307
  690MOL0     H93122   1.580  11.054   0.347 -0.8694  0.3135 -0.0491
  690MOL0     H93123   1.454  10.943   0.414 -0.4345 -1.1392  1.1655
  690MOL0     H93124   1.635  10.769   0.443 -2.0005 -0.0638 -2.9833
  690MOL0     H93125   1.677  10.916   0.524 -1.8407 -0.1873 -0.0767
  690MOL0     H93126   1.772  10.849   0.248 -1.2365  0.4146  1.0826
  690MOL0     H93127   1.812  11.000   0.343  1.9297 -0.7502  1.8030
  690MOL0     H93128   1.894  10.746   0.471  2.5565 -0.9257 -0.4085
  690MOL0     H93129   1.962  10.910   0.485 -0.7566 -1.5089  2.3643
  690MOL0     H93130   1.972  10.754   0.219  1.5116  2.3618 -1.9196
  690MOL0     H93131   2.093  10.744   0.354  1.2738  0.9196 -0.1919
  690MOL0     H93132   0.960  10.977   0.204  0.8675 -1.5725  0.3170
  690MOL0     H93133   0.763  11.039   0.366 -0.7222  1.8767  0.7042
  690MOL0     H93134   0.400  10.981   0.575 -0.8789  1.5975 -2.4071
  690MOL0     H93135   0.198  11.106   0.646  0.7370  0.3005 -0.6069
  690MOL0     H93136   0.870  10.239   0.884 -1.7878  0.8715  0.6014
  690MOL0     H93137   1.101  10.145   0.855  1.2512  0.3543  0.3112
  690MOL0     H93138   1.476  10.013   0.979  1.6445 -2.9811 -2.1990
  690MOL0     H93139   1.707   9.900   0.984 -0.2812 -0.0790 -1.8592
  690MOL0     H93140   1.961  10.077   1.251  0.8729 -1.7900  1.7375
  690MOL0     H93141   1.858   9.927   1.255 -0.5620  0.8262  0.2611
  690MOL0     H93142   2.100   9.916   1.325  2.5090 -0.2983 -0.5037
  690MOL0     H93143   2.152   9.937   1.169  0.6853 -2.3274 -1.2010
  690MOL0     H93144   1.952   9.735   1.142 -5.3716 -0.0797  5.2344
  690MOL0     H93145   1.990   9.725   1.307  1.3828 -1.2007 -0.1137
  690MOL0     H93146   2.232   9.733   1.129  2.6403 -2.7247 -1.2187
  690MOL0     H93147   2.130   9.595   1.089  0.7129 -0.1204  0.2965
  690MOL0     H93148   2.328   9.456   1.447  1.9574 -0.7165 -0.5683
  690MOL0     H93149   1.901  10.258   1.069 -0.0278 -2.1230 -2.0819
  690MOL0     H93150   1.696  10.390   1.078  0.4897  0.0175  0.2495
  691MOL0     O93151   8.008   1.629   1.608  0.9065 -0.4594 -0.7840
  691MOL0     C93152   8.096   1.673   1.682 -0.0746  0.1195  0.8050
  691MOL0     O93153   8.169   1.792   1.661 -0.7612  0.0094  0.7595
  691MOL0     C93154   8.137   1.874   1.555  0.7486 -0.5895 -0.2219
  691MOL0     C93155   8.019   1.945   1.548 -0.2894 -0.6114 -0.4363
  691MOL0     C93156   7.994   2.034   1.441 -0.2265 -0.2861 -0.3023
  691MOL0     C93157   8.087   2.065   1.349 -0.5732 -0.4809  0.3565
  691MOL0     O93158   8.069   2.162   1.255  0.4966 -0.6929 -0.2213
  691MOL0     C93159   8.157   2.186   1.145  0.0153  0.4687  0.2971
  691MOL0     C93160   8.199   2.333   1.135  0.2399 -0.2637  0.3454
  691MOL0     C93161   8.264   2.379   1.267 -0.4224 -0.8970  0.8595
  691MOL0     C93162   8.263   2.534   1.261 -0.1917  0.6041  0.4042
  691MOL0     C93163   8.331   2.609   1.370 -0.4896 -1.0160 -0.1963
  691MOL0     C93164   8.244   2.586   1.489 -0.1818  0.1316 -0.5500
  691MOL0     C93165   8.113   2.661   1.488 -0.3611 -0.1475  0.4054
  691MOL0     C93166   8.024   2.653   1.618 -0.0292 -0.1953 -0.3529
  691MOL0     N93167   7.916   2.758   1.644  0.4625  0.1513  0.2034
  691MOL0     C93168   7.788   2.740   1.605  0.4251  0.2988  0.3323
  691MOL0     C93169   7.717   2.855   1.643  0.5037 -0.0921 -0.1002
  691MOL0     C93170   7.582   2.893   1.615  0.1621  1.0404  0.2951
  691MOL0     C93171   7.530   2.889   1.467 -0.2123  0.1569 -0.4365
  691MOL0     C93172   7.568   3.018   1.391  0.1519  0.6596 -0.0970
  691MOL0     C93173   7.546   2.998   1.236 -0.3758 -0.5458  0.5498
  691MOL0     O93174   7.407   2.967   1.215  0.0172 -0.9474 -0.9195
  691MOL0     C93175   7.315   3.069   1.218 -0.8265 -0.9709 -1.2915
  691MOL0     C93176   7.184   3.030   1.198 -0.9173  0.8812 -0.0142
  691MOL0     C93177   7.074   3.118   1.177  0.2312  0.3194 -0.1109
  691MOL0     C93178   6.945   3.055   1.141  1.0422 -0.3312 -0.3087
  691MOL0     C93179   7.106   3.260   1.202  0.4161 -0.5839  0.2261
  691MOL0     C93180   7.006   3.365   1.216  0.0556  0.0174 -0.4179
  691MOL0     O93181   6.885   3.328   1.242  0.6795  1.3620  0.7466
  691MOL0     C93182   6.778   3.420   1.253 -0.4083  0.7716  0.3999
  691MOL0     C93183   6.706   3.446   1.137  0.8803  0.8376 -0.1354
  691MOL0     C93184   6.600   3.540   1.135  0.1787  0.6059 -0.8227
  691MOL0     C93185   6.554   3.587   1.260 -0.0848 -0.2506  0.6305
  691MOL0     O93186   6.436   3.661   1.257 -0.1744 -0.6865  1.3188
  691MOL0     C93187   6.339   3.642   1.354 -0.6293  0.4674 -1.0031
  691MOL0     C93188   6.202   3.655   1.295 -0.3596 -1.2039 -0.0397
  691MOL0     C93189   6.088   3.620   1.400 -0.6413 -0.0393  1.1070
  691MOL0     C93190   6.025   3.748   1.448 -0.5268  0.6661  1.2191
  691MOL0     C93191   5.910   3.722   1.556 -0.9108  0.3226  0.0696
  691MOL0     C93192   5.840   3.854   1.601  0.3266 -0.1481  0.7595
  691MOL0     C93193   5.750   3.833   1.727 -1.1475 -0.6404 -0.7760
  691MOL0     C93194   5.670   3.959   1.751 -0.1317  0.0961  1.0557
  691MOL0    Cl93195   5.778   4.068   1.841 -0.1334  0.3764  0.2254
  691MOL0     C93196   6.620   3.545   1.376  0.0843 -0.3589  0.6799
  691MOL0     C93197   6.737   3.466   1.373  0.8797  0.5070 -0.4377
  691MOL0     O93198   7.045   3.480   1.210  0.5725  0.4229  0.6711
  691MOL0     C93199   7.234   3.298   1.240  0.6956 -0.3219 -0.0962
  691MOL0     C93200   7.335   3.203   1.250  0.2762 -1.2459 -0.5075
  691MOL0     N93201   7.807   2.933   1.705 -0.2310 -0.3256  0.1551
  691MOL0     N93202   7.927   2.875   1.704 -0.4059  0.0995  0.8267
  691MOL0     C93203   8.206   1.991   1.352  1.4073  0.3990 -0.0608
  691MOL0     C93204   8.229   1.901   1.458 -0.1870  0.4820  0.3491
  691MOL0     C93205   8.133   1.596   1.792 -1.1234 -0.2139 -0.0615
  691MOL0     C93206   8.087   1.464   1.810 -0.1133  0.6514 -0.1489
  691MOL0     C93207   8.128   1.384   1.922  0.7865  0.0737  0.1896
  691MOL0     C93208   8.196   1.439   2.024 -0.6116 -0.4833  0.5144
  691MOL0     O93209   8.220   1.374   2.141 -0.1896  0.1581 -0.5255
  691MOL0     C93210   8.199   1.233   2.165  0.2775  0.9783 -0.8399
  691MOL0     C93211   8.285   1.149   2.069  1.1293 -0.6942 -0.0661
  691MOL0     C93212   8.378   1.042   2.131 -0.0423  0.4082 -0.3045
  691MOL0     C93213   8.499   1.110   2.210  0.0601  0.4782  0.6191
  691MOL0     C93214   8.627   1.091   2.145  0.8510 -0.6510 -0.6811
  691MOL0     C93215   8.739   1.076   2.088  0.3974 -0.8352  0.2211
  691MOL0     C93216   8.245   1.567   2.004 -1.1054 -0.1709  0.2162
  691MOL0     C93217   8.216   1.651   1.893  0.0059 -0.2132  0.5773
  691MOL0     H93218   7.950   1.943   1.632 -0.0289  1.8179 -0.0960
  691MOL0     H93219   7.902   2.090   1.457 -2.4764 -3.0162 -2.5625
  691MOL0     H93220   8.257   2.141   1.140  1.9469  4.2611  0.8098
  691MOL0     H93221   8.102   2.157   1.055 -0.0579  0.5700  0.3085
  691MOL0     H93222   8.274   2.334   1.056 -0.0859 -2.1862 -0.0530
  691MOL0     H93223   8.115   2.397   1.107  0.7199  0.8587  1.3827
  691MOL0     H93224   8.223   2.341   1.361  2.2042 -2.0704  1.6381
  691MOL0     H93225   8.365   2.340   1.254 -0.2416 -0.9703  2.3042
  691MOL0     H93226   8.316   2.568   1.171  1.2696  1.1935  1.4376
  691MOL0     H93227   8.158   2.564   1.258 -0.0568  1.0113 -0.9700
  691MOL0     H93228   8.433   2.573   1.386  0.0021  0.5683  0.3586
  691MOL0     H93229   8.332   2.716   1.350  4.5527 -1.0324 -1.1625
  691MOL0     H93230   8.220   2.480   1.501 -1.1993  0.6574  3.8864
  691MOL0     H93231   8.302   2.624   1.574 -2.2353  2.4516 -0.0778
  691MOL0     H93232   8.145   2.765   1.475  1.8141 -0.9625 -1.2868
  691MOL0     H93233   8.048   2.635   1.405  1.1596 -1.3865 -0.4607
  691MOL0     H93234   8.091   2.667   1.703  2.5288  0.0178 -2.2872
  691MOL0     H93235   7.971   2.557   1.623 -0.8877  0.2302 -1.0521
  691MOL0     H93236   7.730   2.659   1.563 -0.5287 -0.3410  2.7284
  691MOL0     H93237   7.533   2.810   1.668  1.6458 -1.1815 -1.5938
  691MOL0     H93238   7.551   2.988   1.658 -0.3503 -0.3719  3.3130
  691MOL0     H93239   7.420   2.883   1.461 -0.4767  2.0439  1.4216
  691MOL0     H93240   7.565   2.796   1.423 -0.3884  0.6834 -1.7285
  691MOL0     H93241   7.674   3.044   1.398  0.4969 -0.0694 -2.0005
  691MOL0     H93242   7.514   3.102   1.436  1.2095  1.6662 -0.6448
  691MOL0     H93243   7.609   2.912   1.210 -0.1989  0.1130 -1.3390
  691MOL0     H93244   7.593   3.082   1.184  4.1572 -2.2172  1.4119
  691MOL0     H93245   7.160   2.927   1.173  1.3484  0.3062 -0.0576
  691MOL0     H93246   6.946   2.950   1.112  2.5504 -0.3507 -0.2844
  691MOL0     H93247   6.875   3.065   1.224 -0.3164 -0.2531 -1.4422
  691MOL0     H93248   6.918   3.135   1.071 -0.4357  1.6920  2.3616
  691MOL0     H93249   6.732   3.397   1.043 -1.7785  0.4034 -0.7209
  691MOL0     H93250   6.561   3.586   1.045 -0.1926  2.5578  0.2733
  691MOL0     H93251   6.344   3.536   1.383 -2.4382 -0.0014 -2.2317
  691MOL0     H93252   6.352   3.699   1.447  0.1132 -2.5115  0.8649
  691MOL0     H93253   6.199   3.763   1.275  0.9115 -0.7732  1.8435
  691MOL0     H93254   6.190   3.602   1.200 -1.5618  2.2416 -2.0118
  691MOL0     H93255   6.135   3.576   1.488 -1.1343  0.8794  1.8565
  691MOL0     H93256   6.007   3.552   1.371  1.7337 -2.7398  0.4170
  691MOL0     H93257   6.104   3.812   1.489 -0.4115  1.6636 -0.4779
  691MOL0     H93258   5.974   3.803   1.368 -2.0877 -2.7305 -0.3193
  691MOL0     H93259   5.958   3.675   1.643 -1.0988  0.3388  0.1824
  691MOL0     H93260   5.830   3.658   1.518 -1.0920  0.1685  0.6974
  691MOL0     H93261   5.910   3.935   1.623  1.5103 -1.7663  3.4789
  691MOL0     H93262   5.768   3.884   1.524 -0.9240 -1.6530  1.3078
  691MOL0     H93263   5.817   3.812   1.810 -0.1625  1.8942 -0.8349
  691MOL0     H93264   5.672   3.759   1.709 -1.7998 -1.3541  3.8468
  691MOL0     H93265   5.591   3.929   1.820 -1.9785 -0.7898 -1.2862
  691MOL0     H93266   5.625   4.022   1.673  0.2732  1.4749  1.8952
  691MOL0     H93267   6.579   3.586   1.467 -0.9064 -0.1627  0.1572
  691MOL0     H93268   6.794   3.430   1.458 -0.6999 -0.7713  0.1157
  691MOL0     H93269   7.265   3.393   1.280  0.5487 -0.3252  0.0254
  691MOL0     H93270   7.431   3.247   1.273 -1.5140  3.7724 -1.3233
  691MOL0     H93271   8.292   2.004   1.288  0.7172 -0.0342 -1.0969
  691MOL0     H93272   8.330   1.862   1.461 -0.4495 -0.2878 -0.4351
  691MOL0     H93273   8.018   1.417   1.741 -1.1471  1.4031  0.3506
  691MOL0     H93274   8.085   1.287   1.945  1.1970 -1.0023 -3.0530
  691MOL0     H93275   8.243   1.212   2.263  0.0437 -0.1138 -0.9550
  691MOL0     H93276   8.092   1.207   2.164  0.2758  0.1896  2.9754
  691MOL0     H93277   8.348   1.211   2.005 -0.9723 -1.6746 -3.3632
  691MOL0     H93278   8.222   1.096   1.996  0.2823  0.7870 -0.4421
  691MOL0     H93279   8.414   0.977   2.050  0.1890  2.7856 -2.2385
  691MOL0     H93280   8.329   0.977   2.204  0.6723  1.8368  1.5208
  691MOL0     H93281   8.503   1.077   2.315 -0.4902  1.5327  0.9941
  691MOL0     H93282   8.496   1.219   2.206  2.0003  0.5565  0.4581
  691MOL0     H93283   8.829   1.071   2.030  1.3260  2.8083  1.0449
  691MOL0     H93284   8.304   1.613   2.082 -4.3980  1.2272  2.0495
  691MOL0     H93285   8.259   1.751   1.886 -1.6942  0.4999 -0.2743
  692MOL0     O93286   7.644   8.484   3.946  0.2696 -0.5071  0.6554
  692MOL0     C93287   7.703   8.481   3.840 -0.4804  0.1304  0.1181
  692MOL0     O93288   7.780   8.584   3.779  0.7862 -0.0430 -0.3836
  692MOL0     C93289   7.789   8.707   3.835 -0.8232 -0.8756 -0.3749
  692MOL0     C93290   7.885   8.794   3.780 -0.5568  0.3993 -1.1212
  692MOL0     C93291   7.898   8.930   3.811  0.4142  0.9485  0.0659
  692MOL0     C93292   7.796   8.990   3.900  0.2409 -0.3539 -0.4074
  692MOL0     O93293   7.779   9.120   3.915  0.2282  0.0057 -0.3118
  692MOL0     C93294   7.850   9.209   3.838  0.1481 -0.8584 -0.0495
  692MOL0     C93295   7.794   9.350   3.863 -1.1117  0.1940  0.0726
  692MOL0     C93296   7.861   9.421   3.979 -0.0243 -0.1066 -0.6640
  692MOL0     C93297   7.823   9.564   4.001  0.4343 -0.3301 -0.4400
  692MOL0     C93298   7.898   9.628   4.124  0.4858  0.1255  0.2201
  692MOL0     C93299   7.899   9.538   4.239  0.6174  0.4061  0.7389
  692MOL0     C93300   7.951   9.605   4.367 -0.5796 -0.6959  0.4063
  692MOL0     C93301   7.988   9.507   4.483  0.5453  0.2759 -0.1648
  692MOL0     N93302   8.125   9.472   4.477 -0.0132 -0.2715 -0.2155
  692MOL0     C93303   8.234   9.550   4.520  0.6193 -0.5588  0.4008
  692MOL0     C93304   8.341   9.463   4.531 -0.0175  0.0348  0.3774
  692MOL0     C93305   8.480   9.485   4.586 -0.5917  0.3481 -0.0824
  692MOL0     C93306   8.593   9.476   4.494 -0.0955 -0.2221  0.0137
  692MOL0     C93307   8.618   9.325   4.452 -0.0828 -0.0818  0.2517
  692MOL0     C93308   8.720   9.322   4.346 -0.3945  0.0758  0.2456
  692MOL0     O93309   8.751   9.189   4.308  0.3714  0.0028 -0.0215
  692MOL0     C93310   8.846   9.106   4.368  0.4980  1.4075 -0.3079
  692MOL0     C93311   8.859   8.976   4.309  0.6549 -0.4261 -0.0263
  692MOL0     C93312   8.958   8.886   4.344 -0.7324  1.4577 -0.1397
  692MOL0     C93313   8.971   8.766   4.260 -0.4445 -0.0619 -0.0005
  692MOL0     C93314   9.041   8.911   4.462 -0.2576  0.2310  0.8031
  692MOL0     C93315   9.143   8.816   4.514 -0.4090  0.2314  0.1498
  692MOL0     O93316   9.258   8.873   4.555 -0.1870 -0.0487  0.3820
  692MOL0     C93317   9.351   8.803   4.634  0.6779 -0.5168 -0.4885
  692MOL0     C93318   9.482   8.779   4.600  0.4274 -0.3988  0.0479
  692MOL0     C93319   9.562   8.703   4.689  0.2938 -0.3849  0.9979
  692MOL0     C93320   9.513   8.649   4.806  0.4147 -0.1454  0.3870
  692MOL0     O93321   9.582   8.563   4.883  0.2010  0.0065  0.1017
  692MOL0     C93322   9.712   8.525   4.853 -0.1741 -0.9250  0.5308
  692MOL0     C93323   9.778   8.434   4.960 -0.8813  0.3142  0.0436
  692MOL0     C93324   9.923   8.399   4.932  0.4058  0.6236  0.9235
  692MOL0     C93325  10.028   8.514   4.916  0.3758  0.8231  0.5802
  692MOL0     C93326  10.169   8.451   4.903 -0.4033  0.0149 -0.3081
  692MOL0     C93327  10.274   8.556   4.927 -0.0327 -0.0538 -1.0744
  692MOL0     C93328  10.405   8.497   4.941  0.3950 -0.2284  0.3467
  692MOL0     C93329  10.437   8.437   5.070 -0.4376 -0.4407 -0.8145
  692MOL0    Cl93330  10.591   8.362   5.062 -0.3694 -0.5295  0.4671
  692MOL0     C93331   9.384   8.688   4.840  0.1306 -0.6932  0.4788
  692MOL0     C93332   9.302   8.756   4.758 -0.6644  0.7589  0.6020
  692MOL0     O93333   9.135   8.696   4.508 -0.0793  0.2548  0.3915
  692MOL0     C93334   9.033   9.042   4.523 -0.3559 -0.1319  0.4260
  692MOL0     C93335   8.931   9.133   4.475  0.0222  0.3854  0.1220
  692MOL0     N93336   8.295   9.342   4.495 -0.2304 -0.1861  0.4571
  692MOL0     N93337   8.174   9.347   4.458 -0.0624  0.3510  0.2814
  692MOL0     C93338   7.695   8.905   3.958 -0.4338 -0.8658 -0.2064
  692MOL0     C93339   7.692   8.768   3.925 -0.2355  0.1641 -0.4161
  692MOL0     C93340   7.709   8.355   3.770  0.2280 -0.5139 -0.7856
  692MOL0     C93341   7.620   8.247   3.806 -0.7679 -1.6185  0.4376
  692MOL0     C93342   7.634   8.129   3.740 -0.8033  0.1955 -0.0063
  692MOL0     C93343   7.729   8.108   3.643 -0.0899  0.0842 -0.0009
  692MOL0     O93344   7.733   7.984   3.582  1.3098 -1.0586 -0.5452
  692MOL0     C93345   7.829   7.974   3.474  0.4091  0.3531 -0.7271
  692MOL0     C93346   7.839   7.823   3.447 -0.7140 -0.2113 -1.7158
  692MOL0     C93347   7.705   7.771   3.405  0.6650  0.2438  0.8417
  692MOL0     C93348   7.715   7.625   3.356  0.6834  0.2855 -0.2565
  692MOL0     C93349   7.770   7.609   3.220 -0.4033 -0.4636 -0.1310
  692MOL0     C93350   7.827   7.603   3.113  0.4936 -0.1177  0.6866
  692MOL0     C93351   7.815   8.216   3.611  0.1624  0.8261 -0.4231
  692MOL0     C93352   7.818   8.343   3.674  0.0522  0.3402 -0.7963
  692MOL0     H93353   7.943   8.749   3.700 -1.6778 -1.6553 -0.8274
  692MOL0     H93354   7.985   8.978   3.767  0.1272  1.2418 -0.1829
  692MOL0     H93355   7.959   9.203   3.849  0.4746  0.2776 -2.2067
  692MOL0     H93356   7.830   9.171   3.738  0.8958 -0.5354 -0.3318
  692MOL0     H93357   7.808   9.414   3.776 -1.1136 -2.1219 -1.7194
  692MOL0     H93358   7.688   9.340   3.888 -1.3145 -0.4122 -0.9897
  692MOL0     H93359   7.825   9.364   4.065 -0.0566  0.2710 -0.4248
  692MOL0     H93360   7.970   9.415   3.976  0.5280  3.1974  3.6892
  692MOL0     H93361   7.865   9.618   3.915  1.8377 -2.4056 -1.1277
  692MOL0     H93362   7.719   9.589   4.023  0.6523  1.8806 -1.6209
  692MOL0     H93363   8.002   9.641   4.095  0.2093 -0.1552 -0.9440
  692MOL0     H93364   7.862   9.730   4.142 -0.3688  0.2026 -1.6057
  692MOL0     H93365   7.800   9.506   4.273 -0.5314  2.2982 -0.6038
  692MOL0     H93366   7.958   9.449   4.216 -0.4371 -0.0012 -0.5514
  692MOL0     H93367   8.039   9.662   4.338  0.3051 -3.2982 -2.5423
  692MOL0     H93368   7.871   9.672   4.401 -1.7157 -0.1712 -2.9747
  692MOL0     H93369   7.921   9.422   4.468  1.0181 -0.0765 -0.2905
  692MOL0     H93370   7.969   9.567   4.572 -0.9852  2.5459 -1.8745
  692MOL0     H93371   8.239   9.652   4.556  0.2264 -1.0736  2.0005
  692MOL0     H93372   8.485   9.583   4.634 -1.7545  0.4101 -0.0757
  692MOL0     H93373   8.494   9.412   4.666 -0.9375 -0.2187 -0.5331
  692MOL0     H93374   8.686   9.516   4.534 -0.6350  1.7586 -0.6331
  692MOL0     H93375   8.580   9.533   4.401  1.3399  0.9572  0.5073
  692MOL0     H93376   8.533   9.281   4.399  0.7737 -3.1589  1.2519
  692MOL0     H93377   8.624   9.256   4.536 -2.3631  0.5548  1.0162
  692MOL0     H93378   8.803   9.386   4.378 -0.4104 -0.4451  1.3924
  692MOL0     H93379   8.690   9.369   4.252 -0.8526 -1.3965 -0.3665
  692MOL0     H93380   8.790   8.947   4.231 -0.3567  0.0304  0.6789
  692MOL0     H93381   9.075   8.734   4.247  0.1231  0.8113  2.0185
  692MOL0     H93382   8.924   8.684   4.315 -0.8646 -0.2663 -0.6544
  692MOL0     H93383   8.907   8.771   4.172 -4.2309  0.5886  2.5363
  692MOL0     H93384   9.508   8.823   4.504 -2.5034  0.4222 -0.4822
  692MOL0     H93385   9.661   8.686   4.649 -0.2603  0.0765 -0.6368
  692MOL0     H93386   9.718   8.477   4.755  2.0549 -0.7283  0.5148
  692MOL0     H93387   9.774   8.614   4.867  0.8254 -1.8503  2.3195
  692MOL0     H93388   9.783   8.496   5.050 -0.8443  0.0730  0.2063
  692MOL0     H93389   9.720   8.345   4.986 -1.1270 -0.1970 -2.1070
  692MOL0     H93390   9.931   8.337   4.842 -0.7269  3.8976 -1.6225
  692MOL0     H93391   9.962   8.348   5.020  1.3568  0.8096  0.6184
  692MOL0     H93392   9.990   8.574   4.833  0.4851  0.3231  0.1615
  692MOL0     H93393  10.039   8.578   5.004 -0.4992 -1.2784  2.3088
  692MOL0     H93394  10.174   8.408   4.802 -2.3026  0.7118 -0.7423
  692MOL0     H93395  10.178   8.363   4.967  0.7332  0.1124 -0.3245
  692MOL0     H93396  10.279   8.626   4.843  1.5046 -1.6979 -2.4042
  692MOL0     H93397  10.257   8.597   5.027  1.1984  0.4360 -1.0436
  692MOL0     H93398  10.471   8.582   4.924 -2.2041  1.5176 -2.0964
  692MOL0     H93399  10.411   8.426   4.858 -2.7586 -1.9706  1.4312
  692MOL0     H93400  10.373   8.351   5.093 -1.5892  1.0701  2.1230
  692MOL0     H93401  10.423   8.510   5.150 -0.4491 -0.4508 -0.8075
  692MOL0     H93402   9.343   8.658   4.936 -0.6373  0.7462  0.6299
  692MOL0     H93403   9.197   8.764   4.781 -1.7485  2.2026 -3.8137
  692MOL0     H93404   9.104   9.052   4.604  2.2896 -3.5368 -1.1795
  692MOL0     H93405   8.916   9.230   4.521  2.2040  1.1089 -0.5589
  692MOL0     H93406   7.622   8.957   4.018  0.3566  0.6835 -0.5264
  692MOL0     H93407   7.601   8.724   3.964  0.5796  0.0372  1.4636
  692MOL0     H93408   7.542   8.267   3.879  0.8502 -0.8883  2.0383
  692MOL0     H93409   7.580   8.036   3.751  1.6978 -1.2505  0.7921
  692MOL0     H93410   7.792   8.032   3.389  1.4937  2.6568  0.3026
  692MOL0     H93411   7.931   8.004   3.499  0.0625  0.3815  0.7603
  692MOL0     H93412   7.872   7.768   3.536 -1.5323 -3.1249 -3.1054
  692MOL0     H93413   7.916   7.796   3.374  1.3286 -1.8163  0.8337
  692MOL0     H93414   7.646   7.834   3.337  0.0653 -0.0581  1.0778
  692MOL0     H93415   7.639   7.759   3.491 -1.9066  1.8270 -0.7597
  692MOL0     H93416   7.610   7.595   3.346 -0.1428  3.5166 -3.3335
  692MOL0     H93417   7.770   7.573   3.435 -0.9596  1.6142  1.8744
  692MOL0     H93418   7.887   7.620   3.026  0.5681 -1.0801  0.5442
  692MOL0     H93419   7.900   8.195   3.548 -0.8492 -4.9145 -0.3702
  692MOL0     H93420   7.891   8.421   3.654 -1.1746  1.6382 -0.3623
  693MOL0     O93421   2.550   5.586   9.194 -0.4109 -0.0659 -0.0021
  693MOL0     C93422   2.519   5.494   9.266 -0.6199 -0.5157  0.1793
  693MOL0     O93423   2.602   5.436   9.357  0.9341 -0.4527  0.1446
  693MOL0     C93424   2.733   5.469   9.344 -0.8408  0.2425 -0.5000
  693MOL0     C93425   2.809   5.394   9.258  0.6541 -0.9210 -1.6487
  693MOL0     C93426   2.945   5.428   9.242  0.5662  0.5480  0.5831
  693MOL0     C93427   3.012   5.535   9.310 -0.5451  0.3400  0.0088
  693MOL0     O93428   3.141   5.563   9.281 -0.3764  0.1218  0.3268
  693MOL0     C93429   3.187   5.693   9.317  0.7607 -0.4475  0.7683
  693MOL0     C93430   3.338   5.686   9.341 -1.2143 -0.4242  0.4890
  693MOL0     C93431   3.420   5.628   9.222  0.8528 -1.2306  0.4563
  693MOL0     C93432   3.562   5.667   9.241  0.3099  0.4239  0.0568
  693MOL0     C93433   3.649   5.620   9.124  1.2166 -0.3485 -0.3610
  693MOL0     C93434   3.798   5.645   9.137 -0.3210  0.3276 -0.2343
  693MOL0     C93435   3.867   5.618   9.003  1.1589 -0.1510 -0.4491
  693MOL0     C93436   4.020   5.618   9.014  0.1546 -0.1349  1.8635
  693MOL0     N93437   4.067   5.742   9.067 -1.0144 -0.4285 -0.3539
  693MOL0     C93438   4.022   5.862   9.017  0.3928  0.9268 -0.3711
  693MOL0     C93439   4.120   5.949   9.043  0.5997  0.6196 -1.8696
  693MOL0     C93440   4.146   6.089   8.982 -0.8208 -0.2034  0.0982
  693MOL0     C93441   4.069   6.204   9.056  0.7849 -0.3968 -0.8094
  693MOL0     C93442   4.118   6.246   9.199 -0.7407 -0.9796 -1.4170
  693MOL0     C93443   4.269   6.282   9.200  0.2629  0.0167 -0.1736
  693MOL0     O93444   4.310   6.377   9.105 -0.1703 -0.0718  0.0068
  693MOL0     C93445   4.441   6.367   9.065  0.2442 -0.1364  0.0804
  693MOL0     C93446   4.466   6.391   8.934 -0.1136  0.2792  0.2456
  693MOL0     C93447   4.598   6.411   8.877  0.0071  1.5155  0.0866
  693MOL0     C93448   4.590   6.434   8.724 -0.0144  0.7615 -0.0566
  693MOL0     C93449   4.705   6.391   8.966  1.1945  0.3354  0.6885
  693MOL0     C93450   4.846   6.409   8.933 -0.1196  0.6594  0.5470
  693MOL0     O93451   4.943   6.381   9.024  0.1708  0.1096 -0.2127
  693MOL0     C93452   5.075   6.409   9.001 -0.4636 -0.3273  0.4759
  693MOL0     C93453   5.119   6.542   8.997  0.4656  0.4464  0.3083
  693MOL0     C93454   5.249   6.567   8.965  0.3627 -0.9469 -0.5554
  693MOL0     C93455   5.337   6.467   8.931  0.2314  0.2270  0.7450
  693MOL0     O93456   5.466   6.477   8.884 -0.8735  0.3402 -0.0479
  693MOL0     C93457   5.542   6.599   8.915  0.4346  0.2076  0.3690
  693MOL0     C93458   5.693   6.563   8.880  0.7191  1.0376  0.1447
  693MOL0     C93459   5.793   6.665   8.897 -0.5581  0.6106 -0.1270
  693MOL0     C93460   5.819   6.718   9.040 -0.7677  1.1660  0.1523
  693MOL0     C93461   5.871   6.606   9.128 -0.4788  0.3845  0.6869
  693MOL0     C93462   5.974   6.506   9.071 -0.3622 -0.7468  0.7871
  693MOL0     C93463   6.111   6.580   9.048  1.0754 -0.5231 -0.8685
  693MOL0     C93464   6.208   6.500   8.957 -0.2690  0.2988 -0.2108
  693MOL0    Cl93465   6.340   6.623   8.935 -0.3582  0.2451  0.4973
  693MOL0     C93466   5.287   6.330   8.937 -0.0299 -0.4135  0.7196
  693MOL0     C93467   5.158   6.307   8.968 -0.1159  0.9624  0.3943
  693MOL0     O93468   4.876   6.458   8.823  0.2354  0.7317 -0.2378
  693MOL0     C93469   4.678   6.360   9.102  0.4047  0.9348 -1.0167
  693MOL0     C93470   4.551   6.338   9.150  0.3369 -0.0224  0.3208
  693MOL0     N93471   4.222   5.888   9.116 -0.4215 -0.0401  0.4734
  693MOL0     N93472   4.183   5.764   9.133 -0.1111  0.3139 -1.2223
  693MOL0     C93473   2.928   5.603   9.403  1.4411  0.3238  0.3436
  693MOL0     C93474   2.787   5.573   9.420  1.0774  0.5391 -0.4783
  693MOL0     C93475   2.390   5.421   9.241 -0.0882  0.0047  0.7621
  693MOL0     C93476   2.285   5.468   9.166  0.8765 -0.3022  0.5619
  693MOL0     C93477   2.158   5.412   9.153 -0.0339 -0.6650 -0.4498
  693MOL0     C93478   2.135   5.293   9.237 -0.0663 -1.1025  0.2634
  693MOL0     O93479   2.017   5.220   9.254  0.2792 -0.4328  0.0109
  693MOL0     C93480   1.892   5.296   9.229  0.5274 -0.0888  0.4778
  693MOL0     C93481   1.865   5.412   9.328  0.0378  0.2757  0.7996
  693MOL0     C93482   1.767   5.522   9.293 -0.0568 -0.0655  0.0936
  693MOL0     C93483   1.746   5.623   9.405 -0.0074 -0.1020 -0.9040
  693MOL0     C93484   1.671   5.585   9.518  0.7613 -0.2008  0.0903
  693MOL0     C93485   1.599   5.557   9.612 -0.4036  0.2156  0.5969
  693MOL0     C93486   2.242   5.240   9.296  0.0802  0.7208 -1.3251
  693MOL0     C93487   2.370   5.296   9.296  0.6289 -0.7497 -0.2462
  693MOL0     H93488   2.750   5.317   9.210 -0.6837 -1.7749  1.1704
  693MOL0     H93489   2.997   5.356   9.179  1.3012 -0.4197  2.2140
  693MOL0     H93490   3.176   5.761   9.232  5.5563 -2.0823 -1.4922
  693MOL0     H93491   3.140   5.729   9.409  0.8195 -0.4946  0.8166
  693MOL0     H93492   3.374   5.788   9.359 -1.3734 -0.6921  2.5675
  693MOL0     H93493   3.384   5.642   9.430  3.0825 -0.0529 -1.3054
  693MOL0     H93494   3.403   5.521   9.207  0.5705 -1.2444  0.8451
  693MOL0     H93495   3.385   5.678   9.131  1.8555 -0.0752  0.6830
  693MOL0     H93496   3.577   5.772   9.264 -1.0173  1.1653 -2.1599
  693MOL0     H93497   3.608   5.620   9.328 -1.1720  0.6151  0.9781
  693MOL0     H93498   3.631   5.513   9.109  0.7685 -0.0937 -1.7954
  693MOL0     H93499   3.617   5.678   9.037  3.1002 -2.1923 -2.4094
  693MOL0     H93500   3.806   5.753   9.154  1.8718  0.4870 -1.7904
  693MOL0     H93501   3.847   5.580   9.210  2.0811  0.6339 -1.4821
  693MOL0     H93502   3.839   5.514   8.983  2.2224 -0.0250 -3.0618
  693MOL0     H93503   3.833   5.678   8.918 -1.5965  0.8487  1.2173
  693MOL0     H93504   4.063   5.599   8.915  4.7186 -2.5822  3.9718
  693MOL0     H93505   4.055   5.531   9.071  1.5662  0.4881  1.9977
  693MOL0     H93506   3.937   5.882   8.953 -1.7276 -3.0328  0.8694
  693MOL0     H93507   4.253   6.109   8.993 -1.4634  2.4999  2.9292
  693MOL0     H93508   4.122   6.077   8.876 -0.1072 -0.6317 -0.0213
  693MOL0     H93509   3.965   6.168   9.060 -0.1245  1.7539 -2.7211
  693MOL0     H93510   4.066   6.294   8.994 -0.7849 -1.0012 -1.6850
  693MOL0     H93511   4.101   6.169   9.274  1.5972 -0.6847 -0.4977
  693MOL0     H93512   4.063   6.334   9.235  0.0436  0.0213 -2.5664
  693MOL0     H93513   4.322   6.192   9.168  0.5994  0.6959 -1.6169
  693MOL0     H93514   4.293   6.304   9.304 -1.0511  2.0083 -0.2366
  693MOL0     H93515   4.387   6.398   8.860 -0.0991 -3.4412 -0.3373
  693MOL0     H93516   4.599   6.339   8.670 -4.5340  0.0696  0.0625
  693MOL0     H93517   4.494   6.481   8.699  0.1060  2.3121  2.1760
  693MOL0     H93518   4.674   6.495   8.688  1.3852 -0.9077  0.2664
  693MOL0     H93519   5.043   6.617   9.019 -1.4607 -1.3915  0.1662
  693MOL0     H93520   5.281   6.670   8.975 -5.5277  1.1157  1.1050
  693MOL0     H93521   5.525   6.691   8.859  0.6506  0.4874  0.7590
  693MOL0     H93522   5.519   6.632   9.016 -0.5239  2.0281 -0.4084
  693MOL0     H93523   5.732   6.490   8.952  1.6319  4.6703  3.7076
  693MOL0     H93524   5.702   6.526   8.778  0.4999  2.2754 -0.3394
  693MOL0     H93525   5.759   6.741   8.826  0.2576  0.4194 -0.7440
  693MOL0     H93526   5.880   6.637   8.837  1.0521  1.3209  1.7632
  693MOL0     H93527   5.907   6.783   9.046 -0.2461  0.3537  2.1135
  693MOL0     H93528   5.723   6.747   9.082 -1.5587 -1.7491  0.5426
  693MOL0     H93529   5.780   6.546   9.142  2.5806 -4.8288  0.6140
  693MOL0     H93530   5.909   6.641   9.224  1.3224 -1.2436  0.6229
  693MOL0     H93531   5.985   6.426   9.145  0.4095 -0.7182  0.7133
  693MOL0     H93532   5.949   6.464   8.974  6.3282 -0.1245 -1.7642
  693MOL0     H93533   6.163   6.592   9.143  0.2802 -1.5905 -0.2919
  693MOL0     H93534   6.090   6.674   8.995 -1.9543  0.7766  2.2424
  693MOL0     H93535   6.172   6.467   8.859 -0.0423  0.1600 -0.2477
  693MOL0     H93536   6.255   6.416   9.007  3.6632  1.6699 -1.2259
  693MOL0     H93537   5.338   6.239   8.908 -0.6773 -0.1011 -1.6048
  693MOL0     H93538   5.124   6.205   8.984  2.5204 -0.2485 -1.0927
  693MOL0     H93539   4.761   6.353   9.172 -0.6255 -0.2876  0.1077
  693MOL0     H93540   4.539   6.330   9.258  2.1861  1.9918  0.7632
  693MOL0     H93541   2.959   5.682   9.470  2.1338  0.2114  0.1622
  693MOL0     H93542   2.728   5.645   9.476  1.3277  0.1212  0.3529
  693MOL0     H93543   2.290   5.560   9.108  2.1754 -0.6179  0.1256
  693MOL0     H93544   2.077   5.451   9.092 -1.2517 -0.5909  1.1630
  693MOL0     H93545   1.899   5.338   9.128 -0.7500  0.8443  0.7569
  693MOL0     H93546   1.809   5.225   9.223  0.2704  0.2852 -3.8894
  693MOL0     H93547   1.955   5.471   9.346  1.1704  0.1267 -3.3585
  693MOL0     H93548   1.836   5.354   9.416 -1.1715  0.1674  0.3489
  693MOL0     H93549   1.672   5.474   9.270 -0.9811  1.1252  1.2433
  693MOL0     H93550   1.798   5.577   9.204 -0.7861  1.3704  0.6867
  693MOL0     H93551   1.705   5.715   9.364  1.0171  0.8130  0.0739
  693MOL0     H93552   1.845   5.657   9.433 -0.8899  0.7646  1.3611
  693MOL0     H93553   1.547   5.541   9.705 -2.5293 -1.9450 -0.8222
  693MOL0     H93554   2.239   5.140   9.338  0.5757  1.3791  0.3798
  693MOL0     H93555   2.462   5.248   9.325  1.0795  1.4631  2.4061
  694MOL0     O93556   4.665   2.251   6.374  0.8597 -0.6272  0.1995
  694MOL0     C93557   4.640   2.156   6.448 -0.4365  0.2622 -0.5081
  694MOL0     O93558   4.725   2.065   6.492  0.3271 -0.3866 -0.0001
  694MOL0     C93559   4.857   2.071   6.458  0.4112  0.1806  0.4323
  694MOL0     C93560   4.953   2.011   6.542 -0.0423 -0.1677 -0.2295
  694MOL0     C93561   5.081   1.984   6.501  0.4096  0.7346 -0.2187
  694MOL0     C93562   5.130   2.037   6.382 -0.9650  0.1913  0.3214
  694MOL0     O93563   5.263   2.052   6.335 -0.2273 -0.1543  0.3019
  694MOL0     C93564   5.383   2.019   6.414  0.5034  0.5740 -0.1097
  694MOL0     C93565   5.492   2.115   6.375  1.0611  0.2654  0.1867
  694MOL0     C93566   5.628   2.110   6.448 -0.6082 -0.0139  0.4602
  694MOL0     C93567   5.674   1.974   6.478 -0.4180  0.9378 -0.0084
  694MOL0     C93568   5.796   1.967   6.577 -0.1171 -0.9460  0.6348
  694MOL0     C93569   5.783   2.059   6.705 -0.9913  0.1110 -0.4068
  694MOL0     C93570   5.911   2.006   6.792  0.8979 -0.8259 -0.4920
  694MOL0     C93571   5.944   2.119   6.887 -0.7560  0.0392  0.4193
  694MOL0     N93572   6.074   2.089   6.955  0.2607 -0.2378  0.4658
  694MOL0     C93573   6.114   1.964   6.995  0.8182  0.4503  0.5901
  694MOL0     C93574   6.249   1.983   7.022  0.2548 -0.0191 -0.6257
  694MOL0     C93575   6.337   1.872   7.061  0.1169  0.3697  0.6937
  694MOL0     C93576   6.320   1.846   7.206 -1.1446 -0.0380 -1.1287
  694MOL0     C93577   6.372   1.704   7.251  0.3084 -0.1757 -0.8767
  694MOL0     C93578   6.386   1.682   7.402  0.1991  0.3467 -0.6091
  694MOL0     O93579   6.264   1.669   7.466 -0.5720 -0.1274  0.2587
  694MOL0     C93580   6.266   1.621   7.595  0.3070 -0.2354 -0.2621
  694MOL0     C93581   6.246   1.712   7.698 -0.2075  0.3021 -0.2683
  694MOL0     C93582   6.242   1.656   7.828 -0.9682  0.1982 -0.3721
  694MOL0     C93583   6.215   1.762   7.926  0.4087 -0.5708 -0.4179
  694MOL0     C93584   6.252   1.512   7.862  0.8961 -0.4561 -0.1359
  694MOL0     C93585   6.248   1.457   8.006  0.7719 -0.3234  0.1107
  694MOL0     O93586   6.286   1.326   8.005 -0.3974  0.6306 -0.2518
  694MOL0     C93587   6.271   1.246   8.121 -0.2145  0.1168  0.0190
  694MOL0     C93588   6.343   1.271   8.237  0.3137 -0.9033 -0.6659
  694MOL0     C93589   6.326   1.187   8.341  0.5180 -0.2443 -0.6866
  694MOL0     C93590   6.235   1.078   8.339 -0.2193 -0.1783 -1.0769
  694MOL0     O93591   6.209   0.990   8.444  0.1875  0.1895 -0.3948
  694MOL0     C93592   6.332   0.944   8.509 -0.1184  0.0904 -0.3295
  694MOL0     C93593   6.391   0.825   8.441 -0.1302  0.7522  0.4071
  694MOL0     C93594   6.311   0.691   8.447  0.4374  1.0622  0.2252
  694MOL0     C93595   6.247   0.665   8.582 -0.3139 -0.1251  0.1729
  694MOL0     C93596   6.196   0.524   8.603 -0.2037 -0.1306 -0.7353
  694MOL0     C93597   6.133   0.500   8.741  0.2569 -0.3482  0.2074
  694MOL0     C93598   6.105   0.357   8.756  0.4621 -0.3023 -0.3151
  694MOL0     C93599   6.094   0.329   8.910  0.0041  0.6373 -1.0586
  694MOL0    Cl93600   5.931   0.388   8.959  0.1859 -0.1337 -0.2742
  694MOL0     C93601   6.170   1.054   8.221 -0.0338  1.0359  1.1872
  694MOL0     C93602   6.189   1.130   8.112  0.3118  0.1867 -0.7862
  694MOL0     O93603   6.216   1.522   8.106  1.2755 -0.2330  0.1370
  694MOL0     C93604   6.262   1.427   7.754 -1.0841 -0.4091  0.1304
  694MOL0     C93605   6.276   1.480   7.624  0.3236 -0.6312  0.3957
  694MOL0     N93606   6.277   2.116   7.008  0.0897 -0.5554 -0.4869
  694MOL0     N93607   6.178   2.169   6.951 -0.0390  0.2438  0.2710
  694MOL0     C93608   5.037   2.098   6.298 -0.5011 -0.4215 -0.4396
  694MOL0     C93609   4.897   2.105   6.332 -0.7879 -0.7104  0.3043
  694MOL0     C93610   4.502   2.134   6.492 -0.6859  0.2137 -0.7978
  694MOL0     C93611   4.487   2.060   6.616  0.0975  0.2729  1.0710
  694MOL0     C93612   4.364   2.052   6.677  0.4281 -1.0055  1.0208
  694MOL0     C93613   4.257   2.104   6.612  0.1037 -0.1364  0.4773
  694MOL0     O93614   4.138   2.108   6.680 -0.2495 -0.6612  0.2152
  694MOL0     C93615   4.024   2.175   6.617 -0.2501 -0.5845  0.2484
  694MOL0     C93616   3.892   2.131   6.695 -0.9873 -0.2471  0.0314
  694MOL0     C93617   3.768   2.222   6.673 -0.2591  0.5349 -0.5463
  694MOL0     C93618   3.717   2.242   6.529 -0.6963  0.9809  0.0031
  694MOL0     C93619   3.689   2.108   6.471  0.4404  0.6887 -0.2825
  694MOL0     C93620   3.662   2.003   6.411 -0.7291  0.1749  0.3624
  694MOL0     C93621   4.272   2.156   6.480 -0.7381  0.2670 -0.9640
  694MOL0     C93622   4.393   2.180   6.422 -0.6133 -0.2099 -0.6544
  694MOL0     H93623   4.927   1.981   6.643  3.6529  1.8649  1.5369
  694MOL0     H93624   5.152   1.933   6.566 -2.4874 -0.3474  2.3442
  694MOL0     H93625   5.358   2.037   6.519 -0.4572  2.9216 -0.6783
  694MOL0     H93626   5.414   1.914   6.405 -0.5235  0.3639 -1.4971
  694MOL0     H93627   5.506   2.106   6.267  2.8877 -0.0969  0.4099
  694MOL0     H93628   5.447   2.213   6.391 -1.9576 -0.7525 -1.3908
  694MOL0     H93629   5.714   2.157   6.399  0.0090 -0.8806  0.6749
  694MOL0     H93630   5.624   2.176   6.535 -0.4135  0.0257  0.4402
  694MOL0     H93631   5.591   1.917   6.520  1.7199 -1.8084  0.8188
  694MOL0     H93632   5.710   1.924   6.388  0.6096  0.1236  0.8188
  694MOL0     H93633   5.803   1.866   6.619  1.6132  0.2811  3.5416
  694MOL0     H93634   5.884   1.997   6.519 -1.0893  0.9501  0.0536
  694MOL0     H93635   5.793   2.167   6.695 -1.1589  0.2238  0.5154
  694MOL0     H93636   5.685   2.046   6.753 -0.6359  0.3343  0.4067
  694MOL0     H93637   5.879   1.917   6.848 -1.2384  0.6975  0.9023
  694MOL0     H93638   5.992   1.980   6.724  1.0822  2.2310 -1.5847
  694MOL0     H93639   5.872   2.128   6.969 -0.6417 -2.0645  0.7888
  694MOL0     H93640   5.934   2.221   6.849 -2.0521 -0.2693 -0.1137
  694MOL0     H93641   6.061   1.872   6.979  1.1241  0.2740  0.5770
  694MOL0     H93642   6.307   1.782   7.008  2.2471  0.8730 -1.5841
  694MOL0     H93643   6.442   1.883   7.032  0.0629 -2.2610 -0.7577
  694MOL0     H93644   6.220   1.849   7.250 -0.3500  0.7773  0.7315
  694MOL0     H93645   6.383   1.923   7.252 -0.7570  2.3109 -5.0963
  694MOL0     H93646   6.468   1.700   7.197  0.3904 -2.3156 -0.6545
  694MOL0     H93647   6.311   1.629   7.202 -0.0289  1.6574 -3.4488
  694MOL0     H93648   6.440   1.768   7.444 -1.1545 -0.8377  4.0984
  694MOL0     H93649   6.444   1.590   7.413 -0.8517 -0.8393 -3.8224
  694MOL0     H93650   6.241   1.821   7.696 -1.5011  0.3049  1.1355
  694MOL0     H93651   6.217   1.864   7.886  2.3388 -1.2133 -2.1540
  694MOL0     H93652   6.119   1.745   7.976  0.9236  4.6119  3.1576
  694MOL0     H93653   6.274   1.746   8.016 -2.4597  0.7150  1.8559
  694MOL0     H93654   6.388   1.369   8.251 -1.0833 -0.5296  2.0929
  694MOL0     H93655   6.377   1.208   8.434  0.6187 -0.5788 -0.6627
  694MOL0     H93656   6.407   1.022   8.523 -1.3374  1.0227  1.5517
  694MOL0     H93657   6.308   0.924   8.614 -1.0956  1.7298 -0.2107
  694MOL0     H93658   6.408   0.826   8.333 -2.3278 -3.2599 -0.1835
  694MOL0     H93659   6.489   0.800   8.484 -1.5009 -2.2577  2.1432
  694MOL0     H93660   6.381   0.608   8.433 -0.9497  0.3758 -5.3002
  694MOL0     H93661   6.232   0.690   8.371 -1.4007 -0.8138  2.0049
  694MOL0     H93662   6.332   0.682   8.649  1.2349  2.3707 -2.2254
  694MOL0     H93663   6.178   0.746   8.609  2.3050  2.2973  0.0657
  694MOL0     H93664   6.275   0.454   8.574  0.2796  1.5963 -4.0717
  694MOL0     H93665   6.118   0.493   8.532 -0.1468 -0.5728 -0.6114
  694MOL0     H93666   6.200   0.525   8.824 -0.7931 -0.6356  1.1618
  694MOL0     H93667   6.041   0.559   8.753  1.4265  1.0364  3.2620
  694MOL0     H93668   6.186   0.296   8.714  0.1880  1.1109 -3.0956
  694MOL0     H93669   6.011   0.344   8.703  1.2711  1.1910 -2.2098
  694MOL0     H93670   6.178   0.372   8.965 -0.8773 -0.9396  1.6948
  694MOL0     H93671   6.109   0.222   8.920 -0.0862  0.7051 -0.0499
  694MOL0     H93672   6.096   0.976   8.211  1.7874 -0.7003  0.3732
  694MOL0     H93673   6.137   1.096   8.023 -2.4550 -0.7640  1.0701
  694MOL0     H93674   6.269   1.321   7.774 -3.7914 -0.5707  0.6355
  694MOL0     H93675   6.273   1.409   7.543  1.4636 -0.3926  0.1203
  694MOL0     H93676   5.081   2.127   6.203 -1.9824  0.6979 -0.8316
  694MOL0     H93677   4.833   2.147   6.254  2.0148  0.1432 -1.6848
  694MOL0     H93678   4.577   2.013   6.652  1.6925  1.3279 -1.2676
  694MOL0     H93679   4.345   2.008   6.774 -2.5072 -0.2119  0.9098
  694MOL0     H93680   4.028   2.284   6.626  0.7733 -0.5578 -0.4290
  694MOL0     H93681   4.005   2.143   6.514  0.5541 -0.4246  0.0427
  694MOL0     H93682   3.917   2.121   6.801  2.0538 -0.7098 -0.6242
  694MOL0     H93683   3.867   2.032   6.658 -0.2474 -0.0572 -1.0426
  694MOL0     H93684   3.779   2.324   6.711  1.5927  0.7062 -1.4043
  694MOL0     H93685   3.688   2.176   6.731 -1.3852  2.6389 -0.3064
  694MOL0     H93686   3.788   2.305   6.475  0.7455  0.7950  1.5783
  694MOL0     H93687   3.616   2.283   6.538 -2.2983 -1.6953 -3.4518
  694MOL0     H93688   3.641   1.910   6.363 -1.5719  0.4746  0.1287
  694MOL0     H93689   4.186   2.198   6.428 -3.6285 -1.2278  2.1975
  694MOL0     H93690   4.412   2.238   6.332 -1.1162  1.0603  0.0286
  695MOL0     O93691   4.700  10.487   2.024 -0.6704 -0.0402  0.7895
  695MOL0     C93692   4.658  10.413   1.933 -0.0441  0.1839 -0.3960
  695MOL0     O93693   4.673  10.288   1.929 -0.3073  0.0429  0.0291
  695MOL0     C93694   4.755  10.207   2.011 -0.8657 -0.3714  0.0045
  695MOL0     C93695   4.854  10.247   2.105 -1.4559 -0.5033 -1.3400
  695MOL0     C93696   4.927  10.153   2.182  0.7716 -0.6960  0.3342
  695MOL0     C93697   4.908  10.019   2.170  0.1017  0.1017 -0.6173
  695MOL0     O93698   4.986   9.943   2.252 -0.0868 -0.3350 -0.1127
  695MOL0     C93699   5.027   9.812   2.202  0.5682 -0.4581 -0.1592
  695MOL0     C93700   5.080   9.728   2.317  0.6853  0.2130  0.2882
  695MOL0     C93701   4.983   9.721   2.433 -0.1334 -0.6041 -0.6409
  695MOL0     C93702   5.051   9.641   2.551  0.6702  1.1891  0.4970
  695MOL0     C93703   5.033   9.496   2.534  0.1475  0.2315 -0.5502
  695MOL0     C93704   5.103   9.430   2.662 -0.5867  0.0659  0.2103
  695MOL0     C93705   5.130   9.283   2.630  0.7344 -0.2280  0.4268
  695MOL0     C93706   5.215   9.228   2.758 -0.6345 -0.9931 -0.9510
  695MOL0     N93707   5.213   9.081   2.745  0.8941  0.1030  0.6157
  695MOL0     C93708   5.116   9.007   2.800  0.4372  0.0342  0.2009
  695MOL0     C93709   5.167   8.877   2.793  0.0690 -0.5200  0.5811
  695MOL0     C93710   5.091   8.749   2.826  0.0663 -0.3574  0.3038
  695MOL0     C93711   5.083   8.711   2.972  0.1868  0.2706 -0.6485
  695MOL0     C93712   5.202   8.628   3.023  0.2557  0.4196 -0.0506
  695MOL0     C93713   5.192   8.561   3.157 -0.1299 -0.8527 -0.5446
  695MOL0     O93714   5.293   8.486   3.190  0.2884 -0.4668 -0.3800
  695MOL0     C93715   5.301   8.455   3.319 -0.3926  0.2061 -0.3815
  695MOL0     C93716   5.429   8.412   3.364 -0.3340  1.0642 -1.1111
  695MOL0     C93717   5.452   8.359   3.492  0.6742  0.6272 -0.4845
  695MOL0     C93718   5.591   8.306   3.524  0.7927 -0.7798  0.1065
  695MOL0     C93719   5.345   8.354   3.592 -0.2455  0.9142 -0.1675
  695MOL0     C93720   5.338   8.291   3.731 -0.4165  0.2070  0.5670
  695MOL0     O93721   5.241   8.330   3.811  0.0393  0.1920 -0.3454
  695MOL0     C93722   5.236   8.284   3.942 -0.0424  0.0844  1.7332
  695MOL0     C93723   5.172   8.163   3.951 -0.3283 -0.1227 -1.0294
  695MOL0     C93724   5.133   8.112   4.076 -0.6527  0.6499  0.6761
  695MOL0     C93725   5.147   8.187   4.195 -1.0399  1.2462 -0.5503
  695MOL0     O93726   5.113   8.123   4.319 -0.6945  0.2024 -0.2662
  695MOL0     C93727   5.105   8.202   4.435  0.6290 -0.5484  0.2550
  695MOL0     C93728   5.025   8.143   4.543 -0.5499  0.6030 -0.0475
  695MOL0     C93729   4.917   8.059   4.486  0.1033 -0.1296 -0.2914
  695MOL0     C93730   4.803   8.035   4.584  0.1451 -0.9955  0.0389
  695MOL0     C93731   4.673   7.975   4.514  0.5089  1.0549 -0.2827
  695MOL0     C93732   4.557   7.914   4.591  0.2948 -0.6440  0.9450
  695MOL0     C93733   4.467   7.833   4.495  0.3699 -0.8345 -0.4955
  695MOL0     C93734   4.366   7.750   4.577 -0.0757  0.3333 -0.3535
  695MOL0    Cl93735   4.340   7.598   4.493 -0.0442  0.3765 -0.2493
  695MOL0     C93736   5.213   8.312   4.187  0.3121 -0.1481  0.1846
  695MOL0     C93737   5.258   8.359   4.059  0.4015 -0.7408 -0.0977
  695MOL0     O93738   5.422   8.206   3.760  1.2848 -0.4335  0.9840
  695MOL0     C93739   5.228   8.407   3.547  0.5776  0.3523 -0.7135
  695MOL0     C93740   5.201   8.454   3.416  0.6747  0.6489 -0.9579
  695MOL0     N93741   5.288   8.876   2.725 -0.1646  0.9076 -1.0113
  695MOL0     N93742   5.320   9.005   2.710 -0.2835  0.4990 -0.0546
  695MOL0     C93743   4.806   9.977   2.082 -1.0173  0.4508  0.2950
  695MOL0     C93744   4.743  10.066   1.997  0.2425  0.6032  0.0644
  695MOL0     C93745   4.601  10.484   1.810  0.2200 -1.1312 -0.7621
  695MOL0     C93746   4.560  10.417   1.693 -0.3006  0.9296 -0.2974
  695MOL0     C93747   4.525  10.491   1.578 -0.3428 -0.4775  0.4767
  695MOL0     C93748   4.504  10.625   1.591  0.5408  0.1008 -1.5533
  695MOL0     O93749   4.444  10.668   1.478  0.5308 -0.8511 -0.2205
  695MOL0     C93750   4.454  10.809   1.447 -0.5299  0.3700  0.2224
  695MOL0     C93751   4.465  10.817   1.297 -0.8235 -0.2251  0.0691
  695MOL0     C93752   4.346  10.770   1.213 -0.1210  0.3126 -0.4443
  695MOL0     C93753   4.368  10.771   1.057  0.8520  0.0380  0.2623
  695MOL0     C93754   4.407  10.645   0.995 -0.2222  0.1475  0.3357
  695MOL0     C93755   4.444  10.540   0.937  0.5250 -0.2043  0.5569
  695MOL0     C93756   4.528  10.696   1.712  0.6678  0.0245  0.8454
  695MOL0     C93757   4.582  10.626   1.816 -0.2153  0.3778 -0.3083
  695MOL0     H93758   4.881  10.349   2.128 -0.6105 -0.7219 -1.3319
  695MOL0     H93759   5.003  10.187   2.252  2.4008 -3.4262  0.0402
  695MOL0     H93760   4.937   9.760   2.168 -1.8999  1.3201  3.0372
  695MOL0     H93761   5.113   9.823   2.135  0.5012  2.2489  0.0811
  695MOL0     H93762   5.103   9.636   2.263  0.2217 -0.1737  0.7425
  695MOL0     H93763   5.182   9.759   2.343  1.9145 -1.2200 -2.4672
  695MOL0     H93764   4.946   9.819   2.463 -1.0926 -1.3320  0.6476
  695MOL0     H93765   4.899   9.658   2.402  0.6361 -1.6317 -0.7061
  695MOL0     H93766   5.157   9.665   2.563  0.9549  0.6344 -0.7243
  695MOL0     H93767   4.998   9.665   2.644 -2.1264 -1.0579 -0.3636
  695MOL0     H93768   4.928   9.466   2.545  0.4188  0.1458  3.5463
  695MOL0     H93769   5.074   9.462   2.439 -2.1595  0.4978 -1.7019
  695MOL0     H93770   5.201   9.476   2.680 -1.6626  1.1634  4.4968
  695MOL0     H93771   5.044   9.452   2.752 -1.3668 -0.0239 -0.2652
  695MOL0     H93772   5.033   9.232   2.631  0.8950 -0.5524 -0.1279
  695MOL0     H93773   5.179   9.268   2.533 -1.9440  0.8860 -1.2305
  695MOL0     H93774   5.171   9.255   2.855  2.0029 -1.3204  0.4215
  695MOL0     H93775   5.312   9.271   2.731  0.1847 -1.7295  0.6939
  695MOL0     H93776   5.018   9.040   2.834  0.2987 -0.7507  0.5854
  695MOL0     H93777   4.989   8.755   2.786  0.8667 -2.2221 -2.3335
  695MOL0     H93778   5.147   8.671   2.772  1.5016 -0.2282  1.5390
  695MOL0     H93779   4.986   8.667   2.995 -0.3126  2.3131  1.6242
  695MOL0     H93780   5.081   8.807   3.025 -2.3057 -0.1202  0.1130
  695MOL0     H93781   5.290   8.694   3.029  0.1016  0.8051 -1.6544
  695MOL0     H93782   5.230   8.553   2.949  1.7599 -0.9053  1.7562
  695MOL0     H93783   5.109   8.490   3.166 -0.1353 -0.6792  1.1117
  695MOL0     H93784   5.173   8.642   3.228 -2.8864 -1.1965 -0.7510
  695MOL0     H93785   5.515   8.421   3.298  0.8006 -1.1626 -0.0589
  695MOL0     H93786   5.655   8.320   3.437  0.0254  3.7518  0.0429
  695MOL0     H93787   5.638   8.355   3.609  1.3698  0.3672 -0.8462
  695MOL0     H93788   5.584   8.199   3.547 -1.3157 -0.0675  3.5479
  695MOL0     H93789   5.134   8.114   3.861  0.0417 -0.1139 -1.1924
  695MOL0     H93790   5.079   8.017   4.080  0.3962  0.0859  2.0415
  695MOL0     H93791   5.205   8.234   4.463  1.0008 -0.0467 -1.5164
  695MOL0     H93792   5.055   8.297   4.410  1.4500  0.9416  3.7076
  695MOL0     H93793   5.083   8.083   4.614 -0.8275  0.5520  0.1398
  695MOL0     H93794   4.979   8.220   4.606 -2.2166 -1.3228  1.2085
  695MOL0     H93795   4.960   7.963   4.458  0.4442 -0.8410  2.4529
  695MOL0     H93796   4.867   8.105   4.399 -5.7214  0.9252  3.0425
  695MOL0     H93797   4.845   7.965   4.656 -0.6000 -0.0861  1.3911
  695MOL0     H93798   4.775   8.132   4.626 -1.0768 -0.9346 -0.8413
  695MOL0     H93799   4.699   7.913   4.427 -0.8197 -1.1874  0.8298
  695MOL0     H93800   4.630   8.065   4.467  1.2642  1.9388  0.6808
  695MOL0     H93801   4.597   7.858   4.676 -0.9699 -0.1281  1.9178
  695MOL0     H93802   4.503   7.997   4.637  0.2617  1.7375 -2.9752
  695MOL0     H93803   4.515   7.757   4.432 -2.2987 -3.0470 -0.0553
  695MOL0     H93804   4.412   7.903   4.431  3.1197  1.0158 -1.0351
  695MOL0     H93805   4.269   7.798   4.595 -0.0747 -0.5591  2.5716
  695MOL0     H93806   4.408   7.729   4.675 -2.2419  0.7625  0.7345
  695MOL0     H93807   5.250   8.362   4.276 -3.9653 -0.4044  2.3653
  695MOL0     H93808   5.290   8.462   4.053  2.3591 -1.3917 -3.3991
  695MOL0     H93809   5.148   8.431   3.616  0.8134  0.1830 -0.3777
  695MOL0     H93810   5.105   8.500   3.394  1.2392  2.4313  0.1068
  695MOL0     H93811   4.792   9.870   2.077  6.3109 -1.0094 -0.2854
  695MOL0     H93812   4.681  10.013   1.925  0.1333  0.3802  0.3248
  695MOL0     H93813   4.580  10.311   1.683 -1.6304  0.4262  1.7666
  695MOL0     H93814   4.506  10.452   1.479 -0.8131  0.0234  0.3623
  695MOL0     H93815   4.367  10.868   1.478 -1.7740  0.1402 -2.5455
  695MOL0     H93816   4.547  10.859   1.476  1.6433 -2.7717 -0.7619
  695MOL0     H93817   4.556  10.763   1.270  1.8778  2.7881  2.3526
  695MOL0     H93818   4.485  10.919   1.264  1.5202 -0.2461  1.2090
  695MOL0     H93819   4.266  10.841   1.235 -1.0981 -0.4372 -1.4428
  695MOL0     H93820   4.311  10.674   1.252  1.4976 -1.2372 -2.5332
  695MOL0     H93821   4.445  10.847   1.045  1.1696 -0.4165 -0.6788
  695MOL0     H93822   4.280  10.819   1.014 -0.8999 -2.6681  0.5596
  695MOL0     H93823   4.491  10.465   0.876  0.4921  1.1307 -1.1771
  695MOL0     H93824   4.496  10.800   1.707 -0.1517 -0.2729 -1.6059
  695MOL0     H93825   4.619  10.689   1.896  1.3205 -0.9722  0.0956
  696MOL0     O93826  10.770   9.205   6.620 -0.1862  0.1130 -0.5248
  696MOL0     C93827  10.684   9.159   6.706  0.2716  0.0947  1.3065
  696MOL0     O93828  10.709   9.072   6.809 -0.6635 -0.5425 -0.0218
  696MOL0     C93829  10.815   8.987   6.792 -0.4498  1.1713  0.9995
  696MOL0     C93830  10.948   9.019   6.802  0.3062 -0.2304 -0.3805
  696MOL0     C93831  11.046   8.919   6.787  0.2230  0.0117  0.4838
  696MOL0     C93832  11.015   8.793   6.767 -0.3371  0.8406  0.6476
  696MOL0     O93833  11.113   8.695   6.749  0.2029  0.5004  0.5308
  696MOL0     C93834  11.245   8.735   6.718 -0.3455  0.2705 -0.2091
  696MOL0     C93835  11.342   8.606   6.708  0.2122  0.3090 -0.1815
  696MOL0     C93836  11.336   8.520   6.843 -0.1651 -0.4092  0.7577
  696MOL0     C93837  11.255   8.390   6.823 -0.5552 -0.7278 -0.2597
  696MOL0     C93838  11.290   8.303   6.939 -1.4539  0.3393 -0.6817
  696MOL0     C93839  11.201   8.175   6.946 -0.5289  0.1506  0.1859
  696MOL0     C93840  11.048   8.202   6.982 -0.8744 -0.1613 -0.1365
  696MOL0     C93841  10.962   8.068   6.987  0.1418  0.1598 -0.3045
  696MOL0     N93842  10.994   7.988   7.099 -0.5203  1.0812  0.9235
  696MOL0     C93843  11.002   8.039   7.226  0.5502 -0.3973 -0.3967
  696MOL0     C93844  10.995   7.925   7.307 -0.5892 -0.8406  0.0916
  696MOL0     C93845  10.968   7.941   7.454 -0.0029  0.4456 -0.0448
  696MOL0     C93846  10.984   7.807   7.532  0.1418 -0.3640  1.0346
  696MOL0     C93847  10.850   7.733   7.528 -0.3115 -0.6260  0.3279
  696MOL0     C93848  10.866   7.593   7.596  0.4488  0.6592  0.3142
  696MOL0     O93849  10.739   7.518   7.593  0.1500 -0.2831  0.4081
  696MOL0     C93850  10.709   7.454   7.714 -0.3768  0.1057  0.0195
  696MOL0     C93851  10.578   7.445   7.756 -0.5036  0.6828 -0.0303
  696MOL0     C93852  10.544   7.364   7.865 -1.1047  0.2440 -0.1062
  696MOL0     C93853  10.404   7.384   7.916  0.1239  0.6321 -0.5365
  696MOL0     C93854  10.647   7.279   7.924  0.7989  0.2768 -0.7091
  696MOL0     C93855  10.607   7.169   8.018 -0.2375 -0.7113  0.1344
  696MOL0     O93856  10.494   7.098   7.995 -0.0280 -0.0223 -0.2916
  696MOL0     C93857  10.460   7.007   8.084  0.0816  0.4232 -0.5271
  696MOL0     C93858  10.366   7.043   8.189  0.2094  0.5805 -0.4271
  696MOL0     C93859  10.322   6.946   8.280 -0.1405 -0.3946 -0.3605
  696MOL0     C93860  10.362   6.814   8.271 -0.9122 -1.3319  0.1387
  696MOL0     O93861  10.321   6.716   8.361  0.2111  0.6707 -0.3291
  696MOL0     C93862  10.183   6.672   8.328 -1.0944  0.2210  0.2891
  696MOL0     C93863  10.158   6.526   8.370 -0.8621  0.0394  0.2647
  696MOL0     C93864  10.104   6.509   8.510 -0.5113  0.8070  0.2079
  696MOL0     C93865  10.123   6.360   8.565 -0.3010  0.0257  1.0210
  696MOL0     C93866  10.061   6.343   8.704 -0.0704 -1.1255  0.6680
  696MOL0     C93867   9.939   6.247   8.701  0.4016  0.3087  0.6008
  696MOL0     C93868   9.829   6.291   8.595 -0.0911  0.0872 -0.7690
  696MOL0     C93869   9.726   6.173   8.588  0.1550  0.1268 -0.1000
  696MOL0    Cl93870   9.569   6.249   8.540 -0.0892  0.0685  0.1401
  696MOL0     C93871  10.465   6.784   8.184 -0.1767  0.2202  0.4065
  696MOL0     C93872  10.517   6.875   8.087  0.6242 -0.2278  0.2059
  696MOL0     O93873  10.691   7.143   8.103  0.3874 -0.2311 -0.6213
  696MOL0     C93874  10.779   7.305   7.883  0.3713  1.0458  0.1042
  696MOL0     C93875  10.810   7.378   7.773 -0.0553  0.7073 -0.6280
  696MOL0     N93876  11.012   7.819   7.222 -0.3548 -0.7264  0.0509
  696MOL0     N93877  11.011   7.852   7.101  0.1200  0.0744  0.2549
  696MOL0     C93878  10.882   8.753   6.767 -0.2629 -0.0766 -1.0993
  696MOL0     C93879  10.784   8.850   6.780 -0.3861  0.3878 -0.1359
  696MOL0     C93880  10.548   9.205   6.690  0.6442 -0.6728  0.6585
  696MOL0     C93881  10.502   9.242   6.561 -0.8853 -0.5715 -0.5806
  696MOL0     C93882  10.368   9.273   6.538  0.6499 -1.0546 -0.5141
  696MOL0     C93883  10.279   9.291   6.648 -0.1536  1.7049  1.2179
  696MOL0     O93884  10.146   9.332   6.632  0.2053 -0.0955 -0.1571
  696MOL0     C93885  10.077   9.297   6.517 -0.0698 -0.1151  0.9761
  696MOL0     C93886  10.030   9.434   6.455 -0.3789 -0.4192 -0.4230
  696MOL0     C93887   9.940   9.413   6.335 -0.5561 -1.1877 -0.6601
  696MOL0     C93888   9.838   9.522   6.315 -0.1258  0.5439  0.0969
  696MOL0     C93889   9.905   9.646   6.277 -0.0760  1.7313  1.4193
  696MOL0     C93890   9.922   9.755   6.229  0.3647 -0.3495 -0.5519
  696MOL0     C93891  10.330   9.268   6.774 -0.4307  0.3762  0.9590
  696MOL0     C93892  10.461   9.213   6.802  0.5201 -0.5489  0.0500
  696MOL0     H93893  10.968   9.122   6.829  1.2886 -0.5738  0.2738
  696MOL0     H93894  11.148   8.953   6.804  0.3286  0.6878 -1.2597
  696MOL0     H93895  11.231   8.797   6.629 -0.4208 -2.1098 -1.9556
  696MOL0     H93896  11.283   8.791   6.804  2.4187 -0.6907 -0.6757
  696MOL0     H93897  11.325   8.550   6.615  1.7265  0.2802 -0.4605
  696MOL0     H93898  11.441   8.653   6.704  0.1064  0.8713  2.3272
  696MOL0     H93899  11.437   8.490   6.872  0.8520 -0.9272 -2.8027
  696MOL0     H93900  11.287   8.572   6.925 -1.7794 -1.8091  0.7391
  696MOL0     H93901  11.148   8.411   6.834 -0.4287  0.7404 -1.3979
  696MOL0     H93902  11.279   8.350   6.724  0.3045 -2.5136  0.6176
  696MOL0     H93903  11.393   8.266   6.943 -1.8011 -0.5646  0.2934
  696MOL0     H93904  11.284   8.359   7.032 -4.1223 -2.4837  1.0328
  696MOL0     H93905  11.227   8.115   6.858  2.3567  2.1612 -0.4693
  696MOL0     H93906  11.236   8.113   7.029 -0.1596  0.8166  0.5269
  696MOL0     H93907  11.037   8.256   7.077  0.3576 -0.6454  0.2960
  696MOL0     H93908  10.989   8.257   6.908 -1.6415  0.9934  1.2700
  696MOL0     H93909  10.977   8.026   6.887  1.5695 -0.6341  0.2162
  696MOL0     H93910  10.856   8.092   6.995 -0.3182 -1.4435 -1.2795
  696MOL0     H93911  10.991   8.141   7.261  0.8242 -0.4522 -0.1540
  696MOL0     H93912  11.041   8.011   7.495  0.1039 -0.5644  1.5942
  696MOL0     H93913  10.869   7.980   7.480  0.7876  2.4807  0.0617
  696MOL0     H93914  11.002   7.847   7.633 -0.0250 -2.7686  2.1020
  696MOL0     H93915  11.067   7.740   7.508  0.3451  0.7587 -1.7073
  696MOL0     H93916  10.826   7.721   7.422  1.1748  1.6375 -0.3290
  696MOL0     H93917  10.768   7.770   7.590  1.4918 -0.1730  2.5765
  696MOL0     H93918  10.894   7.606   7.701 -0.3449 -0.6281  0.6941
  696MOL0     H93919  10.937   7.531   7.541 -1.0825 -1.0654  0.1834
  696MOL0     H93920  10.516   7.510   7.696  0.7055  0.2924 -1.7727
  696MOL0     H93921  10.336   7.345   7.840  0.1580  1.1709 -0.8489
  696MOL0     H93922  10.383   7.347   8.017 -2.4743  1.5422 -0.6918
  696MOL0     H93923  10.385   7.492   7.916 -2.1550  0.3341  1.8306
  696MOL0     H93924  10.334   7.147   8.196 -3.0678 -0.1419 -2.1882
  696MOL0     H93925  10.256   6.978   8.360 -0.0818  0.0198 -0.4763
  696MOL0     H93926  10.126   6.752   8.376 -3.8634 -0.7153 -1.2511
  696MOL0     H93927  10.149   6.669   8.224  2.2922  2.3158 -1.0325
  696MOL0     H93928  10.086   6.484   8.298  0.5733 -0.3750 -0.9783
  696MOL0     H93929  10.253   6.473   8.363  0.0988  1.7859 -0.5629
  696MOL0     H93930   9.997   6.530   8.510 -1.1981 -2.1963 -0.3900
  696MOL0     H93931  10.156   6.575   8.580  0.1930 -1.3832  1.8466
  696MOL0     H93932  10.092   6.286   8.492  2.7657 -0.1888 -0.2276
  696MOL0     H93933  10.227   6.337   8.593  0.0650  0.7623  0.3032
  696MOL0     H93934  10.014   6.436   8.736  0.1828 -1.4636  2.0653
  696MOL0     H93935  10.125   6.315   8.788 -0.6973  1.9680  2.3267
  696MOL0     H93936   9.972   6.146   8.678 -0.4903 -0.0338  0.8033
  696MOL0     H93937   9.899   6.235   8.802  1.9266 -3.7805  0.9094
  696MOL0     H93938   9.882   6.312   8.502  0.1533  0.7164 -0.4927
  696MOL0     H93939   9.783   6.383   8.633 -1.3661 -0.6261 -0.5185
  696MOL0     H93940   9.721   6.128   8.688  2.0183 -2.0991 -0.9184
  696MOL0     H93941   9.744   6.089   8.520 -0.4568  0.0068 -0.1196
  696MOL0     H93942  10.518   6.689   8.188  1.2637  1.0287  2.7103
  696MOL0     H93943  10.596   6.851   8.018 -0.0649  5.1459 -2.9893
  696MOL0     H93944  10.853   7.243   7.934  0.3096  2.0712  1.4834
  696MOL0     H93945  10.910   7.362   7.736  0.3001 -1.1022  0.9469
  696MOL0     H93946  10.864   8.647   6.753  0.9449 -0.3551 -0.7438
  696MOL0     H93947  10.685   8.811   6.758 -2.7803  3.6868  3.5220
  696MOL0     H93948  10.571   9.225   6.479 -0.0064  1.2656 -0.2761
  696MOL0     H93949  10.349   9.290   6.433  2.2305 -0.9691 -0.8004
  696MOL0     H93950  10.139   9.240   6.447  0.8029 -0.9871  2.4139
  696MOL0     H93951   9.996   9.224   6.528  1.1214 -2.2431 -2.6151
  696MOL0     H93952  10.112   9.497   6.416 -0.0464 -1.4080 -1.3865
  696MOL0     H93953   9.980   9.487   6.536  0.0468 -0.6203 -0.0207
  696MOL0     H93954   9.899   9.313   6.353  3.3320 -2.4263  3.0293
  696MOL0     H93955  10.007   9.405   6.249 -0.0720  0.9793 -0.5545
  696MOL0     H93956   9.783   9.543   6.407 -2.2294  1.5011 -1.2990
  696MOL0     H93957   9.783   9.496   6.224  1.2100 -0.0701 -0.5711
  696MOL0     H93958   9.943   9.851   6.186  4.0207 -1.9119 -2.7209
  696MOL0     H93959  10.261   9.289   6.855 -1.3887 -0.1968  0.3010
  696MOL0     H93960  10.491   9.185   6.902 -2.0531  0.9492  1.3295
  697MOL0     O93961  11.488   7.858   9.949 -0.0566  0.1422  1.0009
  697MOL0     C93962  11.487   7.828  10.065  0.4049 -0.2477 -0.1211
  697MOL0     O93963  11.597   7.792  10.148  0.3649 -0.2982  0.6637
  697MOL0     C93964  11.722   7.802  10.089 -0.4131 -0.4280  0.3081
  697MOL0     C93965  11.806   7.907  10.127  0.1259 -0.0080 -0.8617
  697MOL0     C93966  11.930   7.929  10.066  0.8737 -0.5478  0.2332
  697MOL0     C93967  11.978   7.831   9.976 -0.4146  0.3970  0.0587
  697MOL0     O93968  12.109   7.851   9.943  0.6109  0.4232  0.1419
  697MOL0     C93969  12.154   7.790   9.822  0.4699 -0.1318  0.6736
  697MOL0     C93970  12.070   7.845   9.702 -0.0052 -0.9169 -1.4256
  697MOL0     C93971  12.126   7.788   9.573  0.9300 -0.6114 -0.1999
  697MOL0     C93972  12.036   7.809   9.449 -0.5286 -0.6976  0.1879
  697MOL0     C93973  12.083   7.741   9.323 -0.7472  0.8531 -0.7917
  697MOL0     C93974  12.211   7.811   9.284 -0.0275 -0.7392  0.2472
  697MOL0     C93975  12.263   7.758   9.150 -0.0964  0.1042 -0.6948
  697MOL0     C93976  12.338   7.878   9.082 -0.0240  0.6283  0.9574
  697MOL0     N93977  12.363   7.852   8.942 -0.0202 -0.6495  0.0774
  697MOL0     C93978  12.284   7.893   8.830  0.4052  0.0968  0.1806
  697MOL0     C93979  12.359   7.854   8.718  0.4004 -0.4188 -0.6887
  697MOL0     C93980  12.311   7.873   8.571  0.8482  0.4990 -0.0856
  697MOL0     C93981  12.376   7.998   8.504 -1.0026 -0.9121  0.1068
  697MOL0     C93982  12.279   8.052   8.397 -0.0926  0.2015  0.2874
  697MOL0     C93983  12.303   7.957   8.279  0.5907  0.6270 -0.7513
  697MOL0     O93984  12.246   8.007   8.156 -0.6604 -0.7156  0.0843
  697MOL0     C93985  12.107   8.008   8.142  0.6073  0.3805 -0.2663
  697MOL0     C93986  12.039   8.111   8.073 -1.3275 -0.5921  0.1060
  697MOL0     C93987  11.904   8.103   8.029  0.7331  0.2790  0.5301
  697MOL0     C93988  11.838   8.215   7.952 -0.6311  0.1908 -0.0740
  697MOL0     C93989  11.823   7.991   8.080 -0.2889  0.1787  0.5672
  697MOL0     C93990  11.676   7.973   8.047  1.2814  0.4601  0.7894
  697MOL0     O93991  11.594   8.082   8.053 -0.5097 -0.0463  0.8160
  697MOL0     C93992  11.470   8.072   8.004 -0.3571 -0.5211  0.4674
  697MOL0     C93993  11.359   8.044   8.091  0.2561 -0.2083 -0.1291
  697MOL0     C93994  11.229   8.055   8.043  0.3510  0.0419  0.5190
  697MOL0     C93995  11.203   8.092   7.912  0.0008 -0.9672 -0.1598
  697MOL0     O93996  11.080   8.106   7.872  0.0824 -0.1038  0.3445
  697MOL0     C93997  11.044   8.244   7.842  0.2875 -0.0526 -0.3002
  697MOL0     C93998  10.918   8.292   7.923  0.4298  1.0346 -0.4924
  697MOL0     C93999  10.927   8.290   8.084 -0.2325  0.0973  0.3843
  697MOL0     C94000  10.809   8.381   8.139 -0.4279 -0.3972 -0.1077
  697MOL0     C94001  10.820   8.531   8.157 -0.6300 -0.6707  0.2167
  697MOL0     C94002  10.904   8.571   8.275 -0.0167  0.5942  0.0932
  697MOL0     C94003  10.944   8.712   8.261 -0.5320  0.7841  0.0149
  697MOL0     C94004  11.031   8.757   8.385  0.1454 -0.5986 -1.1590
  697MOL0    Cl94005  10.932   8.798   8.527 -0.3639 -0.0738  0.1157
  697MOL0     C94006  11.312   8.128   7.833 -0.8528 -0.4156  0.1328
  697MOL0     C94007  11.447   8.119   7.878 -1.0849 -0.1141 -0.1899
  697MOL0     O94008  11.637   7.863   8.003  0.4205 -0.0713  0.6119
  697MOL0     C94009  11.895   7.895   8.151  0.0122  0.3858 -0.2177
  697MOL0     C94010  12.032   7.900   8.177  0.0812 -0.4424  0.1060
  697MOL0     N94011  12.476   7.799   8.768  0.1000 -0.2163  0.4745
  697MOL0     N94012  12.477   7.789   8.897  0.3086  0.4426  0.4519
  697MOL0     C94013  11.902   7.716   9.945  0.1824  0.2003  0.7715
  697MOL0     C94014  11.772   7.700  10.002 -0.7787 -0.2798 -0.1993
  697MOL0     C94015  11.365   7.844  10.136 -0.1266 -0.6998  0.1389
  697MOL0     C94016  11.352   7.836  10.277  0.1931  0.0493 -0.9140
  697MOL0     C94017  11.231   7.852  10.340 -0.4813 -0.1306 -0.0710
  697MOL0     C94018  11.113   7.869  10.269  0.6887  0.1796 -0.3680
  697MOL0     O94019  11.003   7.876  10.345 -0.3765 -0.1668 -0.0969
  697MOL0     C94020  10.871   7.875  10.292 -0.2805 -0.5555  0.5084
  697MOL0     C94021  10.773   7.877  10.413 -0.0699  0.6853 -0.1401
  697MOL0     C94022  10.790   8.006  10.496 -0.4875  0.1685  0.1221
  697MOL0     C94023  10.665   8.037  10.581  0.4081 -0.6754  0.7276
  697MOL0     C94024  10.638   7.926  10.667 -0.7268  0.4432  0.3094
  697MOL0     C94025  10.615   7.836  10.739 -0.4016 -0.0718 -0.8510
  697MOL0     C94026  11.121   7.877  10.131  0.1774 -0.1847 -0.5056
  697MOL0     C94027  11.241   7.865  10.068  0.1587 -0.0262  0.0130
  697MOL0     H94028  11.766   7.982  10.195  3.4692 -0.6227  2.0842
  697MOL0     H94029  11.978   8.024  10.085 -3.5671  2.0665 -0.0081
  697MOL0     H94030  12.253   7.822   9.786  0.0257  1.1624  0.5476
  697MOL0     H94031  12.156   7.681   9.825 -0.1267 -0.2262 -1.0866
  697MOL0     H94032  11.966   7.811   9.713  0.8783 -3.5096 -0.0642
  697MOL0     H94033  12.068   7.954   9.697 -1.6138 -0.9003 -1.2027
  697MOL0     H94034  12.231   7.817   9.562  1.5264 -1.3510  2.6898
  697MOL0     H94035  12.138   7.680   9.587  1.1627 -0.3749  1.6315
  697MOL0     H94036  11.936   7.773   9.474 -0.7056  0.4602  1.2384
  697MOL0     H94037  12.042   7.913   9.416  2.3565 -1.5480 -2.4488
  697MOL0     H94038  12.108   7.640   9.357 -0.0833  0.8575 -1.2521
  697MOL0     H94039  12.003   7.736   9.249 -0.8163  0.2870 -0.6813
  697MOL0     H94040  12.197   7.920   9.281 -2.1007 -0.9910 -1.2489
  697MOL0     H94041  12.290   7.787   9.356 -0.1467  2.1663  1.4801
  697MOL0     H94042  12.325   7.669   9.163 -2.6986 -1.5830  1.4022
  697MOL0     H94043  12.179   7.733   9.085  0.1021  1.2100 -1.3981
  697MOL0     H94044  12.433   7.911   9.123  0.0734  3.6685 -1.4168
  697MOL0     H94045  12.283   7.972   9.081  1.7156  1.7018  1.5817
  697MOL0     H94046  12.182   7.929   8.831  0.2093 -0.4623  0.3777
  697MOL0     H94047  12.339   7.784   8.513 -0.4360  0.4657 -0.6906
  697MOL0     H94048  12.203   7.880   8.587  0.9792 -0.2280  1.2607
  697MOL0     H94049  12.477   7.969   8.474 -0.4421  0.3363  0.6866
  697MOL0     H94050  12.398   8.079   8.575 -1.3893  1.6143 -2.5012
  697MOL0     H94051  12.300   8.154   8.365 -0.5562  0.6236  1.2770
  697MOL0     H94052  12.178   8.034   8.435  0.2863 -2.0398  0.3644
  697MOL0     H94053  12.273   7.856   8.307 -1.6852  1.2134 -0.8679
  697MOL0     H94054  12.408   7.955   8.251  1.8112 -1.1541  3.1998
  697MOL0     H94055  12.095   8.202   8.050  0.2158 -1.4752  0.2435
  697MOL0     H94056  11.802   8.178   7.855  0.5169 -0.3978 -0.3034
  697MOL0     H94057  11.761   8.268   8.009  0.1875  1.1309  0.1762
  697MOL0     H94058  11.909   8.289   7.914  0.2684 -1.3807 -1.6086
  697MOL0     H94059  11.383   7.994   8.184  2.2857 -1.7264 -1.3690
  697MOL0     H94060  11.153   8.058   8.121  0.8888  4.0719  1.1039
  697MOL0     H94061  11.117   8.317   7.878 -0.6346  1.8207 -2.0417
  697MOL0     H94062  11.020   8.258   7.736 -0.3439  1.7959  0.0604
  697MOL0     H94063  10.888   8.391   7.887 -0.5394  0.1650 -2.1758
  697MOL0     H94064  10.834   8.225   7.906  1.8167 -0.3472 -2.2749
  697MOL0     H94065  11.027   8.327   8.109  0.8164 -0.5793 -2.4582
  697MOL0     H94066  10.916   8.183   8.104  3.3033 -0.3906  0.3913
  697MOL0     H94067  10.725   8.374   8.069 -1.5014 -0.9846  1.2031
  697MOL0     H94068  10.776   8.346   8.238  1.8992  1.3920  1.3925
  697MOL0     H94069  10.725   8.585   8.170 -0.3802  0.1964 -1.2755
  697MOL0     H94070  10.865   8.564   8.063 -1.0646  1.3142  0.6693
  697MOL0     H94071  10.853   8.563   8.371  1.0581 -2.1435  0.4968
  697MOL0     H94072  11.000   8.519   8.276  0.5916  1.4870 -2.4127
  697MOL0     H94073  10.857   8.777   8.249 -1.6382 -0.7077 -0.2684
  697MOL0     H94074  10.997   8.710   8.165 -0.0050 -3.8408  0.1768
  697MOL0     H94075  11.083   8.850   8.359  0.4505 -0.6755 -0.8328
  697MOL0     H94076  11.104   8.683   8.418  2.3323  2.0061  0.2723
  697MOL0     H94077  11.289   8.154   7.730  1.2850 -0.1853 -0.3327
  697MOL0     H94078  11.524   8.148   7.807 -2.0301  0.3777 -1.0407
  697MOL0     H94079  11.836   7.807   8.171  1.3585 -0.5155 -0.0526
  697MOL0     H94080  12.070   7.810   8.226 -1.5777 -1.3134 -0.1469
  697MOL0     H94081  11.933   7.632   9.883  1.5562  0.0104  1.6618
  697MOL0     H94082  11.715   7.612   9.977 -2.5048  0.7343 -0.0136
  697MOL0     H94083  11.440   7.815  10.337 -1.2196 -2.3638  0.4420
  697MOL0     H94084  11.216   7.842  10.447  0.0382  4.3895  0.6426
  697MOL0     H94085  10.855   7.964  10.231 -0.2251 -2.3526 -2.2783
  697MOL0     H94086  10.848   7.792  10.225 -3.3977  0.2465  0.4310
  697MOL0     H94087  10.805   7.787  10.468  1.2960  2.7404  2.6826
  697MOL0     H94088  10.677   7.861  10.363 -0.3128 -1.0012  0.7621
  697MOL0     H94089  10.819   8.076  10.418  1.3463 -1.4012 -0.6764
  697MOL0     H94090  10.870   7.983  10.567 -1.3868 -2.3156  0.4564
  697MOL0     H94091  10.581   8.057  10.514 -0.1942 -1.7367  1.1434
  697MOL0     H94092  10.676   8.129  10.641 -0.4627 -0.1089  0.0352
  697MOL0     H94093  10.593   7.748  10.797 -3.1932 -0.2647 -2.0555
  697MOL0     H94094  11.031   7.897  10.074  1.0043 -0.8745 -2.1152
  697MOL0     H94095  11.238   7.874   9.959  0.9868  2.0269  0.1074
  698MOL0     O94096   3.455   5.003   7.735 -0.0639 -0.0978  0.2969
  698MOL0     C94097   3.500   5.007   7.625 -0.0225 -0.7029  0.4811
  698MOL0     O94098   3.578   4.915   7.572  0.6074  0.5466 -0.7023
  698MOL0     C94099   3.602   4.795   7.636 -0.8648  0.9525 -0.0033
  698MOL0     C94100   3.664   4.782   7.761  0.0580 -0.3799  0.4429
  698MOL0     C94101   3.728   4.656   7.792  0.2559 -0.1638 -0.0220
  698MOL0     C94102   3.718   4.550   7.709 -0.3442  0.5050 -0.3009
  698MOL0     O94103   3.763   4.427   7.747  0.5397  0.5739  0.6500
  698MOL0     C94104   3.814   4.398   7.880  0.2132  0.8600  0.1422
  698MOL0     C94105   3.853   4.246   7.876  0.2779 -0.6558  0.9105
  698MOL0     C94106   3.734   4.152   7.869 -0.6865 -0.8303  0.3928
  698MOL0     C94107   3.769   3.998   7.887 -0.0010 -0.4694 -0.4476
  698MOL0     C94108   3.637   3.925   7.913  0.8183 -0.8681 -0.0729
  698MOL0     C94109   3.666   3.775   7.929  0.3699  0.2415  0.7582
  698MOL0     C94110   3.536   3.706   7.971  0.4185  0.1774 -0.5200
  698MOL0     C94111   3.556   3.554   7.931  0.9095 -0.6080 -0.1709
  698MOL0     N94112   3.442   3.471   7.965  0.1956  0.4044 -0.4856
  698MOL0     C94113   3.305   3.491   7.930  0.9834  0.0563  0.7708
  698MOL0     C94114   3.259   3.363   7.936 -0.3451  0.1645 -0.3839
  698MOL0     C94115   3.120   3.313   7.919 -0.1385 -0.5457  0.5003
  698MOL0     C94116   3.068   3.268   8.054  0.1088 -0.2158 -0.6426
  698MOL0     C94117   2.921   3.312   8.053  0.3536 -0.3428  0.5277
  698MOL0     C94118   2.847   3.259   8.173 -0.3185 -0.2387 -0.7960
  698MOL0     O94119   2.857   3.117   8.189  0.3230 -0.3757 -0.2068
  698MOL0     C94120   2.751   3.051   8.242  0.5061  0.3285  0.1598
  698MOL0     C94121   2.710   2.930   8.191  0.1850  0.4852  0.1156
  698MOL0     C94122   2.622   2.840   8.245  0.6133 -0.0689  0.3567
  698MOL0     C94123   2.598   2.708   8.169  0.5078  0.2629  0.0957
  698MOL0     C94124   2.544   2.881   8.359  0.8658  0.5542  1.0146
  698MOL0     C94125   2.425   2.809   8.415 -0.1225 -0.9274 -0.1311
  698MOL0     O94126   2.378   2.854   8.532  0.4337 -0.5231 -0.0203
  698MOL0     C94127   2.276   2.794   8.599  0.9492 -0.1965  0.7968
  698MOL0     C94128   2.278   2.660   8.633 -0.0776  0.0358 -0.7296
  698MOL0     C94129   2.188   2.604   8.734  0.5575  0.5541 -0.3408
  698MOL0     C94130   2.069   2.677   8.762  0.2399  0.6194 -0.0224
  698MOL0     O94131   1.967   2.625   8.843  0.2273 -0.3624  0.3263
  698MOL0     C94132   1.972   2.490   8.880  0.9824 -0.1592 -0.4688
  698MOL0     C94133   2.053   2.465   9.014 -0.9328 -0.2634  0.6142
  698MOL0     C94134   1.967   2.509   9.127 -0.3071 -0.2507  1.2057
  698MOL0     C94135   2.047   2.484   9.254 -0.1874 -0.2147 -0.0732
  698MOL0     C94136   1.979   2.536   9.375  0.0328  0.4383 -0.3842
  698MOL0     C94137   2.071   2.505   9.503  0.3664  0.0677  0.7467
  698MOL0     C94138   2.222   2.554   9.504  0.6414 -0.6875 -0.4600
  698MOL0     C94139   2.284   2.516   9.642 -0.3898 -0.9789 -0.0777
  698MOL0    Cl94140   2.455   2.550   9.644 -0.5012 -0.0171 -0.0190
  698MOL0     C94141   2.066   2.819   8.719 -0.0229  0.1719 -0.5417
  698MOL0     C94142   2.171   2.879   8.654  0.5773 -0.9963  0.0563
  698MOL0     O94143   2.406   2.699   8.365  0.3326 -0.0040  0.2034
  698MOL0     C94144   2.579   3.011   8.413  1.2358 -0.6626 -0.5054
  698MOL0     C94145   2.688   3.090   8.365  0.2915 -0.3771  0.5286
  698MOL0     N94146   3.356   3.273   7.970 -0.9170 -0.1314 -0.4732
  698MOL0     N94147   3.458   3.341   8.000 -0.9301  0.4787  0.0983
  698MOL0     C94148   3.659   4.566   7.585 -0.5216  0.4423 -0.1173
  698MOL0     C94149   3.611   4.686   7.546 -0.1482 -0.2045 -0.2938
  698MOL0     C94150   3.459   5.117   7.548 -0.4332 -0.8560  0.4241
  698MOL0     C94151   3.460   5.113   7.409 -0.8406  0.0200  0.5093
  698MOL0     C94152   3.435   5.222   7.330 -0.0844  0.3473 -0.1189
  698MOL0     C94153   3.421   5.348   7.399 -0.1224  0.2351  0.4420
  698MOL0     O94154   3.415   5.465   7.324  0.0482  0.1973  0.2506
  698MOL0     C94155   3.393   5.589   7.389  0.3037  0.4100 -0.4585
  698MOL0     C94156   3.243   5.606   7.414 -0.1140  1.0710  0.2405
  698MOL0     C94157   3.218   5.755   7.468  1.0555  0.5540  0.2442
  698MOL0     C94158   3.072   5.779   7.506 -0.2874 -0.1693  0.2206
  698MOL0     C94159   2.968   5.750   7.408  0.9342  0.1077  0.7454
  698MOL0     C94160   2.892   5.694   7.327  0.8160 -0.5027 -0.9552
  698MOL0     C94161   3.402   5.350   7.541  0.4926 -0.1575  0.1411
  698MOL0     C94162   3.422   5.237   7.612  0.4237 -0.8027 -0.5301
  698MOL0     H94163   3.678   4.874   7.818 -2.4709 -0.0676  0.6811
  698MOL0     H94164   3.775   4.655   7.890  2.1477  1.1679 -0.8689
  698MOL0     H94165   3.903   4.459   7.892  0.1457  0.9765  0.0527
  698MOL0     H94166   3.739   4.406   7.959  0.4145  4.7681  0.1106
  698MOL0     H94167   3.909   4.235   7.782 -2.5188 -2.8812 -0.6392
  698MOL0     H94168   3.901   4.219   7.970  2.6201  1.8895  0.5673
  698MOL0     H94169   3.672   4.192   7.950  0.7634  1.3650  0.5069
  698MOL0     H94170   3.677   4.169   7.777 -0.2711  3.4213  0.7093
  698MOL0     H94171   3.825   3.953   7.805  3.0473 -0.0037  1.2151
  698MOL0     H94172   3.830   3.980   7.976 -0.3711  0.4833  0.0114
  698MOL0     H94173   3.588   3.965   8.003 -3.5361 -1.5277 -1.9008
  698MOL0     H94174   3.576   3.933   7.822 -0.1423 -2.3010  0.4208
  698MOL0     H94175   3.691   3.738   7.830 -3.8575 -3.0061  0.6366
  698MOL0     H94176   3.744   3.749   8.002  0.5981  3.1829  1.7154
  698MOL0     H94177   3.517   3.723   8.077  1.5699  2.5484 -0.6193
  698MOL0     H94178   3.454   3.760   7.923 -0.7287 -0.0735  1.0789
  698MOL0     H94179   3.651   3.510   7.963 -0.4092 -2.4375  1.4271
  698MOL0     H94180   3.552   3.553   7.822 -1.5327 -0.3642 -0.1349
  698MOL0     H94181   3.248   3.581   7.916  0.6468  0.0094  1.7514
  698MOL0     H94182   3.054   3.395   7.889 -3.4442 -1.5974  4.0298
  698MOL0     H94183   3.124   3.233   7.845  0.1667 -0.7519  0.7404
  698MOL0     H94184   3.116   3.306   8.145  0.1561  0.4381 -0.9349
  698MOL0     H94185   3.083   3.160   8.056 -0.7337 -0.3318 -0.1578
  698MOL0     H94186   2.874   3.274   7.962  0.9364  3.2565 -1.4341
  698MOL0     H94187   2.920   3.420   8.041  2.8447 -0.1655  1.4160
  698MOL0     H94188   2.744   3.293   8.165  0.3416  1.7620 -1.3855
  698MOL0     H94189   2.891   3.307   8.261 -1.1208 -0.0324 -0.5066
  698MOL0     H94190   2.776   2.900   8.110  1.7098  3.3026  0.2028
  698MOL0     H94191   2.666   2.686   8.085 -1.4961 -1.9754 -1.0817
  698MOL0     H94192   2.612   2.627   8.242  2.0123  0.4938  0.0992
  698MOL0     H94193   2.497   2.705   8.127  1.2771  0.9796 -1.9759
  698MOL0     H94194   2.356   2.594   8.598  0.9807  0.1445  1.2507
  698MOL0     H94195   2.210   2.502   8.764 -0.5442 -0.7328 -3.4721
  698MOL0     H94196   1.865   2.469   8.887  0.5030  1.6239 -1.6411
  698MOL0     H94197   2.014   2.424   8.803 -1.4187  1.0709 -2.9884
  698MOL0     H94198   2.086   2.362   9.029  0.7946  0.3514  1.2761
  698MOL0     H94199   2.137   2.534   9.003 -1.8381  0.5009 -2.9405
  698MOL0     H94200   1.875   2.450   9.127  0.4256 -1.4721 -0.0367
  698MOL0     H94201   1.951   2.617   9.135 -1.9252 -0.5004  1.7691
  698MOL0     H94202   2.047   2.375   9.259 -3.2075 -0.3045 -0.4472
  698MOL0     H94203   2.150   2.522   9.251  0.8110 -2.6139  0.8445
  698MOL0     H94204   1.885   2.484   9.397  1.6373 -2.0390  1.0828
  698MOL0     H94205   1.956   2.642   9.360 -0.0237  0.6081  0.7739
  698MOL0     H94206   2.019   2.548   9.589  0.0703 -0.6686  0.9428
  698MOL0     H94207   2.088   2.398   9.521  3.4155 -0.0011 -1.7574
  698MOL0     H94208   2.229   2.662   9.486  1.3391 -0.8836 -1.3751
  698MOL0     H94209   2.268   2.504   9.419  2.9382  0.4345  0.0370
  698MOL0     H94210   2.265   2.410   9.659 -0.0896 -2.1823 -5.4908
  698MOL0     H94211   2.230   2.581   9.711 -0.7873  0.1690 -1.4084
  698MOL0     H94212   1.983   2.886   8.740  0.6795  1.8701 -2.7441
  698MOL0     H94213   2.163   2.985   8.632  0.5465 -1.0390 -0.1445
  698MOL0     H94214   2.531   3.030   8.508  1.4054 -3.3646  0.2024
  698MOL0     H94215   2.698   3.187   8.411 -1.1583  1.3498 -2.5001
  698MOL0     H94216   3.662   4.488   7.510  3.5087 -1.2118  1.4858
  698MOL0     H94217   3.574   4.707   7.447 -1.0072 -2.1196 -0.4238
  698MOL0     H94218   3.493   5.028   7.350  1.4062  0.4652  1.0196
  698MOL0     H94219   3.435   5.213   7.222  3.0042 -2.1951 -0.0559
  698MOL0     H94220   3.449   5.604   7.481 -0.7128 -1.4987  0.5270
  698MOL0     H94221   3.416   5.674   7.324  0.5217 -0.3066 -1.3411
  698MOL0     H94222   3.220   5.531   7.490 -0.2492  1.8973  1.0442
  698MOL0     H94223   3.185   5.588   7.323 -0.6643 -2.9608  1.2180
  698MOL0     H94224   3.248   5.820   7.385 -0.1947  0.7036 -0.1129
  698MOL0     H94225   3.273   5.775   7.560  0.7339  1.1043  0.3237
  698MOL0     H94226   3.063   5.878   7.552  1.5995 -0.1446  0.6073
  698MOL0     H94227   3.049   5.714   7.591 -0.6179  0.6191  0.7502
  698MOL0     H94228   2.825   5.651   7.256  0.4604 -1.0996 -0.2710
  698MOL0     H94229   3.390   5.450   7.582  3.5493  1.4223 -2.3771
  698MOL0     H94230   3.391   5.243   7.716  0.2430 -2.6763 -0.4508
  699MOL0     O94231   8.023   6.184   2.643  0.4370 -0.1656  0.0450
  699MOL0     C94232   7.975   6.251   2.737 -0.1611 -0.2379  0.0626
  699MOL0     O94233   7.912   6.369   2.727  0.4574 -0.7871 -0.1471
  699MOL0     C94234   7.862   6.432   2.614 -0.2635  0.2202 -0.7475
  699MOL0     C94235   7.877   6.401   2.470 -0.3761  0.5628 -0.8361
  699MOL0     C94236   7.813   6.464   2.365  0.1811 -0.5552  0.7708
  699MOL0     C94237   7.738   6.578   2.397 -0.0081  0.5136  0.2837
  699MOL0     O94238   7.676   6.658   2.296  1.3054  0.2099 -0.1613
  699MOL0     C94239   7.684   6.618   2.155 -0.4635 -0.3554 -0.6469
  699MOL0     C94240   7.598   6.708   2.078  0.7213 -0.0565  0.0696
  699MOL0     C94241   7.461   6.712   2.133  0.2354 -0.1954 -0.1315
  699MOL0     C94242   7.361   6.798   2.048 -0.3073 -0.8063 -0.1281
  699MOL0     C94243   7.225   6.742   2.043  0.6256  1.1830 -0.4292
  699MOL0     C94244   7.107   6.837   2.060  0.7454 -0.9871 -0.3768
  699MOL0     C94245   7.113   6.933   1.942 -0.0196  0.4400 -0.4840
  699MOL0     C94246   7.036   7.059   1.972 -1.1780 -0.4579  1.0203
  699MOL0     N94247   6.896   7.022   1.964  0.5404  0.0534  0.0853
  699MOL0     C94248   6.819   6.980   1.858  0.2095  0.3972 -0.1222
  699MOL0     C94249   6.702   6.940   1.905 -0.7110 -0.5966  0.1895
  699MOL0     C94250   6.598   6.875   1.816 -0.5453  0.2598 -0.5662
  699MOL0     C94251   6.461   6.938   1.836  0.1864  1.3404  0.4474
  699MOL0     C94252   6.408   7.014   1.714  0.3577  0.3082 -0.1899
  699MOL0     C94253   6.288   7.105   1.757  0.2233 -0.5962 -0.6087
  699MOL0     O94254   6.212   7.139   1.644 -0.2662 -0.2136 -0.3045
  699MOL0     C94255   6.138   7.040   1.585 -1.4903 -0.2788  0.3101
  699MOL0     C94256   6.021   6.997   1.642  0.6772  0.2943 -1.4344
  699MOL0     C94257   5.925   6.910   1.573 -1.4051 -0.3101  0.3604
  699MOL0     C94258   5.795   6.880   1.646  0.2834  0.4603  0.5217
  699MOL0     C94259   5.960   6.860   1.451  0.1192  0.9712  0.7355
  699MOL0     C94260   5.887   6.751   1.382 -0.4943  0.4676  0.1336
  699MOL0     O94261   5.869   6.767   1.245 -0.4967  0.2306  0.9354
  699MOL0     C94262   5.783   6.692   1.172  0.3458 -0.0753  0.2294
  699MOL0     C94263   5.812   6.674   1.036  0.0507 -0.4327  0.4367
  699MOL0     C94264   5.734   6.591   0.958 -0.0798  0.8045 -0.3854
  699MOL0     C94265   5.612   6.531   1.001  0.5115 -0.7318 -0.5498
  699MOL0     O94266   5.519   6.472   0.916 -0.3933 -0.0364  0.0507
  699MOL0     C94267   5.453   6.365   0.984 -0.1040  0.1050 -0.5362
  699MOL0     C94268   5.355   6.293   0.889 -0.1020  0.9714 -0.0292
  699MOL0     C94269   5.286   6.183   0.962  1.0864 -0.3334  0.8243
  699MOL0     C94270   5.182   6.126   0.874  0.9378 -0.5500 -0.6351
  699MOL0     C94271   5.154   5.983   0.912 -0.2607 -0.3252 -0.4911
  699MOL0     C94272   5.056   5.902   0.840 -0.0413 -0.3239  0.5703
  699MOL0     C94273   5.068   5.909   0.691 -0.7607  0.2524 -0.5540
  699MOL0     C94274   4.976   5.813   0.633  0.6373 -0.2017  0.2235
  699MOL0    Cl94275   5.012   5.776   0.461  0.0448 -0.1335  0.1961
  699MOL0     C94276   5.584   6.555   1.138  0.0055 -0.9569  0.2132
  699MOL0     C94277   5.670   6.628   1.218  0.4425  0.7347  0.0420
  699MOL0     O94278   5.840   6.653   1.439 -0.4000 -0.7094 -0.4540
  699MOL0     C94279   6.083   6.904   1.394 -0.1175  0.3963  0.1296
  699MOL0     C94280   6.165   6.992   1.466  0.5230 -0.0438  1.4403
  699MOL0     N94281   6.693   6.969   2.040 -0.4001 -0.6474  0.0292
  699MOL0     N94282   6.805   7.035   2.069 -0.1496  0.5250  0.2764
  699MOL0     C94283   7.717   6.614   2.528 -0.0533 -0.6255  0.9081
  699MOL0     C94284   7.776   6.543   2.634 -0.3748 -0.1580  0.6344
  699MOL0     C94285   7.997   6.207   2.875  0.4476 -0.2069 -0.6348
  699MOL0     C94286   8.063   6.084   2.903  0.4207 -0.5881  0.2604
  699MOL0     C94287   8.079   6.046   3.037 -0.8375 -0.3285  0.3191
  699MOL0     C94288   8.034   6.127   3.141  0.0214 -0.6077  0.7107
  699MOL0     O94289   8.062   6.078   3.265 -0.7672  0.1893 -0.7446
  699MOL0     C94290   8.012   6.153   3.374 -0.6536 -0.7124  0.0065
  699MOL0     C94291   8.072   6.082   3.495  0.0937 -0.5483 -1.1126
  699MOL0     C94292   7.996   6.095   3.627 -0.1847 -0.7843 -0.4605
  699MOL0     C94293   8.058   6.027   3.746 -0.1736  0.9646  0.0497
  699MOL0     C94294   8.185   6.087   3.784 -1.2786 -0.2168 -0.9977
  699MOL0     C94295   8.298   6.137   3.807 -0.2791 -0.5649 -0.3153
  699MOL0     C94296   7.969   6.249   3.113  0.7629  0.7721 -0.2476
  699MOL0     C94297   7.957   6.287   2.984 -0.1080  0.3556  0.8130
  699MOL0     H94298   7.950   6.325   2.444 -0.3316  1.2903 -2.9877
  699MOL0     H94299   7.830   6.442   2.260 -1.7283  1.1066  0.0560
  699MOL0     H94300   7.789   6.612   2.125 -0.1615 -3.5736  0.6367
  699MOL0     H94301   7.645   6.516   2.141 -2.5068 -0.1023  2.3885
  699MOL0     H94302   7.627   6.813   2.070  0.6007 -0.1253 -1.5168
  699MOL0     H94303   7.580   6.660   1.981  2.4612 -0.8454  0.1092
  699MOL0     H94304   7.422   6.610   2.128  0.3103 -0.2092 -0.4339
  699MOL0     H94305   7.463   6.749   2.237  2.1115 -1.0281  0.1733
  699MOL0     H94306   7.355   6.892   2.103 -0.4724 -2.2403  2.4843
  699MOL0     H94307   7.397   6.819   1.946  1.9766 -0.9758  0.5747
  699MOL0     H94308   7.199   6.676   1.959 -1.1807 -0.1567  1.0902
  699MOL0     H94309   7.207   6.681   2.132 -0.8396  2.4932  0.2032
  699MOL0     H94310   7.011   6.785   2.058  0.0059  0.3586 -1.5085
  699MOL0     H94311   7.120   6.892   2.154  0.5054  0.7038 -1.3005
  699MOL0     H94312   7.215   6.965   1.919 -0.1522  1.1032 -0.1737
  699MOL0     H94313   7.079   6.880   1.853 -3.4941 -2.8424  2.4627
  699MOL0     H94314   7.077   7.132   1.902  1.4312 -1.9116  0.8829
  699MOL0     H94315   7.063   7.093   2.072 -0.0818 -2.0660  1.3064
  699MOL0     H94316   6.849   6.965   1.755 -1.2704 -2.0478 -0.2898
  699MOL0     H94317   6.624   6.883   1.710 -0.5865 -0.2703 -0.6193
  699MOL0     H94318   6.593   6.769   1.844 -1.2425  0.8920  1.9605
  699MOL0     H94319   6.462   6.994   1.930 -3.3335 -0.1174  1.5001
  699MOL0     H94320   6.388   6.857   1.845 -0.6274  2.1862  1.7683
  699MOL0     H94321   6.380   6.942   1.638  3.9281  0.2334 -1.6158
  699MOL0     H94322   6.480   7.082   1.666  0.2984  0.0228 -0.6861
  699MOL0     H94323   6.324   7.197   1.804 -2.3980 -0.2554  0.8975
  699MOL0     H94324   6.225   7.056   1.832 -2.2760  0.8465 -1.6333
  699MOL0     H94325   5.983   7.026   1.740 -1.2173 -3.0350 -1.0361
  699MOL0     H94326   5.719   6.883   1.567  3.0181 -0.4989 -2.3691
  699MOL0     H94327   5.798   6.781   1.692  1.7719  0.8780  1.3797
  699MOL0     H94328   5.765   6.957   1.718  2.4307  0.1840  1.8221
  699MOL0     H94329   5.901   6.730   1.008 -0.3587  2.5001  4.1623
  699MOL0     H94330   5.764   6.578   0.855 -0.7038  0.0416 -0.4799
  699MOL0     H94331   5.524   6.293   1.027 -0.9710  0.6553  1.9428
  699MOL0     H94332   5.405   6.397   1.076 -0.1816  2.7747 -1.4262
  699MOL0     H94333   5.274   6.360   0.861 -1.6606 -1.7279 -2.6452
  699MOL0     H94334   5.397   6.258   0.794 -5.0417  2.1625 -2.9930
  699MOL0     H94335   5.242   6.216   1.057 -1.3395  3.0823 -1.2564
  699MOL0     H94336   5.358   6.102   0.977  0.7040 -0.6291  1.1014
  699MOL0     H94337   5.094   6.191   0.883  3.3814  2.8024  0.6987
  699MOL0     H94338   5.220   6.130   0.771 -2.1761 -0.7309 -1.9376
  699MOL0     H94339   5.128   5.975   1.018  3.2117  0.1207  0.5107
  699MOL0     H94340   5.250   5.932   0.897  0.1844  0.6458 -1.0921
  699MOL0     H94341   5.057   5.800   0.880 -1.2623 -0.1172  1.1872
  699MOL0     H94342   4.960   5.949   0.864  0.5347  3.8707 -3.9150
  699MOL0     H94343   5.173   5.904   0.660 -0.9570  0.0454 -1.2024
  699MOL0     H94344   5.037   6.012   0.669  0.6639  0.6163 -0.9838
  699MOL0     H94345   4.879   5.858   0.653  1.4329  0.3839  3.1747
  699MOL0     H94346   4.991   5.722   0.691  2.6418  0.1175  0.2873
  699MOL0     H94347   5.496   6.531   1.196  1.0182  0.1907  2.3448
  699MOL0     H94348   5.636   6.631   1.320 -0.6109 -1.5719 -0.1741
  699MOL0     H94349   6.110   6.871   1.294 -0.4691  0.7966 -0.1003
  699MOL0     H94350   6.252   7.038   1.420 -0.8249  2.0912  0.8651
  699MOL0     H94351   7.660   6.706   2.515  2.2968  0.6231 -1.8395
  699MOL0     H94352   7.746   6.563   2.737  1.1075 -0.9608  1.2377
  699MOL0     H94353   8.099   6.025   2.820  2.6709  0.6479  0.2749
  699MOL0     H94354   8.138   5.955   3.044 -0.3230 -0.1653 -1.4162
  699MOL0     H94355   8.047   6.257   3.371  2.6330 -1.6859 -0.0698
  699MOL0     H94356   7.904   6.154   3.363 -0.6191 -1.0321 -0.4012
  699MOL0     H94357   8.175   6.105   3.524 -0.3640  0.5217 -0.2945
  699MOL0     H94358   8.069   5.974   3.474 -0.8420 -1.1040  1.5544
  699MOL0     H94359   7.894   6.057   3.609  0.6195 -2.1552 -2.4867
  699MOL0     H94360   7.993   6.199   3.661 -0.1112 -1.0359  0.3293
  699MOL0     H94361   8.073   5.924   3.714  1.1609  0.9389  0.6962
  699MOL0     H94362   7.987   6.031   3.829  0.4690  2.1704  0.5711
  699MOL0     H94363   8.396   6.178   3.822 -0.5186  0.6383 -1.7169
  699MOL0     H94364   7.922   6.313   3.187 -0.5774 -0.4076 -0.0367
  699MOL0     H94365   7.893   6.375   2.980  1.9203  1.9218  1.2716
  700MOL0     O94366   5.323  11.493   3.664 -0.6687 -0.4662 -0.4436
  700MOL0     C94367   5.401  11.411   3.609 -0.6332 -0.7972  0.4319
  700MOL0     O94368   5.453  11.296   3.661 -0.5332  0.0123  1.2287
  700MOL0     C94369   5.401  11.249   3.775 -0.6763  0.3128 -0.4205
  700MOL0     C94370   5.399  11.098   3.787 -0.3024 -0.0889  0.5070
  700MOL0     C94371   5.345  11.037   3.897 -0.0659 -0.0309 -0.2801
  700MOL0     C94372   5.313  11.118   4.010  0.3190 -0.4160  0.4706
  700MOL0     O94373   5.254  11.069   4.121 -0.1511  0.0332  0.1606
  700MOL0     C94374   5.199  10.930   4.113 -0.1087 -0.2053  0.2375
  700MOL0     C94375   5.151  10.872   4.252  1.3359 -0.0855  1.0081
  700MOL0     C94376   5.249  10.785   4.331  0.3229  0.5067 -0.3431
  700MOL0     C94377   5.253  10.638   4.298  0.0251 -0.3956  0.6994
  700MOL0     C94378   5.350  10.555   4.385  0.5499  0.5714  0.5564
  700MOL0     C94379   5.288  10.411   4.376 -0.6881 -0.7698 -0.2104
  700MOL0     C94380   5.367  10.306   4.444 -0.7982 -0.2109 -0.0635
  700MOL0     C94381   5.305  10.171   4.436 -0.2934  0.1929  0.4015
  700MOL0     N94382   5.389  10.063   4.491  0.8025 -0.1202 -0.9866
  700MOL0     C94383   5.529  10.050   4.479 -0.2659  0.4515  0.3278
  700MOL0     C94384   5.566   9.959   4.578  0.5537  0.4833  0.3589
  700MOL0     C94385   5.696   9.908   4.637 -0.1937 -0.0700  0.8315
  700MOL0     C94386   5.732   9.998   4.750  0.1370  0.3455  0.1400
  700MOL0     C94387   5.838   9.937   4.854  0.3786  0.3576  0.3905
  700MOL0     C94388   5.873  10.016   4.973 -0.0695 -1.1105  0.0332
  700MOL0     O94389   5.930   9.928   5.071  0.1680 -0.4112 -0.2139
  700MOL0     C94390   6.023   9.979   5.160  0.5318 -0.0513  0.2359
  700MOL0     C94391   6.068  10.114   5.173  0.0843  0.4236 -0.1078
  700MOL0     C94392   6.157  10.158   5.265 -0.1487 -0.1189  0.1848
  700MOL0     C94393   6.206  10.306   5.258 -0.0098 -0.6834  0.2111
  700MOL0     C94394   6.202  10.065   5.362  0.2405 -0.0375  0.4825
  700MOL0     C94395   6.292  10.095   5.478 -0.8889  0.0427  0.0483
  700MOL0     O94396   6.305   9.994   5.562 -0.7028 -0.1016  0.4083
  700MOL0     C94397   6.317  10.027   5.698  0.3793  0.0820 -0.4171
  700MOL0     C94398   6.252  10.125   5.776  0.4812  0.8983 -0.4062
  700MOL0     C94399   6.281  10.145   5.909  0.5041  0.2450  0.3359
  700MOL0     C94400   6.383  10.075   5.966 -0.7549  1.2303  0.5191
  700MOL0     O94401   6.435  10.091   6.091  0.8041 -0.4858 -0.0817
  700MOL0     C94402   6.351  10.166   6.173  0.4925  0.1078 -0.8379
  700MOL0     C94403   6.364  10.125   6.325  0.2900 -1.0978  0.7550
  700MOL0     C94404   6.234  10.168   6.402  0.2562  0.7954 -0.8626
  700MOL0     C94405   6.204  10.317   6.404  0.1304  0.1167  0.3802
  700MOL0     C94406   6.230  10.390   6.550 -0.5977  0.6273  0.5647
  700MOL0     C94407   6.123  10.351   6.648  0.7149  0.2176 -1.4154
  700MOL0     C94408   6.178  10.343   6.791  0.3730  1.2655 -0.6717
  700MOL0     C94409   6.070  10.348   6.897 -0.4758  0.1046  0.0597
  700MOL0    Cl94410   6.156  10.316   7.056 -0.1444  0.2725  0.1551
  700MOL0     C94411   6.456   9.985   5.886  0.9264  1.3299  0.0812
  700MOL0     C94412   6.415   9.953   5.755 -0.9771 -0.7990 -0.0027
  700MOL0     O94413   6.356  10.200   5.488  0.2819 -0.1875 -0.0008
  700MOL0     C94414   6.160   9.931   5.342  0.4390  0.6925 -0.4238
  700MOL0     C94415   6.075   9.888   5.244 -0.5459 -0.7324 -0.2185
  700MOL0     N94416   5.450   9.924   4.639  1.4758  0.1777 -0.9828
  700MOL0     N94417   5.346   9.988   4.597 -0.5987 -0.0088 -0.2203
  700MOL0     C94418   5.330  11.253   4.008  0.4301  0.0242 -0.3015
  700MOL0     C94419   5.362  11.320   3.895 -0.5748 -0.2100  0.1348
  700MOL0     C94420   5.443  11.458   3.478  0.0029  1.0214 -0.0176
  700MOL0     C94421   5.404  11.586   3.424  0.8613 -0.5031  0.3604
  700MOL0     C94422   5.431  11.623   3.290 -0.3270 -0.8761 -0.3680
  700MOL0     C94423   5.499  11.529   3.218  0.0889 -1.0825  0.0961
  700MOL0     O94424   5.547  11.558   3.093 -0.6674  0.6675 -0.4080
  700MOL0     C94425   5.476  11.654   3.010  0.2000  0.0921  0.5542
  700MOL0     C94426   5.531  11.797   3.032  0.2291 -0.9583 -0.6225
  700MOL0     C94427   5.674  11.820   3.018 -0.1400 -0.2353 -0.0459
  700MOL0     C94428   5.740  11.953   3.073  0.3303  0.1023 -0.0520
  700MOL0     C94429   5.880  11.967   3.025 -0.1087 -0.4692  0.5779
  700MOL0     C94430   5.992  11.989   2.974  0.4013  0.5216 -0.6533
  700MOL0     C94431   5.540  11.405   3.268 -0.4165  0.6955 -0.7475
  700MOL0     C94432   5.506  11.369   3.393  0.5308 -0.5531  0.6487
  700MOL0     H94433   5.425  11.039   3.700  0.9778  2.6149 -1.0718
  700MOL0     H94434   5.329  10.930   3.887 -0.0847 -0.2162  1.5169
  700MOL0     H94435   5.106  10.939   4.056 -0.5032 -2.3517  0.4704
  700MOL0     H94436   5.259  10.851   4.068 -2.5169 -2.2834  0.4637
  700MOL0     H94437   5.111  10.951   4.316  0.5371  1.1009 -0.8595
  700MOL0     H94438   5.056  10.823   4.228  0.3419  1.8361  0.8123
  700MOL0     H94439   5.347  10.834   4.330 -0.6732  3.0722  3.8127
  700MOL0     H94440   5.223  10.792   4.437 -0.1276  4.5402 -0.5414
  700MOL0     H94441   5.149  10.605   4.300 -0.6400  1.3851 -0.7154
  700MOL0     H94442   5.270  10.618   4.192 -0.9807 -0.0839  0.4718
  700MOL0     H94443   5.452  10.560   4.347  0.8791  0.3401  1.3776
  700MOL0     H94444   5.337  10.575   4.492 -1.1969 -1.2019  0.7316
  700MOL0     H94445   5.195  10.413   4.434  1.9122  3.0619  4.5801
  700MOL0     H94446   5.283  10.386   4.269 -0.0072 -0.2695 -0.3689
  700MOL0     H94447   5.465  10.310   4.395 -0.5254  0.6579  0.5094
  700MOL0     H94448   5.379  10.331   4.550 -1.8203  0.1844 -0.0292
  700MOL0     H94449   5.285  10.143   4.333  0.0449 -1.4651  0.7603
  700MOL0     H94450   5.205  10.179   4.480  0.7667  2.0803  2.7008
  700MOL0     H94451   5.598  10.109   4.419  1.0022 -4.3037 -3.5552
  700MOL0     H94452   5.697   9.803   4.668  1.4760 -0.2512  0.2581
  700MOL0     H94453   5.775   9.911   4.561  1.5809  0.7747  2.6240
  700MOL0     H94454   5.635  10.013   4.799 -0.3874 -0.2113 -0.7060
  700MOL0     H94455   5.771  10.094   4.715  1.6075 -0.5386 -0.7310
  700MOL0     H94456   5.927   9.913   4.795  0.4661  0.1011  0.6223
  700MOL0     H94457   5.799   9.840   4.885  0.5406 -0.1786 -1.0018
  700MOL0     H94458   5.782  10.065   5.010 -1.1956 -3.5095  0.6347
  700MOL0     H94459   5.946  10.089   4.937 -0.2241 -0.8788  0.1807
  700MOL0     H94460   6.036  10.185   5.097 -1.4980  0.1620  0.2859
  700MOL0     H94461   6.175  10.358   5.166  1.9692  1.5006  0.6744
  700MOL0     H94462   6.154  10.343   5.346 -4.9216 -0.8053 -2.3261
  700MOL0     H94463   6.315  10.300   5.270 -0.0822 -3.1630  0.1248
  700MOL0     H94464   6.182  10.187   5.721 -1.0824  0.2903  0.8060
  700MOL0     H94465   6.226  10.226   5.955  0.7650 -1.6888  4.5272
  700MOL0     H94466   6.389  10.268   6.168 -0.2186  0.6629  2.5288
  700MOL0     H94467   6.245  10.169   6.145  0.2141 -0.4784  0.0929
  700MOL0     H94468   6.383  10.019   6.343  2.4009 -0.8888  0.0761
  700MOL0     H94469   6.450  10.185   6.358 -0.9637  0.3640  1.5037
  700MOL0     H94470   6.255  10.129   6.502 -1.0617  1.3789 -0.3317
  700MOL0     H94471   6.145  10.118   6.362  0.0318  0.0716  0.4786
  700MOL0     H94472   6.264  10.376   6.334 -0.1308  1.3275  1.1627
  700MOL0     H94473   6.103  10.334   6.366  0.1909 -2.4139 -1.1850
  700MOL0     H94474   6.232  10.499   6.554 -2.1649  0.6697  0.7644
  700MOL0     H94475   6.328  10.346   6.570 -1.5007 -0.3628  3.4201
  700MOL0     H94476   6.035  10.415   6.638  1.2021  1.2470  0.2802
  700MOL0     H94477   6.081  10.250   6.640 -2.4359  0.9156  2.8279
  700MOL0     H94478   6.231  10.438   6.785  1.9102  0.3674 -2.5895
  700MOL0     H94479   6.245  10.258   6.808 -0.2492  0.7210 -0.8666
  700MOL0     H94480   5.982  10.284   6.884 -1.7990  1.5506  1.5808
  700MOL0     H94481   6.036  10.451   6.897  0.1255  0.3054  0.3712
  700MOL0     H94482   6.528   9.922   5.938 -1.3258 -2.6891 -1.2100
  700MOL0     H94483   6.454   9.860   5.714  3.1101 -0.1344  1.8164
  700MOL0     H94484   6.181   9.854   5.416  1.0784  2.0431  0.8470
  700MOL0     H94485   6.031   9.789   5.241 -0.9655 -0.5360 -2.0212
  700MOL0     H94486   5.318  11.314   4.097 -2.0745 -0.0913 -0.4823
  700MOL0     H94487   5.368  11.429   3.896 -1.3695 -0.1298  2.4907
  700MOL0     H94488   5.347  11.657   3.484  1.2585  0.8724 -0.8477
  700MOL0     H94489   5.400  11.718   3.247 -3.2052 -1.0674  1.0045
  700MOL0     H94490   5.510  11.619   2.912  0.6501 -1.7459  1.3190
  700MOL0     H94491   5.368  11.642   3.022  0.6222 -2.7092  2.3471
  700MOL0     H94492   5.502  11.835   3.131 -0.8519 -2.2339 -0.4225
  700MOL0     H94493   5.475  11.868   2.971  0.1260  1.6820  2.2748
  700MOL0     H94494   5.698  11.805   2.913 -0.3036  2.5422 -0.5471
  700MOL0     H94495   5.718  11.737   3.074 -0.6825 -0.6159 -0.1737
  700MOL0     H94496   5.748  11.947   3.182 -2.6397  1.1539  0.3329
  700MOL0     H94497   5.680  12.043   3.055  1.6660  1.0963  0.3891
  700MOL0     H94498   6.083  11.988   2.917  1.0030 -1.3833  0.2162
  700MOL0     H94499   5.591  11.329   3.210  4.1174  2.4929  0.4909
  700MOL0     H94500   5.545  11.275   3.430 -0.4983  0.5365  5.0590
  701MOL0     O94501   3.652   4.241   6.711  0.0886  0.4331  0.6657
  701MOL0     C94502   3.736   4.176   6.769 -0.4195  0.0100  0.3935
  701MOL0     O94503   3.855   4.223   6.813  0.0416 -0.8126  0.4016
  701MOL0     C94504   3.884   4.356   6.788  0.1682  0.5282 -1.0899
  701MOL0     C94505   3.803   4.457   6.830  1.3056  0.0367 -0.2557
  701MOL0     C94506   3.843   4.593   6.820 -0.1685  1.5895  0.2001
  701MOL0     C94507   3.965   4.625   6.753 -0.0892  0.0708  0.1309
  701MOL0     O94508   4.006   4.759   6.751  0.1067  0.0277 -0.4105
  701MOL0     C94509   4.034   4.821   6.865  0.4074  0.0554 -0.5000
  701MOL0     C94510   3.946   4.944   6.896  0.5464 -0.2308  0.3111
  701MOL0     C94511   3.975   5.065   6.803 -0.1565  0.1710  1.1025
  701MOL0     C94512   3.843   5.136   6.762  0.7546 -0.4133 -0.4997
  701MOL0     C94513   3.859   5.288   6.726 -0.3260 -0.7288 -0.3607
  701MOL0     C94514   3.967   5.324   6.621  0.6121 -0.1841  0.2449
  701MOL0     C94515   3.945   5.228   6.495  0.0192  0.6802  0.8554
  701MOL0     C94516   4.036   5.260   6.377  0.2478  0.6647 -0.5579
  701MOL0     N94517   3.966   5.339   6.271 -0.2277  0.4558 -0.5134
  701MOL0     C94518   3.945   5.476   6.283  1.2082 -0.3195  1.0219
  701MOL0     C94519   3.881   5.506   6.166 -0.3562 -0.2876 -0.0108
  701MOL0     C94520   3.838   5.652   6.125  0.3149 -0.4983 -0.1966
  701MOL0     C94521   3.709   5.641   6.039  0.4421  0.4212  0.3411
  701MOL0     C94522   3.589   5.625   6.133 -0.2095 -1.0165  0.0238
  701MOL0     C94523   3.463   5.630   6.051  1.5766  0.1297 -0.8885
  701MOL0     O94524   3.357   5.646   6.156  0.1065  0.4631 -0.3848
  701MOL0     C94525   3.243   5.704   6.122 -0.3701  0.7995  0.1020
  701MOL0     C94526   3.192   5.712   5.989 -0.1478  0.1044 -0.1522
  701MOL0     C94527   3.079   5.782   5.947  0.2383  0.6784 -0.4231
  701MOL0     C94528   3.039   5.779   5.810 -0.5103  0.6448 -0.5408
  701MOL0     C94529   2.998   5.837   6.052 -0.2649 -0.3664 -0.4301
  701MOL0     C94530   2.880   5.920   6.034  0.4050 -0.7287  0.0138
  701MOL0     O94531   2.855   5.966   5.910  0.0589 -0.8419 -0.9784
  701MOL0     C94532   2.736   6.028   5.879  0.5165 -0.1634  1.1246
  701MOL0     C94533   2.745   6.135   5.791  0.3341 -0.3998 -0.3199
  701MOL0     C94534   2.627   6.207   5.759 -0.0868  0.2408  0.0847
  701MOL0     C94535   2.505   6.183   5.819 -0.7176 -0.9100  0.4269
  701MOL0     O94536   2.398   6.258   5.774 -0.5515 -0.3441  0.3046
  701MOL0     C94537   2.295   6.269   5.853  0.3202 -0.3463  0.2455
  701MOL0     C94538   2.205   6.379   5.798  0.0853 -0.5522 -0.7885
  701MOL0     C94539   2.284   6.513   5.792  0.8122  0.8198 -0.0877
  701MOL0     C94540   2.203   6.642   5.771 -0.6220  0.3526 -0.4196
  701MOL0     C94541   2.166   6.668   5.624  0.1539  0.3726 -0.6276
  701MOL0     C94542   2.071   6.785   5.630 -0.5684 -0.7531  0.5702
  701MOL0     C94543   2.044   6.839   5.487 -0.4954 -0.0140  0.7637
  701MOL0     C94544   2.145   6.951   5.455  0.3595  0.7785  1.8924
  701MOL0    Cl94545   2.138   6.999   5.284 -0.8868  0.2212  0.7720
  701MOL0     C94546   2.494   6.066   5.898 -0.5368  0.1837  0.2272
  701MOL0     C94547   2.608   5.986   5.928  0.1017  0.1621  1.1137
  701MOL0     O94548   2.812   5.949   6.135  0.5931  0.1668  0.4641
  701MOL0     C94549   3.042   5.821   6.188  0.2562  0.3968  0.1076
  701MOL0     C94550   3.157   5.752   6.218  0.5499 -0.1235 -0.2957
  701MOL0     N94551   3.891   5.401   6.081  0.2158 -0.3293 -1.0213
  701MOL0     N94552   3.925   5.293   6.146  0.7091  0.0416  0.1414
  701MOL0     C94553   4.045   4.526   6.703  0.4135  0.0358 -0.0479
  701MOL0     C94554   4.001   4.393   6.713  0.5479 -0.1654  0.2661
  701MOL0     C94555   3.706   4.034   6.788  0.5615  0.3140  0.3972
  701MOL0     C94556   3.813   3.955   6.835 -0.2991 -0.1103 -0.2632
  701MOL0     C94557   3.806   3.819   6.847 -0.0990  0.5854 -0.1272
  701MOL0     C94558   3.693   3.756   6.818 -0.0409 -0.9174 -0.7963
  701MOL0     O94559   3.691   3.621   6.845  0.5687 -0.9273  0.6851
  701MOL0     C94560   3.569   3.556   6.837 -0.5820  1.1660  0.0489
  701MOL0     C94561   3.587   3.400   6.825  0.4374  0.8538 -0.1485
  701MOL0     C94562   3.608   3.338   6.969 -0.0783 -0.9590  0.1141
  701MOL0     C94563   3.721   3.395   7.048 -0.2516 -0.0980 -0.0223
  701MOL0     C94564   3.746   3.313   7.171  0.1987  0.1376 -0.2186
  701MOL0     C94565   3.764   3.270   7.282  0.2048  0.7372 -0.5601
  701MOL0     C94566   3.579   3.828   6.778 -0.6662 -0.4271  0.2781
  701MOL0     C94567   3.582   3.974   6.773 -0.5848  0.7926  0.2062
  701MOL0     H94568   3.713   4.417   6.876  2.4121 -1.3726  0.7728
  701MOL0     H94569   3.786   4.672   6.866 -0.3076  1.1943  0.7200
  701MOL0     H94570   4.026   4.745   6.943  2.2935  0.0348 -0.2946
  701MOL0     H94571   4.133   4.866   6.878  0.6009 -0.4346 -0.2888
  701MOL0     H94572   3.842   4.912   6.892  0.4956 -0.0300 -2.9452
  701MOL0     H94573   3.970   4.977   6.997 -1.6258  2.4430  0.0537
  701MOL0     H94574   4.036   5.121   6.874 -1.3434  1.1412  1.3862
  701MOL0     H94575   4.022   5.048   6.705 -1.5849 -0.3118  0.4684
  701MOL0     H94576   3.793   5.081   6.682  0.4717 -0.9383  0.0307
  701MOL0     H94577   3.772   5.131   6.845  0.7246 -2.0498 -0.5922
  701MOL0     H94578   3.758   5.313   6.694 -0.1498 -0.8921 -1.0535
  701MOL0     H94579   3.876   5.339   6.822 -0.7608 -1.4266  0.1007
  701MOL0     H94580   3.963   5.431   6.597 -1.6881  0.2955  2.3183
  701MOL0     H94581   4.066   5.318   6.669  1.1297  0.4739 -0.7228
  701MOL0     H94582   3.969   5.123   6.510  0.0441  0.3924 -1.0026
  701MOL0     H94583   3.841   5.234   6.462  0.6468 -0.4705 -1.4947
  701MOL0     H94584   4.069   5.161   6.345  0.1484  0.1517  0.8736
  701MOL0     H94585   4.126   5.313   6.412 -0.6656  1.1224  1.1677
  701MOL0     H94586   3.961   5.540   6.369 -1.4346 -0.9431  2.0776
  701MOL0     H94587   3.834   5.715   6.215  0.4331  1.2168 -1.3322
  701MOL0     H94588   3.916   5.694   6.060 -0.9454  0.0390 -1.4094
  701MOL0     H94589   3.713   5.552   5.975 -1.2702 -0.5432  1.4788
  701MOL0     H94590   3.696   5.717   5.962  0.3866 -1.7941 -1.9797
  701MOL0     H94591   3.594   5.709   6.203  0.8460  0.2443 -1.4909
  701MOL0     H94592   3.586   5.530   6.187 -1.5598 -1.1976 -0.3379
  701MOL0     H94593   3.443   5.534   6.002 -2.0023 -0.3778  1.1939
  701MOL0     H94594   3.467   5.713   5.979 -1.0570  1.3731  0.2426
  701MOL0     H94595   3.260   5.683   5.910  0.4196  3.3103 -0.9719
  701MOL0     H94596   3.066   5.875   5.766  0.9125 -0.0388 -1.2427
  701MOL0     H94597   3.090   5.702   5.752 -0.7980  0.7712 -0.9611
  701MOL0     H94598   2.930   5.776   5.800 -0.3394  0.8915 -3.1508
  701MOL0     H94599   2.834   6.176   5.742 -0.1703  0.0334 -0.8963
  701MOL0     H94600   2.618   6.298   5.701 -3.2782 -0.3015 -0.4695
  701MOL0     H94601   2.228   6.185   5.835 -1.3850  1.3838 -2.1239
  701MOL0     H94602   2.313   6.281   5.960 -0.3679  0.3243  0.2934
  701MOL0     H94603   2.177   6.357   5.695 -2.2602 -1.3675 -0.0444
  701MOL0     H94604   2.116   6.383   5.861 -1.7499  1.7016 -3.2941
  701MOL0     H94605   2.348   6.512   5.704  3.3754  1.2207  1.6682
  701MOL0     H94606   2.345   6.532   5.880  0.1196  2.4203  0.0923
  701MOL0     H94607   2.117   6.647   5.838  0.8308  2.1871  1.4605
  701MOL0     H94608   2.265   6.727   5.804 -2.5855  1.9390 -0.6497
  701MOL0     H94609   2.114   6.581   5.584 -0.3907 -1.0210  2.8027
  701MOL0     H94610   2.258   6.691   5.568  0.3883 -1.2668 -0.9534
  701MOL0     H94611   1.980   6.745   5.675 -0.2350 -3.0528 -0.6810
  701MOL0     H94612   2.099   6.866   5.699 -1.7779 -2.1056  2.7828
  701MOL0     H94613   1.938   6.860   5.470 -0.4108 -0.0793  0.1253
  701MOL0     H94614   2.073   6.751   5.428 -0.0184  0.9871 -0.5335
  701MOL0     H94615   2.249   6.925   5.472  0.3759  0.0903  0.8637
  701MOL0     H94616   2.119   7.039   5.515  0.5804  2.4654 -0.3368
  701MOL0     H94617   2.407   6.038   5.957 -2.5545  2.3525 -1.5062
  701MOL0     H94618   2.590   5.895   5.985 -0.7502 -0.5666 -0.2568
  701MOL0     H94619   2.980   5.864   6.266 -3.1341 -1.7246 -1.2269
  701MOL0     H94620   3.189   5.761   6.321 -1.5671 -1.9604  0.5977
  701MOL0     H94621   4.141   4.559   6.664 -0.1365  0.9681 -0.6411
  701MOL0     H94622   4.070   4.322   6.669 -1.0993 -2.1047  0.6548
  701MOL0     H94623   3.912   3.997   6.854  0.5340  0.4249 -4.5783
  701MOL0     H94624   3.891   3.764   6.886  2.3403  3.2881 -1.1750
  701MOL0     H94625   3.519   3.581   6.931  3.8818  2.1733  2.4374
  701MOL0     H94626   3.516   3.580   6.744 -2.1725 -0.6647  0.4394
  701MOL0     H94627   3.677   3.360   6.777  1.1874 -0.9404  2.5547
  701MOL0     H94628   3.503   3.353   6.773 -1.2608  0.2143  2.9213
  701MOL0     H94629   3.632   3.231   6.959  1.0809 -0.6473 -0.6257
  701MOL0     H94630   3.524   3.367   7.033 -0.5797 -0.0932 -0.9201
  701MOL0     H94631   3.698   3.497   7.081  1.8838  0.0737  1.1221
  701MOL0     H94632   3.804   3.402   6.977  0.8195  2.5042  1.3366
  701MOL0     H94633   3.799   3.247   7.381  0.0268 -0.9789 -0.8576
  701MOL0     H94634   3.485   3.780   6.757 -0.0993  0.1660 -5.0185
  701MOL0     H94635   3.498   4.036   6.744  0.5606  2.5035  0.3975
  702MOL0     O94636   5.832  10.030   9.957 -0.3166 -0.8832  0.1776
  702MOL0     C94637   5.937  10.062  10.012  0.9778 -0.8884  0.3357
  702MOL0     O94638   5.965  10.184  10.068 -0.2990  0.4461 -0.4748
  702MOL0     C94639   5.899  10.296  10.033 -0.5380  0.7076  0.2257
  702MOL0     C94640   5.825  10.374  10.121 -0.5250 -0.1422 -0.4821
  702MOL0     C94641   5.751  10.488  10.069 -0.0030  0.6141  0.7379
  702MOL0     C94642   5.763  10.537   9.933  0.2802  0.3702 -0.8354
  702MOL0     O94643   5.718  10.657   9.873 -0.3011  0.3000 -0.0553
  702MOL0     C94644   5.639  10.740   9.954  0.4182 -0.1981  0.5225
  702MOL0     C94645   5.556  10.831   9.851 -1.0395 -1.2900  0.1082
  702MOL0     C94646   5.628  10.958   9.807  0.3077  0.4479  0.6827
  702MOL0     C94647   5.697  10.942   9.676 -0.0165 -0.1215  0.3654
  702MOL0     C94648   5.850  10.922   9.684  0.0320 -0.8427  0.4682
  702MOL0     C94649   5.911  10.874   9.551 -1.1587 -0.8699  0.3231
  702MOL0     C94650   5.900  10.723   9.535 -0.8438  0.6995  0.7324
  702MOL0     C94651   5.906  10.699   9.387  0.0989 -0.1768  0.3409
  702MOL0     N94652   5.933  10.556   9.351  0.3517  0.5590  0.5348
  702MOL0     C94653   6.053  10.498   9.371 -0.5351 -0.0909 -0.3716
  702MOL0     C94654   6.026  10.366   9.343  0.1208  0.1783 -0.1301
  702MOL0     C94655   6.121  10.260   9.346  0.4905  0.5991  0.3508
  702MOL0     C94656   6.109  10.189   9.482  0.2028  0.0399  0.0710
  702MOL0     C94657   5.986  10.087   9.485  0.1685 -0.8108  0.3758
  702MOL0     C94658   6.028   9.943   9.451  1.3554  0.2369 -0.5794
  702MOL0     O94659   5.921   9.853   9.481  0.1544 -0.6774  0.2362
  702MOL0     C94660   5.938   9.728   9.433  0.7366  0.1628  0.4798
  702MOL0     C94661   5.838   9.659   9.369  0.3651  0.0622  0.1422
  702MOL0     C94662   5.852   9.536   9.313  0.1381  0.8576 -0.1959
  702MOL0     C94663   5.735   9.485   9.237  0.6755  0.5946 -0.5202
  702MOL0     C94664   5.965   9.452   9.345 -0.4229 -0.1951  0.5647
  702MOL0     C94665   5.997   9.308   9.312  0.0687  0.1231  1.0819
  702MOL0     O94666   6.108   9.261   9.358  0.6979 -0.4389 -0.1912
  702MOL0     C94667   6.128   9.126   9.367  0.6792  0.4230 -0.3728
  702MOL0     C94668   6.234   9.049   9.316  0.4475  0.0279 -0.2481
  702MOL0     C94669   6.235   8.910   9.340  0.4958  0.0242  0.1598
  702MOL0     C94670   6.144   8.846   9.410  1.2072  0.0232 -0.3409
  702MOL0     O94671   6.187   8.722   9.460  0.0555 -0.8992 -0.2943
  702MOL0     C94672   6.157   8.699   9.602 -0.0121  0.8103 -0.1114
  702MOL0     C94673   6.175   8.549   9.647  0.0653 -0.5156 -0.0875
  702MOL0     C94674   6.316   8.494   9.641  0.2636 -0.2063 -0.0754
  702MOL0     C94675   6.324   8.346   9.684  0.0057 -0.3481 -0.2302
  702MOL0     C94676   6.469   8.267   9.697  0.7071  0.3413  0.1230
  702MOL0     C94677   6.445   8.131   9.756  0.7934 -0.1621 -1.1312
  702MOL0     C94678   6.431   8.124   9.913  0.5524 -0.1836 -0.5151
  702MOL0     C94679   6.481   7.996   9.977 -0.5638 -0.5706  0.6526
  702MOL0    Cl94680   6.359   7.876   9.994 -0.0908  0.3584 -0.2127
  702MOL0     C94681   6.029   8.914   9.453  0.6244 -0.6558  0.4460
  702MOL0     C94682   6.020   9.054   9.431  0.0446 -0.5309  0.2991
  702MOL0     O94683   5.917   9.237   9.242  0.1228  0.8048 -0.4578
  702MOL0     C94684   6.068   9.523   9.417 -0.4871  0.0764  0.1090
  702MOL0     C94685   6.056   9.658   9.459  1.5832 -0.7181  0.3100
  702MOL0     N94686   5.886  10.344   9.310 -0.1488  0.3526 -0.6608
  702MOL0     N94687   5.832  10.460   9.328 -0.2052 -0.5588  0.2642
  702MOL0     C94688   5.846  10.458   9.851  0.6168  0.4365  0.2363
  702MOL0     C94689   5.913  10.342   9.897  0.4611  0.5773 -0.5626
  702MOL0     C94690   6.032   9.957  10.024  0.4444 -0.8174  0.4487
  702MOL0     C94691   6.147   9.987  10.097  0.0895 -0.5536  0.3180
  702MOL0     C94692   6.220   9.876  10.141  0.0170 -0.0043 -0.3763
  702MOL0     C94693   6.196   9.744  10.097  0.0155  0.4817  0.2393
  702MOL0     O94694   6.280   9.648  10.147 -0.0265  0.0308 -0.5602
  702MOL0     C94695   6.273   9.519  10.092  0.7356  0.2364 -0.2836
  702MOL0     C94696   6.380   9.434  10.153  0.4407 -0.0523 -0.2074
  702MOL0     C94697   6.398   9.296  10.100 -0.8858  1.0054  0.8442
  702MOL0     C94698   6.526   9.228  10.158  0.5282 -0.5568  0.1620
  702MOL0     C94699   6.537   9.227  10.300  0.1608  0.4082 -0.5986
  702MOL0     C94700   6.558   9.224  10.414 -0.2720  0.1130  0.3009
  702MOL0     C94701   6.086   9.724  10.004 -1.2668  0.0223 -1.2597
  702MOL0     C94702   6.005   9.827   9.981 -0.0367 -0.6957 -0.3456
  702MOL0     H94703   5.838  10.344  10.224  2.6317 -0.3423 -0.8413
  702MOL0     H94704   5.694  10.545  10.141 -1.4441 -1.9225  1.7245
  702MOL0     H94705   5.579  10.676  10.019  3.4881 -4.6684 -0.5260
  702MOL0     H94706   5.705  10.805  10.011 -2.4328  4.0058 -0.5233
  702MOL0     H94707   5.524  10.768   9.768  0.2462 -0.1364 -1.3300
  702MOL0     H94708   5.466  10.867   9.900  1.1756 -0.0870  3.7267
  702MOL0     H94709   5.557  11.038   9.784 -0.9600 -1.0510 -0.9027
  702MOL0     H94710   5.700  10.999   9.878  0.4848  0.2932  0.5905
  702MOL0     H94711   5.657  10.862   9.614  2.6543 -0.2473 -1.3468
  702MOL0     H94712   5.677  11.038   9.627 -1.5526 -1.6236 -2.1863
  702MOL0     H94713   5.908  11.005   9.724  0.4763 -0.2767 -1.2497
  702MOL0     H94714   5.848  10.847   9.763 -0.5669  2.8903  4.3235
  702MOL0     H94715   5.855  10.926   9.473 -2.4917 -0.5713  1.4452
  702MOL0     H94716   6.014  10.911   9.542 -1.2284 -0.2725  1.7279
  702MOL0     H94717   5.977  10.669   9.591  0.4414  0.8521 -0.7864
  702MOL0     H94718   5.807  10.681   9.574 -1.0910  0.2704 -0.2697
  702MOL0     H94719   5.974  10.773   9.344 -0.0960  1.2015  2.2758
  702MOL0     H94720   5.807  10.729   9.352  0.3198  3.6680  2.5019
  702MOL0     H94721   6.138  10.557   9.404 -0.7295  0.1472 -0.2954
  702MOL0     H94722   6.108  10.194   9.259 -3.2066 -1.9410  2.5440
  702MOL0     H94723   6.225  10.292   9.338  1.2008 -1.9255 -2.4074
  702MOL0     H94724   6.106  10.256   9.569 -2.0801  1.4956 -1.0275
  702MOL0     H94725   6.196  10.125   9.494  1.7521  2.3637  2.2366
  702MOL0     H94726   5.906  10.114   9.416  1.2181  0.1686 -0.4985
  702MOL0     H94727   5.950  10.089   9.588 -3.0455  1.8754 -0.6031
  702MOL0     H94728   6.113   9.912   9.513  1.4595 -2.3144 -1.8648
  702MOL0     H94729   6.079   9.929   9.355  2.3373 -2.7452  0.2672
  702MOL0     H94730   5.742   9.706   9.349 -0.0645 -2.0860 -3.8959
  702MOL0     H94731   5.660   9.560   9.210 -0.6304 -0.4139  0.1579
  702MOL0     H94732   5.775   9.452   9.140  2.5896  0.2334  0.3375
  702MOL0     H94733   5.690   9.410   9.304  1.0165  0.2061 -0.7221
  702MOL0     H94734   6.299   9.104   9.249 -2.5559  2.0517 -1.7736
  702MOL0     H94735   6.320   8.854   9.301  1.2931 -0.5803  2.6273
  702MOL0     H94736   6.219   8.765   9.663  1.3395 -0.0510 -0.4944
  702MOL0     H94737   6.050   8.709   9.620 -0.3289 -2.1747  0.1505
  702MOL0     H94738   6.147   8.548   9.753  1.5981  2.2052  0.4412
  702MOL0     H94739   6.103   8.490   9.590 -0.6499  0.4554 -0.2114
  702MOL0     H94740   6.384   8.556   9.701 -2.3942  0.4599  2.4598
  702MOL0     H94741   6.351   8.508   9.538  2.1446  0.1767  0.5762
  702MOL0     H94742   6.284   8.354   9.785  1.9902  2.4378  0.4510
  702MOL0     H94743   6.254   8.283   9.628 -2.0493  1.1114  0.6046
  702MOL0     H94744   6.539   8.322   9.761  3.3185 -2.2714 -0.2982
  702MOL0     H94745   6.518   8.258   9.600  1.8438 -3.7553  0.8739
  702MOL0     H94746   6.345   8.094   9.732 -0.5545  2.1028  0.6049
  702MOL0     H94747   6.509   8.055   9.708 -0.4069 -1.1400 -1.2273
  702MOL0     H94748   6.329   8.148   9.945  0.9107 -0.2503  0.7485
  702MOL0     H94749   6.484   8.207   9.962  1.6421 -1.3817  0.4116
  702MOL0     H94750   6.527   8.024  10.072  0.6898  1.1995 -0.4378
  702MOL0     H94751   6.567   7.960   9.921 -1.4262  1.3417 -2.0786
  702MOL0     H94752   5.953   8.864   9.512 -0.0471 -0.8423 -0.5494
  702MOL0     H94753   5.927   9.102   9.458  0.3226 -0.3373  0.9317
  702MOL0     H94754   6.171   9.491   9.429 -0.4377 -1.7863 -3.6588
  702MOL0     H94755   6.135   9.707   9.516  0.5447  1.6378 -0.1808
  702MOL0     H94756   5.854  10.471   9.744  1.4264 -1.6825 -0.0236
  702MOL0     H94757   5.969  10.282   9.825 -0.8601 -0.1068 -1.0487
  702MOL0     H94758   6.168  10.088  10.132  1.9730 -0.1730 -1.7140
  702MOL0     H94759   6.298   9.900  10.213  0.9567  1.5905 -1.8373
  702MOL0     H94760   6.180   9.479  10.132 -0.8256  3.7492  0.0136
  702MOL0     H94761   6.266   9.515   9.983  0.0539 -0.1012 -0.2321
  702MOL0     H94762   6.366   9.432  10.262 -0.5506  1.4770 -0.2718
  702MOL0     H94763   6.475   9.487  10.143  2.3139 -2.8060  1.5990
  702MOL0     H94764   6.392   9.293   9.991  0.8818 -2.0134  0.6924
  702MOL0     H94765   6.310   9.247  10.143  1.2143 -3.7928  0.4011
  702MOL0     H94766   6.607   9.285  10.112 -0.0863  1.5307  1.5386
  702MOL0     H94767   6.541   9.123  10.131 -0.9794 -1.6799  3.2043
  702MOL0     H94768   6.555   9.233  10.520  0.5635  0.1081  0.3314
  702MOL0     H94769   6.057   9.624   9.976 -1.2255 -0.3892  0.1296
  702MOL0     H94770   5.930   9.817   9.903  1.4436  0.0781 -1.9349
  703MOL0     O94771   7.242  11.060   2.746 -0.4388  0.2316  0.2478
  703MOL0     C94772   7.331  11.104   2.679 -0.4533 -0.4474  0.5008
  703MOL0     O94773   7.323  11.219   2.605 -0.4082  0.1162  0.2741
  703MOL0     C94774   7.207  11.272   2.573  0.0398 -0.8209 -0.3092
  703MOL0     C94775   7.099  11.223   2.504 -0.3359  0.0934 -0.0509
  703MOL0     C94776   6.985  11.301   2.478 -0.4133 -0.7244 -0.0625
  703MOL0     C94777   6.988  11.442   2.525  0.1284 -0.0871 -0.2553
  703MOL0     O94778   6.874  11.519   2.510  0.4979  0.5027 -1.3143
  703MOL0     C94779   6.809  11.548   2.640 -0.7782  0.1716 -0.0093
  703MOL0     C94780   6.670  11.610   2.626  0.3682 -0.0381  0.5650
  703MOL0     C94781   6.598  11.629   2.753  0.0356  0.1331 -1.0195
  703MOL0     C94782   6.447  11.619   2.728  1.9756 -0.1444 -0.1963
  703MOL0     C94783   6.359  11.655   2.850 -0.3519 -0.7813  0.4468
  703MOL0     C94784   6.207  11.651   2.822 -0.2838  0.2107  0.7306
  703MOL0     C94785   6.148  11.522   2.758 -0.2006 -0.7342  0.0542
  703MOL0     C94786   5.990  11.525   2.743 -0.2283  0.8647  0.1234
  703MOL0     N94787   5.924  11.409   2.675  0.2304 -0.4528  0.0143
  703MOL0     C94788   5.843  11.316   2.744  0.0446  0.0428 -0.0804
  703MOL0     C94789   5.816  11.225   2.654  0.0133  0.2755  0.0264
  703MOL0     C94790   5.709  11.115   2.659  0.1897 -0.4615 -1.0644
  703MOL0     C94791   5.756  10.993   2.743  0.9431  1.0236 -0.3332
  703MOL0     C94792   5.636  10.890   2.737 -0.0212  0.1376  0.3164
  703MOL0     C94793   5.659  10.779   2.847  0.0009 -0.3820 -0.1779
  703MOL0     O94794   5.689  10.654   2.777  0.0453 -0.2607  0.0930
  703MOL0     C94795   5.796  10.595   2.835 -0.7164  0.2227  0.5063
  703MOL0     C94796   5.918  10.600   2.784  0.1493 -0.3179 -0.9073
  703MOL0     C94797   6.033  10.525   2.833  0.9578 -0.2293  0.5548
  703MOL0     C94798   6.162  10.534   2.755 -0.4788  0.3892 -0.2263
  703MOL0     C94799   6.015  10.432   2.935  0.1440 -0.4497  0.0854
  703MOL0     C94800   6.108  10.339   2.988 -0.8509 -0.6980 -0.4392
  703MOL0     O94801   6.093  10.335   3.123 -0.3255 -0.1409  0.4303
  703MOL0     C94802   6.175  10.246   3.184  0.1687  0.4180 -0.1660
  703MOL0     C94803   6.299  10.284   3.220  0.0036  0.5719  0.3606
  703MOL0     C94804   6.373  10.202   3.298  0.4553  0.7582 -0.0267
  703MOL0     C94805   6.340  10.071   3.343 -0.0806  1.0435  0.2576
  703MOL0     O94806   6.434   9.994   3.405  0.1086  1.3436 -0.0689
  703MOL0     C94807   6.370   9.893   3.498  0.8388  0.5036 -0.5145
  703MOL0     C94808   6.483   9.862   3.598  0.2282 -0.7713 -0.3486
  703MOL0     C94809   6.466   9.712   3.658 -0.2438  0.0779  0.1444
  703MOL0     C94810   6.329   9.691   3.725  0.5653  1.2180 -0.9650
  703MOL0     C94811   6.325   9.545   3.787 -0.5943 -0.7855 -0.3463
  703MOL0     C94812   6.310   9.437   3.685 -0.6067 -0.5127 -0.7109
  703MOL0     C94813   6.285   9.295   3.753 -0.3547  0.2551 -0.1596
  703MOL0     C94814   6.425   9.240   3.801  0.4662 -0.5846 -0.4202
  703MOL0    Cl94815   6.407   9.149   3.961 -0.2113 -0.4346  0.0744
  703MOL0     C94816   6.216  10.024   3.298 -0.1531 -0.4873 -0.0976
  703MOL0     C94817   6.134  10.109   3.215 -0.5856 -0.4479  1.3408
  703MOL0     O94818   6.183  10.279   2.912 -0.3749 -0.6262  0.5236
  703MOL0     C94819   5.887  10.440   2.997  0.0973  0.7205 -0.6444
  703MOL0     C94820   5.780  10.516   2.946 -0.0128 -0.6160 -1.1791
  703MOL0     N94821   5.882  11.258   2.539 -0.1358 -0.5296  0.1637
  703MOL0     N94822   5.951  11.358   2.556  0.7025  0.4000  0.8276
  703MOL0     C94823   7.096  11.490   2.593  0.1365  0.7037  0.4955
  703MOL0     C94824   7.199  11.406   2.624  0.3333  0.5365  1.8436
  703MOL0     C94825   7.460  11.027   2.691 -0.4614  0.3631  0.5867
  703MOL0     C94826   7.474  10.887   2.735 -0.8177  1.0078  0.9799
  703MOL0     C94827   7.595  10.820   2.738  0.1908  0.2302  0.2389
  703MOL0     C94828   7.711  10.897   2.715 -0.1734  0.3013  0.5030
  703MOL0     O94829   7.837  10.854   2.699 -0.8053  0.5177  0.1814
  703MOL0     C94830   7.889  10.735   2.767  0.1157 -0.3288  0.2569
  703MOL0     C94831   8.010  10.788   2.834 -0.4212  0.1706 -0.2299
  703MOL0     C94832   8.045  10.687   2.948 -0.2789 -0.0646  0.4937
  703MOL0     C94833   8.179  10.711   3.004  0.5516  0.0812 -0.0032
  703MOL0     C94834   8.216  10.596   3.081 -0.5919 -0.3806  0.9160
  703MOL0     C94835   8.244  10.507   3.148 -0.1993  0.5332 -0.3720
  703MOL0     C94836   7.701  11.030   2.666 -0.1417  0.1861 -0.4307
  703MOL0     C94837   7.580  11.093   2.652  0.6715  0.9721 -0.6494
  703MOL0     H94838   7.110  11.118   2.477  0.8110  0.6433 -1.8605
  703MOL0     H94839   6.901  11.260   2.422 -0.9749 -3.0641  2.3332
  703MOL0     H94840   6.820  11.455   2.697  1.2197 -2.4592 -4.1986
  703MOL0     H94841   6.870  11.624   2.689 -1.4642  0.0090  1.1480
  703MOL0     H94842   6.681  11.706   2.576 -0.4719 -0.7204 -0.9984
  703MOL0     H94843   6.605  11.555   2.557  0.8143  0.0524  0.0688
  703MOL0     H94844   6.643  11.560   2.825  2.1053  1.8095 -0.6302
  703MOL0     H94845   6.627  11.728   2.787  0.2543 -1.1088  2.8710
  703MOL0     H94846   6.423  11.691   2.650  0.9148  0.8400  0.9870
  703MOL0     H94847   6.413  11.517   2.707 -2.6413  0.4618  2.8515
  703MOL0     H94848   6.383  11.600   2.942 -2.8624  0.9705  2.2723
  703MOL0     H94849   6.382  11.758   2.879 -1.4678 -0.3021 -0.3148
  703MOL0     H94850   6.160  11.673   2.918 -2.4301 -0.3757 -0.1360
  703MOL0     H94851   6.183  11.736   2.758 -0.8625 -2.0614 -2.3342
  703MOL0     H94852   6.193  11.509   2.659  1.1603  1.4294  0.3077
  703MOL0     H94853   6.171  11.430   2.812 -0.3562 -0.9792 -0.2933
  703MOL0     H94854   5.961  11.612   2.682 -1.1279  1.5533  1.4922
  703MOL0     H94855   5.958  11.533   2.847 -0.5143  0.9608  0.0283
  703MOL0     H94856   5.799  11.328   2.842 -1.8332  0.2101 -0.9087
  703MOL0     H94857   5.609  11.140   2.696  0.1420 -3.3540  1.1330
  703MOL0     H94858   5.705  11.086   2.554  0.6612 -1.3040 -0.8562
  703MOL0     H94859   5.778  11.012   2.848  2.2273 -0.4110 -0.3092
  703MOL0     H94860   5.852  10.958   2.703  1.6207  0.8737  1.3787
  703MOL0     H94861   5.635  10.847   2.637  3.3171 -1.1982  0.7007
  703MOL0     H94862   5.538  10.936   2.752 -1.3133 -1.5877 -2.1959
  703MOL0     H94863   5.572  10.751   2.907  1.4893 -3.4293  0.7923
  703MOL0     H94864   5.742  10.819   2.907 -0.5436  0.8817 -0.2497
  703MOL0     H94865   5.928  10.670   2.702  3.0891  3.0255  1.9501
  703MOL0     H94866   6.161  10.611   2.678 -3.0222 -2.5085 -3.3930
  703MOL0     H94867   6.243  10.553   2.827 -0.2242 -1.6426  0.0729
  703MOL0     H94868   6.190  10.438   2.711  0.8613 -0.0485  1.4344
  703MOL0     H94869   6.342  10.381   3.196 -0.4940  0.8267  0.4983
  703MOL0     H94870   6.477  10.232   3.304  0.9671 -1.1501  3.0800
  703MOL0     H94871   6.279   9.923   3.551 -1.1314 -3.1951 -1.4056
  703MOL0     H94872   6.344   9.806   3.437 -1.9182  0.8730 -0.0187
  703MOL0     H94873   6.577   9.862   3.543  0.1581 -3.1151 -0.5840
  703MOL0     H94874   6.487   9.936   3.679 -0.3739 -0.1393 -0.8914
  703MOL0     H94875   6.552   9.689   3.722  1.8512  1.3112 -2.0815
  703MOL0     H94876   6.484   9.644   3.574  1.0686  0.4429  0.1095
  703MOL0     H94877   6.322   9.743   3.821  0.3157 -0.9866  0.2756
  703MOL0     H94878   6.245   9.715   3.660  0.7574  1.8118 -0.9982
  703MOL0     H94879   6.241   9.543   3.858  0.4473 -0.8994  0.9223
  703MOL0     H94880   6.419   9.527   3.839 -1.5521 -2.2907  0.9703
  703MOL0     H94881   6.225   9.475   3.627  0.9494  0.6534 -2.3495
  703MOL0     H94882   6.408   9.440   3.636  0.4761 -2.4180  1.1766
  703MOL0     H94883   6.230   9.223   3.691  0.2550 -2.1403  1.9211
  703MOL0     H94884   6.215   9.320   3.833  2.0478  5.4569  0.6901
  703MOL0     H94885   6.501   9.318   3.813 -0.7337  0.6275 -0.4166
  703MOL0     H94886   6.459   9.172   3.723  0.3035  1.0674 -1.9972
  703MOL0     H94887   6.182   9.925   3.329  2.1887 -0.8613  1.4792
  703MOL0     H94888   6.038  10.072   3.180 -0.0355 -0.5133 -0.1735
  703MOL0     H94889   5.868  10.378   3.084  3.4246  0.6356  0.1971
  703MOL0     H94890   5.680  10.521   2.989  0.5619  0.6281  0.0889
  703MOL0     H94891   7.112  11.595   2.612 -0.0401  1.7331 -3.9655
  703MOL0     H94892   7.273  11.459   2.684  0.9270 -1.0758  2.6029
  703MOL0     H94893   7.394  10.821   2.767  0.2403  0.3661  2.4045
  703MOL0     H94894   7.603  10.713   2.757 -0.2161  0.2643  0.6017
  703MOL0     H94895   7.823  10.705   2.849  1.3585 -2.0869  0.6934
  703MOL0     H94896   7.905  10.658   2.691 -2.4264  0.2911 -0.9745
  703MOL0     H94897   8.004  10.887   2.881  0.5683  0.8679 -1.5075
  703MOL0     H94898   8.093  10.787   2.763  0.6922 -2.1613  0.9921
  703MOL0     H94899   8.028  10.589   2.902 -2.5187  0.8170 -0.7422
  703MOL0     H94900   7.985  10.706   3.037 -1.1374  1.7320 -0.4069
  703MOL0     H94901   8.183  10.797   3.071  0.9376 -0.3572  0.5452
  703MOL0     H94902   8.253  10.722   2.924 -1.4266 -3.4647 -2.6321
  703MOL0     H94903   8.262  10.416   3.202 -0.9984 -0.3001 -1.4419
  703MOL0     H94904   7.788  11.094   2.661 -0.9036  1.5924  2.3314
  703MOL0     H94905   7.579  11.195   2.614 -1.2484  0.3937 -2.3178
  704MOL0     O94906   4.478   0.112   4.289 -0.9067 -0.0003  0.2883
  704MOL0     C94907   4.408   0.009   4.266 -0.8592 -1.2574 -0.0388
  704MOL0     O94908   4.429  -0.107   4.322 -1.1962 -0.0225 -0.6148
  704MOL0     C94909   4.468  -0.111   4.449  0.7485 -0.3029 -0.2750
  704MOL0     C94910   4.377  -0.164   4.546 -0.8395  0.1332 -0.4408
  704MOL0     C94911   4.419  -0.183   4.685 -0.6145  0.7120 -0.1707
  704MOL0     C94912   4.550  -0.159   4.723 -0.3627  0.5516 -0.5873
  704MOL0     O94913   4.598  -0.184   4.849 -0.1376 -0.1277  0.2747
  704MOL0     C94914   4.519  -0.249   4.947  0.7685  0.1678 -0.8451
  704MOL0     C94915   4.604  -0.256   5.074  0.2181  0.1546 -0.4041
  704MOL0     C94916   4.705  -0.369   5.069 -0.2250 -0.1373  0.0001
  704MOL0     C94917   4.785  -0.387   5.205  0.2204  0.3616  0.9275
  704MOL0     C94918   4.902  -0.482   5.196  0.9451 -0.1775 -0.0202
  704MOL0     C94919   4.921  -0.540   5.334  0.5132  0.8321  0.2694
  704MOL0     C94920   4.965  -0.434   5.438  0.2808  0.9230  0.5308
  704MOL0     C94921   5.030  -0.510   5.557 -0.0641 -0.6090 -0.2192
  704MOL0     N94922   5.047  -0.446   5.683  0.1437 -0.0252 -0.1941
  704MOL0     C94923   5.090  -0.509   5.803  0.3804  0.1360 -0.0406
  704MOL0     C94924   5.086  -0.404   5.890 -0.6130  1.2095 -0.3138
  704MOL0     C94925   5.112  -0.405   6.041  0.3581  0.0293  0.2326
  704MOL0     C94926   5.090  -0.544   6.098  0.3397  0.2502 -0.2821
  704MOL0     C94927   5.064  -0.549   6.251  0.0011  0.0131  0.2071
  704MOL0     C94928   5.163  -0.462   6.326  0.1076 -0.4191 -0.4939
  704MOL0     O94929   5.294  -0.503   6.293 -0.2073  0.0772  0.0303
  704MOL0     C94930   5.343  -0.585   6.391 -0.0187  0.6304  0.1005
  704MOL0     C94931   5.379  -0.552   6.521  0.2342  0.8132 -0.3942
  704MOL0     C94932   5.413  -0.646   6.616  0.1659 -0.3011  0.7940
  704MOL0     C94933   5.404  -0.590   6.758  0.3182 -0.7953 -0.6575
  704MOL0     C94934   5.441  -0.779   6.577 -0.8097 -0.0421  0.1126
  704MOL0     C94935   5.483  -0.881   6.679 -1.1443  0.6067 -0.0875
  704MOL0     O94936   5.564  -0.826   6.782  0.4382 -0.1043 -0.0404
  704MOL0     C94937   5.611  -0.911   6.879  0.1962 -0.1204 -0.5549
  704MOL0     C94938   5.527  -1.009   6.949  0.3286 -0.3549 -0.0804
  704MOL0     C94939   5.571  -1.081   7.054  0.4257  0.5437 -1.4934
  704MOL0     C94940   5.702  -1.056   7.106 -0.3312  0.3582  0.1833
  704MOL0     O94941   5.750  -1.103   7.224  0.0976  0.7830  0.3637
  704MOL0     C94942   5.757  -1.247   7.233 -0.2297  0.0412  0.1878
  704MOL0     C94943   5.858  -1.284   7.340 -0.2610 -0.7215 -0.0734
  704MOL0     C94944   5.828  -1.217   7.474 -0.1660 -0.0558  0.7314
  704MOL0     C94945   5.963  -1.223   7.552  0.1646 -0.3321 -0.1593
  704MOL0     C94946   5.937  -1.188   7.696  0.0627 -0.9684 -1.2609
  704MOL0     C94947   6.074  -1.157   7.762  0.4123 -0.0809  0.1088
  704MOL0     C94948   6.050  -1.081   7.897 -0.3225 -0.1759 -0.2637
  704MOL0     C94949   6.109  -0.939   7.873  0.2803  0.0235 -0.3338
  704MOL0    Cl94950   6.049  -0.850   8.017 -0.1372  0.2119 -0.0905
  704MOL0     C94951   5.785  -0.959   7.049 -0.9543  0.5034  0.3902
  704MOL0     C94952   5.738  -0.877   6.937  0.1720  0.2412 -0.3565
  704MOL0     O94953   5.460  -0.998   6.653  0.0232  0.0674 -0.1707
  704MOL0     C94954   5.397  -0.824   6.451  0.4393  0.2928  0.0817
  704MOL0     C94955   5.341  -0.727   6.364 -0.4357 -0.0588 -0.1341
  704MOL0     N94956   5.037  -0.290   5.822 -0.8333 -0.5719 -0.1565
  704MOL0     N94957   5.017  -0.322   5.696 -0.9016  0.1107  0.7058
  704MOL0     C94958   4.641  -0.096   4.637  0.0513  0.2751 -0.2485
  704MOL0     C94959   4.598  -0.083   4.498 -0.7429 -0.2459 -0.7171
  704MOL0     C94960   4.300   0.022   4.174 -0.0393 -0.7658 -0.7026
  704MOL0     C94961   4.247  -0.101   4.134  0.5215  0.1639 -0.0348
  704MOL0     C94962   4.143  -0.107   4.044  0.1650 -0.1949  0.1883
  704MOL0     C94963   4.085   0.012   3.993 -0.0987  0.3972  0.3555
  704MOL0     O94964   3.982   0.012   3.898 -0.8691  0.3325 -0.1697
  704MOL0     C94965   3.927  -0.108   3.839 -0.8627 -0.1287 -0.4160
  704MOL0     C94966   3.823  -0.072   3.741 -0.7828  0.4139  0.2664
  704MOL0     C94967   3.880   0.024   3.631 -0.2992  0.1865 -0.5625
  704MOL0     C94968   3.919  -0.043   3.495  0.1313 -0.7066  0.1820
  704MOL0     C94969   4.033  -0.131   3.510 -0.2373  0.0918  0.9712
  704MOL0     C94970   4.125  -0.187   3.552  0.1296  0.4886 -0.0744
  704MOL0     C94971   4.138   0.136   4.030  0.1747 -0.1524 -0.8117
  704MOL0     C94972   4.243   0.142   4.122 -0.0920 -0.0517  0.2753
  704MOL0     H94973   4.274  -0.181   4.515 -0.4864 -4.6917  0.2413
  704MOL0     H94974   4.339  -0.209   4.755 -1.2338  2.2072 -0.2770
  704MOL0     H94975   4.430  -0.188   4.965  1.6141  1.3268 -0.3845
  704MOL0     H94976   4.478  -0.347   4.920 -3.7178  0.8612  2.3986
  704MOL0     H94977   4.638  -0.157   5.107  1.4894 -0.0848 -0.9291
  704MOL0     H94978   4.535  -0.302   5.145  1.2081 -5.0535 -2.4209
  704MOL0     H94979   4.657  -0.464   5.045 -1.7841  0.0750  2.0679
  704MOL0     H94980   4.768  -0.332   4.987  1.7509 -1.3219  0.8871
  704MOL0     H94981   4.813  -0.289   5.246 -2.6689  1.5370  0.3179
  704MOL0     H94982   4.709  -0.425   5.273  3.5712 -1.4313  4.0242
  704MOL0     H94983   4.888  -0.558   5.118  1.3350 -1.9874  1.6180
  704MOL0     H94984   4.991  -0.423   5.174  1.2486  1.4604  4.6208
  704MOL0     H94985   4.829  -0.594   5.361  1.1735 -0.7319 -0.4698
  704MOL0     H94986   5.002  -0.612   5.321 -1.8904 -1.6576 -2.6444
  704MOL0     H94987   5.035  -0.364   5.391 -1.3623  0.9175 -2.1084
  704MOL0     H94988   4.872  -0.386   5.470 -1.1775 -1.6550  0.4742
  704MOL0     H94989   5.126  -0.553   5.526 -0.7260 -3.8021  1.6232
  704MOL0     H94990   4.969  -0.600   5.575  0.0846 -1.1281 -2.0657
  704MOL0     H94991   5.114  -0.613   5.822 -1.1984 -0.3468 -0.5312
  704MOL0     H94992   5.215  -0.373   6.060  1.2135 -1.1253 -2.0926
  704MOL0     H94993   5.036  -0.341   6.087 -0.1247 -0.3237 -0.0734
  704MOL0     H94994   5.178  -0.601   6.069  0.0035 -0.4384  0.0271
  704MOL0     H94995   5.011  -0.602   6.049 -0.7574  1.0001  0.5467
  704MOL0     H94996   5.078  -0.654   6.277  2.4904 -0.2312 -1.7912
  704MOL0     H94997   4.966  -0.502   6.266 -0.1577 -0.4029  0.4730
  704MOL0     H94998   5.142  -0.462   6.434  0.2316  1.1929 -0.4415
  704MOL0     H94999   5.156  -0.359   6.291  1.9164  0.5894  1.8121
  704MOL0     H95000   5.377  -0.446   6.544  0.8290  0.9930 -1.1150
  704MOL0     H95001   5.373  -0.666   6.831 -0.5161  0.5213  0.4163
  704MOL0     H95002   5.500  -0.556   6.799 -0.2742 -2.7034  2.6829
  704MOL0     H95003   5.346  -0.498   6.762  1.6482  0.0807 -0.6356
  704MOL0     H95004   5.429  -1.034   6.910 -0.2471 -0.9215  1.6676
  704MOL0     H95005   5.497  -1.143   7.103  3.4695  1.2785  5.0959
  704MOL0     H95006   5.655  -1.280   7.255  0.0070 -1.5404 -0.9071
  704MOL0     H95007   5.790  -1.290   7.138 -0.4473  0.1120  0.0792
  704MOL0     H95008   5.862  -1.391   7.360  0.2341 -0.5716  0.6697
  704MOL0     H95009   5.960  -1.257   7.309 -0.4756  1.5934  0.9882
  704MOL0     H95010   5.752  -1.262   7.538  1.3454  1.3511  3.7777
  704MOL0     H95011   5.800  -1.112   7.461  0.9086 -0.0810 -2.9664
  704MOL0     H95012   6.001  -1.326   7.549 -0.9238 -0.7746  0.5207
  704MOL0     H95013   6.034  -1.159   7.498  1.0497  0.9791  2.4017
  704MOL0     H95014   5.884  -1.264   7.754  1.7443  0.5674  2.6834
  704MOL0     H95015   5.886  -1.092   7.682  0.6345 -0.2364  1.1305
  704MOL0     H95016   6.123  -1.250   7.792 -3.3186 -1.0887  4.0787
  704MOL0     H95017   6.133  -1.099   7.690  3.1384 -0.5260  1.8607
  704MOL0     H95018   6.090  -1.120   7.991 -1.1134  0.3454  0.3036
  704MOL0     H95019   5.941  -1.077   7.904 -0.3351  1.9908 -0.9848
  704MOL0     H95020   6.082  -0.901   7.774  2.7291  0.0384 -1.0634
  704MOL0     H95021   6.216  -0.928   7.892  0.6509  1.9122 -2.9645
  704MOL0     H95022   5.875  -0.926   7.098  0.5195  1.3479 -2.6156
  704MOL0     H95023   5.792  -0.786   6.913  1.2675  0.9390  3.8851
  704MOL0     H95024   5.394  -0.930   6.425 -5.1083  0.3146 -0.4687
  704MOL0     H95025   5.290  -0.759   6.273 -2.0175  2.5681 -0.2768
  704MOL0     H95026   4.738  -0.076   4.681  1.8946 -1.9748 -2.9842
  704MOL0     H95027   4.671  -0.032   4.435 -1.5000  1.1599 -0.5051
  704MOL0     H95028   4.288  -0.199   4.154  2.2489  0.4559 -1.7959
  704MOL0     H95029   4.108  -0.205   4.011  2.4570  0.1530 -4.0660
  704MOL0     H95030   4.013  -0.157   3.792  1.4886  1.2112  2.1778
  704MOL0     H95031   3.882  -0.176   3.912 -0.6541 -0.1767 -0.3317
  704MOL0     H95032   3.740  -0.013   3.781  0.2220  2.4401 -0.4928
  704MOL0     H95033   3.799  -0.165   3.690  2.6294 -0.9579  0.8721
  704MOL0     H95034   3.965   0.085   3.667 -1.4100 -0.3948  3.5452
  704MOL0     H95035   3.797   0.092   3.609  0.8394  1.5763 -0.7929
  704MOL0     H95036   3.947   0.037   3.426  0.6660 -1.5544 -0.5810
  704MOL0     H95037   3.833  -0.095   3.452  0.0047 -1.1725  0.9788
  704MOL0     H95038   4.213  -0.240   3.581 -1.1262  0.2758  3.8432
  704MOL0     H95039   4.092   0.227   3.994 -1.3867 -1.3818 -2.1218
  704MOL0     H95040   4.281   0.235   4.163  1.0737  0.0683 -1.0422
  705MOL0     O95041   1.618   4.496   1.947  0.8181  0.0325 -0.4816
  705MOL0     C95042   1.573   4.381   1.975 -0.1453  0.6912 -0.1032
  705MOL0     O95043   1.653   4.267   1.976 -0.4530  0.5200 -0.1765
  705MOL0     C95044   1.788   4.295   1.972 -0.5347 -0.4516  0.3562
  705MOL0     C95045   1.854   4.330   2.093  0.2503 -0.5425 -0.6021
  705MOL0     C95046   1.994   4.342   2.084 -0.4057  0.4490  0.2693
  705MOL0     C95047   2.066   4.323   1.966 -0.4460  0.4280  0.4061
  705MOL0     O95048   2.194   4.361   1.963 -0.1289 -0.4030 -0.1090
  705MOL0     C95049   2.294   4.289   1.895 -0.5050  0.2410 -0.2507
  705MOL0     C95050   2.427   4.346   1.923  0.6650 -0.6138 -0.4037
  705MOL0     C95051   2.459   4.470   1.832  1.1103 -0.3547 -0.1621
  705MOL0     C95052   2.601   4.501   1.809 -0.3594  0.2803 -0.2434
  705MOL0     C95053   2.698   4.550   1.923 -0.6851  0.3443 -0.2540
  705MOL0     C95054   2.644   4.676   2.012 -0.4314 -0.2481 -0.1753
  705MOL0     C95055   2.605   4.797   1.929 -0.8114 -0.1787 -0.9370
  705MOL0     C95056   2.532   4.897   2.008 -0.2085  0.5569 -0.1689
  705MOL0     N95057   2.396   4.860   2.044 -0.5951 -1.4202  0.6369
  705MOL0     C95058   2.290   4.896   1.966 -0.6018  0.0952  0.2497
  705MOL0     C95059   2.187   4.811   1.997 -0.6689  0.2488  0.0465
  705MOL0     C95060   2.050   4.817   1.936  1.0180  0.2024  0.3620
  705MOL0     C95061   2.056   4.813   1.777  0.4506 -0.3525 -0.3547
  705MOL0     C95062   2.107   4.679   1.731 -0.5539 -0.1237 -0.3666
  705MOL0     C95063   2.103   4.669   1.575 -0.2149  1.1900 -0.2579
  705MOL0     O95064   2.140   4.536   1.537  0.2853 -0.2255 -0.1154
  705MOL0     C95065   2.041   4.437   1.532  0.0350  0.0094 -0.6772
  705MOL0     C95066   1.915   4.460   1.582  0.2429  0.1028 -0.6045
  705MOL0     C95067   1.811   4.367   1.563  0.0943 -0.9981 -0.3368
  705MOL0     C95068   1.678   4.407   1.606 -0.7774 -0.6973 -0.6477
  705MOL0     C95069   1.843   4.258   1.486  0.2099  0.9670  0.0764
  705MOL0     C95070   1.735   4.162   1.434 -0.2640  0.1707  0.4345
  705MOL0     O95071   1.770   4.088   1.331 -0.6416  0.3905  0.1071
  705MOL0     C95072   1.674   4.002   1.271 -0.9730 -0.6994  0.6106
  705MOL0     C95073   1.552   4.033   1.224  0.3950  0.0687 -0.5960
  705MOL0     C95074   1.477   3.936   1.148 -0.1258 -0.6976 -0.9708
  705MOL0     C95075   1.522   3.808   1.123  0.5417 -1.0158 -0.1925
  705MOL0     O95076   1.446   3.718   1.058 -0.2676 -0.1368  0.6504
  705MOL0     C95077   1.385   3.613   1.137 -0.4599 -0.3013 -0.3262
  705MOL0     C95078   1.309   3.523   1.041  0.3036 -1.1582 -0.0073
  705MOL0     C95079   1.247   3.406   1.119 -0.0581 -0.0413 -0.3615
  705MOL0     C95080   1.104   3.377   1.072 -0.0435 -0.3567 -0.9700
  705MOL0     C95081   1.104   3.325   0.931 -0.3268  0.2964  0.3733
  705MOL0     C95082   0.971   3.263   0.891 -0.1094  0.8775  0.1424
  705MOL0     C95083   0.972   3.231   0.736 -0.1815  0.1506 -0.4673
  705MOL0     C95084   1.051   3.102   0.705 -0.4618  0.0442  0.4880
  705MOL0    Cl95085   0.992   2.966   0.804  0.0164  0.6011  0.3761
  705MOL0     C95086   1.646   3.776   1.179 -0.1274 -0.0664 -0.5604
  705MOL0     C95087   1.720   3.873   1.253  0.4384  0.1859 -0.2559
  705MOL0     O95088   1.638   4.146   1.507  0.2839  0.1227 -0.5397
  705MOL0     C95089   1.969   4.228   1.447 -0.2114  0.5125  0.1652
  705MOL0     C95090   2.076   4.319   1.468  0.4044 -0.3710  0.5331
  705MOL0     N95091   2.238   4.720   2.076  0.3408 -0.5324 -0.0088
  705MOL0     N95092   2.358   4.755   2.108 -1.2914  1.3443  0.5800
  705MOL0     C95093   2.003   4.270   1.861 -0.7204 -0.2443 -0.3118
  705MOL0     C95094   1.864   4.255   1.864 -0.5408  0.2439  0.5483
  705MOL0     C95095   1.427   4.357   1.987 -0.5809 -0.2622  0.0548
  705MOL0     C95096   1.348   4.462   2.040 -0.2693  1.3965  0.2147
  705MOL0     C95097   1.211   4.429   2.076 -0.3510 -0.6755  0.3858
  705MOL0     C95098   1.144   4.307   2.038 -0.2387 -0.3187 -0.1436
  705MOL0     O95099   1.007   4.290   2.050 -0.7329  0.6414  0.2525
  705MOL0     C95100   0.906   4.381   2.020  1.1115 -0.2483  0.4002
  705MOL0     C95101   0.881   4.407   1.866  1.1479 -0.4499 -0.0484
  705MOL0     C95102   0.872   4.284   1.781 -0.5776  0.8866 -0.0128
  705MOL0     C95103   0.754   4.208   1.799  0.3653 -0.7623 -0.6809
  705MOL0     C95104   0.771   4.072   1.739 -0.0284  0.9407 -0.9832
  705MOL0     C95105   0.806   3.958   1.719 -0.2086 -0.6517  0.0548
  705MOL0     C95106   1.235   4.212   1.985 -0.3840  0.4610  0.3176
  705MOL0     C95107   1.370   4.232   1.961 -0.0222 -1.1086 -0.4032
  705MOL0     H95108   1.805   4.349   2.188  1.1592 -0.4360 -0.1431
  705MOL0     H95109   2.048   4.385   2.168  2.4767 -3.6474  0.8368
  705MOL0     H95110   2.281   4.183   1.916 -2.3790  0.3567 -0.6518
  705MOL0     H95111   2.279   4.310   1.789  0.4638  3.2013  0.0855
  705MOL0     H95112   2.438   4.371   2.028 -0.1335 -3.9740  0.6142
  705MOL0     H95113   2.511   4.278   1.905  4.1417  3.0694  0.4053
  705MOL0     H95114   2.421   4.453   1.731  0.2484  0.7338 -0.0393
  705MOL0     H95115   2.400   4.555   1.866 -1.3271 -1.5353 -1.1822
  705MOL0     H95116   2.651   4.412   1.771  1.0485  0.5100  1.0150
  705MOL0     H95117   2.609   4.575   1.729  2.9244 -3.0264 -3.3945
  705MOL0     H95118   2.731   4.472   1.992 -1.0853  0.9957  0.7027
  705MOL0     H95119   2.795   4.583   1.884 -1.2166  3.9974  1.0822
  705MOL0     H95120   2.555   4.639   2.063 -0.8098 -2.8960 -2.5188
  705MOL0     H95121   2.725   4.708   2.078  0.7761  0.9248 -2.1430
  705MOL0     H95122   2.690   4.845   1.879 -0.6528  4.0445  2.7671
  705MOL0     H95123   2.531   4.755   1.860 -0.8446 -1.1500 -0.3361
  705MOL0     H95124   2.528   4.995   1.959  1.2769  1.6200  1.6909
  705MOL0     H95125   2.595   4.922   2.094  3.3925  3.3896 -3.2779
  705MOL0     H95126   2.287   4.986   1.905  0.6471  2.1670  3.0423
  705MOL0     H95127   1.986   4.738   1.976  2.5477 -0.5079  1.5538
  705MOL0     H95128   1.995   4.906   1.966 -2.0337 -0.9170 -1.4874
  705MOL0     H95129   2.104   4.907   1.750 -1.3280  1.5444  2.5346
  705MOL0     H95130   1.954   4.811   1.739  0.5998  0.0759 -0.7812
  705MOL0     H95131   2.070   4.589   1.781  1.3593 -2.1181 -2.2934
  705MOL0     H95132   2.214   4.677   1.754 -0.4219 -0.9750 -0.9893
  705MOL0     H95133   2.169   4.736   1.520  4.9665 -4.9174 -2.6418
  705MOL0     H95134   2.001   4.675   1.537 -0.6062  0.4639  0.6369
  705MOL0     H95135   1.886   4.536   1.655 -1.2741 -1.4013  0.4324
  705MOL0     H95136   1.635   4.334   1.676  2.0985 -0.6405  1.3682
  705MOL0     H95137   1.666   4.507   1.649 -3.0578 -0.9725 -0.5200
  705MOL0     H95138   1.622   4.419   1.513 -2.0433  3.1273  0.4353
  705MOL0     H95139   1.509   4.132   1.228  2.2671  0.8921  1.3745
  705MOL0     H95140   1.383   3.969   1.105  0.5859  1.4422 -1.0080
  705MOL0     H95141   1.452   3.559   1.205 -1.8712  1.1768  2.3891
  705MOL0     H95142   1.311   3.661   1.202  0.4205  1.6488 -0.7028
  705MOL0     H95143   1.230   3.586   0.997 -0.4620 -2.3309 -0.3507
  705MOL0     H95144   1.374   3.490   0.960 -0.3313 -0.2921 -0.8989
  705MOL0     H95145   1.238   3.431   1.225  0.7727 -1.8687  0.1878
  705MOL0     H95146   1.306   3.314   1.118 -0.8078 -0.5358 -1.1668
  705MOL0     H95147   1.070   3.307   1.149 -1.0427  1.4018  0.2794
  705MOL0     H95148   1.044   3.468   1.085  0.7583 -0.0010  0.4541
  705MOL0     H95149   1.183   3.250   0.935  0.4607  1.1585  2.4979
  705MOL0     H95150   1.127   3.412   0.868 -0.1208 -0.1006 -0.1076
  705MOL0     H95151   0.963   3.170   0.947  4.2900  1.2257  1.7378
  705MOL0     H95152   0.889   3.328   0.923  0.1593 -0.1639  3.3519
  705MOL0     H95153   1.019   3.316   0.684  2.2819 -0.2782  0.9182
  705MOL0     H95154   0.869   3.224   0.700 -0.5518  1.5521  0.2270
  705MOL0     H95155   1.158   3.104   0.727 -0.4168 -0.7767  0.3739
  705MOL0     H95156   1.046   3.079   0.598  1.8273 -1.3143  0.6024
  705MOL0     H95157   1.695   3.681   1.163  1.4496  0.7248 -0.6277
  705MOL0     H95158   1.814   3.841   1.298  1.1717  0.9120 -1.2251
  705MOL0     H95159   2.005   4.145   1.387  3.8409  2.8766 -1.0284
  705MOL0     H95160   2.178   4.301   1.439  0.8433  0.7801  1.2662
  705MOL0     H95161   2.044   4.258   1.761 -1.3512  0.2520 -0.6336
  705MOL0     H95162   1.809   4.209   1.782 -0.0197 -1.2571  1.0042
  705MOL0     H95163   1.387   4.562   2.059 -0.1392  1.2301  0.8380
  705MOL0     H95164   1.156   4.509   2.124 -2.2989 -0.1464 -2.4922
  705MOL0     H95165   0.812   4.345   2.062  1.1297 -1.1431 -0.2917
  705MOL0     H95166   0.925   4.477   2.068 -3.1610  0.6634  0.6262
  705MOL0     H95167   0.969   4.462   1.832  0.3070  0.8002 -0.2480
  705MOL0     H95168   0.800   4.478   1.848  2.3627  1.2354  0.9340
  705MOL0     H95169   0.956   4.216   1.803 -0.5313  0.4048 -1.5408
  705MOL0     H95170   0.879   4.307   1.674  3.3846 -1.1625 -0.4057
  705MOL0     H95171   0.667   4.264   1.763  1.1856  1.4431  0.5518
  705MOL0     H95172   0.747   4.175   1.903  0.1564 -1.1136 -0.8041
  705MOL0     H95173   0.828   3.855   1.699  2.8249  0.0370 -0.6597
  705MOL0     H95174   1.195   4.115   1.957  0.1632  0.9348 -2.3657
  705MOL0     H95175   1.430   4.158   1.910  2.3526 -0.5582  1.4312
  706MOL0     O95176   3.720   2.537   4.569  0.3638  1.3814 -0.2491
  706MOL0     C95177   3.650   2.493   4.659 -0.1287  0.1798 -0.8501
  706MOL0     O95178   3.628   2.549   4.787  0.5424  0.0818  0.3161
  706MOL0     C95179   3.671   2.675   4.817  1.0697  0.1859  0.0714
  706MOL0     C95180   3.591   2.790   4.756 -0.8678  0.6950 -0.4664
  706MOL0     C95181   3.634   2.914   4.787 -0.6883 -0.5375 -0.0420
  706MOL0     C95182   3.755   2.944   4.855  0.8442  0.0743  0.1709
  706MOL0     O95183   3.797   3.083   4.877 -0.3416  0.3918  0.1271
  706MOL0     C95184   3.710   3.187   4.829 -0.6035  0.1160 -0.1259
  706MOL0     C95185   3.608   3.234   4.932 -0.1931 -0.8196 -0.5435
  706MOL0     C95186   3.521   3.351   4.895  0.1403 -0.0986  0.8707
  706MOL0     C95187   3.590   3.466   4.801  0.6966  0.2659 -0.0715
  706MOL0     C95188   3.481   3.549   4.728 -0.0314  0.5019 -1.0408
  706MOL0     C95189   3.539   3.653   4.638  0.5247 -0.0788  0.0041
  706MOL0     C95190   3.426   3.727   4.552  0.2910 -1.1610  0.6622
  706MOL0     C95191   3.407   3.674   4.414 -0.3368  0.9489 -1.0320
  706MOL0     N95192   3.305   3.740   4.339 -1.5942 -0.2723  0.0725
  706MOL0     C95193   3.202   3.674   4.285 -0.7714  0.0058 -0.0341
  706MOL0     C95194   3.125   3.781   4.255 -0.5960  0.3043  0.5069
  706MOL0     C95195   2.993   3.767   4.183  1.3148  0.4901 -0.2576
  706MOL0     C95196   2.902   3.664   4.254  0.6508  0.2787  0.1687
  706MOL0     C95197   2.790   3.605   4.174  1.6809 -0.6271  0.4473
  706MOL0     C95198   2.689   3.713   4.120  1.0401 -0.9714 -0.1757
  706MOL0     O95199   2.734   3.769   4.002 -0.0643  0.3796  0.2480
  706MOL0     C95200   2.701   3.897   3.977  0.7214 -0.4505  1.3362
  706MOL0     C95201   2.797   3.989   3.961 -0.5486  0.4857 -0.3583
  706MOL0     C95202   2.792   4.127   3.955 -0.3352  1.0769 -0.1370
  706MOL0     C95203   2.926   4.200   3.939 -0.1249  0.8576  0.1506
  706MOL0     C95204   2.661   4.187   3.958  0.5781 -0.6743 -1.2541
  706MOL0     C95205   2.644   4.329   3.946  0.4357  0.0928  0.4021
  706MOL0     O95206   2.513   4.382   3.980  0.0133 -0.1077 -0.3580
  706MOL0     C95207   2.495   4.517   3.981  0.3161 -0.7024  0.0514
  706MOL0     C95208   2.477   4.586   3.864 -0.7740 -0.7293  0.6477
  706MOL0     C95209   2.462   4.725   3.871  0.6109  0.5757 -0.9580
  706MOL0     C95210   2.463   4.809   3.992 -0.1549 -0.0247  0.2315
  706MOL0     O95211   2.445   4.947   4.005 -0.8832  0.0478 -0.0216
  706MOL0     C95212   2.433   5.019   3.882  0.5661 -0.8944  0.4022
  706MOL0     C95213   2.376   5.157   3.928 -0.2683 -0.8972  0.4251
  706MOL0     C95214   2.225   5.143   3.977 -0.3234 -0.6929  0.1410
  706MOL0     C95215   2.178   5.260   4.076 -0.1549  0.2642  1.1516
  706MOL0     C95216   2.037   5.257   4.142 -0.3631  0.4462  0.8127
  706MOL0     C95217   2.025   5.126   4.222  1.0184 -0.6485  0.5310
  706MOL0     C95218   1.889   5.113   4.306 -0.1503 -1.1607 -0.0249
  706MOL0     C95219   1.799   4.996   4.303  0.8741 -0.0314 -0.2998
  706MOL0    Cl95220   1.713   5.017   4.466  0.2316  0.0907 -0.3409
  706MOL0     C95221   2.483   4.726   4.103 -0.0150 -0.0575 -0.6612
  706MOL0     C95222   2.493   4.590   4.099  1.0964  0.4904  0.2163
  706MOL0     O95223   2.735   4.402   3.906  0.3306 -0.6899  0.6956
  706MOL0     C95224   2.555   4.097   3.984 -0.9154  0.5975  0.4090
  706MOL0     C95225   2.578   3.958   3.990 -0.2747  0.3168 -0.4071
  706MOL0     N95226   3.183   3.903   4.276  0.0487  0.0234  0.1076
  706MOL0     N95227   3.297   3.877   4.320  0.1973 -0.7128 -0.4104
  706MOL0     C95228   3.828   2.839   4.913 -0.0874 -1.1203 -0.7987
  706MOL0     C95229   3.784   2.707   4.897 -0.8244  0.6917 -0.8956
  706MOL0     C95230   3.583   2.364   4.629 -0.6954  0.6891  0.2217
  706MOL0     C95231   3.607   2.300   4.497  0.4676 -0.0021 -0.0822
  706MOL0     C95232   3.539   2.180   4.478  0.1009  0.0464  0.1003
  706MOL0     C95233   3.477   2.108   4.580 -0.3436 -0.5349  0.5190
  706MOL0     O95234   3.433   1.978   4.554  0.5282  0.0260 -0.6719
  706MOL0     C95235   3.493   1.897   4.453 -0.1348  0.5210 -0.7733
  706MOL0     C95236   3.469   1.754   4.476 -0.0737 -0.3621 -0.0933
  706MOL0     C95237   3.540   1.666   4.369 -0.4331 -0.1703  0.2696
  706MOL0     C95238   3.570   1.522   4.415  0.2497 -1.4896 -0.1111
  706MOL0     C95239   3.463   1.430   4.389  0.3289  0.6934  0.4316
  706MOL0     C95240   3.385   1.347   4.359 -0.0293  0.4979  0.4081
  706MOL0     C95241   3.446   2.168   4.705  0.5668 -1.1861  0.4173
  706MOL0     C95242   3.502   2.299   4.726  0.9318 -0.6411  1.0685
  706MOL0     H95243   3.500   2.774   4.699 -0.6868  0.3715 -0.6721
  706MOL0     H95244   3.560   2.991   4.764  1.0215  1.7099  1.5053
  706MOL0     H95245   3.775   3.269   4.797 -0.7840  0.5746  0.6652
  706MOL0     H95246   3.659   3.148   4.740  0.0386 -0.5658 -0.2022
  706MOL0     H95247   3.538   3.156   4.965  0.4984 -0.5906  1.6265
  706MOL0     H95248   3.659   3.257   5.026  1.3985 -1.1153 -1.3026
  706MOL0     H95249   3.440   3.298   4.844  2.6122 -4.2183  0.7598
  706MOL0     H95250   3.493   3.405   4.986  3.2697  0.3928  1.6538
  706MOL0     H95251   3.651   3.523   4.872 -0.1371  0.3747  0.5690
  706MOL0     H95252   3.637   3.406   4.723 -0.9381 -5.9778  3.0509
  706MOL0     H95253   3.430   3.474   4.667  1.5018  0.4401 -2.3210
  706MOL0     H95254   3.420   3.598   4.805  1.4932 -2.1345  2.0902
  706MOL0     H95255   3.595   3.721   4.704 -0.5470  2.0573 -1.1745
  706MOL0     H95256   3.624   3.621   4.577  2.8484  1.4210  2.2799
  706MOL0     H95257   3.330   3.720   4.605 -0.4844 -4.1091 -0.9346
  706MOL0     H95258   3.460   3.831   4.548 -3.0852  0.0372 -0.5389
  706MOL0     H95259   3.378   3.569   4.415 -3.7539  1.7609 -1.8439
  706MOL0     H95260   3.498   3.673   4.355  1.9761  0.3875  2.2443
  706MOL0     H95261   3.188   3.570   4.257 -0.4542 -0.0878  0.1565
  706MOL0     H95262   2.944   3.863   4.200 -1.6784 -1.0095  0.2043
  706MOL0     H95263   3.016   3.752   4.077  5.0188  4.5665 -0.2906
  706MOL0     H95264   2.860   3.724   4.335  4.5180  2.1456  1.0433
  706MOL0     H95265   2.962   3.580   4.291  0.8213  0.2747 -0.1148
  706MOL0     H95266   2.734   3.537   4.238 -2.7118 -2.8342 -4.9592
  706MOL0     H95267   2.809   3.547   4.084 -1.5477 -2.1968  0.6328
  706MOL0     H95268   2.665   3.786   4.198 -2.0021 -0.8292 -1.0881
  706MOL0     H95269   2.594   3.663   4.100  0.8111 -0.5154 -0.2450
  706MOL0     H95270   2.892   3.938   3.960 -0.2512  0.8733  1.9718
  706MOL0     H95271   3.013   4.135   3.926  0.6326  2.1322 -1.5924
  706MOL0     H95272   2.924   4.268   3.853  0.2915  3.1238  1.8315
  706MOL0     H95273   2.942   4.252   4.033  0.6033  0.9813 -0.0405
  706MOL0     H95274   2.482   4.520   3.777  2.1330 -3.6803  2.7979
  706MOL0     H95275   2.453   4.780   3.777 -0.2133  2.3172  0.0828
  706MOL0     H95276   2.523   5.037   3.821  0.1715 -1.3427 -0.3340
  706MOL0     H95277   2.362   4.965   3.818  0.8036 -1.1243  0.3272
  706MOL0     H95278   2.429   5.196   4.015 -2.2341 -0.2674  1.4095
  706MOL0     H95279   2.383   5.230   3.847  1.5725 -1.2565  0.2231
  706MOL0     H95280   2.218   5.056   4.043 -1.0933  0.5699  1.8144
  706MOL0     H95281   2.156   5.139   3.892  2.8429  2.1922 -2.8983
  706MOL0     H95282   2.253   5.264   4.156 -0.1216  2.4455  1.0793
  706MOL0     H95283   2.173   5.358   4.028 -0.4636  0.2690  1.1931
  706MOL0     H95284   1.968   5.255   4.058  0.7418  0.5557 -0.1172
  706MOL0     H95285   2.030   5.345   4.206  3.1622 -1.1153  3.7701
  706MOL0     H95286   2.025   5.047   4.146 -2.3727  1.0642 -1.4975
  706MOL0     H95287   2.109   5.109   4.290  1.3642  3.2351  1.3151
  706MOL0     H95288   1.833   5.207   4.298 -2.7454 -2.7447 -2.1736
  706MOL0     H95289   1.926   5.113   4.409  1.9059  2.1774 -0.5966
  706MOL0     H95290   1.853   4.901   4.304  0.8917 -0.0283  1.3151
  706MOL0     H95291   1.727   4.979   4.222 -0.8599 -1.8489  1.5044
  706MOL0     H95292   2.464   4.770   4.200 -0.2691 -0.6868 -0.4188
  706MOL0     H95293   2.498   4.545   4.198  2.0137  1.0849  0.4600
  706MOL0     H95294   2.452   4.132   3.992 -2.2309 -2.6479 -0.4268
  706MOL0     H95295   2.486   3.902   4.002 -1.1703  1.9600  0.7246
  706MOL0     H95296   3.900   2.883   4.982 -0.3075  3.5068 -3.1176
  706MOL0     H95297   3.825   2.632   4.964 -2.2982 -1.4902 -2.3176
  706MOL0     H95298   3.653   2.353   4.414  1.2624  2.2570  1.6922
  706MOL0     H95299   3.550   2.139   4.378  1.7224 -3.2656  1.4646
  706MOL0     H95300   3.461   1.935   4.355  0.5787 -0.8102 -1.5562
  706MOL0     H95301   3.602   1.908   4.455  0.5767 -4.4451  2.5070
  706MOL0     H95302   3.362   1.734   4.474 -0.3990  1.2535 -1.3094
  706MOL0     H95303   3.504   1.723   4.575 -1.6564 -0.4569  0.4587
  706MOL0     H95304   3.631   1.712   4.328 -0.1755 -0.2920  0.6980
  706MOL0     H95305   3.463   1.649   4.293 -1.6609  0.3190  1.3544
  706MOL0     H95306   3.609   1.521   4.517  3.2117 -2.2197 -1.1264
  706MOL0     H95307   3.656   1.498   4.351  2.0882  1.6079  0.9909
  706MOL0     H95308   3.318   1.270   4.326  2.2786 -1.0860 -0.8915
  706MOL0     H95309   3.391   2.119   4.784  1.3931 -0.9718  1.1315
  706MOL0     H95310   3.463   2.363   4.805  1.7756 -0.1238  1.0835
  707MOL0     O95311   0.222   4.155   1.843 -0.6756  0.2579  0.0598
  707MOL0     C95312   0.239   4.281   1.819 -0.2286  0.1719 -0.6086
  707MOL0     O95313   0.155   4.357   1.750  0.0567 -0.1132  0.6880
  707MOL0     C95314   0.045   4.293   1.686 -0.3051 -0.4978 -0.2308
  707MOL0     C95315  -0.049   4.201   1.744 -1.1745  0.1463  0.3469
  707MOL0     C95316  -0.172   4.179   1.687 -0.2613  0.8717  1.1232
  707MOL0     C95317  -0.198   4.220   1.564 -0.5993  0.8714 -0.2690
  707MOL0     O95318  -0.291   4.170   1.479  0.1521  0.2189 -0.1815
  707MOL0     C95319  -0.248   4.066   1.389 -0.0875  0.3969 -0.7176
  707MOL0     C95320  -0.357   3.993   1.321 -0.0582 -0.1377 -0.3475
  707MOL0     C95321  -0.443   3.922   1.419  0.1863 -0.2270 -0.8012
  707MOL0     C95322  -0.526   3.815   1.353  1.1576 -0.1635  0.6332
  707MOL0     C95323  -0.572   3.704   1.455 -0.2261  0.4017 -0.0646
  707MOL0     C95324  -0.650   3.755   1.576 -0.0555  0.6292 -0.3993
  707MOL0     C95325  -0.790   3.789   1.536 -0.5359 -0.2510 -0.2890
  707MOL0     C95326  -0.911   3.727   1.607  0.9712  0.1666  0.5962
  707MOL0     N95327  -1.038   3.772   1.545 -0.2273  0.0648 -0.0266
  707MOL0     C95328  -1.097   3.878   1.597  0.5520  0.2489 -0.2552
  707MOL0     C95329  -1.201   3.892   1.510  0.2546  0.5856 -0.3720
  707MOL0     C95330  -1.318   3.981   1.526  0.3120 -0.0292 -0.1360
  707MOL0     C95331  -1.392   3.941   1.653 -0.8274  0.4107  0.7592
  707MOL0     C95332  -1.500   4.030   1.694  0.1834  0.0477 -0.6452
  707MOL0     C95333  -1.574   3.983   1.823 -0.1077 -0.4051 -0.0153
  707MOL0     O95334  -1.656   4.095   1.868 -0.3954 -0.1354  0.1051
  707MOL0     C95335  -1.719   4.073   1.986 -0.8302 -0.6099 -0.3120
  707MOL0     C95336  -1.702   3.965   2.074  1.0127  0.1392  0.1820
  707MOL0     C95337  -1.771   3.968   2.195 -0.6969  0.2332  0.0308
  707MOL0     C95338  -1.736   3.856   2.284  0.3142 -0.3070 -0.1145
  707MOL0     C95339  -1.868   4.062   2.227  0.0245 -0.0054 -0.3976
  707MOL0     C95340  -1.964   4.061   2.345  0.8548  0.4258  0.0968
  707MOL0     O95341  -2.081   4.120   2.334 -0.2527 -0.8194  0.1734
  707MOL0     C95342  -2.142   4.162   2.451 -0.2634 -1.0364 -0.8254
  707MOL0     C95343  -2.094   4.264   2.530 -0.7823 -0.1703  0.8310
  707MOL0     C95344  -2.153   4.310   2.646  0.7235 -0.0201 -0.2135
  707MOL0     C95345  -2.272   4.243   2.693  0.4168  0.0754  0.4529
  707MOL0     O95346  -2.334   4.283   2.808  0.4099 -0.0880 -0.4991
  707MOL0     C95347  -2.466   4.238   2.848 -0.3291  0.0502 -0.1319
  707MOL0     C95348  -2.563   4.335   2.781  0.8351 -1.4820  0.6356
  707MOL0     C95349  -2.706   4.333   2.842 -0.7833 -0.8435  0.0083
  707MOL0     C95350  -2.776   4.205   2.799 -0.0940  0.3950 -0.1919
  707MOL0     C95351  -2.918   4.200   2.829 -0.4936  0.0860 -0.0395
  707MOL0     C95352  -2.952   4.217   2.975 -0.3819 -0.0135 -0.7626
  707MOL0     C95353  -3.091   4.253   2.997  1.1811 -0.6163  0.1393
  707MOL0     C95354  -3.189   4.140   2.962  0.2829 -0.2634 -0.5697
  707MOL0    Cl95355  -3.136   3.985   3.026  0.2759  0.3039  0.4041
  707MOL0     C95356  -2.325   4.125   2.618 -0.1454 -0.2834 -1.8273
  707MOL0     C95357  -2.256   4.091   2.500 -0.0567  0.1620 -0.2239
  707MOL0     O95358  -1.924   4.025   2.448  0.6567 -0.6633 -0.4937
  707MOL0     C95359  -1.890   4.161   2.134  0.5122 -0.4261  0.2056
  707MOL0     C95360  -1.813   4.169   2.017 -0.5382  0.1410 -0.1213
  707MOL0     N95361  -1.182   3.815   1.394  0.5028  0.0996 -0.0390
  707MOL0     N95362  -1.077   3.735   1.422 -0.2008 -0.1816 -0.9836
  707MOL0     C95363  -0.100   4.290   1.499  0.7501  0.4722 -0.4744
  707MOL0     C95364   0.017   4.334   1.557  1.2922  0.3521  0.2400
  707MOL0     C95365   0.344   4.357   1.888  0.5310 -0.0566  0.2249
  707MOL0     C95366   0.348   4.502   1.889 -0.4867  0.1262 -0.2849
  707MOL0     C95367   0.447   4.563   1.957 -0.4295  0.1767 -0.7910
  707MOL0     C95368   0.539   4.485   2.031 -0.3876 -1.0974 -1.4250
  707MOL0     O95369   0.650   4.534   2.100 -0.2727 -0.5553 -0.0649
  707MOL0     C95370   0.673   4.676   2.104 -0.0532  0.9939 -0.1621
  707MOL0     C95371   0.756   4.713   1.980 -0.3893 -0.3212 -0.4369
  707MOL0     C95372   0.788   4.868   1.989 -0.7453 -0.2962  0.1603
  707MOL0     C95373   0.886   4.921   1.874 -0.4538 -0.4680 -1.3797
  707MOL0     C95374   1.024   4.878   1.911 -0.3308 -0.8425  0.6816
  707MOL0     C95375   1.132   4.827   1.938 -0.3624 -0.3375 -0.4025
  707MOL0     C95376   0.523   4.350   2.047 -0.1594 -0.4187  0.2526
  707MOL0     C95377   0.431   4.283   1.974 -0.2506 -0.3017  0.2238
  707MOL0     H95378  -0.040   4.152   1.840 -0.2592 -0.3948 -0.0093
  707MOL0     H95379  -0.236   4.103   1.731 -1.1118 -0.5436 -2.2798
  707MOL0     H95380  -0.187   4.113   1.312  1.2221  0.8503  0.5398
  707MOL0     H95381  -0.185   3.994   1.441  1.4532  1.8582 -0.4517
  707MOL0     H95382  -0.411   4.060   1.253 -2.0237 -2.5644 -1.3633
  707MOL0     H95383  -0.328   3.920   1.245 -2.5786  0.4667 -2.0107
  707MOL0     H95384  -0.381   3.870   1.493 -1.3530 -2.7083 -1.1495
  707MOL0     H95385  -0.506   3.988   1.479  1.8452 -1.0933  2.1192
  707MOL0     H95386  -0.611   3.862   1.303  1.1310  0.2275  1.0495
  707MOL0     H95387  -0.472   3.749   1.284  0.4613 -2.5840  2.2613
  707MOL0     H95388  -0.638   3.628   1.412 -0.7926  0.4881  0.6381
  707MOL0     H95389  -0.489   3.644   1.494 -1.5311 -0.0268  2.2312
  707MOL0     H95390  -0.645   3.670   1.644  2.4081  2.6372  2.1568
  707MOL0     H95391  -0.599   3.835   1.631  2.9546 -1.4881  0.1862
  707MOL0     H95392  -0.793   3.896   1.558  1.1390 -0.5124  1.5269
  707MOL0     H95393  -0.811   3.761   1.433  1.4379 -2.6329 -0.1381
  707MOL0     H95394  -0.906   3.755   1.713 -1.7160  2.9123  0.1350
  707MOL0     H95395  -0.913   3.618   1.598 -0.4688  0.1128  1.3011
  707MOL0     H95396  -1.095   3.927   1.694  0.8633  0.5464 -0.4064
  707MOL0     H95397  -1.283   4.085   1.527 -0.1059  0.1182 -0.6935
  707MOL0     H95398  -1.388   3.976   1.443 -1.6588  1.8510  1.2873
  707MOL0     H95399  -1.323   3.935   1.738  1.3242  1.3932 -0.8230
  707MOL0     H95400  -1.427   3.838   1.639 -2.7911  0.8051  2.2182
  707MOL0     H95401  -1.572   4.026   1.612 -2.4625  2.8950  1.3305
  707MOL0     H95402  -1.473   4.135   1.708  0.9771 -0.2876  0.4451
  707MOL0     H95403  -1.501   3.963   1.902  0.7207  3.5241  0.4463
  707MOL0     H95404  -1.630   3.894   1.795 -0.9121  0.5401 -1.5084
  707MOL0     H95405  -1.635   3.886   2.041  0.9097 -0.0542  0.4288
  707MOL0     H95406  -1.644   3.806   2.252  1.3086  0.9470  0.6872
  707MOL0     H95407  -1.706   3.901   2.379  3.7497  0.7911 -1.5703
  707MOL0     H95408  -1.820   3.787   2.294  0.8496 -1.0019 -0.3343
  707MOL0     H95409  -1.992   4.295   2.511 -0.6957 -0.2991  1.0764
  707MOL0     H95410  -2.112   4.396   2.697 -1.0706  0.7654 -0.0612
  707MOL0     H95411  -2.487   4.134   2.821  0.7866 -0.6208  1.4207
  707MOL0     H95412  -2.471   4.254   2.956  1.3722  0.6527 -0.1168
  707MOL0     H95413  -2.538   4.439   2.802  0.4250 -0.9726 -1.1894
  707MOL0     H95414  -2.571   4.318   2.673 -0.5407 -0.8545  0.6124
  707MOL0     H95415  -2.757   4.422   2.804  6.1939  2.4905 -3.4009
  707MOL0     H95416  -2.704   4.324   2.951 -2.2486  0.6464  0.1997
  707MOL0     H95417  -2.770   4.192   2.691 -0.3921 -1.9767  0.0192
  707MOL0     H95418  -2.721   4.119   2.837 -1.1697 -0.2479 -0.0237
  707MOL0     H95419  -2.958   4.109   2.783  4.0863 -2.0276 -0.4128
  707MOL0     H95420  -2.970   4.280   2.776 -4.5447 -1.1506  1.5841
  707MOL0     H95421  -2.936   4.126   3.034 -1.7786  0.4020  0.3178
  707MOL0     H95422  -2.894   4.300   3.018 -2.4142 -1.4815  6.0979
  707MOL0     H95423  -3.116   4.338   2.934  1.7839 -1.9748 -2.0140
  707MOL0     H95424  -3.103   4.284   3.102 -3.7621 -1.0269 -0.0774
  707MOL0     H95425  -3.200   4.134   2.854 -3.6445  0.4383 -0.3752
  707MOL0     H95426  -3.287   4.153   3.010  0.9293 -1.2809  1.1440
  707MOL0     H95427  -2.411   4.071   2.656  0.4946  1.1784  2.1847
  707MOL0     H95428  -2.282   3.999   2.449  1.1273 -1.2226  1.5357
  707MOL0     H95429  -1.960   4.242   2.156  1.6176  0.4477  0.6027
  707MOL0     H95430  -1.831   4.257   1.955 -0.2539  1.3092  1.3784
  707MOL0     H95431  -0.125   4.321   1.398 -1.1491  0.1365 -0.1602
  707MOL0     H95432   0.088   4.403   1.512 -0.7986  4.5396  2.7115
  707MOL0     H95433   0.274   4.571   1.849 -1.4592  0.6291  2.1569
  707MOL0     H95434   0.455   4.671   1.944  0.9843  0.1354 -0.3995
  707MOL0     H95435   0.581   4.733   2.119  1.2674  2.4246  3.8550
  707MOL0     H95436   0.735   4.695   2.193 -1.1690  1.7817  0.4653
  707MOL0     H95437   0.689   4.695   1.895 -1.3428  0.8523  0.0409
  707MOL0     H95438   0.851   4.658   1.977 -0.7704 -1.9416  5.1077
  707MOL0     H95439   0.839   4.897   2.082  0.0657  1.1529 -0.7133
  707MOL0     H95440   0.705   4.937   1.971 -1.9391 -1.1075  2.0946
  707MOL0     H95441   0.888   5.030   1.878  0.7483 -0.4664  2.9309
  707MOL0     H95442   0.853   4.896   1.773 -0.6017 -0.7013 -1.2728
  707MOL0     H95443   1.222   4.775   1.963 -1.2810 -3.5874 -3.1645
  707MOL0     H95444   0.596   4.298   2.109  2.1058  0.7824 -1.2537
  707MOL0     H95445   0.416   4.176   1.980 -3.7960  0.0103 -0.7907
  708MOL0     O95446   5.916   1.666   9.396  0.0075  0.3550 -0.2486
  708MOL0     C95447   6.027   1.631   9.439  0.9613  0.8646 -0.1662
  708MOL0     O95448   6.131   1.617   9.358  0.8089 -0.7866 -0.6598
  708MOL0     C95449   6.121   1.650   9.228 -0.4182 -0.3571 -0.2630
  708MOL0     C95450   6.180   1.776   9.193  0.2302 -0.7168  0.2360
  708MOL0     C95451   6.151   1.823   9.063 -0.2715 -0.6129  0.4178
  708MOL0     C95452   6.071   1.751   8.966  0.8876  0.1551 -0.2856
  708MOL0     O95453   6.058   1.799   8.837 -0.2137  0.0401  0.1395
  708MOL0     C95454   5.964   1.894   8.809 -0.0376  0.9187  0.2632
  708MOL0     C95455   5.878   1.832   8.701 -0.3101 -0.8430  1.0816
  708MOL0     C95456   5.810   1.934   8.616  0.4802  0.2486 -0.1649
  708MOL0     C95457   5.726   1.894   8.496  0.6411 -0.0612 -0.0006
  708MOL0     C95458   5.672   2.017   8.415 -0.0980  0.5701 -0.3008
  708MOL0     C95459   5.576   1.988   8.304 -0.1095 -0.1549 -0.0595
  708MOL0     C95460   5.553   2.111   8.222  0.6348  0.1001 -0.1993
  708MOL0     C95461   5.421   2.096   8.143 -0.5169  0.1706 -0.5502
  708MOL0     N95462   5.407   1.979   8.063  0.2381  0.1615  0.2231
  708MOL0     C95463   5.456   1.959   7.940 -0.3764  0.5437  0.5333
  708MOL0     C95464   5.432   1.836   7.899 -0.5693  0.8010  0.0600
  708MOL0     C95465   5.457   1.781   7.755 -0.2217 -0.1468 -0.3755
  708MOL0     C95466   5.425   1.632   7.767 -0.7197  0.8057  0.6173
  708MOL0     C95467   5.472   1.566   7.633  0.0990  0.8693  0.3439
  708MOL0     C95468   5.412   1.631   7.514 -0.1490 -0.5164 -0.3482
  708MOL0     O95469   5.429   1.569   7.385 -0.4031 -0.7280  0.0336
  708MOL0     C95470   5.309   1.547   7.312  0.2887  0.4389 -0.3826
  708MOL0     C95471   5.174   1.524   7.357  0.6850 -0.0098 -0.2637
  708MOL0     C95472   5.065   1.509   7.271 -0.1303  0.7473 -0.4459
  708MOL0     C95473   4.920   1.473   7.333  0.5739  0.7351  0.0012
  708MOL0     C95474   5.090   1.528   7.132 -1.4322 -0.5137  0.1546
  708MOL0     C95475   4.976   1.536   7.040  0.4153  0.1686  1.0482
  708MOL0     O95476   4.856   1.586   7.081 -0.0891 -0.1691 -0.4857
  708MOL0     C95477   4.744   1.594   6.997  0.4604  0.2157  0.1444
  708MOL0     C95478   4.618   1.543   7.039 -0.1011 -1.0550 -0.5220
  708MOL0     C95479   4.513   1.547   6.946  0.5468 -0.4728  0.4887
  708MOL0     C95480   4.535   1.597   6.810  0.7650  0.2873 -0.0246
  708MOL0     O95481   4.432   1.589   6.716 -1.3626 -0.1300  0.1425
  708MOL0     C95482   4.299   1.641   6.757 -0.5630 -0.5696  0.0232
  708MOL0     C95483   4.207   1.688   6.643 -0.4347 -0.0669  0.6713
  708MOL0     C95484   4.271   1.735   6.513  0.8757 -0.9362  0.4142
  708MOL0     C95485   4.172   1.753   6.396 -1.0151  0.1798 -0.1555
  708MOL0     C95486   4.249   1.810   6.265 -0.6274  0.4091 -0.9547
  708MOL0     C95487   4.144   1.854   6.155 -0.3584  0.0273 -0.8485
  708MOL0     C95488   4.098   1.724   6.078 -0.2469 -0.2440 -0.0057
  708MOL0     C95489   3.993   1.746   5.963 -0.2281  0.3748 -0.5974
  708MOL0    Cl95490   4.054   1.874   5.857 -0.3030 -0.1854 -0.1933
  708MOL0     C95491   4.665   1.628   6.776  1.3105 -1.1621  0.8622
  708MOL0     C95492   4.764   1.643   6.866 -0.1190  0.1774 -0.2373
  708MOL0     O95493   4.987   1.483   6.930  0.7139  0.1383 -0.4042
  708MOL0     C95494   5.225   1.551   7.091 -0.1226 -0.5785 -0.0152
  708MOL0     C95495   5.332   1.565   7.179  0.0109 -0.6524  0.3668
  708MOL0     N95496   5.350   1.783   7.996  0.4792  0.5123  0.1213
  708MOL0     N95497   5.347   1.863   8.092  0.5296 -0.4911 -0.2480
  708MOL0     C95498   6.017   1.625   9.004  0.8081 -1.0539  1.5646
  708MOL0     C95499   6.038   1.579   9.140  0.2697 -0.4150 -0.0848
  708MOL0     C95500   6.048   1.593   9.584 -0.5964  0.5766 -1.2057
  708MOL0     C95501   6.175   1.585   9.632  0.4309 -0.3380  0.5096
  708MOL0     C95502   6.197   1.568   9.770 -0.4647 -0.8320 -0.2434
  708MOL0     C95503   6.090   1.576   9.862  0.2365  0.0516  0.2024
  708MOL0     O95504   6.089   1.573  10.000  0.9703 -0.3436  0.6137
  708MOL0     C95505   6.211   1.513  10.056  0.4315  0.2843 -0.4276
  708MOL0     C95506   6.183   1.484  10.200 -0.7226 -0.5115 -0.3524
  708MOL0     C95507   6.298   1.416  10.259 -0.5621  0.3566 -0.6460
  708MOL0     C95508   6.277   1.363  10.402 -0.7013 -0.3885 -0.5978
  708MOL0     C95509   6.401   1.330  10.473  0.1759 -0.3192  0.0038
  708MOL0     C95510   6.513   1.304  10.522 -0.3436  0.2924 -0.2350
  708MOL0     C95511   5.963   1.595   9.817 -0.5661 -0.5839 -0.0396
  708MOL0     C95512   5.943   1.598   9.682 -0.9310 -0.1438  0.4291
  708MOL0     H95513   6.239   1.832   9.265 -0.2045  0.8403 -0.5793
  708MOL0     H95514   6.180   1.923   9.033 -3.5137  0.9224  1.9761
  708MOL0     H95515   5.921   1.930   8.903  1.0282 -1.7041  1.8842
  708MOL0     H95516   6.027   1.976   8.773  3.5853 -1.0432  1.6425
  708MOL0     H95517   5.940   1.771   8.635  0.1158  0.7349 -0.0352
  708MOL0     H95518   5.807   1.755   8.734  0.7002 -1.7568  1.2072
  708MOL0     H95519   5.746   1.999   8.677  1.4712  2.3900 -1.2848
  708MOL0     H95520   5.893   1.989   8.571  0.4470 -1.1280 -2.0178
  708MOL0     H95521   5.779   1.840   8.418  0.8220  0.3202 -0.1413
  708MOL0     H95522   5.639   1.835   8.529  1.5126 -0.9560  0.7432
  708MOL0     H95523   5.638   2.090   8.488 -0.3862 -1.1099  1.3301
  708MOL0     H95524   5.762   2.063   8.372  1.1201 -1.0330  0.4019
  708MOL0     H95525   5.616   1.912   8.236 -1.7338 -0.4750 -0.6943
  708MOL0     H95526   5.476   1.962   8.338 -2.3629  6.6810  0.1396
  708MOL0     H95527   5.548   2.200   8.285  2.1101  0.3151 -0.3678
  708MOL0     H95528   5.639   2.119   8.157  1.0823 -3.5720 -0.2836
  708MOL0     H95529   5.400   2.186   8.084 -1.9053  0.5828  0.5261
  708MOL0     H95530   5.338   2.082   8.212  0.1101  0.9354  0.3944
  708MOL0     H95531   5.514   2.035   7.890  1.6241 -2.0990 -1.4177
  708MOL0     H95532   5.391   1.846   7.698  0.3483  1.5585  0.8203
  708MOL0     H95533   5.560   1.798   7.720 -0.4138  1.6751 -0.1512
  708MOL0     H95534   5.318   1.608   7.772 -1.4005  3.7415  2.6419
  708MOL0     H95535   5.484   1.590   7.848  0.6900  0.1539 -0.6906
  708MOL0     H95536   5.438   1.463   7.643  2.4832 -0.3000 -2.3129
  708MOL0     H95537   5.581   1.561   7.625 -0.0658 -2.4238 -1.4550
  708MOL0     H95538   5.461   1.729   7.518  2.1841 -1.6688  1.0582
  708MOL0     H95539   5.307   1.660   7.524  0.1628  1.6388 -2.4536
  708MOL0     H95540   5.167   1.511   7.464  2.6227 -0.1686 -0.1216
  708MOL0     H95541   4.864   1.567   7.343  0.2444  0.5008  0.3818
  708MOL0     H95542   4.860   1.413   7.264 -1.0096 -1.9492  3.4051
  708MOL0     H95543   4.918   1.407   7.420 -0.4513  0.1076 -0.4833
  708MOL0     H95544   4.617   1.496   7.137 -0.8483 -0.4210 -0.2073
  708MOL0     H95545   4.418   1.504   6.979  2.1982 -4.0564  1.0243
  708MOL0     H95546   4.248   1.559   6.809 -0.5963 -0.6117 -0.0737
  708MOL0     H95547   4.312   1.724   6.826  2.6028 -0.0505 -1.0107
  708MOL0     H95548   4.144   1.601   6.623  0.8504 -1.1507  1.1898
  708MOL0     H95549   4.143   1.768   6.680 -1.1521  0.0889 -0.8434
  708MOL0     H95550   4.348   1.661   6.489 -1.2594 -3.3697  0.6120
  708MOL0     H95551   4.316   1.833   6.528  0.0303 -0.7746  2.1440
  708MOL0     H95552   4.133   1.652   6.388  1.0706 -0.7520  0.5501
  708MOL0     H95553   4.094   1.826   6.418 -2.0204 -0.1614 -2.3970
  708MOL0     H95554   4.328   1.746   6.227  1.1788  1.7015  0.4389
  708MOL0     H95555   4.300   1.899   6.303 -0.7120  0.0385  0.0606
  708MOL0     H95556   4.067   1.901   6.217  0.7309 -0.5220  0.9826
  708MOL0     H95557   4.182   1.928   6.084 -2.1794  1.2406 -0.6385
  708MOL0     H95558   4.069   1.644   6.146 -1.8570 -0.6148 -1.0770
  708MOL0     H95559   4.180   1.680   6.019  0.3564 -2.8861  2.5934
  708MOL0     H95560   3.905   1.788   6.013  1.4069  1.8091  1.2145
  708MOL0     H95561   3.975   1.654   5.907  0.6347  0.1769 -0.5554
  708MOL0     H95562   4.705   1.652   6.678 -1.6914  0.5388 -0.0488
  708MOL0     H95563   4.855   1.690   6.830  1.4250 -1.9251  0.6756
  708MOL0     H95564   5.250   1.584   6.990 -0.6125 -1.1403 -0.3211
  708MOL0     H95565   5.426   1.610   7.150  1.2864 -3.2363  0.1799
  708MOL0     H95566   5.943   1.582   8.937 -0.2194  1.2947  1.0839
  708MOL0     H95567   5.975   1.494   9.160 -0.2414 -0.4229 -1.5885
  708MOL0     H95568   6.253   1.586   9.556  0.4665 -0.7972  0.5379
  708MOL0     H95569   6.296   1.559   9.814  0.1914  0.9027 -1.2799
  708MOL0     H95570   6.236   1.422  10.001 -0.0718  0.0072 -0.2028
  708MOL0     H95571   6.303   1.572  10.051  2.0217 -2.1865 -2.6845
  708MOL0     H95572   6.084   1.439  10.212  0.2648 -2.7639 -0.1600
  708MOL0     H95573   6.187   1.571  10.266  2.8894 -1.4228  0.8734
  708MOL0     H95574   6.379   1.489  10.255 -1.0280  0.9481  0.1849
  708MOL0     H95575   6.319   1.327  10.199 -1.0698 -0.7507  0.7462
  708MOL0     H95576   6.211   1.276  10.400  0.0003 -1.1082  2.1980
  708MOL0     H95577   6.232   1.446  10.457 -0.7565 -0.3938 -0.6352
  708MOL0     H95578   6.611   1.276  10.554 -1.0451 -1.7515  0.3216
  708MOL0     H95579   5.879   1.602   9.886 -0.8810 -1.2502 -0.3487
  708MOL0     H95580   5.841   1.619   9.653 -0.7147  0.9991  0.4435
  709MOL0     O95581   3.272   4.770   8.641 -0.8701  0.3061  0.7490
  709MOL0     C95582   3.349   4.825   8.717  0.0137  0.3234 -0.6138
  709MOL0     O95583   3.311   4.909   8.820  1.0917  0.7715  0.8651
  709MOL0     C95584   3.178   4.935   8.840  0.2726  0.4230 -0.2691
  709MOL0     C95585   3.135   5.057   8.781  0.3109 -0.1154 -0.7956
  709MOL0     C95586   2.992   5.094   8.792 -0.2298 -0.0543  0.7638
  709MOL0     C95587   2.903   5.015   8.864 -0.1733 -0.2879  0.6885
  709MOL0     O95588   2.766   5.050   8.877  0.6256 -0.1200  0.7475
  709MOL0     C95589   2.747   5.155   8.975 -0.1800 -0.0064 -0.3856
  709MOL0     C95590   2.653   5.259   8.919 -1.4561  0.8772  0.4574
  709MOL0     C95591   2.709   5.341   8.799 -0.3497  0.4514  0.0261
  709MOL0     C95592   2.616   5.440   8.749  0.0226  0.3820  0.0362
  709MOL0     C95593   2.657   5.508   8.617  0.5176  0.2568 -1.3839
  709MOL0     C95594   2.614   5.651   8.590  0.3332  0.8840 -1.1675
  709MOL0     C95595   2.476   5.682   8.531 -0.5531  0.1983  0.5116
  709MOL0     C95596   2.479   5.827   8.477 -1.2732 -0.3356  0.1252
  709MOL0     N95597   2.462   5.923   8.585 -0.5360 -0.1826  0.0075
  709MOL0     C95598   2.343   5.961   8.637  0.5105  0.4893 -0.3363
  709MOL0     C95599   2.373   6.047   8.733 -0.4155 -0.5156 -0.7052
  709MOL0     C95600   2.272   6.134   8.816  0.1289  0.0192 -0.5081
  709MOL0     C95601   2.231   6.281   8.770  0.2770 -0.2712 -0.1836
  709MOL0     C95602   2.337   6.390   8.792 -0.5354  1.1031 -0.2509
  709MOL0     C95603   2.305   6.517   8.724  0.0671  0.0869 -0.4792
  709MOL0     O95604   2.307   6.518   8.580 -0.1539  0.1344  0.4177
  709MOL0     C95605   2.426   6.560   8.522  0.3627 -0.2120  0.2868
  709MOL0     C95606   2.555   6.510   8.549  0.2092 -0.2502 -0.4069
  709MOL0     C95607   2.665   6.563   8.484 -0.0195  0.2813 -0.5738
  709MOL0     C95608   2.802   6.503   8.517 -0.1463  0.4784 -0.6725
  709MOL0     C95609   2.655   6.669   8.389 -0.3091  1.0702 -0.4424
  709MOL0     C95610   2.765   6.718   8.309  1.0342  0.0766  1.0379
  709MOL0     O95611   2.751   6.701   8.173  0.1843  0.3434  0.5298
  709MOL0     C95612   2.815   6.789   8.093 -0.3913  0.1880 -0.3333
  709MOL0     C95613   2.824   6.931   8.118  0.2706  0.8451  0.6751
  709MOL0     C95614   2.871   7.018   8.020  0.2708  0.5228 -0.4882
  709MOL0     C95615   2.909   6.975   7.895  0.3350 -0.1638  0.0885
  709MOL0     O95616   2.949   7.071   7.804  0.1274  0.3473  0.5414
  709MOL0     C95617   2.994   7.037   7.671  0.5072 -0.6082 -0.2215
  709MOL0     C95618   2.930   7.135   7.572  0.5648 -0.4369 -0.1081
  709MOL0     C95619   2.976   7.286   7.570 -0.1631 -0.1701  0.1240
  709MOL0     C95620   2.912   7.361   7.457 -0.0529  0.5330  0.3605
  709MOL0     C95621   2.994   7.491   7.432 -0.5254 -0.1051 -0.4850
  709MOL0     C95622   2.943   7.588   7.318  1.1807  0.1498 -0.8254
  709MOL0     C95623   2.804   7.651   7.362 -0.1694  0.1837  0.6679
  709MOL0     C95624   2.778   7.796   7.301 -0.4127  0.3159  0.5134
  709MOL0    Cl95625   2.779   7.794   7.118  0.2661 -0.1368  0.0285
  709MOL0     C95626   2.910   6.839   7.869 -0.0122 -0.7101 -0.7752
  709MOL0     C95627   2.854   6.750   7.960 -0.8200  0.7940 -0.6001
  709MOL0     O95628   2.850   6.778   8.369 -0.5433  0.1842 -0.6702
  709MOL0     C95629   2.529   6.708   8.354  0.3058  0.5492 -0.2980
  709MOL0     C95630   2.416   6.661   8.422 -0.3496  1.3198 -0.5427
  709MOL0     N95631   2.510   6.084   8.726  0.3973 -0.2550 -0.9597
  709MOL0     N95632   2.560   5.996   8.641 -0.1758 -0.1586 -0.0531
  709MOL0     C95633   2.957   4.911   8.941  0.0179  0.0689  0.3646
  709MOL0     C95634   3.088   4.868   8.917  0.1410  0.0632 -0.5035
  709MOL0     C95635   3.495   4.809   8.695  0.4150  0.1278 -0.0138
  709MOL0     C95636   3.586   4.895   8.765  0.5112  1.0397  0.6768
  709MOL0     C95637   3.724   4.884   8.751 -0.3476  0.2877  0.7500
  709MOL0     C95638   3.775   4.798   8.647  0.5732 -1.4034  0.0181
  709MOL0     O95639   3.915   4.804   8.632  0.1121 -0.2355  0.6679
  709MOL0     C95640   3.972   4.700   8.555  0.9775  1.0951  0.6428
  709MOL0     C95641   4.117   4.713   8.530  0.2053  0.6400  0.0816
  709MOL0     C95642   4.203   4.673   8.655  1.3049 -0.2153  0.5985
  709MOL0     C95643   4.350   4.677   8.620 -0.2810 -0.3532 -0.6959
  709MOL0     C95644   4.397   4.626   8.494 -0.3370 -0.9015  1.1753
  709MOL0     C95645   4.448   4.566   8.404  0.5083  0.0122 -0.2461
  709MOL0     C95646   3.687   4.709   8.583  0.1143 -0.0193  0.1858
  709MOL0     C95647   3.547   4.713   8.598 -0.1440 -0.9800 -0.5039
  709MOL0     H95648   3.208   5.101   8.714  0.4740  1.4653  0.3770
  709MOL0     H95649   2.962   5.182   8.735  1.5395 -0.9415 -1.7512
  709MOL0     H95650   2.704   5.103   9.060 -2.6948  2.4375 -0.0171
  709MOL0     H95651   2.839   5.204   9.007 -0.8002  2.3311 -1.9071
  709MOL0     H95652   2.571   5.197   8.882 -2.0078  0.5231  2.2005
  709MOL0     H95653   2.620   5.325   8.999 -2.0088 -0.6636  1.5509
  709MOL0     H95654   2.799   5.393   8.833 -0.7756  1.0384  0.2664
  709MOL0     H95655   2.759   5.278   8.725  0.4516  0.2079  0.7572
  709MOL0     H95656   2.518   5.392   8.745  0.3047 -0.2424  0.3932
  709MOL0     H95657   2.603   5.518   8.825  3.2467  1.6331 -0.5305
  709MOL0     H95658   2.766   5.517   8.629  0.1733  0.8962  2.8170
  709MOL0     H95659   2.621   5.435   8.544 -1.4553 -0.9544  0.6675
  709MOL0     H95660   2.633   5.705   8.682  5.3780  1.1056 -2.0774
  709MOL0     H95661   2.689   5.691   8.521 -1.1092  4.5974 -0.8286
  709MOL0     H95662   2.437   5.618   8.452 -2.3586 -0.2971  1.7484
  709MOL0     H95663   2.400   5.680   8.609  1.2310 -2.7598  2.3292
  709MOL0     H95664   2.406   5.829   8.395 -0.6988 -0.6810 -0.4081
  709MOL0     H95665   2.580   5.839   8.435 -1.4314  1.3083  0.1533
  709MOL0     H95666   2.241   5.940   8.606  0.6279  0.0400 -0.4320
  709MOL0     H95667   2.183   6.072   8.809  1.4829 -1.7906 -4.5064
  709MOL0     H95668   2.290   6.132   8.924 -1.4546 -3.2294 -0.1954
  709MOL0     H95669   2.158   6.319   8.842  0.3975 -0.6998  0.1738
  709MOL0     H95670   2.176   6.272   8.676 -0.7200 -1.2689  0.4712
  709MOL0     H95671   2.423   6.341   8.746 -0.1040 -0.0987  1.7288
  709MOL0     H95672   2.350   6.411   8.898  1.8689  0.5436 -0.3834
  709MOL0     H95673   2.375   6.588   8.770  1.2269 -0.1383 -1.8404
  709MOL0     H95674   2.206   6.551   8.756  0.2731 -1.5143  2.2033
  709MOL0     H95675   2.567   6.432   8.624 -0.8125 -0.2554 -0.2396
  709MOL0     H95676   2.825   6.427   8.442  0.2438 -0.1359  0.0531
  709MOL0     H95677   2.881   6.578   8.531 -0.4098  0.8755 -1.3006
  709MOL0     H95678   2.801   6.430   8.598  1.8337 -1.2483 -2.0878
  709MOL0     H95679   2.790   6.981   8.208  0.4907  0.6758  0.8519
  709MOL0     H95680   2.861   7.125   8.035 -3.0160  0.8256 -3.4850
  709MOL0     H95681   3.101   7.020   7.657  0.8335 -0.0706  1.4046
  709MOL0     H95682   2.930   6.955   7.636 -2.9528  2.4677 -1.8118
  709MOL0     H95683   2.952   7.092   7.474 -2.6822 -3.2622  0.2140
  709MOL0     H95684   2.821   7.142   7.580  0.4550 -1.7901 -0.1957
  709MOL0     H95685   3.084   7.289   7.553 -0.0977  0.5603  0.6517
  709MOL0     H95686   2.958   7.335   7.666  1.6668  2.6546 -0.8338
  709MOL0     H95687   2.922   7.291   7.373  1.0753 -0.6221  1.4209
  709MOL0     H95688   2.811   7.383   7.493 -0.3469 -0.1867  0.0001
  709MOL0     H95689   3.099   7.470   7.408 -0.8122 -0.8119 -1.1828
  709MOL0     H95690   3.001   7.530   7.534 -0.1897 -3.6390  0.9749
  709MOL0     H95691   3.010   7.675   7.318  2.9529 -1.1281  1.0803
  709MOL0     H95692   2.932   7.539   7.221 -1.8984  0.1730 -0.5897
  709MOL0     H95693   2.798   7.664   7.470 -1.6979  1.6903  0.4521
  709MOL0     H95694   2.720   7.587   7.333  0.5102  1.3118 -4.8444
  709MOL0     H95695   2.853   7.871   7.326 -1.3962  1.0281  1.4320
  709MOL0     H95696   2.679   7.814   7.344 -1.4914  1.6809 -2.2668
  709MOL0     H95697   2.936   6.808   7.769 -0.8573 -2.2236 -0.5513
  709MOL0     H95698   2.856   6.649   7.921 -0.0404  0.0478  1.2376
  709MOL0     H95699   2.510   6.783   8.278  1.5296  0.3864 -0.7763
  709MOL0     H95700   2.314   6.680   8.392 -1.7160  0.2785  2.9450
  709MOL0     H95701   2.902   4.849   9.011 -2.8420  3.2298  1.1830
  709MOL0     H95702   3.124   4.780   8.970 -1.9074  0.6939  2.1592
  709MOL0     H95703   3.556   4.970   8.837  3.0579  1.3609  1.4870
  709MOL0     H95704   3.788   4.942   8.816  1.2336 -1.8335  1.1801
  709MOL0     H95705   3.955   4.602   8.601  2.8817  0.8430  0.8909
  709MOL0     H95706   3.919   4.699   8.459  1.1236  0.9218  0.5634
  709MOL0     H95707   4.122   4.820   8.506 -3.6228  1.0409  0.4665
  709MOL0     H95708   4.144   4.659   8.439  4.2949  3.1104 -0.4428
  709MOL0     H95709   4.173   4.569   8.675 -2.7108  0.2519 -1.7730
  709MOL0     H95710   4.185   4.745   8.734  0.2627  1.3482 -0.9795
  709MOL0     H95711   4.385   4.616   8.704  0.8032  2.9034  1.4213
  709MOL0     H95712   4.374   4.783   8.633  0.4640 -0.8531  3.0154
  709MOL0     H95713   4.504   4.501   8.340 -0.1144 -3.0423  2.0834
  709MOL0     H95714   3.717   4.642   8.502 -0.8107  0.8927 -0.9367
  709MOL0     H95715   3.481   4.666   8.526  0.4874 -0.9593 -1.1024
  710MOL0     O95716   9.953   3.394   2.099  0.3161  1.3835 -0.0689
  710MOL0     C95717   9.945   3.312   2.190 -0.1871 -0.9750 -0.2874
  710MOL0     O95718   9.995   3.183   2.191 -0.3757 -0.4761 -0.1411
  710MOL0     C95719  10.076   3.146   2.088  0.5348 -0.2252 -0.5687
  710MOL0     C95720  10.041   3.130   1.953 -0.2659  1.0275 -0.8228
  710MOL0     C95721  10.135   3.103   1.852 -0.9388  0.4147 -0.9008
  710MOL0     C95722  10.268   3.065   1.886 -0.3095  0.1150 -0.2272
  710MOL0     O95723  10.357   3.054   1.774 -0.1684 -0.2596 -1.1319
  710MOL0     C95724  10.394   2.911   1.751  0.0006  0.1919 -0.6356
  710MOL0     C95725  10.388   2.887   1.599  0.1859  0.2095 -0.6993
  710MOL0     C95726  10.270   2.962   1.524  0.0450 -0.4733 -0.4062
  710MOL0     C95727  10.266   2.930   1.376  0.5193  0.0837 -0.0343
  710MOL0     C95728  10.160   3.008   1.293 -0.2110 -0.1035 -0.1604
  710MOL0     C95729  10.185   3.152   1.261  1.3373  0.3736  0.0347
  710MOL0     C95730  10.059   3.223   1.185  0.2947  0.0990  0.8393
  710MOL0     C95731   9.920   3.217   1.249  0.2093 -0.2060 -0.3043
  710MOL0     N95732   9.917   3.281   1.380 -0.0389  0.4902 -0.1024
  710MOL0     C95733   9.969   3.402   1.411  0.6507 -0.3226 -0.1707
  710MOL0     C95734   9.948   3.420   1.546  0.5542  0.5053 -0.0565
  710MOL0     C95735  10.020   3.518   1.635 -0.2805 -0.7065  0.4431
  710MOL0     C95736  10.174   3.510   1.634  0.3044  0.7092  0.2120
  710MOL0     C95737  10.236   3.564   1.764  0.0350 -0.3129 -1.3760
  710MOL0     C95738  10.368   3.505   1.808  0.7057  0.8800  0.7181
  710MOL0     O95739  10.436   3.580   1.905  0.1699  0.2339 -0.2167
  710MOL0     C95740  10.413   3.532   2.032 -0.0891 -0.5274  1.5432
  710MOL0     C95741  10.491   3.445   2.112  0.6448  0.6014  0.4264
  710MOL0     C95742  10.443   3.393   2.233  0.0101 -0.1333 -0.8217
  710MOL0     C95743  10.519   3.277   2.286  0.0140  0.8160  0.7936
  710MOL0     C95744  10.343   3.461   2.305  0.3026  0.5309  0.2204
  710MOL0     C95745  10.294   3.439   2.450  1.0210 -0.5507 -0.1961
  710MOL0     O95746  10.173   3.490   2.485 -0.4969 -0.2645 -0.1361
  710MOL0     C95747  10.120   3.445   2.605  0.6977  0.3259 -0.7535
  710MOL0     C95748  10.103   3.309   2.629 -0.4159  0.6523 -1.0558
  710MOL0     C95749  10.064   3.265   2.759  1.2928 -0.1087  0.0172
  710MOL0     C95750  10.043   3.360   2.860  0.1543 -0.4197 -1.0230
  710MOL0     O95751  10.016   3.333   2.998  0.4025 -0.0877 -0.0330
  710MOL0     C95752   9.976   3.198   3.036  0.6270 -0.4809  0.4429
  710MOL0     C95753   9.946   3.190   3.190  0.2253  0.6033  0.2132
  710MOL0     C95754   9.881   3.062   3.239  0.0463  0.1022 -1.3351
  710MOL0     C95755   9.879   3.065   3.388  0.0924 -0.7593  0.0163
  710MOL0     C95756   9.815   2.936   3.446  0.3726 -0.2430 -1.0846
  710MOL0     C95757   9.823   2.939   3.607  0.3674  0.0885 -0.0936
  710MOL0     C95758   9.767   2.805   3.664  0.2226 -0.2057 -0.9821
  710MOL0     C95759   9.774   2.808   3.814  1.0903 -0.3565  0.3045
  710MOL0    Cl95760   9.758   2.639   3.889 -0.0540 -0.4113  0.0875
  710MOL0     C95761  10.059   3.490   2.834 -0.2042 -0.7048 -0.2502
  710MOL0     C95762  10.096   3.538   2.705  0.0166  0.4008 -0.0445
  710MOL0     O95763  10.371   3.391   2.537  0.0271 -0.1827 -1.0122
  710MOL0     C95764  10.278   3.563   2.232  0.4057  0.5058  0.4831
  710MOL0     C95765  10.307   3.590   2.101 -0.1935  0.3343  0.0123
  710MOL0     N95766   9.852   3.326   1.576  0.6618  0.2175 -0.1881
  710MOL0     N95767   9.830   3.246   1.480  0.4558  0.7769  0.3043
  710MOL0     C95768  10.306   3.070   2.027  0.6248  0.2511  0.3894
  710MOL0     C95769  10.210   3.112   2.125 -0.0100  0.1810 -0.0178
  710MOL0     C95770   9.886   3.356   2.315  0.0367 -0.0719 -0.4110
  710MOL0     C95771   9.869   3.496   2.338 -0.0842 -0.2068 -0.0315
  710MOL0     C95772   9.817   3.541   2.460  0.2716 -0.4583  0.7892
  710MOL0     C95773   9.777   3.453   2.559  0.6776  0.5323 -0.3653
  710MOL0     O95774   9.727   3.507   2.680  0.1193  0.4707  0.4777
  710MOL0     C95775   9.704   3.426   2.792 -0.1773  0.7797 -0.1720
  710MOL0     C95776   9.718   3.514   2.918  0.3673 -0.5355 -0.4429
  710MOL0     C95777   9.680   3.429   3.038 -0.8611  0.7330 -0.5891
  710MOL0     C95778   9.723   3.491   3.162  0.3010  0.2752 -0.4314
  710MOL0     C95779   9.649   3.431   3.271  0.4272 -0.4075 -0.3321
  710MOL0     C95780   9.593   3.378   3.368  0.5517 -0.8034 -0.0746
  710MOL0     C95781   9.786   3.317   2.533  0.5818  0.3802 -0.2494
  710MOL0     C95782   9.821   3.273   2.407 -0.2073  0.2707  0.6440
  710MOL0     H95783   9.939   3.152   1.923 -0.9737 -1.7788 -0.6827
  710MOL0     H95784  10.093   3.109   1.753  0.3242  0.2677 -1.4634
  710MOL0     H95785  10.496   2.898   1.788  1.3012  1.6855 -3.4292
  710MOL0     H95786  10.325   2.845   1.805  0.6377  0.1056  0.0896
  710MOL0     H95787  10.485   2.918   1.559  0.3645  0.3625 -0.1430
  710MOL0     H95788  10.387   2.779   1.580  3.9442 -0.4585  1.9362
  710MOL0     H95789  10.173   2.939   1.569  0.1734  0.6380  0.4550
  710MOL0     H95790  10.282   3.069   1.538 -0.3914 -0.3260 -1.0813
  710MOL0     H95791  10.363   2.924   1.326  0.1015 -2.9868 -0.7267
  710MOL0     H95792  10.228   2.827   1.368 -0.9042  0.7274 -2.6023
  710MOL0     H95793  10.152   2.957   1.196  3.2393 -0.7665 -0.2085
  710MOL0     H95794  10.066   3.008   1.348 -0.7194  4.2560 -0.7324
  710MOL0     H95795  10.202   3.210   1.352 -0.9819 -1.2152  1.5853
  710MOL0     H95796  10.279   3.148   1.205  1.2631 -1.9917 -0.0208
  710MOL0     H95797  10.088   3.327   1.164  1.5131 -0.3593  0.1688
  710MOL0     H95798  10.034   3.167   1.094 -3.0973 -3.5205  3.6435
  710MOL0     H95799   9.890   3.113   1.265 -1.3438  0.3921  0.9233
  710MOL0     H95800   9.838   3.258   1.189  0.2665 -0.4341 -0.5403
  710MOL0     H95801  10.031   3.468   1.352 -0.9471 -1.1834 -2.9816
  710MOL0     H95802  10.003   3.620   1.599 -0.2344 -1.3465 -1.5590
  710MOL0     H95803   9.964   3.517   1.729  0.2940  1.6743  0.8873
  710MOL0     H95804  10.208   3.568   1.548 -0.3694  0.8747  0.0555
  710MOL0     H95805  10.200   3.406   1.612 -2.0151 -0.1921  1.3452
  710MOL0     H95806  10.161   3.538   1.839 -1.8596  0.5267 -2.8894
  710MOL0     H95807  10.246   3.673   1.760  3.4588 -0.4252  0.2271
  710MOL0     H95808  10.429   3.523   1.719 -1.3580 -0.2904 -1.0293
  710MOL0     H95809  10.361   3.400   1.835  0.5790  1.4265  2.9873
  710MOL0     H95810  10.576   3.395   2.067 -1.1052 -1.5430 -0.6611
  710MOL0     H95811  10.580   3.235   2.205  0.3295  2.8225 -0.0803
  710MOL0     H95812  10.584   3.318   2.364  2.4957  0.3965 -0.9057
  710MOL0     H95813  10.439   3.207   2.312 -0.7097  0.5256 -1.9376
  710MOL0     H95814  10.116   3.240   2.546 -0.2409 -0.3849 -0.1959
  710MOL0     H95815  10.053   3.158   2.773  1.6026 -0.0989  0.3493
  710MOL0     H95816   9.882   3.163   2.992 -0.7464  0.5230  2.4134
  710MOL0     H95817  10.057   3.129   3.013  0.0397 -0.5445 -1.6596
  710MOL0     H95818  10.047   3.205   3.229  1.3700 -0.3864 -2.1649
  710MOL0     H95819   9.894   3.284   3.214 -2.3390 -0.4941 -0.7148
  710MOL0     H95820   9.939   2.983   3.191  0.8573  0.5076 -1.0373
  710MOL0     H95821   9.777   3.053   3.204 -1.7474 -4.3261  3.8167
  710MOL0     H95822   9.981   3.081   3.425 -0.3019  0.8890  0.4594
  710MOL0     H95823   9.816   3.147   3.422 -0.8920 -0.9831 -1.1905
  710MOL0     H95824   9.878   2.850   3.421 -0.3930 -1.7587  1.7377
  710MOL0     H95825   9.712   2.932   3.410 -0.0223  3.4891 -0.7620
  710MOL0     H95826   9.927   2.951   3.638 -0.7986  1.9912  3.6749
  710MOL0     H95827   9.778   3.029   3.649 -0.5816  0.0915 -1.0471
  710MOL0     H95828   9.820   2.715   3.630 -1.1753 -2.5461  2.4535
  710MOL0     H95829   9.663   2.790   3.635 -0.3164 -0.3135  0.9259
  710MOL0     H95830   9.686   2.865   3.848  0.6696 -0.6174 -0.3240
  710MOL0     H95831   9.865   2.860   3.845  0.6484 -1.1929  3.3636
  710MOL0     H95832  10.061   3.565   2.913  0.1306 -0.4458 -0.4953
  710MOL0     H95833  10.126   3.640   2.683 -2.2325  0.7938 -1.5753
  710MOL0     H95834  10.190   3.608   2.278 -0.3720  0.9018 -1.3063
  710MOL0     H95835  10.252   3.674   2.060  1.1424  1.2041 -0.0702
  710MOL0     H95836  10.405   3.033   2.050  1.1471  1.4267  0.1167
  710MOL0     H95837  10.245   3.118   2.227 -1.8752  0.3947  0.6498
  710MOL0     H95838   9.900   3.568   2.262 -1.3300  0.6271  0.2285
  710MOL0     H95839   9.797   3.645   2.481 -0.5849 -0.4304 -0.1069
  710MOL0     H95840   9.600   3.393   2.781 -0.3320 -0.9803  4.4504
  710MOL0     H95841   9.768   3.337   2.799 -2.7245 -1.3229 -1.7457
  710MOL0     H95842   9.637   3.587   2.921 -0.9462 -1.8843 -1.4528
  710MOL0     H95843   9.818   3.557   2.931 -0.1517  0.6054 -0.0778
  710MOL0     H95844   9.713   3.325   3.040  1.9525  1.4843 -2.1819
  710MOL0     H95845   9.570   3.428   3.041 -0.8671  1.1902  3.0660
  710MOL0     H95846   9.705   3.599   3.164 -2.9946 -0.1471  1.2346
  710MOL0     H95847   9.829   3.474   3.182  0.2294 -1.6680 -1.4226
  710MOL0     H95848   9.545   3.357   3.462 -2.1586 -2.4643 -1.7033
  710MOL0     H95849   9.763   3.244   2.609  1.6341  2.5814  2.3341
  710MOL0     H95850   9.825   3.167   2.385 -0.1501 -0.0051  1.9062
  711MOL0     O95851   6.031   5.017   5.153 -0.1680 -0.0754 -0.0399
  711MOL0     C95852   5.966   5.079   5.072 -0.7811 -0.1743  0.9978
  711MOL0     O95853   5.839   5.049   5.025  1.2188 -0.6001  0.0030
  711MOL0     C95854   5.756   4.956   5.083  0.2154 -0.9948  0.4490
  711MOL0     C95855   5.619   4.973   5.036 -0.2855 -0.2593 -0.0196
  711MOL0     C95856   5.518   4.888   5.070 -0.2510  1.1255 -0.0783
  711MOL0     C95857   5.551   4.774   5.150  0.1559 -0.0598 -0.0042
  711MOL0     O95858   5.455   4.688   5.185 -1.1999 -0.0444  0.9221
  711MOL0     C95859   5.462   4.556   5.112  0.3598  0.5911 -0.8072
  711MOL0     C95860   5.432   4.571   4.958  0.2335 -0.8358  0.6880
  711MOL0     C95861   5.282   4.582   4.924 -0.6083  0.3118 -0.1930
  711MOL0     C95862   5.241   4.500   4.812  0.3279  0.5545 -0.0934
  711MOL0     C95863   5.094   4.478   4.787 -0.5033 -0.1138 -0.6084
  711MOL0     C95864   5.023   4.607   4.779  0.2893  0.1263 -0.1780
  711MOL0     C95865   4.878   4.604   4.724 -0.1292  0.0371  0.2233
  711MOL0     C95866   4.764   4.585   4.825  0.8972  0.1515 -1.2601
  711MOL0     N95867   4.627   4.608   4.762 -0.8260  0.0594 -1.0555
  711MOL0     C95868   4.545   4.725   4.749  0.3901 -0.0213 -0.2195
  711MOL0     C95869   4.435   4.675   4.693  0.6103 -0.4088  0.8959
  711MOL0     C95870   4.308   4.755   4.679  0.0343 -0.4727 -0.3745
  711MOL0     C95871   4.222   4.696   4.566  0.6103  0.8412  0.1006
  711MOL0     C95872   4.251   4.764   4.432  0.5087 -1.2201  0.3316
  711MOL0     C95873   4.158   4.737   4.308 -0.3296  0.7667 -0.5897
  711MOL0     O95874   4.158   4.593   4.281  0.1086  0.1762 -0.7431
  711MOL0     C95875   4.027   4.549   4.242 -0.2905 -0.3725  0.3603
  711MOL0     C95876   3.970   4.621   4.135  0.0447  0.1382 -0.7390
  711MOL0     C95877   3.838   4.592   4.096  0.3558 -0.4371 -0.6867
  711MOL0     C95878   3.799   4.661   3.969  0.4397  0.1448 -0.3794
  711MOL0     C95879   3.759   4.517   4.177  0.8513  0.0094 -0.3011
  711MOL0     C95880   3.615   4.495   4.161 -0.4228  0.1367  0.6077
  711MOL0     O95881   3.542   4.451   4.276 -0.2646  0.6305  0.1861
  711MOL0     C95882   3.408   4.451   4.263  0.5981 -0.3062 -0.1533
  711MOL0     C95883   3.341   4.578   4.269 -0.5027 -0.6230 -0.6764
  711MOL0     C95884   3.206   4.598   4.266  0.2511  0.2962  0.2252
  711MOL0     C95885   3.118   4.486   4.246 -0.1630 -0.9863 -0.5408
  711MOL0     O95886   2.986   4.501   4.246 -0.2681 -0.9487  0.0649
  711MOL0     C95887   2.922   4.627   4.209  0.0864 -0.0410 -0.0010
  711MOL0     C95888   2.855   4.679   4.343 -0.4050  0.6177 -0.2406
  711MOL0     C95889   2.749   4.581   4.393  0.0636  0.5636 -0.0042
  711MOL0     C95890   2.694   4.624   4.529  0.1691 -0.4629  0.5518
  711MOL0     C95891   2.586   4.537   4.593 -0.3142  0.4238 -0.7440
  711MOL0     C95892   2.522   4.593   4.724 -0.0420  0.3611  0.1430
  711MOL0     C95893   2.433   4.504   4.811 -0.1319 -0.2233  0.1199
  711MOL0     C95894   2.287   4.512   4.749 -0.0467  0.1129  0.2586
  711MOL0    Cl95895   2.279   4.401   4.606 -0.0281 -0.0680  0.7169
  711MOL0     C95896   3.179   4.359   4.254  0.7667 -0.1493  0.7878
  711MOL0     C95897   3.323   4.346   4.252 -0.2907 -0.3829 -1.5792
  711MOL0     O95898   3.562   4.533   4.053 -0.4584  0.6236 -0.3876
  711MOL0     C95899   3.815   4.452   4.287  0.2953  0.7143  0.2519
  711MOL0     C95900   3.949   4.463   4.322 -0.2868 -0.3388  0.1348
  711MOL0     N95901   4.452   4.538   4.668  0.8359  0.7031  0.8095
  711MOL0     N95902   4.559   4.499   4.725  0.1754 -0.0464 -0.1517
  711MOL0     C95903   5.683   4.758   5.201  0.7014 -0.5394 -0.1510
  711MOL0     C95904   5.785   4.852   5.170 -0.2682  0.6792 -0.8131
  711MOL0     C95905   6.051   5.149   4.972 -0.3289 -0.9328  0.2634
  711MOL0     C95906   6.023   5.153   4.834 -0.0373 -0.2728  0.0475
  711MOL0     C95907   6.112   5.218   4.747 -0.2249 -0.0666  0.1110
  711MOL0     C95908   6.238   5.265   4.785  0.4642 -0.1648 -0.3036
  711MOL0     O95909   6.321   5.339   4.714  0.0593  0.6274  0.8481
  711MOL0     C95910   6.287   5.350   4.569 -0.3603 -0.0858  0.5703
  711MOL0     C95911   6.393   5.429   4.492  0.2447 -0.1348 -0.3200
  711MOL0     C95912   6.537   5.364   4.506  0.0698 -0.2743 -0.8027
  711MOL0     C95913   6.572   5.280   4.375 -0.3645  0.7525 -0.7438
  711MOL0     C95914   6.715   5.247   4.366 -0.2283 -0.3720 -0.2853
  711MOL0     C95915   6.819   5.185   4.360  0.5348  0.4507  0.3542
  711MOL0     C95916   6.267   5.253   4.918 -0.7382 -0.4986 -0.1458
  711MOL0     C95917   6.176   5.207   5.012 -1.0655  0.2593 -0.0833
  711MOL0     H95918   5.580   5.056   4.978  1.0691  1.3262  1.2717
  711MOL0     H95919   5.420   4.888   5.023 -0.5319  0.2776  0.4802
  711MOL0     H95920   5.562   4.516   5.130 -0.8118 -1.0659  2.8628
  711MOL0     H95921   5.387   4.488   5.153 -1.1456  3.1380  1.0565
  711MOL0     H95922   5.479   4.660   4.916 -0.9513  0.6765  2.4042
  711MOL0     H95923   5.478   4.482   4.914  1.0706 -0.8556  1.5511
  711MOL0     H95924   5.230   4.540   5.011  1.8380  1.3340  1.8780
  711MOL0     H95925   5.247   4.684   4.903 -4.0835 -0.3328  1.7897
  711MOL0     H95926   5.280   4.551   4.724 -2.8793 -0.2622 -2.1605
  711MOL0     H95927   5.285   4.399   4.818  0.2156  0.4073 -1.4658
  711MOL0     H95928   5.076   4.432   4.689 -0.5852  4.5006 -3.0777
  711MOL0     H95929   5.054   4.419   4.869 -0.4637  1.9399  0.9801
  711MOL0     H95930   5.024   4.661   4.874 -1.5484  0.5684 -0.3752
  711MOL0     H95931   5.074   4.665   4.702  0.8905 -0.3280 -0.1280
  711MOL0     H95932   4.847   4.686   4.659  2.9578  0.9009 -0.3045
  711MOL0     H95933   4.874   4.517   4.657 -0.7512 -1.8063  2.5069
  711MOL0     H95934   4.759   4.654   4.910  1.9258 -0.7809 -0.4083
  711MOL0     H95935   4.781   4.484   4.863 -0.7601 -0.7789 -2.8325
  711MOL0     H95936   4.555   4.824   4.791  0.9294 -1.1005  2.3937
  711MOL0     H95937   4.256   4.759   4.775  1.5841  0.2238  0.4744
  711MOL0     H95938   4.329   4.858   4.648 -1.7472  0.6090  1.7850
  711MOL0     H95939   4.115   4.713   4.583 -0.1984 -2.9940 -0.2617
  711MOL0     H95940   4.234   4.587   4.559 -2.2839  0.2433  2.1656
  711MOL0     H95941   4.349   4.740   4.389  0.9170  0.2747  0.3832
  711MOL0     H95942   4.250   4.873   4.445  0.0672 -1.1333 -0.3995
  711MOL0     H95943   4.184   4.803   4.224 -0.8714  0.5451 -0.9438
  711MOL0     H95944   4.057   4.761   4.343 -0.8770 -0.6155 -1.1217
  711MOL0     H95945   4.036   4.671   4.064 -0.3542 -0.7389 -1.7575
  711MOL0     H95946   3.709   4.721   3.981  1.3747  1.8841 -1.5805
  711MOL0     H95947   3.878   4.718   3.919  0.2741  0.1289 -0.6643
  711MOL0     H95948   3.782   4.574   3.905  2.7608 -0.4363 -0.3243
  711MOL0     H95949   3.393   4.673   4.281 -4.2916  1.5515  0.2906
  711MOL0     H95950   3.163   4.696   4.279  0.7263  0.4391  0.8022
  711MOL0     H95951   2.982   4.700   4.153 -1.5780  2.1674  0.9503
  711MOL0     H95952   2.843   4.593   4.141  0.6501 -0.2485 -0.5589
  711MOL0     H95953   2.933   4.687   4.420  0.8876 -2.1161 -1.1132
  711MOL0     H95954   2.813   4.779   4.330  0.4783  0.8688 -1.2632
  711MOL0     H95955   2.784   4.481   4.422 -0.9451  0.2973  0.3322
  711MOL0     H95956   2.662   4.562   4.329  1.4289 -2.7407 -1.0691
  711MOL0     H95957   2.770   4.639   4.607  3.0544  1.0805 -2.3164
  711MOL0     H95958   2.653   4.725   4.515  0.6589  0.0265  2.3386
  711MOL0     H95959   2.634   4.439   4.597 -0.3445  0.4479  0.3138
  711MOL0     H95960   2.511   4.534   4.513  1.7366 -1.0253 -2.7649
  711MOL0     H95961   2.608   4.613   4.789 -0.3864 -1.5193  1.2303
  711MOL0     H95962   2.455   4.675   4.697 -1.8267 -0.8475  0.7469
  711MOL0     H95963   2.436   4.550   4.910  0.9326 -1.6608  0.7798
  711MOL0     H95964   2.468   4.401   4.806  1.0739  0.2297 -2.4487
  711MOL0     H95965   2.261   4.614   4.721  0.6666  0.9537  2.4657
  711MOL0     H95966   2.216   4.474   4.824 -1.0485 -1.7015 -1.5103
  711MOL0     H95967   3.125   4.265   4.250  1.0044 -0.3419  1.7988
  711MOL0     H95968   3.372   4.250   4.266 -0.7868 -0.2244  2.3535
  711MOL0     H95969   3.757   4.393   4.357 -1.8242  3.0804  0.6440
  711MOL0     H95970   3.984   4.412   4.411  0.1073  0.2116  0.2977
  711MOL0     H95971   5.694   4.671   5.264 -4.1782  0.7072  3.0354
  711MOL0     H95972   5.884   4.825   5.205 -0.0021  0.8611 -1.4182
  711MOL0     H95973   5.929   5.120   4.790 -1.0894  1.0261  1.2213
  711MOL0     H95974   6.081   5.218   4.643 -1.1293 -2.1032  0.3349
  711MOL0     H95975   6.265   5.252   4.527 -1.1555 -1.6469  4.2668
  711MOL0     H95976   6.196   5.409   4.556  0.5447  1.2261 -0.1147
  711MOL0     H95977   6.393   5.536   4.516 -1.7687  0.1473 -1.3569
  711MOL0     H95978   6.369   5.434   4.385  0.8558  0.0568 -0.4513
  711MOL0     H95979   6.546   5.302   4.596  1.1303 -0.0409 -0.7382
  711MOL0     H95980   6.618   5.436   4.522 -0.0123 -0.7936  2.9810
  711MOL0     H95981   6.535   5.323   4.281 -1.9053  1.1886  0.0296
  711MOL0     H95982   6.512   5.189   4.381  1.6127 -0.4859  2.4901
  711MOL0     H95983   6.914   5.138   4.374  0.5648 -0.0892 -1.4285
  711MOL0     H95984   6.364   5.291   4.948 -1.2141  0.0646  0.7154
  711MOL0     H95985   6.210   5.202   5.115  3.0624 -0.0470 -1.2803
  712MOL0     O95986   6.839  10.314   4.533  0.1297  0.0580  0.0599
  712MOL0     C95987   6.920  10.410   4.550  0.9708  0.8645 -0.0433
  712MOL0     O95988   6.983  10.470   4.445 -0.0237  0.1795 -0.8098
  712MOL0     C95989   6.950  10.433   4.324  0.0255  0.1457  0.8655
  712MOL0     C95990   6.854  10.508   4.250  0.1976 -0.2781 -0.4238
  712MOL0     C95991   6.826  10.468   4.120 -0.0064 -0.1540 -0.1226
  712MOL0     C95992   6.883  10.356   4.054  0.6482 -0.2133 -0.2869
  712MOL0     O95993   6.861  10.334   3.924  0.7549 -1.1035  0.6696
  712MOL0     C95994   6.941  10.246   3.840 -0.3056  1.0754  0.2072
  712MOL0     C95995   7.085  10.290   3.808  0.6336  0.3325  0.2952
  712MOL0     C95996   7.091  10.426   3.736 -0.0475  1.0889  0.3629
  712MOL0     C95997   7.202  10.518   3.794 -1.1748  0.2563  0.0950
  712MOL0     C95998   7.216  10.653   3.709 -0.9555  0.5351  0.2775
  712MOL0     C95999   7.357  10.738   3.722 -0.3999  0.5650 -0.9270
  712MOL0     C96000   7.372  10.848   3.631 -0.5732  0.5711  0.4859
  712MOL0     C96001   7.486  10.942   3.660  0.3931 -0.0971  0.6530
  712MOL0     N96002   7.475  11.056   3.569  0.1080  0.0853 -0.3093
  712MOL0     C96003   7.382  11.154   3.572  0.1177 -0.2988  0.8194
  712MOL0     C96004   7.446  11.259   3.518  0.4707 -0.2064 -0.2645
  712MOL0     C96005   7.405  11.404   3.508  0.1805  0.5641 -0.2514
  712MOL0     C96006   7.258  11.417   3.461 -1.0021 -0.8494  0.1732
  712MOL0     C96007   7.225  11.561   3.417  0.5880  0.0393  0.6360
  712MOL0     C96008   7.080  11.587   3.444 -0.3687 -0.0185 -0.1960
  712MOL0     O96009   7.046  11.718   3.386 -0.0421  0.4958 -1.2171
  712MOL0     C96010   6.942  11.795   3.428 -0.3148  0.6984  0.0050
  712MOL0     C96011   6.921  11.924   3.372  1.2530  1.2781  0.2410
  712MOL0     C96012   6.824  12.019   3.417  0.1698  0.6406 -0.6500
  712MOL0     C96013   6.820  12.148   3.348 -0.6293 -0.7652  0.3841
  712MOL0     C96014   6.760  11.985   3.536 -0.8645 -0.5287 -1.1655
  712MOL0     C96015   6.660  12.064   3.605 -0.9209 -0.1632  0.0758
  712MOL0     O96016   6.690  12.126   3.722 -0.6952  0.0874 -0.5198
  712MOL0     C96017   6.608  12.223   3.775  0.1712  0.4666 -0.1992
  712MOL0     C96018   6.520  12.190   3.888  0.6297 -0.7647 -0.1248
  712MOL0     C96019   6.435  12.283   3.941 -0.0552 -0.4034  0.7108
  712MOL0     C96020   6.442  12.418   3.894  0.5471  0.1710 -0.2733
  712MOL0     O96021   6.370  12.510   3.961 -0.1523  0.7417  0.3544
  712MOL0     C96022   6.286  12.589   3.883  0.2256 -0.0265  0.8625
  712MOL0     C96023   6.159  12.520   3.902  0.1612 -0.0012  0.3280
  712MOL0     C96024   6.051  12.594   3.816 -0.0604  0.6242  0.3120
  712MOL0     C96025   5.991  12.715   3.879  0.2277 -0.1671  0.3253
  712MOL0     C96026   5.931  12.697   4.013  0.0369  0.3682  0.2659
  712MOL0     C96027   5.810  12.606   4.026  0.2220  0.2478 -1.1270
  712MOL0     C96028   5.698  12.643   3.935 -0.0697 -0.7461 -0.8136
  712MOL0     C96029   5.566  12.565   3.960 -0.2523 -0.0424  0.1416
  712MOL0    Cl96030   5.506  12.587   4.124 -0.3295  0.2540 -0.2477
  712MOL0     C96031   6.535  12.455   3.791  1.3254 -0.7544 -0.0370
  712MOL0     C96032   6.615  12.352   3.737 -0.9555 -0.1914  0.0538
  712MOL0     O96033   6.553  12.074   3.546 -0.1607 -0.1490 -0.0128
  712MOL0     C96034   6.776  11.857   3.587  0.3203 -0.0312  0.4485
  712MOL0     C96035   6.855  11.759   3.531  0.3044  0.9343 -0.1669
  712MOL0     N96036   7.566  11.221   3.471  0.6955  0.4172 -0.6735
  712MOL0     N96037   7.585  11.099   3.497  0.5724 -1.0311 -0.3373
  712MOL0     C96038   6.977  10.276   4.139  0.6854 -0.3176  0.2315
  712MOL0     C96039   7.006  10.317   4.266  0.6837 -0.6066 -0.0726
  712MOL0     C96040   6.975  10.418   4.685 -0.7211 -0.2040 -0.3575
  712MOL0     C96041   7.073  10.517   4.706 -1.2417 -0.2492 -0.3434
  712MOL0     C96042   7.133  10.530   4.837  0.7568 -0.5221  0.4053
  712MOL0     C96043   7.102  10.434   4.938  0.7807 -0.1019  1.0370
  712MOL0     O96044   7.152  10.440   5.066  0.0673 -0.0327 -0.2757
  712MOL0     C96045   7.082  10.533   5.154  0.3898 -0.4416  0.0362
  712MOL0     C96046   7.175  10.555   5.280  0.4271  0.1344 -0.4253
  712MOL0     C96047   7.162  10.436   5.387 -0.2841  1.1298  2.1085
  712MOL0     C96048   7.132  10.486   5.521  0.1949 -0.5881  0.3995
  712MOL0     C96049   7.012  10.577   5.528 -1.2064  0.4973  0.2278
  712MOL0     C96050   6.914  10.644   5.530 -0.2984 -0.0421 -0.6077
  712MOL0     C96051   7.000  10.338   4.919 -0.0671 -0.2818 -0.4262
  712MOL0     C96052   6.937  10.335   4.794  0.0602 -0.3058 -0.0773
  712MOL0     H96053   6.813  10.605   4.275  0.2780  0.4088 -2.8053
  712MOL0     H96054   6.768  10.542   4.066  2.0212  1.9310  0.3632
  712MOL0     H96055   6.953  10.152   3.894  0.1474  0.8267 -0.3234
  712MOL0     H96056   6.881  10.230   3.750 -2.2361  1.5572  1.3513
  712MOL0     H96057   7.142  10.282   3.901  1.9528 -0.9010 -0.5812
  712MOL0     H96058   7.129  10.211   3.748  1.2094  1.0482 -0.2374
  712MOL0     H96059   7.134  10.399   3.639  0.3998  1.0946  0.5607
  712MOL0     H96060   6.997  10.482   3.735  1.5234  3.9054  0.7186
  712MOL0     H96061   7.182  10.550   3.897 -1.1421  1.7150 -0.3199
  712MOL0     H96062   7.289  10.452   3.793 -0.3076  1.2918  1.8681
  712MOL0     H96063   7.202  10.631   3.602 -0.0979 -4.4895  0.9504
  712MOL0     H96064   7.139  10.724   3.740 -0.3766  1.6460 -0.7130
  712MOL0     H96065   7.346  10.779   3.823 -1.3485  0.2496 -0.8974
  712MOL0     H96066   7.443  10.670   3.726 -1.3954 -0.7214 -0.6197
  712MOL0     H96067   7.385  10.815   3.527 -1.8626  3.2847 -0.6446
  712MOL0     H96068   7.280  10.908   3.635 -0.5399  0.7157 -0.5205
  712MOL0     H96069   7.579  10.886   3.642  0.6690  1.0965 -2.1041
  712MOL0     H96070   7.464  10.967   3.765 -0.0578  0.4953  0.4202
  712MOL0     H96071   7.288  11.155   3.627  0.4812 -0.5666  1.4516
  712MOL0     H96072   7.419  11.448   3.607  0.5247 -2.2732  1.0401
  712MOL0     H96073   7.467  11.443   3.427 -2.8639 -2.5118 -4.5187
  712MOL0     H96074   7.194  11.381   3.543 -2.6118 -0.6700 -0.9590
  712MOL0     H96075   7.236  11.350   3.378 -0.0517 -1.0980  0.1170
  712MOL0     H96076   7.242  11.581   3.311 -0.9035 -0.2314  0.3295
  712MOL0     H96077   7.291  11.628   3.473  1.9400  1.8246 -2.8059
  712MOL0     H96078   7.082  11.593   3.553 -2.3501  6.0414 -0.1179
  712MOL0     H96079   7.007  11.512   3.412 -2.4962  0.8446  2.3634
  712MOL0     H96080   6.968  11.947   3.277  1.4024  0.3822  0.0937
  712MOL0     H96081   6.777  12.225   3.412 -0.7898 -0.4473 -0.1038
  712MOL0     H96082   6.917  12.183   3.312  1.1206 -3.4814  2.0966
  712MOL0     H96083   6.747  12.145   3.267 -1.9704  0.7548  1.4589
  712MOL0     H96084   6.520  12.089   3.929 -1.9342 -0.9294 -0.3532
  712MOL0     H96085   6.367  12.275   4.025 -1.1902  1.8468  0.0908
  712MOL0     H96086   6.282  12.690   3.924 -0.3992 -0.1677  1.1515
  712MOL0     H96087   6.312  12.597   3.777  0.8705 -0.5181  0.9745
  712MOL0     H96088   6.157  12.416   3.867 -1.4055  0.4310 -0.9622
  712MOL0     H96089   6.126  12.505   4.005  1.1276  0.9658  0.7997
  712MOL0     H96090   5.976  12.523   3.780 -0.1030  0.6989  0.2535
  712MOL0     H96091   6.087  12.630   3.719  0.1044 -0.3402  0.0014
  712MOL0     H96092   6.074  12.785   3.895  0.2369 -0.2418  0.6086
  712MOL0     H96093   5.918  12.765   3.815 -0.9710  0.7006  2.2741
  712MOL0     H96094   5.897  12.791   4.057  2.4926  1.2328  0.4499
  712MOL0     H96095   6.010  12.669   4.083 -0.7962 -1.8694  0.3855
  712MOL0     H96096   5.841  12.500   4.025 -0.5948 -0.1251  2.3730
  712MOL0     H96097   5.779  12.606   4.131  3.2374  3.9274 -0.0009
  712MOL0     H96098   5.739  12.639   3.834 -0.2215 -2.6336 -0.8406
  712MOL0     H96099   5.674  12.742   3.973 -0.6530 -1.7340  1.6528
  712MOL0     H96100   5.595  12.462   3.940 -1.2493  0.0882 -2.3744
  712MOL0     H96101   5.496  12.588   3.880  0.9184 -1.2931 -1.3010
  712MOL0     H96102   6.549  12.559   3.763 -1.8476  0.0768  1.0400
  712MOL0     H96103   6.694  12.393   3.674 -0.8981  0.5402  0.5865
  712MOL0     H96104   6.720  11.855   3.680 -3.1309  1.3834 -1.3878
  712MOL0     H96105   6.872  11.660   3.572  0.1857  0.8670 -0.2808
  712MOL0     H96106   7.021  10.181   4.108  0.8511 -0.2077  0.1337
  712MOL0     H96107   7.068  10.259   4.333  2.1545 -1.0334 -1.7444
  712MOL0     H96108   7.096  10.585   4.624 -0.7444 -1.6991 -1.4464
  712MOL0     H96109   7.202  10.606   4.873  3.4280 -2.5024 -0.1771
  712MOL0     H96110   7.069  10.629   5.104  1.3006  0.8684  2.1642
  712MOL0     H96111   6.984  10.497   5.187  0.0439  0.1573 -0.3238
  712MOL0     H96112   7.161  10.654   5.325  3.0996 -0.5104  2.1893
  712MOL0     H96113   7.275  10.563   5.236 -0.4658  2.3789 -2.2476
  712MOL0     H96114   7.251  10.376   5.407 -0.7333  0.3402  1.8201
  712MOL0     H96115   7.087  10.366   5.347  1.4085  0.1226  0.5172
  712MOL0     H96116   7.220  10.539   5.559  0.2038  1.5095 -2.2235
  712MOL0     H96117   7.124  10.395   5.581 -0.3756  0.2008  1.5654
  712MOL0     H96118   6.823  10.698   5.546  0.2057  0.5089  0.5257
  712MOL0     H96119   6.971  10.275   5.003  0.9563  1.1852  1.0792
  712MOL0     H96120   6.860  10.261   4.777 -0.5509  0.1591  0.6223
  713MOL0     O96121  10.569   4.069   9.197  0.0874  0.0416 -0.5519
  713MOL0     C96122  10.560   3.983   9.113  0.6964 -0.5948 -0.5125
  713MOL0     O96123  10.519   3.858   9.134 -0.5557 -0.8240  0.4834
  713MOL0     C96124  10.500   3.833   9.266  0.5678  0.4737 -0.3074
  713MOL0     C96125  10.593   3.754   9.334  0.6048 -0.2092 -0.6807
  713MOL0     C96126  10.571   3.717   9.466 -0.3772 -0.0834  0.0000
  713MOL0     C96127  10.458   3.758   9.524 -1.3348  0.0878 -0.9386
  713MOL0     O96128  10.436   3.741   9.661  0.4161  0.2481  0.0662
  713MOL0     C96129  10.473   3.637   9.740  1.1045 -0.0864 -1.0911
  713MOL0     C96130  10.602   3.669   9.821  0.2945  0.7065 -0.1099
  713MOL0     C96131  10.623   3.576   9.943 -1.0690 -0.8602 -0.7844
  713MOL0     C96132  10.495   3.538  10.028  0.0850 -1.2128 -0.0898
  713MOL0     C96133  10.521   3.451  10.152  0.3774 -0.0103 -0.1294
  713MOL0     C96134  10.626   3.502  10.253  0.0261  0.5573  0.2523
  713MOL0     C96135  10.758   3.432  10.220  0.6001  0.6020 -0.6751
  713MOL0     C96136  10.758   3.282  10.261 -0.4624  0.5329  1.0305
  713MOL0     N96137  10.701   3.250  10.394  0.3442  1.1838  0.1154
  713MOL0     C96138  10.776   3.258  10.502 -0.1700  0.3005 -0.2053
  713MOL0     C96139  10.693   3.219  10.600 -0.5309  0.0483  0.1685
  713MOL0     C96140  10.709   3.213  10.746 -0.2441  0.4830  0.2003
  713MOL0     C96141  10.688   3.070  10.800  0.4440 -1.2067  0.8121
  713MOL0     C96142  10.786   2.967  10.734 -0.3603 -0.2561  0.1411
  713MOL0     C96143  10.864   2.880  10.835  0.3035 -0.9264  0.6242
  713MOL0     O96144  10.927   2.965  10.930  0.4219 -0.5490  0.7798
  713MOL0     C96145  10.981   2.897  11.043  0.9312  0.4059  0.7748
  713MOL0     C96146  10.945   2.926  11.171  0.1331  0.9017 -0.0545
  713MOL0     C96147  11.007   2.857  11.278 -0.1651  0.1327  0.5738
  713MOL0     C96148  10.982   2.900  11.420  0.0455 -0.5158  0.3488
  713MOL0     C96149  11.095   2.755  11.249  0.0767  1.2975 -0.2018
  713MOL0     C96150  11.153   2.643  11.344  0.0568 -0.4127  0.0292
  713MOL0     O96151  11.281   2.616  11.320 -0.0264  0.1566 -0.2920
  713MOL0     C96152  11.349   2.519  11.398  0.2893  0.4889 -1.4665
  713MOL0     C96153  11.321   2.381  11.393 -0.4302 -0.4189 -0.4679
  713MOL0     C96154  11.399   2.274  11.451  0.5579 -0.0616  0.0743
  713MOL0     C96155  11.508   2.310  11.540 -0.1694 -0.2170 -0.6074
  713MOL0     O96156  11.595   2.229  11.606  0.4715  0.7255  0.4332
  713MOL0     C96157  11.597   2.088  11.592  0.1184  0.1718 -1.0048
  713MOL0     C96158  11.689   2.033  11.480 -0.7925  0.7577 -0.9717
  713MOL0     C96159  11.834   2.065  11.509  0.0491  0.6066  0.7989
  713MOL0     C96160  11.930   2.013  11.400  0.4408 -0.1728 -0.0763
  713MOL0     C96161  11.921   2.073  11.266  0.1601 -0.8975 -0.8707
  713MOL0     C96162  12.038   2.039  11.174 -0.0169 -0.0192  1.1885
  713MOL0     C96163  12.004   2.086  11.031  1.0337  0.9732  0.3181
  713MOL0     C96164  12.121   2.040  10.944  0.2763 -1.2092  0.6458
  713MOL0    Cl96165  12.089   2.081  10.774 -0.1170  0.1423 -0.5965
  713MOL0     C96166  11.529   2.449  11.552 -0.0423 -0.9615  0.4858
  713MOL0     C96167  11.458   2.552  11.489 -0.3786 -1.2214  0.4477
  713MOL0     O96168  11.082   2.591  11.426  0.7614  0.5663 -0.3446
  713MOL0     C96169  11.138   2.737  11.117 -0.1968  0.2881 -0.0327
  713MOL0     C96170  11.080   2.806  11.007 -0.9641 -1.0335 -0.3588
  713MOL0     N96171  10.572   3.185  10.539 -0.0672  0.2809 -0.6553
  713MOL0     N96172  10.575   3.204  10.421 -0.1484  0.5286  0.1453
  713MOL0     C96173  10.366   3.843   9.469 -0.5868  0.1539 -0.1446
  713MOL0     C96174  10.380   3.876   9.339  0.1569  0.1220 -0.3384
  713MOL0     C96175  10.601   4.015   8.973  0.5632 -0.4157  0.1911
  713MOL0     C96176  10.620   3.911   8.877  0.1141 -0.3944 -0.4533
  713MOL0     C96177  10.655   3.946   8.747  0.6554 -0.5458 -1.2512
  713MOL0     C96178  10.668   4.080   8.703  0.4784 -1.1734 -1.0325
  713MOL0     O96179  10.694   4.135   8.575 -0.1800  0.1689 -0.4076
  713MOL0     C96180  10.687   4.043   8.463 -0.1224  0.2613  0.2290
  713MOL0     C96181  10.699   4.117   8.318  0.5545 -0.2395 -0.9075
  713MOL0     C96182  10.608   4.242   8.305 -0.7087  0.4438 -1.3493
  713MOL0     C96183  10.467   4.200   8.259  0.1341 -1.1544  0.5954
  713MOL0     C96184  10.457   4.219   8.114 -0.0189  0.7102  0.3076
  713MOL0     C96185  10.443   4.238   7.993 -0.7036  0.0291 -0.0730
  713MOL0     C96186  10.683   4.168   8.811  0.5379  0.4790 -0.8252
  713MOL0     C96187  10.650   4.139   8.943 -0.3768  0.0355 -0.3181
  713MOL0     H96188  10.684   3.718   9.287 -0.6776 -2.8143 -1.3627
  713MOL0     H96189  10.657   3.667   9.510  0.7881  1.3085 -0.5964
  713MOL0     H96190  10.390   3.627   9.810  0.9358  1.5226 -1.0252
  713MOL0     H96191  10.478   3.547   9.678  1.2041 -1.5229  0.9151
  713MOL0     H96192  10.683   3.631   9.757 -3.2117 -3.3384 -2.7354
  713MOL0     H96193  10.633   3.773   9.827  0.4896  0.6604 -0.2739
  713MOL0     H96194  10.666   3.485   9.900  3.0347  0.2004  0.7075
  713MOL0     H96195  10.699   3.614  10.011 -2.5565  0.2332  0.3235
  713MOL0     H96196  10.446   3.627  10.067 -3.1169 -3.1302  0.6286
  713MOL0     H96197  10.424   3.483   9.966  1.2752 -2.3336 -0.5026
  713MOL0     H96198  10.420   3.448  10.194  1.4321 -0.2133  2.5639
  713MOL0     H96199  10.541   3.351  10.112 -1.0110  1.0486 -3.9064
  713MOL0     H96200  10.614   3.611  10.251  1.9969  0.8123 -2.3931
  713MOL0     H96201  10.606   3.471  10.356  2.8245  0.2380  0.7726
  713MOL0     H96202  10.786   3.446  10.115 -0.3719  2.7794 -0.6871
  713MOL0     H96203  10.820   3.494  10.286 -0.7281  1.4216 -0.1468
  713MOL0     H96204  10.854   3.232  10.247  0.7919  2.4158  2.4699
  713MOL0     H96205  10.696   3.230  10.187  0.5471  1.5175 -0.5425
  713MOL0     H96206  10.881   3.284  10.509 -0.1819  0.1299  0.8552
  713MOL0     H96207  10.814   3.231  10.770  0.0467 -0.4074 -0.3651
  713MOL0     H96208  10.645   3.288  10.795 -0.4016 -0.0657  0.8543
  713MOL0     H96209  10.581   3.054  10.784  0.0057  1.1610  1.1034
  713MOL0     H96210  10.706   3.092  10.906  1.7466 -0.8711  0.5416
  713MOL0     H96211  10.856   3.017  10.667 -1.0840  0.2511 -0.2464
  713MOL0     H96212  10.729   2.907  10.663  2.2781 -1.1358 -1.3943
  713MOL0     H96213  10.935   2.815  10.782 -1.3887 -2.1673 -0.1905
  713MOL0     H96214  10.786   2.827  10.890  0.4530 -1.2927  0.4833
  713MOL0     H96215  10.873   3.006  11.187 -0.9139  0.2253 -1.2728
  713MOL0     H96216  10.997   2.820  11.493  2.6407  1.1033  1.7064
  713MOL0     H96217  11.046   2.987  11.432  0.3795  0.0492 -3.8425
  713MOL0     H96218  10.882   2.943  11.425  1.7218  3.9522 -0.4385
  713MOL0     H96219  11.233   2.340  11.344 -0.3963 -3.4849  1.7221
  713MOL0     H96220  11.365   2.173  11.429  2.3031 -0.3369 -1.6286
  713MOL0     H96221  11.632   2.030  11.678 -2.5469 -2.8110 -1.7545
  713MOL0     H96222  11.492   2.060  11.581 -0.1080  0.0559  1.0405
  713MOL0     H96223  11.678   1.928  11.455  0.9486  0.4613 -0.6303
  713MOL0     H96224  11.670   2.091  11.389 -0.4445 -0.9061 -2.1330
  713MOL0     H96225  11.870   2.037  11.608 -0.2884  2.1272  1.3802
  713MOL0     H96226  11.854   2.172  11.502 -3.9536  1.5305  0.9412
  713MOL0     H96227  12.030   2.038  11.435  0.1957 -0.5622  0.9155
  713MOL0     H96228  11.941   1.904  11.407 -0.0781 -0.2555 -0.4637
  713MOL0     H96229  11.911   2.181  11.272  2.0868 -0.7772  1.7780
  713MOL0     H96230  11.827   2.026  11.234 -2.0005  0.6277  2.6246
  713MOL0     H96231  12.128   2.095  11.201  1.1855 -2.2164  2.0134
  713MOL0     H96232  12.053   1.931  11.166  3.0062  0.4423 -2.2627
  713MOL0     H96233  11.988   2.194  11.027 -2.5064  0.5650  0.1885
  713MOL0     H96234  11.911   2.043  10.992  1.7445  0.9613 -1.4721
  713MOL0     H96235  12.127   1.931  10.957  1.5123 -1.1611  0.5602
  713MOL0     H96236  12.202   2.103  10.980  0.4415 -1.7278  1.2073
  713MOL0     H96237  11.625   2.480  11.593 -1.3264 -0.1548  3.0417
  713MOL0     H96238  11.488   2.656  11.482  1.8564 -1.8443 -0.3274
  713MOL0     H96239  11.202   2.654  11.088 -1.8682 -0.6291 -1.2607
  713MOL0     H96240  11.121   2.806  10.906  2.1809 -2.5061  0.7882
  713MOL0     H96241  10.272   3.870   9.517 -1.4662  0.5569 -1.9924
  713MOL0     H96242  10.309   3.927   9.275  1.3740 -1.4595 -3.1398
  713MOL0     H96243  10.608   3.804   8.889  5.1273 -1.0740  0.5570
  713MOL0     H96244  10.667   3.867   8.673  1.2542 -0.4430 -1.2750
  713MOL0     H96245  10.765   3.965   8.469  2.1661  2.4647  1.1837
  713MOL0     H96246  10.586   4.002   8.457  0.9958 -2.7046 -0.1370
  713MOL0     H96247  10.695   4.040   8.241  1.7118 -1.2538 -0.0006
  713MOL0     H96248  10.802   4.153   8.313  0.6755 -0.6747 -1.9089
  713MOL0     H96249  10.657   4.310   8.235 -1.0063  2.0269 -0.0835
  713MOL0     H96250  10.595   4.292   8.401 -1.0369 -2.3975  0.2050
  713MOL0     H96251  10.400   4.269   8.312  1.8326 -0.1838  1.5619
  713MOL0     H96252  10.439   4.098   8.285 -1.6420 -0.4340  1.7009
  713MOL0     H96253  10.410   4.231   7.891 -2.4923 -1.8378  0.5819
  713MOL0     H96254  10.708   4.270   8.786  3.2568  0.1154  0.0754
  713MOL0     H96255  10.664   4.214   9.020  0.5938 -0.9942  0.5554
  714MOL0     O96256   1.403  10.605   1.582  0.0567 -0.3373 -0.0349
  714MOL0     C96257   1.416  10.521   1.500 -0.3958  0.1462 -0.1607
  714MOL0     O96258   1.353  10.511   1.381  0.2512 -0.1985 -0.2764
  714MOL0     C96259   1.267  10.611   1.347  0.8373  0.1837  1.1573
  714MOL0     C96260   1.306  10.684   1.227  0.3723  0.0096  0.2124
  714MOL0     C96261   1.218  10.768   1.158  0.9804 -0.0832 -0.1586
  714MOL0     C96262   1.081  10.776   1.205 -0.2488  0.4043 -0.7189
  714MOL0     O96263   0.984  10.848   1.145  0.7220  0.3142  1.0405
  714MOL0     C96264   0.996  10.881   1.004  0.2172  0.0025  0.0089
  714MOL0     C96265   0.857  10.928   0.953 -0.3730  0.3380  0.1421
  714MOL0     C96266   0.805  11.050   1.032 -0.9530  0.3357 -0.0748
  714MOL0     C96267   0.653  11.054   1.026 -0.4328  0.0609  0.4492
  714MOL0     C96268   0.585  11.167   1.104  0.6127  0.3321 -0.2798
  714MOL0     C96269   0.434  11.142   1.119  0.0752  0.6343  0.3184
  714MOL0     C96270   0.352  11.246   1.187  0.5504 -0.4379 -0.3746
  714MOL0     C96271   0.317  11.366   1.102  0.8493 -0.7681 -0.8854
  714MOL0     N96272   0.255  11.483   1.170 -0.7931 -0.1119 -0.1511
  714MOL0     C96273   0.126  11.498   1.198 -0.4358 -0.7327  0.1609
  714MOL0     C96274   0.110  11.616   1.264 -0.2794 -0.0277 -0.0823
  714MOL0     C96275   0.001  11.663   1.351  0.8575  0.1201 -0.8815
  714MOL0     C96276  -0.121  11.730   1.277  0.3142 -0.5422  0.1171
  714MOL0     C96277  -0.219  11.815   1.369  1.0148  0.9739  0.6657
  714MOL0     C96278  -0.333  11.861   1.275 -1.0017 -0.8206 -0.0654
  714MOL0     O96279  -0.320  11.995   1.222 -0.1278 -0.1705 -1.0540
  714MOL0     C96280  -0.428  12.068   1.198  0.6864 -0.9805 -0.6541
  714MOL0     C96281  -0.423  12.207   1.186  0.6125  0.3099 -0.9129
  714MOL0     C96282  -0.533  12.290   1.191 -0.1105  1.1384 -0.3658
  714MOL0     C96283  -0.509  12.435   1.217 -0.5389 -0.3589 -0.0538
  714MOL0     C96284  -0.661  12.232   1.174  1.0763  0.1025  0.1913
  714MOL0     C96285  -0.787  12.310   1.171 -1.2634 -0.5643 -0.9589
  714MOL0     O96286  -0.779  12.453   1.177 -0.2773  0.8330  1.2157
  714MOL0     C96287  -0.896  12.521   1.172  1.2609 -0.0857  0.5667
  714MOL0     C96288  -0.968  12.532   1.053  0.3471 -0.6868 -0.0606
  714MOL0     C96289  -1.088  12.591   1.044  0.1593  0.0250  0.3418
  714MOL0     C96290  -1.143  12.652   1.160  0.2647 -1.0160 -0.0076
  714MOL0     O96291  -1.261  12.715   1.136 -0.4184 -0.0791 -0.0227
  714MOL0     C96292  -1.314  12.799   1.239 -0.5766 -0.4326  0.9789
  714MOL0     C96293  -1.440  12.868   1.178  0.3070  0.4000 -0.2341
  714MOL0     C96294  -1.398  12.966   1.072 -0.6541 -0.7098  0.2236
  714MOL0     C96295  -1.516  13.007   0.996 -0.9829  0.4165  0.6863
  714MOL0     C96296  -1.500  13.136   0.916 -0.1412 -1.0338  1.2342
  714MOL0     C96297  -1.624  13.118   0.813 -1.3426 -0.4623  0.1971
  714MOL0     C96298  -1.634  13.243   0.723 -0.3461  0.6689  0.9156
  714MOL0     C96299  -1.516  13.249   0.615  0.6939  0.3449  0.8762
  714MOL0    Cl96300  -1.534  13.383   0.505 -0.2350 -0.2447 -0.0075
  714MOL0     C96301  -1.065  12.665   1.279  0.7247  0.2001  0.7372
  714MOL0     C96302  -0.946  12.587   1.294  0.1577 -1.0784  0.7131
  714MOL0     O96303  -0.893  12.254   1.163  0.4693  0.6972  0.0408
  714MOL0     C96304  -0.668  12.090   1.165 -0.3840  0.1021 -0.1632
  714MOL0     C96305  -0.551  12.008   1.171  0.3694 -0.3940 -0.1148
  714MOL0     N96306   0.237  11.680   1.271  0.8955 -0.0111 -0.1040
  714MOL0     N96307   0.318  11.600   1.213  0.7612  0.6049 -0.5395
  714MOL0     C96308   1.050  10.710   1.322  0.4525  0.4689  0.3616
  714MOL0     C96309   1.142  10.631   1.397 -0.1876 -0.3983  0.3909
  714MOL0     C96310   1.511  10.410   1.510  0.3991 -0.2907  1.1059
  714MOL0     C96311   1.565  10.388   1.641  0.5192  0.1609 -0.1441
  714MOL0     C96312   1.647  10.275   1.661  0.0420 -0.3308  0.3258
  714MOL0     C96313   1.674  10.190   1.558 -0.4639 -1.5538  0.4084
  714MOL0     O96314   1.758  10.085   1.590  0.2527 -0.0170  0.0513
  714MOL0     C96315   1.699   9.954   1.598  0.3930 -0.3492  0.9064
  714MOL0     C96316   1.572   9.928   1.683 -0.2313  0.0031 -1.0977
  714MOL0     C96317   1.590   9.943   1.840  0.1500  0.2962  0.5467
  714MOL0     C96318   1.490   9.865   1.923  0.1189 -0.6769 -0.2808
  714MOL0     C96319   1.359   9.935   1.920 -0.0857  0.2196  0.4395
  714MOL0     C96320   1.253   9.993   1.927 -0.6632  0.4725  0.0376
  714MOL0     C96321   1.631  10.209   1.429 -0.5582  0.2649  0.2808
  714MOL0     C96322   1.550  10.318   1.402  0.0860 -0.8398 -0.6062
  714MOL0     H96323   1.397  10.656   1.175 -0.5668 -0.4054 -1.2622
  714MOL0     H96324   1.251  10.817   1.067 -1.2480 -1.4442 -1.8358
  714MOL0     H96325   1.054  10.974   0.993  0.0186  0.1695  0.3367
  714MOL0     H96326   1.037  10.806   0.936 -2.2450  0.1361 -1.7245
  714MOL0     H96327   0.868  10.937   0.845  1.4133 -0.1191  0.2442
  714MOL0     H96328   0.783  10.853   0.983 -1.7008  2.2226  1.8139
  714MOL0     H96329   0.835  11.049   1.137 -1.6903  2.8800  0.2208
  714MOL0     H96330   0.843  11.145   0.993  1.5254 -1.1931 -1.6455
  714MOL0     H96331   0.624  11.062   0.921  1.4701  2.5043  0.0069
  714MOL0     H96332   0.614  10.960   1.066  1.9562 -2.7400 -3.0863
  714MOL0     H96333   0.618  11.169   1.208  0.3000  0.6285 -0.1850
  714MOL0     H96334   0.599  11.263   1.053  0.7916 -1.0849 -3.1222
  714MOL0     H96335   0.402  11.110   1.020  0.1077  0.0404  0.4936
  714MOL0     H96336   0.415  11.046   1.169 -2.2205  0.9398  0.1156
  714MOL0     H96337   0.251  11.222   1.221 -0.3947  1.5173 -1.6253
  714MOL0     H96338   0.407  11.278   1.277  0.8904 -0.3051 -0.6277
  714MOL0     H96339   0.240  11.336   1.029  2.5321  0.2973 -3.2395
  714MOL0     H96340   0.409  11.395   1.051  0.5262 -0.9963 -1.6232
  714MOL0     H96341   0.058  11.416   1.216 -0.5907 -0.0527  3.3203
  714MOL0     H96342  -0.028  11.576   1.412 -2.1297  2.4821  1.3664
  714MOL0     H96343   0.049  11.734   1.419 -0.1991 -0.8963  1.0174
  714MOL0     H96344  -0.181  11.660   1.217 -1.1369  1.0257 -0.3288
  714MOL0     H96345  -0.073  11.795   1.203 -2.6620 -0.1615 -1.6689
  714MOL0     H96346  -0.167  11.908   1.394  2.4036  1.1006 -2.3512
  714MOL0     H96347  -0.247  11.754   1.456 -0.9058 -1.0900 -1.2735
  714MOL0     H96348  -0.429  11.866   1.328  0.5149  1.1270  2.7583
  714MOL0     H96349  -0.343  11.795   1.189  0.3660  0.6558 -1.4104
  714MOL0     H96350  -0.328  12.257   1.176  1.3306 -0.7858  0.1213
  714MOL0     H96351  -0.557  12.497   1.140  0.6907 -1.3282 -1.6659
  714MOL0     H96352  -0.556  12.457   1.313  0.3044 -0.6487  0.4380
  714MOL0     H96353  -0.407  12.471   1.236 -1.2792  1.3687  0.8441
  714MOL0     H96354  -0.927  12.479   0.967  1.9713 -0.2377  0.3912
  714MOL0     H96355  -1.147  12.595   0.953  2.4066 -0.5764 -1.2205
  714MOL0     H96356  -1.345  12.738   1.323  0.6934 -1.0716  1.0115
  714MOL0     H96357  -1.237  12.868   1.275 -1.1040  1.1302 -0.7333
  714MOL0     H96358  -1.511  12.796   1.137 -2.3296  2.1083  1.0348
  714MOL0     H96359  -1.481  12.921   1.265  0.7662  0.1460  0.1428
  714MOL0     H96360  -1.323  12.924   1.005  2.2327  3.7711  0.1794
  714MOL0     H96361  -1.354  13.053   1.124  0.3492 -0.0264 -1.6755
  714MOL0     H96362  -1.535  12.928   0.923  4.3261 -0.4417 -0.1484
  714MOL0     H96363  -1.601  13.013   1.065 -1.0092 -1.7079  0.8915
  714MOL0     H96364  -1.408  13.143   0.858 -0.1227 -0.6495  1.3100
  714MOL0     H96365  -1.510  13.217   0.989  1.6949 -1.5558  2.1078
  714MOL0     H96366  -1.612  13.029   0.751  1.3661  0.1816 -0.3373
  714MOL0     H96367  -1.714  13.125   0.875  0.8466  2.8164  3.4411
  714MOL0     H96368  -1.624  13.329   0.790  1.2087  3.0701 -2.1764
  714MOL0     H96369  -1.728  13.237   0.668 -1.5581 -1.9483  3.0442
  714MOL0     H96370  -1.508  13.155   0.559 -0.9990  2.2341 -2.9048
  714MOL0     H96371  -1.424  13.283   0.663  1.2605 -0.1428  0.1532
  714MOL0     H96372  -1.103  12.718   1.365 -0.2769 -3.1910  2.5751
  714MOL0     H96373  -0.894  12.577   1.389 -0.7255  1.1840  1.4907
  714MOL0     H96374  -0.767  12.043   1.164 -2.1131  3.4744 -0.7469
  714MOL0     H96375  -0.565  11.901   1.174 -2.2812 -0.0820  2.3416
  714MOL0     H96376   0.944  10.709   1.345 -0.9124  1.3720 -4.6988
  714MOL0     H96377   1.109  10.585   1.490 -2.3679  0.6050  0.1736
  714MOL0     H96378   1.531  10.451   1.722  2.0028  1.6961 -0.6698
  714MOL0     H96379   1.688  10.273   1.762  4.8229 -1.5051 -1.3514
  714MOL0     H96380   1.676   9.932   1.493  2.9028 -0.1505  0.2358
  714MOL0     H96381   1.774   9.880   1.627  0.7295 -0.7056 -0.7766
  714MOL0     H96382   1.537   9.825   1.677  2.1847 -0.8882 -1.0060
  714MOL0     H96383   1.495   9.999   1.652  2.3619  2.5596 -2.0498
  714MOL0     H96384   1.583  10.050   1.863  0.9387  0.0043  2.3284
  714MOL0     H96385   1.691   9.918   1.876  0.3601  1.0675  0.5129
  714MOL0     H96386   1.513   9.873   2.030 -3.0127 -4.9165  0.9938
  714MOL0     H96387   1.485   9.757   1.904  2.5060 -1.5200  2.9942
  714MOL0     H96388   1.164  10.052   1.941 -0.2511  1.3434 -0.8757
  714MOL0     H96389   1.654  10.136   1.352  0.7016 -1.2526  2.0085
  714MOL0     H96390   1.510  10.345   1.305 -0.5506  0.2376 -0.0618
  715MOL0     O96391   3.929   3.997   8.529 -0.0162  0.0775 -0.4732
  715MOL0     C96392   4.010   4.068   8.586  0.2400 -1.0657  0.0638
  715MOL0     O96393   4.004   4.090   8.714  0.0406  0.1751 -0.1634
  715MOL0     C96394   3.888   4.043   8.775  0.3635 -0.1703  0.0038
  715MOL0     C96395   3.906   3.965   8.895  0.5366  0.9226 -0.5723
  715MOL0     C96396   3.789   3.936   8.975 -0.5670 -0.3839 -0.1359
  715MOL0     C96397   3.657   3.974   8.942 -0.3179  0.2378  0.3046
  715MOL0     O96398   3.556   3.953   9.035  0.2429 -0.0200 -0.5705
  715MOL0     C96399   3.476   4.075   9.071 -0.2575 -0.4210  0.9036
  715MOL0     C96400   3.561   4.204   9.097 -0.5047 -0.5441  0.8093
  715MOL0     C96401   3.555   4.247   9.246  0.2129  0.1568 -0.3413
  715MOL0     C96402   3.623   4.373   9.286 -0.7129  0.8551  0.7061
  715MOL0     C96403   3.600   4.409   9.434  0.1638  0.4940 -0.2829
  715MOL0     C96404   3.718   4.502   9.478 -0.5276  0.3664 -0.5173
  715MOL0     C96405   3.715   4.558   9.622 -0.0625 -0.3332  0.4454
  715MOL0     C96406   3.817   4.680   9.661 -0.3960 -0.6780 -0.4352
  715MOL0     N96407   3.788   4.739   9.796  0.4289  0.4980 -0.2040
  715MOL0     C96408   3.804   4.870   9.842  0.1754  0.0662 -0.5089
  715MOL0     C96409   3.773   4.882   9.974  0.1439 -0.2363  0.6834
  715MOL0     C96410   3.802   4.983  10.073 -0.7243 -0.4368  0.9275
  715MOL0     C96411   3.680   5.072  10.114 -0.1978 -0.4560  0.5898
  715MOL0     C96412   3.656   5.206  10.032  0.0446  0.3627 -0.7609
  715MOL0     C96413   3.499   5.244  10.061 -0.4905 -0.1047  0.3642
  715MOL0     O96414   3.416   5.173   9.962  0.0397 -0.0936 -0.0010
  715MOL0     C96415   3.276   5.194   9.960  0.3663 -0.1995  0.4128
  715MOL0     C96416   3.188   5.181  10.072 -0.4583 -0.1085  1.1815
  715MOL0     C96417   3.054   5.166  10.067  0.3837 -0.4392  0.2529
  715MOL0     C96418   2.987   5.139  10.206 -0.1695 -0.4157  0.7867
  715MOL0     C96419   2.988   5.171   9.939 -0.8055 -0.4700 -0.1949
  715MOL0     C96420   2.839   5.165   9.930  0.3922  0.2438 -0.7822
  715MOL0     O96421   2.787   5.141   9.809 -1.3071  0.9785  0.2844
  715MOL0     C96422   2.661   5.172   9.786 -0.0676 -0.3255 -0.2838
  715MOL0     C96423   2.625   5.290   9.713 -0.2888  0.4931 -0.1498
  715MOL0     C96424   2.486   5.326   9.699  0.3736 -0.9687  0.1796
  715MOL0     C96425   2.384   5.240   9.747 -0.3932 -0.3176  0.0204
  715MOL0     O96426   2.260   5.285   9.747 -0.0045 -0.5620 -0.5876
  715MOL0     C96427   2.178   5.252   9.859  0.2400 -1.0833  0.2067
  715MOL0     C96428   2.042   5.316   9.827 -0.0590 -0.5255 -0.2338
  715MOL0     C96429   1.972   5.255   9.705 -0.2239  0.3851  0.6905
  715MOL0     C96430   1.954   5.102   9.686 -0.1461 -0.4645 -0.9163
  715MOL0     C96431   1.834   5.067   9.607  0.2048 -0.0002  0.4860
  715MOL0     C96432   1.701   5.127   9.655  0.3279 -0.4744 -0.3214
  715MOL0     C96433   1.659   5.081   9.797  0.0089  0.0856 -0.5368
  715MOL0     C96434   1.554   5.173   9.875  0.1533  0.7061 -0.2327
  715MOL0    Cl96435   1.385   5.156   9.817  0.0114 -0.1989 -0.1276
  715MOL0     C96436   2.427   5.122   9.807  0.8080 -0.5270  0.7635
  715MOL0     C96437   2.556   5.086   9.829  0.0350 -0.3833 -0.4612
  715MOL0     O96438   2.772   5.207  10.020 -0.7336 -0.8243 -0.0097
  715MOL0     C96439   3.070   5.180   9.816  0.6535  0.1777 -0.3441
  715MOL0     C96440   3.202   5.187   9.837 -1.1543 -0.4045 -0.7619
  715MOL0     N96441   3.726   4.756  10.009 -0.7611  0.7455  0.2826
  715MOL0     N96442   3.736   4.678   9.905 -0.7343  0.7879 -0.1850
  715MOL0     C96443   3.648   4.051   8.820  0.0946 -0.4187  0.2095
  715MOL0     C96444   3.762   4.081   8.741 -0.1282  0.9091 -0.1589
  715MOL0     C96445   4.126   4.116   8.500  1.0951 -1.3199  0.2061
  715MOL0     C96446   4.136   4.093   8.362  0.6825  0.5540 -0.9989
  715MOL0     C96447   4.241   4.149   8.283  0.0349  0.6211 -0.2351
  715MOL0     C96448   4.339   4.225   8.341  0.6234 -0.1449 -0.4711
  715MOL0     O96449   4.445   4.272   8.266 -0.8490  0.1411 -0.4121
  715MOL0     C96450   4.564   4.193   8.272 -0.2094 -0.2328 -0.1994
  715MOL0     C96451   4.560   4.059   8.190 -0.3968 -0.0626 -0.0174
  715MOL0     C96452   4.572   4.084   8.037  0.3925 -0.1262  0.2453
  715MOL0     C96453   4.447   4.122   7.968  0.2549 -0.7335  0.5767
  715MOL0     C96454   4.474   4.136   7.827  0.2237 -0.2814  0.7666
  715MOL0     C96455   4.493   4.150   7.707  0.3605  0.1337 -0.6313
  715MOL0     C96456   4.338   4.251   8.477 -0.4014 -0.5101 -0.9150
  715MOL0     C96457   4.223   4.198   8.559  0.9781 -0.8845  0.0962
  715MOL0     H96458   4.004   3.930   8.926 -1.0972 -1.8190  2.1385
  715MOL0     H96459   3.808   3.896   9.074  2.0728  3.6091  1.1986
  715MOL0     H96460   3.419   4.100   8.981  2.0810 -1.4728 -0.9790
  715MOL0     H96461   3.416   4.046   9.159 -1.7118 -1.4268 -0.3599
  715MOL0     H96462   3.667   4.179   9.089 -0.0150  1.5829  0.2389
  715MOL0     H96463   3.537   4.281   9.024  0.4709 -2.2180 -1.3722
  715MOL0     H96464   3.448   4.254   9.269  0.1466  1.7357 -1.0275
  715MOL0     H96465   3.598   4.165   9.304  4.6779  0.8173 -2.3421
  715MOL0     H96466   3.728   4.358   9.262 -1.1832  1.8604 -2.4434
  715MOL0     H96467   3.593   4.452   9.217 -1.4517  1.0995  1.2904
  715MOL0     H96468   3.504   4.457   9.455  1.8125  3.5990  0.7682
  715MOL0     H96469   3.609   4.318   9.494  0.8099 -0.4477 -1.7182
  715MOL0     H96470   3.811   4.447   9.465 -1.1355 -0.3685 -2.0160
  715MOL0     H96471   3.717   4.585   9.406 -1.6501  1.3731  0.6202
  715MOL0     H96472   3.610   4.588   9.638 -0.0413  0.6858 -1.1343
  715MOL0     H96473   3.717   4.470   9.687 -2.6292 -1.9189 -1.4238
  715MOL0     H96474   3.815   4.749   9.577 -3.7165 -0.3755 -0.2520
  715MOL0     H96475   3.912   4.626   9.657 -0.4082 -0.6671 -3.6093
  715MOL0     H96476   3.836   4.955   9.783  0.2453  1.8675  1.9264
  715MOL0     H96477   3.850   4.938  10.160  0.3167 -0.2933  0.4500
  715MOL0     H96478   3.882   5.050  10.038 -1.7026  0.9870  1.3268
  715MOL0     H96479   3.693   5.098  10.220  1.3243 -0.1033  0.3427
  715MOL0     H96480   3.594   5.008  10.097 -1.0136  0.5332  0.9131
  715MOL0     H96481   3.667   5.180   9.926  3.4129  0.3707 -0.5264
  715MOL0     H96482   3.736   5.270  10.071  0.2949 -0.5822  0.2879
  715MOL0     H96483   3.497   5.352  10.046  1.4357 -0.2749 -1.8358
  715MOL0     H96484   3.478   5.210  10.163  1.5637  0.5558  1.0428
  715MOL0     H96485   3.241   5.160  10.165 -2.2278  1.0679  2.5275
  715MOL0     H96486   2.901   5.077  10.181 -0.9117  1.0317 -0.4475
  715MOL0     H96487   3.052   5.093  10.281  0.9836 -1.6045 -0.8519
  715MOL0     H96488   2.947   5.237  10.235 -0.3745 -0.3156  0.1968
  715MOL0     H96489   2.715   5.342   9.681  0.8554  1.2510  3.7239
  715MOL0     H96490   2.460   5.404   9.629 -1.8846 -2.5000 -0.8129
  715MOL0     H96491   2.153   5.147   9.874 -2.1692 -0.3715  1.7853
  715MOL0     H96492   2.222   5.300   9.947  0.1863 -4.7246  2.4131
  715MOL0     H96493   1.972   5.297   9.909  0.1842 -0.2142  0.0492
  715MOL0     H96494   2.049   5.425   9.816 -1.2207 -0.4510 -0.3728
  715MOL0     H96495   2.018   5.300   9.617  3.4633  1.6518  3.0108
  715MOL0     H96496   1.868   5.287   9.695 -0.1095  0.0872 -2.1024
  715MOL0     H96497   2.040   5.052   9.640 -1.1935 -2.8602 -0.4072
  715MOL0     H96498   1.955   5.057   9.785  1.2554 -1.7668 -1.4692
  715MOL0     H96499   1.828   4.958   9.612 -0.4676  0.0781  2.2267
  715MOL0     H96500   1.853   5.087   9.501  0.4219 -3.0276 -0.1415
  715MOL0     H96501   1.684   5.234   9.642 -1.1900 -0.4837  1.2291
  715MOL0     H96502   1.621   5.084   9.594  0.1339 -0.9520  0.2539
  715MOL0     H96503   1.755   5.076   9.850  0.5528 -2.0202 -1.5720
  715MOL0     H96504   1.624   4.977   9.795  2.7694 -1.0256  1.7985
  715MOL0     H96505   1.578   5.279   9.875  1.6783  0.3812  0.0343
  715MOL0     H96506   1.559   5.139   9.979  0.2828  1.0917 -0.1121
  715MOL0     H96507   2.354   5.049   9.840 -2.1271  0.2570 -3.2884
  715MOL0     H96508   2.574   4.987   9.869  2.2197 -1.1759 -3.1168
  715MOL0     H96509   3.021   5.180   9.719 -2.5018 -1.1798  1.1035
  715MOL0     H96510   3.263   5.190   9.748 -1.0259 -1.6083 -0.7392
  715MOL0     H96511   3.548   4.081   8.793 -0.0609  0.2152  1.4525
  715MOL0     H96512   3.744   4.140   8.652  1.9729 -2.0136 -2.7298
  715MOL0     H96513   4.076   4.016   8.316  0.4590  1.7115 -2.7586
  715MOL0     H96514   4.252   4.123   8.178 -0.9551  0.1198 -0.2263
  715MOL0     H96515   4.639   4.260   8.228  1.4543 -0.6720  1.8408
  715MOL0     H96516   4.600   4.173   8.373  0.0135 -1.8899 -0.5820
  715MOL0     H96517   4.477   3.991   8.212 -1.0003 -0.0601 -2.0850
  715MOL0     H96518   4.653   4.010   8.221 -1.5970 -2.6273 -0.2043
  715MOL0     H96519   4.601   3.994   7.982 -2.0931 -1.8871  1.6020
  715MOL0     H96520   4.638   4.171   8.028 -0.1121  0.1363 -1.2291
  715MOL0     H96521   4.407   4.215   8.010  0.0631 -0.7554  0.4442
  715MOL0     H96522   4.373   4.042   7.982 -0.8845  0.7056  3.6847
  715MOL0     H96523   4.496   4.167   7.602  1.3000  0.7996 -0.5136
  715MOL0     H96524   4.406   4.314   8.534 -4.7091  2.0457  2.0601
  715MOL0     H96525   4.219   4.216   8.666 -0.3102 -0.3816 -0.0197
  716MOL0     O96526  11.284   7.486   1.696  0.2022 -0.4288  0.7919
  716MOL0     C96527  11.189   7.423   1.745 -0.2590 -0.4712  1.2114
  716MOL0     O96528  11.175   7.373   1.868  0.3447  0.1792  0.1104
  716MOL0     C96529  11.264   7.379   1.973  0.0285 -0.4692  0.6716
  716MOL0     C96530  11.211   7.403   2.102 -0.2252 -0.6771 -0.4359
  716MOL0     C96531  11.292   7.377   2.211  0.1210 -0.1775  0.9275
  716MOL0     C96532  11.429   7.337   2.202 -0.0934 -0.3187 -0.9337
  716MOL0     O96533  11.489   7.299   2.321  0.9064 -0.2646  0.8091
  716MOL0     C96534  11.623   7.257   2.329 -0.4072  0.8861 -0.9193
  716MOL0     C96535  11.650   7.110   2.309  0.2404  0.0733  0.2562
  716MOL0     C96536  11.785   7.072   2.336 -0.0261  0.3152  0.1784
  716MOL0     C96537  11.810   6.926   2.291  0.7889  0.4806 -0.7558
  716MOL0     C96538  11.947   6.867   2.301  0.3692  0.9615 -0.1720
  716MOL0     C96539  11.968   6.748   2.204  0.0119 -0.6126  0.2343
  716MOL0     C96540  12.095   6.674   2.247 -0.1030 -0.4136 -0.9682
  716MOL0     C96541  12.145   6.568   2.149  0.2995 -0.5596 -1.4262
  716MOL0     N96542  12.052   6.457   2.140 -0.8693  0.2504  0.4548
  716MOL0     C96543  11.933   6.457   2.065 -0.6314 -0.1842 -0.4604
  716MOL0     C96544  11.894   6.331   2.083  0.9049 -1.5710  0.6319
  716MOL0     C96545  11.775   6.269   2.032 -0.5851  1.0403 -0.4319
  716MOL0     C96546  11.667   6.326   2.107  0.3045 -0.6201 -0.8091
  716MOL0     C96547  11.538   6.246   2.064 -0.1901  0.3491 -0.2794
  716MOL0     C96548  11.407   6.330   2.084  0.2774 -0.2277  0.5172
  716MOL0     O96549  11.386   6.374   2.224 -0.0951 -0.1419 -0.1720
  716MOL0     C96550  11.342   6.290   2.328  0.2010  0.0944 -0.4364
  716MOL0     C96551  11.344   6.327   2.458  0.1237  0.3359 -0.9442
  716MOL0     C96552  11.311   6.251   2.570  0.5764  0.5414 -0.0629
  716MOL0     C96553  11.322   6.307   2.701  0.5175  0.2270  0.0265
  716MOL0     C96554  11.257   6.119   2.545 -0.2552 -0.4000 -0.2183
  716MOL0     C96555  11.227   6.018   2.652  0.1461  0.6677 -0.9799
  716MOL0     O96556  11.127   5.923   2.626 -0.3313 -0.0958 -0.8668
  716MOL0     C96557  11.131   5.815   2.715  0.0626  0.2157 -0.3711
  716MOL0     C96558  11.032   5.800   2.812 -0.0096 -0.2839  0.2298
  716MOL0     C96559  11.020   5.685   2.885 -0.4237 -0.5096 -0.4220
  716MOL0     C96560  11.107   5.582   2.868  1.3495  0.9208 -0.0466
  716MOL0     O96561  11.109   5.475   2.959  1.0166 -0.1684 -0.2372
  716MOL0     C96562  11.107   5.346   2.890 -0.3910 -0.3894 -1.0218
  716MOL0     C96563  11.025   5.254   2.974 -0.7007  0.8271  0.6540
  716MOL0     C96564  11.089   5.230   3.118  0.3324  0.7052 -0.8187
  716MOL0     C96565  11.006   5.107   3.170 -0.0993 -0.5772 -0.9703
  716MOL0     C96566  11.036   5.067   3.315  0.1210  1.0868  0.0646
  716MOL0     C96567  11.176   5.009   3.319 -0.1829 -0.4455 -0.8471
  716MOL0     C96568  11.201   4.923   3.447  0.0152  0.2267  0.0508
  716MOL0     C96569  11.350   4.879   3.458 -0.9869  0.8522 -1.2361
  716MOL0    Cl96570  11.376   4.749   3.595 -0.1988 -0.0672  0.2220
  716MOL0     C96571  11.210   5.600   2.772 -0.5263 -0.8343 -0.2687
  716MOL0     C96572  11.221   5.709   2.695  0.8271  0.2058 -0.2666
  716MOL0     O96573  11.294   6.019   2.756  0.4435 -0.4104  0.0307
  716MOL0     C96574  11.236   6.086   2.415  0.2829  0.0953 -1.1059
  716MOL0     C96575  11.284   6.167   2.313 -0.2504 -0.0978 -0.4071
  716MOL0     N96576  11.977   6.259   2.167 -0.1174  0.9263 -0.4225
  716MOL0     N96577  12.065   6.339   2.204 -0.1561  0.2093 -0.9159
  716MOL0     C96578  11.482   7.337   2.077  0.2107  1.0030  0.7355
  716MOL0     C96579  11.401   7.352   1.961 -0.3283  0.2681 -1.1709
  716MOL0     C96580  11.067   7.424   1.657  0.4682  0.5320  0.1755
  716MOL0     C96581  10.979   7.320   1.657 -0.6654  0.5522  0.1024
  716MOL0     C96582  10.871   7.310   1.572  0.7135 -0.1038 -0.5138
  716MOL0     C96583  10.842   7.408   1.478 -0.1857  0.3064 -0.2915
  716MOL0     O96584  10.723   7.395   1.404  0.2964 -0.3843  0.3579
  716MOL0     C96585  10.663   7.510   1.357 -0.0020 -0.3638 -0.7112
  716MOL0     C96586  10.561   7.433   1.264  0.9339 -0.3838  0.6319
  716MOL0     C96587  10.476   7.536   1.194 -0.5984 -0.7273  0.1641
  716MOL0     C96588  10.363   7.470   1.106  0.5266 -0.0634  0.5649
  716MOL0     C96589  10.273   7.385   1.191 -0.4092 -0.1395  0.1178
  716MOL0     C96590  10.193   7.338   1.269  0.1242  1.2372  0.3448
  716MOL0     C96591  10.937   7.516   1.476  0.7954 -0.4519  0.1525
  716MOL0     C96592  11.051   7.528   1.561 -1.4459  0.1369  0.4406
  716MOL0     H96593  11.110   7.426   2.135 -0.8326 -2.2919 -1.0803
  716MOL0     H96594  11.244   7.383   2.308 -1.8615 -1.9531  0.1400
  716MOL0     H96595  11.684   7.313   2.258 -0.6089 -2.2619 -3.8182
  716MOL0     H96596  11.661   7.285   2.428 -0.5100 -0.6128 -0.4326
  716MOL0     H96597  11.570   7.061   2.365 -1.5243  2.0143 -0.4618
  716MOL0     H96598  11.643   7.077   2.205  2.6946  0.0053  0.0464
  716MOL0     H96599  11.859   7.143   2.298 -0.6656  0.5493 -0.6788
  716MOL0     H96600  11.799   7.067   2.444 -3.0093  0.0564  0.6396
  716MOL0     H96601  11.737   6.860   2.338  2.6174 -1.6794 -0.7651
  716MOL0     H96602  11.787   6.928   2.184 -0.6105 -1.2354 -0.5389
  716MOL0     H96603  12.019   6.948   2.286 -0.0348  1.4046  0.2809
  716MOL0     H96604  11.964   6.838   2.405 -0.4794 -1.3305 -0.6167
  716MOL0     H96605  11.882   6.682   2.197 -0.1182 -0.4474  0.2465
  716MOL0     H96606  11.990   6.796   2.108  2.6988 -2.2441 -0.0657
  716MOL0     H96607  12.169   6.750   2.272 -1.0700  0.4279 -0.5851
  716MOL0     H96608  12.078   6.635   2.348  0.9095  0.7679 -0.3119
  716MOL0     H96609  12.243   6.529   2.177  1.0744  2.3816  0.4096
  716MOL0     H96610  12.151   6.609   2.048 -2.6213  0.4768 -1.2888
  716MOL0     H96611  11.880   6.536   2.012 -2.3671 -1.6032 -0.9194
  716MOL0     H96612  11.784   6.299   1.927  3.2709  1.4993 -0.1404
  716MOL0     H96613  11.775   6.162   2.055  1.9089  0.8265 -1.0845
  716MOL0     H96614  11.652   6.430   2.079 -3.3245 -0.1154  2.3223
  716MOL0     H96615  11.681   6.328   2.215 -1.4335  0.5960 -0.5734
  716MOL0     H96616  11.537   6.153   2.121  0.5170  0.8732  0.6048
  716MOL0     H96617  11.529   6.228   1.956 -4.3976  3.1414 -0.6548
  716MOL0     H96618  11.316   6.293   2.037  0.1786  1.5783 -0.8097
  716MOL0     H96619  11.413   6.422   2.025 -3.1071 -0.6084 -0.6165
  716MOL0     H96620  11.400   6.419   2.476  1.1367 -0.5690  0.7783
  716MOL0     H96621  11.386   6.244   2.763  0.9634 -0.2802 -0.9194
  716MOL0     H96622  11.372   6.403   2.692  5.9600 -2.3638 -1.8933
  716MOL0     H96623  11.223   6.312   2.748 -0.8070  0.8604 -2.6116
  716MOL0     H96624  10.956   5.874   2.835 -1.0358 -2.1839  3.6267
  716MOL0     H96625  10.943   5.658   2.956 -1.0871  2.0384 -0.0802
  716MOL0     H96626  11.045   5.356   2.800 -1.2580  1.2027 -0.2750
  716MOL0     H96627  11.203   5.296   2.870  0.6743 -0.6832  3.7228
  716MOL0     H96628  10.919   5.283   2.968 -0.7304  0.4720 -1.2746
  716MOL0     H96629  11.029   5.158   2.921 -1.3931  1.1460 -0.0131
  716MOL0     H96630  11.074   5.320   3.179 -0.7912  1.4289 -2.0918
  716MOL0     H96631  11.196   5.207   3.116  0.8215  2.7520 -0.4313
  716MOL0     H96632  10.901   5.139   3.166 -0.0123  0.1547  1.1649
  716MOL0     H96633  11.013   5.020   3.103 -0.9824 -1.6996  0.3284
  716MOL0     H96634  10.967   4.987   3.342 -0.5972 -0.0301 -4.2461
  716MOL0     H96635  11.030   5.160   3.372 -0.3521  1.6562 -0.8890
  716MOL0     H96636  11.175   4.953   3.226 -4.3206  2.5452 -2.9541
  716MOL0     H96637  11.246   5.092   3.302 -2.3156  1.5436 -0.4691
  716MOL0     H96638  11.127   4.843   3.443 -0.2262  0.4943 -2.3062
  716MOL0     H96639  11.179   4.980   3.539 -0.2257 -1.6379  1.1893
  716MOL0     H96640  11.422   4.959   3.478  0.5675  0.2138 -3.8007
  716MOL0     H96641  11.389   4.843   3.362  1.9991  0.6451 -0.0526
  716MOL0     H96642  11.284   5.520   2.766  0.6388  0.1859  0.1353
  716MOL0     H96643  11.286   5.713   2.608 -2.1013 -1.5699 -2.7133
  716MOL0     H96644  11.196   5.991   2.382  0.8773  0.7598 -4.0152
  716MOL0     H96645  11.280   6.123   2.214  0.1576 -1.4015  0.1252
  716MOL0     H96646  11.586   7.324   2.047  0.9039  1.0333  2.9188
  716MOL0     H96647  11.445   7.322   1.867  2.8855 -1.5288  0.7129
  716MOL0     H96648  10.989   7.241   1.731 -1.0805  0.5270  0.1367
  716MOL0     H96649  10.792   7.236   1.582  0.8371  0.0176  1.9744
  716MOL0     H96650  10.613   7.575   1.429  0.1617  1.4966 -2.1947
  716MOL0     H96651  10.721   7.568   1.285 -2.9340 -0.6835 -3.5608
  716MOL0     H96652  10.514   7.353   1.320 -0.1833 -0.3061 -0.1581
  716MOL0     H96653  10.628   7.389   1.189  0.3966  1.0518 -0.7642
  716MOL0     H96654  10.536   7.598   1.128 -1.3993  2.8417  2.5148
  716MOL0     H96655  10.441   7.605   1.271  0.1794  2.2023 -1.9516
  716MOL0     H96656  10.401   7.416   1.019  1.2980  0.0134  0.8482
  716MOL0     H96657  10.294   7.547   1.070  1.3808 -0.1379 -1.3355
  716MOL0     H96658  10.109   7.298   1.322  1.8266 -1.3266  1.2745
  716MOL0     H96659  10.934   7.604   1.411  1.6105 -2.0542 -2.1797
  716MOL0     H96660  11.121   7.611   1.557  1.3623 -2.1111 -1.4622
  717MOL0     O96661   5.486   6.981   0.302  0.2036  0.1241  0.4271
  717MOL0     C96662   5.533   7.052   0.215  1.9874 -0.7195 -0.0804
  717MOL0     O96663   5.466   7.085   0.101 -0.1668 -0.3349 -0.0292
  717MOL0     C96664   5.343   7.029   0.065 -0.5685  0.4982  0.3555
  717MOL0     C96665   5.327   6.892   0.054 -0.4054  0.0337 -0.7104
  717MOL0     C96666   5.216   6.837  -0.002  0.0937  0.4697  0.5133
  717MOL0     C96667   5.129   6.926  -0.062  0.3622  0.6081  0.1105
  717MOL0     O96668   5.014   6.889  -0.128  0.1870  0.0092  0.4574
  717MOL0     C96669   5.049   6.829  -0.259 -0.4664 -0.5307 -0.8303
  717MOL0     C96670   4.945   6.775  -0.349 -0.8234  0.1670 -0.5596
  717MOL0     C96671   4.873   6.666  -0.274  0.0631 -0.0276 -0.2147
  717MOL0     C96672   4.766   6.607  -0.365 -0.2176 -1.0757  0.8023
  717MOL0     C96673   4.693   6.499  -0.286  0.3670 -0.1692 -0.3782
  717MOL0     C96674   4.551   6.500  -0.329  0.1369  0.8130 -0.3887
  717MOL0     C96675   4.467   6.383  -0.266  1.1467 -0.7093 -0.4510
  717MOL0     C96676   4.506   6.248  -0.329  0.5708 -0.5475 -0.4216
  717MOL0     N96677   4.419   6.194  -0.432  0.1679  0.6396 -1.0913
  717MOL0     C96678   4.369   6.262  -0.537  0.0236 -0.0935 -0.2933
  717MOL0     C96679   4.300   6.170  -0.603  0.2321 -0.6075  0.9282
  717MOL0     C96680   4.234   6.175  -0.738 -0.3947 -0.6928  0.8826
  717MOL0     C96681   4.085   6.139  -0.727  0.2245  0.1630  0.4005
  717MOL0     C96682   4.007   6.169  -0.855 -0.3242  0.3357  0.2416
  717MOL0     C96683   3.981   6.320  -0.883  0.0937  0.9103 -0.1741
  717MOL0     O96684   3.901   6.332  -0.999 -0.3102  0.2651  0.1368
  717MOL0     C96685   3.959   6.387  -1.113 -0.1085 -0.0622 -0.8077
  717MOL0     C96686   4.097   6.405  -1.134 -0.1387 -0.4204 -0.4111
  717MOL0     C96687   4.144   6.476  -1.241 -0.3531 -0.8722  0.3565
  717MOL0     C96688   4.291   6.472  -1.259 -0.2464  0.6634  0.8441
  717MOL0     C96689   4.054   6.537  -1.336  0.5358  0.1567  0.8728
  717MOL0     C96690   4.097   6.609  -1.452 -0.5439 -0.5248 -0.4537
  717MOL0     O96691   4.006   6.601  -1.556  0.4019 -0.4174 -0.3781
  717MOL0     C96692   4.023   6.662  -1.674  0.3210  0.1759  0.1943
  717MOL0     C96693   4.043   6.801  -1.687 -0.0966 -0.3665  0.4536
  717MOL0     C96694   4.048   6.860  -1.812  0.4147  0.1528  0.6743
  717MOL0     C96695   4.035   6.789  -1.930  0.2771  0.1911  1.2448
  717MOL0     O96696   4.042   6.880  -2.039  0.4030  0.3389  0.1592
  717MOL0     C96697   4.037   6.817  -2.173  0.1684  0.1378  0.8128
  717MOL0     C96698   4.173   6.759  -2.219 -0.5795 -0.1625  0.5279
  717MOL0     C96699   4.271   6.864  -2.273 -0.0241 -1.5812  0.2469
  717MOL0     C96700   4.319   6.961  -2.163 -0.7329  0.5026  0.4153
  717MOL0     C96701   4.442   7.036  -2.203  1.0485 -0.6759  0.4428
  717MOL0     C96702   4.421   7.150  -2.312  0.0953 -1.2524 -0.5431
  717MOL0     C96703   4.545   7.238  -2.317 -0.2003 -0.5368 -0.5437
  717MOL0     C96704   4.559   7.305  -2.452 -0.1064  0.6690 -0.4012
  717MOL0    Cl96705   4.441   7.435  -2.459  0.3356  0.3655  0.2629
  717MOL0     C96706   4.011   6.645  -1.916 -0.3192 -0.5052 -0.2346
  717MOL0     C96707   4.009   6.586  -1.793 -0.6827 -0.1677  0.3985
  717MOL0     O96708   4.203   6.673  -1.456  0.2208 -0.2975  0.5729
  717MOL0     C96709   3.922   6.493  -1.325 -0.4217 -0.2259  0.7272
  717MOL0     C96710   3.878   6.416  -1.215  0.0493  0.0367  0.8584
  717MOL0     N96711   4.315   6.047  -0.550 -0.6527 -0.2950  0.0248
  717MOL0     N96712   4.388   6.065  -0.452  0.0344  1.1397 -0.4191
  717MOL0     C96713   5.154   7.064  -0.058  0.3294 -0.8166  0.8647
  717MOL0     C96714   5.254   7.119   0.010 -0.1421 -0.2561  0.3035
  717MOL0     C96715   5.665   7.097   0.231 -0.2129  0.8674  0.1068
  717MOL0     C96716   5.733   7.155   0.126  0.2070  0.2668  0.0389
  717MOL0     C96717   5.861   7.201   0.149 -0.0728  1.0033  0.4835
  717MOL0     C96718   5.934   7.198   0.266  0.0366 -0.4594 -0.2571
  717MOL0     O96719   6.059   7.247   0.278  0.4604 -0.1205  0.5014
  717MOL0     C96720   6.134   7.257   0.154  0.1043 -0.1310  0.5177
  717MOL0     C96721   6.276   7.295   0.205  0.0428 -0.3768  0.1081
  717MOL0     C96722   6.270   7.414   0.315  0.2719  0.0342  0.5059
  717MOL0     C96723   6.410   7.473   0.326  0.2481  1.4028  1.3375
  717MOL0     C96724   6.405   7.596   0.404 -0.1225 -0.1118 -0.6535
  717MOL0     C96725   6.400   7.682   0.485  0.7572 -0.7778 -0.1664
  717MOL0     C96726   5.864   7.133   0.369 -0.6236  0.1207 -0.7204
  717MOL0     C96727   5.732   7.084   0.353 -0.2781 -0.9213 -0.6801
  717MOL0     H96728   5.401   6.829   0.102 -1.2413 -0.0048  0.5839
  717MOL0     H96729   5.198   6.730   0.003  0.5404  0.4112  1.0280
  717MOL0     H96730   5.105   6.909  -0.309  1.5721 -0.3953  1.4748
  717MOL0     H96731   5.118   6.751  -0.226  0.6186  0.8716  0.3460
  717MOL0     H96732   4.887   6.859  -0.390 -1.7659  0.0679  0.5329
  717MOL0     H96733   4.993   6.724  -0.433  2.1125 -2.3772  2.3852
  717MOL0     H96734   4.948   6.603  -0.227  0.7182  0.8858 -0.0018
  717MOL0     H96735   4.816   6.709  -0.191  2.0220  0.6497  0.8349
  717MOL0     H96736   4.704   6.690  -0.400  0.0794 -0.8669  0.7738
  717MOL0     H96737   4.814   6.565  -0.453  2.5471  1.9357  0.7160
  717MOL0     H96738   4.747   6.404  -0.295 -0.7274 -1.0914  1.8418
  717MOL0     H96739   4.691   6.526  -0.180  0.4636  0.5707 -0.5643
  717MOL0     H96740   4.520   6.596  -0.287  2.7621  1.0750  1.1535
  717MOL0     H96741   4.535   6.505  -0.437  0.3474  1.1577 -0.4073
  717MOL0     H96742   4.482   6.391  -0.158 -0.7823  1.1787 -0.2414
  717MOL0     H96743   4.361   6.397  -0.288  1.1551  1.2035  0.5192
  717MOL0     H96744   4.511   6.186  -0.239 -0.0577  1.3643  1.0060
  717MOL0     H96745   4.603   6.237  -0.377  1.2515 -1.0788  1.0253
  717MOL0     H96746   4.373   6.370  -0.550  1.6635 -0.0452  0.3280
  717MOL0     H96747   4.242   6.277  -0.776  1.8178 -0.5488  1.5942
  717MOL0     H96748   4.285   6.101  -0.802 -0.8635 -2.1214  2.0926
  717MOL0     H96749   4.045   6.203  -0.648  0.0910 -2.5055  2.6364
  717MOL0     H96750   4.073   6.035  -0.695 -0.1635 -0.7887 -2.5725
  717MOL0     H96751   3.910   6.118  -0.857  0.5474 -1.3665 -1.4957
  717MOL0     H96752   4.064   6.116  -0.932  0.5737  1.7608 -0.1062
  717MOL0     H96753   4.072   6.380  -0.895 -1.0246  2.6185 -0.4692
  717MOL0     H96754   3.930   6.366  -0.798  3.2775  1.8332  1.3693
  717MOL0     H96755   4.179   6.382  -1.067 -2.8104 -0.8169  2.9438
  717MOL0     H96756   4.327   6.369  -1.256  4.1339  1.8519 -1.5021
  717MOL0     H96757   4.334   6.511  -1.352 -2.1359  1.0212  0.0832
  717MOL0     H96758   4.341   6.518  -1.173  1.6665  1.1501 -0.4565
  717MOL0     H96759   4.046   6.867  -1.601  1.1340  0.5513 -0.2638
  717MOL0     H96760   4.061   6.968  -1.812 -1.3887  0.4218  2.2310
  717MOL0     H96761   3.960   6.740  -2.184  0.2698  0.4037 -3.6821
  717MOL0     H96762   4.008   6.896  -2.243  0.6103 -0.5155 -0.1341
  717MOL0     H96763   4.226   6.705  -2.140 -3.5734 -3.5796  0.4719
  717MOL0     H96764   4.164   6.686  -2.300  0.0339  3.0799 -2.7101
  717MOL0     H96765   4.220   6.903  -2.361  3.6267 -3.6554 -3.0706
  717MOL0     H96766   4.358   6.809  -2.309 -1.2921 -2.9298 -0.8660
  717MOL0     H96767   4.245   7.027  -2.116  0.8752  0.1225  3.7607
  717MOL0     H96768   4.342   6.902  -2.074 -1.0289 -0.3674 -0.0757
  717MOL0     H96769   4.517   6.962  -2.231 -0.6943 -2.6417  0.7139
  717MOL0     H96770   4.469   7.093  -2.114  0.8219  0.4970 -0.2287
  717MOL0     H96771   4.389   7.109  -2.409  0.8730  2.4010 -2.5335
  717MOL0     H96772   4.339   7.214  -2.280  2.4409  3.3727 -2.8305
  717MOL0     H96773   4.634   7.179  -2.297 -1.9926 -2.8210  1.3307
  717MOL0     H96774   4.542   7.319  -2.244  1.0190 -1.7809  0.9480
  717MOL0     H96775   4.537   7.236  -2.533  0.8429 -0.2778  0.1280
  717MOL0     H96776   4.658   7.344  -2.478  0.2968  0.9811  1.4465
  717MOL0     H96777   4.005   6.587  -2.008  1.7888  1.2019 -1.5458
  717MOL0     H96778   3.988   6.481  -1.782 -2.9076  0.1692 -0.1441
  717MOL0     H96779   3.853   6.527  -1.401  0.3870  2.9133  1.2757
  717MOL0     H96780   3.773   6.396  -1.196 -0.5499  2.3965  0.3898
  717MOL0     H96781   5.100   7.140  -0.114  2.7919 -0.1245 -0.7208
  717MOL0     H96782   5.260   7.227   0.021  2.7964 -0.0941 -1.7490
  717MOL0     H96783   5.679   7.180   0.036 -1.3637 -2.4944  0.0884
  717MOL0     H96784   5.893   7.250   0.057  0.9084 -0.6089 -0.0717
  717MOL0     H96785   6.138   7.161   0.103 -1.3472 -1.7206  3.1971
  717MOL0     H96786   6.106   7.336   0.083  0.3585  0.4736  1.0856
  717MOL0     H96787   6.341   7.332   0.125  0.6168  0.4628  0.9550
  717MOL0     H96788   6.323   7.206   0.248  0.0560 -0.9885 -1.1146
  717MOL0     H96789   6.250   7.378   0.416 -0.3447  0.6343  0.5998
  717MOL0     H96790   6.195   7.490   0.293  0.4945  0.1639  0.1869
  717MOL0     H96791   6.454   7.494   0.228 -1.6336  1.5829  0.4826
  717MOL0     H96792   6.480   7.408   0.378  1.5191  0.5795 -1.2186
  717MOL0     H96793   6.381   7.767   0.547  0.4061 -0.7414 -0.3221
  717MOL0     H96794   5.897   7.106   0.468 -1.9415  0.8078 -0.0767
  717MOL0     H96795   5.687   7.034   0.438  3.4353 -1.9671  0.8890
  718MOL0     O96796   3.848   6.184   5.342  0.1898 -0.6841  0.2318
  718MOL0     C96797   3.783   6.277   5.400  0.7375  0.7762 -0.4894
  718MOL0     O96798   3.840   6.378   5.457  0.4520  0.4763  0.1050
  718MOL0     C96799   3.983   6.379   5.476  0.7010  0.1663  0.1975
  718MOL0     C96800   4.075   6.396   5.372  0.3579  0.3466 -1.0873
  718MOL0     C96801   4.214   6.370   5.391  1.0752  0.2960  0.6464
  718MOL0     C96802   4.253   6.345   5.522  0.3452 -0.0765 -0.3698
  718MOL0     O96803   4.388   6.318   5.548  0.2152  0.3463  0.5682
  718MOL0     C96804   4.470   6.421   5.497  0.9649  0.4024  0.3218
  718MOL0     C96805   4.540   6.481   5.622  0.9943  0.3470 -0.3008
  718MOL0     C96806   4.453   6.535   5.730  1.3031  0.4841  0.3195
  718MOL0     C96807   4.519   6.621   5.827  0.9624 -0.2611  0.3573
  718MOL0     C96808   4.643   6.547   5.884 -0.2769  0.2156  0.1531
  718MOL0     C96809   4.684   6.602   6.021  0.3797  0.0899 -0.6447
  718MOL0     C96810   4.600   6.553   6.141  0.4141  0.4779 -0.1873
  718MOL0     C96811   4.621   6.628   6.276  0.1610 -0.6503  0.0070
  718MOL0     N96812   4.537   6.579   6.394  0.7441 -0.4645  0.3258
  718MOL0     C96813   4.527   6.446   6.428 -0.4018  0.2061 -0.6633
  718MOL0     C96814   4.492   6.443   6.561 -0.4102  0.3255 -0.8398
  718MOL0     C96815   4.467   6.324   6.658 -0.3788 -0.0142  0.8860
  718MOL0     C96816   4.583   6.231   6.638 -0.3354  0.8295 -0.1094
  718MOL0     C96817   4.589   6.132   6.758 -0.4828 -0.2989 -0.5696
  718MOL0     C96818   4.693   6.023   6.738  0.1664  0.3079 -0.5136
  718MOL0     O96819   4.675   5.952   6.607  0.5568 -0.3736 -0.6696
  718MOL0     C96820   4.734   5.836   6.590 -0.6959 -0.1592  0.2437
  718MOL0     C96821   4.834   5.782   6.676 -0.3433 -0.5139 -0.4964
  718MOL0     C96822   4.901   5.652   6.655  0.2565 -0.5856  0.3143
  718MOL0     C96823   5.012   5.593   6.735 -0.1031  0.9036  0.4187
  718MOL0     C96824   4.862   5.586   6.530  0.1439  0.0267 -0.1213
  718MOL0     C96825   4.923   5.458   6.476  0.4583  0.1317  0.1124
  718MOL0     O96826   4.988   5.450   6.354  0.0073 -0.1980 -0.5895
  718MOL0     C96827   5.010   5.567   6.285  0.5711 -0.1031 -1.4067
  718MOL0     C96828   5.116   5.654   6.322 -0.1643  1.3395  0.4495
  718MOL0     C96829   5.144   5.767   6.251  0.7368 -0.5536  1.8261
  718MOL0     C96830   5.070   5.811   6.142  0.6015 -0.0102 -0.3013
  718MOL0     O96831   5.114   5.933   6.088 -0.0238 -0.0188 -0.0906
  718MOL0     C96832   5.071   5.974   5.958 -1.2154  0.3274 -0.8412
  718MOL0     C96833   5.128   6.117   5.937 -0.0050  0.3687 -0.6720
  718MOL0     C96834   5.052   6.177   5.819  0.5612  0.4043  0.2849
  718MOL0     C96835   5.073   6.327   5.796  0.1868 -0.9971  0.7952
  718MOL0     C96836   5.203   6.356   5.732  0.5475  0.3017 -0.0480
  718MOL0     C96837   5.217   6.512   5.729 -0.0081  0.2721 -0.1947
  718MOL0     C96838   5.364   6.555   5.719  0.4749 -0.1014 -0.0088
  718MOL0     C96839   5.392   6.681   5.647  0.0622 -0.3027  0.1671
  718MOL0    Cl96840   5.291   6.814   5.706 -0.8296  0.4284 -0.3526
  718MOL0     C96841   4.956   5.729   6.111 -0.4528 -1.1627  0.3187
  718MOL0     C96842   4.930   5.609   6.177  0.5830  0.9786 -0.0883
  718MOL0     O96843   4.915   5.365   6.549  0.1938 -0.3904  0.7843
  718MOL0     C96844   4.757   5.638   6.454 -0.1574 -0.0819 -0.9835
  718MOL0     C96845   4.708   5.767   6.482  0.4769  0.7285  0.5099
  718MOL0     N96846   4.483   6.575   6.598  0.0673  0.1225  0.5749
  718MOL0     N96847   4.514   6.654   6.503 -0.6513 -0.1299 -0.6372
  718MOL0     C96848   4.161   6.337   5.627  0.0777 -1.2380  0.0516
  718MOL0     C96849   4.027   6.351   5.609  0.0281 -0.4876  0.4688
  718MOL0     C96850   3.635   6.273   5.399 -0.2580 -0.3281  0.8176
  718MOL0     C96851   3.560   6.158   5.359 -1.0410 -0.2682 -0.2803
  718MOL0     C96852   3.420   6.159   5.352 -0.2936 -0.5430  0.8255
  718MOL0     C96853   3.353   6.276   5.378  0.5686 -0.2390  0.3730
  718MOL0     O96854   3.221   6.300   5.367  0.2097  0.2063  0.3871
  718MOL0     C96855   3.117   6.199   5.375 -0.5909 -0.3883  0.8998
  718MOL0     C96856   3.106   6.151   5.513  0.8724 -0.8941  0.6795
  718MOL0     C96857   3.011   6.039   5.545  1.3650 -0.2868  1.0628
  718MOL0     C96858   3.053   5.911   5.493  0.7938  0.4095 -0.6514
  718MOL0     C96859   3.181   5.873   5.539 -0.5096 -0.1219 -0.0278
  718MOL0     C96860   3.298   5.846   5.564  0.8836  0.4413  0.0213
  718MOL0     C96861   3.420   6.397   5.412 -0.3186 -0.0321  0.2268
  718MOL0     C96862   3.561   6.389   5.422  0.2417 -0.7855  0.3527
  718MOL0     H96863   4.031   6.413   5.274 -2.4661  3.8784  0.5672
  718MOL0     H96864   4.280   6.364   5.305  1.6761 -1.3809  1.1797
  718MOL0     H96865   4.550   6.376   5.438  0.8546  2.7311 -1.7915
  718MOL0     H96866   4.428   6.499   5.433  0.9256  0.8547  0.8953
  718MOL0     H96867   4.605   6.407   5.669  1.5333 -0.2302 -1.8792
  718MOL0     H96868   4.613   6.554   5.583  1.9044  0.4485  1.4863
  718MOL0     H96869   4.379   6.600   5.682  1.8827  1.0084  0.1319
  718MOL0     H96870   4.396   6.456   5.780  0.6976  0.2986 -0.6265
  718MOL0     H96871   4.564   6.708   5.779 -2.2528  0.1790 -2.2455
  718MOL0     H96872   4.448   6.652   5.904  1.6058 -0.1352  0.8998
  718MOL0     H96873   4.614   6.443   5.902 -2.0138  0.7274  0.5214
  718MOL0     H96874   4.723   6.545   5.809 -3.1408  2.9437 -3.3251
  718MOL0     H96875   4.790   6.573   6.028 -0.5063 -4.3840 -2.1713
  718MOL0     H96876   4.675   6.709   6.001 -2.4168 -0.1983 -1.3831
  718MOL0     H96877   4.500   6.581   6.106  1.0571  0.4913 -2.1168
  718MOL0     H96878   4.601   6.444   6.155  0.0641  0.4863 -0.0835
  718MOL0     H96879   4.603   6.735   6.256  1.3142 -0.2984  0.7756
  718MOL0     H96880   4.727   6.616   6.297  0.5266 -1.1927 -1.9471
  718MOL0     H96881   4.531   6.357   6.365  4.3350  0.6277 -1.3219
  718MOL0     H96882   4.467   6.361   6.761  2.8106  1.9752  0.3376
  718MOL0     H96883   4.373   6.275   6.631 -0.7951  0.6527  1.1056
  718MOL0     H96884   4.680   6.279   6.622  0.9188 -0.8953  1.7049
  718MOL0     H96885   4.560   6.177   6.545 -0.4860  0.3110  0.2228
  718MOL0     H96886   4.494   6.085   6.784 -0.6662  1.7927  3.3039
  718MOL0     H96887   4.615   6.190   6.847  0.0885 -3.2999  1.3751
  718MOL0     H96888   4.698   5.958   6.826 -0.8028 -1.8992 -1.9939
  718MOL0     H96889   4.795   6.063   6.736  0.0381  0.6282 -2.6633
  718MOL0     H96890   4.861   5.833   6.769 -0.9797 -1.5110  0.2560
  718MOL0     H96891   4.986   5.499   6.785  1.5629  0.8628  1.2382
  718MOL0     H96892   5.094   5.559   6.672  2.5896 -2.0203  4.9489
  718MOL0     H96893   5.055   5.662   6.807  0.8376 -2.1130  2.9842
  718MOL0     H96894   5.166   5.619   6.412 -0.5611  2.4934  1.1358
  718MOL0     H96895   5.230   5.827   6.278 -1.6406  2.6969  2.7617
  718MOL0     H96896   5.093   5.900   5.880  1.6930  1.1481 -0.8970
  718MOL0     H96897   4.962   5.987   5.959 -0.9815  2.9794 -1.3492
  718MOL0     H96898   5.115   6.179   6.026 -2.4037 -1.6096  0.4647
  718MOL0     H96899   5.237   6.109   5.928  1.2718  2.0123  6.8114
  718MOL0     H96900   4.945   6.156   5.831  0.6675 -0.3611 -0.0310
  718MOL0     H96901   5.073   6.121   5.727  0.4552  0.1529  0.4110
  718MOL0     H96902   4.992   6.360   5.731 -0.5787  1.3879  2.8102
  718MOL0     H96903   5.062   6.385   5.888  0.9630  0.3121  0.0976
  718MOL0     H96904   5.206   6.319   5.629  3.3396  0.8165 -0.2345
  718MOL0     H96905   5.284   6.310   5.789  1.0871 -0.4726 -1.4070
  718MOL0     H96906   5.167   6.549   5.640 -1.1830  1.2152  0.8206
  718MOL0     H96907   5.168   6.561   5.814  0.9487  4.3034 -1.7525
  718MOL0     H96908   5.419   6.464   5.695 -4.0330 -2.3854 -3.0879
  718MOL0     H96909   5.389   6.578   5.823  2.7740  1.8501 -0.8953
  718MOL0     H96910   5.388   6.680   5.537 -1.5822  3.0581  0.0580
  718MOL0     H96911   5.496   6.692   5.678 -0.0882 -1.2853  1.0619
  718MOL0     H96912   4.900   5.750   6.021 -0.2598 -1.5113  0.1156
  718MOL0     H96913   4.842   5.545   6.169  0.0741  1.2822  2.3303
  718MOL0     H96914   4.727   5.593   6.360 -0.4595 -1.6430 -0.1747
  718MOL0     H96915   4.655   5.814   6.399  3.3499  1.5773 -0.9801
  718MOL0     H96916   4.200   6.299   5.721 -0.2254 -1.3964  0.1135
  718MOL0     H96917   3.961   6.333   5.694  1.3217 -0.1387  1.5868
  718MOL0     H96918   3.610   6.064   5.337 -0.9989 -0.1594 -0.6418
  718MOL0     H96919   3.365   6.068   5.332  0.8436 -0.9134 -0.8899
  718MOL0     H96920   3.021   6.244   5.347 -1.5367 -2.7531  0.1069
  718MOL0     H96921   3.136   6.112   5.312 -3.0188 -2.0969  2.2933
  718MOL0     H96922   3.078   6.235   5.577 -3.3253 -0.6182 -1.2135
  718MOL0     H96923   3.205   6.113   5.543  0.7311  0.5965  3.2705
  718MOL0     H96924   2.912   6.070   5.509  0.8493 -2.2803  0.6687
  718MOL0     H96925   3.003   6.023   5.653 -1.6854 -2.9943  0.5959
  718MOL0     H96926   3.046   5.910   5.384 -1.8240  3.5324 -0.6459
  718MOL0     H96927   2.992   5.833   5.539  0.0570  1.1923 -0.2999
  718MOL0     H96928   3.396   5.816   5.593  1.1070  1.3837  0.2393
  718MOL0     H96929   3.369   6.492   5.427 -2.3965 -0.7970 -1.4506
  718MOL0     H96930   3.624   6.477   5.427  0.6679 -1.0989  0.5680
  719MOL0     O96931   8.150   2.125   0.582 -0.1126  0.7160  0.2024
  719MOL0     C96932   8.088   2.022   0.570 -0.1696 -0.5568  0.1685
  719MOL0     O96933   8.142   1.897   0.565  0.2813  0.6881  0.3361
  719MOL0     C96934   8.275   1.885   0.566 -0.1528  1.0028  0.4672
  719MOL0     C96935   8.335   1.798   0.656  0.0326  0.0207 -0.1526
  719MOL0     C96936   8.470   1.770   0.672 -0.0594  0.8218  0.6649
  719MOL0     C96937   8.551   1.831   0.578 -1.1584  0.4589  0.3566
  719MOL0     O96938   8.687   1.813   0.575  0.2717  0.0101  0.1432
  719MOL0     C96939   8.746   1.759   0.695  0.1176  0.3371  0.5724
  719MOL0     C96940   8.896   1.753   0.663  0.0917 -0.1581  0.9733
  719MOL0     C96941   8.998   1.716   0.785  0.2925 -0.7159 -0.1975
  719MOL0     C96942   8.970   1.565   0.819 -0.2917 -0.0375  0.4979
  719MOL0     C96943   9.063   1.528   0.933  0.2687 -0.2971 -0.2869
  719MOL0     C96944   9.026   1.389   0.979 -0.4676  0.3450 -0.2527
  719MOL0     C96945   9.121   1.344   1.095 -0.0349 -0.1357  0.6126
  719MOL0     C96946   9.081   1.413   1.223  1.2775 -0.1586  0.9992
  719MOL0     N96947   9.131   1.351   1.337 -0.1792 -0.1338 -0.3046
  719MOL0     C96948   9.143   1.216   1.371  0.1580  0.4749 -0.5802
  719MOL0     C96949   9.220   1.216   1.486 -0.6110  0.0009  0.5151
  719MOL0     C96950   9.268   1.094   1.562 -0.0799 -0.3053 -0.2491
  719MOL0     C96951   9.237   1.106   1.715 -0.1929  0.7607  1.0088
  719MOL0     C96952   9.264   0.985   1.803  0.0540 -0.3319  0.4776
  719MOL0     C96953   9.140   0.886   1.808  0.1938 -0.1188  0.6794
  719MOL0     O96954   9.155   0.746   1.858 -0.8292 -0.1338  0.0928
  719MOL0     C96955   9.159   0.724   1.996  0.9631  0.5471 -0.0283
  719MOL0     C96956   9.146   0.825   2.094  0.1463 -0.3730  0.4430
  719MOL0     C96957   9.158   0.801   2.230  0.4104 -0.8827 -0.0337
  719MOL0     C96958   9.157   0.923   2.322  0.7294 -0.5233  0.9146
  719MOL0     C96959   9.208   0.677   2.265 -0.1622 -0.0388 -0.5188
  719MOL0     C96960   9.242   0.628   2.396  0.6800 -0.6776 -1.2379
  719MOL0     O96961   9.306   0.725   2.476  0.6114 -0.0495 -0.5289
  719MOL0     C96962   9.316   0.708   2.608  0.6306 -0.1159  0.5686
  719MOL0     C96963   9.354   0.590   2.666  0.2228 -0.3371  0.6096
  719MOL0     C96964   9.351   0.569   2.807 -0.4919  0.2542 -0.1283
  719MOL0     C96965   9.331   0.676   2.888  0.6656 -0.3542 -0.0388
  719MOL0     O96966   9.332   0.684   3.030  1.6086  0.6073  0.1098
  719MOL0     C96967   9.395   0.583   3.100 -0.1852  0.3002  0.3942
  719MOL0     C96968   9.427   0.628   3.240 -0.4420 -0.5273 -0.1464
  719MOL0     C96969   9.498   0.518   3.316 -0.1569 -0.5984 -0.0845
  719MOL0     C96970   9.525   0.574   3.449  0.3061 -0.1484 -0.0658
  719MOL0     C96971   9.608   0.472   3.532 -0.4398  0.2755  0.0011
  719MOL0     C96972   9.727   0.400   3.465 -0.5892 -0.4284  0.1979
  719MOL0     C96973   9.815   0.339   3.575 -0.6424  0.5065 -0.4881
  719MOL0     C96974   9.956   0.314   3.523 -1.2139 -0.9728 -0.2423
  719MOL0    Cl96975   9.959   0.145   3.479  0.0990  0.4288  0.2871
  719MOL0     C96976   9.301   0.798   2.828  0.8279 -0.1556 -0.5748
  719MOL0     C96977   9.291   0.818   2.689  0.3067 -0.0600 -0.1997
  719MOL0     O96978   9.202   0.517   2.439  0.2690  0.6011  0.2024
  719MOL0     C96979   9.218   0.572   2.173 -0.1063  0.8091 -0.3872
  719MOL0     C96980   9.191   0.595   2.035  0.1304 -1.0618 -0.5696
  719MOL0     N96981   9.275   1.344   1.508  0.2471 -0.1325  0.2662
  719MOL0     N96982   9.207   1.422   1.422  0.1106  1.1033 -0.0097
  719MOL0     C96983   8.501   1.924   0.489  1.0559 -0.4216 -0.1959
  719MOL0     C96984   8.361   1.944   0.475  0.1028  0.2097  0.1169
  719MOL0     C96985   7.942   2.038   0.571 -0.2440  0.5560  0.7972
  719MOL0     C96986   7.875   2.155   0.614 -0.5353  0.5695  0.5820
  719MOL0     C96987   7.737   2.177   0.630 -0.0935 -0.4347  1.1705
  719MOL0     C96988   7.650   2.072   0.578  0.0826  0.0690  0.1777
  719MOL0     O96989   7.509   2.086   0.583  0.3788 -0.3060 -0.3429
  719MOL0     C96990   7.443   2.215   0.554 -0.6981 -0.4857 -0.1068
  719MOL0     C96991   7.360   2.271   0.677  0.2871  0.1331  0.0496
  719MOL0     C96992   7.372   2.430   0.695  0.1888  0.1605  0.4882
  719MOL0     C96993   7.315   2.466   0.839  0.3515  1.3940 -0.3602
  719MOL0     C96994   7.314   2.612   0.858  0.4653  1.3188 -0.6717
  719MOL0     C96995   7.305   2.731   0.878 -0.7109 -0.1587  0.8702
  719MOL0     C96996   7.706   1.956   0.538 -0.6397  0.5473  0.3517
  719MOL0     C96997   7.848   1.938   0.533 -0.2561 -1.0242 -0.4764
  719MOL0     H96998   8.275   1.723   0.705  2.0401 -1.9877 -0.5954
  719MOL0     H96999   8.504   1.698   0.745  1.2593 -1.3183 -1.8655
  719MOL0     H97000   8.730   1.822   0.783 -0.2382 -0.7533  1.3077
  719MOL0     H97001   8.715   1.655   0.712  0.0530  0.2290 -0.1925
  719MOL0     H97002   8.902   1.672   0.589 -4.0444  1.5350 -1.5431
  719MOL0     H97003   8.938   1.846   0.623  4.1104 -1.8075  0.9159
  719MOL0     H97004   9.098   1.715   0.741  1.2927 -2.1313  1.9849
  719MOL0     H97005   8.989   1.781   0.872  0.2686 -0.4985 -0.3608
  719MOL0     H97006   8.869   1.560   0.860  0.5157 -1.3379  2.4647
  719MOL0     H97007   8.976   1.495   0.734  0.0563 -2.6333  2.5203
  719MOL0     H97008   9.169   1.547   0.911  0.2946  2.4360  1.6985
  719MOL0     H97009   9.038   1.596   1.015  0.0994 -1.5095  0.6922
  719MOL0     H97010   8.922   1.388   1.014 -0.2495 -0.0047  0.3989
  719MOL0     H97011   9.031   1.313   0.900 -4.2828 -1.5665  1.1099
  719MOL0     H97012   9.128   1.235   1.104 -1.1509 -0.0834  3.3532
  719MOL0     H97013   9.223   1.367   1.064  0.0746 -0.2549  0.8809
  719MOL0     H97014   8.973   1.403   1.238  0.9163 -1.8020 -1.9061
  719MOL0     H97015   9.115   1.517   1.226 -0.1184  0.4057 -1.1736
  719MOL0     H97016   9.100   1.123   1.335 -3.3863  0.1966  3.5778
  719MOL0     H97017   9.216   1.005   1.524  0.5802  0.5948 -3.5427
  719MOL0     H97018   9.375   1.076   1.544 -0.2716 -1.1002 -0.6294
  719MOL0     H97019   9.131   1.132   1.721 -1.0445 -1.5083 -1.8447
  719MOL0     H97020   9.289   1.196   1.748  1.9075 -0.2857  0.6926
  719MOL0     H97021   9.292   1.015   1.905 -1.9783  1.0753  0.6728
  719MOL0     H97022   9.339   0.926   1.748 -0.3341  1.1083 -1.7248
  719MOL0     H97023   9.104   0.871   1.706  0.7761  2.1544  0.0785
  719MOL0     H97024   9.056   0.932   1.861  2.3631  4.3733  0.6843
  719MOL0     H97025   9.139   0.928   2.062 -0.2400  0.0202  1.7334
  719MOL0     H97026   9.119   0.922   2.425  1.0339  2.8927  1.1617
  719MOL0     H97027   9.263   0.948   2.327  1.0075 -1.5844  0.7001
  719MOL0     H97028   9.109   1.004   2.267 -2.2111 -1.4720  1.8971
  719MOL0     H97029   9.386   0.514   2.595  3.0244  1.0456  0.2428
  719MOL0     H97030   9.385   0.475   2.850 -2.3167 -0.9317 -1.1722
  719MOL0     H97031   9.339   0.489   3.094 -2.5598  1.6098  0.6198
  719MOL0     H97032   9.488   0.557   3.049 -0.2510 -0.2058  0.5235
  719MOL0     H97033   9.487   0.719   3.248  0.0839 -0.8750 -0.0961
  719MOL0     H97034   9.335   0.643   3.298 -1.2325  3.4266 -2.0783
  719MOL0     H97035   9.593   0.496   3.266 -0.8644  0.3164 -1.9605
  719MOL0     H97036   9.436   0.429   3.322  1.5240 -1.8006  0.0014
  719MOL0     H97037   9.590   0.661   3.437  2.2016 -0.4549  5.4583
  719MOL0     H97038   9.428   0.600   3.492 -0.1104  2.9823 -2.5295
  719MOL0     H97039   9.538   0.398   3.573 -0.0962  2.1349  4.5223
  719MOL0     H97040   9.644   0.521   3.623 -4.3610  1.2747  1.1807
  719MOL0     H97041   9.688   0.329   3.392 -1.0449  0.3024 -0.2794
  719MOL0     H97042   9.775   0.481   3.408 -0.0556  1.0120  2.5556
  719MOL0     H97043   9.768   0.247   3.612  0.4056  1.3761  3.4069
  719MOL0     H97044   9.820   0.400   3.666  4.1218 -1.1064  0.6332
  719MOL0     H97045  10.034   0.329   3.599 -2.1161 -2.7803  1.1305
  719MOL0     H97046   9.987   0.382   3.443  0.6667  0.9888  2.0157
  719MOL0     H97047   9.282   0.883   2.894 -0.7614  0.1513 -1.3911
  719MOL0     H97048   9.260   0.920   2.669  0.9221  0.6609  2.1792
  719MOL0     H97049   9.236   0.467   2.190  0.5084  0.4519 -2.7974
  719MOL0     H97050   9.185   0.522   1.955  2.9728 -0.7149 -1.2278
  719MOL0     H97051   8.574   1.976   0.427  2.7721 -2.1583  0.2709
  719MOL0     H97052   8.321   2.009   0.398  0.3126 -1.7664 -1.7578
  719MOL0     H97053   7.923   2.237   0.667 -3.3361  2.8237 -0.1361
  719MOL0     H97054   7.697   2.264   0.680  0.5259  1.6199 -1.6719
  719MOL0     H97055   7.524   2.289   0.548 -0.2379 -0.8738  0.9782
  719MOL0     H97056   7.387   2.226   0.461 -0.1470  0.0438 -0.3840
  719MOL0     H97057   7.407   2.213   0.757  1.7514  1.9971  0.6506
  719MOL0     H97058   7.257   2.237   0.675 -0.5529  2.3387 -3.3109
  719MOL0     H97059   7.317   2.490   0.621  1.5241  0.1869 -0.5297
  719MOL0     H97060   7.474   2.462   0.674  0.5543 -0.5201  1.1897
  719MOL0     H97061   7.388   2.431   0.912 -2.2011 -0.7801  1.3403
  719MOL0     H97062   7.236   2.395   0.862  2.3790 -0.6646  0.6455
  719MOL0     H97063   7.313   2.834   0.907  0.0817  0.5975 -1.7554
  719MOL0     H97064   7.641   1.874   0.510 -0.5205 -0.0999  1.8561
  719MOL0     H97065   7.883   1.842   0.497  6.6796  1.6065 -2.5911
  720MOL0     O97066   5.975   7.649   2.067  1.2162  0.0897 -0.2169
  720MOL0     C97067   6.075   7.624   2.006 -0.3120 -0.0622  0.6715
  720MOL0     O97068   6.081   7.588   1.873 -0.3236 -0.2825  0.6337
  720MOL0     C97069   5.971   7.591   1.800 -0.7307  0.3862 -0.3333
  720MOL0     C97070   5.903   7.712   1.775 -0.0427  0.1575  0.2341
  720MOL0     C97071   5.793   7.710   1.687  0.1582  0.9908  0.5216
  720MOL0     C97072   5.745   7.589   1.629 -0.0147  0.7434  0.1131
  720MOL0     O97073   5.630   7.584   1.543 -0.7554 -0.0134  0.0218
  720MOL0     C97074   5.540   7.685   1.555  0.8796 -0.2521  0.4969
  720MOL0     C97075   5.414   7.644   1.472 -0.2097 -0.2524 -0.0081
  720MOL0     C97076   5.392   7.725   1.341  0.4860 -0.1053 -0.2200
  720MOL0     C97077   5.312   7.643   1.232 -0.6961 -0.7526  0.2945
  720MOL0     C97078   5.277   7.731   1.112 -0.7559 -0.3209  0.1368
  720MOL0     C97079   5.175   7.673   1.011 -0.4440  0.2409 -0.1755
  720MOL0     C97080   5.032   7.671   1.066 -0.9609 -1.0424  0.6002
  720MOL0     C97081   4.966   7.559   0.979  0.5712  0.4209 -0.4245
  720MOL0     N97082   4.818   7.560   0.981 -0.1914  0.1226 -0.1433
  720MOL0     C97083   4.735   7.460   0.944 -0.5657 -1.0511 -0.8961
  720MOL0     C97084   4.610   7.505   0.976  0.6115  0.2947 -0.2191
  720MOL0     C97085   4.497   7.415   0.957  0.8546  0.0951  1.1342
  720MOL0     C97086   4.366   7.493   0.942  0.0456 -0.6866  0.8264
  720MOL0     C97087   4.237   7.417   0.919  0.3728 -0.1898 -0.0436
  720MOL0     C97088   4.117   7.495   0.957 -0.4797 -0.3487  0.4187
  720MOL0     O97089   4.116   7.525   1.095 -0.4207  0.1652 -0.3325
  720MOL0     C97090   3.995   7.569   1.129  0.5120 -0.7196 -1.1718
  720MOL0     C97091   3.929   7.519   1.236 -0.3567 -0.0235 -0.8118
  720MOL0     C97092   3.799   7.557   1.273 -0.4401 -0.6019  0.3079
  720MOL0     C97093   3.750   7.504   1.402  1.0460 -0.3296  0.2685
  720MOL0     C97094   3.730   7.655   1.200  0.2303  0.4584 -0.9758
  720MOL0     C97095   3.597   7.715   1.239 -1.2730  0.2465 -0.4582
  720MOL0     O97096   3.567   7.828   1.172 -0.3517  0.8100 -0.5537
  720MOL0     C97097   3.450   7.890   1.204 -0.4934  0.9001  0.3106
  720MOL0     C97098   3.329   7.825   1.206  0.0556 -0.2900 -0.0394
  720MOL0     C97099   3.216   7.902   1.209 -0.2264 -0.2729  0.0582
  720MOL0     C97100   3.219   8.039   1.205  0.4824  0.5106  0.0207
  720MOL0     O97101   3.110   8.119   1.196  0.3905  0.5558  0.2208
  720MOL0     C97102   3.009   8.103   1.305 -0.0281 -0.0287 -0.4168
  720MOL0     C97103   2.878   8.044   1.244 -0.7186 -0.2583 -1.2525
  720MOL0     C97104   2.757   8.048   1.341 -0.0746 -0.7380  0.1889
  720MOL0     C97105   2.633   7.976   1.285  0.6106 -0.0760  0.8445
  720MOL0     C97106   2.655   7.829   1.271 -0.9035 -0.1463  0.1642
  720MOL0     C97107   2.531   7.748   1.226 -0.0855 -0.6820 -0.4109
  720MOL0     C97108   2.415   7.748   1.325 -1.3674  1.0300  0.2237
  720MOL0     C97109   2.339   7.619   1.307 -0.7383 -0.0786  0.8606
  720MOL0    Cl97110   2.216   7.619   1.438 -0.7156 -0.0799  0.5154
  720MOL0     C97111   3.345   8.099   1.207  0.1073 -1.1986 -0.1695
  720MOL0     C97112   3.460   8.020   1.216  0.4003  0.5137 -0.2301
  720MOL0     O97113   3.532   7.679   1.332  1.0572 -0.0281 -0.8443
  720MOL0     C97114   3.804   7.718   1.103  0.1784 -0.3098  0.3420
  720MOL0     C97115   3.931   7.679   1.075  0.0388  0.2045  0.3095
  720MOL0     N97116   4.621   7.634   1.016  0.5935  0.1931  0.0438
  720MOL0     N97117   4.747   7.665   1.028 -0.7674 -0.5827  0.9898
  720MOL0     C97118   5.807   7.471   1.662 -0.4971  0.8060 -0.0678
  720MOL0     C97119   5.924   7.477   1.740 -0.2502  0.6939 -0.6950
  720MOL0     C97120   6.196   7.633   2.074 -0.8354  0.1299 -0.0624
  720MOL0     C97121   6.318   7.625   2.004 -0.0662 -0.2174  0.7053
  720MOL0     C97122   6.437   7.642   2.066 -0.4937  0.0390 -0.2231
  720MOL0     C97123   6.438   7.660   2.209 -0.9003 -0.2489  0.4842
  720MOL0     O97124   6.549   7.679   2.283 -0.4718  0.6622  0.4403
  720MOL0     C97125   6.682   7.662   2.227  0.7401  0.2560 -0.0649
  720MOL0     C97126   6.723   7.786   2.146 -0.0033  0.1867 -0.0139
  720MOL0     C97127   6.867   7.796   2.109 -0.4362  0.4663 -0.4310
  720MOL0     C97128   6.894   7.932   2.046  0.3987 -0.9295  0.6698
  720MOL0     C97129   7.032   7.965   2.062  0.0463 -0.2274  0.8050
  720MOL0     C97130   7.155   7.964   2.071  0.5645 -0.5064 -0.1186
  720MOL0     C97131   6.318   7.671   2.273 -0.1644  0.9320  0.3936
  720MOL0     C97132   6.194   7.652   2.210 -0.4636  1.1661  0.0875
  720MOL0     H97133   5.938   7.810   1.804 -2.7152  1.1275  0.5079
  720MOL0     H97134   5.740   7.796   1.646 -0.3724  0.4680  0.0856
  720MOL0     H97135   5.512   7.707   1.659 -1.3328 -1.3855  0.1928
  720MOL0     H97136   5.567   7.782   1.512 -2.5180  0.0952 -1.2436
  720MOL0     H97137   5.424   7.536   1.462  0.7038 -0.0393 -1.7474
  720MOL0     H97138   5.324   7.662   1.531  1.3681  2.5290  1.7951
  720MOL0     H97139   5.353   7.826   1.356 -0.9768 -0.4914 -1.1578
  720MOL0     H97140   5.488   7.737   1.291  0.1035 -4.6605 -2.5393
  720MOL0     H97141   5.376   7.560   1.200  1.8720  1.4204 -0.5391
  720MOL0     H97142   5.221   7.597   1.272 -1.1386 -0.1432 -0.0052
  720MOL0     H97143   5.233   7.823   1.151 -0.9298 -0.2109 -0.3201
  720MOL0     H97144   5.360   7.764   1.051 -1.8660 -0.7909 -1.7004
  720MOL0     H97145   5.169   7.738   0.923  4.4522 -0.8014 -1.5980
  720MOL0     H97146   5.228   7.583   0.978  4.2828  1.9006  2.0095
  720MOL0     H97147   5.016   7.651   1.173 -1.6338 -0.2060  0.6658
  720MOL0     H97148   4.972   7.762   1.054 -0.6221 -0.9456 -0.4083
  720MOL0     H97149   5.012   7.469   1.020 -0.0900  1.0651  1.8307
  720MOL0     H97150   5.008   7.556   0.878 -0.0751 -1.7516 -0.6913
  720MOL0     H97151   4.764   7.361   0.912  0.3614 -0.6829 -1.2060
  720MOL0     H97152   4.516   7.357   0.866 -0.8649 -0.7191  1.2637
  720MOL0     H97153   4.499   7.333   1.030  5.9511  0.1951  1.5220
  720MOL0     H97154   4.380   7.564   0.860  1.0041 -1.1985  0.5348
  720MOL0     H97155   4.350   7.563   1.025 -0.4206  2.3996 -1.6779
  720MOL0     H97156   4.243   7.327   0.981 -2.4819 -1.1654 -1.0242
  720MOL0     H97157   4.244   7.402   0.811  1.6084  4.0476 -0.7481
  720MOL0     H97158   4.025   7.442   0.930 -0.6517 -1.0230  2.2215
  720MOL0     H97159   4.114   7.582   0.890  0.7743 -1.3336 -0.9729
  720MOL0     H97160   3.989   7.458   1.304  0.1313  2.1743  0.8285
  720MOL0     H97161   3.792   7.404   1.412 -0.8090 -0.9506  2.4069
  720MOL0     H97162   3.766   7.565   1.491 -0.0917 -1.5714  1.3479
  720MOL0     H97163   3.643   7.484   1.411  0.7135  1.3184  0.4435
  720MOL0     H97164   3.318   7.718   1.193 -2.0870 -0.3822  1.9366
  720MOL0     H97165   3.123   7.847   1.199  0.3341 -1.3724  0.7835
  720MOL0     H97166   3.031   8.025   1.379 -4.7466 -2.6789 -1.4227
  720MOL0     H97167   2.989   8.201   1.351  0.6987  0.1788 -0.5296
  720MOL0     H97168   2.852   8.084   1.145  0.0464 -0.0133 -1.3608
  720MOL0     H97169   2.901   7.938   1.227  0.4080 -0.3321  0.4873
  720MOL0     H97170   2.732   8.151   1.366  2.4776 -0.5022  2.1297
  720MOL0     H97171   2.783   8.010   1.440 -0.5112 -1.1742  0.1386
  720MOL0     H97172   2.540   7.987   1.343 -0.3742 -2.8366 -0.0809
  720MOL0     H97173   2.618   8.018   1.185  6.9180  1.1186  0.0195
  720MOL0     H97174   2.712   7.784   1.353  0.4243  3.5602  1.4591
  720MOL0     H97175   2.727   7.816   1.189 -0.4512 -0.4109  0.5996
  720MOL0     H97176   2.491   7.801   1.139 -0.2230  1.8418  1.0895
  720MOL0     H97177   2.565   7.647   1.201 -0.2603 -0.6627 -0.7301
  720MOL0     H97178   2.353   7.836   1.309  0.2086  2.0557 -0.5071
  720MOL0     H97179   2.454   7.743   1.427 -0.7002  0.0535 -0.0615
  720MOL0     H97180   2.404   7.532   1.320  3.0777  1.3419 -4.8055
  720MOL0     H97181   2.293   7.608   1.209 -0.8837  1.9192  0.6712
  720MOL0     H97182   3.358   8.207   1.210  0.7963 -1.2684 -0.3997
  720MOL0     H97183   3.562   8.055   1.215  1.1039 -1.3840  0.7637
  720MOL0     H97184   3.772   7.808   1.051 -0.7689 -0.3286  0.8635
  720MOL0     H97185   3.993   7.728   1.000  1.8472 -1.8867  0.3665
  720MOL0     H97186   5.782   7.378   1.613  4.1944 -0.7772  0.0391
  720MOL0     H97187   5.977   7.385   1.762 -0.1567  0.5802 -1.3660
  720MOL0     H97188   6.327   7.610   1.897 -1.0051  2.7729  0.1093
  720MOL0     H97189   6.524   7.643   2.001 -1.4134  3.2965 -1.6078
  720MOL0     H97190   6.750   7.631   2.307 -0.3043 -2.7714 -0.2141
  720MOL0     H97191   6.690   7.571   2.168 -1.0711 -0.0821  0.1411
  720MOL0     H97192   6.693   7.866   2.214 -0.0907  1.2364 -1.2575
  720MOL0     H97193   6.668   7.789   2.052  1.0881 -1.0277 -0.7211
  720MOL0     H97194   6.913   7.711   2.058 -0.4998 -1.4363  2.4629
  720MOL0     H97195   6.910   7.796   2.209 -0.6072 -0.0368 -0.3551
  720MOL0     H97196   6.837   8.011   2.096  2.8945  1.1085  0.5254
  720MOL0     H97197   6.881   7.921   1.938  3.2051 -0.6781  0.2193
  720MOL0     H97198   7.260   7.961   2.091  0.6306  0.1573 -0.3284
  720MOL0     H97199   6.318   7.699   2.378  2.4142  0.1667  0.6521
  720MOL0     H97200   6.099   7.656   2.262 -1.8515  0.1531 -2.2541
  721MOL0     O97201   2.128   8.396   9.664  0.5478 -0.6560  1.0870
  721MOL0     C97202   2.079   8.316   9.583 -0.4744  0.5248  0.4815
  721MOL0     O97203   2.019   8.200   9.608 -0.2645  0.0519 -0.2953
  721MOL0     C97204   1.983   8.153   9.732 -0.2696 -0.0629  0.5382
  721MOL0     C97205   2.052   8.183   9.849 -0.0964  0.1447 -0.1861
  721MOL0     C97206   2.014   8.126   9.976  0.0900  0.6513 -0.1054
  721MOL0     C97207   1.914   8.021   9.985 -0.8524 -0.1176 -0.6206
  721MOL0     O97208   1.885   7.949  10.097 -0.5790 -0.1780 -0.4725
  721MOL0     C97209   1.994   7.932  10.193  0.8704  0.8480  0.2971
  721MOL0     C97210   1.941   7.827  10.283 -1.3910  1.8665 -0.0455
  721MOL0     C97211   1.848   7.884  10.381 -0.8288  0.2306 -0.1103
  721MOL0     C97212   1.825   7.776  10.486 -0.0579  0.3033  0.4436
  721MOL0     C97213   1.733   7.816  10.601 -1.0430  0.5076 -0.3619
  721MOL0     C97214   1.803   7.918  10.679 -0.4163 -0.9309  1.3850
  721MOL0     C97215   1.774   7.905  10.823 -0.7860 -0.0861  0.3391
  721MOL0     C97216   1.827   8.031  10.901 -0.1425  0.5254  0.1377
  721MOL0     N97217   1.968   8.042  10.909 -0.0713 -0.3851 -1.2501
  721MOL0     C97218   2.052   8.113  10.830  0.1661  0.5879 -0.0496
  721MOL0     C97219   2.175   8.076  10.872  0.1978  0.0460 -0.8095
  721MOL0     C97220   2.317   8.128  10.840  0.9447 -0.6453 -0.2789
  721MOL0     C97221   2.375   8.216  10.960  0.7076 -0.6892 -0.3595
  721MOL0     C97222   2.320   8.358  10.951  0.7834  0.1274 -0.0198
  721MOL0     C97223   2.384   8.459  11.037 -0.9289  0.4775 -1.4364
  721MOL0     O97224   2.318   8.588  11.030  0.5559  0.3088  0.0222
  721MOL0     C97225   2.378   8.676  11.107  0.5566  0.3521 -0.6476
  721MOL0     C97226   2.344   8.680  11.237 -0.5716  0.4777 -1.3600
  721MOL0     C97227   2.402   8.777  11.323 -0.0828  0.4887  0.6315
  721MOL0     C97228   2.337   8.781  11.458 -0.0445  0.0670  0.3655
  721MOL0     C97229   2.498   8.869  11.279  0.2059 -0.3272 -0.1097
  721MOL0     C97230   2.561   8.978  11.364 -0.9777  0.1912 -0.0016
  721MOL0     O97231   2.630   9.082  11.299  0.0423 -0.2920 -0.0652
  721MOL0     C97232   2.665   9.200  11.368  0.1293  0.2487  0.0268
  721MOL0     C97233   2.605   9.328  11.330 -0.5149 -0.4219 -0.1448
  721MOL0     C97234   2.645   9.452  11.377  0.2814 -0.0457  0.3286
  721MOL0     C97235   2.735   9.453  11.479 -0.8153  0.8419  0.8108
  721MOL0     O97236   2.759   9.574  11.542  0.0604 -0.2307  0.1455
  721MOL0     C97237   2.896   9.598  11.586 -0.7047  0.5570  0.7473
  721MOL0     C97238   2.897   9.690  11.710  0.1423 -0.7117 -0.0888
  721MOL0     C97239   2.989   9.646  11.823  0.0477  0.0640  0.1640
  721MOL0     C97240   3.039   9.774  11.897  0.4841 -0.0396 -0.1281
  721MOL0     C97241   3.110   9.722  12.016  0.4122  1.1489 -0.2438
  721MOL0     C97242   3.009   9.667  12.124 -0.4280  1.1339 -0.3616
  721MOL0     C97243   2.906   9.765  12.185  0.3634  0.6202 -0.1174
  721MOL0     C97244   2.972   9.886  12.251 -0.0786  1.0206 -0.7216
  721MOL0    Cl97245   3.058   9.827  12.395 -0.7391 -0.0567 -0.3161
  721MOL0     C97246   2.792   9.331  11.534  0.4950 -0.2534 -0.3823
  721MOL0     C97247   2.764   9.206  11.465 -1.3832  0.3510 -0.3504
  721MOL0     O97248   2.528   8.984  11.485  0.2397 -0.4425 -0.0591
  721MOL0     C97249   2.530   8.859  11.137 -0.6005  0.7566  0.8745
  721MOL0     C97250   2.469   8.764  11.050 -0.8417 -0.0786  0.0032
  721MOL0     N97251   2.167   7.973  10.962 -0.4034  0.1103  0.0595
  721MOL0     N97252   2.041   7.957  10.976 -0.6953  0.6256  0.0352
  721MOL0     C97253   1.846   7.993   9.863  0.4144  0.6170  0.3489
  721MOL0     C97254   1.880   8.058   9.741 -0.1312 -0.2035  0.8083
  721MOL0     C97255   2.079   8.369   9.442 -0.2608 -0.3655  0.1387
  721MOL0     C97256   2.136   8.495   9.408 -0.5784  0.0958 -0.6590
  721MOL0     C97257   2.137   8.533   9.280  0.5685 -0.5994 -0.0549
  721MOL0     C97258   2.085   8.458   9.175  0.1775 -0.2327 -0.2489
  721MOL0     O97259   2.076   8.499   9.043  0.7905  0.2397  0.2467
  721MOL0     C97260   2.164   8.592   8.989 -0.1612  0.7031 -0.5073
  721MOL0     C97261   2.299   8.527   8.958  0.9117  0.6133 -0.0768
  721MOL0     C97262   2.292   8.444   8.829  0.5460 -0.0707 -0.1654
  721MOL0     C97263   2.428   8.392   8.769 -0.1616 -0.5439 -0.6617
  721MOL0     C97264   2.500   8.496   8.699 -0.0218 -0.6014  0.6487
  721MOL0     C97265   2.558   8.564   8.612  0.4457 -0.3282 -0.1381
  721MOL0     C97266   2.015   8.342   9.207 -0.7180  1.1067  0.0265
  721MOL0     C97267   2.014   8.302   9.336  0.0164 -0.6704 -0.3670
  721MOL0     H97268   2.127   8.258   9.871  0.1390  0.2264 -1.2249
  721MOL0     H97269   2.063   8.152  10.069  1.6254 -3.1642  0.3529
  721MOL0     H97270   2.077   7.885  10.138  0.1582 -0.3936  0.2381
  721MOL0     H97271   2.016   8.023  10.250 -1.0594  1.0514  0.7782
  721MOL0     H97272   1.901   7.747  10.221 -0.4082  0.8277  0.6143
  721MOL0     H97273   2.036   7.789  10.322 -2.6209 -2.8471 -0.9900
  721MOL0     H97274   1.885   7.978  10.422  0.8810 -0.7410  0.6935
  721MOL0     H97275   1.759   7.920  10.331 -0.6321 -1.9588 -2.2261
  721MOL0     H97276   1.772   7.695  10.435 -0.5414 -0.6275  2.3574
  721MOL0     H97277   1.920   7.737  10.522 -0.2090 -0.7504 -0.2468
  721MOL0     H97278   1.646   7.872  10.564 -0.6220  1.7083  0.3954
  721MOL0     H97279   1.684   7.734  10.654 -2.7638  1.7575  0.0891
  721MOL0     H97280   1.912   7.913  10.682 -0.3782 -1.9175 -0.2839
  721MOL0     H97281   1.769   8.017  10.646 -1.6062 -2.0259 -0.8907
  721MOL0     H97282   1.665   7.906  10.834 -1.0353  0.1611 -1.7695
  721MOL0     H97283   1.817   7.811  10.861 -0.0722  0.8279  1.9012
  721MOL0     H97284   1.793   8.022  11.004  2.8757  0.9656  1.2446
  721MOL0     H97285   1.786   8.122  10.855 -0.3013 -0.2809 -1.4082
  721MOL0     H97286   2.028   8.192  10.760  0.8323  0.8350 -0.0113
  721MOL0     H97287   2.386   8.045  10.823  0.9418 -0.6082 -0.4748
  721MOL0     H97288   2.317   8.184  10.747  2.8645  2.8843  1.6466
  721MOL0     H97289   2.484   8.213  10.957  0.8312  1.7904 -2.3998
  721MOL0     H97290   2.346   8.171  11.055 -0.0948 -1.8948 -1.1348
  721MOL0     H97291   2.213   8.364  10.974  1.1384  0.5483  1.6996
  721MOL0     H97292   2.341   8.384  10.847  2.5591  0.5506  0.4206
  721MOL0     H97293   2.488   8.482  11.014 -0.8080  2.1797  0.4847
  721MOL0     H97294   2.369   8.435  11.142 -0.7638  1.7218 -1.1199
  721MOL0     H97295   2.283   8.598  11.275  0.8426 -1.5921 -3.2991
  721MOL0     H97296   2.303   8.884  11.468 -0.7301 -0.3572  2.9952
  721MOL0     H97297   2.250   8.715  11.458 -0.2428  0.2998  2.0594
  721MOL0     H97298   2.410   8.747  11.532  2.3809 -0.6318 -2.1468
  721MOL0     H97299   2.540   9.320  11.243 -0.5969  2.1026 -0.3667
  721MOL0     H97300   2.603   9.547  11.343 -1.3896 -1.5184 -2.0135
  721MOL0     H97301   2.944   9.504  11.615 -0.1661  0.7792  0.5770
  721MOL0     H97302   2.957   9.643  11.507 -1.2140 -1.6334 -1.0045
  721MOL0     H97303   2.926   9.785  11.665  1.3045 -0.1211  1.7918
  721MOL0     H97304   2.795   9.699  11.747 -0.6455 -1.3945 -1.9475
  721MOL0     H97305   3.082   9.601  11.787  0.0883  0.4217 -0.1783
  721MOL0     H97306   2.941   9.567  11.882  2.8265 -0.2396  2.2495
  721MOL0     H97307   3.112   9.828  11.835  0.7722  0.3726  0.5567
  721MOL0     H97308   2.970   9.843  11.946  0.2009 -0.7653  0.5035
  721MOL0     H97309   3.178   9.794  12.061  1.7579  0.4822 -1.1415
  721MOL0     H97310   3.170   9.637  11.984 -0.9314 -0.3838  1.1317
  721MOL0     H97311   2.967   9.568  12.103 -0.8159  0.5697  2.5976
  721MOL0     H97312   3.080   9.645  12.204 -0.3979  3.1398  0.1927
  721MOL0     H97313   2.858   9.703  12.261 -0.6305 -1.4941 -2.2947
  721MOL0     H97314   2.833   9.795  12.108  2.2032  0.0395 -2.1998
  721MOL0     H97315   2.884   9.939  12.289 -1.9156 -0.8662 -2.1710
  721MOL0     H97316   3.038   9.947  12.188 -1.2500  0.2285 -2.7850
  721MOL0     H97317   2.846   9.318  11.627 -1.2866  1.1999  0.9604
  721MOL0     H97318   2.810   9.111  11.492 -1.0716  0.6151  0.0478
  721MOL0     H97319   2.601   8.924  11.087  0.5402 -1.6976 -0.9117
  721MOL0     H97320   2.492   8.772  10.944  3.1813 -0.3067  0.7063
  721MOL0     H97321   1.783   7.905   9.857  1.4904 -0.3494  2.1538
  721MOL0     H97322   1.837   8.040   9.644 -1.2008 -2.7304  1.6638
  721MOL0     H97323   2.160   8.565   9.488  3.9833  0.7733 -2.3410
  721MOL0     H97324   2.168   8.636   9.262 -4.0046  1.4574  2.1798
  721MOL0     H97325   2.127   8.642   8.899  0.4414  1.0140 -0.5860
  721MOL0     H97326   2.190   8.673   9.058  1.5276 -0.7187  0.5957
  721MOL0     H97327   2.336   8.458   9.034  1.0752  0.9804  0.1828
  721MOL0     H97328   2.373   8.608   8.949  0.1267  1.1129 -3.9036
  721MOL0     H97329   2.238   8.494   8.748  0.8122 -1.3586 -1.1807
  721MOL0     H97330   2.239   8.354   8.862  0.5125 -0.0633 -0.1983
  721MOL0     H97331   2.405   8.302   8.712  1.6812 -1.7231  0.3715
  721MOL0     H97332   2.484   8.357   8.856  2.1571  0.9180 -1.4675
  721MOL0     H97333   2.609   8.646   8.565  1.0150 -0.8450 -0.4346
  721MOL0     H97334   1.968   8.288   9.126 -0.3101  2.1945 -0.9663
  721MOL0     H97335   1.956   8.216   9.366 -1.4349 -0.0871 -1.4044
  722MOL0     O97336   1.570   8.970   2.288  0.1415 -0.6841  0.1190
  722MOL0     C97337   1.679   9.024   2.272 -0.5337  0.0478  0.5076
  722MOL0     O97338   1.703   9.126   2.183 -0.2370 -0.6455 -0.1043
  722MOL0     C97339   1.613   9.197   2.110 -0.1961  0.1607 -0.0846
  722MOL0     C97340   1.475   9.194   2.122  0.4940  0.8295 -0.9834
  722MOL0     C97341   1.389   9.304   2.079 -0.2811 -0.9454  0.3820
  722MOL0     C97342   1.439   9.417   2.010  0.0959  0.8955 -0.7844
  722MOL0     O97343   1.366   9.526   1.957 -0.5564  0.8356  0.4125
  722MOL0     C97344   1.226   9.521   1.951  0.4633 -0.1993 -0.8871
  722MOL0     C97345   1.162   9.619   1.870  0.6438 -0.2571 -0.6352
  722MOL0     C97346   1.146   9.586   1.719 -0.5464  0.3437  0.1213
  722MOL0     C97347   1.062   9.458   1.688 -0.0853  0.0825 -0.3463
  722MOL0     C97348   1.000   9.473   1.555 -0.2750 -0.2276  0.4718
  722MOL0     C97349   0.872   9.553   1.566  0.7472 -0.5079 -0.6081
  722MOL0     C97350   0.760   9.514   1.466  0.1713 -0.3899  0.3815
  722MOL0     C97351   0.623   9.584   1.496 -0.3886  0.1754 -1.1186
  722MOL0     N97352   0.538   9.597   1.381 -0.3445 -0.4853  0.3861
  722MOL0     C97353   0.462   9.501   1.316 -0.0289 -0.3103 -0.3350
  722MOL0     C97354   0.384   9.570   1.227 -0.1298  0.6738 -0.3014
  722MOL0     C97355   0.271   9.506   1.141 -0.0935  0.3177 -0.0059
  722MOL0     C97356   0.316   9.505   0.998  0.2820 -0.3270  0.2083
  722MOL0     C97357   0.446   9.430   0.969 -0.8016 -0.2381 -0.2227
  722MOL0     C97358   0.444   9.375   0.830  1.4137 -0.0942 -0.3413
  722MOL0     O97359   0.335   9.268   0.822 -0.2936  1.1873  0.9667
  722MOL0     C97360   0.340   9.202   0.698 -1.1453  0.1865 -0.3585
  722MOL0     C97361   0.448   9.137   0.639 -0.0014 -1.0255 -0.6586
  722MOL0     C97362   0.448   9.086   0.517 -0.0368 -1.0733  0.4280
  722MOL0     C97363   0.567   8.988   0.485 -0.5071 -0.5161 -0.7547
  722MOL0     C97364   0.329   9.093   0.439  0.3791 -0.0886 -0.7423
  722MOL0     C97365   0.305   9.031   0.308  0.3632 -0.3958 -0.6582
  722MOL0     O97366   0.177   9.026   0.269  0.0196  0.0065  0.0912
  722MOL0     C97367   0.153   9.012   0.130  0.1634  0.3372  0.6187
  722MOL0     C97368   0.109   9.111   0.046 -0.9178 -0.2847 -0.7008
  722MOL0     C97369   0.092   9.096  -0.087 -0.2007 -0.3832 -0.1254
  722MOL0     C97370   0.106   8.979  -0.146 -0.0306  0.0191 -0.5311
  722MOL0     O97371   0.083   8.968  -0.279  0.4515 -0.0272  0.0679
  722MOL0     C97372   0.075   8.835  -0.329 -0.1441  0.8479 -0.8217
  722MOL0     C97373   0.017   8.827  -0.468  0.6991 -0.3063  0.1658
  722MOL0     C97374   0.104   8.891  -0.576 -0.4496  0.3739  0.0617
  722MOL0     C97375   0.050   8.827  -0.707 -0.9572  0.0334  0.0882
  722MOL0     C97376   0.161   8.837  -0.815 -0.1112 -0.2054 -0.0824
  722MOL0     C97377   0.281   8.736  -0.810  1.0303  0.0457 -1.0291
  722MOL0     C97378   0.416   8.791  -0.860 -0.4927  0.5433  0.4931
  722MOL0     C97379   0.499   8.671  -0.907  0.0976 -0.1843  0.0155
  722MOL0    Cl97380   0.515   8.557  -0.770  0.7561 -0.5971 -0.5903
  722MOL0     C97381   0.152   8.876  -0.067 -0.3837 -0.5117 -0.3239
  722MOL0     C97382   0.171   8.887   0.067 -0.4824  0.5516 -0.5316
  722MOL0     O97383   0.398   9.006   0.232 -0.2416  0.1917 -0.1847
  722MOL0     C97384   0.211   9.160   0.506 -0.0729  0.3699  0.2437
  722MOL0     C97385   0.219   9.211   0.632  0.2013  1.0648 -0.1603
  722MOL0     N97386   0.419   9.702   1.233  0.2280  0.2774 -0.0034
  722MOL0     N97387   0.508   9.719   1.323 -0.2093  0.1240  0.0533
  722MOL0     C97388   1.583   9.416   1.993  0.1642 -0.2823  0.8702
  722MOL0     C97389   1.666   9.310   2.038  0.1098 -1.0508  0.5675
  722MOL0     C97390   1.779   8.961   2.359  0.1192  0.2329 -1.0408
  722MOL0     C97391   1.741   8.883   2.480 -0.8296  0.2090 -0.1051
  722MOL0     C97392   1.849   8.832   2.560 -0.4443 -0.2418  0.6450
  722MOL0     C97393   1.980   8.862   2.537  0.5337 -0.7792 -0.2063
  722MOL0     O97394   2.080   8.812   2.617 -0.6018 -0.4016 -0.3705
  722MOL0     C97395   2.137   8.691   2.576 -0.5188  1.2252 -0.3295
  722MOL0     C97396   2.167   8.599   2.698 -0.2057 -0.0103 -0.4095
  722MOL0     C97397   2.049   8.557   2.785 -0.0385  0.4183 -0.5868
  722MOL0     C97398   2.096   8.458   2.895 -0.5017 -0.6071 -0.3156
  722MOL0     C97399   2.131   8.537   3.006  0.0580 -1.1679  0.0229
  722MOL0     C97400   2.144   8.597   3.105 -0.2232 -0.8356  0.6394
  722MOL0     C97401   2.015   8.934   2.425 -0.3205 -1.1326  1.2236
  722MOL0     C97402   1.912   8.993   2.344 -0.6476  0.3302  0.0536
  722MOL0     H97403   1.432   9.112   2.178  1.2268  1.0083 -0.1291
  722MOL0     H97404   1.283   9.296   2.098  0.1252 -3.7319  2.0683
  722MOL0     H97405   1.188   9.421   1.930 -2.7087  0.1991  2.1179
  722MOL0     H97406   1.193   9.542   2.053  0.5093  0.8370 -1.0738
  722MOL0     H97407   1.066   9.636   1.920  1.6220  0.2731  1.1654
  722MOL0     H97408   1.223   9.709   1.876 -0.1759  0.3662 -1.4474
  722MOL0     H97409   1.111   9.675   1.666 -0.2691 -0.7959 -2.1082
  722MOL0     H97410   1.247   9.570   1.680 -0.1213 -0.0288  1.3147
  722MOL0     H97411   1.122   9.367   1.691 -0.7069 -0.3301  2.3532
  722MOL0     H97412   0.984   9.449   1.765 -1.2366  2.5080 -1.1205
  722MOL0     H97413   1.086   9.524   1.511  0.3177  1.6917  3.5592
  722MOL0     H97414   0.980   9.375   1.511 -0.6146  0.8366 -1.9356
  722MOL0     H97415   0.830   9.552   1.667  0.6107 -5.4489 -0.4739
  722MOL0     H97416   0.898   9.654   1.531 -1.9369  1.1227  1.6418
  722MOL0     H97417   0.796   9.555   1.371 -4.3607 -4.1568 -3.5036
  722MOL0     H97418   0.759   9.405   1.450 -1.6360 -0.5197  1.1150
  722MOL0     H97419   0.632   9.684   1.541 -2.2332  0.2033 -0.7103
  722MOL0     H97420   0.574   9.516   1.566 -1.8322  2.4198  0.2074
  722MOL0     H97421   0.464   9.397   1.348  0.8967 -0.8568 -2.0581
  722MOL0     H97422   0.241   9.404   1.168 -5.1540  2.0470  1.9373
  722MOL0     H97423   0.178   9.559   1.163 -1.2914 -1.0714 -1.5396
  722MOL0     H97424   0.326   9.609   0.966  0.8483 -0.6731 -0.7585
  722MOL0     H97425   0.231   9.470   0.939 -0.8906  0.1080  1.5624
  722MOL0     H97426   0.461   9.349   1.040  0.8677  1.0112  0.9328
  722MOL0     H97427   0.530   9.498   0.992 -2.3443  0.8452  2.7621
  722MOL0     H97428   0.533   9.314   0.813  0.2384 -1.7195 -0.9909
  722MOL0     H97429   0.436   9.460   0.761 -0.4555  1.8718  2.1022
  722MOL0     H97430   0.533   9.132   0.706 -1.7765  0.7582  1.8839
  722MOL0     H97431   0.612   8.960   0.581 -2.3016  2.6428  1.1607
  722MOL0     H97432   0.530   8.899   0.433  0.0496  0.4772 -3.0122
  722MOL0     H97433   0.646   9.040   0.430  1.6947  0.3848  2.9639
  722MOL0     H97434   0.090   9.211   0.083  0.3369 -1.0354  2.2894
  722MOL0     H97435   0.070   9.179  -0.154 -1.2297 -0.5434 -0.0129
  722MOL0     H97436   0.174   8.791  -0.314 -2.1712 -3.0822  3.3497
  722MOL0     H97437   0.013   8.776  -0.262 -0.5485  2.3213  0.1513
  722MOL0     H97438   0.001   8.720  -0.487  2.0365 -0.4909 -0.0306
  722MOL0     H97439  -0.085   8.867  -0.469  0.5445 -0.6896  0.2253
  722MOL0     H97440   0.209   8.871  -0.551 -0.7945  0.0690  1.3397
  722MOL0     H97441   0.096   9.000  -0.571  1.0221  0.4564  1.7387
  722MOL0     H97442   0.023   8.722  -0.698  1.5671 -0.8052 -1.0967
  722MOL0     H97443  -0.034   8.884  -0.746 -2.4636 -3.8403 -2.9225
  722MOL0     H97444   0.213   8.933  -0.811  0.1323 -0.0197 -4.0358
  722MOL0     H97445   0.116   8.825  -0.914  0.5828  1.0223 -0.5663
  722MOL0     H97446   0.278   8.707  -0.704  0.7750 -0.5178 -1.1840
  722MOL0     H97447   0.243   8.656  -0.874 -1.0472  1.4598 -1.6372
  722MOL0     H97448   0.471   8.838  -0.778 -0.0098  0.1004  0.4355
  722MOL0     H97449   0.403   8.869  -0.936  2.1142  0.8820  0.2934
  722MOL0     H97450   0.599   8.698  -0.941  0.7401 -1.9558  0.3932
  722MOL0     H97451   0.455   8.623  -0.995  3.0900 -0.6148 -1.3716
  722MOL0     H97452   0.173   8.780  -0.115 -0.6563 -1.1866  0.8795
  722MOL0     H97453   0.210   8.807   0.128 -0.3648 -1.8280 -3.5241
  722MOL0     H97454   0.116   9.153   0.455  1.4533 -2.4367 -2.5389
  722MOL0     H97455   0.135   9.250   0.690  1.4331  0.4596  2.1594
  722MOL0     H97456   1.639   9.492   1.940 -0.6473 -0.8466 -0.8691
  722MOL0     H97457   1.773   9.316   2.021 -0.4002 -0.9229 -3.5275
  722MOL0     H97458   1.637   8.868   2.508 -1.1257  1.2190 -0.6252
  722MOL0     H97459   1.824   8.770   2.646 -1.8857 -1.1185 -0.3589
  722MOL0     H97460   2.071   8.634   2.511 -3.2741  0.5881  2.7646
  722MOL0     H97461   2.232   8.711   2.526 -0.6719 -1.5679 -1.9013
  722MOL0     H97462   2.228   8.657   2.768 -0.1262  0.1281 -0.5918
  722MOL0     H97463   2.222   8.509   2.669  3.2291  0.6973  2.9513
  722MOL0     H97464   1.986   8.495   2.720  1.0849 -3.2732  1.5247
  722MOL0     H97465   1.997   8.643   2.828 -2.2105 -1.6408  1.1415
  722MOL0     H97466   2.167   8.387   2.852 -0.7747 -2.0195  1.4279
  722MOL0     H97467   2.009   8.399   2.927  0.0114 -0.8178  0.7494
  722MOL0     H97468   2.162   8.656   3.192 -1.3311 -0.0316  0.3626
  722MOL0     H97469   2.118   8.949   2.394 -1.0879  0.8025 -0.7215
  722MOL0     H97470   1.928   9.059   2.259 -4.8739 -0.5581 -1.7002
  723MOL0     O97471   4.025   1.919  10.195 -0.7696 -0.0481  0.0947
  723MOL0     C97472   4.139   1.895  10.164  0.2920  0.3724 -0.6924
  723MOL0     O97473   4.254   1.897  10.244  1.1209  0.0946  0.3692
  723MOL0     C97474   4.241   1.920  10.379 -0.5703  0.0757 -0.1155
  723MOL0     C97475   4.225   2.052  10.425 -1.0929 -0.0734  0.6550
  723MOL0     C97476   4.203   2.066  10.568  0.4951  0.1975  0.5541
  723MOL0     C97477   4.175   1.959  10.652 -0.7185  0.7784  0.1000
  723MOL0     O97478   4.151   1.988  10.779  0.5323 -0.2191  0.7694
  723MOL0     C97479   4.140   1.876  10.868 -0.9197 -0.9451  1.6145
  723MOL0     C97480   4.122   1.911  11.018 -0.8336 -0.0353  0.3373
  723MOL0     C97481   4.073   1.789  11.095  0.7832  0.2799 -0.2150
  723MOL0     C97482   4.050   1.817  11.244  1.2331 -0.2075 -0.9191
  723MOL0     C97483   4.003   1.700  11.338  0.1044  0.6012 -0.3397
  723MOL0     C97484   4.128   1.617  11.363  0.7007  0.4661 -1.4589
  723MOL0     C97485   4.117   1.528  11.496  0.0454 -0.6621  0.1294
  723MOL0     C97486   4.035   1.407  11.478  0.1291  0.7494 -0.4885
  723MOL0     N97487   4.046   1.325  11.602  0.2470  0.3520  0.5109
  723MOL0     C97488   3.987   1.348  11.718 -0.3383  0.6464 -1.1309
  723MOL0     C97489   4.010   1.234  11.791  0.3229 -0.1442 -0.3489
  723MOL0     C97490   3.940   1.192  11.918  0.3253 -0.0787  0.9634
  723MOL0     C97491   3.821   1.101  11.875 -0.3887  0.0594 -0.5438
  723MOL0     C97492   3.686   1.176  11.870 -0.4519  0.0288 -0.3280
  723MOL0     C97493   3.562   1.078  11.889 -0.7714  0.4828  0.0411
  723MOL0     O97494   3.490   1.107  12.013 -0.4704  0.6148 -0.6312
  723MOL0     C97495   3.352   1.135  12.002 -0.8657  0.1899 -0.0171
  723MOL0     C97496   3.270   1.056  11.923  0.0880 -0.5202 -0.1690
  723MOL0     C97497   3.132   1.067  11.944  0.0527 -0.7250 -0.9223
  723MOL0     C97498   3.057   0.967  11.867  0.3056 -0.4147  0.4879
  723MOL0     C97499   3.072   1.173  12.013  0.5960 -0.2888  0.3358
  723MOL0     C97500   2.926   1.200  12.010  0.4590  0.2540 -0.0574
  723MOL0     O97501   2.840   1.154  11.914 -0.0724 -0.4581 -0.5911
  723MOL0     C97502   2.707   1.184  11.904 -0.1966 -0.5161  0.9467
  723MOL0     C97503   2.634   1.279  11.971 -0.5735 -0.6187 -0.3905
  723MOL0     C97504   2.499   1.298  11.947  0.7570 -0.4409 -0.9133
  723MOL0     C97505   2.443   1.240  11.832  0.8786  0.4463  0.6913
  723MOL0     O97506   2.310   1.265  11.801 -0.4786 -0.5068  0.6534
  723MOL0     C97507   2.296   1.401  11.740 -0.2040 -0.0465  0.2549
  723MOL0     C97508   2.158   1.398  11.685 -0.5709  0.7321  0.1452
  723MOL0     C97509   2.037   1.415  11.782  0.4815 -0.4138  0.1979
  723MOL0     C97510   1.972   1.274  11.805  0.4808  0.1031 -0.0892
  723MOL0     C97511   1.831   1.270  11.863  0.4661 -0.4102 -0.4998
  723MOL0     C97512   1.837   1.375  11.978  0.0332  0.0907 -0.2591
  723MOL0     C97513   1.701   1.387  12.050 -0.2036  0.5754  0.9567
  723MOL0     C97514   1.678   1.285  12.157  0.0507  0.6931  0.0740
  723MOL0    Cl97515   1.801   1.295  12.272 -0.9102  0.0730  0.0949
  723MOL0     C97516   2.518   1.144  11.757  0.1890  0.0795  0.0456
  723MOL0     C97517   2.647   1.111  11.800 -0.3886 -0.0788 -1.6196
  723MOL0     O97518   2.884   1.237  12.122  0.0868  1.0696 -0.2959
  723MOL0     C97519   3.154   1.258  12.080 -0.9889  0.4217 -0.8655
  723MOL0     C97520   3.295   1.232  12.085  0.1618 -0.4122  0.0164
  723MOL0     N97521   4.063   1.140  11.710  1.5207 -0.3020  0.4210
  723MOL0     N97522   4.082   1.200  11.598  1.1778  0.3519  0.2958
  723MOL0     C97523   4.199   1.827  10.600  0.9487 -0.3872  0.6204
  723MOL0     C97524   4.226   1.812  10.464 -0.2560  0.0964 -0.1277
  723MOL0     C97525   4.150   1.829  10.036  0.7819 -1.4920 -0.3021
  723MOL0     C97526   4.256   1.864   9.953 -1.0226 -0.6422 -0.6343
  723MOL0     C97527   4.278   1.805   9.827  0.4840 -0.7439 -0.1759
  723MOL0     C97528   4.194   1.688   9.789 -0.1351 -0.8295  0.4432
  723MOL0     O97529   4.216   1.608   9.678 -0.1105 -0.6622  0.6956
  723MOL0     C97530   4.259   1.678   9.558 -0.8532 -0.4751 -1.1326
  723MOL0     C97531   4.238   1.590   9.440 -0.2578  0.1058  0.4769
  723MOL0     C97532   4.281   1.440   9.444 -0.0062 -0.5054 -0.1379
  723MOL0     C97533   4.423   1.409   9.490 -0.3479 -0.3505  1.1100
  723MOL0     C97534   4.446   1.264   9.473 -1.0801 -0.4697 -0.2790
  723MOL0     C97535   4.453   1.141   9.472  0.4589 -0.1336  0.2708
  723MOL0     C97536   4.097   1.652   9.874  0.0926 -0.6287 -0.9235
  723MOL0     C97537   4.068   1.726   9.998 -0.2042 -0.5735  0.3691
  723MOL0     H97538   4.231   2.140  10.362 -1.8689 -0.8764 -0.5780
  723MOL0     H97539   4.206   2.159  10.624 -2.3707  0.5335  0.2995
  723MOL0     H97540   4.050   1.818  10.844 -1.5486 -0.0088  1.6497
  723MOL0     H97541   4.225   1.810  10.852 -0.8253 -0.3252 -0.8950
  723MOL0     H97542   4.224   1.928  11.055 -0.1305 -1.3180 -0.8615
  723MOL0     H97543   4.052   1.994  11.025 -1.6607 -0.8359  2.0358
  723MOL0     H97544   3.981   1.759  11.044 -1.0432  5.2457 -0.3593
  723MOL0     H97545   4.146   1.708  11.088  1.1979  0.6526 -0.2449
  723MOL0     H97546   4.142   1.857  11.288  1.2002 -0.3732 -0.6962
  723MOL0     H97547   3.974   1.895  11.242  2.1744  0.8406  1.1431
  723MOL0     H97548   3.969   1.744  11.432  2.8589  0.2302  0.9381
  723MOL0     H97549   3.925   1.633  11.301 -0.3005  0.1497  1.2486
  723MOL0     H97550   4.164   1.554  11.280 -0.7953 -1.7662 -0.5092
  723MOL0     H97551   4.204   1.685  11.401 -0.6972  1.3789 -0.1673
  723MOL0     H97552   4.214   1.511  11.544 -0.6777  1.6911  2.7185
  723MOL0     H97553   4.072   1.596  11.569 -0.0354  0.5626 -1.0271
  723MOL0     H97554   4.074   1.346  11.396 -1.7686 -3.4106  1.3843
  723MOL0     H97555   3.930   1.433  11.461 -0.6757 -1.6191  0.4188
  723MOL0     H97556   3.930   1.439  11.737  1.0679  1.1477  1.1158
  723MOL0     H97557   4.011   1.126  11.969  2.1683 -1.0562 -2.5198
  723MOL0     H97558   3.906   1.275  11.980 -0.4078 -0.4611  1.0746
  723MOL0     H97559   3.814   1.029  11.957  0.5800  1.7127  1.0521
  723MOL0     H97560   3.847   1.053  11.780  0.5993  0.7176 -0.6187
  723MOL0     H97561   3.686   1.213  11.767 -0.9274 -0.5383 -0.5357
  723MOL0     H97562   3.685   1.261  11.940 -1.8229  2.7009 -3.3293
  723MOL0     H97563   3.600   0.976  11.895 -1.1801  0.2663 -0.9971
  723MOL0     H97564   3.498   1.087  11.801 -1.3448 -4.0609 -0.2064
  723MOL0     H97565   3.307   0.970  11.867 -2.7844  0.4984 -4.0484
  723MOL0     H97566   2.966   0.941  11.921 -1.6699  0.5543 -2.1724
  723MOL0     H97567   3.024   0.995  11.767 -2.3209  0.2045  1.4572
  723MOL0     H97568   3.116   0.875  11.860  2.3574  0.7899  1.0530
  723MOL0     H97569   2.685   1.343  12.043  1.1946 -1.0220 -1.2369
  723MOL0     H97570   2.445   1.368  12.010 -1.1573 -2.5861  0.0245
  723MOL0     H97571   2.295   1.464  11.830 -0.3150 -1.1227  1.0203
  723MOL0     H97572   2.370   1.447  11.673 -2.5496 -0.9113 -3.1847
  723MOL0     H97573   2.134   1.473  11.609  0.4365  3.1636  2.0692
  723MOL0     H97574   2.146   1.305  11.630 -2.5981  1.7550 -1.2779
  723MOL0     H97575   1.969   1.488  11.738  2.3283  1.6884  0.6055
  723MOL0     H97576   2.086   1.462  11.868  2.9287  1.3848 -2.0169
  723MOL0     H97577   1.974   1.215  11.713  1.3035  0.0360 -0.0367
  723MOL0     H97578   2.039   1.216  11.868 -1.2182 -1.6925  0.1667
  723MOL0     H97579   1.808   1.179  11.918  0.7796 -0.7440 -0.9211
  723MOL0     H97580   1.744   1.294  11.800  0.3273  1.0067  0.1747
  723MOL0     H97581   1.915   1.356  12.052 -0.1756  3.1636  0.8802
  723MOL0     H97582   1.850   1.475  11.936  0.1688 -0.7551 -2.3872
  723MOL0     H97583   1.620   1.388  11.977  0.8178 -3.2157 -0.4623
  723MOL0     H97584   1.700   1.485  12.099 -0.0404  0.0764  1.9735
  723MOL0     H97585   1.675   1.182  12.121 -0.0715  0.6953  0.0779
  723MOL0     H97586   1.582   1.297  12.208 -0.5256  2.2647 -1.2858
  723MOL0     H97587   2.473   1.098  11.669 -0.7618 -0.1487  0.6359
  723MOL0     H97588   2.717   1.045  11.750  2.1654 -0.0330  1.5595
  723MOL0     H97589   3.108   1.337  12.139 -2.2493  2.1794 -3.9509
  723MOL0     H97590   3.341   1.289  12.164 -1.0143 -3.4731  3.1694
  723MOL0     H97591   4.180   1.742  10.665  2.4651 -2.0672 -1.0246
  723MOL0     H97592   4.249   1.710  10.435  2.5843 -0.1125  2.3543
  723MOL0     H97593   4.332   1.939   9.973 -0.1874  0.1729 -5.5814
  723MOL0     H97594   4.360   1.842   9.767 -1.3219  1.3755 -1.4847
  723MOL0     H97595   4.205   1.772   9.543 -4.1163 -2.2724 -1.3651
  723MOL0     H97596   4.366   1.704   9.561 -0.4214 -1.6972 -3.4488
  723MOL0     H97597   4.291   1.625   9.350 -0.8910 -1.5671 -0.5987
  723MOL0     H97598   4.131   1.596   9.420 -0.0339 -1.3633 -1.4003
  723MOL0     H97599   4.271   1.384   9.351 -1.2837 -0.5437  0.0074
  723MOL0     H97600   4.213   1.386   9.511 -2.9203  0.1809 -2.3182
  723MOL0     H97601   4.431   1.447   9.592 -1.2587  0.6350  0.8337
  723MOL0     H97602   4.493   1.458   9.421 -0.9381  0.7664  1.2880
  723MOL0     H97603   4.465   1.034   9.475 -0.8312 -0.2831  0.6687
  723MOL0     H97604   4.053   1.558   9.842  0.0692  0.1791 -3.5640
  723MOL0     H97605   3.987   1.690  10.060 -0.7301 -3.2570 -1.6968
  724MOL0     O97606   4.711   6.395   4.559  1.1494  0.5427  0.6572
  724MOL0     C97607   4.685   6.363   4.439 -1.1195 -0.7463 -1.2658
  724MOL0     O97608   4.722   6.245   4.381  0.0863  0.8239  0.2660
  724MOL0     C97609   4.783   6.148   4.463  0.8910  0.1213  0.9528
  724MOL0     C97610   4.702   6.053   4.529 -0.2001  0.5520  0.3175
  724MOL0     C97611   4.772   5.964   4.615 -0.3610 -0.0082 -0.3117
  724MOL0     C97612   4.905   5.964   4.633  0.6047  0.4017 -0.1257
  724MOL0     O97613   4.954   5.897   4.741 -0.3269 -0.2831  0.4296
  724MOL0     C97614   5.059   5.967   4.816 -0.0717 -0.0532 -0.0275
  724MOL0     C97615   5.193   5.894   4.816  0.0747  0.0059  0.5426
  724MOL0     C97616   5.295   5.905   4.707  0.1208 -0.0005 -1.1734
  724MOL0     C97617   5.436   5.873   4.747 -0.4613 -0.1640  0.2250
  724MOL0     C97618   5.533   5.954   4.648  0.2816 -0.5527 -1.2410
  724MOL0     C97619   5.678   5.927   4.700 -0.0646 -1.3267  0.1447
  724MOL0     C97620   5.777   5.914   4.577  1.0652 -1.3158  0.8138
  724MOL0     C97621   5.769   5.779   4.515 -0.6648  0.1888  0.6435
  724MOL0     N97622   5.857   5.763   4.398 -0.9495  0.1834 -0.2172
  724MOL0     C97623   5.832   5.771   4.269  0.7988 -0.1863  0.1702
  724MOL0     C97624   5.945   5.740   4.195  0.4551  0.5051 -0.1325
  724MOL0     C97625   5.956   5.716   4.050 -0.0777  0.0916 -0.0132
  724MOL0     C97626   6.068   5.802   3.999 -0.5039  0.4378  0.8307
  724MOL0     C97627   6.066   5.805   3.843 -0.2294  0.3392 -0.3057
  724MOL0     C97628   6.147   5.690   3.773  0.3785 -1.0869 -0.1583
  724MOL0     O97629   6.108   5.560   3.783 -0.3159 -0.6774 -0.3953
  724MOL0     C97630   6.005   5.513   3.708 -0.6555  1.1543  0.1659
  724MOL0     C97631   5.923   5.586   3.623 -0.7846 -0.8420 -0.8643
  724MOL0     C97632   5.818   5.528   3.544 -0.7324 -0.1097 -0.2852
  724MOL0     C97633   5.747   5.630   3.454 -0.5261  1.2622  0.0120
  724MOL0     C97634   5.791   5.384   3.561 -0.1467  0.0745  0.1492
  724MOL0     C97635   5.677   5.321   3.495  0.4231 -0.0107 -1.0397
  724MOL0     O97636   5.652   5.201   3.548 -0.1063  0.2182 -0.5814
  724MOL0     C97637   5.565   5.103   3.495 -0.1697 -0.4594  0.2637
  724MOL0     C97638   5.482   5.118   3.380  0.7484 -0.6991  0.3304
  724MOL0     C97639   5.397   5.015   3.339 -0.4514  0.2000 -0.4253
  724MOL0     C97640   5.400   4.891   3.401  0.8418 -0.2455  0.1000
  724MOL0     O97641   5.329   4.781   3.358 -0.2192 -0.2283  0.0340
  724MOL0     C97642   5.260   4.791   3.243 -0.5227  1.0278 -0.6609
  724MOL0     C97643   5.229   4.639   3.209  0.5761 -0.4111 -0.4370
  724MOL0     C97644   5.131   4.585   3.324  0.8542  0.2500  0.3718
  724MOL0     C97645   5.081   4.456   3.267 -0.5850 -0.9008 -0.8534
  724MOL0     C97646   4.955   4.468   3.195  0.4318  0.4706  0.6144
  724MOL0     C97647   4.905   4.344   3.110 -0.0044  0.3060 -0.2837
  724MOL0     C97648   4.864   4.244   3.207 -0.6227  0.1618 -0.2479
  724MOL0     C97649   4.826   4.126   3.137 -0.2168 -0.2713  0.8923
  724MOL0    Cl97650   4.968   4.039   3.057 -0.0775  0.3625  0.1796
  724MOL0     C97651   5.477   4.874   3.514  0.0764  0.7073  0.4600
  724MOL0     C97652   5.560   4.978   3.554 -0.2655  0.1538 -0.6881
  724MOL0     O97653   5.599   5.373   3.408 -0.2190  0.0142  0.5163
  724MOL0     C97654   5.881   5.309   3.636 -0.2225  0.1065  0.3666
  724MOL0     C97655   5.979   5.373   3.707 -0.7295  0.2896  0.3809
  724MOL0     N97656   6.041   5.707   4.279 -0.2537  0.3182 -0.0007
  724MOL0     N97657   5.993   5.736   4.398 -0.4681  1.0401 -0.2814
  724MOL0     C97658   4.983   6.045   4.550  0.2483  0.4441  0.3374
  724MOL0     C97659   4.919   6.151   4.484 -0.4312  0.0322  0.4762
  724MOL0     C97660   4.613   6.469   4.359  0.1313 -0.0568 -0.0668
  724MOL0     C97661   4.581   6.593   4.420 -0.2950 -0.4624 -0.1292
  724MOL0     C97662   4.483   6.677   4.363 -0.3439 -0.1419  0.2794
  724MOL0     C97663   4.429   6.645   4.242  1.0861 -0.7640  0.2355
  724MOL0     O97664   4.328   6.706   4.178  0.6993  0.8729  0.3887
  724MOL0     C97665   4.250   6.805   4.235  0.2518 -0.1719 -0.0072
  724MOL0     C97666   4.116   6.816   4.156 -0.5882  0.2802  0.9314
  724MOL0     C97667   4.153   6.839   4.010 -0.0724  0.3983 -0.1187
  724MOL0     C97668   4.030   6.876   3.936 -0.2680  0.4902  0.1974
  724MOL0     C97669   3.965   7.012   3.965  0.1056  0.0823  0.3861
  724MOL0     C97670   3.908   7.116   3.993  0.1133  0.2295  0.8287
  724MOL0     C97671   4.469   6.527   4.176  0.9862 -0.7404  0.1629
  724MOL0     C97672   4.562   6.445   4.233  0.0100 -0.1175 -0.3645
  724MOL0     H97673   4.595   6.068   4.535 -0.2060  0.0680  1.6014
  724MOL0     H97674   4.716   5.890   4.672 -1.7328 -1.0989 -2.8982
  724MOL0     H97675   5.057   6.076   4.805 -1.4126 -0.2393 -2.1900
  724MOL0     H97676   5.028   5.953   4.920 -1.6617 -0.4371 -0.5299
  724MOL0     H97677   5.249   5.927   4.905  2.1356 -1.2655 -0.2150
  724MOL0     H97678   5.170   5.788   4.824 -3.3752  0.2918 -2.9044
  724MOL0     H97679   5.275   5.834   4.626 -1.5981 -1.7698  0.7175
  724MOL0     H97680   5.285   6.006   4.666  1.0897  1.0503  1.0331
  724MOL0     H97681   5.460   5.885   4.853  1.7516  1.0448 -0.3677
  724MOL0     H97682   5.464   5.769   4.730 -0.2394  0.0081 -0.4626
  724MOL0     H97683   5.528   5.917   4.545  0.0798 -1.7930 -0.8011
  724MOL0     H97684   5.505   6.060   4.653  3.4225  0.5964 -4.0385
  724MOL0     H97685   5.724   6.017   4.743 -0.5307  0.5281 -2.9449
  724MOL0     H97686   5.689   5.832   4.754  2.2137 -0.9222  0.5043
  724MOL0     H97687   5.755   5.991   4.502  0.9618 -1.0346  1.1275
  724MOL0     H97688   5.881   5.929   4.608  1.0825  1.2213 -0.2343
  724MOL0     H97689   5.669   5.755   4.479  0.0759 -2.0756 -0.0740
  724MOL0     H97690   5.787   5.704   4.592  0.2495  1.3875  1.6399
  724MOL0     H97691   5.731   5.785   4.231  0.0124 -0.7339  1.9446
  724MOL0     H97692   5.966   5.610   4.022 -4.4046 -0.3809 -0.5158
  724MOL0     H97693   5.865   5.744   3.996  2.0754  1.2557 -3.3578
  724MOL0     H97694   6.165   5.758   4.025  0.8277  2.9073  0.3339
  724MOL0     H97695   6.048   5.904   4.033 -0.4089  0.4898  0.7311
  724MOL0     H97696   6.114   5.895   3.806  1.2008 -0.4537 -0.4400
  724MOL0     H97697   5.964   5.809   3.804  0.9518  2.5476 -3.5723
  724MOL0     H97698   6.250   5.705   3.807  0.4851  1.6211 -1.4215
  724MOL0     H97699   6.156   5.706   3.665 -4.1755 -1.0441 -0.7390
  724MOL0     H97700   5.930   5.695   3.623 -0.0708 -0.8848 -0.4260
  724MOL0     H97701   5.742   5.732   3.493  2.0291  1.8552 -1.0109
  724MOL0     H97702   5.803   5.657   3.364 -4.1097 -1.6818 -3.4517
  724MOL0     H97703   5.642   5.608   3.429 -0.2734 -0.5317  0.4304
  724MOL0     H97704   5.462   5.214   3.333 -2.8945 -2.0197 -1.1470
  724MOL0     H97705   5.329   5.035   3.257  0.6003 -2.1608 -1.9752
  724MOL0     H97706   5.163   4.842   3.250 -0.1536  1.5580  0.8672
  724MOL0     H97707   5.323   4.832   3.164  0.8398  0.0968 -0.0905
  724MOL0     H97708   5.179   4.637   3.112 -2.3504  0.4894  0.9346
  724MOL0     H97709   5.321   4.580   3.216 -0.5756 -2.1012  1.1897
  724MOL0     H97710   5.047   4.650   3.353  0.0077 -0.9292  0.6362
  724MOL0     H97711   5.185   4.555   3.414  0.1072 -3.2868 -0.2016
  724MOL0     H97712   5.161   4.409   3.209 -0.6297 -2.2156  0.0984
  724MOL0     H97713   5.059   4.393   3.354 -0.0308  2.4642  1.9452
  724MOL0     H97714   4.967   4.546   3.119 -0.5541  0.0605  0.0099
  724MOL0     H97715   4.871   4.501   3.257 -3.3502  1.0874 -4.1715
  724MOL0     H97716   4.819   4.385   3.056  0.4089  0.4064 -0.8713
  724MOL0     H97717   4.980   4.300   3.044  1.2312  0.1123  1.1847
  724MOL0     H97718   4.778   4.282   3.262 -0.9499 -0.7474 -0.1092
  724MOL0     H97719   4.950   4.213   3.267  0.8350 -0.0645 -2.3322
  724MOL0     H97720   4.749   4.162   3.068 -0.7363 -1.7835  0.6655
  724MOL0     H97721   4.785   4.058   3.212 -0.7307  0.9671  1.7634
  724MOL0     H97722   5.480   4.772   3.551  0.4118  1.4136  2.5309
  724MOL0     H97723   5.622   4.959   3.641  0.2243  1.0228 -0.8400
  724MOL0     H97724   5.860   5.203   3.643  0.1993 -0.2447 -2.4663
  724MOL0     H97725   6.043   5.312   3.770 -1.7016  0.0248  1.1336
  724MOL0     H97726   5.091   6.042   4.544  0.1624 -0.7491 -2.6846
  724MOL0     H97727   4.975   6.228   4.432 -2.3923  2.0962  1.2553
  724MOL0     H97728   4.622   6.620   4.517 -0.1823 -0.8191 -0.0759
  724MOL0     H97729   4.451   6.760   4.425 -0.9813 -1.0275  1.1609
  724MOL0     H97730   4.237   6.791   4.343 -1.1672  0.4262 -0.0864
  724MOL0     H97731   4.304   6.899   4.222  1.6372 -1.0210 -0.5728
  724MOL0     H97732   4.049   6.893   4.196 -0.4167 -0.9097  3.7422
  724MOL0     H97733   4.048   6.731   4.166 -0.9914  0.3307 -1.0310
  724MOL0     H97734   4.191   6.744   3.972 -2.8370 -0.0576 -2.0995
  724MOL0     H97735   4.222   6.923   3.993 -0.0112  0.0940 -1.5231
  724MOL0     H97736   3.959   6.794   3.955  1.1743 -0.5109  1.5529
  724MOL0     H97737   4.056   6.865   3.830  2.2068 -3.3033  0.9894
  724MOL0     H97738   3.850   7.202   4.019  1.5448  1.5194 -0.0995
  724MOL0     H97739   4.413   6.493   4.089 -0.5956 -4.2913  2.3699
  724MOL0     H97740   4.570   6.349   4.183  1.9217 -2.4157  3.8574
  725MOL0     O97741  11.223   6.331   8.701 -0.1677  0.5415  0.3136
  725MOL0     C97742  11.151   6.248   8.751 -0.4136 -0.4346 -0.4157
  725MOL0     O97743  11.046   6.190   8.691  0.4241 -0.3257 -0.1890
  725MOL0     C97744  11.038   6.193   8.560 -0.7432 -0.1828  1.0384
  725MOL0     C97745  11.040   6.066   8.497  0.1220  0.0625 -0.4735
  725MOL0     C97746  11.034   6.066   8.354 -0.6194 -0.2682  0.1551
  725MOL0     C97747  11.033   6.182   8.278 -0.3406  0.1730  0.0111
  725MOL0     O97748  11.031   6.165   8.142  0.4291 -0.1333 -0.0462
  725MOL0     C97749  11.068   6.279   8.059  0.7474  1.2244 -0.0967
  725MOL0     C97750  11.107   6.222   7.919 -1.0042  1.0236  0.4298
  725MOL0     C97751  11.179   6.324   7.845 -0.2277 -0.1483  0.6892
  725MOL0     C97752  11.194   6.294   7.694 -0.1018  0.0362  0.0668
  725MOL0     C97753  11.204   6.425   7.611 -1.0439 -0.6528  0.1176
  725MOL0     C97754  11.321   6.513   7.654  0.5645 -0.4196 -0.3584
  725MOL0     C97755  11.453   6.462   7.595 -0.3510 -0.4701 -0.3063
  725MOL0     C97756  11.555   6.571   7.648 -0.3867 -0.0391 -0.6166
  725MOL0     N97757  11.620   6.652   7.539 -0.6135  0.0704  0.0186
  725MOL0     C97758  11.557   6.712   7.435 -0.5709 -0.2668  0.3988
  725MOL0     C97759  11.658   6.780   7.364 -0.0217 -0.8590 -0.0053
  725MOL0     C97760  11.629   6.876   7.238  0.3228  0.1933 -0.9281
  725MOL0     C97761  11.659   6.789   7.116  0.5122 -0.5585 -0.3996
  725MOL0     C97762  11.633   6.868   6.980  0.1370  0.4365 -0.6636
  725MOL0     C97763  11.704   7.003   6.971  0.8431 -0.0692  0.3614
  725MOL0     O97764  11.841   6.977   6.960  0.0167 -0.3611 -0.3163
  725MOL0     C97765  11.933   7.080   6.952  0.7632  0.5092  0.1652
  725MOL0     C97766  12.068   7.049   6.937 -0.0318 -0.2038  0.0047
  725MOL0     C97767  12.169   7.148   6.923 -0.0786  0.0976 -0.1480
  725MOL0     C97768  12.316   7.107   6.967  0.3035 -0.4295 -0.2529
  725MOL0     C97769  12.123   7.284   6.927 -0.3935 -0.2889  0.5282
  725MOL0     C97770  12.216   7.395   6.937  0.2756 -0.2411  0.2750
  725MOL0     O97771  12.195   7.468   7.048 -0.1546 -0.3424 -0.1099
  725MOL0     C97772  12.270   7.584   7.070 -0.0323  0.1158 -0.5766
  725MOL0     C97773  12.190   7.701   7.105 -0.0011  1.1470  0.1195
  725MOL0     C97774  12.255   7.829   7.116  0.1456  0.8497 -0.8358
  725MOL0     C97775  12.397   7.841   7.093  0.8897 -0.2004 -1.2797
  725MOL0     O97776  12.454   7.963   7.095  0.1948 -0.1622 -0.3631
  725MOL0     C97777  12.482   8.021   6.970 -0.5807  0.2993 -0.1862
  725MOL0     C97778  12.370   8.111   6.925 -0.0484 -0.0525  0.2706
  725MOL0     C97779  12.339   8.247   6.995  0.0771 -0.0119 -0.4044
  725MOL0     C97780  12.205   8.306   6.947 -0.4244  0.0489  0.6830
  725MOL0     C97781  12.122   8.343   7.066 -0.2898  0.0461  0.2812
  725MOL0     C97782  11.997   8.425   7.022 -0.3281  0.4321 -0.5982
  725MOL0     C97783  11.917   8.485   7.126  0.9468 -0.0081  0.0361
  725MOL0     C97784  11.825   8.597   7.083  0.7096 -0.1181 -0.7440
  725MOL0    Cl97785  11.704   8.523   6.975 -0.1328 -0.1101  0.0879
  725MOL0     C97786  12.470   7.722   7.080  0.3181  0.6515 -0.2601
  725MOL0     C97787  12.408   7.596   7.059 -0.1425 -0.6415 -0.6201
  725MOL0     O97788  12.310   7.403   6.857 -0.0589 -0.0863  0.0787
  725MOL0     C97789  11.985   7.320   6.926  0.4096  0.3785  0.4022
  725MOL0     C97790  11.894   7.212   6.944 -0.5963 -0.4260 -0.8825
  725MOL0     N97791  11.780   6.759   7.427  0.1969 -0.0570  0.9737
  725MOL0     N97792  11.753   6.666   7.522  0.6108 -0.1444  0.0224
  725MOL0     C97793  11.025   6.313   8.336  1.2225 -0.8815 -0.0337
  725MOL0     C97794  11.020   6.314   8.483 -0.2420  0.1614  0.1124
  725MOL0     C97795  11.168   6.216   8.888 -0.4982 -0.1397 -0.8330
  725MOL0     C97796  11.300   6.214   8.941 -0.9719 -0.4976  0.3774
  725MOL0     C97797  11.324   6.188   9.069 -0.2363  0.4186  0.3263
  725MOL0     C97798  11.211   6.159   9.151  0.4157 -0.3868 -0.1476
  725MOL0     O97799  11.250   6.123   9.279 -0.2387  0.3390 -0.6920
  725MOL0     C97800  11.158   6.061   9.366 -0.4262  0.7821  0.4507
  725MOL0     C97801  11.217   6.045   9.497 -0.5142 -0.8712  0.3745
  725MOL0     C97802  11.303   5.916   9.529  0.1466 -0.4084  0.2219
  725MOL0     C97803  11.223   5.788   9.553  0.3412 -0.4634 -0.5292
  725MOL0     C97804  11.328   5.683   9.564  0.4349 -0.6733  0.0083
  725MOL0     C97805  11.405   5.592   9.578  0.6006  0.8889  0.0039
  725MOL0     C97806  11.077   6.155   9.103 -0.0823 -0.7872 -0.8863
  725MOL0     C97807  11.059   6.179   8.968  0.2044  0.8890  0.3949
  725MOL0     H97808  11.043   5.977   8.560 -0.6046  0.3123 -0.0707
  725MOL0     H97809  11.031   5.971   8.300 -0.2662 -0.5657  0.6577
  725MOL0     H97810  10.991   6.355   8.043 -1.1632 -0.8732 -1.4069
  725MOL0     H97811  11.154   6.327   8.107 -1.0098  3.1878  1.2955
  725MOL0     H97812  11.165   6.130   7.937 -2.9407 -0.2116  0.6890
  725MOL0     H97813  11.010   6.186   7.883  0.1431 -0.4764 -1.3646
  725MOL0     H97814  11.112   6.409   7.862  0.5687  0.8751 -1.0125
  725MOL0     H97815  11.276   6.341   7.893 -0.8838 -0.8982  2.3299
  725MOL0     H97816  11.283   6.233   7.674  0.1837  0.9605 -1.6609
  725MOL0     H97817  11.111   6.230   7.665  1.1293 -1.8236  0.4766
  725MOL0     H97818  11.207   6.379   7.511 -2.5161  0.5371 -0.5237
  725MOL0     H97819  11.110   6.480   7.624 -0.1057  2.1029 -3.2411
  725MOL0     H97820  11.299   6.619   7.643 -2.5602 -1.1835 -3.1349
  725MOL0     H97821  11.341   6.496   7.761  1.4935 -4.8888 -1.0296
  725MOL0     H97822  11.477   6.359   7.622  0.5265 -1.0666 -3.0071
  725MOL0     H97823  11.433   6.464   7.487  0.0082  1.4158 -0.3733
  725MOL0     H97824  11.637   6.528   7.705  0.0745  1.2034 -0.3182
  725MOL0     H97825  11.509   6.644   7.715 -1.0641  0.3142 -1.4370
  725MOL0     H97826  11.450   6.703   7.417 -0.3765 -2.9925  0.2634
  725MOL0     H97827  11.532   6.924   7.253  0.6347 -0.0198  2.6049
  725MOL0     H97828  11.693   6.963   7.255 -2.3880  2.9917 -3.7004
  725MOL0     H97829  11.589   6.705   7.118  1.2637 -1.2152 -0.8491
  725MOL0     H97830  11.765   6.759   7.116  2.0182  4.0373 -1.3833
  725MOL0     H97831  11.526   6.884   6.968 -0.1301  2.2218  2.9809
  725MOL0     H97832  11.665   6.811   6.892  0.4488  2.0900 -1.6494
  725MOL0     H97833  11.679   7.072   7.052 -1.5124 -1.6418  1.0643
  725MOL0     H97834  11.678   7.049   6.875  3.6171 -0.2493 -0.5920
  725MOL0     H97835  12.121   6.955   6.950  1.0790  0.8638  5.6866
  725MOL0     H97836  12.330   7.009   7.012  2.5112 -0.5458 -1.0447
  725MOL0     H97837  12.374   7.106   6.874 -1.6917  1.4561 -1.6285
  725MOL0     H97838  12.364   7.186   7.025 -3.3795  1.6054  0.2916
  725MOL0     H97839  12.084   7.682   7.122  1.1136 -3.6896  3.7182
  725MOL0     H97840  12.192   7.914   7.140 -1.7824 -1.2807  2.5962
  725MOL0     H97841  12.583   8.063   6.961 -1.9511  3.5596 -2.1358
  725MOL0     H97842  12.489   7.942   6.896  4.2042 -0.2618  0.5101
  725MOL0     H97843  12.403   8.138   6.824 -1.2543  2.5668  0.4925
  725MOL0     H97844  12.277   8.055   6.913 -1.1596  1.7149  0.2567
  725MOL0     H97845  12.415   8.324   6.982  0.8976 -0.3020  2.1933
  725MOL0     H97846  12.331   8.221   7.101  0.1670 -2.1680 -0.8787
  725MOL0     H97847  12.222   8.381   6.869  0.2587 -1.4754 -0.6901
  725MOL0     H97848  12.142   8.233   6.895 -0.2974 -0.2789  0.9879
  725MOL0     H97849  12.191   8.396   7.133  0.3531  0.0923 -0.4070
  725MOL0     H97850  12.084   8.257   7.121  0.1944 -1.1539 -1.2007
  725MOL0     H97851  12.023   8.496   6.942  1.8582 -2.2143 -2.4405
  725MOL0     H97852  11.937   8.347   6.974  0.1588  1.5354 -3.1957
  725MOL0     H97853  11.976   8.519   7.212  0.4605 -0.5342  0.5888
  725MOL0     H97854  11.851   8.407   7.167  1.5351 -0.7229 -0.3560
  725MOL0     H97855  11.895   8.658   7.026  1.7566 -0.5754  0.0178
  725MOL0     H97856  11.781   8.657   7.163  1.9706 -1.9529  1.4483
  725MOL0     H97857  12.577   7.724   7.063  0.5404  0.4693  1.0157
  725MOL0     H97858  12.484   7.518   7.055 -0.4662 -1.0125  0.3040
  725MOL0     H97859  11.945   7.420   6.940 -1.2019  0.8386 -5.1022
  725MOL0     H97860  11.797   7.239   6.983  0.4820  1.5941  0.5820
  725MOL0     H97861  11.025   6.398   8.268 -1.4946 -0.3274  0.5692
  725MOL0     H97862  11.017   6.405   8.543 -0.0627  2.3310 -2.9691
  725MOL0     H97863  11.388   6.235   8.881  0.8203 -4.8568  1.0958
  725MOL0     H97864  11.429   6.198   9.096  0.3458  1.3062 -2.0020
  725MOL0     H97865  11.076   6.133   9.376 -0.2726  0.8144  1.6734
  725MOL0     H97866  11.124   5.969   9.319  2.6349  1.1036 -2.8947
  725MOL0     H97867  11.139   6.051   9.574  0.4530  0.6451  1.2839
  725MOL0     H97868  11.279   6.134   9.513 -2.8872  1.1663 -0.9998
  725MOL0     H97869  11.376   5.934   9.607  1.0405 -0.5339 -0.5703
  725MOL0     H97870  11.365   5.884   9.445  0.1214 -0.7101  0.3151
  725MOL0     H97871  11.166   5.762   9.463  0.4467  0.9225 -1.0310
  725MOL0     H97872  11.166   5.791   9.646  1.6705  2.1254  0.2971
  725MOL0     H97873  11.488   5.526   9.595  2.4555  3.1702  0.2783
  725MOL0     H97874  10.987   6.137   9.161  1.1812  2.6124  2.5253
  725MOL0     H97875  10.957   6.161   8.935  1.3745 -2.2035 -1.9848
  726MOL0     O97876  11.008   3.200   3.009 -0.2030  1.1438  0.8918
  726MOL0     C97877  11.127   3.225   3.019 -0.0594  0.6652 -0.1424
  726MOL0     O97878  11.201   3.211   3.125 -0.6667 -0.0563 -0.3190
  726MOL0     C97879  11.146   3.189   3.249 -0.4195  0.1732 -0.2408
  726MOL0     C97880  11.206   3.100   3.337 -0.5814  0.7228  0.1543
  726MOL0     C97881  11.174   3.105   3.469  0.3225  0.0307 -0.2119
  726MOL0     C97882  11.069   3.181   3.521 -1.4383  0.5241  1.2413
  726MOL0     O97883  11.050   3.187   3.654 -0.3268  0.8786 -0.2583
  726MOL0     C97884  10.925   3.141   3.683  0.0614  0.7503 -0.5158
  726MOL0     C97885  10.954   3.000   3.749  0.2257 -0.4506 -0.1012
  726MOL0     C97886  10.829   2.922   3.773  0.2170  0.1119 -0.1933
  726MOL0     C97887  10.860   2.811   3.874  0.1066 -0.4526  0.6927
  726MOL0     C97888  10.735   2.724   3.902 -0.3171  0.3592  0.4112
  726MOL0     C97889  10.609   2.815   3.954 -0.2858  0.7652  0.3495
  726MOL0     C97890  10.490   2.740   4.006  1.0239  0.6890  0.0464
  726MOL0     C97891  10.420   2.672   3.893  1.3070 -0.5735  0.0816
  726MOL0     N97892  10.319   2.745   3.808  0.6844  0.0638  0.1158
  726MOL0     C97893  10.345   2.853   3.723  0.6064  0.8547 -0.2595
  726MOL0     C97894  10.252   2.849   3.631  0.2990  0.7205 -0.6934
  726MOL0     C97895  10.226   2.948   3.527  0.0100 -0.4520 -0.3637
  726MOL0     C97896  10.312   2.916   3.399  1.0829  0.0989 -0.7981
  726MOL0     C97897  10.281   2.779   3.322  0.8873 -0.4180 -0.2336
  726MOL0     C97898  10.144   2.779   3.243  0.0706  0.7999 -0.2061
  726MOL0     O97899  10.142   2.656   3.170 -0.6490 -0.0178  0.3674
  726MOL0     C97900  10.129   2.534   3.229 -0.0301 -0.6990 -0.9603
  726MOL0     C97901  10.075   2.512   3.352 -0.4705  0.1455 -0.5314
  726MOL0     C97902  10.044   2.382   3.399  0.1022 -0.9824 -0.9495
  726MOL0     C97903   9.983   2.379   3.536  1.0533 -1.1540 -0.0897
  726MOL0     C97904  10.065   2.275   3.322  0.3012  0.5358 -0.7223
  726MOL0     C97905  10.000   2.144   3.351  0.1038 -0.4749 -0.0216
  726MOL0     O97906  10.052   2.049   3.284  0.9275  0.5377  0.0036
  726MOL0     C97907   9.957   1.946   3.252 -0.3217 -0.4851 -0.5889
  726MOL0     C97908   9.994   1.813   3.298  0.4666 -0.6680 -0.1841
  726MOL0     C97909   9.917   1.704   3.279 -0.1166 -0.0589  0.3132
  726MOL0     C97910   9.793   1.714   3.212 -0.2006 -0.4379 -0.1697
  726MOL0     O97911   9.731   1.592   3.204 -0.5470 -0.1719 -0.2892
  726MOL0     C97912   9.599   1.576   3.144 -0.1444 -0.7250  0.5184
  726MOL0     C97913   9.605   1.533   2.997 -0.0810  0.0757  0.6978
  726MOL0     C97914   9.725   1.576   2.908 -0.4112  0.0592 -0.4464
  726MOL0     C97915   9.753   1.489   2.783  0.4151 -0.0325 -0.0294
  726MOL0     C97916   9.833   1.555   2.666 -0.0958 -0.0363  0.1266
  726MOL0     C97917   9.862   1.449   2.555  0.2548 -0.4355  0.9259
  726MOL0     C97918   9.899   1.501   2.416  0.3151 -0.0261  1.1218
  726MOL0     C97919   9.997   1.615   2.398 -0.5401  0.1636 -0.3437
  726MOL0    Cl97920   9.984   1.658   2.223 -0.1008 -0.4577  0.3897
  726MOL0     C97921   9.754   1.838   3.155  0.7817 -0.2338 -0.6319
  726MOL0     C97922   9.845   1.945   3.166  0.9539 -0.4218 -0.0887
  726MOL0     O97923   9.900   2.137   3.419  0.0645  0.3486  0.4801
  726MOL0     C97924  10.134   2.293   3.199  0.2255 -0.3453  0.2208
  726MOL0     C97925  10.165   2.423   3.152 -0.0846 -0.2860 -0.8904
  726MOL0     N97926  10.162   2.744   3.666 -0.1914 -0.4427 -0.6401
  726MOL0     N97927  10.207   2.678   3.765 -0.5163  0.3743 -0.0615
  726MOL0     C97928  11.008   3.263   3.433  0.0659  0.1471  0.5928
  726MOL0     C97929  11.039   3.266   3.296  0.6750  0.4176 -0.7907
  726MOL0     C97930  11.195   3.262   2.893  0.5380 -1.0392  0.5535
  726MOL0     C97931  11.328   3.297   2.883  0.4616 -0.5763 -0.5143
  726MOL0     C97932  11.392   3.348   2.767 -0.2461 -0.0991 -0.9227
  726MOL0     C97933  11.314   3.369   2.651 -1.4283 -0.5155  0.7075
  726MOL0     O97934  11.380   3.431   2.547 -0.3622 -0.5391  1.1943
  726MOL0     C97935  11.313   3.466   2.421 -0.3449  0.9256  0.8262
  726MOL0     C97936  11.230   3.593   2.438  0.1202 -0.2975 -0.1280
  726MOL0     C97937  11.188   3.672   2.307 -0.6870  0.1098 -0.0276
  726MOL0     C97938  11.233   3.818   2.313  0.2274  0.8862  0.0201
  726MOL0     C97939  11.204   3.887   2.193 -0.6313 -0.3075 -0.3267
  726MOL0     C97940  11.185   3.937   2.087 -0.0399 -0.3740  0.8568
  726MOL0     C97941  11.184   3.326   2.650 -0.2150 -0.2927  0.4728
  726MOL0     C97942  11.127   3.275   2.767 -0.0461  0.3463  0.6232
  726MOL0     H97943  11.291   3.039   3.307  0.0986  1.3385  0.7777
  726MOL0     H97944  11.238   3.053   3.539 -2.1616 -1.9858  0.7172
  726MOL0     H97945  10.895   3.217   3.756 -3.0684  0.2029 -1.0851
  726MOL0     H97946  10.849   3.148   3.605  0.3771 -1.0437 -1.0095
  726MOL0     H97947  11.032   2.954   3.687 -1.1809 -0.1104 -2.2232
  726MOL0     H97948  10.990   3.005   3.852 -3.4081 -4.2661  1.6915
  726MOL0     H97949  10.751   2.992   3.803 -0.5835 -0.8480  0.0049
  726MOL0     H97950  10.786   2.886   3.679 -0.2925  2.3272 -0.8706
  726MOL0     H97951  10.935   2.743   3.832 -2.3627 -1.2620 -2.8641
  726MOL0     H97952  10.892   2.852   3.970 -1.6981  2.7227  0.0803
  726MOL0     H97953  10.710   2.687   3.802  0.4782  1.9807 -0.4292
  726MOL0     H97954  10.763   2.649   3.976 -0.2673  0.1066  0.1386
  726MOL0     H97955  10.652   2.872   4.037  1.6538  0.8800 -0.6736
  726MOL0     H97956  10.583   2.883   3.873 -3.2179 -2.4292 -1.6375
  726MOL0     H97957  10.509   2.660   4.078 -1.3258 -1.4938 -1.5719
  726MOL0     H97958  10.417   2.801   4.060 -1.8643 -1.2773 -1.3880
  726MOL0     H97959  10.368   2.588   3.937 -1.8612  1.5443  0.7177
  726MOL0     H97960  10.483   2.629   3.814 -0.3562  0.5284 -1.9662
  726MOL0     H97961  10.430   2.920   3.720  0.7743  0.7466  1.3646
  726MOL0     H97962  10.119   2.934   3.512 -1.0079  0.9265  4.1494
  726MOL0     H97963  10.240   3.050   3.563  0.1220 -0.9764  1.1452
  726MOL0     H97964  10.419   2.919   3.420  1.1095 -2.5570 -0.2172
  726MOL0     H97965  10.288   2.987   3.319 -1.5418  2.5151  1.8952
  726MOL0     H97966  10.277   2.701   3.399 -0.8839 -0.3683 -0.2209
  726MOL0     H97967  10.366   2.756   3.258 -0.4683 -0.9819 -1.9332
  726MOL0     H97968  10.138   2.862   3.173 -1.3408 -1.5815 -3.1488
  726MOL0     H97969  10.058   2.787   3.311 -0.7240  1.4469 -1.2565
  726MOL0     H97970  10.050   2.602   3.407  3.6401  0.3893  1.2778
  726MOL0     H97971  10.023   2.302   3.603 -1.8363  0.3712  3.7418
  726MOL0     H97972   9.991   2.477   3.583 -0.7199  0.8351 -3.5103
  726MOL0     H97973   9.874   2.367   3.528  0.9158 -1.3990  1.8164
  726MOL0     H97974  10.096   1.798   3.333  0.5784 -2.5573 -1.1928
  726MOL0     H97975   9.942   1.603   3.310  1.1597 -0.1502 -0.8861
  726MOL0     H97976   9.559   1.494   3.204 -2.6473  1.2827  1.8417
  726MOL0     H97977   9.539   1.666   3.163  2.4375  1.0230  0.9599
  726MOL0     H97978   9.597   1.425   2.990 -0.0709  0.0658  0.8334
  726MOL0     H97979   9.516   1.569   2.945 -0.1274  0.9281  1.3359
  726MOL0     H97980   9.821   1.573   2.962  0.8133  1.1208 -2.4645
  726MOL0     H97981   9.712   1.679   2.874 -0.7234  0.8111  1.7461
  726MOL0     H97982   9.814   1.400   2.803  0.0133 -0.7555 -1.8391
  726MOL0     H97983   9.658   1.453   2.743  1.2400 -0.6312 -1.5063
  726MOL0     H97984   9.922   1.604   2.708 -1.3772  0.4116  2.5155
  726MOL0     H97985   9.773   1.631   2.616  0.9075 -1.5081 -3.6577
  726MOL0     H97986   9.942   1.385   2.592 -0.1760 -1.7606 -0.3392
  726MOL0     H97987   9.768   1.392   2.552  0.0618 -0.1037  0.4284
  726MOL0     H97988   9.806   1.539   2.372 -0.2144 -0.5298  1.7868
  726MOL0     H97989   9.946   1.414   2.370  0.0446 -0.7133  2.1291
  726MOL0     H97990  10.100   1.592   2.427  0.2723  2.5667 -1.1086
  726MOL0     H97991   9.972   1.702   2.460  2.9886  0.9742  0.1542
  726MOL0     H97992   9.658   1.849   3.106  0.0578 -2.9300  0.0238
  726MOL0     H97993   9.810   2.037   3.121  0.0166 -0.8570 -0.2648
  726MOL0     H97994  10.146   2.216   3.124 -1.1174  0.4887 -0.9110
  726MOL0     H97995  10.199   2.445   3.051 -0.5190 -0.8839 -1.1670
  726MOL0     H97996  10.932   3.333   3.466  3.1485  4.2452 -0.3182
  726MOL0     H97997  10.986   3.337   3.232 -6.8336 -1.4346  2.2810
  726MOL0     H97998  11.389   3.284   2.972  3.3730 -0.7368 -2.3808
  726MOL0     H97999  11.500   3.359   2.759  0.4187 -3.8801  0.4315
  726MOL0     H98000  11.396   3.476   2.350 -2.3181 -2.9501 -2.4641
  726MOL0     H98001  11.260   3.380   2.380 -3.4741  2.4711  1.2827
  726MOL0     H98002  11.290   3.659   2.502  0.2858 -1.6958  1.2042
  726MOL0     H98003  11.140   3.587   2.499  0.8176 -0.6369  0.8911
  726MOL0     H98004  11.081   3.668   2.282  0.0284 -0.6771 -3.4389
  726MOL0     H98005  11.229   3.616   2.223 -3.7101 -2.5513  0.0812
  726MOL0     H98006  11.340   3.838   2.325 -0.1829  3.6241 -0.2854
  726MOL0     H98007  11.185   3.885   2.385  1.7351  3.0967 -0.9367
  726MOL0     H98008  11.177   3.989   1.993 -0.0989 -2.6381 -0.4878
  726MOL0     H98009  11.123   3.344   2.562 -0.1976 -0.2869  0.4622
  726MOL0     H98010  11.020   3.257   2.769  0.0563 -0.2609  0.7708
  727MOL0     O98011   0.693   0.255   0.692 -0.0446 -0.2617 -0.5091
  727MOL0     C98012   0.624   0.236   0.793 -0.5263 -0.6141  0.9184
  727MOL0     O98013   0.493   0.268   0.807 -0.0453 -0.4914 -0.1999
  727MOL0     C98014   0.424   0.291   0.690  0.3747  0.2522 -0.2540
  727MOL0     C98015   0.370   0.412   0.671  0.0003 -0.2041  0.2569
  727MOL0     C98016   0.283   0.431   0.560  0.3212  0.0500  0.1902
  727MOL0     C98017   0.255   0.321   0.473  0.1549  0.3850 -0.6136
  727MOL0     O98018   0.162   0.346   0.379 -0.1895  0.1395 -0.1631
  727MOL0     C98019   0.041   0.281   0.404 -0.4156  0.6961 -0.4311
  727MOL0     C98020  -0.060   0.340   0.311  0.0846 -0.0096  0.2653
  727MOL0     C98021  -0.031   0.309   0.168  0.3247 -0.3203 -0.0846
  727MOL0     C98022  -0.156   0.326   0.072 -0.3671 -0.5569 -1.1312
  727MOL0     C98023  -0.115   0.256  -0.064 -0.5842 -0.9511  0.2187
  727MOL0     C98024  -0.247   0.249  -0.135  0.0264 -0.3575  0.6439
  727MOL0     C98025  -0.216   0.184  -0.273 -0.5778 -0.7628 -0.2969
  727MOL0     C98026  -0.339   0.152  -0.344  0.5370  0.1693 -0.0070
  727MOL0     N98027  -0.419   0.045  -0.280 -0.5104 -0.4943 -0.2341
  727MOL0     C98028  -0.549   0.031  -0.296  0.1606 -0.6096  0.2640
  727MOL0     C98029  -0.580  -0.078  -0.220 -0.0624 -0.5334  0.8781
  727MOL0     C98030  -0.718  -0.139  -0.207 -0.3829  0.0356 -1.0827
  727MOL0     C98031  -0.767  -0.094  -0.066 -0.2816  0.5494  0.2421
  727MOL0     C98032  -0.914  -0.133  -0.037  0.2114 -0.8527 -0.6425
  727MOL0     C98033  -0.951  -0.116   0.112 -1.0402  0.2203  1.1547
  727MOL0     O98034  -0.908  -0.218   0.195  0.5575 -0.2472 -0.4212
  727MOL0     C98035  -0.963  -0.350   0.196  0.1350  0.1609 -0.4292
  727MOL0     C98036  -1.079  -0.388   0.132 -0.6992  0.5762 -1.2211
  727MOL0     C98037  -1.124  -0.522   0.136  0.0803  0.0688  0.7596
  727MOL0     C98038  -1.242  -0.551   0.053 -0.3199  0.2369  1.1661
  727MOL0     C98039  -1.040  -0.615   0.197  1.1987 -0.6384 -0.5906
  727MOL0     C98040  -1.094  -0.747   0.231  1.1840  0.3442 -0.4230
  727MOL0     O98041  -1.209  -0.757   0.301 -0.2005 -0.2699 -0.6196
  727MOL0     C98042  -1.249  -0.886   0.320  0.6795 -0.2661  0.2723
  727MOL0     C98043  -1.224  -0.945   0.444 -0.0853  0.4901  0.8812
  727MOL0     C98044  -1.290  -1.066   0.472 -0.9595 -0.3199  0.1271
  727MOL0     C98045  -1.368  -1.133   0.379 -0.0015 -1.0143 -0.5892
  727MOL0     O98046  -1.439  -1.243   0.421  0.0373 -0.0752 -0.1134
  727MOL0     C98047  -1.578  -1.255   0.381  0.1889  0.2290 -0.1743
  727MOL0     C98048  -1.665  -1.269   0.503 -0.0345  0.3438  1.1019
  727MOL0     C98049  -1.685  -1.416   0.554  0.2786 -0.5231  0.3359
  727MOL0     C98050  -1.754  -1.416   0.688  0.1118 -0.4169 -0.6066
  727MOL0     C98051  -1.756  -1.565   0.745  0.1826  0.3143  0.2614
  727MOL0     C98052  -1.846  -1.674   0.669  0.7155  0.0754  0.6122
  727MOL0     C98053  -1.804  -1.813   0.704  0.3685  0.1123  0.1827
  727MOL0     C98054  -1.905  -1.914   0.658 -0.0265  0.5808 -0.1439
  727MOL0    Cl98055  -2.065  -1.911   0.755 -0.1840  0.3171  0.1724
  727MOL0     C98056  -1.385  -1.079   0.249  0.0729  0.5586 -0.0574
  727MOL0     C98057  -1.328  -0.956   0.227 -0.3148 -0.7554  0.3990
  727MOL0     O98058  -1.027  -0.847   0.205 -0.1729 -0.0318  0.4289
  727MOL0     C98059  -0.923  -0.581   0.254 -0.3904 -0.8211 -0.9851
  727MOL0     C98060  -0.886  -0.450   0.257 -0.0693 -0.6710 -0.1298
  727MOL0     N98061  -0.468  -0.127  -0.154 -0.6455  0.2118  0.0461
  727MOL0     N98062  -0.368  -0.064  -0.211 -0.3961 -0.6204  0.0286
  727MOL0     C98063   0.309   0.204   0.498 -0.2225 -0.5061 -0.4372
  727MOL0     C98064   0.391   0.183   0.604 -0.2197  0.1344 -0.7244
  727MOL0     C98065   0.687   0.154   0.901 -0.1080 -0.7752  0.2525
  727MOL0     C98066   0.823   0.139   0.901 -0.0651  0.1992 -0.5945
  727MOL0     C98067   0.884   0.065   1.004 -0.7455 -0.0011 -0.6830
  727MOL0     C98068   0.808  -0.001   1.104  0.0276 -0.5831 -0.9504
  727MOL0     O98069   0.859  -0.076   1.207  0.2774 -0.0936 -0.2853
  727MOL0     C98070   1.000  -0.068   1.230 -0.4146  0.3832  0.7224
  727MOL0     C98071   1.039  -0.153   1.344 -0.0179  0.9712 -0.2783
  727MOL0     C98072   1.175  -0.124   1.409  0.2670 -1.2825  1.2934
  727MOL0     C98073   1.302  -0.128   1.307  0.0306  0.3294  0.8590
  727MOL0     C98074   1.317  -0.269   1.263  0.2202  1.0643 -0.1807
  727MOL0     C98075   1.328  -0.386   1.231 -0.1893  0.9986 -0.7399
  727MOL0     C98076   0.665   0.029   1.108  0.6360 -0.0503  0.1021
  727MOL0     C98077   0.609   0.095   0.996 -0.8450 -0.4374  0.5206
  727MOL0     H98078   0.374   0.500   0.734 -0.3005  1.0503 -1.3888
  727MOL0     H98079   0.243   0.528   0.534 -0.4241  0.3182  2.1589
  727MOL0     H98080   0.058   0.174   0.388  0.4486  0.6550  0.6569
  727MOL0     H98081   0.005   0.291   0.506 -0.5112 -2.0503 -0.1281
  727MOL0     H98082  -0.158   0.296   0.333  1.2119 -3.2820 -0.6376
  727MOL0     H98083  -0.056   0.449   0.318 -2.2936  0.1250  0.2085
  727MOL0     H98084   0.049   0.378   0.140 -1.7376  1.4543 -2.0275
  727MOL0     H98085   0.007   0.207   0.171  2.7454  0.5116  2.9606
  727MOL0     H98086  -0.248   0.289   0.120  0.0191 -0.0616  0.0252
  727MOL0     H98087  -0.171   0.433   0.061 -1.4248 -0.3975  1.2767
  727MOL0     H98088  -0.040   0.318  -0.115  0.7077  0.5405  3.5582
  727MOL0     H98089  -0.086   0.154  -0.037  0.8910 -0.3707  0.9633
  727MOL0     H98090  -0.309   0.191  -0.066  1.2261 -3.6254 -0.8304
  727MOL0     H98091  -0.274   0.355  -0.143 -0.7529 -0.6568 -0.9183
  727MOL0     H98092  -0.142   0.229  -0.340 -0.3642 -0.2764  0.2541
  727MOL0     H98093  -0.171   0.088  -0.246  0.8228  0.5937  2.8176
  727MOL0     H98094  -0.308   0.118  -0.443  1.1210 -1.4453  0.6938
  727MOL0     H98095  -0.397   0.244  -0.353  1.3389  0.5384 -2.0244
  727MOL0     H98096  -0.616   0.088  -0.359  1.2454  2.6336  1.8759
  727MOL0     H98097  -0.791  -0.116  -0.285 -1.0276 -4.5089 -2.1525
  727MOL0     H98098  -0.716  -0.248  -0.218 -2.6252  0.0187 -1.7740
  727MOL0     H98099  -0.766   0.015  -0.057 -0.8587  0.8430 -2.4133
  727MOL0     H98100  -0.705  -0.138   0.012 -0.5166  1.2517  0.8336
  727MOL0     H98101  -0.935  -0.233  -0.078 -1.0013 -0.2112 -1.6429
  727MOL0     H98102  -0.972  -0.072  -0.107  2.1051 -1.9238 -3.3200
  727MOL0     H98103  -1.060  -0.110   0.118 -1.1502  1.0161 -0.7649
  727MOL0     H98104  -0.925  -0.016   0.147  0.4325  0.7312 -1.1854
  727MOL0     H98105  -1.133  -0.318   0.068 -2.8845 -2.6615 -3.2224
  727MOL0     H98106  -1.246  -0.480  -0.030  2.8814  0.8195  1.3519
  727MOL0     H98107  -1.226  -0.652   0.012  0.0477  0.9338 -0.4989
  727MOL0     H98108  -1.331  -0.553   0.116 -0.6605 -2.3385  0.7164
  727MOL0     H98109  -1.186  -0.884   0.525  1.2861  1.9442 -0.7751
  727MOL0     H98110  -1.290  -1.092   0.577  1.6638  2.4969  1.0118
  727MOL0     H98111  -1.609  -1.164   0.331  0.7965  1.8469  2.2306
  727MOL0     H98112  -1.575  -1.340   0.312  2.1365 -0.6518  0.9205
  727MOL0     H98113  -1.645  -1.204   0.589 -1.6493 -0.1713  1.9151
  727MOL0     H98114  -1.770  -1.257   0.477 -0.4569 -4.1993 -0.2218
  727MOL0     H98115  -1.586  -1.454   0.581  0.3615  1.3892  3.0992
  727MOL0     H98116  -1.737  -1.478   0.481  0.8277 -1.2649  0.5668
  727MOL0     H98117  -1.698  -1.352   0.756 -2.9048  0.9477  0.7797
  727MOL0     H98118  -1.848  -1.362   0.674  0.5366 -0.3943 -4.6485
  727MOL0     H98119  -1.792  -1.562   0.848 -2.7300 -0.8342 -0.6030
  727MOL0     H98120  -1.653  -1.601   0.756 -0.6077 -1.9015  0.9806
  727MOL0     H98121  -1.949  -1.655   0.698  0.1976  1.5073 -1.8457
  727MOL0     H98122  -1.853  -1.656   0.561 -0.9451  0.5696  0.7858
  727MOL0     H98123  -1.768  -1.828   0.806 -0.7533 -3.6545  0.1933
  727MOL0     H98124  -1.719  -1.844   0.642 -0.1898  1.0994 -1.1322
  727MOL0     H98125  -1.860  -2.013   0.647 -1.0825  0.2617 -2.1601
  727MOL0     H98126  -1.943  -1.889   0.558 -0.1004  0.4070 -0.1594
  727MOL0     H98127  -1.444  -1.133   0.175  1.2882 -1.0605  0.0990
  727MOL0     H98128  -1.342  -0.912   0.128  0.9841 -1.2542 -0.0219
  727MOL0     H98129  -0.873  -0.663   0.304  0.8459  0.4402 -0.0831
  727MOL0     H98130  -0.806  -0.414   0.321 -1.6024 -1.0022  2.0443
  727MOL0     H98131   0.277   0.121   0.436 -0.5921  0.8934 -2.1897
  727MOL0     H98132   0.433   0.085   0.624 -5.3670 -2.4045 -0.7863
  727MOL0     H98133   0.869   0.188   0.816 -0.3146 -0.7699 -1.3005
  727MOL0     H98134   0.992   0.054   1.001 -0.5412  1.4978  0.2057
  727MOL0     H98135   1.054  -0.090   1.137  1.6932  0.2688  1.8991
  727MOL0     H98136   1.033   0.034   1.252  2.4177 -0.4193  0.6570
  727MOL0     H98137   1.040  -0.256   1.309 -1.1930  1.3840 -1.6054
  727MOL0     H98138   0.965  -0.150   1.425  1.8458  1.3008  1.4968
  727MOL0     H98139   1.189  -0.207   1.479  1.0395 -0.6023  1.9705
  727MOL0     H98140   1.175  -0.032   1.469  2.3951 -1.2354  1.2641
  727MOL0     H98141   1.391  -0.098   1.363 -1.3345 -0.0706  3.4349
  727MOL0     H98142   1.287  -0.059   1.224  2.1315  1.1000  1.0663
  727MOL0     H98143   1.327  -0.493   1.225  0.0704  0.8996  0.6542
  727MOL0     H98144   0.610  -0.016   1.190 -1.4645 -0.8175 -1.6518
  727MOL0     H98145   0.501   0.105   1.001 -0.8312  0.2530 -0.3805
  728MOL0     O98146  10.787   3.241   1.478  0.2380 -0.2332  0.3059
  728MOL0     C98147  10.690   3.315   1.515 -0.5718 -0.3970 -0.0863
  728MOL0     O98148  10.676   3.361   1.645  0.1352  0.5825  0.3955
  728MOL0     C98149  10.729   3.300   1.753  0.2328 -0.7874 -0.4253
  728MOL0     C98150  10.741   3.166   1.775  1.1293  0.6516 -0.1278
  728MOL0     C98151  10.808   3.129   1.892  0.1356 -1.0851  0.8228
  728MOL0     C98152  10.849   3.229   1.986 -0.3206  0.1401  0.2123
  728MOL0     O98153  10.918   3.186   2.099 -0.3613 -0.1431 -0.0642
  728MOL0     C98154  10.879   3.233   2.233 -0.2193 -0.1946 -0.9122
  728MOL0     C98155  10.997   3.180   2.322 -0.3141  0.1941  0.2655
  728MOL0     C98156  10.998   3.030   2.282  0.0204 -0.1024 -0.4286
  728MOL0     C98157  11.042   2.927   2.394 -0.4907  1.1114 -0.0740
  728MOL0     C98158  11.008   2.780   2.362 -0.0310  2.2566  0.2016
  728MOL0     C98159  11.058   2.726   2.227  0.5209 -0.5446  0.4909
  728MOL0     C98160  11.211   2.722   2.204 -0.5589 -0.2082 -0.7936
  728MOL0     C98161  11.294   2.673   2.323 -0.3910 -0.7206  0.3549
  728MOL0     N98162  11.442   2.696   2.296  0.1242 -0.4672  0.2609
  728MOL0     C98163  11.521   2.696   2.402  0.6502  0.2456 -0.2058
  728MOL0     C98164  11.644   2.686   2.351 -0.2168 -0.0787 -0.9104
  728MOL0     C98165  11.771   2.676   2.432  0.3267 -0.5526  0.3037
  728MOL0     C98166  11.828   2.812   2.443 -0.4386 -1.0378  0.0293
  728MOL0     C98167  11.963   2.814   2.524  0.2909 -0.5655  1.3042
  728MOL0     C98168  12.034   2.946   2.485 -0.4451 -0.1269  0.7173
  728MOL0     O98169  12.109   2.929   2.368 -0.1361  0.1424 -0.2456
  728MOL0     C98170  12.122   3.036   2.275 -0.6508  0.5911 -0.0705
  728MOL0     C98171  12.111   3.175   2.301  0.3972  0.3956  0.6065
  728MOL0     C98172  12.137   3.275   2.210  0.0931 -0.8170 -0.2558
  728MOL0     C98173  12.113   3.422   2.248 -0.0666  0.0677  0.5137
  728MOL0     C98174  12.177   3.242   2.085 -0.5540 -0.8423  1.0143
  728MOL0     C98175  12.202   3.319   1.961  0.7737 -0.6933 -0.1569
  728MOL0     O98176  12.292   3.268   1.871  0.9510  1.1261 -0.3019
  728MOL0     C98177  12.361   3.351   1.796 -0.3860 -0.4778  0.0345
  728MOL0     C98178  12.501   3.365   1.808 -0.1082 -0.0800  1.0555
  728MOL0     C98179  12.572   3.429   1.702 -0.0423  0.2171 -0.2939
  728MOL0     C98180  12.511   3.493   1.595  0.5954  0.2665 -0.4001
  728MOL0     O98181  12.563   3.575   1.497 -0.1424 -0.5456  0.3390
  728MOL0     C98182  12.697   3.621   1.517 -0.1912 -0.0861  0.4910
  728MOL0     C98183  12.717   3.700   1.648 -0.2383 -0.1242  0.0831
  728MOL0     C98184  12.633   3.823   1.649 -0.8347 -0.0020 -0.2854
  728MOL0     C98185  12.700   3.930   1.568 -0.9168 -0.4601 -1.2804
  728MOL0     C98186  12.608   4.053   1.566  0.1983 -0.3742  0.3652
  728MOL0     C98187  12.660   4.176   1.492  0.0278 -0.2673  0.9217
  728MOL0     C98188  12.810   4.207   1.513  0.9307  1.5551  0.1079
  728MOL0     C98189  12.850   4.333   1.440 -0.7813 -0.0930 -0.3213
  728MOL0    Cl98190  12.780   4.371   1.286 -0.3547  0.2982  0.0482
  728MOL0     C98191  12.371   3.464   1.580 -1.0821 -0.1204 -0.2060
  728MOL0     C98192  12.302   3.408   1.683 -0.9052 -0.3988  0.8490
  728MOL0     O98193  12.172   3.444   1.964 -0.2137  0.7188  0.0023
  728MOL0     C98194  12.183   3.099   2.059  0.3551 -1.2719  0.2048
  728MOL0     C98195  12.162   2.996   2.155 -0.1590  0.4452  0.4748
  728MOL0     N98196  11.634   2.689   2.221 -0.3226 -0.0515  0.7508
  728MOL0     N98197  11.517   2.699   2.184 -0.1481  1.0688  0.8897
  728MOL0     C98198  10.821   3.363   1.968  0.6935 -0.2380 -0.6655
  728MOL0     C98199  10.762   3.397   1.852 -0.0440  0.1899 -0.2306
  728MOL0     C98200  10.614   3.374   1.409  0.9417  0.1993 -0.5895
  728MOL0     C98201  10.669   3.410   1.282 -0.8622 -0.9635  1.0194
  728MOL0     C98202  10.589   3.470   1.185 -0.5031  0.7510 -0.2867
  728MOL0     C98203  10.454   3.495   1.205  0.5952  0.7001  0.6442
  728MOL0     O98204  10.400   3.566   1.100  0.0762  0.1334  0.5874
  728MOL0     C98205  10.270   3.614   1.115  1.3242  0.0196  0.4985
  728MOL0     C98206  10.222   3.676   0.982 -1.1549  0.0234  0.1634
  728MOL0     C98207  10.093   3.767   0.998  0.8414  0.1804 -0.4447
  728MOL0     C98208   9.980   3.700   0.914  0.0017  0.0419  0.3080
  728MOL0     C98209  10.020   3.703   0.772 -0.6045 -0.2292  0.6169
  728MOL0     C98210  10.055   3.724   0.652  0.0459 -0.3509 -0.7642
  728MOL0     C98211  10.391   3.441   1.324  0.1530  0.1104  0.8176
  728MOL0     C98212  10.472   3.385   1.422 -0.8499  0.5098  0.0837
  728MOL0     H98213  10.722   3.090   1.699  3.1782 -1.2773  1.1392
  728MOL0     H98214  10.837   3.025   1.909  2.9267 -0.3006  1.4308
  728MOL0     H98215  10.893   3.342   2.237 -2.4262  0.1181 -0.1155
  728MOL0     H98216  10.786   3.199   2.280  1.3889  0.1400  2.9547
  728MOL0     H98217  11.093   3.225   2.295  1.3713 -3.1671  0.1738
  728MOL0     H98218  10.980   3.188   2.429  1.8887  1.1163  0.5983
  728MOL0     H98219  10.893   3.008   2.262 -0.9889  2.4974  1.4999
  728MOL0     H98220  11.047   3.003   2.187 -0.6154 -4.6232  0.3041
  728MOL0     H98221  11.146   2.938   2.425 -0.0435 -2.0628 -0.0645
  728MOL0     H98222  10.979   2.938   2.483 -0.9417 -0.8604 -0.0848
  728MOL0     H98223  11.047   2.718   2.444  0.9735  2.5546 -0.0327
  728MOL0     H98224  10.901   2.758   2.360  0.3685 -0.0603  0.8254
  728MOL0     H98225  11.010   2.628   2.223 -0.9386 -0.1882  4.5210
  728MOL0     H98226  11.017   2.778   2.140 -0.0710 -3.2463 -0.9606
  728MOL0     H98227  11.236   2.671   2.111  0.3878  2.0192 -1.8432
  728MOL0     H98228  11.246   2.824   2.184  0.3668 -0.1739  0.8368
  728MOL0     H98229  11.269   2.569   2.344  1.3652 -1.5767 -1.4214
  728MOL0     H98230  11.264   2.735   2.408 -1.0027  0.5918 -0.7803
  728MOL0     H98231  11.491   2.699   2.506 -1.9157 -1.1514 -0.8218
  728MOL0     H98232  11.753   2.630   2.530  0.7373 -0.5579  0.3778
  728MOL0     H98233  11.837   2.611   2.374  1.6075 -1.5847  2.7618
  728MOL0     H98234  11.762   2.876   2.502 -1.0815 -3.4017  2.0805
  728MOL0     H98235  11.844   2.855   2.343  2.3580  2.2744  1.7169
  728MOL0     H98236  12.040   2.737   2.513  3.4046  2.5488 -0.8321
  728MOL0     H98237  11.933   2.810   2.629 -2.7703  1.9212  0.6865
  728MOL0     H98238  12.093   2.963   2.575 -2.0631  2.4796  1.3747
  728MOL0     H98239  11.959   3.025   2.480 -1.4623 -1.1421 -0.9942
  728MOL0     H98240  12.083   3.189   2.405 -2.9198 -4.1471  0.6713
  728MOL0     H98241  12.053   3.485   2.181 -1.2494 -0.3608  1.1358
  728MOL0     H98242  12.078   3.421   2.352 -1.8874  2.2677 -0.0057
  728MOL0     H98243  12.212   3.466   2.234  0.6851 -2.3655 -3.2421
  728MOL0     H98244  12.560   3.321   1.887  2.9732 -0.3779 -1.2183
  728MOL0     H98245  12.680   3.440   1.706 -0.1264  2.9390 -2.1834
  728MOL0     H98246  12.770   3.539   1.519 -3.4533 -3.2081  3.2579
  728MOL0     H98247  12.709   3.685   1.429  2.2257  0.8628  1.4234
  728MOL0     H98248  12.714   3.639   1.739 -1.5092  0.8914  0.7560
  728MOL0     H98249  12.821   3.734   1.643 -0.1428 -0.5760 -1.3669
  728MOL0     H98250  12.624   3.841   1.757 -0.2534  2.1824 -0.5676
  728MOL0     H98251  12.538   3.796   1.601  0.7158 -2.3892 -2.2163
  728MOL0     H98252  12.796   3.943   1.619 -1.0962 -4.1806  0.3591
  728MOL0     H98253  12.722   3.894   1.467  3.4153 -2.0904 -0.0107
  728MOL0     H98254  12.587   4.095   1.665  0.9560  2.1661 -0.4595
  728MOL0     H98255  12.511   4.024   1.527  1.2179 -2.8692 -0.4729
  728MOL0     H98256  12.644   4.157   1.385  0.2370  0.9084  0.6685
  728MOL0     H98257  12.601   4.265   1.513 -0.5758 -0.2755 -0.6294
  728MOL0     H98258  12.864   4.114   1.489 -2.2837 -1.7468  4.1188
  728MOL0     H98259  12.827   4.219   1.620  0.9106 -1.3800  0.5390
  728MOL0     H98260  12.958   4.330   1.419 -1.1313  1.2639 -2.6818
  728MOL0     H98261  12.827   4.419   1.505 -3.8472 -1.5287  0.6890
  728MOL0     H98262  12.313   3.513   1.503 -0.7541  0.5957 -0.0072
  728MOL0     H98263  12.195   3.396   1.678 -0.6073 -6.7979  0.6899
  728MOL0     H98264  12.189   3.057   1.959 -0.3111 -0.2047 -0.3054
  728MOL0     H98265  12.174   2.895   2.119  0.9432  1.4842 -2.3787
  728MOL0     H98266  10.836   3.437   2.046 -2.9132  1.5408 -1.4604
  728MOL0     H98267  10.740   3.503   1.843 -3.6194 -0.4043  0.0929
  728MOL0     H98268  10.775   3.388   1.274 -1.1013 -2.3494  1.3287
  728MOL0     H98269  10.625   3.499   1.087 -1.1045  0.7184 -0.5254
  728MOL0     H98270  10.205   3.529   1.140  1.4999 -1.0561 -2.3104
  728MOL0     H98271  10.262   3.690   1.193  2.2625  0.8649 -0.2091
  728MOL0     H98272  10.224   3.601   0.903 -3.2145  1.8977 -1.8392
  728MOL0     H98273  10.301   3.747   0.955  2.9518 -4.1431  0.0682
  728MOL0     H98274  10.099   3.873   0.971  0.3921  0.7157  1.4077
  728MOL0     H98275  10.056   3.774   1.101  0.8475  0.0064 -0.4308
  728MOL0     H98276   9.887   3.757   0.925 -0.4747 -0.5684 -0.4314
  728MOL0     H98277   9.976   3.597   0.952  0.5995 -0.0843  0.0484
  728MOL0     H98278  10.070   3.751   0.549  0.6105 -0.8666 -0.8165
  728MOL0     H98279  10.285   3.464   1.331  0.3364  1.4095 -0.2944
  728MOL0     H98280  10.433   3.358   1.520 -2.7586 -1.8677 -1.1991
  729MOL0     O98281   1.357   7.326   6.399 -0.4164 -0.6375 -1.0643
  729MOL0     C98282   1.277   7.373   6.480 -0.5285 -0.0812  0.0070
  729MOL0     O98283   1.313   7.403   6.610  0.1375  0.3691  0.5785
  729MOL0     C98284   1.441   7.391   6.657  0.8036  0.0939  0.7348
  729MOL0     C98285   1.547   7.451   6.595  0.7541  0.2431  0.7825
  729MOL0     C98286   1.671   7.442   6.646 -1.0573  0.1903 -1.0292
  729MOL0     C98287   1.697   7.364   6.756 -0.2725 -0.8979 -0.7405
  729MOL0     O98288   1.821   7.336   6.810  0.4650 -0.2411  0.7691
  729MOL0     C98289   1.922   7.260   6.731 -0.0771 -0.5899  0.2281
  729MOL0     C98290   2.052   7.227   6.809  0.7789 -0.4700  0.3090
  729MOL0     C98291   2.005   7.147   6.929  0.5477 -0.6196  0.0975
  729MOL0     C98292   2.104   7.104   7.037 -0.2815  0.8330  0.2960
  729MOL0     C98293   2.031   7.010   7.130  0.9981 -0.2527  0.5770
  729MOL0     C98294   2.137   6.935   7.204 -0.0454  0.3671 -0.6529
  729MOL0     C98295   2.091   6.813   7.276 -0.5564 -0.3944 -0.2897
  729MOL0     C98296   2.216   6.748   7.335  0.6225 -0.1058  0.2950
  729MOL0     N98297   2.178   6.635   7.409  0.4106 -0.1550 -0.2079
  729MOL0     C98298   2.235   6.614   7.529 -0.1699  0.1835  0.5473
  729MOL0     C98299   2.177   6.496   7.561 -1.0285 -0.3273  0.4436
  729MOL0     C98300   2.201   6.422   7.683 -0.1722  0.3991 -0.7452
  729MOL0     C98301   2.322   6.344   7.658 -0.5907 -1.0631  0.0502
  729MOL0     C98302   2.356   6.235   7.758  0.9357 -0.3352 -0.7165
  729MOL0     C98303   2.508   6.205   7.773 -0.3527 -0.8310  0.4959
  729MOL0     O98304   2.526   6.130   7.897 -0.4506 -0.5150  1.1233
  729MOL0     C98305   2.535   5.996   7.875  0.5590  0.1850 -0.5013
  729MOL0     C98306   2.414   5.935   7.908  0.5563  0.4885 -0.2416
  729MOL0     C98307   2.400   5.790   7.885 -0.8359 -0.8131 -0.8037
  729MOL0     C98308   2.264   5.733   7.922 -1.0388 -0.9707  0.0061
  729MOL0     C98309   2.513   5.718   7.840  0.1931  0.7048 -0.0825
  729MOL0     C98310   2.508   5.571   7.800  0.7923  0.1779 -0.3603
  729MOL0     O98311   2.610   5.525   7.718  0.4516  0.2134 -0.1309
  729MOL0     C98312   2.633   5.391   7.702 -0.2682 -0.0588 -0.8887
  729MOL0     C98313   2.642   5.335   7.575  0.0791 -1.0658  0.0562
  729MOL0     C98314   2.641   5.198   7.557  0.3368  0.3840  0.4141
  729MOL0     C98315   2.657   5.114   7.658 -0.5210 -0.2313 -0.3009
  729MOL0     O98316   2.661   4.978   7.625 -0.3406  0.5262  0.3644
  729MOL0     C98317   2.610   4.881   7.715 -0.1395  0.6647  0.2620
  729MOL0     C98318   2.605   4.761   7.625  0.0256 -0.1541 -0.3646
  729MOL0     C98319   2.591   4.633   7.707  1.0182 -0.0292 -0.2757
  729MOL0     C98320   2.592   4.511   7.625 -0.2799  0.6955  0.8374
  729MOL0     C98321   2.567   4.374   7.686  0.2882  0.7789  0.2636
  729MOL0     C98322   2.658   4.354   7.810  0.6642  0.8426  0.4981
  729MOL0     C98323   2.619   4.221   7.877  0.1719  0.3475 -0.6907
  729MOL0     C98324   2.696   4.110   7.803  0.0394  0.8177 -0.1138
  729MOL0    Cl98325   2.611   3.961   7.842 -0.1083  0.6702  0.1631
  729MOL0     C98326   2.661   5.163   7.787  0.5757  0.1347 -0.0283
  729MOL0     C98327   2.636   5.299   7.813 -0.3274 -0.5426  0.1060
  729MOL0     O98328   2.415   5.498   7.845 -0.9963  0.2138 -0.1917
  729MOL0     C98329   2.632   5.791   7.817 -0.3802 -0.0840 -0.0520
  729MOL0     C98330   2.650   5.931   7.825 -0.4115 -0.1216 -0.3233
  729MOL0     N98331   2.080   6.451   7.465  0.1554 -0.1699  0.3013
  729MOL0     N98332   2.094   6.541   7.370  0.5388 -0.2048 -0.0866
  729MOL0     C98333   1.590   7.308   6.827  0.2375 -0.8358  0.0908
  729MOL0     C98334   1.463   7.327   6.779  0.4339 -0.1131  0.9073
  729MOL0     C98335   1.135   7.406   6.448 -0.5622 -0.0266  1.1325
  729MOL0     C98336   1.057   7.485   6.535 -0.1771  0.1990  0.9561
  729MOL0     C98337   0.922   7.512   6.506  0.1663  0.2169  0.1036
  729MOL0     C98338   0.867   7.484   6.375  1.3992 -0.5467 -0.3820
  729MOL0     O98339   0.732   7.501   6.339 -0.2650 -0.5203  0.3067
  729MOL0     C98340   0.631   7.464   6.435  0.4614 -0.4649 -0.3435
  729MOL0     C98341   0.651   7.342   6.525  0.2614 -0.1306  0.6956
  729MOL0     C98342   0.638   7.214   6.444  0.8130  0.7294 -0.6822
  729MOL0     C98343   0.641   7.102   6.540 -0.0077 -0.0097  0.0949
  729MOL0     C98344   0.641   6.986   6.448  0.9304 -0.2462 -0.3313
  729MOL0     C98345   0.622   6.878   6.389 -0.0001  0.4401  0.0323
  729MOL0     C98346   0.946   7.417   6.281 -0.5239 -0.7510  0.3120
  729MOL0     C98347   1.081   7.382   6.312  0.7266 -0.2326  0.6379
  729MOL0     H98348   1.528   7.509   6.505  2.3875  1.4234  1.1388
  729MOL0     H98349   1.759   7.472   6.589  0.8194  0.8255  1.9482
  729MOL0     H98350   1.877   7.163   6.708  0.9263 -1.5871  2.1678
  729MOL0     H98351   1.960   7.313   6.643 -0.5022  2.2498  1.6494
  729MOL0     H98352   2.123   7.169   6.749  1.8463  0.3620  0.7317
  729MOL0     H98353   2.096   7.325   6.830  0.9102 -0.0521 -1.7726
  729MOL0     H98354   1.936   7.213   6.981  3.5141  1.2679  1.9047
  729MOL0     H98355   1.948   7.058   6.901  0.4565 -1.8942  3.7732
  729MOL0     H98356   2.171   7.048   6.971 -1.7442 -1.0648  0.2952
  729MOL0     H98357   2.156   7.179   7.097  0.9376  0.8317 -0.7216
  729MOL0     H98358   1.973   7.063   7.207  0.4647 -2.3922  1.7265
  729MOL0     H98359   1.962   6.949   7.070 -0.6226  2.6231 -0.6973
  729MOL0     H98360   2.219   6.907   7.137  1.1932  0.2714  0.8170
  729MOL0     H98361   2.184   6.995   7.284  0.2434 -2.1120  1.1571
  729MOL0     H98362   2.011   6.841   7.346  0.1251 -0.8520  0.7074
  729MOL0     H98363   2.043   6.747   7.204 -2.2724 -0.4864  0.8808
  729MOL0     H98364   2.258   6.820   7.406 -2.7847 -0.5901  3.0826
  729MOL0     H98365   2.298   6.713   7.272  1.1017 -0.0890  0.8976
  729MOL0     H98366   2.300   6.676   7.591 -2.3848  2.1817  0.9958
  729MOL0     H98367   2.209   6.487   7.770 -2.5515  1.0897 -0.9902
  729MOL0     H98368   2.127   6.344   7.706  1.0877 -1.3148 -2.1680
  729MOL0     H98369   2.401   6.421   7.656 -1.6788  0.0698 -0.7009
  729MOL0     H98370   2.326   6.296   7.560 -0.6235  1.5075 -1.3017
  729MOL0     H98371   2.313   6.145   7.713 -1.0294 -0.7315  1.7491
  729MOL0     H98372   2.300   6.233   7.852 -3.7054 -0.1605 -3.1835
  729MOL0     H98373   2.580   6.288   7.776 -0.7632 -0.4361 -0.3350
  729MOL0     H98374   2.533   6.142   7.687 -0.1799  0.1449 -0.1855
  729MOL0     H98375   2.335   5.996   7.951 -0.0428  0.7624 -1.6647
  729MOL0     H98376   2.186   5.808   7.905  1.4863  1.4232 -2.0206
  729MOL0     H98377   2.241   5.653   7.851 -0.4006 -2.8501  1.8470
  729MOL0     H98378   2.269   5.701   8.026 -0.8069 -2.4957 -0.4493
  729MOL0     H98379   2.636   5.405   7.492 -1.5416  0.4386  1.3825
  729MOL0     H98380   2.643   5.157   7.457 -0.6567  2.0613 -0.3313
  729MOL0     H98381   2.682   4.867   7.796 -0.9672  0.0484  0.9197
  729MOL0     H98382   2.514   4.903   7.763  0.7414  1.3958  1.7763
  729MOL0     H98383   2.521   4.761   7.555  0.1476 -5.9123 -1.0052
  729MOL0     H98384   2.691   4.759   7.558 -0.3075  1.8620 -0.9315
  729MOL0     H98385   2.498   4.643   7.763 -0.9978  1.7250 -3.5890
  729MOL0     H98386   2.677   4.639   7.775  0.6039  3.8580  0.1536
  729MOL0     H98387   2.517   4.533   7.548  1.6161 -1.1666 -1.6801
  729MOL0     H98388   2.688   4.501   7.575 -0.6450  1.7817 -0.1483
  729MOL0     H98389   2.576   4.295   7.610  0.3142  1.6606 -0.6658
  729MOL0     H98390   2.462   4.363   7.717 -0.2961  1.4236 -1.3943
  729MOL0     H98391   2.761   4.366   7.775  1.4980 -0.7521  2.1827
  729MOL0     H98392   2.638   4.433   7.884  0.9198  0.5900  0.8421
  729MOL0     H98393   2.512   4.202   7.890 -0.1830  2.4306 -0.2450
  729MOL0     H98394   2.661   4.216   7.978 -1.6467  0.8074  0.1288
  729MOL0     H98395   2.804   4.108   7.824 -0.2581 -0.3069  1.4528
  729MOL0     H98396   2.691   4.120   7.694  0.2504 -3.2339 -0.6427
  729MOL0     H98397   2.652   5.108   7.880  0.8433  1.1117  0.5871
  729MOL0     H98398   2.610   5.329   7.914  0.3842 -0.1585  0.1846
  729MOL0     H98399   2.719   5.732   7.788  0.9427  0.2158  2.9881
  729MOL0     H98400   2.751   5.969   7.818 -0.7823  0.5956 -2.1138
  729MOL0     H98401   1.600   7.254   6.921  1.1884  2.1203  1.8330
  729MOL0     H98402   1.383   7.272   6.828 -1.0997  0.6241 -0.6620
  729MOL0     H98403   1.107   7.534   6.618 -0.2353  1.2002  0.4192
  729MOL0     H98404   0.855   7.560   6.576  2.3162 -1.2747  3.4671
  729MOL0     H98405   0.635   7.551   6.502  3.1352  2.4038 -3.8223
  729MOL0     H98406   0.535   7.458   6.382  1.4335  2.2230 -2.7145
  729MOL0     H98407   0.571   7.335   6.599  0.0149 -1.0713  0.3607
  729MOL0     H98408   0.747   7.347   6.577  0.5605  1.9724 -0.0003
  729MOL0     H98409   0.723   7.203   6.376 -0.5763 -2.2252 -2.1574
  729MOL0     H98410   0.551   7.221   6.377 -0.0377  0.0011  0.3186
  729MOL0     H98411   0.553   7.100   6.605  1.8115  0.3776  2.7354
  729MOL0     H98412   0.736   7.114   6.592 -0.0887  1.5394 -0.0717
  729MOL0     H98413   0.630   6.786   6.334 -0.6952  2.2344 -3.3155
  729MOL0     H98414   0.909   7.393   6.181  1.4828  0.8770 -0.9132
  729MOL0     H98415   1.146   7.340   6.236 -2.1156 -4.0813  0.0454
  730MOL0     O98416  11.358   3.131   9.749 -1.0286 -0.2176 -0.2821
  730MOL0     C98417  11.381   3.142   9.871  0.0375  0.1319 -0.0253
  730MOL0     O98418  11.285   3.136   9.970 -0.0499 -0.6395 -0.1246
  730MOL0     C98419  11.157   3.141   9.925 -0.6467  0.1681  0.1451
  730MOL0     C98420  11.104   3.247   9.851 -0.1336 -0.0836 -1.1845
  730MOL0     C98421  10.968   3.250   9.826  0.0354 -0.1694  0.4639
  730MOL0     C98422  10.881   3.153   9.880  1.0861 -0.9692  0.1127
  730MOL0     O98423  10.743   3.179   9.859  0.0179 -0.1582 -0.4907
  730MOL0     C98424  10.659   3.067   9.850  0.5935 -0.6115  0.3159
  730MOL0     C98425  10.515   3.117   9.868 -0.3517 -0.3904  0.1428
  730MOL0     C98426  10.420   3.013   9.920  0.0746 -0.0503 -0.3562
  730MOL0     C98427  10.272   3.058   9.951  0.4779  0.4250 -0.2299
  730MOL0     C98428  10.186   3.116   9.836  0.1922 -0.2644 -0.8994
  730MOL0     C98429  10.169   3.271   9.835 -0.0370  0.3609  0.4773
  730MOL0     C98430  10.109   3.321   9.707 -0.4563  1.3958 -0.2159
  730MOL0     C98431  10.072   3.470   9.730  0.5305  0.6218 -0.0093
  730MOL0     N98432   9.976   3.524   9.630  0.3909  0.1152 -0.2252
  730MOL0     C98433   9.999   3.608   9.529  0.2388 -0.4856  0.7212
  730MOL0     C98434   9.885   3.613   9.443  0.2838 -0.4229 -0.0403
  730MOL0     C98435   9.850   3.688   9.315 -0.0718 -0.7124  0.1215
  730MOL0     C98436   9.973   3.767   9.268 -0.0998  0.5214  0.3892
  730MOL0     C98437   9.944   3.899   9.199 -0.8831 -0.4975 -0.2304
  730MOL0     C98438  10.052   3.996   9.194 -0.5776 -0.0476 -0.3930
  730MOL0     O98439  10.152   3.951   9.105 -0.9216  0.1985  0.4190
  730MOL0     C98440  10.137   3.957   8.971  0.7304  0.0727  0.3430
  730MOL0     C98441  10.045   4.031   8.885 -0.7351  0.8875  0.1918
  730MOL0     C98442  10.057   4.047   8.750 -0.4245  0.0418  0.3802
  730MOL0     C98443   9.960   4.128   8.665 -0.1431  0.7607 -0.7617
  730MOL0     C98444  10.171   3.990   8.685  0.1824 -0.5311 -0.1092
  730MOL0     C98445  10.199   4.011   8.546 -0.2943 -0.6859 -0.7724
  730MOL0     O98446  10.125   3.939   8.471  0.5346 -0.0870  0.4873
  730MOL0     C98447  10.125   3.971   8.327  0.0443  0.3142 -0.7312
  730MOL0     C98448  10.146   4.096   8.269  0.8163 -0.7050  1.5205
  730MOL0     C98449  10.140   4.102   8.125  0.5477  0.1733 -0.5108
  730MOL0     C98450  10.135   3.984   8.048 -0.2166 -0.8079  0.1976
  730MOL0     O98451  10.132   4.004   7.911 -0.6891  0.1402  0.5066
  730MOL0     C98452  10.154   3.900   7.813  0.2156 -0.7898 -0.2801
  730MOL0     C98453  10.121   3.959   7.673 -0.1009  0.8039 -0.8298
  730MOL0     C98454   9.977   3.986   7.647  0.6416  0.4073  1.2366
  730MOL0     C98455   9.955   4.073   7.519 -0.5268 -0.0204 -0.0735
  730MOL0     C98456   9.808   4.068   7.475 -0.1385  0.5399 -0.6256
  730MOL0     C98457   9.779   4.152   7.353 -1.4678  0.5100  0.5007
  730MOL0     C98458   9.632   4.138   7.312  0.3058 -0.6872  1.2898
  730MOL0     C98459   9.580   4.211   7.191 -0.1882 -0.0712 -0.1655
  730MOL0    Cl98460   9.617   4.389   7.212  0.7926  0.1906 -0.5501
  730MOL0     C98461  10.108   3.863   8.110  0.0271  0.7753 -0.0842
  730MOL0     C98462  10.103   3.859   8.247  0.1748 -0.0702 -1.1966
  730MOL0     O98463  10.293   4.083   8.518  0.1136  0.0817 -0.2651
  730MOL0     C98464  10.262   3.928   8.763 -0.3715  1.0469 -1.5114
  730MOL0     C98465  10.246   3.915   8.907 -0.4092 -0.9680  0.0836
  730MOL0     N98466   9.791   3.534   9.511 -0.5121  0.4888 -1.0101
  730MOL0     N98467   9.845   3.486   9.619 -0.6337 -0.8386  0.2189
  730MOL0     C98468  10.936   3.042   9.943  0.3989  0.8556  0.1596
  730MOL0     C98469  11.073   3.040   9.972 -0.4781 -0.0681 -0.3581
  730MOL0     C98470  11.521   3.140   9.906 -0.5741 -0.2081  0.2558
  730MOL0     C98471  11.627   3.147   9.813 -0.9856 -0.6829 -0.0360
  730MOL0     C98472  11.766   3.152   9.856 -0.2668 -0.4606  0.0039
  730MOL0     C98473  11.795   3.131   9.991 -1.0916  0.4070 -0.0140
  730MOL0     O98474  11.919   3.112  10.041 -0.5915 -0.1011 -0.0937
  730MOL0     C98475  11.991   2.991  10.030  0.4660  0.6113 -0.6425
  730MOL0     C98476  12.032   2.948   9.894  0.0710 -0.0661  0.2065
  730MOL0     C98477  12.149   3.033   9.842 -0.4391 -0.5418 -0.7043
  730MOL0     C98478  12.181   3.006   9.703  0.6427  0.1760  0.4063
  730MOL0     C98479  12.312   3.065   9.670 -0.2380 -1.3157 -0.0735
  730MOL0     C98480  12.428   3.113   9.687  0.4836  0.4151  0.3831
  730MOL0     C98481  11.692   3.116  10.080 -0.2468  0.4389 -0.2283
  730MOL0     C98482  11.560   3.120  10.044 -0.4909  0.4204  0.5345
  730MOL0     H98483  11.162   3.331   9.816  1.2043 -0.0144  0.9807
  730MOL0     H98484  10.922   3.334   9.773 -0.8470 -1.0438 -0.2080
  730MOL0     H98485  10.669   3.009   9.758  2.5910  0.0494  0.0573
  730MOL0     H98486  10.674   3.012   9.944  4.2098  2.5791  1.8689
  730MOL0     H98487  10.511   3.191   9.949 -3.4243  3.5733 -3.1994
  730MOL0     H98488  10.479   3.153   9.772 -0.4095 -0.5563  0.1024
  730MOL0     H98489  10.409   2.935   9.844 -3.6799 -1.2231  1.1473
  730MOL0     H98490  10.461   2.959  10.006 -1.3177 -0.1965  0.2353
  730MOL0     H98491  10.227   2.967   9.990 -0.8433  1.1185 -0.0995
  730MOL0     H98492  10.282   3.134  10.029  1.7340 -2.7543  3.0174
  730MOL0     H98493  10.232   3.083   9.742 -1.0490  2.9312 -2.7791
  730MOL0     H98494  10.085   3.079   9.856  0.2413 -1.1663 -2.1804
  730MOL0     H98495  10.108   3.295   9.923  1.2641 -4.1144  2.8971
  730MOL0     H98496  10.264   3.322   9.849  0.1187 -0.6665  3.8332
  730MOL0     H98497  10.176   3.296   9.624 -0.7530 -2.1013  0.4454
  730MOL0     H98498  10.011   3.277   9.690 -1.1107  2.3787  0.9084
  730MOL0     H98499  10.156   3.540   9.743  0.9032  0.6838 -2.2933
  730MOL0     H98500  10.010   3.473   9.820  2.9627  4.0927  1.8142
  730MOL0     H98501  10.083   3.672   9.503 -2.4210  2.0607 -2.5821
  730MOL0     H98502   9.814   3.629   9.231 -0.9758  0.3109 -0.2447
  730MOL0     H98503   9.767   3.757   9.337  1.7574  2.3837 -2.0051
  730MOL0     H98504  10.034   3.703   9.204 -0.1892  0.8070  0.0145
  730MOL0     H98505  10.030   3.804   9.354 -1.6880  1.2509  1.1775
  730MOL0     H98506   9.869   3.957   9.252 -1.2415  1.7831 -2.9740
  730MOL0     H98507   9.918   3.887   9.093 -2.3345 -0.0706  0.0605
  730MOL0     H98508  10.092   4.023   9.292  1.7642 -1.3528 -0.9152
  730MOL0     H98509  10.012   4.091   9.159 -1.9404  0.5263  2.4248
  730MOL0     H98510   9.954   4.066   8.933 -1.1674  0.9167 -0.6350
  730MOL0     H98511  10.006   4.201   8.598 -0.9575  0.0536 -2.1476
  730MOL0     H98512   9.896   4.069   8.599 -0.5236 -1.5709  1.4948
  730MOL0     H98513   9.892   4.169   8.740 -1.8620 -4.3470  0.9125
  730MOL0     H98514  10.166   4.179   8.335  1.2237 -1.0605  1.8525
  730MOL0     H98515  10.153   4.201   8.082  0.6596  0.6881  0.6729
  730MOL0     H98516  10.253   3.854   7.826  0.5195 -0.7489 -2.1946
  730MOL0     H98517  10.081   3.820   7.833  1.2172 -2.2456 -2.1181
  730MOL0     H98518  10.177   4.053   7.662 -0.9679  1.6057  1.0469
  730MOL0     H98519  10.157   3.883   7.605 -0.8298 -0.8436  0.5452
  730MOL0     H98520   9.923   4.049   7.719  2.0239 -0.4697  3.1413
  730MOL0     H98521   9.928   3.889   7.636 -2.3964  1.8938  0.5688
  730MOL0     H98522   9.997   4.173   7.536  1.0745 -0.8375  1.0607
  730MOL0     H98523  10.024   4.031   7.445  2.1924  1.1936  1.6174
  730MOL0     H98524   9.750   4.093   7.565  0.4328  2.1540 -0.6851
  730MOL0     H98525   9.779   3.964   7.457  2.8436 -0.7506  1.2669
  730MOL0     H98526   9.809   4.255   7.375  1.2940 -0.8606  4.1388
  730MOL0     H98527   9.849   4.132   7.272 -3.2886  3.2171 -1.9175
  730MOL0     H98528   9.563   4.161   7.393 -2.6220 -0.7317 -1.0029
  730MOL0     H98529   9.609   4.032   7.295 -0.2360 -0.2524 -1.1655
  730MOL0     H98530   9.472   4.205   7.178 -0.7839  2.0599  2.7694
  730MOL0     H98531   9.631   4.173   7.102 -0.6452 -1.3177  0.0896
  730MOL0     H98532  10.098   3.773   8.049  2.8771 -1.2899  2.2284
  730MOL0     H98533  10.083   3.767   8.301 -0.6651  0.1553 -1.1119
  730MOL0     H98534  10.348   3.891   8.707  0.4357 -0.0618  0.3858
  730MOL0     H98535  10.325   3.874   8.969 -0.8204 -2.5815 -0.3902
  730MOL0     H98536  10.878   2.958   9.980 -2.8895  2.7249 -0.3532
  730MOL0     H98537  11.099   2.947  10.021 -0.0376 -0.5665 -1.5076
  730MOL0     H98538  11.610   3.160   9.707  4.5960  0.9243 -1.0326
  730MOL0     H98539  11.840   3.159   9.777 -1.2642  1.4773 -0.8235
  730MOL0     H98540  12.080   2.989  10.094 -1.8017 -0.9655  2.7469
  730MOL0     H98541  11.933   2.910  10.075  1.4368 -0.3340 -1.0529
  730MOL0     H98542  11.942   2.951   9.831  1.6005 -0.1874 -2.1191
  730MOL0     H98543  12.062   2.842   9.901  0.3019  0.0990  2.4053
  730MOL0     H98544  12.232   3.025   9.913 -1.4759  0.8527  0.7216
  730MOL0     H98545  12.118   3.137   9.843 -1.4398 -0.8311 -0.8225
  730MOL0     H98546  12.119   3.061   9.631  1.8009  0.5791 -0.3061
  730MOL0     H98547  12.186   2.900   9.676  1.5822  0.7369 -1.8820
  730MOL0     H98548  12.529   3.149   9.679  0.4356  1.2043  2.4704
  730MOL0     H98549  11.707   3.096  10.185 -0.8521 -0.7944 -0.3567
  730MOL0     H98550  11.481   3.104  10.117 -0.0138 -1.8345  0.5999
  731MOL0     O98551   2.694   0.481   2.653 -0.0690 -0.2694  0.0712
  731MOL0     C98552   2.582   0.523   2.688  0.2433  0.8058 -0.1855
  731MOL0     O98553   2.484   0.439   2.737 -0.1996  0.6962 -0.2698
  731MOL0     C98554   2.485   0.302   2.717 -0.4713 -0.5082 -0.7850
  731MOL0     C98555   2.551   0.242   2.614 -0.4507 -0.2862  0.8361
  731MOL0     C98556   2.542   0.103   2.595  0.7437 -0.9818  0.3008
  731MOL0     C98557   2.468   0.020   2.685 -0.2754 -0.5377 -0.4068
  731MOL0     O98558   2.450  -0.115   2.651  0.5096  0.3410  0.1620
  731MOL0     C98559   2.562  -0.197   2.611  0.4080  0.6862 -0.6646
  731MOL0     C98560   2.501  -0.342   2.583 -1.6791  0.2694 -0.6259
  731MOL0     C98561   2.376  -0.333   2.497 -0.0209 -0.2306 -0.0202
  731MOL0     C98562   2.323  -0.469   2.462 -0.6059 -0.5512  0.1242
  731MOL0     C98563   2.254  -0.465   2.329  0.2053  0.1325 -0.1798
  731MOL0     C98564   2.186  -0.602   2.318 -0.8066 -0.3155 -0.0795
  731MOL0     C98565   2.124  -0.626   2.179  0.6694  0.5972  0.4080
  731MOL0     C98566   2.240  -0.626   2.074 -0.4612 -0.1974  0.0933
  731MOL0     N98567   2.205  -0.700   1.949 -0.3075 -0.4211  0.0700
  731MOL0     C98568   2.131  -0.814   1.936  0.4105 -0.3501 -0.3387
  731MOL0     C98569   2.075  -0.798   1.813  0.5997  0.4612 -0.5868
  731MOL0     C98570   1.971  -0.895   1.760  0.1579 -0.1539  0.0354
  731MOL0     C98571   1.852  -0.811   1.701  0.7167  0.0247 -0.1765
  731MOL0     C98572   1.746  -0.764   1.804 -0.0976 -0.1696 -0.0175
  731MOL0     C98573   1.799  -0.638   1.884  0.0782  0.4324 -0.6955
  731MOL0     O98574   1.687  -0.566   1.951 -0.9921  0.2432  0.2991
  731MOL0     C98575   1.703  -0.561   2.084 -1.0066  0.4566  0.1308
  731MOL0     C98576   1.728  -0.440   2.154  0.0729  0.1953  0.6756
  731MOL0     C98577   1.760  -0.437   2.289  0.4735  0.2606 -0.3670
  731MOL0     C98578   1.784  -0.301   2.356  1.1385  1.3717 -0.1425
  731MOL0     C98579   1.780  -0.562   2.364 -0.1585 -0.2915  1.3190
  731MOL0     C98580   1.803  -0.566   2.506  0.1698  0.8805 -0.2426
  731MOL0     O98581   1.868  -0.679   2.559  0.1033  0.1650 -0.2352
  731MOL0     C98582   1.894  -0.705   2.693 -0.5689  0.0434 -0.2287
  731MOL0     C98583   1.968  -0.618   2.768 -0.9298 -1.0826 -0.4376
  731MOL0     C98584   2.018  -0.649   2.901  0.1474 -1.0485 -0.3499
  731MOL0     C98585   1.991  -0.774   2.953  0.2319  0.0868 -0.2134
  731MOL0     O98586   2.055  -0.798   3.079  0.9526  0.0396 -0.0282
  731MOL0     C98587   2.036  -0.923   3.139 -0.5807 -0.5640  0.8401
  731MOL0     C98588   2.134  -0.934   3.259  0.2171  0.2102 -0.1428
  731MOL0     C98589   2.283  -0.896   3.219 -0.1922  0.2001 -0.4006
  731MOL0     C98590   2.383  -0.946   3.317 -0.2382 -0.4969  1.1906
  731MOL0     C98591   2.525  -0.907   3.275  0.1390 -0.0153  0.2110
  731MOL0     C98592   2.559  -0.754   3.297 -0.1403  1.4980 -0.0903
  731MOL0     C98593   2.566  -0.715   3.443  0.2261 -0.0075 -0.1167
  731MOL0     C98594   2.666  -0.793   3.532  0.0163 -0.1055 -0.5303
  731MOL0    Cl98595   2.829  -0.784   3.465 -0.1185 -0.2133 -0.1163
  731MOL0     C98596   1.916  -0.864   2.878 -0.1234 -0.2462 -0.2215
  731MOL0     C98597   1.864  -0.827   2.755  0.1360  0.5815 -0.2010
  731MOL0     O98598   1.781  -0.467   2.567 -0.2003  0.2237 -0.2194
  731MOL0     C98599   1.769  -0.679   2.293  1.2902  0.2642  0.0478
  731MOL0     C98600   1.724  -0.680   2.161 -0.4761  0.1744  0.3061
  731MOL0     N98601   2.128  -0.695   1.752 -0.2984 -0.3869 -0.2690
  731MOL0     N98602   2.206  -0.634   1.834 -0.8741 -0.4185  0.0497
  731MOL0     C98603   2.395   0.082   2.783 -0.6775 -0.1128 -0.2684
  731MOL0     C98604   2.405   0.225   2.796 -0.2666  0.5710 -0.7745
  731MOL0     C98605   2.554   0.668   2.686 -1.2431  0.4087 -0.9184
  731MOL0     C98606   2.613   0.752   2.600 -0.6055 -0.8064 -0.3637
  731MOL0     C98607   2.570   0.887   2.587  0.0238 -1.0887 -0.1756
  731MOL0     C98608   2.474   0.937   2.679  0.0909 -0.3914  0.0174
  731MOL0     O98609   2.457   1.070   2.701  0.5347 -0.1148 -0.2505
  731MOL0     C98610   2.321   1.102   2.676  0.2894 -0.2794  1.0678
  731MOL0     C98611   2.300   1.245   2.636  0.0739  0.8524 -0.4869
  731MOL0     C98612   2.349   1.272   2.499  0.1638  0.1418 -0.7262
  731MOL0     C98613   2.323   1.419   2.477  0.1385  0.9066 -0.4343
  731MOL0     C98614   2.412   1.502   2.558 -0.1716 -0.0630 -0.6997
  731MOL0     C98615   2.487   1.556   2.642 -0.2489  0.4911 -0.0137
  731MOL0     C98616   2.419   0.850   2.777 -0.1110  0.6297 -0.0364
  731MOL0     C98617   2.451   0.716   2.768 -0.1506  0.2855  0.4697
  731MOL0     H98618   2.613   0.302   2.548  1.2976 -1.8843  0.9359
  731MOL0     H98619   2.570   0.056   2.501  1.1243 -0.5193  0.1771
  731MOL0     H98620   2.597  -0.148   2.519 -1.5848 -1.0699 -2.4728
  731MOL0     H98621   2.645  -0.198   2.682 -0.7861 -1.9891  0.8297
  731MOL0     H98622   2.584  -0.390   2.532 -0.8608 -0.6513  1.4490
  731MOL0     H98623   2.480  -0.393   2.678 -2.2884 -2.0249 -1.9188
  731MOL0     H98624   2.306  -0.287   2.568 -0.1582 -1.2734  0.5526
  731MOL0     H98625   2.403  -0.265   2.416  1.4138  1.9897  2.1863
  731MOL0     H98626   2.408  -0.538   2.457  0.8543  1.2042 -0.3461
  731MOL0     H98627   2.247  -0.496   2.536 -0.7234 -0.2115  0.1292
  731MOL0     H98628   2.177  -0.388   2.332 -2.3449 -2.2892  2.1137
  731MOL0     H98629   2.317  -0.453   2.241  0.2112 -3.7306 -0.8774
  731MOL0     H98630   2.265  -0.677   2.326 -1.3669 -0.9257 -0.2449
  731MOL0     H98631   2.112  -0.640   2.388 -0.2491 -0.3491  0.5010
  731MOL0     H98632   2.066  -0.718   2.190 -0.1282  1.2815  2.5560
  731MOL0     H98633   2.055  -0.543   2.162 -0.0084  0.0829  0.6440
  731MOL0     H98634   2.324  -0.673   2.125 -1.3909  0.4021  2.2819
  731MOL0     H98635   2.266  -0.525   2.043 -2.4516  0.2388 -0.3139
  731MOL0     H98636   2.109  -0.881   2.019  0.9832  4.4655  4.1915
  731MOL0     H98637   2.022  -0.948   1.678  1.0237 -0.4826  0.7708
  731MOL0     H98638   1.953  -0.971   1.836  1.8951 -0.5933  0.0485
  731MOL0     H98639   1.795  -0.880   1.638  0.0334 -0.9058  1.3802
  731MOL0     H98640   1.894  -0.734   1.636  0.3521  1.0508  0.7651
  731MOL0     H98641   1.741  -0.853   1.867 -0.6908 -0.7390 -0.8617
  731MOL0     H98642   1.645  -0.745   1.767 -1.1583 -0.5430  2.4614
  731MOL0     H98643   1.854  -0.564   1.825 -1.2637  0.7255 -1.6529
  731MOL0     H98644   1.870  -0.669   1.960 -1.6742  2.3775  1.9028
  731MOL0     H98645   1.737  -0.346   2.100 -0.3213  1.7001  3.1128
  731MOL0     H98646   1.796  -0.234   2.270 -1.0384 -0.1616 -1.7274
  731MOL0     H98647   1.702  -0.283   2.426 -0.8540 -4.0612 -0.6305
  731MOL0     H98648   1.878  -0.289   2.412  0.8163  2.1310  0.2533
  731MOL0     H98649   1.991  -0.520   2.728  0.5145 -0.5271  1.6119
  731MOL0     H98650   2.080  -0.575   2.951 -2.4124  0.7904  0.2664
  731MOL0     H98651   1.931  -0.935   3.167 -0.4735  0.4333  1.7031
  731MOL0     H98652   2.060  -1.006   3.071 -0.6147 -0.1121  0.2730
  731MOL0     H98653   2.085  -0.863   3.326 -2.3465  0.4223 -2.0827
  731MOL0     H98654   2.119  -1.032   3.304 -1.3117  1.3229  1.9721
  731MOL0     H98655   2.282  -0.786   3.227 -0.7215  0.1881 -0.2643
  731MOL0     H98656   2.307  -0.918   3.115  1.3590  0.3365 -0.0885
  731MOL0     H98657   2.367  -0.911   3.420 -0.2578 -0.5646  1.2103
  731MOL0     H98658   2.371  -1.053   3.335 -0.5873 -0.4599  1.1922
  731MOL0     H98659   2.522  -0.924   3.167 -4.1539  0.3077  0.1083
  731MOL0     H98660   2.598  -0.967   3.329 -0.1952 -1.8866 -1.2788
  731MOL0     H98661   2.663  -0.748   3.261 -0.1128 -2.4143 -1.1108
  731MOL0     H98662   2.503  -0.679   3.242 -1.3126  2.3861  2.1940
  731MOL0     H98663   2.467  -0.724   3.490 -0.2408 -2.2675 -1.3952
  731MOL0     H98664   2.604  -0.612   3.449 -1.5932  0.6121  2.2731
  731MOL0     H98665   2.632  -0.896   3.546 -2.4663  0.5818 -0.9908
  731MOL0     H98666   2.651  -0.739   3.626 -4.2397 -1.7437 -0.0226
  731MOL0     H98667   1.903  -0.968   2.906 -0.7657  0.2170  1.2798
  731MOL0     H98668   1.808  -0.900   2.698  1.7219 -1.2781  0.4880
  731MOL0     H98669   1.799  -0.768   2.348  0.2533  1.9094  3.5766
  731MOL0     H98670   1.718  -0.779   2.116 -0.4442 -0.2405  1.1846
  731MOL0     H98671   2.319   0.026   2.836 -2.1538  2.2852  0.2901
  731MOL0     H98672   2.358   0.263   2.886 -0.5356 -2.5091  0.4987
  731MOL0     H98673   2.686   0.720   2.527 -1.2633 -1.0974 -0.9099
  731MOL0     H98674   2.622   0.954   2.519 -2.5492 -0.5315 -1.7177
  731MOL0     H98675   2.283   1.037   2.597 -0.9247  0.1199  1.2963
  731MOL0     H98676   2.261   1.078   2.765 -0.9171  0.3290  0.4403
  731MOL0     H98677   2.359   1.309   2.702  0.9773  0.5615 -0.9920
  731MOL0     H98678   2.197   1.280   2.641  0.3153  1.5925 -0.5530
  731MOL0     H98679   2.293   1.221   2.420  3.4266  0.6060 -3.5896
  731MOL0     H98680   2.450   1.233   2.491 -0.0746 -1.0401  1.2692
  731MOL0     H98681   2.216   1.427   2.496 -0.0906 -3.5421  1.6977
  731MOL0     H98682   2.340   1.445   2.373 -0.3755  0.5984 -0.6000
  731MOL0     H98683   2.550   1.606   2.713 -2.4659  2.5233  0.6758
  731MOL0     H98684   2.339   0.882   2.843 -2.9412 -0.5054 -2.6630
  731MOL0     H98685   2.390   0.647   2.826 -1.3504 -0.9479 -2.0868
  732MOL0     O98686   0.051   0.690   5.363 -0.0070 -0.8335 -0.3728
  732MOL0     C98687  -0.023   0.613   5.416 -0.2064  0.3073 -1.0639
  732MOL0     O98688   0.005   0.488   5.452  0.2556 -0.5873 -0.5075
  732MOL0     C98689   0.127   0.424   5.427  0.5708 -0.2066 -0.2036
  732MOL0     C98690   0.200   0.439   5.305  0.2446  0.0540  0.4689
  732MOL0     C98691   0.322   0.374   5.295 -0.0970  0.3211 -0.3524
  732MOL0     C98692   0.361   0.272   5.384  0.4622  0.6278 -0.4142
  732MOL0     O98693   0.467   0.205   5.341  0.3918 -0.2935  0.4877
  732MOL0     C98694   0.539   0.131   5.439  0.1875  0.3957 -0.6656
  732MOL0     C98695   0.688   0.133   5.392 -0.6201  0.1134  0.2555
  732MOL0     C98696   0.781   0.040   5.458 -0.9211  0.5143 -0.5953
  732MOL0     C98697   0.931   0.055   5.415  0.1262 -0.2200  0.7201
  732MOL0     C98698   1.034  -0.064   5.445  0.3910 -0.8753 -0.3748
  732MOL0     C98699   1.086  -0.136   5.321 -0.5758 -0.3196 -0.5859
  732MOL0     C98700   0.965  -0.207   5.257 -0.3314 -0.0026 -0.1330
  732MOL0     C98701   0.993  -0.268   5.119  0.2713  0.0817  0.3593
  732MOL0     N98702   1.067  -0.174   5.032 -0.0005 -0.1160  0.6379
  732MOL0     C98703   1.016  -0.123   4.915  0.3057 -0.2850  0.3104
  732MOL0     C98704   1.128  -0.089   4.845 -0.0998 -0.0024  0.5529
  732MOL0     C98705   1.123  -0.023   4.709  0.1283 -0.3136 -0.1764
  732MOL0     C98706   1.111   0.131   4.715  0.4791 -1.0708 -0.7122
  732MOL0     C98707   1.244   0.200   4.760  0.2968  0.6428 -0.1269
  732MOL0     C98708   1.222   0.349   4.812  0.1704  0.9797 -0.0707
  732MOL0     O98709   1.348   0.394   4.855  0.6930 -0.4431 -0.8620
  732MOL0     C98710   1.412   0.347   4.968  0.3540 -1.1664 -0.2504
  732MOL0     C98711   1.350   0.291   5.082 -0.3455  0.2791 -0.1437
  732MOL0     C98712   1.425   0.242   5.182 -0.0421  0.5090 -0.9639
  732MOL0     C98713   1.355   0.150   5.284  0.0870 -0.0603  0.4822
  732MOL0     C98714   1.564   0.262   5.176  0.8322  0.1868 -0.2782
  732MOL0     C98715   1.654   0.231   5.290 -0.6325 -0.3765  0.5584
  732MOL0     O98716   1.784   0.230   5.245 -0.5852 -0.1561 -0.5874
  732MOL0     C98717   1.877   0.185   5.338 -0.4470 -0.0819  0.2113
  732MOL0     C98718   1.852   0.071   5.415  0.2046 -1.1512 -0.6087
  732MOL0     C98719   1.928   0.045   5.530  0.1001 -0.2980 -0.7775
  732MOL0     C98720   2.053   0.116   5.550  0.3179  0.3487  1.0078
  732MOL0     O98721   2.142   0.072   5.647 -0.1242 -0.5625 -0.2172
  732MOL0     C98722   2.266   0.137   5.664  0.0826 -0.1053 -0.9098
  732MOL0     C98723   2.347   0.048   5.751  0.1804 -0.5346  0.1707
  732MOL0     C98724   2.424  -0.065   5.681  1.1941  0.0213 -0.0380
  732MOL0     C98725   2.333  -0.163   5.602  0.2212  0.4771  0.0590
  732MOL0     C98726   2.408  -0.283   5.542 -0.2656 -0.5610 -0.0643
  732MOL0     C98727   2.320  -0.371   5.462  0.5033 -0.4374  0.3904
  732MOL0     C98728   2.205  -0.457   5.530 -0.0364 -0.7290  0.6668
  732MOL0     C98729   2.133  -0.569   5.450  0.1294 -0.8428 -0.2364
  732MOL0    Cl98730   2.077  -0.662   5.591  0.1400  0.1904  0.2010
  732MOL0     C98731   2.075   0.227   5.468 -0.4240 -0.2971 -0.7406
  732MOL0     C98732   1.991   0.261   5.362  0.0498 -0.1870  0.1834
  732MOL0     O98733   1.606   0.218   5.402 -0.4899 -0.1937 -0.1312
  732MOL0     C98734   1.618   0.322   5.062  0.5895 -0.2800  0.0112
  732MOL0     C98735   1.547   0.367   4.952 -0.7863  0.4688 -0.3870
  732MOL0     N98736   1.244  -0.140   4.900 -0.0699 -0.0021 -0.3295
  732MOL0     N98737   1.205  -0.180   5.018  0.5395 -0.1113  0.1638
  732MOL0     C98738   0.280   0.242   5.499  0.3392  0.2768 -0.0787
  732MOL0     C98739   0.160   0.320   5.516  0.0192  0.5417 -0.2017
  732MOL0     C98740  -0.152   0.674   5.453 -0.2677  0.0009  0.0807
  732MOL0     C98741  -0.235   0.615   5.545 -0.8517  0.1617 -0.1785
  732MOL0     C98742  -0.365   0.665   5.563 -0.1057 -0.9128  0.1035
  732MOL0     C98743  -0.418   0.780   5.504 -0.5627 -0.8909  0.0650
  732MOL0     O98744  -0.544   0.823   5.540  0.7687 -1.1140  0.0023
  732MOL0     C98745  -0.614   0.895   5.427  1.1779 -0.3403 -0.7813
  732MOL0     C98746  -0.594   1.052   5.440 -0.4816  0.2504 -0.4253
  732MOL0     C98747  -0.636   1.123   5.309 -0.6721 -0.0172 -0.3658
  732MOL0     C98748  -0.779   1.161   5.288 -0.4296  0.4631 -0.9140
  732MOL0     C98749  -0.870   1.048   5.267 -0.0336 -0.3071 -0.1022
  732MOL0     C98750  -0.953   0.963   5.245 -0.2865 -0.2394 -0.2883
  732MOL0     C98751  -0.329   0.843   5.419  1.1271 -0.2567 -0.1413
  732MOL0     C98752  -0.198   0.799   5.396 -0.1083 -0.1796 -0.0421
  732MOL0     H98753   0.166   0.510   5.230 -0.9637 -0.4823  0.4886
  732MOL0     H98754   0.396   0.387   5.215  2.0463  0.4212  1.5375
  732MOL0     H98755   0.531   0.169   5.542 -2.6266 -2.5871  0.4119
  732MOL0     H98756   0.487   0.035   5.441 -0.2504  0.5776 -2.2409
  732MOL0     H98757   0.698   0.109   5.286  2.6330  0.2773  0.4211
  732MOL0     H98758   0.733   0.232   5.405  0.9886 -0.8112  2.2543
  732MOL0     H98759   0.769   0.054   5.566  0.7085  1.9241 -0.5571
  732MOL0     H98760   0.754  -0.064   5.437  0.5956 -0.2912  1.1474
  732MOL0     H98761   0.938   0.080   5.309 -0.3824  1.4920  1.0627
  732MOL0     H98762   0.978   0.132   5.478  3.3015 -0.9576 -0.5686
  732MOL0     H98763   1.117  -0.007   5.487  0.4518 -1.2488  0.0214
  732MOL0     H98764   0.996  -0.133   5.520 -1.8865 -0.1333 -0.7561
  732MOL0     H98765   1.108  -0.056   5.251 -2.3455 -0.9090 -1.8757
  732MOL0     H98766   1.176  -0.192   5.351 -2.1138 -2.1105  0.9694
  732MOL0     H98767   0.928  -0.279   5.330  1.9920  0.6960  1.8662
  732MOL0     H98768   0.890  -0.131   5.236  0.1027  0.5274  0.2162
  732MOL0     H98769   0.898  -0.300   5.074 -0.0812 -0.0127  1.1605
  732MOL0     H98770   1.051  -0.358   5.143  1.5734  0.9993  0.7583
  732MOL0     H98771   0.919  -0.079   4.893 -0.4722  0.6710  4.6137
  732MOL0     H98772   1.201  -0.057   4.640 -0.1629  0.4910 -0.9258
  732MOL0     H98773   1.025  -0.048   4.667  0.4172  1.8984 -2.3752
  732MOL0     H98774   1.026   0.157   4.778  1.6632  0.5252  0.2752
  732MOL0     H98775   1.087   0.178   4.619 -3.5812  2.0286  1.5036
  732MOL0     H98776   1.311   0.187   4.674 -2.2325 -0.3035 -2.0781
  732MOL0     H98777   1.291   0.132   4.831 -2.4492 -1.9278 -0.5624
  732MOL0     H98778   1.143   0.350   4.888  0.8250  0.8757  0.6332
  732MOL0     H98779   1.192   0.417   4.732  0.6560  1.1760 -0.0861
  732MOL0     H98780   1.243   0.274   5.074 -0.3396 -0.2490  0.7717
  732MOL0     H98781   1.252   0.145   5.247  0.9054  2.5175 -2.6020
  732MOL0     H98782   1.384   0.045   5.291  0.3719 -0.3080 -2.7854
  732MOL0     H98783   1.346   0.187   5.386 -2.4360  0.9376 -0.0124
  732MOL0     H98784   1.768   0.004   5.397 -0.1841 -0.4667 -1.4258
  732MOL0     H98785   1.931  -0.037   5.601 -1.4005 -0.1952 -0.5577
  732MOL0     H98786   2.322   0.161   5.573  0.8487 -1.4436 -0.8145
  732MOL0     H98787   2.244   0.229   5.719  0.9071 -0.2366 -0.3518
  732MOL0     H98788   2.415   0.121   5.797 -0.4489 -0.5652  1.1849
  732MOL0     H98789   2.284  -0.003   5.825 -1.0867  1.1326  0.2949
  732MOL0     H98790   2.487  -0.124   5.748  3.2288  0.2959 -1.6335
  732MOL0     H98791   2.499  -0.039   5.606  4.2208 -1.3088  2.3125
  732MOL0     H98792   2.263  -0.206   5.675  3.1692  3.1860  4.9949
  732MOL0     H98793   2.277  -0.110   5.524  0.6794 -1.4499 -1.6618
  732MOL0     H98794   2.468  -0.318   5.626  1.1300  1.8345  0.0320
  732MOL0     H98795   2.477  -0.248   5.464 -1.8103 -0.8431 -1.6090
  732MOL0     H98796   2.282  -0.313   5.377 -0.1724 -0.6486  0.5380
  732MOL0     H98797   2.397  -0.440   5.425  2.2330  1.4879  0.2084
  732MOL0     H98798   2.123  -0.395   5.567  3.4239  3.1057  2.7716
  732MOL0     H98799   2.259  -0.500   5.615  0.3599 -1.9746 -0.1916
  732MOL0     H98800   2.212  -0.618   5.392  0.4607 -4.1372  2.7335
  732MOL0     H98801   2.049  -0.527   5.392  1.0258  0.6413 -0.5148
  732MOL0     H98802   2.162   0.289   5.485  2.6806 -4.1974 -1.0582
  732MOL0     H98803   2.006   0.349   5.301  1.1362 -0.2232  0.3767
  732MOL0     H98804   1.724   0.340   5.048  0.2867  1.3649 -0.3205
  732MOL0     H98805   1.593   0.408   4.863  0.4642  2.6498  1.1682
  732MOL0     H98806   0.300   0.149   5.551  0.9800 -0.3952 -1.4668
  732MOL0     H98807   0.100   0.305   5.605 -0.6618 -2.0994 -1.0101
  732MOL0     H98808  -0.207   0.528   5.604 -1.0270  1.0556  1.2560
  732MOL0     H98809  -0.427   0.621   5.640 -0.6028  0.1491  0.3329
  732MOL0     H98810  -0.579   0.860   5.329 -2.4949  0.1258 -2.4087
  732MOL0     H98811  -0.721   0.876   5.425 -0.5205  6.4196 -1.8449
  732MOL0     H98812  -0.501   1.090   5.484 -0.9059 -0.9863  1.6776
  732MOL0     H98813  -0.667   1.077   5.518 -2.6817 -1.2307 -1.8956
  732MOL0     H98814  -0.607   1.054   5.229  2.4263 -0.0016  0.5924
  732MOL0     H98815  -0.568   1.204   5.281  1.0025 -0.8603  1.0528
  732MOL0     H98816  -0.797   1.226   5.202  0.6171 -0.7136 -2.0608
  732MOL0     H98817  -0.816   1.201   5.383  1.7322 -3.3885  1.8049
  732MOL0     H98818  -1.042   0.913   5.212  0.5507 -1.9235 -0.0881
  732MOL0     H98819  -0.366   0.938   5.380  1.4936  0.7349  1.8411
  732MOL0     H98820  -0.136   0.858   5.328  1.8273 -0.5496  1.2989
  733MOL0     O98821   9.080   4.424   0.525 -0.0364  0.3598  0.5235
  733MOL0     C98822   9.014   4.490   0.611  0.3110 -0.8815  1.0563
  733MOL0     O98823   8.892   4.538   0.586 -0.2264 -0.0816 -0.0965
  733MOL0     C98824   8.844   4.534   0.456  0.1509 -0.0801 -0.6954
  733MOL0     C98825   8.858   4.647   0.370 -0.2475 -0.1761  0.4823
  733MOL0     C98826   8.807   4.651   0.241  0.5339  0.0795  0.0815
  733MOL0     C98827   8.723   4.543   0.194 -0.9286 -0.3281 -0.5629
  733MOL0     O98828   8.662   4.571   0.086 -0.3709  0.5882 -0.4614
  733MOL0     C98829   8.679   4.475  -0.019  0.7481  0.0723  0.6975
  733MOL0     C98830   8.651   4.559  -0.138 -0.9360  0.1162 -0.0603
  733MOL0     C98831   8.634   4.476  -0.268  0.0586 -0.5513 -0.2317
  733MOL0     C98832   8.743   4.365  -0.281  0.6388 -0.2082  0.5310
  733MOL0     C98833   8.722   4.296  -0.423 -1.3601 -0.7466 -0.1659
  733MOL0     C98834   8.807   4.166  -0.414  0.0643 -1.0920 -0.4103
  733MOL0     C98835   8.809   4.092  -0.546 -0.7529 -0.0873 -0.1680
  733MOL0     C98836   8.673   4.026  -0.586 -0.0225 -0.2206 -0.0311
  733MOL0     N98837   8.658   3.976  -0.724  0.4208 -0.5172 -0.7665
  733MOL0     C98838   8.755   3.913  -0.803  0.2935  0.2771 -0.6347
  733MOL0     C98839   8.687   3.899  -0.922 -0.8741 -1.4833 -0.5720
  733MOL0     C98840   8.760   3.863  -1.047 -0.2674 -0.1957  1.1158
  733MOL0     C98841   8.723   3.731  -1.106  0.2024 -0.0843 -0.0197
  733MOL0     C98842   8.751   3.612  -1.016 -0.1235 -0.4547 -0.1923
  733MOL0     C98843   8.905   3.593  -1.007 -0.4121 -0.5780  0.2303
  733MOL0     O98844   8.923   3.476  -0.924  0.2325 -0.1680 -0.1123
  733MOL0     C98845   9.057   3.433  -0.898 -0.4231 -0.2987 -0.1439
  733MOL0     C98846   9.073   3.347  -0.780 -0.6099  0.1960  0.4534
  733MOL0     C98847   9.207   3.310  -0.741 -0.6513 -0.0031  1.2060
  733MOL0     C98848   9.216   3.225  -0.619  0.7784  0.0465 -0.1384
  733MOL0     C98849   9.317   3.349  -0.825  0.0042 -0.3292  0.5228
  733MOL0     C98850   9.451   3.303  -0.790  0.0136  0.5205  0.0517
  733MOL0     O98851   9.556   3.391  -0.806  0.9125 -0.4066 -0.9661
  733MOL0     C98852   9.681   3.337  -0.798 -0.4816 -0.5065 -0.6317
  733MOL0     C98853   9.740   3.244  -0.879  0.7071 -0.0219  1.3004
  733MOL0     C98854   9.870   3.201  -0.872 -0.4000  0.5934  0.6237
  733MOL0     C98855   9.952   3.250  -0.767  1.5767 -0.3025 -0.9351
  733MOL0     O98856  10.069   3.185  -0.756 -0.1820 -0.1122  0.5837
  733MOL0     C98857  10.152   3.202  -0.639 -0.1215 -0.5313 -0.6212
  733MOL0     C98858  10.283   3.120  -0.629  0.0559 -0.6237 -0.3439
  733MOL0     C98859  10.269   2.965  -0.670 -0.8086  0.8996  0.6044
  733MOL0     C98860  10.380   2.873  -0.613  0.0433 -0.0136 -0.1849
  733MOL0     C98861  10.362   2.720  -0.626  0.1460  0.2867  0.4265
  733MOL0     C98862  10.266   2.651  -0.532  0.2857 -0.2769  0.4057
  733MOL0     C98863  10.249   2.504  -0.542 -0.1237  1.2931  1.3582
  733MOL0     C98864  10.154   2.444  -0.442  0.3722 -0.3509 -0.2086
  733MOL0    Cl98865  10.233   2.435  -0.291 -0.1701 -0.3260  0.0719
  733MOL0     C98866   9.898   3.354  -0.680 -0.1909 -0.4202  0.2510
  733MOL0     C98867   9.767   3.394  -0.694 -1.1011  0.3300  0.2491
  733MOL0     O98868   9.460   3.179  -0.764  0.1714  0.2692  0.8462
  733MOL0     C98869   9.293   3.430  -0.939  0.5332  0.3722  0.6267
  733MOL0     C98870   9.167   3.476  -0.970 -0.4667  0.5690  1.0274
  733MOL0     N98871   8.559   3.945  -0.906  0.5586 -0.1088  0.3017
  733MOL0     N98872   8.538   3.986  -0.782  0.2856 -0.5286 -0.3122
  733MOL0     C98873   8.702   4.431   0.276 -0.6626 -0.0020  0.4588
  733MOL0     C98874   8.760   4.434   0.406  0.7769  0.0396 -0.1283
  733MOL0     C98875   9.063   4.503   0.750 -0.7349 -0.3525  1.4446
  733MOL0     C98876   9.012   4.588   0.842  0.3499 -0.3891 -0.4129
  733MOL0     C98877   9.069   4.598   0.970  0.7581  0.1124 -0.4286
  733MOL0     C98878   9.173   4.506   1.007  0.1813 -0.2846 -0.4751
  733MOL0     O98879   9.220   4.495   1.132  0.1718 -0.3432 -0.5862
  733MOL0     C98880   9.166   4.575   1.234 -0.1461 -0.0060 -0.4521
  733MOL0     C98881   9.241   4.556   1.362  0.5721 -0.1442  0.1241
  733MOL0     C98882   9.165   4.476   1.468 -0.6752 -0.0573  1.2223
  733MOL0     C98883   9.153   4.325   1.461  0.2572  0.0923  0.7211
  733MOL0     C98884   9.057   4.291   1.352 -0.1740 -0.9070  0.3988
  733MOL0     C98885   8.978   4.265   1.262  0.8880  0.0444 -0.4347
  733MOL0     C98886   9.220   4.413   0.910  0.2630 -0.5948 -0.3062
  733MOL0     C98887   9.164   4.415   0.784 -0.7300  1.1836  0.2335
  733MOL0     H98888   8.908   4.739   0.398 -1.6280  0.4333  1.0151
  733MOL0     H98889   8.832   4.732   0.173 -2.6601 -0.0434 -1.3935
  733MOL0     H98890   8.779   4.431  -0.029 -1.1032 -4.0750 -4.2391
  733MOL0     H98891   8.617   4.388   0.002 -0.9532  1.0200 -0.1183
  733MOL0     H98892   8.569   4.630  -0.123 -3.7003 -2.6076 -1.1455
  733MOL0     H98893   8.737   4.625  -0.151 -1.2937  1.3774  3.1484
  733MOL0     H98894   8.539   4.427  -0.293  0.1233  0.7202 -3.5314
  733MOL0     H98895   8.648   4.551  -0.346 -2.7148  1.4411  1.0542
  733MOL0     H98896   8.847   4.396  -0.264  0.1008  2.1041 -0.0984
  733MOL0     H98897   8.729   4.298  -0.195 -0.0100  2.1303  2.3546
  733MOL0     H98898   8.620   4.260  -0.438 -2.8604  3.0945 -0.3502
  733MOL0     H98899   8.738   4.363  -0.508 -3.2049  0.8095  0.6441
  733MOL0     H98900   8.907   4.201  -0.388 -0.9436  0.7913  1.2499
  733MOL0     H98901   8.774   4.101  -0.333  0.5369 -2.3335 -1.1791
  733MOL0     H98902   8.827   4.164  -0.626 -3.8346  0.4646 -0.4931
  733MOL0     H98903   8.887   4.015  -0.550 -1.5982 -0.9162 -3.3468
  733MOL0     H98904   8.600   4.107  -0.579 -1.0044 -1.1935  1.6753
  733MOL0     H98905   8.633   3.949  -0.519 -0.6526  0.1438  0.0215
  733MOL0     H98906   8.856   3.875  -0.792  0.0577  0.1947  1.7399
  733MOL0     H98907   8.745   3.937  -1.127 -1.2901 -1.0942  0.4424
  733MOL0     H98908   8.869   3.863  -1.050 -0.2551  1.2803 -1.2716
  733MOL0     H98909   8.779   3.711  -1.198  1.2490 -0.1992  0.6299
  733MOL0     H98910   8.615   3.721  -1.119  0.3054  0.2776 -1.2706
  733MOL0     H98911   8.703   3.522  -1.057 -0.6349 -0.2997  0.0640
  733MOL0     H98912   8.707   3.618  -0.916 -0.1921  2.4430 -0.3147
  733MOL0     H98913   8.956   3.686  -0.982  0.3517 -0.7989 -0.4273
  733MOL0     H98914   8.938   3.573  -1.109  2.6365  1.9619  0.5567
  733MOL0     H98915   8.984   3.323  -0.722 -0.5893 -0.8981  0.0616
  733MOL0     H98916   9.311   3.242  -0.567 -0.5998  3.7470  1.5179
  733MOL0     H98917   9.139   3.250  -0.545  1.4323  0.0632  0.5496
  733MOL0     H98918   9.222   3.119  -0.647  2.1137 -0.5439  2.1170
  733MOL0     H98919   9.694   3.210  -0.971 -0.7641  1.6786  1.3655
  733MOL0     H98920   9.923   3.133  -0.938  2.4110 -0.1240  3.3960
  733MOL0     H98921  10.165   3.306  -0.608 -1.5863 -0.8580  1.3360
  733MOL0     H98922  10.087   3.171  -0.557 -2.1175  0.7352 -1.6322
  733MOL0     H98923  10.356   3.175  -0.690  1.9885 -0.7410  1.7028
  733MOL0     H98924  10.314   3.121  -0.524  1.8751 -1.7516 -0.8224
  733MOL0     H98925  10.276   2.962  -0.779 -0.8234  1.8678  0.5721
  733MOL0     H98926  10.171   2.927  -0.640  0.0264  0.1806  2.6349
  733MOL0     H98927  10.478   2.898  -0.655  1.3317 -1.6508  1.6290
  733MOL0     H98928  10.387   2.895  -0.506  1.8605  2.9161 -0.7872
  733MOL0     H98929  10.461   2.676  -0.615  1.7487  3.9372  2.2825
  733MOL0     H98930  10.325   2.699  -0.726 -2.1618  0.4473  1.1880
  733MOL0     H98931  10.300   2.667  -0.429  0.0198 -2.1668  0.8223
  733MOL0     H98932  10.166   2.695  -0.537 -0.2520 -1.5576 -0.6794
  733MOL0     H98933  10.345   2.453  -0.535 -0.6689  0.4890  3.5506
  733MOL0     H98934  10.213   2.473  -0.641 -0.4377 -0.3778  1.9693
  733MOL0     H98935  10.111   2.351  -0.481 -1.7932 -0.0847  1.3811
  733MOL0     H98936  10.066   2.505  -0.422  0.4318 -1.1006  2.8476
  733MOL0     H98937   9.953   3.406  -0.602 -0.5563  0.6746 -0.2034
  733MOL0     H98938   9.740   3.482  -0.636 -2.6102  1.1138 -1.5228
  733MOL0     H98939   9.370   3.473  -1.002  0.8181  0.2265  0.8715
  733MOL0     H98940   9.159   3.543  -1.054  1.2038  0.7396  0.9730
  733MOL0     H98941   8.639   4.351   0.236  0.4899 -1.1877  0.9286
  733MOL0     H98942   8.726   4.350   0.467  2.2678  0.8074  1.8515
  733MOL0     H98943   8.939   4.664   0.814 -0.5542 -1.0270  0.1921
  733MOL0     H98944   9.036   4.671   1.043 -1.1471 -2.8698  1.9094
  733MOL0     H98945   9.181   4.681   1.212  1.5791  0.3975  2.1958
  733MOL0     H98946   9.059   4.558   1.253 -0.3103 -0.3712 -1.6312
  733MOL0     H98947   9.270   4.653   1.404  0.8909  0.4263 -1.3339
  733MOL0     H98948   9.336   4.507   1.341 -0.2735 -1.1427 -1.5987
  733MOL0     H98949   9.061   4.509   1.464 -0.9199 -0.8432  1.0204
  733MOL0     H98950   9.212   4.510   1.561  2.5552 -1.7079  0.3247
  733MOL0     H98951   9.116   4.298   1.560  4.0150 -0.8261  2.0473
  733MOL0     H98952   9.249   4.278   1.438  2.0000  3.4110  0.5182
  733MOL0     H98953   8.904   4.231   1.193 -2.3071 -1.8371  3.4793
  733MOL0     H98954   9.277   4.331   0.954  0.5628 -0.1183  0.2105
  733MOL0     H98955   9.182   4.336   0.712 -1.1103 -0.7173  2.1269
  734MOL0     O98956  11.367   6.927   7.576 -0.3276 -0.1090 -0.2766
  734MOL0     C98957  11.408   6.912   7.691  0.2280 -0.0558 -0.2737
  734MOL0     O98958  11.512   6.966   7.749 -0.6634  0.4296 -0.0336
  734MOL0     C98959  11.563   7.070   7.666 -0.6401 -0.4973 -0.6776
  734MOL0     C98960  11.505   7.194   7.648 -1.3070  0.2168  0.9132
  734MOL0     C98961  11.578   7.290   7.575 -0.9472 -0.1292  0.0194
  734MOL0     C98962  11.693   7.265   7.502 -0.1765  0.4133 -0.4136
  734MOL0     O98963  11.743   7.363   7.422 -0.0522  0.5985  0.0844
  734MOL0     C98964  11.855   7.336   7.338  0.1986 -0.6640  0.2210
  734MOL0     C98965  11.929   7.469   7.290  0.7367 -0.2450  0.3673
  734MOL0     C98966  11.946   7.582   7.393  0.6278 -0.1258  0.0704
  734MOL0     C98967  12.034   7.552   7.511 -0.1413 -0.2148 -0.5419
  734MOL0     C98968  12.182   7.533   7.472 -0.8170 -0.9581  0.4215
  734MOL0     C98969  12.283   7.524   7.588 -0.4098 -0.5825  1.3146
  734MOL0     C98970  12.414   7.465   7.556  0.1353  0.5019 -0.4211
  734MOL0     C98971  12.492   7.540   7.448  1.7298 -0.2983 -0.5601
  734MOL0     N98972  12.562   7.657   7.509 -0.0096 -0.5083  0.7622
  734MOL0     C98973  12.596   7.764   7.446 -0.2823 -0.4735  0.2413
  734MOL0     C98974  12.657   7.845   7.530 -0.9122 -0.3577 -0.4107
  734MOL0     C98975  12.717   7.984   7.489 -0.2734  0.2622  0.1522
  734MOL0     C98976  12.855   8.007   7.547 -0.2689  0.4085  0.0076
  734MOL0     C98977  12.942   8.127   7.490  0.2158 -0.5428  0.6224
  734MOL0     C98978  12.905   8.266   7.553  0.0696  1.2941 -0.0588
  734MOL0     O98979  12.957   8.380   7.491  0.6332 -0.3518  0.0228
  734MOL0     C98980  12.934   8.406   7.358  0.2096 -0.8952 -0.0820
  734MOL0     C98981  12.813   8.363   7.299 -0.5777 -0.4280  0.6039
  734MOL0     C98982  12.779   8.390   7.164 -0.0306 -1.0745 -0.0615
  734MOL0     C98983  12.633   8.354   7.117 -0.3396 -0.1915 -0.0421
  734MOL0     C98984  12.874   8.468   7.086 -0.9961 -0.0101 -0.2419
  734MOL0     C98985  12.862   8.514   6.947 -0.4970  0.4382 -0.2553
  734MOL0     O98986  12.960   8.596   6.897 -1.1402  0.5139 -0.0711
  734MOL0     C98987  12.973   8.599   6.762  0.4312  0.1144  0.0691
  734MOL0     C98988  13.052   8.502   6.708 -0.1682 -0.4525 -0.1825
  734MOL0     C98989  13.089   8.506   6.567  0.0584  0.2629  0.7890
  734MOL0     C98990  13.043   8.612   6.485  0.1564  0.3499  0.2544
  734MOL0     O98991  13.058   8.619   6.344 -0.6100  0.2965  0.1881
  734MOL0     C98992  13.134   8.519   6.277  0.4340  0.5833 -0.6544
  734MOL0     C98993  13.146   8.551   6.127  0.5419 -0.2781 -0.0231
  734MOL0     C98994  13.002   8.540   6.065 -0.1191  0.5989 -0.7275
  734MOL0     C98995  12.995   8.568   5.914  0.1398  0.6332  0.6501
  734MOL0     C98996  12.849   8.581   5.856  0.2929 -0.5849 -0.1319
  734MOL0     C98997  12.841   8.590   5.695 -0.1078 -0.5016 -1.0491
  734MOL0     C98998  12.878   8.451   5.639 -0.7940  0.8134  0.2808
  734MOL0     C98999  12.768   8.344   5.649  0.0519  0.2325 -0.1084
  734MOL0    Cl99000  12.609   8.383   5.591  0.2824  0.6667 -0.4022
  734MOL0     C99001  12.945   8.705   6.549 -0.5400 -1.0392  0.2486
  734MOL0     C99002  12.907   8.697   6.679  0.0389  0.1610 -0.4011
  734MOL0     O99003  12.764   8.483   6.884 -0.1746 -0.5726 -0.1599
  734MOL0     C99004  12.993   8.510   7.150  0.3053 -0.3139 -0.7210
  734MOL0     C99005  13.019   8.481   7.282 -0.3542 -0.7887  0.0518
  734MOL0     N99006  12.668   7.777   7.644  0.3607  0.8128 -0.8124
  734MOL0     N99007  12.612   7.659   7.632 -0.0233  0.2535  0.4998
  734MOL0     C99008  11.753   7.140   7.522 -0.5258  0.0998 -0.0792
  734MOL0     C99009  11.696   7.050   7.613  1.1131  0.4807 -1.0919
  734MOL0     C99010  11.307   6.839   7.775  0.5892  0.2690  0.0172
  734MOL0     C99011  11.345   6.784   7.896 -0.5788 -0.6823  0.8705
  734MOL0     C99012  11.249   6.713   7.972 -0.8339  0.2203  0.0126
  734MOL0     C99013  11.108   6.712   7.939 -0.6406  0.2483 -0.1576
  734MOL0     O99014  11.029   6.647   8.034  0.5449  0.5039  0.6390
  734MOL0     C99015  10.886   6.672   8.031 -0.1912 -0.0735 -0.1396
  734MOL0     C99016  10.821   6.585   8.139  0.0074  0.8469  0.3902
  734MOL0     C99017  10.869   6.606   8.284  0.4444  0.0377 -0.2072
  734MOL0     C99018  10.826   6.736   8.359  0.6391 -0.7220  0.4486
  734MOL0     C99019  10.704   6.693   8.421 -0.0612 -0.7727 -0.5525
  734MOL0     C99020  10.602   6.657   8.470  0.3227 -0.7113  0.8506
  734MOL0     C99021  11.070   6.781   7.824 -0.6383  0.7037  0.0919
  734MOL0     C99022  11.170   6.835   7.738  0.2470 -0.6077 -0.1694
  734MOL0     H99023  11.406   7.219   7.686 -1.7093  0.2913 -0.1675
  734MOL0     H99024  11.526   7.385   7.580  2.2499  1.7255  0.3576
  734MOL0     H99025  11.936   7.273   7.376 -0.9282 -2.4768 -0.2979
  734MOL0     H99026  11.822   7.285   7.247 -1.0298  0.1165  0.2016
  734MOL0     H99027  12.022   7.439   7.241 -2.0731 -0.5478 -5.7561
  734MOL0     H99028  11.879   7.530   7.214  0.9562  0.1313  0.5210
  734MOL0     H99029  11.976   7.671   7.338 -0.9148 -0.1378 -0.8448
  734MOL0     H99030  11.846   7.616   7.423 -0.1465 -1.3228 -1.0752
  734MOL0     H99031  12.008   7.639   7.573  1.3690 -0.8505  1.0871
  734MOL0     H99032  12.005   7.466   7.573  1.6603  0.8805  1.9980
  734MOL0     H99033  12.190   7.449   7.402  2.5300  1.4333 -2.4262
  734MOL0     H99034  12.214   7.620   7.414 -0.1074 -2.4552 -1.5476
  734MOL0     H99035  12.291   7.618   7.642  3.1948 -2.6720  4.9837
  734MOL0     H99036  12.247   7.453   7.664 -1.3966 -3.9205 -1.9908
  734MOL0     H99037  12.469   7.464   7.651 -1.9648 -3.5970  1.0096
  734MOL0     H99038  12.419   7.360   7.528  2.3557  0.8128 -1.3803
  734MOL0     H99039  12.423   7.575   7.370 -0.3291  1.7171  2.0092
  734MOL0     H99040  12.553   7.471   7.388 -2.0139 -1.1841 -3.7657
  734MOL0     H99041  12.584   7.786   7.340 -3.3743 -4.7269 -0.5436
  734MOL0     H99042  12.724   7.994   7.381 -6.1400  0.3034 -0.5436
  734MOL0     H99043  12.643   8.053   7.532  0.4553  0.3097  1.3679
  734MOL0     H99044  12.913   7.915   7.544  0.7380  0.7624  3.6946
  734MOL0     H99045  12.851   8.028   7.654 -1.0786 -0.7999  0.2230
  734MOL0     H99046  12.920   8.138   7.384  2.1599  2.8829  0.4327
  734MOL0     H99047  13.046   8.093   7.498  1.9019  3.9415  0.7621
  734MOL0     H99048  12.952   8.270   7.652  1.3003  2.7245 -0.6620
  734MOL0     H99049  12.799   8.260   7.580  0.2906  1.5392  0.9201
  734MOL0     H99050  12.739   8.309   7.357 -1.4657 -1.2288 -1.1980
  734MOL0     H99051  12.568   8.441   7.105 -1.9470 -1.1750  1.1600
  734MOL0     H99052  12.633   8.298   7.023  0.9489 -1.8080  0.8695
  734MOL0     H99053  12.588   8.275   7.178 -0.0820  0.3049  0.8061
  734MOL0     H99054  13.093   8.424   6.772  0.1653  2.3572  3.3359
  734MOL0     H99055  13.150   8.426   6.527  1.8829  2.3106 -0.8294
  734MOL0     H99056  13.237   8.526   6.311  0.5971 -2.7143 -0.1690
  734MOL0     H99057  13.095   8.417   6.274 -1.7127  1.2981  0.9401
  734MOL0     H99058  13.185   8.652   6.107 -3.4407  2.2050  3.0339
  734MOL0     H99059  13.222   8.485   6.084 -0.1513 -1.0693 -0.0549
  734MOL0     H99060  12.951   8.622   6.116  1.1030 -1.6441  4.9694
  734MOL0     H99061  12.951   8.442   6.067 -0.6719  0.8184  2.6484
  734MOL0     H99062  13.049   8.662   5.900  0.7638  0.9789  4.3184
  734MOL0     H99063  13.057   8.503   5.852  1.1831  2.2652 -0.0651
  734MOL0     H99064  12.803   8.670   5.898  0.8172 -0.0429 -0.6807
  734MOL0     H99065  12.795   8.491   5.886  0.9487 -1.6339 -1.9087
  734MOL0     H99066  12.744   8.621   5.656 -0.4627 -2.2457 -1.6378
  734MOL0     H99067  12.919   8.653   5.651  2.0652 -3.0066 -1.0368
  734MOL0     H99068  12.965   8.401   5.684 -0.6893 -3.1836 -3.7007
  734MOL0     H99069  12.908   8.460   5.534 -2.5679  0.6411 -0.2662
  734MOL0     H99070  12.761   8.320   5.755  1.6233  3.0935  0.7565
  734MOL0     H99071  12.798   8.251   5.600 -0.3110 -0.2360  0.5553
  734MOL0     H99072  12.900   8.783   6.488  2.2030 -0.1324 -0.7810
  734MOL0     H99073  12.840   8.769   6.725  0.4226 -1.5174  3.0983
  734MOL0     H99074  13.051   8.589   7.104  1.0223  0.9612  2.1441
  734MOL0     H99075  13.106   8.529   7.328 -1.2542 -0.1251  1.1191
  734MOL0     H99076  11.847   7.111   7.474 -0.5249 -0.9768  0.5436
  734MOL0     H99077  11.735   6.953   7.642  1.2490  1.0177  0.6285
  734MOL0     H99078  11.449   6.794   7.923 -0.7604 -0.1437  1.4053
  734MOL0     H99079  11.294   6.665   8.058  1.4626  2.7419  0.3727
  734MOL0     H99080  10.874   6.777   8.056 -1.6512 -0.3289  0.3379
  734MOL0     H99081  10.851   6.659   7.928 -0.1094 -0.9734 -0.0699
  734MOL0     H99082  10.841   6.479   8.125  0.0291  0.9503 -0.4169
  734MOL0     H99083  10.713   6.606   8.140 -0.6997 -2.2023  2.8780
  734MOL0     H99084  10.979   6.610   8.287  0.4419  1.0297  3.7232
  734MOL0     H99085  10.827   6.525   8.344  1.1962 -0.4565 -0.3361
  734MOL0     H99086  10.797   6.814   8.288  1.4574 -1.3980 -0.6533
  734MOL0     H99087  10.904   6.767   8.430  2.3344  0.5927 -1.8520
  734MOL0     H99088  10.509   6.620   8.507 -0.6594 -0.9138 -1.5839
  734MOL0     H99089  10.966   6.785   7.794 -0.5458 -1.3469 -0.6447
  734MOL0     H99090  11.147   6.891   7.648  0.7894  2.0719  1.2355
  735MOL0     O99091   1.652   1.953   4.220  0.0242 -0.4084 -0.7158
  735MOL0     C99092   1.760   1.980   4.168 -0.3240 -0.3638  0.3505
  735MOL0     O99093   1.875   2.013   4.226 -0.7562  0.6912 -0.3433
  735MOL0     C99094   1.906   1.979   4.358  0.0127  0.6439 -0.0729
  735MOL0     C99095   1.922   2.082   4.448 -0.8435  0.3312 -0.0003
  735MOL0     C99096   1.956   2.055   4.580  0.1242  0.2669 -0.5803
  735MOL0     C99097   1.967   1.926   4.636 -0.5216  0.5552 -0.0698
  735MOL0     O99098   2.002   1.918   4.769  0.3917 -0.2428  0.2487
  735MOL0     C99099   1.986   1.783   4.835 -0.0502 -0.3813  1.0984
  735MOL0     C99100   1.959   1.793   4.988  0.0923  0.4071  0.0716
  735MOL0     C99101   2.088   1.767   5.064  1.3567  0.7884 -0.8933
  735MOL0     C99102   2.050   1.774   5.212 -0.4931  0.2606 -0.0869
  735MOL0     C99103   2.160   1.742   5.309 -0.4611  0.3871 -0.5744
  735MOL0     C99104   2.239   1.863   5.349 -0.3681  0.0039 -0.1083
  735MOL0     C99105   2.285   1.971   5.243  1.1053  1.7395  0.4736
  735MOL0     C99106   2.404   2.047   5.281 -0.0417  0.1458 -0.0717
  735MOL0     N99107   2.408   2.088   5.421 -0.6788 -0.6347  0.5301
  735MOL0     C99108   2.347   2.202   5.476 -0.4977  0.1620  0.1997
  735MOL0     C99109   2.400   2.234   5.590 -0.7042  0.0976 -0.1590
  735MOL0     C99110   2.366   2.345   5.684 -0.1219 -0.1109  0.6735
  735MOL0     C99111   2.469   2.386   5.788  0.0364  0.0131 -0.3245
  735MOL0     C99112   2.527   2.269   5.871  0.2200  0.7925  0.1379
  735MOL0     C99113   2.414   2.206   5.945  0.1003 -0.8765 -0.3599
  735MOL0     O99114   2.443   2.191   6.080  0.0726 -0.0481 -0.1717
  735MOL0     C99115   2.372   2.109   6.168  0.8766 -0.4461  0.2332
  735MOL0     C99116   2.265   2.015   6.134  0.4132  0.4514 -1.0571
  735MOL0     C99117   2.204   1.941   6.242  1.2162 -1.0188  0.5407
  735MOL0     C99118   2.089   1.843   6.208 -0.9295  0.5853 -0.3298
  735MOL0     C99119   2.240   1.975   6.373 -0.1677 -0.0963 -0.2778
  735MOL0     C99120   2.179   1.916   6.489  0.3130 -0.1188  1.1712
  735MOL0     O99121   2.266   1.869   6.590  0.1859  0.2289 -0.6574
  735MOL0     C99122   2.204   1.845   6.712  0.1307 -0.3761  0.3670
  735MOL0     C99123   2.193   1.945   6.811  1.2484 -0.8488 -0.2157
  735MOL0     C99124   2.119   1.914   6.930 -1.1541  0.0161 -0.0175
  735MOL0     C99125   2.053   1.791   6.941 -0.5858 -0.1869 -0.6558
  735MOL0     O99126   1.988   1.775   7.059 -0.2493  0.0081 -1.0002
  735MOL0     C99127   1.905   1.656   7.071  0.3691 -0.3124  1.5326
  735MOL0     C99128   1.774   1.666   6.987  0.4171  0.2483  0.4342
  735MOL0     C99129   1.666   1.753   7.048  0.6231 -0.4746  0.3559
  735MOL0     C99130   1.525   1.725   6.995 -0.2315  0.1718 -0.0445
  735MOL0     C99131   1.411   1.810   7.058 -0.1134  0.4159  0.8403
  735MOL0     C99132   1.378   1.771   7.208  0.2209  0.8242  0.1357
  735MOL0     C99133   1.299   1.629   7.198  0.0041 -0.0911  0.4480
  735MOL0     C99134   1.242   1.568   7.319  0.2933 -0.3331  0.2115
  735MOL0    Cl99135   1.119   1.672   7.409  0.4005  0.4319  0.0538
  735MOL0     C99136   2.064   1.694   6.838  0.4277  0.4129  0.0394
  735MOL0     C99137   2.136   1.719   6.723  0.0409 -0.2438  0.0563
  735MOL0     O99138   2.056   1.908   6.489 -0.0891 -0.2453  0.8116
  735MOL0     C99139   2.337   2.074   6.402  0.1875  1.2269 -0.7039
  735MOL0     C99140   2.405   2.133   6.299 -0.3325 -0.6942 -0.2000
  735MOL0     N99141   2.492   2.130   5.614 -0.3724 -0.3472  0.0387
  735MOL0     N99142   2.489   2.039   5.522 -0.4089 -0.6294  0.5387
  735MOL0     C99143   1.946   1.827   4.542 -0.1923  0.7736 -0.5143
  735MOL0     C99144   1.914   1.843   4.411 -0.0136 -1.1906 -0.9083
  735MOL0     C99145   1.769   1.981   4.024 -0.8265  0.3691  0.2566
  735MOL0     C99146   1.656   2.024   3.952 -0.0257  0.4663 -0.6258
  735MOL0     C99147   1.654   2.032   3.813  0.0495  0.2914  0.3145
  735MOL0     C99148   1.764   1.994   3.736 -0.5672 -0.7352  0.6442
  735MOL0     O99149   1.757   1.973   3.602  0.4416 -1.3527  0.8268
  735MOL0     C99150   1.681   2.067   3.523 -0.6397  0.4201  0.6469
  735MOL0     C99151   1.699   2.062   3.371 -0.0263  0.5725 -0.2112
  735MOL0     C99152   1.622   2.175   3.309  0.2221 -0.0785  0.1582
  735MOL0     C99153   1.621   2.172   3.157  0.0181 -0.0895 -0.6885
  735MOL0     C99154   1.748   2.155   3.093  0.4932 -0.4955 -0.1196
  735MOL0     C99155   1.867   2.144   3.069 -0.5343  0.9069  0.4597
  735MOL0     C99156   1.884   1.966   3.803 -0.2188  0.0850  1.1151
  735MOL0     C99157   1.889   1.965   3.948 -0.1249 -0.2484  0.3237
  735MOL0     H99158   1.915   2.187   4.421  0.0749  0.8559  1.6862
  735MOL0     H99159   1.960   2.140   4.647 -3.5372 -1.3439  2.1003
  735MOL0     H99160   1.910   1.723   4.784  0.5386  1.0888 -1.6933
  735MOL0     H99161   2.082   1.731   4.825  2.2991  3.4755  1.5442
  735MOL0     H99162   1.913   1.888   5.016  1.3614  1.1714 -0.3574
  735MOL0     H99163   1.896   1.705   5.008 -0.5812  0.8131 -0.2405
  735MOL0     H99164   2.116   1.666   5.033 -1.9155  0.2572 -2.5100
  735MOL0     H99165   2.170   1.839   5.052  1.1582  1.2266  0.2091
  735MOL0     H99166   2.023   1.878   5.235  2.8735  1.2936 -0.2924
  735MOL0     H99167   1.968   1.703   5.225  0.7117 -1.3079 -0.8083
  735MOL0     H99168   2.113   1.686   5.390 -2.7598 -0.2515 -2.2666
  735MOL0     H99169   2.226   1.666   5.265 -0.3979  0.3756 -0.4602
  735MOL0     H99170   2.178   1.910   5.426  0.4987  1.0475 -0.0348
  735MOL0     H99171   2.330   1.840   5.407 -0.4424 -1.1397 -0.4109
  735MOL0     H99172   2.320   1.910   5.159 -0.2730 -1.1637  1.8588
  735MOL0     H99173   2.216   2.055   5.230 -0.3984  0.3763 -0.8182
  735MOL0     H99174   2.414   2.136   5.219  3.6018  0.2588  0.4257
  735MOL0     H99175   2.492   1.984   5.262  1.3687  1.0359  2.8939
  735MOL0     H99176   2.268   2.266   5.440  1.9891  3.0485 -0.5520
  735MOL0     H99177   2.354   2.438   5.628 -0.6127 -0.2424  0.5537
  735MOL0     H99178   2.271   2.328   5.736  0.4532  0.5166  1.9740
  735MOL0     H99179   2.427   2.452   5.863  0.2947 -2.8702  2.5904
  735MOL0     H99180   2.552   2.431   5.732 -1.9319 -0.9145 -4.3494
  735MOL0     H99181   2.594   2.315   5.944 -1.4267 -0.0639  2.3100
  735MOL0     H99182   2.583   2.189   5.821  0.3920 -0.1891  1.8015
  735MOL0     H99183   2.393   2.104   5.910 -3.2919 -1.6260  3.1530
  735MOL0     H99184   2.327   2.270   5.932  2.2365  1.7864 -2.8844
  735MOL0     H99185   2.226   2.018   6.032  0.9669  1.1857 -1.2545
  735MOL0     H99186   2.080   1.837   6.099 -4.3040  1.9453 -0.2565
  735MOL0     H99187   2.124   1.745   6.241 -3.4329 -1.1535 -2.4926
  735MOL0     H99188   1.993   1.869   6.256 -0.2731  1.6346  0.4776
  735MOL0     H99189   2.238   2.043   6.795  0.7910 -0.6093 -0.0663
  735MOL0     H99190   2.101   1.983   7.012 -0.4858 -0.6681  0.7174
  735MOL0     H99191   1.957   1.564   7.041 -0.1805  0.2017 -1.3022
  735MOL0     H99192   1.876   1.651   7.176  0.5813 -3.3340  1.5507
  735MOL0     H99193   1.799   1.722   6.897 -2.7731 -1.5737 -1.7735
  735MOL0     H99194   1.753   1.562   6.959 -0.3464  0.1161  1.4235
  735MOL0     H99195   1.700   1.854   7.022 -0.5030 -0.2627 -0.3525
  735MOL0     H99196   1.667   1.743   7.157 -1.6820 -1.7894  0.3111
  735MOL0     H99197   1.522   1.749   6.888 -3.6417  1.1305  0.1628
  735MOL0     H99198   1.499   1.619   7.000  0.5350 -0.1415 -1.9675
  735MOL0     H99199   1.328   1.797   6.988  2.0842  2.5362 -2.4595
  735MOL0     H99200   1.426   1.918   7.051 -0.0945  0.3736  0.1277
  735MOL0     H99201   1.475   1.755   7.257  0.1416 -2.8725 -0.6298
  735MOL0     H99202   1.306   1.836   7.258  1.5064  0.3638  2.7511
  735MOL0     H99203   1.367   1.551   7.164 -0.2749 -0.8617  1.5939
  735MOL0     H99204   1.221   1.641   7.122  0.5090 -3.2924 -0.7245
  735MOL0     H99205   1.328   1.541   7.381  0.9412  2.0964  0.4785
  735MOL0     H99206   1.188   1.477   7.289  0.0214 -0.3860  0.8557
  735MOL0     H99207   2.005   1.603   6.837 -1.3895  1.4804  2.2090
  735MOL0     H99208   2.132   1.640   6.649 -2.1445 -2.7759  2.6304
  735MOL0     H99209   2.368   2.102   6.502  1.2355 -0.5382 -0.4842
  735MOL0     H99210   2.487   2.198   6.330 -0.4604 -0.8246  0.4418
  735MOL0     H99211   1.953   1.724   4.577  2.5542  1.6208  1.8145
  735MOL0     H99212   1.896   1.761   4.343  1.5903 -0.8654 -1.7862
  735MOL0     H99213   1.571   2.068   4.003  0.8945  3.0788 -1.1453
  735MOL0     H99214   1.560   2.064   3.768  0.3801  1.5543  0.4883
  735MOL0     H99215   1.571   2.065   3.530 -0.7195  2.4181  0.7414
  735MOL0     H99216   1.714   2.169   3.546  1.7295 -0.2883  0.5427
  735MOL0     H99217   1.672   1.965   3.329 -2.6304  0.0123  2.4027
  735MOL0     H99218   1.804   2.084   3.351  0.1461 -1.1670 -1.4467
  735MOL0     H99219   1.668   2.267   3.345 -0.8856  0.2621  0.7392
  735MOL0     H99220   1.517   2.172   3.340 -0.4477 -1.1348 -1.9920
  735MOL0     H99221   1.593   2.275   3.132  0.4186  0.8838  2.3389
  735MOL0     H99222   1.554   2.090   3.130  2.3002 -3.6827  3.3143
  735MOL0     H99223   1.972   2.141   3.050 -0.9349 -0.5859 -1.9527
  735MOL0     H99224   1.970   1.932   3.746 -1.9266 -2.4521 -0.1436
  735MOL0     H99225   1.978   1.917   3.986 -0.4649 -1.8882 -0.7904
  736MOL0     O99226   8.973   7.477   7.529  0.1430  0.5975  0.5039
  736MOL0     C99227   9.072   7.414   7.516  0.3421  0.1027  0.5769
  736MOL0     O99228   9.117   7.319   7.595 -0.3459 -0.4042  0.0578
  736MOL0     C99229   9.050   7.294   7.709 -0.2374  1.2141  1.0140
  736MOL0     C99230   8.943   7.211   7.696  0.4516 -0.5263  0.1077
  736MOL0     C99231   8.882   7.157   7.814 -0.3921  0.5901  0.0090
  736MOL0     C99232   8.931   7.201   7.933 -0.5887 -1.4637  1.5746
  736MOL0     O99233   8.869   7.172   8.052  0.7985 -0.0446  0.3099
  736MOL0     C99234   8.801   7.047   8.083  0.3670 -0.6435  0.4857
  736MOL0     C99235   8.793   7.010   8.226  0.9481 -0.7233 -1.1932
  736MOL0     C99236   8.737   7.127   8.312 -0.8980  0.9111  0.1864
  736MOL0     C99237   8.618   7.084   8.402  0.1207  0.1261  0.0045
  736MOL0     C99238   8.600   7.180   8.522 -0.8793  0.8898 -0.5819
  736MOL0     C99239   8.679   7.129   8.643 -0.2402 -0.4859 -0.2515
  736MOL0     C99240   8.685   7.246   8.744  0.6994  1.1493  2.0862
  736MOL0     C99241   8.707   7.199   8.881 -0.7622 -0.5072  0.4219
  736MOL0     N99242   8.696   7.321   8.969 -1.3005 -0.9550  0.0861
  736MOL0     C99243   8.780   7.432   8.983  0.0097  0.0197  0.5234
  736MOL0     C99244   8.719   7.513   9.078  0.4189 -0.9177  0.0491
  736MOL0     C99245   8.774   7.645   9.125  0.3743 -0.1809  0.4234
  736MOL0     C99246   8.829   7.638   9.269  0.3080  0.3499 -0.3210
  736MOL0     C99247   8.867   7.775   9.326  0.2271  0.6351  0.3873
  736MOL0     C99248   8.913   7.745   9.471  0.3771  0.3128  0.2708
  736MOL0     O99249   8.797   7.721   9.553 -0.0581  0.4332  0.0898
  736MOL0     C99250   8.713   7.821   9.601 -0.3400  0.2835 -0.2214
  736MOL0     C99251   8.723   7.959   9.581  0.1425  0.3362  0.6948
  736MOL0     C99252   8.619   8.053   9.613  0.1456  1.3824 -0.2088
  736MOL0     C99253   8.648   8.197   9.581  0.1563  0.0249 -0.4376
  736MOL0     C99254   8.501   8.001   9.660 -0.2433 -0.5721 -1.1645
  736MOL0     C99255   8.386   8.088   9.696 -0.2071 -0.3326 -0.3850
  736MOL0     O99256   8.347   8.073   9.829 -0.2172 -1.2927 -0.0265
  736MOL0     C99257   8.272   8.177   9.889 -0.0648  0.7482 -0.0429
  736MOL0     C99258   8.132   8.176   9.879  0.1093  0.8154  0.2851
  736MOL0     C99259   8.047   8.273   9.939  1.2011  1.3330 -0.8290
  736MOL0     C99260   8.116   8.367  10.022 -1.1407  0.9450  0.5786
  736MOL0     O99261   8.054   8.467  10.091  0.2095  0.0500  0.5572
  736MOL0     C99262   8.040   8.446  10.234  0.6586 -0.5314 -0.3117
  736MOL0     C99263   7.914   8.539  10.281  0.6730  0.1586  0.6433
  736MOL0     C99264   7.895   8.535  10.438  0.0293  0.4401  0.4673
  736MOL0     C99265   7.797   8.636  10.489 -0.1053  0.0059  0.1897
  736MOL0     C99266   7.801   8.653  10.642 -0.7778 -0.1007  0.9250
  736MOL0     C99267   7.764   8.523  10.719 -0.9079 -0.3318 -0.4268
  736MOL0     C99268   7.718   8.563  10.865  0.8356 -0.4712 -0.3005
  736MOL0     C99269   7.625   8.462  10.930  0.1182  0.1768 -0.6051
  736MOL0    Cl99270   7.630   8.462  11.112  0.1275 -0.9109 -0.0128
  736MOL0     C99271   8.253   8.360  10.043 -0.1375  0.5425  0.0837
  736MOL0     C99272   8.329   8.262   9.983  0.4429 -0.4153 -0.1012
  736MOL0     O99273   8.324   8.156   9.614 -0.2762 -0.7800  0.5115
  736MOL0     C99274   8.491   7.870   9.697  0.5768  0.7333  0.8953
  736MOL0     C99275   8.592   7.781   9.667  0.1148  0.3736 -1.2600
  736MOL0     N99276   8.600   7.454   9.117  0.6997  0.8087  0.8948
  736MOL0     N99277   8.595   7.340   9.053 -1.1020  0.3810  0.2013
  736MOL0     C99278   9.030   7.294   7.941  0.0651 -0.4163 -0.1217
  736MOL0     C99279   9.096   7.340   7.828  0.3697  0.6138  0.5997
  736MOL0     C99280   9.147   7.437   7.388 -0.4123  0.6559  0.0586
  736MOL0     C99281   9.223   7.343   7.330  0.4147 -0.6676  0.0510
  736MOL0     C99282   9.268   7.358   7.193 -0.3419  1.2498 -0.3240
  736MOL0     C99283   9.275   7.488   7.138 -0.7622  0.3402  0.2050
  736MOL0     O99284   9.340   7.496   7.013 -0.4129 -0.1885 -0.6528
  736MOL0     C99285   9.398   7.622   6.967  0.1147 -0.4647 -0.8169
  736MOL0     C99286   9.298   7.681   6.859 -0.7088  0.2052  0.5269
  736MOL0     C99287   9.331   7.814   6.809  0.7109  0.2978  0.4453
  736MOL0     C99288   9.327   7.922   6.908  0.1037  0.5615 -0.1277
  736MOL0     C99289   9.454   7.945   6.982 -1.0659 -0.0170  0.1092
  736MOL0     C99290   9.562   7.949   7.039  0.1994  1.3031 -0.1671
  736MOL0     C99291   9.216   7.586   7.208  0.5142 -0.0452 -0.5851
  736MOL0     C99292   9.149   7.563   7.330  0.1866  1.4140 -0.2848
  736MOL0     H99293   8.911   7.176   7.598  0.7191 -3.7201  1.0513
  736MOL0     H99294   8.798   7.089   7.806  0.2393 -0.0006 -2.6456
  736MOL0     H99295   8.702   7.063   8.040  0.5998  0.6054  0.3794
  736MOL0     H99296   8.838   6.960   8.029  2.2264 -0.8435  1.9965
  736MOL0     H99297   8.718   6.933   8.245 -0.7852  1.7446  3.8901
  736MOL0     H99298   8.893   6.986   8.264 -0.1149 -1.3430  1.4387
  736MOL0     H99299   8.812   7.180   8.372  0.5014 -1.4050  0.6059
  736MOL0     H99300   8.696   7.201   8.243 -0.8665 -1.1779 -2.1952
  736MOL0     H99301   8.530   7.072   8.338  1.4516  1.0743 -2.1118
  736MOL0     H99302   8.630   6.984   8.446 -3.4942 -1.7642 -2.6871
  736MOL0     H99303   8.634   7.283   8.507  4.7064 -0.2071  2.0432
  736MOL0     H99304   8.493   7.189   8.541 -0.9286  0.3551 -0.6051
  736MOL0     H99305   8.621   7.049   8.689  2.6833 -2.1167  0.9257
  736MOL0     H99306   8.780   7.099   8.611  1.5685  1.8843  2.7178
  736MOL0     H99307   8.750   7.330   8.717  0.6085 -0.2434 -3.9920
  736MOL0     H99308   8.584   7.288   8.736  0.5713  0.5594 -0.2906
  736MOL0     H99309   8.809   7.162   8.892 -0.6469 -0.3051  0.0419
  736MOL0     H99310   8.634   7.123   8.912 -0.2220 -1.2757 -0.1770
  736MOL0     H99311   8.873   7.444   8.929  0.5868 -1.8633  1.0042
  736MOL0     H99312   8.838   7.671   9.041 -0.8709 -0.1094 -0.5340
  736MOL0     H99313   8.691   7.716   9.132 -1.6794 -2.4887  1.3571
  736MOL0     H99314   8.918   7.575   9.269 -1.0071 -1.5889 -0.3507
  736MOL0     H99315   8.754   7.592   9.333 -0.4992 -1.1012 -2.2216
  736MOL0     H99316   8.781   7.843   9.328 -1.1817 -1.1011  1.2112
  736MOL0     H99317   8.945   7.811   9.258  2.2045 -1.0670  1.6549
  736MOL0     H99318   8.955   7.834   9.517  0.6062 -0.2003  1.0681
  736MOL0     H99319   8.969   7.651   9.476 -1.9333 -1.3058 -1.6516
  736MOL0     H99320   8.809   7.996   9.527 -0.3981  0.5976 -0.0037
  736MOL0     H99321   8.686   8.210   9.480 -0.9464 -0.0063 -0.8745
  736MOL0     H99322   8.557   8.258   9.592 -0.8397 -1.7560  2.2196
  736MOL0     H99323   8.722   8.227   9.655  0.5792 -0.8215 -0.5070
  736MOL0     H99324   8.083   8.111   9.808 -0.8597  0.9956  0.7526
  736MOL0     H99325   7.941   8.270   9.917  1.1850 -0.3519 -0.6201
  736MOL0     H99326   8.022   8.339  10.246 -1.0501 -0.3257 -0.8302
  736MOL0     H99327   8.134   8.471  10.285 -0.4606 -4.3536  4.3499
  736MOL0     H99328   7.934   8.644  10.261  0.5732  0.1056  0.2543
  736MOL0     H99329   7.826   8.505  10.225  0.0348  1.4890  0.8063
  736MOL0     H99330   7.994   8.555  10.481  0.0074  3.6219 -0.7271
  736MOL0     H99331   7.871   8.432  10.467 -0.1348 -0.5374 -2.7466
  736MOL0     H99332   7.814   8.737  10.452 -2.6052  0.8447  1.1538
  736MOL0     H99333   7.693   8.611  10.468 -0.4504  0.0534  1.7164
  736MOL0     H99334   7.729   8.734  10.654 -0.2532  0.6260 -0.5611
  736MOL0     H99335   7.900   8.682  10.677 -0.7870 -1.1323  1.8685
  736MOL0     H99336   7.676   8.483  10.667  0.5563 -3.1708 -0.8778
  736MOL0     H99337   7.848   8.453  10.714  0.2517  1.1073 -2.7445
  736MOL0     H99338   7.669   8.660  10.872  1.7509 -0.1252  3.3718
  736MOL0     H99339   7.799   8.580  10.936 -0.9421  1.6394  1.3286
  736MOL0     H99340   7.656   8.370  10.881  1.6381  1.2690 -1.7996
  736MOL0     H99341   7.520   8.483  10.909 -1.5994 -3.4625  3.0159
  736MOL0     H99342   8.304   8.428  10.111  1.0786  0.9468 -1.1972
  736MOL0     H99343   8.437   8.275   9.986  0.2567  2.0316  4.1176
  736MOL0     H99344   8.402   7.829   9.742 -0.1143  0.4213 -0.6728
  736MOL0     H99345   8.579   7.676   9.688  3.3548  0.2772  0.7891
  736MOL0     H99346   9.065   7.335   8.035  3.9512 -0.7228 -1.2600
  736MOL0     H99347   9.176   7.413   7.834 -0.4083  1.5889 -0.5839
  736MOL0     H99348   9.211   7.250   7.384  0.3648 -0.2124  0.8441
  736MOL0     H99349   9.300   7.266   7.145 -2.4425  1.3637 -2.1262
  736MOL0     H99350   9.406   7.677   7.062 -2.6587 -1.4475  0.0699
  736MOL0     H99351   9.502   7.596   6.944  0.6250  0.7786 -0.0580
  736MOL0     H99352   9.199   7.673   6.905 -0.7161 -0.9199  0.3557
  736MOL0     H99353   9.292   7.610   6.776 -4.2600  1.2075 -0.2648
  736MOL0     H99354   9.258   7.843   6.732 -2.5092 -0.9616  2.7849
  736MOL0     H99355   9.430   7.811   6.763  0.3616 -0.3908 -0.2994
  736MOL0     H99356   9.247   7.912   6.982  1.7376  0.9078  1.7654
  736MOL0     H99357   9.302   8.019   6.864 -1.5747  1.2472  2.1698
  736MOL0     H99358   9.661   7.923   7.070 -0.4374 -1.5624 -0.3317
  736MOL0     H99359   9.207   7.689   7.173  2.5815 -0.4411 -2.5339
  736MOL0     H99360   9.096   7.645   7.377  1.4586  1.9455  0.2693
  737MOL0     O99361   3.092   4.742   2.987  0.5052 -0.1008 -0.6137
  737MOL0     C99362   3.149   4.791   3.089 -0.1531  0.6756  0.5789
  737MOL0     O99363   3.143   4.733   3.214 -0.0909  0.8556 -0.3921
  737MOL0     C99364   3.101   4.601   3.215 -0.2480  0.0418 -0.5566
  737MOL0     C99365   2.968   4.572   3.244  1.0247  0.8663 -0.4306
  737MOL0     C99366   2.925   4.445   3.264  0.3630 -0.6494 -0.5781
  737MOL0     C99367   3.014   4.343   3.237 -0.6001  0.1641 -0.3713
  737MOL0     O99368   2.974   4.217   3.250  0.0317  0.0681 -0.1430
  737MOL0     C99369   2.959   4.151   3.125  0.0554  0.4194  0.3023
  737MOL0     C99370   2.825   4.189   3.063  0.3907  0.0874  0.3362
  737MOL0     C99371   2.724   4.119   3.159 -0.2478  0.2846 -0.2814
  737MOL0     C99372   2.580   4.096   3.101  0.2255 -0.3888 -0.6417
  737MOL0     C99373   2.518   4.220   3.029  0.4352 -0.0173  1.1342
  737MOL0     C99374   2.370   4.213   3.023 -0.1262  1.0002 -0.3106
  737MOL0     C99375   2.303   4.337   2.960 -1.0469  0.4130 -1.2134
  737MOL0     C99376   2.154   4.340   3.002  0.7378 -0.3437 -0.0044
  737MOL0     N99377   2.058   4.258   2.921 -0.0944 -0.2790 -1.2406
  737MOL0     C99378   2.031   4.128   2.949 -1.0502  0.4696  1.0711
  737MOL0     C99379   1.970   4.070   2.848 -0.2680 -0.2329  0.0149
  737MOL0     C99380   1.902   3.932   2.855  0.4657 -1.0461 -0.0024
  737MOL0     C99381   1.890   3.869   3.000 -0.2246 -0.8156  0.0957
  737MOL0     C99382   1.796   3.738   2.995 -0.5309 -0.7167 -0.5240
  737MOL0     C99383   1.650   3.762   3.040  0.5302  0.4608  0.6106
  737MOL0     O99384   1.572   3.636   3.035 -0.1151  0.0730  0.5233
  737MOL0     C99385   1.535   3.583   2.911  0.1938  0.5232  0.4189
  737MOL0     C99386   1.557   3.639   2.787  0.2594 -0.4475  0.0475
  737MOL0     C99387   1.508   3.581   2.670 -0.8590 -0.1017 -0.8667
  737MOL0     C99388   1.515   3.657   2.548 -0.9050  0.2241  0.2744
  737MOL0     C99389   1.456   3.445   2.671 -0.1921 -0.6950 -0.9275
  737MOL0     C99390   1.412   3.371   2.550  0.6173  1.4716  0.7890
  737MOL0     O99391   1.357   3.254   2.572 -0.1439  0.0216 -1.2707
  737MOL0     C99392   1.312   3.185   2.462  0.1164  0.0716 -0.2003
  737MOL0     C99393   1.187   3.214   2.413 -0.0501 -0.6075 -0.5356
  737MOL0     C99394   1.145   3.148   2.303  0.5121 -0.5496 -0.1744
  737MOL0     C99395   1.226   3.056   2.222 -0.5683 -0.3357 -0.0076
  737MOL0     O99396   1.168   2.995   2.115 -0.8817  0.1185  0.1035
  737MOL0     C99397   1.243   2.897   2.043  1.2747  0.7425 -0.5874
  737MOL0     C99398   1.172   2.846   1.920 -0.3572  0.0530 -0.0597
  737MOL0     C99399   1.082   2.943   1.860 -0.2346  0.1767 -0.2908
  737MOL0     C99400   1.020   2.897   1.740 -0.5361 -0.4177 -0.0468
  737MOL0     C99401   0.914   2.787   1.756  0.0955  0.2720 -0.1421
  737MOL0     C99402   0.869   2.726   1.622 -0.2611  0.6060 -0.7055
  737MOL0     C99403   0.742   2.637   1.640 -0.4015  0.4314 -0.9932
  737MOL0     C99404   0.661   2.603   1.515 -1.3889  0.4539  0.4088
  737MOL0    Cl99405   0.757   2.518   1.401  0.5334 -0.1939  0.2536
  737MOL0     C99406   1.364   3.043   2.269  0.7699 -0.7565 -0.2513
  737MOL0     C99407   1.399   3.096   2.398  0.9527 -0.8519 -0.3176
  737MOL0     O99408   1.425   3.408   2.434 -0.0680 -0.1709 -0.7255
  737MOL0     C99409   1.445   3.382   2.798  0.1215  1.1688 -0.0048
  737MOL0     C99410   1.485   3.450   2.912 -0.5116  0.0446 -0.8193
  737MOL0     N99411   1.950   4.165   2.754  0.3202 -0.3648  0.0816
  737MOL0     N99412   2.000   4.280   2.798 -0.1566 -0.3215  0.0807
  737MOL0     C99413   3.151   4.362   3.219 -0.4527  0.0425 -0.5360
  737MOL0     C99414   3.193   4.495   3.207 -0.7377 -0.6604  0.0684
  737MOL0     C99415   3.197   4.933   3.088  0.3945 -0.1280 -0.9813
  737MOL0     C99416   3.270   4.981   3.199  0.3494  0.1853  0.3210
  737MOL0     C99417   3.294   5.114   3.213 -0.5208  0.0152  0.7788
  737MOL0     C99418   3.251   5.206   3.111  0.4049  0.0168  0.1217
  737MOL0     O99419   3.266   5.343   3.145  0.2064  0.0255  0.7542
  737MOL0     C99420   3.193   5.440   3.070 -0.4786 -0.4984 -0.5096
  737MOL0     C99421   3.242   5.578   3.114 -0.6002  0.4513  0.0800
  737MOL0     C99422   3.182   5.620   3.252 -0.8791 -0.4503  0.2647
  737MOL0     C99423   3.294   5.712   3.312 -0.5769 -0.0303  0.0101
  737MOL0     C99424   3.239   5.803   3.418 -0.3716  0.5395  0.8211
  737MOL0     C99425   3.205   5.873   3.501 -0.2240 -0.6586 -0.3665
  737MOL0     C99426   3.196   5.155   2.991  0.1544  0.0064 -0.6906
  737MOL0     C99427   3.175   5.018   2.982  0.2279 -0.8145  0.2190
  737MOL0     H99428   2.901   4.657   3.238 -0.1182 -0.0962 -4.9348
  737MOL0     H99429   2.823   4.430   3.297  0.6139  2.3421  2.0369
  737MOL0     H99430   3.044   4.166   3.060  1.6686  2.4779  2.6935
  737MOL0     H99431   2.972   4.044   3.144  2.5002  0.1058 -2.4588
  737MOL0     H99432   2.813   4.298   3.061  3.5893  0.5967  1.4785
  737MOL0     H99433   2.815   4.142   2.965  1.1517  0.1035  0.2408
  737MOL0     H99434   2.746   4.019   3.196 -3.2830  0.4293  2.3893
  737MOL0     H99435   2.724   4.182   3.248  0.5747 -2.7379  2.0131
  737MOL0     H99436   2.567   4.014   3.030 -1.5234 -2.9930  2.4486
  737MOL0     H99437   2.524   4.075   3.193  2.9191 -0.2013  1.1456
  737MOL0     H99438   2.549   4.311   3.081  1.8093 -0.0580  0.4445
  737MOL0     H99439   2.562   4.242   2.931 -0.9037 -0.6267  0.3726
  737MOL0     H99440   2.326   4.131   2.967  3.0504 -1.0689 -0.0285
  737MOL0     H99441   2.333   4.189   3.123 -4.9133 -1.1177 -2.2886
  737MOL0     H99442   2.362   4.422   2.994 -0.0390 -0.8724  0.4051
  737MOL0     H99443   2.308   4.331   2.851 -0.1955 -0.0126 -1.1532
  737MOL0     H99444   2.136   4.445   2.978 -0.5190 -0.9547 -1.9518
  737MOL0     H99445   2.138   4.321   3.109  4.0915  0.8093  0.8568
  737MOL0     H99446   2.059   4.077   3.041  0.6047 -2.1390 -0.7019
  737MOL0     H99447   1.801   3.963   2.830  1.5457  2.4764 -0.5884
  737MOL0     H99448   1.940   3.864   2.777 -2.9465 -0.0240 -2.8376
  737MOL0     H99449   1.837   3.940   3.064  0.6789 -0.4750  0.4765
  737MOL0     H99450   1.991   3.857   3.039 -0.2783  1.9762  1.2962
  737MOL0     H99451   1.834   3.670   3.071 -1.8766  0.7254  1.5574
  737MOL0     H99452   1.795   3.686   2.899 -2.0268 -1.7706  0.0154
  737MOL0     H99453   1.612   3.843   2.977  1.5704  0.8002  0.3974
  737MOL0     H99454   1.634   3.795   3.143  0.8245 -0.0717  0.8295
  737MOL0     H99455   1.605   3.736   2.776  0.6168 -0.6408 -0.0821
  737MOL0     H99456   1.523   3.765   2.562  1.5411  0.0143  0.9517
  737MOL0     H99457   1.604   3.634   2.489 -1.8149 -1.8549 -0.3879
  737MOL0     H99458   1.431   3.634   2.481  1.1931  1.3821 -3.0421
  737MOL0     H99459   1.121   3.277   2.472  1.7539  1.2745 -0.4171
  737MOL0     H99460   1.038   3.153   2.283  0.3967 -2.8584 -0.4817
  737MOL0     H99461   1.334   2.947   2.006  0.7965  2.2990  0.2259
  737MOL0     H99462   1.259   2.818   2.117  1.0279  0.3228 -0.9849
  737MOL0     H99463   1.256   2.832   1.851  1.1716  3.4155  0.9238
  737MOL0     H99464   1.126   2.752   1.951  1.7459 -0.8075  0.5917
  737MOL0     H99465   1.139   3.032   1.832 -0.6761  0.7226  0.5003
  737MOL0     H99466   1.007   2.982   1.929  1.0667  0.2484  1.1433
  737MOL0     H99467   0.978   2.982   1.686 -2.7098 -2.8636 -2.4849
  737MOL0     H99468   1.098   2.862   1.672 -0.4329  1.1371 -0.7676
  737MOL0     H99469   0.823   2.824   1.804 -0.1234  1.7792 -1.6255
  737MOL0     H99470   0.963   2.717   1.825  0.5055  1.8269  1.2160
  737MOL0     H99471   0.843   2.795   1.541  1.1261  0.8084 -0.9920
  737MOL0     H99472   0.946   2.656   1.590 -0.8965 -1.0377  1.1780
  737MOL0     H99473   0.673   2.687   1.709 -1.6878 -1.6677 -0.6696
  737MOL0     H99474   0.777   2.542   1.680  0.7868  0.6910 -1.3709
  737MOL0     H99475   0.625   2.697   1.472 -1.1079 -0.0438 -0.9530
  737MOL0     H99476   0.584   2.529   1.540  1.3368 -2.7667 -0.0358
  737MOL0     H99477   1.436   2.988   2.209 -0.9445  0.2141 -3.4209
  737MOL0     H99478   1.492   3.094   2.453 -1.6031 -2.1654  4.6010
  737MOL0     H99479   1.410   3.281   2.816 -1.6771  2.1862  2.8550
  737MOL0     H99480   1.452   3.417   3.009 -0.4078  2.8592  0.2748
  737MOL0     H99481   3.221   4.280   3.206 -0.8396 -0.2622 -0.7084
  737MOL0     H99482   3.294   4.525   3.181 -1.2000 -0.0107 -1.0644
  737MOL0     H99483   3.295   4.918   3.283  2.3723 -0.9667 -1.0574
  737MOL0     H99484   3.335   5.136   3.311 -0.2595 -1.4223  1.0153
  737MOL0     H99485   3.217   5.423   2.965  0.3364 -0.9053 -0.2641
  737MOL0     H99486   3.089   5.422   3.096  0.1733 -2.5912  0.8763
  737MOL0     H99487   3.222   5.650   3.035  5.1215  2.4508  0.0483
  737MOL0     H99488   3.351   5.576   3.116 -0.4845  2.4761 -1.2103
  737MOL0     H99489   3.181   5.539   3.326  0.0122 -0.3482  0.4044
  737MOL0     H99490   3.083   5.665   3.246 -0.3727  0.9878  1.7544
  737MOL0     H99491   3.329   5.779   3.232 -0.6788  1.7975  1.4325
  737MOL0     H99492   3.382   5.657   3.347 -0.4960  0.8146  1.1632
  737MOL0     H99493   3.187   5.945   3.578  1.3642  3.0535 -3.1434
  737MOL0     H99494   3.170   5.222   2.909  0.5957  0.7467 -0.2296
  737MOL0     H99495   3.136   4.976   2.889 -0.5027 -0.5766  0.4090
  738MOL0     O99496   2.850  11.091   3.311 -0.2647 -0.3249 -0.0851
  738MOL0     C99497   2.924  11.165   3.244  0.2709 -0.1561  0.5866
  738MOL0     O99498   2.951  11.145   3.110 -0.4543 -0.0721  0.0235
  738MOL0     C99499   2.892  11.044   3.042 -0.0002 -0.4081 -0.9502
  738MOL0     C99500   2.928  10.912   3.072 -0.2734 -0.3150  0.5564
  738MOL0     C99501   2.864  10.811   3.010  0.0353 -0.0743 -1.4487
  738MOL0     C99502   2.776  10.832   2.912  0.5201 -0.2865  0.0162
  738MOL0     O99503   2.727  10.710   2.854  0.4377  0.3322  0.0222
  738MOL0     C99504   2.612  10.721   2.771 -0.3002 -0.2095 -0.3671
  738MOL0     C99505   2.485  10.754   2.845  0.1678  0.1901 -0.5605
  738MOL0     C99506   2.353  10.765   2.762 -1.0054 -0.8544  0.2389
  738MOL0     C99507   2.294  10.626   2.740 -0.4054  0.1394  0.3455
  738MOL0     C99508   2.226  10.597   2.609  0.4884  0.7744 -0.6018
  738MOL0     C99509   2.193  10.449   2.587  0.3383  1.0875  0.5615
  738MOL0     C99510   2.126  10.420   2.447  0.0033 -0.8157  0.3787
  738MOL0     C99511   2.000  10.504   2.423 -0.4549  0.4219  0.5652
  738MOL0     N99512   1.927  10.451   2.299  0.4734  0.1916 -0.3278
  738MOL0     C99513   1.856  10.330   2.291  0.7779 -0.1218  0.4233
  738MOL0     C99514   1.819  10.326   2.151  0.4022  1.6704 -0.4907
  738MOL0     C99515   1.713  10.233   2.097  0.4351  0.0872  0.0428
  738MOL0     C99516   1.585  10.311   2.062  1.2006  0.7447 -0.8721
  738MOL0     C99517   1.516  10.398   2.167 -0.1987 -1.2765 -0.9003
  738MOL0     C99518   1.381  10.473   2.131 -0.1274 -0.9164 -0.3974
  738MOL0     O99519   1.283  10.389   2.069 -0.6440 -0.1756 -0.4903
  738MOL0     C99520   1.171  10.355   2.139 -0.3499  0.8058 -0.4381
  738MOL0     C99521   1.066  10.303   2.069  0.0702 -0.1570 -0.9481
  738MOL0     C99522   0.945  10.271   2.131  1.1025  0.3856  0.2460
  738MOL0     C99523   0.844  10.201   2.046  0.8110  0.0250 -0.9046
  738MOL0     C99524   0.927  10.298   2.267 -0.3193  0.3122  0.4543
  738MOL0     C99525   0.794  10.284   2.344 -0.0781 -0.3732 -0.1116
  738MOL0     O99526   0.807  10.252   2.481 -0.3390  0.7487  0.4441
  738MOL0     C99527   0.703  10.229   2.562  1.5000  0.4211 -0.0536
  738MOL0     C99528   0.647  10.099   2.575  0.3521  0.6555  0.2270
  738MOL0     C99529   0.542  10.081   2.672 -0.0632  0.5900  0.6455
  738MOL0     C99530   0.502  10.187   2.741 -0.5855  1.0965  0.1313
  738MOL0     O99531   0.398  10.192   2.831 -0.2940 -0.3320 -0.7353
  738MOL0     C99532   0.322  10.072   2.866  0.3138 -1.2814 -0.0162
  738MOL0     C99533   0.198  10.118   2.941 -0.2167  0.0536 -1.3790
  738MOL0     C99534   0.233  10.205   3.070  0.0827 -0.3717  0.5557
  738MOL0     C99535   0.314  10.139   3.180 -0.0181 -0.0083 -0.0028
  738MOL0     C99536   0.313  10.233   3.299 -0.8771  0.0890 -0.2811
  738MOL0     C99537   0.377  10.171   3.429  0.5123 -0.3104 -0.1676
  738MOL0     C99538   0.383  10.270   3.548 -0.2245 -0.5304 -0.4924
  738MOL0     C99539   0.439  10.197   3.667  0.3437  0.0617 -0.8098
  738MOL0    Cl99540   0.434  10.306   3.809 -0.1010 -0.2193 -0.1307
  738MOL0     C99541   0.563  10.310   2.739 -0.0085  0.2815 -0.3024
  738MOL0     C99542   0.663  10.331   2.652 -0.0078  0.1609  0.9022
  738MOL0     O99543   0.691  10.316   2.291  0.1363 -0.1083  0.0601
  738MOL0     C99544   1.036  10.334   2.343 -0.7388 -0.7713  0.3469
  738MOL0     C99545   1.158  10.362   2.283 -0.6264  0.1385 -0.0302
  738MOL0     N99546   1.859  10.442   2.088 -0.1352  0.3805  0.0129
  738MOL0     N99547   1.938  10.511   2.175 -0.5572  0.7187  0.4044
  738MOL0     C99548   2.736  10.968   2.876  0.4335 -0.0510 -0.1538
  738MOL0     C99549   2.798  11.076   2.942  0.5364  0.9465  0.4981
  738MOL0     C99550   2.980  11.282   3.305  0.5195 -0.8274  0.0433
  738MOL0     C99551   2.939  11.323   3.427 -0.1419  0.3013 -0.5480
  738MOL0     C99552   2.985  11.439   3.484  0.4967 -0.3405 -0.0213
  738MOL0     C99553   3.060  11.524   3.402 -0.0708  0.0513 -0.6661
  738MOL0     O99554   3.102  11.645   3.456 -0.3660  0.2679 -0.4846
  738MOL0     C99555   2.991  11.723   3.499  0.1459  0.6139  0.2610
  738MOL0     C99556   3.034  11.867   3.469  0.2196  0.4890  0.6951
  738MOL0     C99557   2.923  11.959   3.411  0.4639  0.1330  0.3102
  738MOL0     C99558   2.811  12.004   3.508  0.7243 -0.7366 -0.1976
  738MOL0     C99559   2.713  11.891   3.527  0.1223  0.7084  0.1881
  738MOL0     C99560   2.636  11.804   3.570 -0.4650 -0.3004  0.6023
  738MOL0     C99561   3.104  11.486   3.275  0.8476 -0.0262 -0.0546
  738MOL0     C99562   3.062  11.367   3.222  0.5019  0.5729 -0.3734
  738MOL0     H99563   3.003  10.890   3.148  2.3999 -0.1195 -1.8738
  738MOL0     H99564   2.890  10.706   3.024  1.5615  0.4931  0.4215
  738MOL0     H99565   2.632  10.796   2.694  1.2191  2.3122  2.3035
  738MOL0     H99566   2.601  10.628   2.714  0.0578  1.8364 -4.1065
  738MOL0     H99567   2.466  10.680   2.924  1.5284  0.3511 -0.0599
  738MOL0     H99568   2.509  10.844   2.901  2.1609  0.0338 -1.0861
  738MOL0     H99569   2.279  10.821   2.820 -2.4711 -1.4395 -0.9866
  738MOL0     H99570   2.371  10.820   2.669 -0.6824 -1.0995  0.1544
  738MOL0     H99571   2.375  10.553   2.740  0.9344  1.5247 -2.1099
  738MOL0     H99572   2.209  10.603   2.806  0.0826 -3.5078 -0.0735
  738MOL0     H99573   2.132  10.653   2.602  0.3892  0.6417 -0.3603
  738MOL0     H99574   2.293  10.621   2.526 -2.1248  2.8171 -2.2824
  738MOL0     H99575   2.279  10.386   2.608 -0.8749 -0.5509  0.8682
  738MOL0     H99576   2.110  10.415   2.650 -1.1246 -3.0347 -2.9885
  738MOL0     H99577   2.194  10.441   2.364 -1.6550 -1.0235 -1.0889
  738MOL0     H99578   2.103  10.314   2.438 -1.0836 -0.4528 -1.5786
  738MOL0     H99579   2.028  10.608   2.406 -3.5002  1.3801  0.8889
  738MOL0     H99580   1.927  10.488   2.503  1.6755  0.8101  2.6998
  738MOL0     H99581   1.815  10.257   2.360 -2.7292  0.9254 -0.3425
  738MOL0     H99582   1.746  10.184   2.005  1.4938 -0.7001  0.8197
  738MOL0     H99583   1.688  10.154   2.169  1.0232 -4.7512 -4.4584
  738MOL0     H99584   1.509  10.239   2.028 -1.1787  2.1986  1.0622
  738MOL0     H99585   1.598  10.368   1.970 -2.8907  1.2040 -1.3386
  738MOL0     H99586   1.583  10.480   2.196 -2.7819  0.3359  0.9494
  738MOL0     H99587   1.508  10.345   2.262  0.5285  0.3092  0.0893
  738MOL0     H99588   1.408  10.546   2.054 -0.8953  0.8330  0.9131
  738MOL0     H99589   1.341  10.534   2.213  0.2532 -3.6841  2.0185
  738MOL0     H99590   1.089  10.290   1.964  1.0355  1.3684 -0.9607
  738MOL0     H99591   0.892  10.135   1.973 -0.5604 -1.7020 -0.3111
  738MOL0     H99592   0.778  10.141   2.108 -2.0033  1.3637 -2.3797
  738MOL0     H99593   0.784  10.271   1.987 -1.9873 -1.6715 -0.2529
  738MOL0     H99594   0.682  10.007   2.530  1.0777  1.4027 -0.7868
  738MOL0     H99595   0.505   9.980   2.690  0.4085 -0.0277 -1.6026
  738MOL0     H99596   0.276  10.018   2.782 -2.9778  1.8165 -0.4917
  738MOL0     H99597   0.388  10.013   2.929  3.0291  2.3666  0.9242
  738MOL0     H99598   0.129  10.172   2.875  0.0056 -1.1568 -2.6343
  738MOL0     H99599   0.128  10.040   2.970 -1.9366  0.9246 -2.9909
  738MOL0     H99600   0.139  10.227   3.122 -0.7997  0.3400 -1.2592
  738MOL0     H99601   0.282  10.299   3.040  1.2350 -0.1555  2.8899
  738MOL0     H99602   0.271  10.045   3.215 -0.6182  0.7511  1.3733
  738MOL0     H99603   0.415  10.135   3.138 -0.0184  4.6321 -0.9731
  738MOL0     H99604   0.210  10.262   3.321 -1.5173 -1.2863 -1.3512
  738MOL0     H99605   0.361  10.331   3.286  0.4728  0.0088  3.0789
  738MOL0     H99606   0.307  10.092   3.458  3.1037 -2.3620  0.9749
  738MOL0     H99607   0.473  10.123   3.407 -0.6179 -1.9515 -1.8020
  738MOL0     H99608   0.286  10.320   3.556  0.3351  0.6470 -0.8334
  738MOL0     H99609   0.455  10.347   3.520 -0.3996  0.5898  1.8856
  738MOL0     H99610   0.542  10.163   3.654 -0.7607 -3.2452 -1.9457
  738MOL0     H99611   0.370  10.118   3.697 -0.0263 -0.1210 -2.0934
  738MOL0     H99612   0.526  10.395   2.795 -0.5227  1.2998 -2.0932
  738MOL0     H99613   0.714  10.427   2.652  3.2338 -1.4176 -0.1134
  738MOL0     H99614   1.033  10.351   2.450  1.0053  3.8299 -0.0983
  738MOL0     H99615   1.240  10.378   2.352 -2.4512  0.8972  2.0712
  738MOL0     H99616   2.656  10.988   2.806  0.5865  1.9156  0.1836
  738MOL0     H99617   2.774  11.177   2.912  0.8592  1.1824  1.0180
  738MOL0     H99618   2.874  11.263   3.491  0.0142  1.6253  0.9088
  738MOL0     H99619   2.965  11.450   3.590  0.9651 -3.9764  0.5759
  738MOL0     H99620   2.899  11.695   3.447  0.6069  0.0957 -0.2898
  738MOL0     H99621   2.983  11.728   3.608 -0.7093  1.7895  0.1605
  738MOL0     H99622   3.110  11.864   3.390 -2.7818 -2.8822 -2.4787
  738MOL0     H99623   3.075  11.903   3.563 -1.9619  1.0911  1.4689
  738MOL0     H99624   2.870  11.903   3.333  0.2876  1.1476 -0.3182
  738MOL0     H99625   2.962  12.051   3.367 -0.7972 -0.9851 -3.6388
  738MOL0     H99626   2.758  12.092   3.471 -1.6969 -1.0106  2.3774
  738MOL0     H99627   2.859  12.016   3.605  1.1423 -1.8925 -0.2385
  738MOL0     H99628   2.596  11.707   3.591  3.0047 -1.7335  1.2361
  738MOL0     H99629   3.165  11.551   3.214  0.9897 -1.7463 -1.8271
  738MOL0     H99630   3.073  11.330   3.121  0.7878 -1.4964  0.3752
  739MOL0     O99631   4.686   9.505   6.319  0.3544  0.0789  0.0269
  739MOL0     C99632   4.812   9.503   6.308  0.0602 -0.3604 -0.1925
  739MOL0     O99633   4.898   9.604   6.351  0.2042  0.1803  0.3556
  739MOL0     C99634   4.862   9.722   6.406  0.0232 -0.3747  0.4638
  739MOL0     C99635   4.739   9.781   6.394  0.9313  0.6338 -0.4202
  739MOL0     C99636   4.710   9.901   6.458 -0.1105  0.3800 -0.1342
  739MOL0     C99637   4.802   9.952   6.555  0.0275  0.3382 -0.3537
  739MOL0     O99638   4.761  10.071   6.612 -0.0461 -0.0312 -0.6237
  739MOL0     C99639   4.854  10.132   6.697 -0.1729 -0.1495  0.1875
  739MOL0     C99640   4.794  10.256   6.760 -0.2704  1.4015  0.6388
  739MOL0     C99641   4.861  10.301   6.891 -0.3431  0.3854  0.2754
  739MOL0     C99642   4.811  10.231   7.016 -0.1350 -1.1283 -0.3350
  739MOL0     C99643   4.841  10.316   7.139  0.2544  1.2923 -0.3559
  739MOL0     C99644   4.774  10.262   7.269 -0.9940 -0.2635 -0.5068
  739MOL0     C99645   4.767  10.358   7.387  0.2969 -0.7966 -0.9831
  739MOL0     C99646   4.642  10.330   7.475  0.2751 -0.0913  0.0406
  739MOL0     N99647   4.650  10.420   7.589 -1.2279  0.3835 -0.0560
  739MOL0     C99648   4.652  10.554   7.600 -0.2901  0.5402  0.5298
  739MOL0     C99649   4.675  10.591   7.734  0.2592  0.1117  0.0388
  739MOL0     C99650   4.659  10.727   7.793  0.2034 -0.8413  0.0989
  739MOL0     C99651   4.519  10.743   7.858  0.0795 -0.1872  0.2206
  739MOL0     C99652   4.395  10.705   7.767 -0.5958  0.6149  0.5585
  739MOL0     C99653   4.303  10.591   7.824  0.5852 -0.5617  0.0497
  739MOL0     O99654   4.203  10.556   7.735 -0.2297 -0.1066 -0.0008
  739MOL0     C99655   4.227  10.450   7.651  0.5510 -0.2213  0.4946
  739MOL0     C99656   4.213  10.474   7.516 -0.4119 -1.2331  0.3767
  739MOL0     C99657   4.238  10.376   7.418  1.2902  0.9202 -0.5164
  739MOL0     C99658   4.202  10.414   7.272  0.3188 -1.0351 -0.2332
  739MOL0     C99659   4.280  10.249   7.459 -0.5007  0.5175  0.3960
  739MOL0     C99660   4.307  10.134   7.370 -0.8059  0.2707  0.8271
  739MOL0     O99661   4.369  10.143   7.246  0.2130 -0.4048 -0.3642
  739MOL0     C99662   4.446  10.042   7.199 -0.3416 -0.3044 -0.2691
  739MOL0     C99663   4.463  10.048   7.061  0.4348  0.3299  0.3441
  739MOL0     C99664   4.531   9.956   6.991 -0.8713 -0.4360  0.2498
  739MOL0     C99665   4.597   9.845   7.061 -0.3794 -0.6151  0.1135
  739MOL0     O99666   4.659   9.736   7.002  0.4261  0.3865  0.1757
  739MOL0     C99667   4.674   9.717   6.860 -0.3693 -0.6659 -0.5147
  739MOL0     C99668   4.724   9.582   6.829 -0.2559 -0.6304 -0.2709
  739MOL0     C99669   4.789   9.593   6.692 -0.3067  0.7885 -0.0722
  739MOL0     C99670   4.825   9.452   6.651 -0.7561  0.5868  0.0123
  739MOL0     C99671   4.925   9.378   6.751 -0.4886  1.6942 -0.5514
  739MOL0     C99672   5.032   9.281   6.684 -0.1831 -0.6172  0.3845
  739MOL0     C99673   5.098   9.195   6.795  0.3235 -0.0320  0.8516
  739MOL0     C99674   5.220   9.120   6.756  0.8363 -0.2536  1.0369
  739MOL0    Cl99675   5.277   9.003   6.887 -0.3331 -0.0788  0.2443
  739MOL0     C99676   4.589   9.843   7.203 -0.5899 -0.1820  0.1214
  739MOL0     C99677   4.517   9.946   7.274 -0.2012  1.0420 -0.4392
  739MOL0     O99678   4.271  10.025   7.412  0.0434 -0.4262 -0.3951
  739MOL0     C99679   4.295  10.231   7.596 -0.6352 -0.2075  1.4248
  739MOL0     C99680   4.265  10.325   7.690 -0.4612  0.9819 -0.6696
  739MOL0     N99681   4.672  10.479   7.807 -0.7025 -0.0999 -0.0016
  739MOL0     N99682   4.654  10.378   7.719 -0.3471  0.1568  0.1335
  739MOL0     C99683   4.931   9.894   6.565 -0.5442  0.6035  0.3303
  739MOL0     C99684   4.964   9.782   6.484  0.5247  0.2908  0.4837
  739MOL0     C99685   4.864   9.374   6.259 -0.2509 -0.0158  0.9761
  739MOL0     C99686   4.808   9.252   6.306 -0.8884 -0.9691  0.2878
  739MOL0     C99687   4.862   9.125   6.275 -0.3902 -0.0840 -0.2464
  739MOL0     C99688   4.971   9.117   6.194 -0.2612 -0.2336 -0.2223
  739MOL0     O99689   5.030   9.007   6.162  0.1740 -0.4093  0.7927
  739MOL0     C99690   4.965   8.883   6.149  0.0969 -0.8460  0.1939
  739MOL0     C99691   5.071   8.764   6.116  0.9292  0.2637 -0.0793
  739MOL0     C99692   4.980   8.653   6.063 -0.3090 -0.0873 -0.4106
  739MOL0     C99693   5.077   8.534   6.007 -0.4203 -0.5758 -0.0485
  739MOL0     C99694   5.144   8.574   5.882  0.5221  0.3536  0.1103
  739MOL0     C99695   5.208   8.602   5.782  1.0269  0.3061  0.5938
  739MOL0     C99696   5.040   9.241   6.156  0.1828 -0.0761  0.1346
  739MOL0     C99697   4.980   9.366   6.178  0.2480 -0.0848 -0.3918
  739MOL0     H99698   4.666   9.747   6.321  1.6899 -0.8024 -0.5287
  739MOL0     H99699   4.618   9.957   6.444  0.0355  1.4384  2.5688
  739MOL0     H99700   4.880  10.064   6.778 -1.9969  0.2983  1.2051
  739MOL0     H99701   4.934  10.163   6.629 -0.1612 -0.8034 -0.0968
  739MOL0     H99702   4.809  10.341   6.692 -0.0674  1.7434  1.1034
  739MOL0     H99703   4.685  10.243   6.767 -0.9161  3.9838 -2.2502
  739MOL0     H99704   4.970  10.297   6.883 -0.3618  2.3911 -2.5746
  739MOL0     H99705   4.848  10.410   6.895  1.6836  0.7935 -1.9312
  739MOL0     H99706   4.702  10.223   7.013 -0.8216  3.2012  2.5853
  739MOL0     H99707   4.858  10.134   7.036 -0.4341 -0.8939  1.7805
  739MOL0     H99708   4.947  10.331   7.161  1.3579 -2.8906 -1.7407
  739MOL0     H99709   4.805  10.417   7.117 -1.3761  0.7398 -0.3748
  739MOL0     H99710   4.667  10.256   7.250 -1.4720 -1.6319  2.1291
  739MOL0     H99711   4.835  10.174   7.290  0.9137  0.9145 -0.8399
  739MOL0     H99712   4.861  10.351   7.441 -0.2070  0.3445  0.0800
  739MOL0     H99713   4.762  10.460   7.348 -0.0954 -0.2578  0.4338
  739MOL0     H99714   4.630  10.223   7.496 -4.8442  0.3431  0.7280
  739MOL0     H99715   4.549  10.335   7.417  0.3127 -3.3413 -0.5218
  739MOL0     H99716   4.641  10.611   7.508 -0.9188 -0.6165 -0.1544
  739MOL0     H99717   4.735  10.747   7.869  0.0701  0.5383 -0.1065
  739MOL0     H99718   4.667  10.812   7.725  0.4964 -1.7974 -1.0983
  739MOL0     H99719   4.501  10.849   7.877 -1.4432 -0.3152 -0.3711
  739MOL0     H99720   4.514  10.680   7.947  2.5393  0.8946  1.2304
  739MOL0     H99721   4.416  10.691   7.661 -0.4647  2.7613  0.2547
  739MOL0     H99722   4.325  10.789   7.763 -3.9551 -1.8899  1.8545
  739MOL0     H99723   4.252  10.627   7.914  0.8713  0.8570 -0.3386
  739MOL0     H99724   4.363  10.501   7.841 -0.3259 -1.4031 -1.0196
  739MOL0     H99725   4.185  10.574   7.485  1.9328 -0.8587 -0.7307
  739MOL0     H99726   4.116  10.355   7.239 -0.3166 -0.4979  0.4396
  739MOL0     H99727   4.177  10.519   7.257 -1.4147 -1.7741 -3.4485
  739MOL0     H99728   4.291  10.388   7.213  1.1599 -2.0360  1.3963
  739MOL0     H99729   4.429  10.139   7.012 -1.2139  0.2762  1.3369
  739MOL0     H99730   4.522   9.963   6.883 -0.7496  2.9896  0.3516
  739MOL0     H99731   4.580   9.741   6.810 -0.8523  3.1417  1.8513
  739MOL0     H99732   4.744   9.796   6.831 -1.7017  2.0701  2.9676
  739MOL0     H99733   4.787   9.544   6.910  0.0228 -1.4985 -0.8835
  739MOL0     H99734   4.644   9.508   6.832 -2.0479  1.2055 -0.3147
  739MOL0     H99735   4.879   9.652   6.711 -1.5893  2.2200  2.0790
  739MOL0     H99736   4.721   9.636   6.618  1.9147  2.5388 -1.2167
  739MOL0     H99737   4.734   9.391   6.644  0.3421 -0.9468 -1.7419
  739MOL0     H99738   4.871   9.455   6.552 -2.5831  1.0346 -0.8667
  739MOL0     H99739   4.868   9.310   6.814  2.8825  0.1751  1.1408
  739MOL0     H99740   4.974   9.451   6.817  0.8740 -0.6298  1.1447
  739MOL0     H99741   4.987   9.217   6.609 -0.3984 -3.1644  2.5216
  739MOL0     H99742   5.108   9.350   6.646 -1.1724  1.7025  2.3476
  739MOL0     H99743   5.026   9.122   6.832  1.2538 -1.3750  0.1020
  739MOL0     H99744   5.134   9.255   6.879  0.4834  1.9232 -0.5201
  739MOL0     H99745   5.300   9.194   6.755  4.5018 -3.8792 -0.5040
  739MOL0     H99746   5.207   9.065   6.662 -3.2109 -1.3618  2.0436
  739MOL0     H99747   4.638   9.762   7.257 -0.2242 -0.0224  0.0328
  739MOL0     H99748   4.514   9.951   7.383  0.8488  2.8496 -0.4479
  739MOL0     H99749   4.328  10.135   7.634  2.7800  0.7303  1.1351
  739MOL0     H99750   4.275  10.296   7.794  5.4854  2.2236 -0.5641
  739MOL0     H99751   5.003   9.926   6.639 -1.8761  3.3307  0.5531
  739MOL0     H99752   5.065   9.744   6.493  1.6189  2.4927 -1.3326
  739MOL0     H99753   4.724   9.267   6.373  0.8378 -0.1574  2.4114
  739MOL0     H99754   4.828   9.043   6.338 -0.5884  1.3846  1.6630
  739MOL0     H99755   4.893   8.854   6.226 -1.3274  0.7286 -0.4771
  739MOL0     H99756   4.899   8.894   6.062  1.1828 -0.7958 -0.6466
  739MOL0     H99757   5.109   8.735   6.215 -4.4475 -0.4881  2.0761
  739MOL0     H99758   5.144   8.796   6.040  0.5242  1.6905  0.1093
  739MOL0     H99759   4.913   8.680   5.981  1.8598 -0.0721 -2.2669
  739MOL0     H99760   4.936   8.604   6.150 -0.0851 -2.3687 -1.4811
  739MOL0     H99761   5.011   8.449   5.986 -1.3983  0.5729 -1.9645
  739MOL0     H99762   5.152   8.505   6.081  0.1225 -3.0551 -1.4761
  739MOL0     H99763   5.263   8.621   5.693 -1.6052 -1.0658 -1.4821
  739MOL0     H99764   5.131   9.245   6.097 -0.0859 -2.5287 -0.5631
  739MOL0     H99765   5.029   9.447   6.126  0.1996  0.1860 -0.0186
  740MOL0     O99766   1.559  10.291   3.417 -0.3038 -0.5488  0.7652
  740MOL0     C99767   1.531  10.364   3.512 -0.3973 -0.1856 -0.5341
  740MOL0     O99768   1.417  10.355   3.587  0.2597  0.2539 -0.0499
  740MOL0     C99769   1.319  10.267   3.539 -0.7117  1.1411 -0.4098
  740MOL0     C99770   1.195  10.309   3.506  0.2619 -0.3759 -0.3529
  740MOL0     C99771   1.086  10.224   3.476  0.0883  0.9782  0.5986
  740MOL0     C99772   1.119  10.093   3.459 -0.1096 -0.2432 -0.1506
  740MOL0     O99773   1.027   9.994   3.430 -0.3746 -0.1394  0.1333
  740MOL0     C99774   0.949  10.011   3.311 -0.4188  0.0008 -0.3415
  740MOL0     C99775   0.863   9.892   3.296 -1.2348  0.3308 -0.6766
  740MOL0     C99776   0.739   9.892   3.392  0.9561  0.1179 -0.1871
  740MOL0     C99777   0.652   9.767   3.384  0.0522  0.1628  0.1490
  740MOL0     C99778   0.547   9.765   3.503 -0.1646 -0.9951 -0.7092
  740MOL0     C99779   0.604   9.706   3.633 -0.5795 -1.3487  0.2723
  740MOL0     C99780   0.486   9.662   3.714  0.1821 -0.0757  0.3946
  740MOL0     C99781   0.522   9.636   3.859  0.2746  0.1192 -0.7842
  740MOL0     N99782   0.526   9.778   3.916 -0.7783 -0.5067 -0.2424
  740MOL0     C99783   0.408   9.834   3.966 -1.7089 -0.4637  0.1505
  740MOL0     C99784   0.449   9.954   4.006 -0.0659 -0.3990  0.3814
  740MOL0     C99785   0.373  10.066   4.073 -0.2334  0.3500  0.4338
  740MOL0     C99786   0.332  10.001   4.207 -0.1214 -0.1138  0.1595
  740MOL0     C99787   0.177   9.990   4.228 -0.0250  0.7266 -0.3395
  740MOL0     C99788   0.128   9.921   4.355 -0.4116  0.9421 -0.1534
  740MOL0     O99789   0.138  10.022   4.458 -0.7864 -0.4458 -0.3936
  740MOL0     C99790   0.220  10.013   4.564  0.0612  0.9147  0.0358
  740MOL0     C99791   0.328   9.928   4.567  0.5897 -0.1826 -0.5514
  740MOL0     C99792   0.404   9.934   4.687  0.0583  0.5238  0.5582
  740MOL0     C99793   0.513   9.838   4.670 -0.8370  0.2243  0.1067
  740MOL0     C99794   0.364  10.017   4.799  0.5439  0.0382  0.0301
  740MOL0     C99795   0.434  10.045   4.924 -0.6672  0.4307 -0.3061
  740MOL0     O99796   0.389  10.143   5.013 -0.3103  0.7013  0.4124
  740MOL0     C99797   0.480  10.170   5.113 -0.1911  0.9938 -0.1537
  740MOL0     C99798   0.566  10.275   5.114 -0.6593  0.0526  0.3824
  740MOL0     C99799   0.656  10.300   5.217  0.6967 -0.2472 -0.4479
  740MOL0     C99800   0.646  10.230   5.338 -0.1470  0.5534 -0.5995
  740MOL0     O99801   0.721  10.249   5.457  0.2338  1.0482  0.1732
  740MOL0     C99802   0.822  10.351   5.437 -0.2799  0.5163 -1.4310
  740MOL0     C99803   0.884  10.391   5.572  0.1996 -0.2047  0.0125
  740MOL0     C99804   0.800  10.486   5.646 -0.0350 -0.3782  1.2280
  740MOL0     C99805   0.856  10.495   5.793  0.0934  0.1510 -0.8113
  740MOL0     C99806   0.776  10.588   5.883  0.0851 -0.2547 -0.3602
  740MOL0     C99807   0.810  10.564   6.030 -0.0864  0.3150 -0.0671
  740MOL0     C99808   0.785  10.689   6.122 -0.1600  0.0734  0.1146
  740MOL0     C99809   0.658  10.759   6.090 -0.5362 -0.6013 -0.5805
  740MOL0    Cl99810   0.637  10.898   6.210 -0.2656  0.2135 -0.4431
  740MOL0     C99811   0.545  10.135   5.353 -0.6034 -0.5549 -1.0486
  740MOL0     C99812   0.472  10.099   5.235  0.0240  0.7948  0.1674
  740MOL0     O99813   0.528   9.972   4.938 -0.7801  0.2736  0.1920
  740MOL0     C99814   0.253  10.092   4.778  0.7599  1.4222 -0.2252
  740MOL0     C99815   0.180  10.100   4.660 -1.2798 -0.2754  0.0664
  740MOL0     N99816   0.586   9.967   3.998 -0.4037 -0.3611 -0.8549
  740MOL0     N99817   0.634   9.853   3.944  0.0933 -0.4136  1.0860
  740MOL0     C99818   1.253  10.044   3.496  0.1211  0.1544  0.0087
  740MOL0     C99819   1.349  10.131   3.529 -0.0302  0.1365 -0.2992
  740MOL0     C99820   1.618  10.486   3.535  0.8775  0.0596 -0.0564
  740MOL0     C99821   1.575  10.591   3.610  0.5477 -0.4915 -0.2816
  740MOL0     C99822   1.653  10.701   3.644  0.0053  0.3666  0.2148
  740MOL0     C99823   1.784  10.710   3.588  0.4969 -0.9488  0.2325
  740MOL0     O99824   1.870  10.816   3.613  0.5014 -0.2556  0.3240
  740MOL0     C99825   1.848  10.901   3.722 -0.3651 -0.2188  0.4031
  740MOL0     C99826   1.969  10.990   3.722  0.1579 -0.0003 -0.2457
  740MOL0     C99827   1.934  11.105   3.821  0.1754  0.3659  0.4294
  740MOL0     C99828   2.019  11.236   3.783 -0.6804 -0.0105  1.1237
  740MOL0     C99829   1.974  11.284   3.649  0.0135 -0.2528  0.0809
  740MOL0     C99830   1.942  11.309   3.531 -0.3666 -0.0291 -0.4373
  740MOL0     C99831   1.820  10.611   3.490  0.6978 -0.3182 -0.1677
  740MOL0     C99832   1.744  10.494   3.473  0.0725 -0.0058 -0.5088
  740MOL0     H99833   1.168  10.412   3.525 -1.1357 -0.8638  0.3906
  740MOL0     H99834   0.978  10.233   3.471 -0.1664 -1.8043 -0.6842
  740MOL0     H99835   0.891  10.103   3.300 -1.8075 -1.1417 -3.8421
  740MOL0     H99836   1.018  10.000   3.228 -2.3943  0.7849 -2.1772
  740MOL0     H99837   0.818   9.895   3.196 -4.3474  1.1667  0.6195
  740MOL0     H99838   0.932   9.810   3.318  2.0382  3.5747  2.7501
  740MOL0     H99839   0.781   9.892   3.493  4.1539 -2.6538 -1.3326
  740MOL0     H99840   0.678   9.982   3.381 -2.3344 -1.7357  1.3759
  740MOL0     H99841   0.593   9.762   3.292 -0.6836  0.0864  0.6169
  740MOL0     H99842   0.698   9.667   3.386 -2.1140 -0.9032  2.3296
  740MOL0     H99843   0.500   9.860   3.530 -0.8343 -2.2280  3.1187
  740MOL0     H99844   0.463   9.705   3.469  1.4571 -2.2263 -2.7941
  740MOL0     H99845   0.666   9.619   3.610 -0.8416 -1.7709  1.1082
  740MOL0     H99846   0.669   9.778   3.684  0.1844 -2.5772  1.0746
  740MOL0     H99847   0.402   9.733   3.717  1.4243  1.5291 -0.7980
  740MOL0     H99848   0.446   9.571   3.669  0.9050 -0.8658  1.3190
  740MOL0     H99849   0.618   9.585   3.858  0.3297 -0.3005  3.8671
  740MOL0     H99850   0.445   9.575   3.907 -0.1144  0.6209 -0.7610
  740MOL0     H99851   0.309   9.792   3.981 -1.7164  0.7964  5.5985
  740MOL0     H99852   0.439  10.151   4.089 -0.5836  0.6173  0.4794
  740MOL0     H99853   0.278  10.087   4.022 -0.5661  1.5779  1.5420
  740MOL0     H99854   0.385  10.043   4.294  2.3125 -1.4228 -0.5951
  740MOL0     H99855   0.370   9.898   4.211 -2.6083 -1.1681 -1.4168
  740MOL0     H99856   0.145   9.913   4.157  1.0933 -3.8836  3.6295
  740MOL0     H99857   0.135  10.091   4.218 -2.2518 -0.0192  0.8026
  740MOL0     H99858   0.181   9.827   4.372  1.9543  2.0029 -1.1523
  740MOL0     H99859   0.024   9.888   4.349  0.3097 -1.3194 -1.0789
  740MOL0     H99860   0.348   9.850   4.494  0.2972  0.5069 -1.3986
  740MOL0     H99861   0.580   9.889   4.600  0.8226 -1.0330  0.7022
  740MOL0     H99862   0.565   9.818   4.764 -0.8818  2.6946  0.7289
  740MOL0     H99863   0.480   9.744   4.626 -0.1389 -0.1641  0.3951
  740MOL0     H99864   0.567  10.347   5.033  2.5996  0.9875  1.1005
  740MOL0     H99865   0.729  10.380   5.205  2.7974 -1.4557  2.9532
  740MOL0     H99866   0.892  10.309   5.364 -0.5113 -1.9866 -0.3140
  740MOL0     H99867   0.785  10.451   5.413 -2.8201 -0.6534 -2.8700
  740MOL0     H99868   0.927  10.316   5.639  4.8673  1.5591 -0.5928
  740MOL0     H99869   0.975  10.452   5.562 -1.0260  2.0010  1.4176
  740MOL0     H99870   0.699  10.446   5.654 -1.0609  1.5268 -1.0931
  740MOL0     H99871   0.791  10.581   5.593  1.4888 -1.8394 -1.8943
  740MOL0     H99872   0.848  10.398   5.843  0.2531  1.3604  1.7381
  740MOL0     H99873   0.959  10.532   5.793 -0.0926  0.8676  1.9346
  740MOL0     H99874   0.670  10.570   5.867 -0.5379  1.5115  1.4386
  740MOL0     H99875   0.808  10.686   5.847  0.6835 -0.7171 -1.1284
  740MOL0     H99876   0.745  10.484   6.068  0.8924 -1.0463 -1.1916
  740MOL0     H99877   0.911  10.524   6.037 -0.2341 -0.7423 -2.9125
  740MOL0     H99878   0.870  10.757   6.125 -0.8409  0.9715 -0.6004
  740MOL0     H99879   0.782  10.648   6.223  1.4506  2.4857  1.2284
  740MOL0     H99880   0.578  10.685   6.098  0.5870 -1.8388 -0.3668
  740MOL0     H99881   0.668  10.794   5.987 -2.1332 -0.6311 -0.7676
  740MOL0     H99882   0.546  10.086   5.449  0.5852  2.5112  0.6624
  740MOL0     H99883   0.411  10.009   5.234 -1.5217  1.7776 -2.4251
  740MOL0     H99884   0.217  10.152   4.861  1.7268 -1.5154  2.5488
  740MOL0     H99885   0.104  10.178   4.655  0.0520  1.2565  2.0151
  740MOL0     H99886   1.283   9.940   3.482  3.2089  0.6703  1.9781
  740MOL0     H99887   1.447  10.100   3.563 -0.9832 -3.1227 -0.2420
  740MOL0     H99888   1.480  10.587   3.663 -0.2864  3.1230 -1.2176
  740MOL0     H99889   1.620  10.783   3.707 -2.6845 -1.6919  1.7109
  740MOL0     H99890   1.754  10.958   3.722  0.3558  1.0452  1.7394
  740MOL0     H99891   1.862  10.842   3.813 -1.1445 -1.7106 -0.4213
  740MOL0     H99892   1.971  11.030   3.620 -4.1538  0.7371 -0.2176
  740MOL0     H99893   2.058  10.939   3.758  1.5064  1.4425 -1.3934
  740MOL0     H99894   1.951  11.058   3.918  0.1159 -0.5671 -0.0015
  740MOL0     H99895   1.827  11.126   3.818  0.2968  0.9500 -0.0066
  740MOL0     H99896   2.126  11.217   3.771 -0.7457  1.2090 -2.6333
  740MOL0     H99897   2.020  11.320   3.853  0.3609  3.6315 -2.8095
  740MOL0     H99898   1.920  11.328   3.428 -3.5337  1.4004  0.3737
  740MOL0     H99899   1.920  10.615   3.447  1.4553 -2.2992  1.2963
  740MOL0     H99900   1.768  10.419   3.398 -0.6587 -1.0164  0.2326
  741MOL0     O99901   1.562   7.993   1.967  0.3027  0.3217  0.5191
  741MOL0     C99902   1.624   7.890   1.918 -0.6648 -0.9020 -0.5408
  741MOL0     O99903   1.579   7.762   1.920 -0.4421 -0.6309  0.0203
  741MOL0     C99904   1.477   7.736   2.010 -0.2007  0.5022  0.0653
  741MOL0     C99905   1.349   7.791   1.977  0.2988 -0.1516  0.3119
  741MOL0     C99906   1.228   7.751   2.042 -0.3953  0.8008 -0.4205
  741MOL0     C99907   1.244   7.664   2.160  0.3259 -0.4041  0.0251
  741MOL0     O99908   1.131   7.623   2.228  0.1015 -0.3848 -0.4321
  741MOL0     C99909   1.141   7.524   2.323 -0.1025 -0.7081 -0.0282
  741MOL0     C99910   1.003   7.455   2.320 -0.2817 -0.9746  0.3028
  741MOL0     C99911   0.991   7.354   2.439 -0.2822  0.2326 -0.7657
  741MOL0     C99912   0.875   7.257   2.413 -0.1350  0.8535  0.2132
  741MOL0     C99913   0.899   7.119   2.347 -0.4427 -0.8775 -0.8085
  741MOL0     C99914   1.007   7.033   2.413 -0.4741  0.1277  0.8335
  741MOL0     C99915   0.970   6.880   2.418 -0.3592  1.2501 -0.0001
  741MOL0     C99916   1.005   6.828   2.558 -0.6265 -0.1488  0.5043
  741MOL0     N99917   0.918   6.708   2.597 -0.0182 -0.5953 -0.0848
  741MOL0     C99918   0.949   6.576   2.590 -0.5480  0.7637  0.5343
  741MOL0     C99919   0.835   6.518   2.626 -0.9885 -0.0840  0.4625
  741MOL0     C99920   0.798   6.370   2.633 -0.3709 -0.8267 -0.8619
  741MOL0     C99921   0.666   6.327   2.550 -0.1677  0.2112 -0.8403
  741MOL0     C99922   0.646   6.165   2.564 -0.0499 -0.7809  0.5061
  741MOL0     C99923   0.740   6.088   2.470 -0.0805 -1.2120  0.0043
  741MOL0     O99924   0.792   5.959   2.518  0.2545 -0.2823  0.0333
  741MOL0     C99925   0.710   5.843   2.500 -0.3165 -0.6601 -0.2580
  741MOL0     C99926   0.777   5.718   2.509 -0.1807  0.3046  0.5108
  741MOL0     C99927   0.714   5.599   2.485 -0.2684  0.1818  0.1052
  741MOL0     C99928   0.800   5.471   2.484  0.3755 -0.2334  0.2156
  741MOL0     C99929   0.576   5.604   2.456  0.4376  0.1266  0.1030
  741MOL0     C99930   0.494   5.486   2.420 -0.3646  0.4776  0.6110
  741MOL0     O99931   0.548   5.375   2.376  0.0942  0.2202  0.0583
  741MOL0     C99932   0.483   5.253   2.372  0.1166 -0.2393 -0.2492
  741MOL0     C99933   0.543   5.158   2.297 -1.0744 -0.4133 -0.8445
  741MOL0     C99934   0.496   5.028   2.292 -1.2182  0.6211  1.0319
  741MOL0     C99935   0.373   4.998   2.362 -0.5267 -0.1590 -0.6546
  741MOL0     O99936   0.336   4.866   2.382 -0.4403 -0.0559  0.4316
  741MOL0     C99937   0.244   4.820   2.481  0.1342 -1.6255  0.0983
  741MOL0     C99938   0.231   4.672   2.479 -0.4591  0.1532 -0.3580
  741MOL0     C99939   0.364   4.617   2.437 -0.7350  1.1615 -0.4784
  741MOL0     C99940   0.384   4.472   2.467 -1.2610 -0.3223 -1.6788
  741MOL0     C99941   0.510   4.404   2.408  0.2584 -0.6362  0.4062
  741MOL0     C99942   0.503   4.247   2.416  0.7504  0.2957 -0.1523
  741MOL0     C99943   0.641   4.193   2.380  0.0634  0.3185 -0.0186
  741MOL0     C99944   0.648   4.054   2.325 -0.5602 -0.0643  1.0716
  741MOL0    Cl99945   0.554   3.941   2.411  0.1690 -0.1452  0.0435
  741MOL0     C99946   0.309   5.092   2.442 -0.9990  0.4103 -0.3034
  741MOL0     C99947   0.365   5.219   2.448 -1.2107  0.2506  0.0432
  741MOL0     O99948   0.373   5.503   2.440 -0.7829  0.1624 -0.5370
  741MOL0     C99949   0.511   5.729   2.456 -0.7433 -0.1800 -0.0989
  741MOL0     C99950   0.573   5.846   2.481 -0.3949 -0.3881  0.0276
  741MOL0     N99951   0.739   6.615   2.647  0.4840  0.5910  0.2474
  741MOL0     N99952   0.790   6.729   2.621  0.2169 -0.0429 -0.4762
  741MOL0     C99953   1.376   7.611   2.193 -0.7691 -0.5621  0.8090
  741MOL0     C99954   1.481   7.650   2.112 -0.7628 -0.2416  0.2654
  741MOL0     C99955   1.749   7.909   1.844 -1.1315 -0.2815 -1.2803
  741MOL0     C99956   1.834   7.803   1.805  0.2081  0.5185 -0.7750
  741MOL0     C99957   1.956   7.823   1.738 -0.1589 -0.9444 -0.1879
  741MOL0     C99958   1.998   7.956   1.710  0.0019  0.0760 -0.8391
  741MOL0     O99959   2.119   7.978   1.648  0.0770  0.6928  0.5476
  741MOL0     C99960   2.203   8.080   1.702  0.7132 -0.3587 -0.7642
  741MOL0     C99961   2.353   8.055   1.672 -0.4334 -0.6825 -0.3304
  741MOL0     C99962   2.458   8.145   1.727 -0.9793 -1.3484 -0.3855
  741MOL0     C99963   2.498   8.260   1.635 -0.2353 -1.2345 -0.3723
  741MOL0     C99964   2.611   8.335   1.702  0.5140 -0.4034  0.0128
  741MOL0     C99965   2.693   8.379   1.781  0.4326  0.2703 -0.4147
  741MOL0     C99966   1.915   8.065   1.756  0.5644  0.5559 -0.4213
  741MOL0     C99967   1.796   8.042   1.821 -0.3191  1.4590  0.4967
  741MOL0     H99968   1.334   7.877   1.913 -0.1374  0.5122  1.2729
  741MOL0     H99969   1.132   7.798   2.023 -0.3373  2.0494  1.9390
  741MOL0     H99970   1.209   7.444   2.292  0.1533 -0.7206  0.5542
  741MOL0     H99971   1.161   7.557   2.425 -2.5932 -1.3955  0.7798
  741MOL0     H99972   0.926   7.532   2.326 -1.8707 -2.2821 -1.5695
  741MOL0     H99973   0.993   7.402   2.224 -2.8300  2.6309 -1.6411
  741MOL0     H99974   1.088   7.304   2.454  0.0735  1.2790  0.5591
  741MOL0     H99975   0.961   7.410   2.528  0.3018 -0.2914 -0.2262
  741MOL0     H99976   0.831   7.234   2.510 -0.5728 -1.1969 -0.4378
  741MOL0     H99977   0.794   7.310   2.361  1.8996  3.8414 -0.2092
  741MOL0     H99978   0.804   7.066   2.344 -2.6119  2.7283 -2.4661
  741MOL0     H99979   0.922   7.132   2.240  2.7142 -0.2751 -0.1667
  741MOL0     H99980   1.091   7.036   2.344 -1.1786  0.7635 -0.0301
  741MOL0     H99981   1.029   7.070   2.513 -2.3669  1.2234  0.9077
  741MOL0     H99982   0.865   6.869   2.389  0.0047 -0.3819 -0.8117
  741MOL0     H99983   1.034   6.824   2.350 -2.6020  0.4369 -1.5634
  741MOL0     H99984   0.992   6.902   2.638  0.0717 -2.5454  2.9909
  741MOL0     H99985   1.112   6.805   2.556  0.4465  3.8811  1.3944
  741MOL0     H99986   1.038   6.534   2.545  0.4047  3.3333 -0.1423
  741MOL0     H99987   0.881   6.316   2.586 -0.8169 -2.9594  0.6701
  741MOL0     H99988   0.796   6.347   2.739 -2.2041 -1.6564 -1.0437
  741MOL0     H99989   0.659   6.369   2.449 -1.0701  1.3775 -0.3145
  741MOL0     H99990   0.594   6.377   2.614  0.9202 -0.1218  0.7082
  741MOL0     H99991   0.548   6.140   2.522  1.6857 -0.7084 -4.1007
  741MOL0     H99992   0.651   6.129   2.667 -1.7402 -2.8365 -0.0522
  741MOL0     H99993   0.830   6.144   2.445 -0.5641 -0.0711  0.7310
  741MOL0     H99994   0.695   6.077   2.371  3.4953 -0.7638 -1.8516
  741MOL0     H99995   0.882   5.714   2.539  0.2313  0.1147 -0.8568
  741MOL0     H99996   0.908   5.483   2.494  0.2355  2.6259 -0.8118
  741MOL0     H99997   0.770   5.410   2.570 -0.2766  2.1215  1.7686
  741MOL0     H99998   0.787   5.432   2.383  1.8924  0.0134 -0.0877
  741MOL0     H99999   0.642   5.165   2.252 -1.0071 -0.0681 -0.6422
  741MOL0     H    0   0.550   4.948   2.243 -1.2298  1.6853 -0.7973
  741MOL0     H    1   0.259   4.866   2.579 -0.9579 -1.2662  0.1151
  741MOL0     H    2   0.147   4.863   2.457  0.3379 -1.7368 -0.9512
  741MOL0     H    3   0.195   4.637   2.576  0.2036 -4.3752 -1.5296
  741MOL0     H    4   0.166   4.648   2.394  2.5997  0.0134 -2.8544
  741MOL0     H    5   0.450   4.662   2.488  0.0333  0.4155 -1.0830
  741MOL0     H    6   0.390   4.634   2.332  0.5557 -0.5306 -0.4796
  741MOL0     H    7   0.384   4.462   2.575  3.1698 -0.3346 -1.4872
  741MOL0     H    8   0.303   4.410   2.430 -1.7211 -3.1250  3.2629
  741MOL0     H    9   0.607   4.432   2.450  0.1602  0.7785 -0.2828
  741MOL0     H   10   0.518   4.432   2.303 -1.3312  1.3163  0.7511
  741MOL0     H   11   0.466   4.195   2.504 -1.0000 -2.1152 -2.1392
  741MOL0     H   12   0.430   4.205   2.346  1.4886  0.1511 -0.8677
  741MOL0     H   13   0.693   4.192   2.476  0.4482  3.1091 -0.1301
  741MOL0     H   14   0.705   4.247   2.310 -0.0099  0.6324  0.1583
  741MOL0     H   15   0.754   4.035   2.345  0.0056  2.8166  1.1717
  741MOL0     H   16   0.628   4.041   2.218 -1.4600  1.6135  1.0140
  741MOL0     H   17   0.228   5.088   2.514  0.6086 -1.0708  1.5551
  741MOL0     H   18   0.315   5.296   2.506  0.5703  1.7892 -0.3665
  741MOL0     H   19   0.406   5.736   2.428 -0.3343 -1.6360 -2.3028
  741MOL0     H   20   0.526   5.943   2.489 -1.4409 -1.0211  4.8429
  741MOL0     H   21   1.395   7.546   2.279 -1.6387 -1.3383  0.4331
  741MOL0     H   22   1.580   7.612   2.137 -0.3866  1.9380  2.5146
  741MOL0     H   23   1.792   7.704   1.815  3.6704 -1.1795 -1.3908
  741MOL0     H   24   2.005   7.740   1.688  2.9347  0.5776  0.0435
  741MOL0     H   25   2.158   8.172   1.662  1.0534  2.2424  4.0262
  741MOL0     H   26   2.199   8.080   1.811 -1.4262 -2.2108 -0.7717
  741MOL0     H   27   2.362   8.048   1.563 -1.9104  0.8551 -0.5907
  741MOL0     H   28   2.370   7.952   1.706 -2.3038 -0.6111  0.9590
  741MOL0     H   29   2.550   8.092   1.753  0.4166  1.1644  0.1745
  741MOL0     H   30   2.428   8.181   1.826  2.0747  1.1519 -0.2186
  741MOL0     H   31   2.411   8.326   1.635  1.2313  0.8162 -0.8593
  741MOL0     H   32   2.526   8.232   1.533  2.4958  0.0609 -0.0721
  741MOL0     H   33   2.763   8.411   1.855 -2.7120  1.1912  2.4272
  741MOL0     H   34   1.936   8.168   1.729  2.7920  0.4312  0.6297
  741MOL0     H   35   1.725   8.120   1.847 -3.3842 -1.3288  1.1631
  742MOL0     O   36   3.135   7.797   3.503 -0.2940 -0.2994 -0.3614
  742MOL0     C   37   3.062   7.894   3.469  0.4098 -0.1386 -0.4246
  742MOL0     O   38   3.086   7.983   3.371  0.7213  0.4860 -0.9966
  742MOL0     C   39   3.161   8.082   3.424 -0.0268 -0.0100 -0.6437
  742MOL0     C   40   3.083   8.200   3.452  0.5193 -0.4468 -0.3462
  742MOL0     C   41   3.132   8.321   3.489 -0.4828  0.4288 -0.0743
  742MOL0     C   42   3.275   8.330   3.503 -0.1843  0.3285  0.3863
  742MOL0     O   43   3.326   8.453   3.507  0.1550 -0.4122 -0.0202
  742MOL0     C   44   3.286   8.556   3.413  0.8214 -0.4119 -0.2349
  742MOL0     C   45   3.330   8.528   3.269 -0.5798  0.2246  0.4866
  742MOL0     C   46   3.446   8.625   3.248  0.4750 -0.2764  0.6849
  742MOL0     C   47   3.535   8.589   3.127  0.6749 -0.4104  0.1638
  742MOL0     C   48   3.466   8.615   2.995 -0.2622 -0.5367  0.0045
  742MOL0     C   49   3.555   8.599   2.865 -0.1165  0.3977  0.6976
  742MOL0     C   50   3.593   8.443   2.835 -0.0926 -1.4083  1.0102
  742MOL0     C   51   3.580   8.398   2.692 -0.0866 -0.0393  1.1293
  742MOL0     N   52   3.657   8.478   2.595 -0.4063 -1.0294 -0.4424
  742MOL0     C   53   3.782   8.535   2.596 -0.4972 -0.5229  0.1227
  742MOL0     C   54   3.805   8.592   2.471 -0.3742  1.0358 -0.0204
  742MOL0     C   55   3.933   8.665   2.432 -0.8489 -0.0423  0.7148
  742MOL0     C   56   3.983   8.641   2.288 -0.9945 -0.2480 -0.1253
  742MOL0     C   57   4.099   8.743   2.244 -0.6619 -1.0826 -0.6724
  742MOL0     C   58   4.052   8.890   2.209 -0.4189 -0.6604 -0.6001
  742MOL0     O   59   4.176   8.964   2.198  0.1148  0.4931 -0.1849
  742MOL0     C   60   4.169   9.073   2.117 -0.4308 -0.4294 -0.6354
  742MOL0     C   61   4.049   9.124   2.040 -0.1131  0.7856  0.1122
  742MOL0     C   62   4.069   9.230   1.955  0.3329  0.6309  0.0271
  742MOL0     C   63   3.950   9.269   1.877 -0.1971 -0.0362  0.3672
  742MOL0     C   64   4.189   9.306   1.964 -0.5072 -0.4957  0.3601
  742MOL0     C   65   4.214   9.447   1.907  0.0712  0.0206 -0.5683
  742MOL0     O   66   4.324   9.514   1.952  0.3360 -0.2196  0.0453
  742MOL0     C   67   4.368   9.618   1.878 -0.1471  0.5291 -0.1131
  742MOL0     C   68   4.437   9.589   1.761 -0.5444 -0.1354  0.2274
  742MOL0     C   69   4.509   9.687   1.682 -0.4203  0.4002 -0.2569
  742MOL0     C   70   4.495   9.822   1.717  0.6192 -0.0227 -0.7151
  742MOL0     O   71   4.548   9.924   1.652 -0.1970 -1.1515  0.2909
  742MOL0     C   72   4.568   9.928   1.512 -0.3241  0.9477  0.1896
  742MOL0     C   73   4.599  10.057   1.450  0.0312 -0.0278 -0.3942
  742MOL0     C   74   4.755  10.092   1.453 -0.2913  0.1048  0.1401
  742MOL0     C   75   4.813  10.100   1.603  0.1914  0.6978  0.0363
  742MOL0     C   76   4.963  10.120   1.587 -0.4796  0.2397 -0.1329
  742MOL0     C   77   5.040  10.144   1.725 -0.2876 -0.3283 -0.4430
  742MOL0     C   78   5.183  10.194   1.720 -0.0467 -0.0191  0.9586
  742MOL0     C   79   5.230  10.231   1.863  0.3959 -0.7540  0.7021
  742MOL0    Cl   80   5.121  10.370   1.930  0.1465  0.0861 -0.8050
  742MOL0     C   81   4.416   9.860   1.832 -0.1110 -0.3997 -0.5750
  742MOL0     C   82   4.351   9.755   1.909 -1.2527 -0.3955  0.0250
  742MOL0     O   83   4.122   9.494   1.834 -0.6976  0.4856 -0.3234
  742MOL0     C   84   4.295   9.258   2.050  0.1942  0.0671  0.1179
  742MOL0     C   85   4.284   9.147   2.126  0.8127  0.8701  0.2749
  742MOL0     N   86   3.696   8.546   2.389 -0.0416 -0.0036 -0.9593
  742MOL0     N   87   3.608   8.479   2.464 -0.5208 -0.3774 -0.2024
  742MOL0     C   88   3.354   8.220   3.472 -0.3981 -0.3967 -0.1054
  742MOL0     C   89   3.307   8.102   3.419  1.3553  0.1906 -0.2490
  742MOL0     C   90   2.930   7.907   3.536 -0.0607  0.3469  0.0570
  742MOL0     C   91   2.899   7.828   3.657 -0.0896 -0.0602 -0.0480
  742MOL0     C   92   2.764   7.822   3.700 -0.9237  0.3120 -0.4222
  742MOL0     C   93   2.658   7.896   3.642 -0.3325 -0.0112 -0.4347
  742MOL0     O   94   2.537   7.869   3.678  0.6050 -0.3247 -0.0934
  742MOL0     C   95   2.500   7.763   3.774  0.2488  1.4152 -0.7834
  742MOL0     C   96   2.345   7.787   3.807 -1.5715 -0.0369 -0.2561
  742MOL0     C   97   2.247   7.722   3.699 -0.2974 -0.4903  0.8164
  742MOL0     C   98   2.282   7.770   3.554  0.5588 -0.1424 -0.2836
  742MOL0     C   99   2.173   7.721   3.474  0.6347 -0.3387  0.5569
  742MOL0     C  100   2.089   7.691   3.389  0.1885  0.0517  0.0112
  742MOL0     C  101   2.684   7.974   3.535  0.8560 -0.8987 -0.5921
  742MOL0     C  102   2.819   7.966   3.478  0.2210  0.4875  0.0742
  742MOL0     H  103   2.976   8.185   3.450  0.6464 -1.6054  0.4282
  742MOL0     H  104   3.056   8.398   3.492 -1.2632 -0.3246  0.1679
  742MOL0     H  105   3.178   8.570   3.407  0.8585  3.2485  3.2887
  742MOL0     H  106   3.322   8.650   3.457 -1.9412 -0.2654  2.0459
  742MOL0     H  107   3.360   8.423   3.265 -0.3288  0.3373 -1.5239
  742MOL0     H  108   3.246   8.536   3.199 -1.7719  1.6190  1.9904
  742MOL0     H  109   3.399   8.721   3.227 -1.0702  0.0209  4.5553
  742MOL0     H  110   3.513   8.625   3.335  2.2519 -0.6084 -0.6155
  742MOL0     H  111   3.627   8.646   3.119 -0.6190  1.5876 -1.4148
  742MOL0     H  112   3.555   8.481   3.132 -1.0162 -0.7851 -0.4005
  742MOL0     H  113   3.380   8.549   2.977  0.4727 -1.4947 -0.0944
  742MOL0     H  114   3.420   8.714   2.999 -3.1984 -1.8358  3.2363
  742MOL0     H  115   3.498   8.639   2.780  0.3814  3.8101  1.8224
  742MOL0     H  116   3.654   8.646   2.866  0.8703 -1.4364  3.8365
  742MOL0     H  117   3.692   8.424   2.878 -0.2971 -0.9442  1.7066
  742MOL0     H  118   3.528   8.384   2.901 -1.2671  1.7702  2.8906
  742MOL0     H  119   3.475   8.414   2.666  0.0815 -0.3448  0.2165
  742MOL0     H  120   3.599   8.290   2.688  3.7301  0.5247 -1.3791
  742MOL0     H  121   3.850   8.542   2.681 -3.5585  0.0017  2.7271
  742MOL0     H  122   3.941   8.770   2.461  2.5177 -0.1625  0.6802
  742MOL0     H  123   4.019   8.631   2.491  0.7939  1.7281 -0.5239
  742MOL0     H  124   3.899   8.653   2.220  1.1437  3.7425 -2.4344
  742MOL0     H  125   4.021   8.538   2.287  1.3705  0.5471 -1.1592
  742MOL0     H  126   4.139   8.691   2.157  1.9509 -0.5825  0.1302
  742MOL0     H  127   4.168   8.737   2.329  0.5740 -1.3481 -1.6567
  742MOL0     H  128   3.982   8.929   2.284  0.3082 -0.9856  0.2586
  742MOL0     H  129   3.999   8.886   2.113  0.4387 -0.0384 -1.1185
  742MOL0     H  130   3.955   9.070   2.036  0.3348  0.0121 -0.5925
  742MOL0     H  131   3.971   9.258   1.770  2.7218  0.7520  0.7714
  742MOL0     H  132   3.861   9.214   1.909  0.1242  1.1117  3.5720
  742MOL0     H  133   3.913   9.371   1.894 -1.3976 -0.4377  0.2918
  742MOL0     H  134   4.435   9.484   1.734  2.8552 -0.9009  2.4197
  742MOL0     H  135   4.578   9.662   1.602  2.1591 -1.9492  2.4282
  742MOL0     H  136   4.642   9.852   1.485 -1.3322 -0.3571  1.0139
  742MOL0     H  137   4.476   9.899   1.461 -2.2092  0.4750  3.5709
  742MOL0     H  138   4.575  10.062   1.344 -1.6351 -1.7047 -0.1394
  742MOL0     H  139   4.530  10.119   1.509  0.4975 -0.1164  0.2583
  742MOL0     H  140   4.769  10.185   1.397 -0.4545 -1.2953 -2.4017
  742MOL0     H  141   4.810  10.017   1.395 -2.5282  0.1081 -2.1406
  742MOL0     H  142   4.786  10.175   1.678  2.0802  0.8589  0.6128
  742MOL0     H  143   4.783  10.011   1.659  1.0921  1.7984  2.4029
  742MOL0     H  144   4.988  10.207   1.525  1.5609 -0.5544 -0.4936
  742MOL0     H  145   5.005  10.032   1.537 -1.9605  0.6376 -2.1876
  742MOL0     H  146   4.984  10.221   1.779  0.0730  0.5076 -1.2155
  742MOL0     H  147   5.036  10.053   1.786  1.5307  0.9116  1.7006
  742MOL0     H  148   5.187  10.279   1.651 -0.1363 -1.8823 -1.4509
  742MOL0     H  149   5.243  10.114   1.677 -3.5185 -1.8978 -0.8328
  742MOL0     H  150   5.324  10.284   1.847 -0.5005  1.4121  2.1841
  742MOL0     H  151   5.249  10.150   1.933  1.5987 -2.7740 -1.7658
  742MOL0     H  152   4.392   9.962   1.858  0.4867 -0.8283  1.9996
  742MOL0     H  153   4.287   9.778   1.993  1.5328  1.1989  1.8532
  742MOL0     H  154   4.385   9.317   2.061  1.0253 -1.0218 -0.6661
  742MOL0     H  155   4.365   9.124   2.195  0.2765  0.9578  0.9489
  742MOL0     H  156   3.462   8.232   3.468 -0.5136  0.7872 -0.1023
  742MOL0     H  157   3.364   8.022   3.372 -1.7536 -1.8009 -0.9459
  742MOL0     H  158   2.968   7.761   3.707 -1.9782 -2.6449 -0.6543
  742MOL0     H  159   2.740   7.757   3.783  2.4045  2.0330  2.1062
  742MOL0     H  160   2.502   7.660   3.736  3.1381  0.4280  1.6806
  742MOL0     H  161   2.541   7.753   3.875 -2.2958  3.4015  0.5840
  742MOL0     H  162   2.331   7.895   3.818 -2.4756 -0.0041 -1.4645
  742MOL0     H  163   2.320   7.737   3.901 -0.4299  1.6616  0.9846
  742MOL0     H  164   2.153   7.766   3.735  0.9256  1.5146  1.7636
  742MOL0     H  165   2.230   7.614   3.701 -0.9033 -0.4042  0.6668
  742MOL0     H  166   2.378   7.733   3.516  1.7005  1.3061  1.0857
  742MOL0     H  167   2.297   7.878   3.547  0.5554  0.2490  3.7632
  742MOL0     H  168   2.023   7.650   3.315  0.9479  1.2654 -1.4031
  742MOL0     H  169   2.592   8.019   3.499  0.9224  0.5353  0.8840
  742MOL0     H  170   2.847   8.007   3.381 -0.0880 -2.5112 -1.4214
  743MOL0     O  171   6.537   8.427  10.212  0.4265 -0.1918  0.8057
  743MOL0     C  172   6.576   8.336  10.276  0.7145  0.8988 -0.7835
  743MOL0     O  173   6.497   8.238  10.328  1.2525  0.6694  0.6625
  743MOL0     C  174   6.360   8.240  10.303 -0.0854  0.2684 -0.3472
  743MOL0     C  175   6.286   8.352  10.347  0.5355 -0.0020 -0.1111
  743MOL0     C  176   6.150   8.334  10.365 -0.9387  0.4763 -0.2827
  743MOL0     C  177   6.078   8.225  10.304 -0.8973 -0.0677  0.9076
  743MOL0     O  178   5.941   8.239  10.304  0.2498 -0.7212 -0.2109
  743MOL0     C  179   5.871   8.170  10.205 -0.2574  0.2873  0.1842
  743MOL0     C  180   5.900   8.230  10.069 -0.6896 -0.6195 -0.6090
  743MOL0     C  181   5.810   8.183   9.958 -0.4958  0.4182 -1.0482
  743MOL0     C  182   5.837   8.045   9.894  0.1246  0.3552 -0.3709
  743MOL0     C  183   5.741   8.014   9.772 -0.5520  0.1306 -0.4429
  743MOL0     C  184   5.784   7.872   9.726  0.1640 -0.4676 -0.2262
  743MOL0     C  185   5.728   7.852   9.581  0.6294  0.6819  0.3482
  743MOL0     C  186   5.783   7.714   9.527  0.3358  0.2919 -0.6826
  743MOL0     N  187   5.728   7.662   9.401  0.1907 -0.0120  0.8131
  743MOL0     C  188   5.801   7.605   9.302 -0.5726 -0.6369 -0.2689
  743MOL0     C  189   5.717   7.538   9.229 -0.6105 -1.1518  0.8746
  743MOL0     C  190   5.748   7.449   9.115 -0.2498  0.1478 -0.4794
  743MOL0     C  191   5.618   7.404   9.041  0.5809 -0.3294  0.6290
  743MOL0     C  192   5.662   7.302   8.928  0.0478 -0.3120 -0.4753
  743MOL0     C  193   5.698   7.171   9.005  0.5281 -0.0474  0.1843
  743MOL0     O  194   5.837   7.153   9.018 -0.1039  0.4764 -0.0978
  743MOL0     C  195   5.911   7.080   8.928 -0.7805 -0.1122  1.1747
  743MOL0     C  196   5.864   7.025   8.808 -0.2731 -0.7634  0.4651
  743MOL0     C  197   5.942   6.941   8.729 -0.6300  0.1566 -0.6333
  743MOL0     C  198   5.889   6.895   8.591  0.3747 -0.7675 -0.1481
  743MOL0     C  199   6.060   6.887   8.781  0.8263 -0.3949 -0.2323
  743MOL0     C  200   6.138   6.789   8.720 -1.0061 -0.1696  0.4205
  743MOL0     O  201   6.077   6.697   8.634 -0.0048  0.3322  0.1770
  743MOL0     C  202   6.151   6.599   8.562  0.5597  0.2202 -0.2515
  743MOL0     C  203   6.086   6.554   8.441 -0.3959 -0.1765 -0.3330
  743MOL0     C  204   6.153   6.468   8.355  0.5055  0.4012 -0.6537
  743MOL0     C  205   6.283   6.425   8.389 -0.2479  1.5754  0.1251
  743MOL0     O  206   6.352   6.341   8.300  0.1107 -0.3829 -0.1877
  743MOL0     C  207   6.280   6.253   8.207  0.2478  0.3717 -0.3464
  743MOL0     C  208   6.358   6.154   8.116  0.0269 -0.0012 -0.2364
  743MOL0     C  209   6.435   6.052   8.207  0.4153 -0.6220 -0.3301
  743MOL0     C  210   6.594   6.060   8.183 -0.3361 -0.2953 -0.7477
  743MOL0     C  211   6.665   5.974   8.293  0.7073 -0.4287  0.7108
  743MOL0     C  212   6.783   5.897   8.247 -1.1706  0.0981  0.3195
  743MOL0     C  213   6.876   6.000   8.196 -0.5930 -0.2581 -1.2489
  743MOL0     C  214   6.996   5.937   8.127 -0.7011 -0.5924 -0.9715
  743MOL0    Cl  215   7.118   5.927   8.267 -0.3175 -0.0919 -0.1032
  743MOL0     C  216   6.347   6.471   8.499 -0.7448  0.1578 -1.1670
  743MOL0     C  217   6.281   6.554   8.591 -0.5490 -0.3584 -0.0545
  743MOL0     O  218   6.257   6.812   8.727  0.5692 -0.2860  0.3467
  743MOL0     C  219   6.115   6.962   8.890  0.0281  0.4785  0.4167
  743MOL0     C  220   6.038   7.054   8.960 -0.5975  1.0313 -0.4172
  743MOL0     N  221   5.587   7.550   9.287 -0.0881 -0.3528  0.3999
  743MOL0     N  222   5.597   7.628   9.383  0.6936  0.1712 -0.2678
  743MOL0     C  223   6.158   8.130  10.244  0.6845  0.3241  0.1788
  743MOL0     C  224   6.295   8.126  10.264 -0.3752 -0.3338  0.2674
  743MOL0     C  225   6.715   8.338  10.320 -0.8051  0.5434 -0.2466
  743MOL0     C  226   6.780   8.233  10.383  0.5333  0.3910 -0.1527
  743MOL0     C  227   6.916   8.233  10.434 -0.1373 -1.3697  0.3860
  743MOL0     C  228   6.983   8.356  10.423 -0.7818 -0.4089  0.1257
  743MOL0     O  229   7.112   8.356  10.468 -0.3007 -0.0230  0.4038
  743MOL0     C  230   7.198   8.475  10.454 -0.2377  0.9615  0.2768
  743MOL0     C  231   7.343   8.446  10.495  0.3637  0.1232 -0.6316
  743MOL0     C  232   7.408   8.340  10.412  0.4259 -0.6539  0.1793
  743MOL0     C  233   7.563   8.370  10.399  0.6022 -0.1250 -0.3844
  743MOL0     C  234   7.631   8.259  10.338 -1.5197  0.0240  0.5180
  743MOL0     C  235   7.689   8.171  10.268 -0.2277  0.3804 -0.2363
  743MOL0     C  236   6.920   8.467  10.360  0.2428  0.1877 -0.3472
  743MOL0     C  237   6.795   8.455  10.312 -0.1948 -0.8477  0.3372
  743MOL0     H  238   6.328   8.434  10.404  0.9068 -2.6522  3.8271
  743MOL0     H  239   6.102   8.419  10.411  2.2152  3.0543 -1.4152
  743MOL0     H  240   5.894   8.063  10.217  4.1900  0.7594 -1.8895
  743MOL0     H  241   5.765   8.192  10.215  0.2705  2.2480  2.4150
  743MOL0     H  242   5.880   8.338  10.074 -0.8099 -0.7096  1.7425
  743MOL0     H  243   6.006   8.218  10.045 -1.1571 -1.4670 -2.3815
  743MOL0     H  244   5.705   8.201   9.985 -0.2212  2.5540 -1.2692
  743MOL0     H  245   5.837   8.266   9.892  6.6745 -1.0067 -0.7180
  743MOL0     H  246   5.936   8.043   9.848  0.8193  1.3590  0.9849
  743MOL0     H  247   5.829   7.972   9.976 -2.9290  1.9881  0.9652
  743MOL0     H  248   5.635   8.006   9.801 -0.4604 -0.2115 -0.1969
  743MOL0     H  249   5.743   8.091   9.695 -2.9310  2.2610  1.4466
  743MOL0     H  250   5.893   7.859   9.730  0.7816  3.0879 -1.4616
  743MOL0     H  251   5.751   7.796   9.797  4.2701  0.2132  2.7884
  743MOL0     H  252   5.619   7.859   9.571  0.8157  0.9992 -2.0480
  743MOL0     H  253   5.783   7.923   9.519  0.8319  0.9510  0.8335
  743MOL0     H  254   5.746   7.639   9.598 -0.1874 -1.2483 -2.4692
  743MOL0     H  255   5.892   7.708   9.519  0.8140 -0.8097  3.8954
  743MOL0     H  256   5.909   7.613   9.292 -0.8285  1.4543 -2.0505
  743MOL0     H  257   5.822   7.489   9.045 -1.1020 -0.3007 -1.6722
  743MOL0     H  258   5.789   7.357   9.159  1.1088 -0.2142 -2.3790
  743MOL0     H  259   5.594   7.500   8.993  2.0021 -0.2616  0.0099
  743MOL0     H  260   5.542   7.373   9.114  1.1461  0.2348  1.4717
  743MOL0     H  261   5.746   7.338   8.869 -1.4716  4.4178 -0.1686
  743MOL0     H  262   5.574   7.287   8.864 -0.0004 -3.0548  0.0863
  743MOL0     H  263   5.653   7.080   8.965  0.6513 -1.3905  2.8802
  743MOL0     H  264   5.663   7.178   9.108  0.2097  1.6147 -0.0109
  743MOL0     H  265   5.768   7.045   8.761 -0.2067  1.4202  1.1723
  743MOL0     H  266   5.802   6.954   8.562  0.1529  0.0804  2.0674
  743MOL0     H  267   5.975   6.890   8.524  0.7482  3.3231 -0.1742
  743MOL0     H  268   5.852   6.792   8.587 -1.8545 -0.1623  2.0308
  743MOL0     H  269   5.986   6.577   8.406 -0.4895  1.4804  0.9084
  743MOL0     H  270   6.105   6.439   8.262 -0.8752  2.3945 -0.6322
  743MOL0     H  271   6.200   6.202   8.262  0.0459  1.1013  0.0505
  743MOL0     H  272   6.242   6.315   8.125  0.8639 -3.1416 -3.5347
  743MOL0     H  273   6.289   6.096   8.054  0.1799 -3.4869  2.5390
  743MOL0     H  274   6.421   6.204   8.041 -1.0918  3.4869  0.9294
  743MOL0     H  275   6.384   5.959   8.180 -3.2566  1.6675 -2.1409
  743MOL0     H  276   6.409   6.075   8.311 -1.7572 -3.0334 -0.2395
  743MOL0     H  277   6.623   6.019   8.086  3.2304 -0.1894  0.1482
  743MOL0     H  278   6.630   6.163   8.183 -0.9294 -0.0317  1.4311
  743MOL0     H  279   6.597   5.895   8.327  0.7484 -2.0302 -2.5952
  743MOL0     H  280   6.686   6.039   8.378 -2.5467  1.2641  0.3606
  743MOL0     H  281   6.830   5.838   8.326  0.0451  0.6083  0.0125
  743MOL0     H  282   6.754   5.822   8.173 -2.7399  1.1969 -0.2360
  743MOL0     H  283   6.915   6.067   8.273 -3.2603 -1.2681  1.1266
  743MOL0     H  284   6.817   6.050   8.118 -1.5144 -1.0159 -1.0433
  743MOL0     H  285   7.028   6.002   8.045 -2.4784  2.1126  0.3029
  743MOL0     H  286   6.974   5.836   8.092  0.5921 -2.0351  2.0519
  743MOL0     H  287   6.441   6.433   8.538 -0.1382  3.9761  1.7845
  743MOL0     H  288   6.322   6.587   8.686 -0.0742  2.8190 -1.2386
  743MOL0     H  289   6.215   6.949   8.929 -0.4296  0.5073  1.6345
  743MOL0     H  290   6.078   7.090   9.054  2.3325  0.5259 -1.3645
  743MOL0     H  291   6.112   8.045  10.195 -1.1395  0.7251  1.1324
  743MOL0     H  292   6.359   8.044  10.232 -1.1020  0.1422 -2.7583
  743MOL0     H  293   6.730   8.139  10.405 -0.8808  1.6106  2.1690
  743MOL0     H  294   6.965   8.158  10.495  1.6863  0.7405  1.6812
  743MOL0     H  295   7.200   8.523  10.356 -0.6110 -0.5146 -0.4759
  743MOL0     H  296   7.153   8.545  10.525  1.1941 -0.3978  2.6512
  743MOL0     H  297   7.332   8.420  10.601 -2.3302  3.8227  0.2224
  743MOL0     H  298   7.396   8.541  10.491 -0.3219  0.6694  1.6632
  743MOL0     H  299   7.362   8.360  10.315  2.0766  1.2160 -0.2616
  743MOL0     H  300   7.385   8.238  10.445  1.9189 -1.2911 -0.6631
  743MOL0     H  301   7.592   8.371  10.504 -2.2475 -0.7273  0.5006
  743MOL0     H  302   7.583   8.460  10.340 -2.8302  0.7812 -0.3793
  743MOL0     H  303   7.732   8.091  10.210 -1.3665  0.1504 -0.7868
  743MOL0     H  304   6.971   8.563  10.358  0.5057  0.0543 -2.5336
  743MOL0     H  305   6.737   8.542  10.283  0.7039  0.4322  2.2244
  744MOL0     O  306   8.735   5.200   8.698 -0.3646  0.2650 -0.2905
  744MOL0     C  307   8.712   5.226   8.584 -0.7007  0.5739  0.2437
  744MOL0     O  308   8.658   5.338   8.540 -0.4080 -0.6182 -0.0633
  744MOL0     C  309   8.630   5.450   8.611 -0.5101 -0.1154 -0.5597
  744MOL0     C  310   8.558   5.544   8.548  0.6104 -1.2175  0.1883
  744MOL0     C  311   8.536   5.672   8.604  0.4309 -0.2115  0.0623
  744MOL0     C  312   8.595   5.709   8.723 -0.3311 -0.7256  0.7928
  744MOL0     O  313   8.590   5.830   8.787 -0.5762  0.5013  0.7480
  744MOL0     C  314   8.530   5.938   8.712  0.5049  0.2908  0.1650
  744MOL0     C  315   8.550   6.061   8.783  0.7901  0.2825 -0.0589
  744MOL0     C  316   8.427   6.087   8.872 -0.1141  0.4173  0.5359
  744MOL0     C  317   8.449   6.226   8.944 -0.3422  0.5523  0.1030
  744MOL0     C  318   8.322   6.286   9.003  0.2777  0.5852  0.2146
  744MOL0     C  319   8.349   6.420   9.067  0.2027  0.3504  0.2079
  744MOL0     C  320   8.227   6.487   9.139  0.6169  0.0214 -0.7740
  744MOL0     C  321   8.118   6.517   9.036  0.1096  0.5704 -0.2542
  744MOL0     N  322   7.998   6.565   9.094  0.6226 -0.2490 -0.1509
  744MOL0     C  323   7.921   6.678   9.054 -0.2339  1.1991  0.0196
  744MOL0     C  324   7.816   6.674   9.125  0.1922  0.9639  0.3412
  744MOL0     C  325   7.700   6.763   9.103  0.3732 -0.0438  0.6829
  744MOL0     C  326   7.703   6.892   9.180  0.2172  0.8236 -0.3150
  744MOL0     C  327   7.702   7.024   9.111  0.2100  0.2347 -0.0066
  744MOL0     C  328   7.804   7.040   9.001 -0.0705 -0.5799  0.5502
  744MOL0     O  329   7.769   6.983   8.876 -0.0615  0.1268  0.5063
  744MOL0     C  330   7.849   7.009   8.767 -0.3519  0.2104 -0.0633
  744MOL0     C  331   7.964   7.092   8.764  0.7630  0.1020  0.6903
  744MOL0     C  332   8.051   7.098   8.653 -0.0483  0.6176  0.7242
  744MOL0     C  333   8.183   7.166   8.654  0.0219  0.1910  0.3665
  744MOL0     C  334   8.019   7.003   8.548 -0.7476 -0.4832 -0.0812
  744MOL0     C  335   8.112   6.984   8.429  0.1460 -0.2834 -0.8345
  744MOL0     O  336   8.162   6.853   8.408  0.9516  0.4749 -0.8305
  744MOL0     C  337   8.214   6.825   8.295  0.1068  0.7668  0.1650
  744MOL0     C  338   8.351   6.818   8.281  0.2099 -0.2741  1.3057
  744MOL0     C  339   8.409   6.789   8.159 -0.5373 -0.1386 -0.5037
  744MOL0     C  340   8.334   6.730   8.049  0.5607 -0.2032 -1.3755
  744MOL0     O  341   8.403   6.672   7.939  0.0400 -0.6431  0.1269
  744MOL0     C  342   8.318   6.595   7.858  1.2807  0.6667  0.6207
  744MOL0     C  343   8.398   6.533   7.746 -0.0745  0.0469 -1.0627
  744MOL0     C  344   8.437   6.625   7.631  0.0114 -0.2249 -0.4052
  744MOL0     C  345   8.532   6.560   7.527 -0.3787 -0.0330 -0.8773
  744MOL0     C  346   8.555   6.657   7.411 -0.2939  0.5247 -0.5905
  744MOL0     C  347   8.637   6.590   7.298 -0.3497 -0.0312 -0.7359
  744MOL0     C  348   8.767   6.519   7.328  0.1380  0.0306  0.5533
  744MOL0     C  349   8.843   6.480   7.195  0.1199  0.3804  1.2156
  744MOL0    Cl  350   8.978   6.366   7.233  0.6290 -0.3627 -0.3244
  744MOL0     C  351   8.189   6.732   8.066  0.7314  0.0083  0.4103
  744MOL0     C  352   8.137   6.779   8.188  0.2706  0.7513 -0.2755
  744MOL0     O  353   8.131   7.082   8.352 -0.3199 -0.6632  0.1997
  744MOL0     C  354   7.900   6.923   8.555  0.5984 -1.9549  0.0798
  744MOL0     C  355   7.814   6.932   8.665 -0.5132 -0.0347  0.1919
  744MOL0     N  356   7.816   6.586   9.226  0.1664 -0.3864 -0.7934
  744MOL0     N  357   7.930   6.519   9.206 -0.0216 -0.0573  0.5735
  744MOL0     C  358   8.675   5.617   8.792 -0.7547  0.0039  0.5324
  744MOL0     C  359   8.689   5.491   8.736  0.5852  0.3655 -0.4941
  744MOL0     C  360   8.747   5.122   8.480 -0.2638  0.1293  0.0975
  744MOL0     C  361   8.813   5.014   8.528 -0.1927  0.6820 -0.5486
  744MOL0     C  362   8.851   4.913   8.435  0.9008  0.1285 -0.4525
  744MOL0     C  363   8.819   4.929   8.302  0.3650 -0.1727 -0.9033
  744MOL0     O  364   8.853   4.832   8.209 -0.1812  0.2918 -0.5290
  744MOL0     C  365   8.888   4.695   8.245  0.2197 -0.0209 -0.6471
  744MOL0     C  366   9.015   4.641   8.180 -0.4513  0.8397  0.4800
  744MOL0     C  367   9.142   4.690   8.239 -0.6555  0.4631  0.8293
  744MOL0     C  368   9.253   4.626   8.151 -0.4076  0.1584 -1.0156
  744MOL0     C  369   9.244   4.478   8.121  0.7619  0.4209  0.2605
  744MOL0     C  370   9.235   4.358   8.105  0.6704 -0.0749 -0.4010
  744MOL0     C  371   8.758   5.044   8.255  0.2665 -0.0095 -0.4451
  744MOL0     C  372   8.710   5.140   8.348 -0.4622  0.1102 -0.1085
  744MOL0     H  373   8.512   5.497   8.462 -0.3436 -0.4231  0.2530
  744MOL0     H  374   8.454   5.723   8.554 -0.6127  0.4329  2.2752
  744MOL0     H  375   8.573   5.938   8.612 -1.7659 -0.3310 -0.8776
  744MOL0     H  376   8.422   5.919   8.703  0.7445 -0.8942 -0.4170
  744MOL0     H  377   8.648   6.072   8.830  0.4937 -1.5248  1.0843
  744MOL0     H  378   8.554   6.131   8.699  1.4544 -1.4387 -1.5191
  744MOL0     H  379   8.337   6.087   8.809 -2.0264  0.5354  3.0920
  744MOL0     H  380   8.415   6.012   8.952 -0.3647 -0.0289  0.0851
  744MOL0     H  381   8.519   6.216   9.027 -0.0858 -0.0093 -0.1767
  744MOL0     H  382   8.485   6.293   8.865 -0.4600  2.1012  1.3095
  744MOL0     H  383   8.257   6.303   8.916  2.7691 -0.5371 -2.0069
  744MOL0     H  384   8.273   6.215   9.070 -2.0433  2.1557  0.3419
  744MOL0     H  385   8.431   6.391   9.133  2.1599 -0.5793 -2.4349
  744MOL0     H  386   8.387   6.490   8.991 -4.4615  2.5081 -0.4609
  744MOL0     H  387   8.190   6.437   9.229 -0.0008  1.2461 -0.3325
  744MOL0     H  388   8.248   6.586   9.180 -3.0168  0.6020 -0.0281
  744MOL0     H  389   8.089   6.426   8.983 -2.6670  0.4997  1.1718
  744MOL0     H  390   8.156   6.586   8.962  2.0625  0.1135  0.2678
  744MOL0     H  391   7.931   6.746   8.970 -1.0026 -0.7448 -1.7127
  744MOL0     H  392   7.691   6.782   8.996  0.8070 -1.4696  0.3636
  744MOL0     H  393   7.609   6.711   9.135 -0.2240  0.9101  0.5596
  744MOL0     H  394   7.798   6.891   9.234  0.6148 -0.1820 -1.0039
  744MOL0     H  395   7.628   6.889   9.260  0.5811  1.9620  0.0895
  744MOL0     H  396   7.732   7.097   9.187  1.6756  0.6922 -0.9814
  744MOL0     H  397   7.604   7.050   9.072  0.3707  0.3446 -0.3458
  744MOL0     H  398   7.894   6.992   9.040 -1.7227 -3.3841  1.1650
  744MOL0     H  399   7.814   7.149   8.989  1.5019 -0.9558 -2.6737
  744MOL0     H  400   7.987   7.134   8.862 -0.3523  1.1708  0.5223
  744MOL0     H  401   8.175   7.263   8.604  1.3558  0.4747  0.6607
  744MOL0     H  402   8.211   7.187   8.758  0.5564 -3.3972  1.0566
  744MOL0     H  403   8.265   7.104   8.616 -0.0199 -0.3627  1.1676
  744MOL0     H  404   8.398   6.862   8.368 -3.5300  3.0384  1.9590
  744MOL0     H  405   8.516   6.805   8.166 -0.8281  1.6449  0.2550
  744MOL0     H  406   8.281   6.516   7.924  2.0257  0.4575  0.7931
  744MOL0     H  407   8.246   6.663   7.810  1.3341  1.2358  1.3342
  744MOL0     H  408   8.484   6.485   7.794 -1.2795  0.2955  1.4860
  744MOL0     H  409   8.340   6.449   7.707  3.0525 -3.4140  0.9581
  744MOL0     H  410   8.485   6.720   7.658 -1.0170  0.6666 -1.5714
  744MOL0     H  411   8.350   6.674   7.586 -0.5864 -0.3683  0.5577
  744MOL0     H  412   8.625   6.555   7.585 -0.6756  2.6544 -0.0632
  744MOL0     H  413   8.486   6.463   7.504 -4.0018  1.0839  0.9900
  744MOL0     H  414   8.609   6.739   7.458 -0.4865  0.5839 -0.4731
  744MOL0     H  415   8.463   6.691   7.361  1.3617 -0.5685 -4.7827
  744MOL0     H  416   8.567   6.522   7.249 -1.9184 -0.0009  1.3010
  744MOL0     H  417   8.662   6.672   7.229 -1.3068 -1.1443 -2.4692
  744MOL0     H  418   8.735   6.429   7.381 -0.9863  0.3140  0.3963
  744MOL0     H  419   8.844   6.566   7.388  0.0046 -0.8065  1.4068
  744MOL0     H  420   8.884   6.568   7.146  0.1408  0.2546  1.0074
  744MOL0     H  421   8.766   6.440   7.128  1.3730  1.8004 -1.1964
  744MOL0     H  422   8.116   6.688   7.998  1.4419 -1.5302  0.6203
  744MOL0     H  423   8.031   6.768   8.210  0.8045 -0.2355  2.1443
  744MOL0     H  424   7.893   6.860   8.467  0.4775 -2.5720  0.5235
  744MOL0     H  425   7.731   6.863   8.677 -1.2855  1.1745  2.4051
  744MOL0     H  426   8.741   5.641   8.875 -0.3327 -2.6535  1.0442
  744MOL0     H  427   8.765   5.431   8.785 -1.6671 -2.2951  0.0094
  744MOL0     H  428   8.838   4.992   8.632 -1.1144  0.1972 -0.4182
  744MOL0     H  429   8.897   4.830   8.488  1.0179  0.7902  0.4955
  744MOL0     H  430   8.904   4.678   8.352  3.0629  0.8176 -0.8717
  744MOL0     H  431   8.804   4.628   8.225 -0.5027  1.5765 -3.5327
  744MOL0     H  432   9.007   4.639   8.070 -0.0173 -0.4316  0.4606
  744MOL0     H  433   9.016   4.538   8.215  0.7995  0.7430  0.2147
  744MOL0     H  434   9.141   4.658   8.343  1.9150 -1.6278  0.3097
  744MOL0     H  435   9.148   4.799   8.246  2.3990  0.3119  1.6080
  744MOL0     H  436   9.348   4.626   8.204 -1.1835 -0.2318  0.4466
  744MOL0     H  437   9.264   4.681   8.057 -0.6047  2.3771  0.2059
  744MOL0     H  438   9.214   4.257   8.078 -2.2902  0.7588 -1.6433
  744MOL0     H  439   8.724   5.055   8.153  1.0678  1.3881 -0.5939
  744MOL0     H  440   8.644   5.220   8.313  1.7154  1.9243 -0.3135
  745MOL0     O  441   7.089   0.937   1.811 -0.4431  0.3361 -0.0633
  745MOL0     C  442   7.078   1.018   1.903  0.4359  0.1758  0.9965
  745MOL0     O  443   7.078   1.155   1.887 -0.8217  0.0848  0.6629
  745MOL0     C  444   7.146   1.195   1.774 -0.1092 -1.0147 -0.5316
  745MOL0     C  445   7.091   1.212   1.650 -0.9636 -0.5340  0.9606
  745MOL0     C  446   7.173   1.246   1.540  1.0111  0.2704  0.1024
  745MOL0     C  447   7.312   1.242   1.547 -0.4853  0.4839  0.5417
  745MOL0     O  448   7.386   1.270   1.437 -0.2401  0.5766  0.4658
  745MOL0     C  449   7.390   1.146   1.344 -0.0507 -0.7885 -0.6176
  745MOL0     C  450   7.505   1.179   1.249  0.5842 -0.3571 -0.5572
  745MOL0     C  451   7.559   1.059   1.174  0.0368  0.4796  0.3674
  745MOL0     C  452   7.683   1.084   1.090 -0.3154 -0.5272  0.3747
  745MOL0     C  453   7.650   1.155   0.952 -0.0445 -0.5592 -0.0086
  745MOL0     C  454   7.780   1.172   0.866  0.2184 -0.3756 -0.3768
  745MOL0     C  455   7.767   1.245   0.737  0.0568  0.2600 -0.7487
  745MOL0     C  456   7.791   1.398   0.747  1.5647  0.5482 -0.0916
  745MOL0     N  457   7.761   1.467   0.619 -0.2435 -0.5960 -0.2544
  745MOL0     C  458   7.850   1.473   0.511  0.5823  0.2176  0.5353
  745MOL0     C  459   7.773   1.536   0.403 -0.1964 -0.0850 -0.0622
  745MOL0     C  460   7.812   1.547   0.262  0.3141 -0.4725 -0.8789
  745MOL0     C  461   7.906   1.654   0.226  0.4565  0.7727  0.9056
  745MOL0     C  462   7.882   1.693   0.080  0.6036 -0.6289 -0.1955
  745MOL0     C  463   8.009   1.762   0.009 -0.1531  0.1539  1.0302
  745MOL0     O  464   8.053   1.882   0.076 -0.3885  0.1887  0.4964
  745MOL0     C  465   7.958   1.985   0.093 -0.0447  0.5230 -0.0679
  745MOL0     C  466   7.993   2.090   0.180 -0.4095 -0.3517 -0.6800
  745MOL0     C  467   7.901   2.200   0.195 -0.7743  0.5970 -0.9279
  745MOL0     C  468   7.948   2.307   0.289 -0.4331 -0.5515  1.0558
  745MOL0     C  469   7.785   2.204   0.110 -0.7376 -0.5540 -1.1782
  745MOL0     C  470   7.699   2.322   0.119 -0.5007  0.0340 -0.0511
  745MOL0     O  471   7.669   2.366  -0.001 -0.2691 -0.2724  0.2850
  745MOL0     C  472   7.632   2.491  -0.018 -0.1418 -1.2216 -0.2253
  745MOL0     C  473   7.517   2.522  -0.094  0.1622  0.4129  0.5248
  745MOL0     C  474   7.478   2.654  -0.113 -0.4355  0.0331  0.1324
  745MOL0     C  475   7.555   2.761  -0.067 -0.1041 -0.4629  0.3225
  745MOL0     O  476   7.507   2.891  -0.095 -0.3565  0.0737 -0.3705
  745MOL0     C  477   7.588   2.985  -0.169  0.8890  1.1769  0.3118
  745MOL0     C  478   7.491   3.087  -0.238 -0.8321 -0.0655  0.8057
  745MOL0     C  479   7.373   3.158  -0.156 -0.6563 -0.3388 -0.9026
  745MOL0     C  480   7.294   3.268  -0.248 -0.3978  0.6699  0.2363
  745MOL0     C  481   7.214   3.363  -0.162 -0.0973  0.0233  0.6716
  745MOL0     C  482   7.178   3.497  -0.220 -0.5795 -0.2930  0.4420
  745MOL0     C  483   7.075   3.481  -0.344 -0.1535  0.2690  0.7523
  745MOL0     C  484   7.150   3.495  -0.483 -0.0638 -0.0635 -0.4487
  745MOL0    Cl  485   7.040   3.472  -0.619  0.5771 -0.0723  0.3554
  745MOL0     C  486   7.675   2.731   0.004 -0.0871  0.3996  0.1567
  745MOL0     C  487   7.713   2.602   0.031 -0.6733 -0.2646 -0.4956
  745MOL0     O  488   7.661   2.359   0.225 -0.6728  0.4411 -0.2370
  745MOL0     C  489   7.765   2.105   0.019 -0.6354  1.2652 -0.3672
  745MOL0     C  490   7.849   1.997   0.009  0.0972 -0.1315 -0.6389
  745MOL0     N  491   7.647   1.558   0.456 -0.0198 -0.3509  0.8452
  745MOL0     N  492   7.643   1.527   0.582 -0.0588  0.9389  0.5156
  745MOL0     C  493   7.364   1.234   1.671 -0.0270  0.3600 -0.8816
  745MOL0     C  494   7.289   1.212   1.790  0.3373 -0.9458 -0.1258
  745MOL0     C  495   7.045   0.951   2.033 -0.4440 -0.1324  1.1432
  745MOL0     C  496   7.024   0.816   2.040 -0.3364 -0.5410 -0.6459
  745MOL0     C  497   6.990   0.770   2.176  0.3479 -1.0444  1.0154
  745MOL0     C  498   6.986   0.853   2.287  0.2097  0.3815 -0.6447
  745MOL0     O  499   6.974   0.779   2.405  0.2442 -0.5143 -0.2600
  745MOL0     C  500   7.005   0.836   2.540  0.3059  0.3970 -0.3516
  745MOL0     C  501   6.871   0.854   2.609 -0.0981 -0.7590  0.5657
  745MOL0     C  502   6.865   0.891   2.756  0.7598 -0.4013 -0.6396
  745MOL0     C  503   6.950   1.021   2.802  0.2448 -0.2552 -0.5892
  745MOL0     C  504   6.886   1.152   2.768  0.4042  0.3423  0.4948
  745MOL0     C  505   6.814   1.246   2.738 -0.3107  0.0986  0.0275
  745MOL0     C  506   7.016   0.981   2.277 -0.4667 -0.4105  0.5802
  745MOL0     C  507   7.027   1.034   2.148 -0.5519  0.3581  0.2267
  745MOL0     H  508   6.985   1.223   1.627 -0.5296 -2.6869 -2.9144
  745MOL0     H  509   7.112   1.263   1.452 -1.2281 -0.3684  1.4461
  745MOL0     H  510   7.398   1.058   1.410  0.5567 -0.3676 -0.1167
  745MOL0     H  511   7.290   1.131   1.300 -0.2913 -2.1196  0.2903
  745MOL0     H  512   7.465   1.247   1.172 -1.0702 -2.2180 -1.4320
  745MOL0     H  513   7.586   1.227   1.304  0.3417  0.8944 -1.2457
  745MOL0     H  514   7.600   0.995   1.253  3.9411  2.1786 -0.0403
  745MOL0     H  515   7.480   1.021   1.109  1.6987  0.8621 -2.0221
  745MOL0     H  516   7.748   1.155   1.142  0.8847 -0.9138 -0.5558
  745MOL0     H  517   7.741   0.993   1.077  1.9193  0.4045  2.9707
  745MOL0     H  518   7.578   1.097   0.893 -0.8829  1.0173 -0.5978
  745MOL0     H  519   7.603   1.252   0.973  1.3746  0.3651 -0.9493
  745MOL0     H  520   7.859   1.219   0.926 -0.0062 -1.3529  0.7080
  745MOL0     H  521   7.806   1.070   0.838 -1.3849 -0.7098 -0.7349
  745MOL0     H  522   7.838   1.191   0.674 -1.4863  0.2881 -2.6081
  745MOL0     H  523   7.666   1.219   0.704 -0.2264 -1.5728  1.3622
  745MOL0     H  524   7.893   1.426   0.773  0.0592  4.5029  2.3976
  745MOL0     H  525   7.720   1.429   0.824 -3.8018 -2.7561 -3.0185
  745MOL0     H  526   7.949   1.430   0.509 -0.3833 -2.1865  0.8799
  745MOL0     H  527   7.847   1.451   0.225 -1.7267 -0.9865 -1.6351
  745MOL0     H  528   7.719   1.563   0.206  0.1452 -0.0837 -0.4936
  745MOL0     H  529   8.002   1.603   0.233 -0.2696 -0.3816  3.8346
  745MOL0     H  530   7.903   1.740   0.294 -0.4623  1.6670 -0.2278
  745MOL0     H  531   7.792   1.754   0.073 -0.7955 -2.6321 -0.3804
  745MOL0     H  532   7.850   1.602   0.029 -2.5496 -0.4568  1.2394
  745MOL0     H  533   8.005   1.796  -0.095  0.6838  0.3802  1.0564
  745MOL0     H  534   8.087   1.686   0.009  1.3220  1.5425  3.2739
  745MOL0     H  535   8.083   2.088   0.241 -1.1490  0.1351  0.4746
  745MOL0     H  536   7.971   2.397   0.231 -0.0443  0.0518  2.1113
  745MOL0     H  537   7.867   2.331   0.359 -0.0017  2.5124  0.6602
  745MOL0     H  538   8.039   2.282   0.345 -1.2586  0.1879  2.8046
  745MOL0     H  539   7.439   2.452  -0.122  0.1714  1.5731 -2.8293
  745MOL0     H  540   7.397   2.684  -0.180 -0.4717  1.9159  0.9495
  745MOL0     H  541   7.653   3.037  -0.098  0.9156 -0.7109  1.7240
  745MOL0     H  542   7.643   2.925  -0.242  0.0656  1.1930 -0.3382
  745MOL0     H  543   7.556   3.169  -0.267  3.2256 -2.8116  1.3293
  745MOL0     H  544   7.441   3.053  -0.329  1.8469  0.2407 -0.8862
  745MOL0     H  545   7.419   3.222  -0.080 -2.2653  1.1553 -1.1236
  745MOL0     H  546   7.296   3.090  -0.120  0.7659 -1.2685  0.5384
  745MOL0     H  547   7.370   3.327  -0.300  1.2793 -0.8126  0.9014
  745MOL0     H  548   7.244   3.211  -0.326 -3.8905  1.9530  1.3399
  745MOL0     H  549   7.283   3.395  -0.083  2.8959 -1.0574 -1.3028
  745MOL0     H  550   7.125   3.319  -0.117 -1.0425 -0.5698 -1.6358
  745MOL0     H  551   7.135   3.544  -0.132  2.0508  1.6170  0.8148
  745MOL0     H  552   7.270   3.551  -0.246  0.0143 -0.4464  2.1487
  745MOL0     H  553   6.998   3.558  -0.347 -1.2174 -0.8073 -1.6769
  745MOL0     H  554   7.035   3.379  -0.343  0.6712 -0.0762 -0.3807
  745MOL0     H  555   7.226   3.416  -0.483  1.4445  1.3241  0.0607
  745MOL0     H  556   7.205   3.590  -0.487  2.3868 -1.2855  1.5635
  745MOL0     H  557   7.735   2.810   0.048  1.5540 -0.5262 -0.3350
  745MOL0     H  558   7.800   2.577   0.091  1.7323 -0.6201 -3.8292
  745MOL0     H  559   7.685   2.115  -0.054 -1.0128 -1.7575 -0.5144
  745MOL0     H  560   7.820   1.928  -0.070  0.8010 -0.9155 -0.2317
  745MOL0     H  561   7.472   1.230   1.661 -0.0713 -1.4644 -0.9764
  745MOL0     H  562   7.336   1.198   1.886  0.0778 -3.2279 -0.2784
  745MOL0     H  563   7.034   0.756   1.949 -1.2413  0.0860 -1.1723
  745MOL0     H  564   6.984   0.663   2.190  1.5493 -1.0384  1.7768
  745MOL0     H  565   7.057   0.765   2.606  1.3759  0.7074 -0.8348
  745MOL0     H  566   7.062   0.929   2.537  1.2137 -0.1164  0.3910
  745MOL0     H  567   6.820   0.757   2.611 -0.4219 -0.6417 -1.0327
  745MOL0     H  568   6.815   0.919   2.542 -0.3556 -1.5476 -0.0003
  745MOL0     H  569   6.889   0.800   2.812 -2.0513 -1.0142 -0.2945
  745MOL0     H  570   6.759   0.896   2.784  1.4169 -0.1885  2.1220
  745MOL0     H  571   7.052   1.015   2.762 -0.0783 -1.5856 -1.2684
  745MOL0     H  572   6.950   1.009   2.910  1.2300  0.3955 -0.4973
  745MOL0     H  573   6.757   1.334   2.714 -1.0263 -0.9500 -2.5034
  745MOL0     H  574   7.038   1.052   2.357  0.3749 -0.8798  0.7779
  745MOL0     H  575   7.034   1.142   2.136 -1.9360  0.7091  2.0626
  746MOL0     O  576   9.469   4.022   8.787 -0.4294 -0.1135 -0.0363
  746MOL0     C  577   9.542   4.042   8.887 -0.2015 -0.0189 -0.3494
  746MOL0     O  578   9.559   3.954   8.990 -1.2913 -0.3122 -0.0524
  746MOL0     C  579   9.512   3.821   8.985 -0.2339 -0.1698 -0.2842
  746MOL0     C  580   9.466   3.756   9.098  0.4377  0.2659 -0.2556
  746MOL0     C  581   9.452   3.618   9.098  0.2898  0.0064  0.3147
  746MOL0     C  582   9.476   3.533   8.979 -0.2042 -0.6448  0.1105
  746MOL0     O  583   9.457   3.398   8.968  0.1472 -0.4030 -0.5395
  746MOL0     C  584   9.475   3.327   8.845 -0.1686 -0.0023  0.3966
  746MOL0     C  585   9.421   3.181   8.862  1.0675  0.5420 -0.1689
  746MOL0     C  586   9.486   3.117   8.986 -0.5878 -1.0583 -0.2900
  746MOL0     C  587   9.428   2.972   9.024  0.2411 -1.1531  0.6012
  746MOL0     C  588   9.529   2.898   9.106 -0.1962  0.8903  0.2793
  746MOL0     C  589   9.459   2.781   9.171  0.5655 -0.4741  0.6238
  746MOL0     C  590   9.561   2.708   9.251  0.2107  0.4158 -0.0169
  746MOL0     C  591   9.490   2.625   9.355  0.8468  0.0474 -0.4970
  746MOL0     N  592   9.570   2.535   9.442  1.0877 -0.8198 -0.0509
  746MOL0     C  593   9.596   2.557   9.574  0.1934  0.4439 -0.6769
  746MOL0     C  594   9.675   2.445   9.603 -0.7531 -0.0304 -0.2313
  746MOL0     C  595   9.747   2.424   9.739  0.2951 -0.1539  0.0614
  746MOL0     C  596   9.747   2.279   9.784 -0.3956  0.3738 -0.3832
  746MOL0     C  597   9.762   2.265   9.930  0.5227  0.3591 -0.2221
  746MOL0     C  598   9.908   2.291   9.982  0.2412 -0.7674 -0.1174
  746MOL0     O  599   9.925   2.255  10.120 -0.6688 -0.8107  0.0093
  746MOL0     C  600  10.041   2.301  10.174  0.6080 -0.6644  0.4422
  746MOL0     C  601  10.170   2.276  10.125 -0.3007  0.1194  0.4692
  746MOL0     C  602  10.285   2.321  10.187 -1.4000  0.0617  0.6002
  746MOL0     C  603  10.416   2.290  10.116  0.3486 -0.4118 -1.2309
  746MOL0     C  604  10.284   2.388  10.314  0.5019  1.1995  0.2493
  746MOL0     C  605  10.402   2.422  10.397  0.1200 -0.9114  0.2402
  746MOL0     O  606  10.386   2.405  10.537 -0.5958 -0.8142  0.1614
  746MOL0     C  607  10.481   2.456  10.623  0.5335 -1.1498  0.4808
  746MOL0     C  608  10.569   2.563  10.590 -0.1406  0.5842 -0.1266
  746MOL0     C  609  10.666   2.594  10.683 -0.7719  0.2690 -0.3104
  746MOL0     C  610  10.675   2.522  10.809 -0.4609 -1.2816 -0.0601
  746MOL0     O  611  10.771   2.576  10.881 -0.5432 -0.6461 -0.9216
  746MOL0     C  612  10.785   2.527  11.018  0.0601  0.9158 -0.0715
  746MOL0     C  613  10.663   2.570  11.098  0.1969  0.0203 -0.1701
  746MOL0     C  614  10.682   2.571  11.249  0.0037 -1.0909  0.2196
  746MOL0     C  615  10.553   2.564  11.325  0.1482 -0.2666 -0.7629
  746MOL0     C  616  10.561   2.491  11.463  0.2523  0.4241 -0.6854
  746MOL0     C  617  10.551   2.335  11.450  0.2753 -0.5681  0.3358
  746MOL0     C  618  10.557   2.265  11.593 -0.6774 -0.8506  1.6498
  746MOL0     C  619  10.558   2.109  11.588  0.2387 -0.3381 -0.9644
  746MOL0    Cl  620  10.459   2.047  11.729 -0.4521 -0.2424 -0.4599
  746MOL0     C  621  10.597   2.410  10.835  0.1147 -0.4294  0.4039
  746MOL0     C  622  10.495   2.383  10.744 -0.7845 -0.5571 -0.6049
  746MOL0     O  623  10.505   2.453  10.340 -0.2279 -0.6461  0.2837
  746MOL0     C  624  10.154   2.409  10.363 -0.1499  0.7682  0.3191
  746MOL0     C  625  10.037   2.374  10.299  0.2616  0.4405 -0.9018
  746MOL0     N  626   9.694   2.373   9.494  0.0345  0.3798  0.3063
  746MOL0     N  627   9.622   2.417   9.401 -0.8612 -0.3878 -0.2401
  746MOL0     C  628   9.532   3.605   8.870  0.5385 -0.1538 -0.7024
  746MOL0     C  629   9.559   3.738   8.881 -0.3878 -0.2191 -0.7527
  746MOL0     C  630   9.617   4.166   8.895 -0.4746 -0.1127 -0.1015
  746MOL0     C  631   9.695   4.191   9.011  0.0102 -0.0537 -1.4849
  746MOL0     C  632   9.758   4.308   9.019  0.0096 -0.4925  0.5200
  746MOL0     C  633   9.743   4.416   8.927 -0.0718 -0.3313  0.4461
  746MOL0     O  634   9.806   4.538   8.936  0.3912 -0.2312 -0.0351
  746MOL0     C  635   9.796   4.628   9.039  0.9069 -0.0562 -0.2342
  746MOL0     C  636   9.660   4.707   9.047 -0.3026  0.6317  0.6241
  746MOL0     C  637   9.608   4.690   9.189  0.1448  1.2680 -0.8497
  746MOL0     C  638   9.475   4.761   9.220  0.6093  0.5088  0.6662
  746MOL0     C  639   9.381   4.756   9.107 -0.8371  0.2776  0.1528
  746MOL0     C  640   9.299   4.733   9.025  0.3301 -0.4181 -0.1163
  746MOL0     C  641   9.672   4.392   8.817 -0.3850  0.1718  0.3392
  746MOL0     C  642   9.609   4.266   8.794  0.0684 -0.2466  0.0683
  746MOL0     H  643   9.429   3.820   9.178  1.3113 -1.1731  1.3601
  746MOL0     H  644   9.405   3.573   9.185  4.4225 -2.0486  1.7564
  746MOL0     H  645   9.414   3.365   8.762  0.7339  1.0076  0.1699
  746MOL0     H  646   9.580   3.316   8.814 -0.7832  2.4973 -3.3027
  746MOL0     H  647   9.312   3.183   8.867  0.9443  1.2104 -2.2425
  746MOL0     H  648   9.457   3.119   8.779  4.1718  2.9344 -0.7731
  746MOL0     H  649   9.592   3.113   8.959 -0.7015 -0.1781 -0.8953
  746MOL0     H  650   9.476   3.175   9.079 -1.3178  0.6218 -1.3590
  746MOL0     H  651   9.331   2.993   9.069 -1.1639 -3.9505 -0.8771
  746MOL0     H  652   9.414   2.903   8.940  1.1317  1.0180 -1.4614
  746MOL0     H  653   9.610   2.860   9.043 -1.0921  1.0181 -0.9905
  746MOL0     H  654   9.575   2.964   9.180 -1.7304  0.8100  1.3373
  746MOL0     H  655   9.376   2.814   9.234 -0.9797  0.6419 -1.8260
  746MOL0     H  656   9.418   2.716   9.093  2.4832  1.3527 -2.0676
  746MOL0     H  657   9.634   2.653   9.190 -1.3253 -0.0264 -1.5506
  746MOL0     H  658   9.619   2.777   9.312  0.9242 -2.1927  2.4504
  746MOL0     H  659   9.421   2.564   9.296 -0.7694  2.1665 -0.8986
  746MOL0     H  660   9.428   2.692   9.414  0.0827 -0.0773 -1.1462
  746MOL0     H  661   9.555   2.639   9.632  0.3324  1.6735 -2.2490
  746MOL0     H  662   9.854   2.439   9.720  0.0811  0.4175 -0.7737
  746MOL0     H  663   9.701   2.480   9.821  0.2952 -1.2931  0.8599
  746MOL0     H  664   9.818   2.213   9.733  0.3573 -1.6156  2.9134
  746MOL0     H  665   9.652   2.232   9.756  0.4951  0.4346 -4.1019
  746MOL0     H  666   9.740   2.164   9.968  0.1554  0.7357  0.5973
  746MOL0     H  667   9.698   2.332   9.988  2.7835  1.3985  1.2667
  746MOL0     H  668   9.925   2.399   9.983 -0.9794 -0.5332  1.8087
  746MOL0     H  669   9.987   2.245   9.922  1.2420  0.2618  0.3663
  746MOL0     H  670  10.186   2.208  10.043  0.0230  0.2712  0.4043
  746MOL0     H  671  10.471   2.211  10.167 -0.9247 -1.0354 -0.7657
  746MOL0     H  672  10.397   2.272  10.010 -0.4163  2.9406 -1.7926
  746MOL0     H  673  10.482   2.377  10.103  0.6841 -0.4447  0.1405
  746MOL0     H  674  10.577   2.614  10.494 -2.6792 -3.2996 -2.6882
  746MOL0     H  675  10.738   2.670  10.655  1.7201 -1.6532  0.5568
  746MOL0     H  676  10.782   2.418  11.018 -0.9933  0.9154  1.6280
  746MOL0     H  677  10.877   2.569  11.062  0.2357  0.0380  0.4127
  746MOL0     H  678  10.631   2.668  11.061 -1.1036 -0.9142 -1.6703
  746MOL0     H  679  10.589   2.489  11.087  0.2961 -0.1296  0.2721
  746MOL0     H  680  10.730   2.664  11.279 -0.8591  0.3964 -2.6317
  746MOL0     H  681  10.755   2.494  11.275  0.2894 -0.2460  2.0688
  746MOL0     H  682  10.510   2.664  11.329  1.1119  0.1445 -0.2907
  746MOL0     H  683  10.471   2.513  11.274  0.6320  1.5945 -3.6366
  746MOL0     H  684  10.472   2.509  11.523 -0.3964 -0.5530 -1.3277
  746MOL0     H  685  10.655   2.517  11.514  0.9920 -3.8280  0.5455
  746MOL0     H  686  10.456   2.320  11.397  1.2085 -1.8582 -1.0529
  746MOL0     H  687  10.622   2.310  11.371  0.6289 -0.9464  0.7652
  746MOL0     H  688  10.466   2.299  11.643 -1.3428  1.9189 -1.1391
  746MOL0     H  689  10.646   2.290  11.651 -1.8916  1.0660  2.7838
  746MOL0     H  690  10.661   2.075  11.601  0.0051  0.1555  5.5348
  746MOL0     H  691  10.501   2.065  11.507  2.0754 -0.8805 -2.0281
  746MOL0     H  692  10.596   2.346  10.923 -3.5237 -2.6403 -1.0042
  746MOL0     H  693  10.428   2.299  10.761  1.2661 -2.1224  0.2013
  746MOL0     H  694  10.143   2.444  10.466  1.8882 -3.1304  2.0783
  746MOL0     H  695   9.942   2.396  10.348  0.0936 -0.4865 -0.7910
  746MOL0     H  696   9.557   3.552   8.779 -1.2994  0.0285 -1.3657
  746MOL0     H  697   9.606   3.791   8.799  0.2200  1.2059  0.4690
  746MOL0     H  698   9.711   4.110   9.081  1.6170  0.6005 -1.0694
  746MOL0     H  699   9.810   4.327   9.113 -0.0271  2.4001  0.0683
  746MOL0     H  700   9.811   4.572   9.131 -0.9320 -3.0851 -1.6091
  746MOL0     H  701   9.879   4.699   9.040 -0.1865  1.3919  3.0960
  746MOL0     H  702   9.588   4.689   8.967 -0.4044  2.1808  0.3239
  746MOL0     H  703   9.680   4.810   9.016 -1.6716  0.0211 -2.7152
  746MOL0     H  704   9.681   4.729   9.260 -0.3289  2.5244 -1.0256
  746MOL0     H  705   9.591   4.584   9.211  1.1538  0.6510 -2.8361
  746MOL0     H  706   9.488   4.853   9.277  1.2713  0.4288  0.6566
  746MOL0     H  707   9.427   4.690   9.288 -1.6672  0.0233 -1.3461
  746MOL0     H  708   9.218   4.700   8.963  0.2084  1.5827 -1.1313
  746MOL0     H  709   9.665   4.473   8.746 -1.2062  0.3690  0.6349
  746MOL0     H  710   9.551   4.255   8.703  0.7721  2.7221 -0.8420
  747MOL0     O  711   9.982   6.305   1.744 -0.1690 -0.6535  0.3042
  747MOL0     C  712   9.957   6.375   1.647 -0.3783 -0.6278 -0.3131
  747MOL0     O  713   9.917   6.334   1.519  0.3401  0.2621  0.3394
  747MOL0     C  714   9.943   6.213   1.452 -0.0936  0.8263  0.3964
  747MOL0     C  715   9.884   6.188   1.328  0.4233  0.2325 -0.0047
  747MOL0     C  716   9.898   6.069   1.260 -0.1577 -0.1816 -0.2810
  747MOL0     C  717   9.975   5.970   1.310 -0.4898  0.2953 -0.3583
  747MOL0     O  718  10.006   5.861   1.238  0.1802 -0.5138 -0.2948
  747MOL0     C  719  10.042   5.880   1.102 -1.1792 -0.4724 -0.4880
  747MOL0     C  720  10.173   5.807   1.076  0.0103  0.0336  0.5872
  747MOL0     C  721  10.242   5.871   0.958 -0.6856 -0.1876  0.7997
  747MOL0     C  722  10.380   5.806   0.935 -0.6057  0.1928  0.0001
  747MOL0     C  723  10.464   5.896   0.854  0.3591 -0.8792 -0.0193
  747MOL0     C  724  10.605   5.840   0.860 -0.4410 -0.0002 -0.1458
  747MOL0     C  725  10.709   5.935   0.793 -0.4771  0.1204  0.1725
  747MOL0     C  726  10.851   5.888   0.827 -0.2563 -1.1498  0.9006
  747MOL0     N  727  10.965   5.987   0.813  0.1984 -0.1935  0.6898
  747MOL0     C  728  10.947   6.121   0.799  0.4621 -0.2081  0.3764
  747MOL0     C  729  11.071   6.170   0.828 -0.6708 -0.2240  0.4239
  747MOL0     C  730  11.098   6.313   0.818 -0.1459 -0.0954  0.8579
  747MOL0     C  731  11.193   6.337   0.703 -0.1929  0.7265  1.2260
  747MOL0     C  732  11.328   6.280   0.737  0.2338  0.0867  0.0147
  747MOL0     C  733  11.443   6.334   0.655 -0.6779  0.6733  0.4973
  747MOL0     O  734  11.421   6.308   0.522  0.1709  0.7250  0.2075
  747MOL0     C  735  11.538   6.315   0.452  0.6136  0.2405  0.4100
  747MOL0     C  736  11.625   6.425   0.456  0.5020  0.8840  1.3458
  747MOL0     C  737  11.741   6.439   0.371  0.3608  0.3187 -0.4950
  747MOL0     C  738  11.832   6.558   0.375  0.4052  0.6513 -0.1310
  747MOL0     C  739  11.774   6.329   0.283 -0.0319 -1.4195 -0.0649
  747MOL0     C  740  11.901   6.319   0.192 -0.4155 -0.3464  0.1576
  747MOL0     O  741  12.024   6.375   0.245  0.4026 -0.6711  0.2482
  747MOL0     C  742  12.112   6.432   0.154 -0.5892 -0.4482 -0.3665
  747MOL0     C  743  12.244   6.401   0.158 -1.2400 -0.2187  0.8571
  747MOL0     C  744  12.334   6.458   0.075 -0.0335 -0.7501 -0.0609
  747MOL0     C  745  12.307   6.555  -0.020 -0.1619 -0.8309  0.3518
  747MOL0     O  746  12.400   6.615  -0.105 -0.0142  0.3580  0.0574
  747MOL0     C  747  12.531   6.608  -0.057  0.9809 -0.1940  0.7880
  747MOL0     C  748  12.608   6.679  -0.174  0.4515  0.9637  0.5122
  747MOL0     C  749  12.756   6.692  -0.161  1.0780 -0.3442  0.0237
  747MOL0     C  750  12.832   6.563  -0.177  0.7960 -1.1746  0.1418
  747MOL0     C  751  12.971   6.580  -0.134 -0.0838 -0.1698  1.0977
  747MOL0     C  752  13.061   6.456  -0.141 -0.4303  0.0109 -0.3303
  747MOL0     C  753  13.050   6.368  -0.010  0.0945  0.3248  0.4157
  747MOL0     C  754  13.119   6.236  -0.039 -0.1047 -0.0400 -0.6408
  747MOL0    Cl  755  13.083   6.115   0.086 -0.1491  0.3717 -0.7689
  747MOL0     C  756  12.173   6.594  -0.027  0.1280  0.6177  0.2826
  747MOL0     C  757  12.074   6.525   0.051  0.5429  0.5003  0.4138
  747MOL0     O  758  11.893   6.261   0.082  0.6102  0.5130  0.4193
  747MOL0     C  759  11.688   6.213   0.282  0.2118  0.4953  0.1763
  747MOL0     C  760  11.574   6.213   0.363  0.1148  1.8548 -0.1090
  747MOL0     N  761  11.148   6.074   0.877 -0.0034 -0.3334 -0.3826
  747MOL0     N  762  11.082   5.959   0.872  0.8571 -0.5445  0.1090
  747MOL0     C  763  10.059   5.993   1.425  0.1081  0.6542 -0.0280
  747MOL0     C  764  10.030   6.115   1.494 -0.5588 -0.0776  0.0608
  747MOL0     C  765   9.955   6.524   1.680  0.0091 -0.2738  0.1727
  747MOL0     C  766   9.970   6.561   1.818 -0.4563  0.2997  0.2716
  747MOL0     C  767   9.950   6.694   1.867 -0.2406 -0.1566  0.3682
  747MOL0     C  768   9.927   6.798   1.771  0.8009 -0.0508  0.2504
  747MOL0     O  769   9.913   6.925   1.812  0.0735 -0.4798 -0.3055
  747MOL0     C  770   9.912   7.043   1.726  0.9115  0.3674  0.8974
  747MOL0     C  771   9.988   7.151   1.803 -0.2166 -0.1797  0.1824
  747MOL0     C  772   9.922   7.170   1.942  0.2231 -0.5905 -0.3737
  747MOL0     C  773  10.010   7.258   2.028 -0.7567 -0.2266  0.4100
  747MOL0     C  774  10.140   7.193   2.051 -0.2422 -0.5127 -0.0428
  747MOL0     C  775  10.257   7.163   2.067  0.4309 -0.0120  0.1799
  747MOL0     C  776   9.908   6.762   1.636  0.1713  0.4863 -0.1331
  747MOL0     C  777   9.919   6.625   1.586  1.2448  0.5889  0.0604
  747MOL0     H  778   9.824   6.266   1.282  0.1039 -1.3239 -2.3893
  747MOL0     H  779   9.843   6.048   1.169 -0.1166 -1.0389 -0.1193
  747MOL0     H  780   9.966   5.834   1.038  0.7975 -3.2924 -0.9884
  747MOL0     H  781  10.053   5.985   1.075 -1.4390 -0.1349  0.6333
  747MOL0     H  782  10.234   5.805   1.166 -0.3329 -0.1587  0.8198
  747MOL0     H  783  10.144   5.706   1.046 -2.2771  0.9451 -0.5148
  747MOL0     H  784  10.181   5.855   0.868 -1.2523  1.9250  0.7655
  747MOL0     H  785  10.250   5.980   0.966  1.2573  0.0164 -2.1877
  747MOL0     H  786  10.426   5.794   1.033 -1.0618  2.5668  0.5611
  747MOL0     H  787  10.356   5.707   0.895 -0.2353  1.0054 -2.4020
  747MOL0     H  788  10.412   5.897   0.757  0.6383 -1.8036 -0.1976
  747MOL0     H  789  10.464   5.993   0.903 -2.4689 -0.4759 -0.6193
  747MOL0     H  790  10.637   5.828   0.964 -0.2362  1.3677 -0.0283
  747MOL0     H  791  10.597   5.741   0.813  0.7255 -1.4520  2.5071
  747MOL0     H  792  10.685   5.931   0.686 -1.5074  4.2481  0.0568
  747MOL0     H  793  10.682   6.029   0.841  0.3290  0.8498 -0.7584
  747MOL0     H  794  10.877   5.797   0.773 -1.6352 -0.9829 -0.0929
  747MOL0     H  795  10.853   5.866   0.934  1.1109  2.0351  1.6487
  747MOL0     H  796  10.856   6.161   0.756  0.2731 -3.2353 -2.5145
  747MOL0     H  797  11.010   6.367   0.782  0.2837 -0.9085 -1.6106
  747MOL0     H  798  11.129   6.345   0.918 -0.4117  2.1257  0.2809
  747MOL0     H  799  11.209   6.444   0.683  1.1839  0.5713  1.3673
  747MOL0     H  800  11.152   6.288   0.614 -0.0498 -0.6997  1.9231
  747MOL0     H  801  11.328   6.171   0.729  0.9322  0.0663  0.1978
  747MOL0     H  802  11.341   6.301   0.844 -0.5935 -2.8290  0.7608
  747MOL0     H  803  11.535   6.295   0.699 -1.4679  0.5677  2.1320
  747MOL0     H  804  11.458   6.442   0.669  0.7594  0.7768 -1.5459
  747MOL0     H  805  11.604   6.511   0.520  2.4019  3.9224 -1.7654
  747MOL0     H  806  11.885   6.583   0.282  2.2772  1.1381  1.0114
  747MOL0     H  807  11.774   6.648   0.399  1.6522  2.0047 -1.8765
  747MOL0     H  808  11.912   6.548   0.448  0.0949  0.5374  0.1953
  747MOL0     H  809  12.275   6.340   0.243  1.8991 -2.1497 -1.4466
  747MOL0     H  810  12.437   6.424   0.085  0.7518  1.2584 -0.7667
  747MOL0     H  811  12.543   6.665   0.035  1.6644 -0.4494  0.8573
  747MOL0     H  812  12.563   6.504  -0.050  1.3110 -0.3677 -2.0942
  747MOL0     H  813  12.588   6.625  -0.267 -0.9928  1.6164  0.4072
  747MOL0     H  814  12.566   6.780  -0.178 -3.5844 -0.4937  1.1412
  747MOL0     H  815  12.789   6.747  -0.072  2.8402 -0.4711 -0.5016
  747MOL0     H  816  12.778   6.769  -0.235  1.8872  2.4809  2.9713
  747MOL0     H  817  12.781   6.480  -0.126  0.5395 -2.0333 -1.4367
  747MOL0     H  818  12.829   6.538  -0.284  0.5063  0.2310 -0.1896
  747MOL0     H  819  12.985   6.615  -0.031  1.9144 -0.8621  1.1003
  747MOL0     H  820  13.009   6.660  -0.199  0.4462 -0.4887  1.0076
  747MOL0     H  821  13.047   6.404  -0.236  1.5626 -0.6617 -0.3115
  747MOL0     H  822  13.163   6.496  -0.140 -0.5556  0.3369  0.0973
  747MOL0     H  823  12.944   6.352   0.012 -0.6125  0.3827 -2.5316
  747MOL0     H  824  13.101   6.410   0.077  3.5414  0.9192 -1.7255
  747MOL0     H  825  13.228   6.246  -0.026 -0.3043  4.2324 -1.0014
  747MOL0     H  826  13.077   6.193  -0.131 -1.4821  0.6862 -0.3616
  747MOL0     H  827  12.153   6.664  -0.107 -0.8479  0.1030  0.0577
  747MOL0     H  828  11.970   6.555   0.049  0.1837 -0.7070  0.2810
  747MOL0     H  829  11.715   6.120   0.233  0.0293 -1.2518  3.1896
  747MOL0     H  830  11.514   6.122   0.366 -0.0735  1.8360 -2.3878
  747MOL0     H  831  10.102   5.908   1.478 -1.2565 -0.4020 -0.5528
  747MOL0     H  832  10.087   6.124   1.586  1.8506 -2.5070 -1.0486
  747MOL0     H  833   9.985   6.486   1.895  1.7908  0.3592 -0.0154
  747MOL0     H  834   9.956   6.709   1.975 -0.7670 -0.4813  0.4443
  747MOL0     H  835   9.956   7.026   1.628 -1.9612 -0.8579 -0.2857
  747MOL0     H  836   9.811   7.078   1.701 -0.1236 -2.1830  1.2578
  747MOL0     H  837   9.981   7.243   1.744 -2.0216 -0.4827 -0.1292
  747MOL0     H  838  10.093   7.120   1.806 -0.3306 -0.6997 -0.7816
  747MOL0     H  839   9.905   7.081   2.003 -1.5163  0.0184  0.0837
  747MOL0     H  840   9.828   7.225   1.934 -0.1281 -0.8043  1.6751
  747MOL0     H  841   9.967   7.272   2.128 -0.7961 -0.6366  0.4504
  747MOL0     H  842  10.033   7.348   1.970 -1.6789 -0.9218 -1.0616
  747MOL0     H  843  10.358   7.135   2.086  0.0521 -2.5350 -1.1051
  747MOL0     H  844   9.884   6.833   1.557  3.3179  1.7085 -0.1268
  747MOL0     H  845   9.903   6.596   1.483  1.3556 -1.8846  0.6792
  748MOL0     O  846   5.140   0.932   3.078  0.6530 -0.3855  0.3984
  748MOL0     C  847   5.042   0.922   3.146 -0.3853 -0.3177 -0.5084
  748MOL0     O  848   4.912   0.921   3.103 -0.0887 -0.7203 -0.3227
  748MOL0     C  849   4.876   0.939   2.965  0.2976 -1.0417 -0.5199
  748MOL0     C  850   4.751   0.891   2.922 -0.3410  0.1194  0.2211
  748MOL0     C  851   4.701   0.913   2.791 -0.7458  0.3276  0.3035
  748MOL0     C  852   4.773   1.003   2.701 -0.0469  0.3170 -1.1235
  748MOL0     O  853   4.719   1.034   2.586  0.4691  0.1988  0.2094
  748MOL0     C  854   4.809   1.089   2.488  0.3337  0.3077 -0.2114
  748MOL0     C  855   4.737   1.100   2.356  0.3927 -0.1983  0.6042
  748MOL0     C  856   4.826   1.125   2.234  0.7126  0.5108  0.3316
  748MOL0     C  857   4.887   1.265   2.213 -0.3623 -0.9944 -0.0247
  748MOL0     C  858   4.783   1.367   2.176  0.3840  0.5953 -0.1218
  748MOL0     C  859   4.844   1.510   2.150  0.8581  0.5629  0.6503
  748MOL0     C  860   4.772   1.589   2.033  1.1190  0.5546 -0.1731
  748MOL0     C  861   4.845   1.719   1.982  0.2248 -0.0578 -0.4567
  748MOL0     N  862   4.991   1.702   1.951  0.1106  0.2198  0.4827
  748MOL0     C  863   5.088   1.691   2.050 -1.2307 -0.3575 -1.0527
  748MOL0     C  864   5.210   1.701   1.979 -0.3069 -0.2969  0.3046
  748MOL0     C  865   5.346   1.737   2.046 -0.6918 -1.0969 -0.2083
  748MOL0     C  866   5.328   1.830   2.169  0.5057 -0.2419  0.1829
  748MOL0     C  867   5.400   1.964   2.136  0.6787  0.2420  0.0471
  748MOL0     C  868   5.390   2.046   2.258  0.6126 -0.4630 -0.1143
  748MOL0     O  869   5.247   2.069   2.281  0.2298 -0.2427 -0.1818
  748MOL0     C  870   5.202   2.159   2.373  0.1914 -0.1908 -0.4269
  748MOL0     C  871   5.075   2.219   2.362  0.0840  0.6783 -1.1673
  748MOL0     C  872   5.026   2.314   2.462 -0.1864  0.2555 -0.4371
  748MOL0     C  873   4.893   2.382   2.425 -0.0565  0.8090  0.0311
  748MOL0     C  874   5.109   2.350   2.574 -0.2177  0.4124  0.1066
  748MOL0     C  875   5.078   2.451   2.668  0.2514 -0.6920  0.5129
  748MOL0     O  876   5.191   2.520   2.717 -1.1024  0.4196  0.7724
  748MOL0     C  877   5.165   2.615   2.812 -0.0633 -0.0955 -0.0760
  748MOL0     C  878   5.163   2.746   2.781 -0.7635  0.3752 -0.0529
  748MOL0     C  879   5.146   2.840   2.880  0.5783  0.3607 -1.3499
  748MOL0     C  880   5.113   2.807   3.019  0.4249 -0.6212  0.0307
  748MOL0     O  881   5.100   2.918   3.100  0.1766 -0.0791  0.3586
  748MOL0     C  882   5.137   2.900   3.235 -0.0282 -1.2737 -0.3951
  748MOL0     C  883   5.126   3.030   3.314 -0.1403  0.2945  0.2167
  748MOL0     C  884   4.982   3.024   3.382  0.0973  1.1732  0.3578
  748MOL0     C  885   4.959   3.143   3.478  0.6914 -0.0923 -0.2339
  748MOL0     C  886   4.833   3.127   3.555  0.8263 -0.6193  0.0922
  748MOL0     C  887   4.805   3.239   3.655 -0.2893 -0.2152  0.5169
  748MOL0     C  888   4.769   3.370   3.583 -0.3749 -0.6764 -0.0824
  748MOL0     C  889   4.734   3.490   3.682  0.3460 -0.0713  0.4942
  748MOL0    Cl  890   4.570   3.457   3.749 -0.1317  0.3615  0.5070
  748MOL0     C  891   5.109   2.670   3.048 -0.6254 -0.5154  0.5694
  748MOL0     C  892   5.139   2.575   2.949 -0.7479  0.0492  0.2944
  748MOL0     O  893   4.962   2.455   2.713  0.9138 -0.0983 -0.5260
  748MOL0     C  894   5.238   2.292   2.578  0.8495  0.6519 -0.1493
  748MOL0     C  895   5.279   2.198   2.483  0.6581 -0.3524 -0.0063
  748MOL0     N  896   5.180   1.691   1.846  0.4924 -0.2779  1.2636
  748MOL0     N  897   5.051   1.700   1.836  0.7689  0.1926  0.2140
  748MOL0     C  898   4.892   1.059   2.755 -0.6420 -0.3059 -0.9938
  748MOL0     C  899   4.938   1.032   2.882 -0.1464 -0.1252  0.4210
  748MOL0     C  900   5.078   0.897   3.286  0.2778 -0.1974  0.0093
  748MOL0     C  901   4.979   0.899   3.377  0.2520  0.4298 -0.5453
  748MOL0     C  902   4.994   0.864   3.506 -0.8591  0.5688  0.1829
  748MOL0     C  903   5.116   0.850   3.563  0.1543  0.1065  0.5214
  748MOL0     O  904   5.129   0.825   3.699  1.3190 -0.3259 -0.9435
  748MOL0     C  905   5.257   0.793   3.746  0.8953  0.1443  0.5395
  748MOL0     C  906   5.258   0.814   3.901 -0.6853 -0.8077 -0.4427
  748MOL0     C  907   5.167   0.731   3.976  0.3406  0.3636  0.5962
  748MOL0     C  908   5.151   0.772   4.120  0.7684 -0.6995 -0.1963
  748MOL0     C  909   5.066   0.672   4.187  0.6655 -1.7713 -0.4513
  748MOL0     C  910   4.990   0.594   4.236  0.3580  0.2687  0.8547
  748MOL0     C  911   5.226   0.856   3.470 -0.3062 -0.2801 -0.1351
  748MOL0     C  912   5.209   0.873   3.334 -0.3447  0.8983  0.7226
  748MOL0     H  913   4.691   0.843   2.999 -3.0731  0.6294 -1.4210
  748MOL0     H  914   4.606   0.878   2.752 -0.3847  1.2752 -1.5322
  748MOL0     H  915   4.829   1.190   2.525 -1.7789  0.7256 -0.0831
  748MOL0     H  916   4.899   1.030   2.467  0.4978  1.1051 -1.8834
  748MOL0     H  917   4.688   1.003   2.341 -1.7257  1.2204 -3.2434
  748MOL0     H  918   4.652   1.168   2.368 -1.6068 -2.4843  0.1713
  748MOL0     H  919   4.913   1.059   2.239  1.4641  1.1942 -2.3257
  748MOL0     H  920   4.776   1.086   2.145  4.4735 -3.8069 -0.2684
  748MOL0     H  921   4.930   1.292   2.310 -0.4974 -0.9906  0.0352
  748MOL0     H  922   4.965   1.244   2.140  0.5819 -1.3863  1.0750
  748MOL0     H  923   4.721   1.328   2.094  1.7570  2.5065 -2.1771
  748MOL0     H  924   4.728   1.394   2.266 -0.6159  1.9025 -1.0864
  748MOL0     H  925   4.839   1.563   2.245  0.0666 -0.6824  1.3439
  748MOL0     H  926   4.946   1.488   2.117  0.6905 -0.9430  1.0204
  748MOL0     H  927   4.742   1.533   1.943 -1.0457  1.7440 -0.2500
  748MOL0     H  928   4.674   1.620   2.069  0.0460  1.6404 -3.6222
  748MOL0     H  929   4.835   1.797   2.058 -1.8694 -3.3763  3.0029
  748MOL0     H  930   4.792   1.734   1.888 -1.2485 -2.4784 -0.1031
  748MOL0     H  931   5.073   1.697   2.158  0.1601 -2.2197 -0.7088
  748MOL0     H  932   5.383   1.645   2.093  3.0557 -0.3275 -1.3307
  748MOL0     H  933   5.422   1.770   1.975  0.0226  0.1414  1.0832
  748MOL0     H  934   5.361   1.778   2.260  1.4381  1.5969  0.9404
  748MOL0     H  935   5.221   1.852   2.174  0.3620 -0.8786 -0.0190
  748MOL0     H  936   5.358   2.017   2.051 -0.9188 -0.1458  0.5737
  748MOL0     H  937   5.501   1.937   2.104  0.7106  0.1588  0.2126
  748MOL0     H  938   5.442   2.142   2.258  3.6316 -1.9717 -0.7910
  748MOL0     H  939   5.420   1.977   2.338  2.0299 -2.9745 -2.6642
  748MOL0     H  940   5.021   2.199   2.270 -2.7274 -2.5789  0.9507
  748MOL0     H  941   4.857   2.351   2.327  1.7850  0.0613 -0.4444
  748MOL0     H  942   4.818   2.356   2.501 -1.6541  1.0648 -1.4079
  748MOL0     H  943   4.904   2.490   2.439 -2.1686  0.8291  2.1607
  748MOL0     H  944   5.196   2.780   2.683 -0.3759 -0.7768 -0.3412
  748MOL0     H  945   5.151   2.947   2.865 -4.0644  1.7677  3.7328
  748MOL0     H  946   5.082   2.816   3.278 -1.5751 -0.3910 -0.5692
  748MOL0     H  947   5.246   2.889   3.229  0.2456  0.7995 -0.0172
  748MOL0     H  948   5.210   3.023   3.383 -0.2345 -3.1391  0.1750
  748MOL0     H  949   5.134   3.116   3.247 -0.9558  1.1048  1.1209
  748MOL0     H  950   4.954   2.935   3.440  4.5348  0.1529  1.2852
  748MOL0     H  951   4.905   3.026   3.304  0.9918 -1.0791 -0.6565
  748MOL0     H  952   5.044   3.142   3.547  0.6720 -1.1835 -0.2112
  748MOL0     H  953   4.967   3.236   3.422  1.4417 -0.8217 -1.3945
  748MOL0     H  954   4.818   3.030   3.604  1.0200 -1.3049 -1.1423
  748MOL0     H  955   4.748   3.135   3.487 -0.3470 -0.0360  1.5832
  748MOL0     H  956   4.735   3.204   3.731  0.7409  1.0827  2.1504
  748MOL0     H  957   4.902   3.266   3.699 -0.6578  0.9462  0.6669
  748MOL0     H  958   4.693   3.361   3.505  0.6698 -1.1699 -1.0528
  748MOL0     H  959   4.856   3.403   3.525 -0.5355 -0.1775 -0.0498
  748MOL0     H  960   4.727   3.585   3.628 -0.1607  1.2880  2.7982
  748MOL0     H  961   4.812   3.495   3.759 -0.3048  1.8409  1.0925
  748MOL0     H  962   5.090   2.644   3.152  1.0064  0.6128  1.1832
  748MOL0     H  963   5.155   2.473   2.982 -2.3370  0.2581  1.8771
  748MOL0     H  964   5.314   2.325   2.648  3.2762 -0.4017 -2.1195
  748MOL0     H  965   5.380   2.159   2.493  0.3821 -0.8892  0.7390
  748MOL0     H  966   4.936   1.148   2.711  0.0292  0.2460  0.7169
  748MOL0     H  967   5.021   1.094   2.916 -0.9316  0.8831  0.5780
  748MOL0     H  968   4.878   0.933   3.355 -0.6247 -2.4937 -1.4072
  748MOL0     H  969   4.907   0.871   3.569 -0.0605  2.3005  1.1783
  748MOL0     H  970   5.281   0.694   3.707 -1.6732  0.5622 -2.5120
  748MOL0     H  971   5.334   0.864   3.712  1.7501 -1.9196 -2.1857
  748MOL0     H  972   5.237   0.921   3.913  3.6592  0.2896 -1.1164
  748MOL0     H  973   5.362   0.795   3.930 -1.3614 -1.2476  1.9434
  748MOL0     H  974   5.208   0.632   3.959 -1.2724 -0.1779 -0.5037
  748MOL0     H  975   5.064   0.727   3.938 -0.0540  3.5254  1.0373
  748MOL0     H  976   5.115   0.875   4.129  1.9173 -0.0709 -2.0748
  748MOL0     H  977   5.248   0.766   4.171  1.6927 -0.5856 -1.8609
  748MOL0     H  978   4.922   0.518   4.270 -0.2593  0.4737  0.1241
  748MOL0     H  979   5.327   0.839   3.507 -0.7276 -2.2792  0.2310
  748MOL0     H  980   5.290   0.883   3.263 -1.3994 -0.8546 -0.8194
  749MOL0     O  981   0.852  11.177  11.197 -0.9636 -0.0185  0.2079
  749MOL0     C  982   0.825  11.296  11.176 -0.5271  0.7141 -0.3668
  749MOL0     O  983   0.699  11.333  11.152 -0.1183  0.5065  0.0026
  749MOL0     C  984   0.596  11.234  11.150  0.1470 -0.6383 -1.3034
  749MOL0     C  985   0.535  11.191  11.275 -0.2416 -1.6291 -0.1320
  749MOL0     C  986   0.444  11.095  11.272  0.1280 -0.1762  1.1419
  749MOL0     C  987   0.386  11.044  11.151  0.1687 -0.1054  0.6434
  749MOL0     O  988   0.287  10.937  11.156 -0.4388 -0.3749  0.7797
  749MOL0     C  989   0.258  10.883  11.023  0.1116 -0.4425  0.0242
  749MOL0     C  990   0.172  10.760  11.042 -0.3179 -0.0341  0.8381
  749MOL0     C  991   0.136  10.707  10.895 -0.0655  1.4289 -0.3451
  749MOL0     C  992   0.061  10.571  10.912 -0.3301 -0.3771  0.6559
  749MOL0     C  993   0.034  10.506  10.784  1.2847  0.2661  0.7225
  749MOL0     C  994  -0.022  10.360  10.808  0.3895  0.0393  0.1102
  749MOL0     C  995  -0.148  10.311  10.732  0.0023 -0.9896 -0.1928
  749MOL0     C  996  -0.200  10.169  10.762  0.6629 -0.0319 -0.4317
  749MOL0     N  997  -0.181  10.128  10.900  0.3338  0.1985  0.2236
  749MOL0     C  998  -0.209  10.187  11.013  1.3292 -0.8562 -0.0445
  749MOL0     C  999  -0.130  10.138  11.110  0.8145  0.2088 -0.2444
  749MOL0     C 1000  -0.130  10.191  11.246 -0.7136  0.4607 -0.6557
  749MOL0     C 1001  -0.093  10.341  11.252 -0.3061 -0.5998 -0.5254
  749MOL0     C 1002  -0.131  10.397  11.394  0.1510 -0.5410  0.1496
  749MOL0     C 1003  -0.023  10.380  11.498  0.2841  0.2820  0.3857
  749MOL0     O 1004  -0.044  10.251  11.553  0.5341  0.1590 -0.2342
  749MOL0     C 1005   0.027  10.217  11.664 -0.3271  0.9806  0.1232
  749MOL0     C 1006   0.006  10.087  11.706  0.3918  0.6372  0.2840
  749MOL0     C 1007   0.076  10.034  11.815 -0.8406  1.1103 -0.3604
  749MOL0     C 1008   0.059   9.886  11.855 -0.8022 -0.9868  0.2809
  749MOL0     C 1009   0.182  10.111  11.878  0.1718 -0.8339 -0.4529
  749MOL0     C 1010   0.287  10.064  11.977  0.6404  0.6697  0.1019
  749MOL0     O 1011   0.317  10.159  12.069  0.3363  0.8114  0.7261
  749MOL0     C 1012   0.391  10.121  12.189  0.6945 -0.8832  0.5769
  749MOL0     C 1013   0.355  10.010  12.257  0.0338  0.2743 -0.4411
  749MOL0     C 1014   0.425   9.976  12.371  0.8878  0.2936 -0.8668
  749MOL0     C 1015   0.520  10.055  12.432 -0.4343 -0.1201 -0.4986
  749MOL0     O 1016   0.584  10.016  12.541  1.0951  0.3955 -1.3053
  749MOL0     C 1017   0.699  10.081  12.600  0.6251  0.2243  0.5457
  749MOL0     C 1018   0.774   9.988  12.698 -0.4964 -0.1730  0.3964
  749MOL0     C 1019   0.813   9.859  12.623  0.3014  0.0030  0.2350
  749MOL0     C 1020   0.950   9.809  12.678 -0.6745  0.3984  0.1978
  749MOL0     C 1021   0.987   9.676  12.608 -0.6193 -0.2343  1.1233
  749MOL0     C 1022   1.142   9.658  12.618  0.5597 -0.9612 -0.5189
  749MOL0     C 1023   1.202   9.518  12.589 -0.4778 -1.0321  0.1477
  749MOL0     C 1024   1.187   9.424  12.704 -0.2123  0.0991 -0.6239
  749MOL0    Cl 1025   1.270   9.278  12.664 -0.4520 -0.3221 -0.3331
  749MOL0     C 1026   0.553  10.173  12.359  0.5960  0.4072 -0.2993
  749MOL0     C 1027   0.497  10.204  12.235 -0.4470 -0.1701  0.4656
  749MOL0     O 1028   0.334   9.950  11.970 -0.0475  0.0298  0.1740
  749MOL0     C 1029   0.199  10.249  11.835  0.1312  0.0611  0.1911
  749MOL0     C 1030   0.127  10.296  11.729 -0.0378 -0.0858  0.3022
  749MOL0     N 1031  -0.057  10.036  11.056  0.3362 -0.5460 -0.1474
  749MOL0     N 1032  -0.083  10.037  10.927  1.1657  0.1608 -0.4264
  749MOL0     C 1033   0.443  11.088  11.026  0.9247  0.2011  0.0014
  749MOL0     C 1034   0.544  11.190  11.026 -0.4115  0.9461  0.0254
  749MOL0     C 1035   0.931  11.394  11.167 -0.7618  1.2976  0.4675
  749MOL0     C 1036   1.062  11.366  11.232  0.5813 -0.7949 -0.1371
  749MOL0     C 1037   1.166  11.454  11.204 -0.0614  1.0856 -0.6763
  749MOL0     C 1038   1.143  11.572  11.135 -0.0585 -0.0779 -1.2922
  749MOL0     O 1039   1.233  11.671  11.129 -0.1148 -0.3558  0.8991
  749MOL0     C 1040   1.366  11.665  11.190  0.6027 -0.3100  0.3784
  749MOL0     C 1041   1.362  11.727  11.328  0.6481  0.0530  0.3147
  749MOL0     C 1042   1.346  11.885  11.315 -0.1899  0.8069  0.3354
  749MOL0     C 1043   1.303  11.950  11.443  0.0512 -0.0182  0.6602
  749MOL0     C 1044   1.411  11.982  11.535  1.3885 -0.3173  0.0026
  749MOL0     C 1045   1.501  12.020  11.600 -0.1176 -0.0156 -0.1130
  749MOL0     C 1046   1.026  11.591  11.071 -0.0878  0.0311  0.3377
  749MOL0     C 1047   0.922  11.507  11.081  0.1384  0.0441  1.1899
  749MOL0     H 1048   0.571  11.234  11.368 -2.4569  0.6357 -0.2160
  749MOL0     H 1049   0.423  11.061  11.373  3.3057  0.2615  2.0599
  749MOL0     H 1050   0.202  10.954  10.962 -1.3957  0.0834  1.9284
  749MOL0     H 1051   0.347  10.851  10.967  1.6613  3.2706  0.0405
  749MOL0     H 1052   0.232  10.684  11.094  1.8885 -0.0657 -1.5479
  749MOL0     H 1053   0.082  10.768  11.104 -1.1064 -4.5993  0.6171
  749MOL0     H 1054   0.070  10.781  10.850 -1.1893 -0.2498 -1.5810
  749MOL0     H 1055   0.223  10.685  10.831 -0.5136 -3.3060  0.2669
  749MOL0     H 1056   0.129  10.509  10.972  1.0823  2.5871  2.3840
  749MOL0     H 1057  -0.029  10.582  10.973  0.0330  1.1760  0.9528
  749MOL0     H 1058  -0.036  10.567  10.725  1.6852  0.9180  0.9107
  749MOL0     H 1059   0.114  10.499  10.711 -0.0869 -2.6513 -0.6809
  749MOL0     H 1060   0.065  10.301  10.778  1.5273  1.4090  0.6217
  749MOL0     H 1061  -0.030  10.341  10.915  1.2692 -0.6434  0.0653
  749MOL0     H 1062  -0.224  10.376  10.776  0.4257  1.2696 -2.5870
  749MOL0     H 1063  -0.135  10.327  10.625  4.4621 -1.3077  0.1238
  749MOL0     H 1064  -0.137  10.106  10.699  0.6970 -0.3107 -0.1173
  749MOL0     H 1065  -0.293  10.154  10.706  2.2234 -1.7676 -2.7053
  749MOL0     H 1066  -0.279  10.270  11.027 -0.9420 -2.9596  2.2587
  749MOL0     H 1067  -0.235  10.174  11.274 -1.3511  3.0844 -1.1647
  749MOL0     H 1068  -0.072  10.132  11.317 -1.7564  2.4352  1.9989
  749MOL0     H 1069  -0.145  10.396  11.174 -2.7289 -2.5516 -0.3933
  749MOL0     H 1070   0.015  10.357  11.237 -0.4751  0.8978 -0.2588
  749MOL0     H 1071  -0.214  10.352  11.449  0.7238  0.7365  2.1424
  749MOL0     H 1072  -0.153  10.502  11.373  0.8543 -0.4899 -0.3865
  749MOL0     H 1073  -0.041  10.454  11.577  1.8580  0.8561  0.2490
  749MOL0     H 1074   0.069  10.406  11.445 -0.7570 -1.2875 -2.4424
  749MOL0     H 1075  -0.069  10.038  11.645  0.6791  0.0374  0.4022
  749MOL0     H 1076   0.152   9.848  11.898  0.9007  0.4371 -1.9526
  749MOL0     H 1077  -0.022   9.874  11.928  0.2463  0.7141  1.8018
  749MOL0     H 1078   0.033   9.819  11.772 -2.5888  1.3800 -1.1811
  749MOL0     H 1079   0.269   9.946  12.236  0.2292 -1.0609  2.3536
  749MOL0     H 1080   0.392   9.884  12.419  2.7153 -0.6464 -1.3275
  749MOL0     H 1081   0.764  10.106  12.515  3.0678 -1.8966  1.6567
  749MOL0     H 1082   0.658  10.175  12.637  0.0551 -0.2242  1.0751
  749MOL0     H 1083   0.862  10.045  12.732 -0.0275  0.2562 -1.4230
  749MOL0     H 1084   0.703   9.972  12.780 -1.1788 -0.7273 -0.2904
  749MOL0     H 1085   0.828   9.883  12.518  4.0509  1.3701  0.9351
  749MOL0     H 1086   0.741   9.780  12.649 -1.3182  2.2487  3.2350
  749MOL0     H 1087   1.027   9.885  12.661  1.0972 -0.7936  2.4076
  749MOL0     H 1088   0.942   9.790  12.785  0.1494  1.9353  0.5624
  749MOL0     H 1089   0.972   9.687  12.500  2.2498  2.6291  0.8915
  749MOL0     H 1090   0.926   9.591  12.641 -2.7316  1.5980  2.2477
  749MOL0     H 1091   1.183   9.729  12.546 -3.6678  1.9131 -0.4094
  749MOL0     H 1092   1.175   9.686  12.718  0.5905 -1.8190 -0.2745
  749MOL0     H 1093   1.309   9.535  12.572  0.1253 -0.1956  3.8775
  749MOL0     H 1094   1.155   9.467  12.505 -1.0007 -0.5943  0.1695
  749MOL0     H 1095   1.083   9.402  12.729  1.1027 -4.8057  1.7787
  749MOL0     H 1096   1.230   9.466  12.796 -0.9095 -1.9987  0.7554
  749MOL0     H 1097   0.635  10.238  12.387 -0.2347  0.3913  2.5729
  749MOL0     H 1098   0.534  10.287  12.177 -1.1828  0.3919  0.7853
  749MOL0     H 1099   0.278  10.312  11.874 -0.2482  0.1694  0.7955
  749MOL0     H 1100   0.155  10.394  11.694 -0.0398 -0.8974 -2.1388
  749MOL0     H 1101   0.428  11.042  10.929  1.7027  0.9828 -0.4887
  749MOL0     H 1102   0.583  11.231  10.934  2.4646 -1.3270  0.0931
  749MOL0     H 1103   1.089  11.281  11.294 -2.2640  1.5630  4.9550
  749MOL0     H 1104   1.260  11.425  11.248 -1.5372 -0.8379  1.4506
  749MOL0     H 1105   1.398  11.563  11.210  0.7256 -1.5159 -4.5467
  749MOL0     H 1106   1.427  11.725  11.121 -0.6865  1.5936  0.8154
  749MOL0     H 1107   1.458  11.710  11.377 -0.3381 -0.3187  2.2054
  749MOL0     H 1108   1.280  11.678  11.381 -0.4654  0.9810 -0.5167
  749MOL0     H 1109   1.266  11.887  11.240  1.5384 -1.5548 -1.7502
  749MOL0     H 1110   1.437  11.921  11.267 -0.5211  1.1742 -0.0256
  749MOL0     H 1111   1.236  11.888  11.503  0.1717  0.3026  1.1253
  749MOL0     H 1112   1.251  12.039  11.406  0.3331  1.1676  2.9463
  749MOL0     H 1113   1.588  12.054  11.653 -0.5307  1.6363 -0.4381
  749MOL0     H 1114   1.012  11.687  11.021 -0.5294  0.0574  0.5050
  749MOL0     H 1115   0.827  11.526  11.031  1.6800  4.7825 -0.4564
  750MOL0     O 1116   4.245   8.372   4.173 -0.7551  0.4752 -0.2984
  750MOL0     C 1117   4.206   8.370   4.056 -0.0488 -0.0764 -0.2330
  750MOL0     O 1118   4.247   8.277   3.955 -0.7286 -0.3696 -0.4775
  750MOL0     C 1119   4.323   8.167   3.977  1.1552 -0.3375 -0.1752
  750MOL0     C 1120   4.335   8.099   4.099 -1.0264  0.3446 -0.5938
  750MOL0     C 1121   4.435   7.994   4.114  0.0512 -0.2379 -0.1301
  750MOL0     C 1122   4.496   7.940   3.998  0.3187  0.5740 -1.0571
  750MOL0     O 1123   4.574   7.822   3.992 -0.0153  0.1315  0.5761
  750MOL0     C 1124   4.513   7.708   4.053 -0.3235 -0.9876 -0.2129
  750MOL0     C 1125   4.469   7.603   3.954 -0.3403 -0.3389  0.3760
  750MOL0     C 1126   4.556   7.604   3.825 -0.2769  0.2443 -1.3873
  750MOL0     C 1127   4.526   7.472   3.750 -0.4912  0.1687 -0.5248
  750MOL0     C 1128   4.615   7.459   3.629  0.0682 -0.5827 -0.0062
  750MOL0     C 1129   4.578   7.554   3.526  0.5445  0.6357 -0.0424
  750MOL0     C 1130   4.691   7.649   3.510 -0.4065  0.6874 -0.5919
  750MOL0     C 1131   4.649   7.768   3.419  0.1287 -0.6269 -0.2751
  750MOL0     N 1132   4.538   7.857   3.462  0.1680  1.0041  0.2096
  750MOL0     C 1133   4.409   7.831   3.442 -0.0182  0.2736  0.1935
  750MOL0     C 1134   4.349   7.938   3.491 -0.0692 -1.1795  0.4065
  750MOL0     C 1135   4.191   7.954   3.506  0.4899 -0.4073 -0.4992
  750MOL0     C 1136   4.123   7.848   3.587 -0.6097 -0.5874 -0.7975
  750MOL0     C 1137   4.184   7.822   3.720  0.1120 -0.0115  0.0620
  750MOL0     C 1138   4.088   7.741   3.795  1.1779  0.3239  0.5965
  750MOL0     O 1139   4.120   7.741   3.930 -0.5394 -0.8323 -0.8980
  750MOL0     C 1140   4.067   7.842   4.012  0.3069 -0.9362  0.1734
  750MOL0     C 1141   4.102   7.851   4.140 -0.3058 -0.0908 -0.6151
  750MOL0     C 1142   4.061   7.948   4.230 -0.0370 -0.8621  0.0451
  750MOL0     C 1143   4.119   7.944   4.370 -0.0843 -0.8274 -0.6804
  750MOL0     C 1144   3.978   8.056   4.181 -0.1493  0.0110 -0.3717
  750MOL0     C 1145   3.916   8.154   4.265  0.2782 -0.1085 -0.1534
  750MOL0     O 1146   3.994   8.260   4.310  0.9571  0.0078 -0.5208
  750MOL0     C 1147   3.923   8.378   4.362 -0.2991  0.8295  0.1672
  750MOL0     C 1148   3.986   8.460   4.461 -0.2587  0.4172  0.1930
  750MOL0     C 1149   3.926   8.569   4.528  0.2015  0.3538 -0.2518
  750MOL0     C 1150   3.795   8.605   4.481  0.6846 -0.2405  0.5477
  750MOL0     O 1151   3.717   8.712   4.517 -0.5677 -0.2910 -0.7546
  750MOL0     C 1152   3.785   8.821   4.588 -0.2025  0.9016  0.0222
  750MOL0     C 1153   3.705   8.951   4.601  0.6819 -0.5726 -0.2614
  750MOL0     C 1154   3.778   9.043   4.704 -0.3183 -0.2881  0.3541
  750MOL0     C 1155   3.702   9.168   4.730 -0.0322 -1.0634 -0.2851
  750MOL0     C 1156   3.757   9.248   4.849 -1.3013 -1.1530  0.0121
  750MOL0     C 1157   3.659   9.352   4.890  0.9535  0.7007 -0.1878
  750MOL0     C 1158   3.704   9.416   5.024 -0.7919  1.0169  0.0033
  750MOL0     C 1159   3.616   9.516   5.101  0.0930 -0.4050  0.6725
  750MOL0    Cl 1160   3.542   9.644   5.004 -0.1481  0.1319  0.0854
  750MOL0     C 1161   3.735   8.531   4.380 -0.3507 -0.0199  0.6362
  750MOL0     C 1162   3.797   8.418   4.331  0.5127  0.0062  0.2846
  750MOL0     O 1163   3.794   8.135   4.292  1.1944  0.2561 -0.5827
  750MOL0     C 1164   3.948   8.058   4.043 -0.3086 -0.0571  0.0655
  750MOL0     C 1165   3.987   7.948   3.965  0.0885 -0.6167  1.1900
  750MOL0     N 1166   4.436   8.018   3.555  0.2786  0.2391 -0.2626
  750MOL0     N 1167   4.549   7.964   3.531 -0.1206 -0.1536 -0.5468
  750MOL0     C 1168   4.481   8.009   3.880  0.0104 -0.3026  0.2568
  750MOL0     C 1169   4.408   8.130   3.871  0.1241  1.0045 -0.1815
  750MOL0     C 1170   4.126   8.486   4.007  0.2917 -0.2045  1.1149
  750MOL0     C 1171   4.049   8.557   4.097  0.7684  0.2655 -0.3627
  750MOL0     C 1172   3.975   8.669   4.058 -0.0919 -0.2938  0.6517
  750MOL0     C 1173   3.975   8.717   3.928 -0.2840  0.5474 -0.1149
  750MOL0     O 1174   3.921   8.837   3.878  0.8427 -0.5716 -0.2269
  750MOL0     C 1175   3.863   8.925   3.981 -0.4757  0.1341 -0.7949
  750MOL0     C 1176   3.815   9.057   3.936  0.1560  0.6233  0.0896
  750MOL0     C 1177   3.772   9.145   4.049  0.4620 -0.5560 -0.6891
  750MOL0     C 1178   3.671   9.254   4.015 -0.1278  0.3242 -0.1270
  750MOL0     C 1179   3.713   9.312   3.889 -0.5527 -0.3358 -0.1582
  750MOL0     C 1180   3.732   9.364   3.780 -0.5742 -0.4714 -0.0032
  750MOL0     C 1181   4.057   8.657   3.839 -0.8434  0.9153 -0.6424
  750MOL0     C 1182   4.131   8.539   3.872  1.2670 -0.6741  0.4692
  750MOL0     H 1183   4.271   8.116   4.186 -1.4056 -2.3606 -0.2712
  750MOL0     H 1184   4.439   7.959   4.216 -1.1401 -2.3358 -0.7434
  750MOL0     H 1185   4.584   7.661   4.122 -1.0999 -0.6146  0.8621
  750MOL0     H 1186   4.430   7.731   4.120 -0.6940  1.9568 -1.5316
  750MOL0     H 1187   4.476   7.516   4.019  1.9093  0.0902  0.8092
  750MOL0     H 1188   4.367   7.616   3.918  0.6355  0.5041 -2.3621
  750MOL0     H 1189   4.529   7.697   3.773 -2.4762  1.4401  1.5772
  750MOL0     H 1190   4.659   7.621   3.857 -0.1115 -0.1255 -1.7180
  750MOL0     H 1191   4.546   7.390   3.820 -0.4142  0.2286 -0.4752
  750MOL0     H 1192   4.421   7.467   3.722 -0.4257  1.9779 -1.2686
  750MOL0     H 1193   4.722   7.468   3.652  0.2218 -0.6216 -0.6858
  750MOL0     H 1194   4.619   7.361   3.581  0.8106  0.8732 -3.1643
  750MOL0     H 1195   4.576   7.495   3.434  0.8966  2.3402 -1.1916
  750MOL0     H 1196   4.482   7.606   3.531  0.9888  1.6030 -1.0487
  750MOL0     H 1197   4.724   7.682   3.609 -0.7774  1.2065 -0.6393
  750MOL0     H 1198   4.780   7.602   3.468 -0.9339 -1.1768  0.2503
  750MOL0     H 1199   4.627   7.721   3.323  0.0288  2.4273 -1.8864
  750MOL0     H 1200   4.735   7.832   3.398  0.0800 -1.0007 -1.6648
  750MOL0     H 1201   4.354   7.746   3.403 -1.1040  0.6664  0.8157
  750MOL0     H 1202   4.176   8.052   3.552  2.0660 -0.1385 -0.4972
  750MOL0     H 1203   4.153   7.952   3.404  1.4407 -1.1802 -0.8645
  750MOL0     H 1204   4.115   7.754   3.532 -4.1264 -1.3469  0.6854
  750MOL0     H 1205   4.018   7.872   3.608 -0.2327 -1.7670  3.3279
  750MOL0     H 1206   4.189   7.922   3.764 -0.2771  0.2602 -0.4986
  750MOL0     H 1207   4.282   7.774   3.726  1.2339  2.2739  1.4218
  750MOL0     H 1208   4.093   7.637   3.762 -0.5574  0.4788 -0.2617
  750MOL0     H 1209   3.981   7.761   3.793  0.4445 -2.9762  0.7600
  750MOL0     H 1210   4.157   7.765   4.176 -1.8089 -0.2142  1.6187
  750MOL0     H 1211   4.188   7.861   4.389  0.3523 -0.0115  1.6001
  750MOL0     H 1212   4.182   8.033   4.383  0.6117 -1.6770  2.5329
  750MOL0     H 1213   4.046   7.953   4.451  0.7046  1.4300 -0.1293
  750MOL0     H 1214   4.090   8.430   4.474 -0.7217 -2.1053 -1.2247
  750MOL0     H 1215   3.976   8.631   4.602 -0.0203  1.3591 -0.9181
  750MOL0     H 1216   3.823   8.784   4.684  1.5046 -2.8212 -1.8846
  750MOL0     H 1217   3.874   8.854   4.533 -2.6528  2.3441 -3.4724
  750MOL0     H 1218   3.712   9.007   4.507  1.4777 -2.6895 -1.5286
  750MOL0     H 1219   3.601   8.934   4.628  0.7938  1.1163  1.4530
  750MOL0     H 1220   3.878   9.071   4.671 -0.3328 -1.2930 -0.6103
  750MOL0     H 1221   3.775   8.990   4.799 -3.1191 -1.2261 -0.1539
  750MOL0     H 1222   3.705   9.229   4.640 -1.4762  2.5480  1.8915
  750MOL0     H 1223   3.599   9.139   4.754 -0.3209  0.2402  0.1021
  750MOL0     H 1224   3.853   9.292   4.823 -1.7265 -0.1570  0.0834
  750MOL0     H 1225   3.782   9.178   4.930  0.9822 -0.5462 -0.0991
  750MOL0     H 1226   3.646   9.425   4.809  1.3666 -1.1323 -1.9851
  750MOL0     H 1227   3.563   9.304   4.912  2.1165 -2.5346 -1.5565
  750MOL0     H 1228   3.785   9.477   4.984 -4.3670  6.7712  0.4147
  750MOL0     H 1229   3.738   9.338   5.092 -0.5428 -0.2464 -1.5061
  750MOL0     H 1230   3.676   9.559   5.182  3.5580  1.6470 -2.6629
  750MOL0     H 1231   3.546   9.449   5.152 -1.9514  1.6742  0.7439
  750MOL0     H 1232   3.648   8.585   4.345 -0.3011  0.5401  1.3546
  750MOL0     H 1233   3.740   8.375   4.249 -2.3113  1.5357  1.3254
  750MOL0     H 1234   3.882   8.138   4.010 -0.4261 -0.9542 -1.9635
  750MOL0     H 1235   3.953   7.945   3.862  1.1518  3.7865  0.5062
  750MOL0     H 1236   4.542   7.968   3.800  1.4190  1.5850  0.2808
  750MOL0     H 1237   4.411   8.195   3.784 -1.7897  0.5471 -0.6328
  750MOL0     H 1238   4.047   8.530   4.202  2.5027  0.4193 -0.2593
  750MOL0     H 1239   3.918   8.718   4.137 -2.2915  2.9419 -2.5982
  750MOL0     H 1240   3.776   8.865   4.012  1.1208 -1.6886  0.4006
  750MOL0     H 1241   3.931   8.929   4.066  0.6993 -3.0022 -1.4348
  750MOL0     H 1242   3.730   9.027   3.874  1.1191 -0.7920 -0.5921
  750MOL0     H 1243   3.890   9.113   3.879  2.6547 -3.0502 -0.5861
  750MOL0     H 1244   3.854   9.199   4.097  0.4369 -0.9526 -0.1918
  750MOL0     H 1245   3.724   9.083   4.126  1.6709  0.2775  0.7702
  750MOL0     H 1246   3.680   9.337   4.086  0.9382  0.0492  0.0723
  750MOL0     H 1247   3.567   9.219   4.017 -0.7672  2.0090  3.4284
  750MOL0     H 1248   3.724   9.422   3.691  0.7102  0.2666  0.3338
  750MOL0     H 1249   4.087   8.709   3.749  3.6889 -1.8067 -1.0103
  750MOL0     H 1250   4.189   8.489   3.796 -0.3939 -2.4543  0.3149
  751MOL0     O 1251   0.447   5.696   3.849  0.0558 -0.6843 -0.9810
  751MOL0     C 1252   0.549   5.763   3.854 -1.0076  0.7060  0.1632
  751MOL0     O 1253   0.668   5.699   3.834  0.5627 -0.6725  0.2905
  751MOL0     C 1254   0.698   5.561   3.840  0.3007  0.5689 -0.0179
  751MOL0     C 1255   0.812   5.516   3.776 -1.0006  0.5163  0.0080
  751MOL0     C 1256   0.843   5.379   3.780 -0.8212  0.9828 -0.9455
  751MOL0     C 1257   0.776   5.297   3.866 -0.7386  0.4542  0.0381
  751MOL0     O 1258   0.834   5.173   3.913  0.8553 -0.1868 -0.6792
  751MOL0     C 1259   0.963   5.140   3.879  0.2378 -0.2813  0.2496
  751MOL0     C 1260   0.979   4.999   3.928 -0.0861  0.3898  0.3909
  751MOL0     C 1261   0.892   4.890   3.861  0.3910 -0.6102  0.2558
  751MOL0     C 1262   0.859   4.911   3.712  0.1927 -0.0281 -0.8074
  751MOL0     C 1263   0.755   4.820   3.659 -0.1656  0.2729  0.2143
  751MOL0     C 1264   0.808   4.679   3.629 -0.4280  0.2964 -0.4275
  751MOL0     C 1265   0.711   4.566   3.649  0.3958 -0.3820 -0.1064
  751MOL0     C 1266   0.603   4.561   3.543 -0.2757 -0.0237  0.3987
  751MOL0     N 1267   0.546   4.422   3.517 -0.0223  0.4480  0.4065
  751MOL0     C 1268   0.625   4.319   3.481 -0.4279  0.3556 -0.2784
  751MOL0     C 1269   0.543   4.202   3.506 -0.1068 -0.5902  0.0526
  751MOL0     C 1270   0.598   4.064   3.495 -0.6822 -0.9713 -0.9899
  751MOL0     C 1271   0.630   4.001   3.350  0.8583 -0.9139 -0.7967
  751MOL0     C 1272   0.515   3.996   3.254  0.2918  0.8693 -0.2375
  751MOL0     C 1273   0.562   3.956   3.107 -0.2706  0.1452 -0.2323
  751MOL0     O 1274   0.615   3.825   3.123 -0.3343  0.1821  0.1113
  751MOL0     C 1275   0.555   3.733   3.044  0.3234  0.1371 -0.0286
  751MOL0     C 1276   0.606   3.708   2.919 -0.0659  0.0413  1.1092
  751MOL0     C 1277   0.542   3.646   2.818  0.3109  0.0682 -0.0143
  751MOL0     C 1278   0.613   3.623   2.688 -0.7936 -0.0872 -0.4187
  751MOL0     C 1279   0.412   3.585   2.853 -0.7371  0.5171  0.4740
  751MOL0     C 1280   0.327   3.509   2.760 -0.2518  0.1088  0.2623
  751MOL0     O 1281   0.371   3.498   2.629 -0.3282  0.0658 -0.0159
  751MOL0     C 1282   0.325   3.388   2.542 -0.8490 -0.8409 -0.0049
  751MOL0     C 1283   0.307   3.421   2.411 -0.2186 -0.7386 -0.2926
  751MOL0     C 1284   0.248   3.335   2.319 -0.9259 -0.0797  0.2313
  751MOL0     C 1285   0.192   3.212   2.355 -0.8176  0.2330 -0.1864
  751MOL0     O 1286   0.138   3.125   2.262 -0.2796  0.8963  0.1854
  751MOL0     C 1287  -0.003   3.088   2.290 -0.4806 -0.1396  0.5855
  751MOL0     C 1288  -0.111   3.167   2.213  0.0511  0.2672 -0.2070
  751MOL0     C 1289  -0.106   3.139   2.070  0.5966 -0.0144 -0.3383
  751MOL0     C 1290  -0.222   3.208   1.995 -0.3905  0.5810  0.0654
  751MOL0     C 1291  -0.175   3.343   1.952 -0.6078 -0.6166  0.5456
  751MOL0     C 1292  -0.282   3.426   1.875  0.0366 -0.0269 -1.0004
  751MOL0     C 1293  -0.226   3.558   1.835 -0.2454  0.5294  0.3805
  751MOL0     C 1294  -0.329   3.632   1.749  0.2811 -0.9732  0.2403
  751MOL0    Cl 1295  -0.279   3.811   1.762  0.5180 -0.6898 -0.0129
  751MOL0     C 1296   0.215   3.175   2.490 -1.1914 -0.1041 -0.4612
  751MOL0     C 1297   0.285   3.258   2.585  0.2611  0.3912  0.4469
  751MOL0     O 1298   0.223   3.455   2.801 -0.4148  0.5702 -0.3024
  751MOL0     C 1299   0.365   3.606   2.980 -0.5501 -0.1117  0.5476
  751MOL0     C 1300   0.437   3.674   3.070  0.5079  0.0701  0.5993
  751MOL0     N 1301   0.422   4.250   3.554  0.8205  0.5672  0.7509
  751MOL0     N 1302   0.419   4.377   3.553 -1.0986  0.1712  0.4431
  751MOL0     C 1303   0.660   5.345   3.928  0.3263  0.2476  0.5863
  751MOL0     C 1304   0.623   5.475   3.913 -0.6993 -0.2026  0.6170
  751MOL0     C 1305   0.548   5.910   3.863 -1.2306 -0.2507  0.6296
  751MOL0     C 1306   0.431   5.978   3.897 -0.2367  0.3076  0.0133
  751MOL0     C 1307   0.421   6.112   3.886  0.5151  0.3638  0.3045
  751MOL0     C 1308   0.538   6.200   3.883 -0.8353 -0.2983 -0.1977
  751MOL0     O 1309   0.530   6.333   3.922 -0.4227 -0.3630  0.5340
  751MOL0     C 1310   0.653   6.412   3.938 -0.7502 -0.3188 -0.1233
  751MOL0     C 1311   0.616   6.539   4.015  0.1676  1.0717 -0.5426
  751MOL0     C 1312   0.719   6.646   3.994  0.9046 -0.8347 -0.0721
  751MOL0     C 1313   0.716   6.754   4.109  0.8989  0.3658  0.0358
  751MOL0     C 1314   0.817   6.857   4.077  0.0306  0.2352  0.8970
  751MOL0     C 1315   0.915   6.923   4.040  0.9973 -0.9740 -0.1936
  751MOL0     C 1316   0.664   6.128   3.875 -0.0980  0.3036 -0.4203
  751MOL0     C 1317   0.666   5.988   3.857 -0.6467  0.0827 -0.5611
  751MOL0     H 1318   0.878   5.585   3.724 -1.6804  1.1484 -0.0446
  751MOL0     H 1319   0.941   5.352   3.740 -0.9192  2.2465 -2.1221
  751MOL0     H 1320   0.971   5.152   3.771  1.2187  0.9263  0.4337
  751MOL0     H 1321   1.041   5.198   3.929  2.6049 -0.4570 -2.9698
  751MOL0     H 1322   1.086   4.975   3.931 -0.0184  0.6057 -0.1805
  751MOL0     H 1323   0.940   4.996   4.030 -1.4951 -1.9085 -0.1583
  751MOL0     H 1324   0.961   4.807   3.876  1.1133  0.0094  0.3695
  751MOL0     H 1325   0.796   4.884   3.913  0.3408 -0.8668  0.1360
  751MOL0     H 1326   0.822   5.014   3.711  0.7220  0.4890  4.3749
  751MOL0     H 1327   0.949   4.903   3.649  1.9932  0.1108  1.5998
  751MOL0     H 1328   0.661   4.830   3.713  0.4388  3.4902  0.8867
  751MOL0     H 1329   0.739   4.869   3.563  1.6038  1.2325  0.3651
  751MOL0     H 1330   0.854   4.655   3.533  1.8118 -0.1832  0.7026
  751MOL0     H 1331   0.890   4.663   3.699 -0.6685 -1.0742 -0.4381
  751MOL0     H 1332   0.760   4.469   3.651  0.4178 -0.5242  4.8320
  751MOL0     H 1333   0.661   4.577   3.746 -0.5633  1.0387 -0.7263
  751MOL0     H 1334   0.631   4.607   3.447  2.1320  1.0926  1.5530
  751MOL0     H 1335   0.523   4.623   3.584 -0.7316  0.8387 -1.6420
  751MOL0     H 1336   0.732   4.315   3.469 -0.1957  2.1994  0.7087
  751MOL0     H 1337   0.699   4.058   3.535 -0.5373  2.1061 -0.6339
  751MOL0     H 1338   0.534   4.000   3.556 -0.8730 -1.5724 -1.7995
  751MOL0     H 1339   0.676   3.903   3.366  0.9880 -0.3589  3.2140
  751MOL0     H 1340   0.699   4.067   3.297 -0.8857  0.7286 -1.1515
  751MOL0     H 1341   0.466   4.094   3.248  2.4166  1.9399 -1.0879
  751MOL0     H 1342   0.443   3.919   3.284  1.6966 -0.3937 -0.0172
  751MOL0     H 1343   0.645   4.022   3.081 -0.3805 -0.0015 -0.9658
  751MOL0     H 1344   0.492   3.966   3.024  0.0151  1.3188 -0.3522
  751MOL0     H 1345   0.699   3.760   2.898 -1.1870  1.6689 -0.0591
  751MOL0     H 1346   0.714   3.665   2.699 -1.3720  1.2919 -0.0757
  751MOL0     H 1347   0.631   3.519   2.661  1.5084  0.3315 -0.6697
  751MOL0     H 1348   0.563   3.670   2.603  1.4665 -0.8339 -2.2377
  751MOL0     H 1349   0.340   3.519   2.377  2.3147 -1.4279 -0.0329
  751MOL0     H 1350   0.230   3.363   2.216  1.1702  1.2010  0.1570
  751MOL0     H 1351  -0.006   2.979   2.278 -0.5852 -0.0173 -0.6334
  751MOL0     H 1352  -0.028   3.106   2.395 -4.3710  1.5422 -0.4441
  751MOL0     H 1353  -0.209   3.152   2.260 -0.1052 -1.0974 -0.9062
  751MOL0     H 1354  -0.085   3.274   2.213 -3.4393  1.2527  0.1478
  751MOL0     H 1355  -0.124   3.031   2.072 -0.6761  0.1655 -0.9842
  751MOL0     H 1356  -0.010   3.163   2.024  2.5638 -1.2025  2.8248
  751MOL0     H 1357  -0.248   3.147   1.908 -0.3963 -0.6983  0.9444
  751MOL0     H 1358  -0.314   3.206   2.053 -0.1868 -0.7759  0.3681
  751MOL0     H 1359  -0.098   3.324   1.877 -1.8580 -1.1524 -0.6342
  751MOL0     H 1360  -0.145   3.419   2.025 -2.9433 -0.9759  2.0023
  751MOL0     H 1361  -0.326   3.364   1.796  0.9669 -0.5805 -1.1083
  751MOL0     H 1362  -0.370   3.446   1.937  0.4496 -0.4367 -0.2691
  751MOL0     H 1363  -0.140   3.543   1.769 -2.0469 -3.7572 -1.3546
  751MOL0     H 1364  -0.198   3.611   1.927 -3.8528  2.3804  0.5693
  751MOL0     H 1365  -0.424   3.626   1.802  0.3182  2.4006  0.9141
  751MOL0     H 1366  -0.330   3.599   1.645 -1.0435  0.8622 -0.3748
  751MOL0     H 1367   0.215   3.069   2.515  1.1037 -0.6929 -2.5990
  751MOL0     H 1368   0.293   3.239   2.691 -2.8683 -1.4264  0.4956
  751MOL0     H 1369   0.274   3.561   3.017 -1.2067  1.9557  1.5662
  751MOL0     H 1370   0.389   3.687   3.166 -0.8218  1.8040 -0.2273
  751MOL0     H 1371   0.611   5.275   3.994 -0.0351 -0.4173 -0.3520
  751MOL0     H 1372   0.531   5.499   3.967 -0.5038  0.1797  0.7806
  751MOL0     H 1373   0.345   5.925   3.936 -0.3557  0.4315 -0.0802
  751MOL0     H 1374   0.325   6.162   3.898  0.2765  0.4859 -1.7839
  751MOL0     H 1375   0.719   6.352   4.001 -1.3050 -3.6299 -2.4343
  751MOL0     H 1376   0.700   6.434   3.842 -0.4876 -3.3293 -0.7666
  751MOL0     H 1377   0.605   6.514   4.121 -0.9039  1.0234 -0.6517
  751MOL0     H 1378   0.519   6.572   3.976  0.4829 -0.0286 -2.3978
  751MOL0     H 1379   0.702   6.692   3.896 -0.4776 -1.6603 -0.2432
  751MOL0     H 1380   0.821   6.607   3.991  1.0543 -0.6243  1.4855
  751MOL0     H 1381   0.740   6.725   4.212  2.4630  2.0258  0.1790
  751MOL0     H 1382   0.613   6.791   4.116 -0.1571 -2.0783 -1.3052
  751MOL0     H 1383   0.995   6.978   3.996  0.2771  1.2656  1.1383
  751MOL0     H 1384   0.761   6.173   3.897  1.4179 -2.6449 -0.6015
  751MOL0     H 1385   0.764   5.944   3.874 -1.0115 -1.8263 -2.9058
  752MOL0     O 1386   8.007  10.800   5.376 -0.7325  0.6684  0.6730
  752MOL0     C 1387   8.083  10.842   5.467  0.0482  1.0954  0.5872
  752MOL0     O 1388   8.196  10.902   5.448 -0.5119  0.1610 -0.3674
  752MOL0     C 1389   8.268  10.918   5.331 -0.5272  0.3216 -0.1597
  752MOL0     C 1390   8.264  10.834   5.222  0.1035 -0.0060  0.5815
  752MOL0     C 1391   8.330  10.866   5.105 -0.5617  0.9675  0.7294
  752MOL0     C 1392   8.410  10.980   5.098 -0.9406 -0.4125  0.2449
  752MOL0     O 1393   8.495  11.015   4.992  0.7416 -0.3969  0.2302
  752MOL0     C 1394   8.436  10.975   4.864  0.4979 -0.7535  0.5889
  752MOL0     C 1395   8.485  11.048   4.734 -0.4908  0.3081 -1.1712
  752MOL0     C 1396   8.397  11.011   4.616 -0.5208 -0.8024 -0.1750
  752MOL0     C 1397   8.451  10.889   4.543  0.4957  0.7109 -0.2460
  752MOL0     C 1398   8.349  10.838   4.436  0.3233 -0.4437  0.0949
  752MOL0     C 1399   8.265  10.721   4.488  0.0491 -1.2069  0.2374
  752MOL0     C 1400   8.170  10.679   4.374 -0.2733 -0.0998 -0.1504
  752MOL0     C 1401   8.085  10.567   4.413 -0.8157  0.6198 -0.5663
  752MOL0     N 1402   7.966  10.542   4.322 -0.0369 -0.5123  0.3666
  752MOL0     C 1403   7.899  10.648   4.252  0.1695 -0.1900 -1.1553
  752MOL0     C 1404   7.817  10.580   4.159 -0.5835 -0.4392  0.4180
  752MOL0     C 1405   7.751  10.641   4.043 -1.1251 -0.5960  0.5381
  752MOL0     C 1406   7.815  10.586   3.910 -0.3944 -0.3416  0.7215
  752MOL0     C 1407   7.728  10.626   3.782 -0.0949  0.7406  0.6172
  752MOL0     C 1408   7.781  10.561   3.653  0.1651  0.5700 -0.0592
  752MOL0     O 1409   7.795  10.417   3.665  0.3492 -0.5939  0.8524
  752MOL0     C 1410   7.810  10.350   3.540  0.0699 -0.5892 -0.5348
  752MOL0     C 1411   7.839  10.420   3.423  0.0821 -0.3480  0.0773
  752MOL0     C 1412   7.862  10.349   3.299 -0.2448  0.5186  0.1905
  752MOL0     C 1413   7.897  10.448   3.185  0.2097  0.4661 -0.5862
  752MOL0     C 1414   7.840  10.207   3.295  0.3839  0.6275  0.5934
  752MOL0     C 1415   7.819  10.139   3.166  0.6571  0.3261  0.2358
  752MOL0     O 1416   7.832  10.005   3.158 -0.5470 -0.4317 -1.0369
  752MOL0     C 1417   7.828   9.950   3.029  0.1501  0.0941 -0.3150
  752MOL0     C 1418   7.938   9.904   2.974  0.5509  0.0380  0.0272
  752MOL0     C 1419   7.940   9.813   2.870 -0.1994  0.2589 -1.1946
  752MOL0     C 1420   7.823   9.803   2.797 -0.4973 -0.1634 -1.1392
  752MOL0     O 1421   7.825   9.729   2.675  0.2400 -0.3342 -0.8731
  752MOL0     C 1422   7.698   9.684   2.616 -0.0115 -1.0072 -0.3267
  752MOL0     C 1423   7.730   9.610   2.490 -0.0880  0.4037 -0.2247
  752MOL0     C 1424   7.849   9.664   2.409  0.5232 -0.3482  0.7946
  752MOL0     C 1425   7.867   9.610   2.265 -0.4500 -0.0342  0.3219
  752MOL0     C 1426   7.959   9.695   2.177 -0.6705  0.4491  0.2726
  752MOL0     C 1427   8.108   9.654   2.191 -0.6700  0.5454 -0.3119
  752MOL0     C 1428   8.143   9.523   2.111 -0.5322  0.2370 -0.2847
  752MOL0     C 1429   8.294   9.499   2.120 -0.1226  0.0138 -0.0750
  752MOL0    Cl 1430   8.359   9.413   1.971  0.8067  0.0119 -0.7869
  752MOL0     C 1431   7.713   9.873   2.831 -0.3455  0.2159 -0.9366
  752MOL0     C 1432   7.705   9.941   2.949  0.2169  0.9384  0.4715
  752MOL0     O 1433   7.769  10.217   3.083  0.1094  0.3921  0.0503
  752MOL0     C 1434   7.821  10.140   3.416 -0.4316 -0.2254 -0.2606
  752MOL0     C 1435   7.791  10.213   3.532 -1.2378  0.5138  0.7638
  752MOL0     N 1436   7.856  10.449   4.174  0.2655 -0.3138  0.4337
  752MOL0     N 1437   7.939  10.423   4.266 -0.4545 -0.2021  0.4976
  752MOL0     C 1438   8.424  11.060   5.210 -0.2138 -0.2364 -0.7505
  752MOL0     C 1439   8.361  11.025   5.326  0.2660  0.4096 -0.5512
  752MOL0     C 1440   8.043  10.834   5.609 -0.0974  0.3463  0.5857
  752MOL0     C 1441   8.131  10.866   5.715 -0.1785 -0.0686  0.4128
  752MOL0     C 1442   8.091  10.827   5.845  0.2251 -0.0452 -0.5402
  752MOL0     C 1443   7.962  10.776   5.882 -0.2308  0.0213 -0.2585
  752MOL0     O 1444   7.927  10.761   6.013  0.2855  0.1338 -0.6786
  752MOL0     C 1445   8.013  10.683   6.096  0.1422  0.2479  0.3447
  752MOL0     C 1446   7.967  10.676   6.240  0.8780  0.6717 -0.4861
  752MOL0     C 1447   8.062  10.630   6.348 -0.6168  0.0462 -0.7931
  752MOL0     C 1448   8.023  10.688   6.482 -0.7580 -0.2732 -0.3994
  752MOL0     C 1449   8.099  10.811   6.509 -0.3261  0.0051 -0.3916
  752MOL0     C 1450   8.177  10.906   6.526 -0.1181  0.2579 -0.2291
  752MOL0     C 1451   7.880  10.756   5.776 -0.1607 -0.0303 -0.4196
  752MOL0     C 1452   7.917  10.781   5.640 -0.3309 -0.5730  0.4820
  752MOL0     H 1453   8.193  10.752   5.229  0.2764 -0.1584  0.5499
  752MOL0     H 1454   8.325  10.807   5.014  0.7853  0.6934  0.8081
  752MOL0     H 1455   8.443  10.867   4.845  0.2464 -1.2282  2.8748
  752MOL0     H 1456   8.332  11.006   4.871  1.6387  3.6678  1.2965
  752MOL0     H 1457   8.461  11.154   4.748 -2.2978 -0.3301  1.5772
  752MOL0     H 1458   8.590  11.022   4.720 -0.4781 -2.4878  2.5012
  752MOL0     H 1459   8.296  10.991   4.653 -0.2835 -1.1001  0.3166
  752MOL0     H 1460   8.402  11.096   4.547 -3.6580  0.5868  1.1278
  752MOL0     H 1461   8.552  10.890   4.502  2.1825 -2.7370  3.0964
  752MOL0     H 1462   8.446  10.813   4.622 -1.6907 -0.1145 -1.1043
  752MOL0     H 1463   8.283  10.920   4.407 -0.4691 -0.9135  0.5300
  752MOL0     H 1464   8.400  10.813   4.343 -1.4479 -2.5789 -0.3942
  752MOL0     H 1465   8.334  10.643   4.520  1.0154 -0.0070  1.1928
  752MOL0     H 1466   8.221  10.764   4.579 -0.3977  2.6230 -1.5781
  752MOL0     H 1467   8.103  10.760   4.343  0.1913 -0.2687 -1.6571
  752MOL0     H 1468   8.233  10.640   4.294 -1.1642  2.0278 -1.9794
  752MOL0     H 1469   8.045  10.599   4.510  2.4769  4.3371 -0.2050
  752MOL0     H 1470   8.141  10.473   4.413  0.3510  1.2972 -0.3910
  752MOL0     H 1471   7.927  10.752   4.261  1.0211 -0.5689  1.0698
  752MOL0     H 1472   7.643  10.622   4.048 -1.0094 -1.1027  1.3189
  752MOL0     H 1473   7.778  10.747   4.050  0.7046 -1.0663  1.2963
  752MOL0     H 1474   7.806  10.478   3.918  1.2047 -0.6743 -1.3470
  752MOL0     H 1475   7.917  10.626   3.910 -1.5190  2.9467 -1.2176
  752MOL0     H 1476   7.730  10.731   3.754  0.3636 -0.4361 -4.9524
  752MOL0     H 1477   7.623  10.603   3.798 -0.5467  3.9367  3.2974
  752MOL0     H 1478   7.879  10.602   3.625  1.4810 -1.6329  0.9775
  752MOL0     H 1479   7.701  10.587   3.583 -2.2043 -1.4158  1.7556
  752MOL0     H 1480   7.859  10.525   3.409 -2.2815 -0.0565 -1.6151
  752MOL0     H 1481   7.803  10.469   3.133 -0.4401  0.7925  0.6660
  752MOL0     H 1482   7.953  10.535   3.222 -0.9809  0.6696  0.8397
  752MOL0     H 1483   7.966  10.393   3.121  1.1097 -0.3057  0.9830
  752MOL0     H 1484   8.038   9.915   3.015  0.8071 -1.6913 -0.0841
  752MOL0     H 1485   8.036   9.774   2.836  0.4252  1.2532 -0.6193
  752MOL0     H 1486   7.646   9.619   2.687 -1.8409  0.4336 -0.2702
  752MOL0     H 1487   7.639   9.774   2.598  3.1273  1.4075  0.6426
  752MOL0     H 1488   7.754   9.507   2.518 -1.5445  0.3356  0.8838
  752MOL0     H 1489   7.636   9.616   2.434 -0.4608  3.5142  0.5865
  752MOL0     H 1490   7.948   9.644   2.450 -0.3815 -1.4104  2.6007
  752MOL0     H 1491   7.834   9.773   2.410 -2.3804 -0.6667  1.2450
  752MOL0     H 1492   7.913   9.511   2.273 -0.0147  0.1262 -0.1729
  752MOL0     H 1493   7.771   9.595   2.214  1.1381 -1.3888 -2.5101
  752MOL0     H 1494   7.952   9.800   2.205  1.7599  0.8143 -0.2788
  752MOL0     H 1495   7.936   9.674   2.072  0.9164  0.8056 -0.1751
  752MOL0     H 1496   8.170   9.736   2.153  0.1149  2.5455  4.4842
  752MOL0     H 1497   8.126   9.642   2.298 -4.7008  0.2427  0.4709
  752MOL0     H 1498   8.114   9.531   2.006 -3.6021  0.1387  0.4615
  752MOL0     H 1499   8.083   9.445   2.159 -1.4604  2.2145  1.9955
  752MOL0     H 1500   8.334   9.445   2.206  1.1768  1.1194  0.0400
  752MOL0     H 1501   8.341   9.597   2.121  0.7316 -0.3670 -0.9670
  752MOL0     H 1502   7.619   9.852   2.781 -2.4954  0.9964  2.4422
  752MOL0     H 1503   7.607   9.974   2.982 -0.3077  0.5124 -0.6206
  752MOL0     H 1504   7.798  10.034   3.417 -1.8105  0.0554  0.7896
  752MOL0     H 1505   7.754  10.153   3.615 -2.3357  2.5074  1.7719
  752MOL0     H 1506   8.493  11.144   5.203  0.3018 -0.7068 -1.4593
  752MOL0     H 1507   8.363  11.092   5.412  0.3198 -0.5096  0.1865
  752MOL0     H 1508   8.231  10.897   5.687 -0.0842 -1.7561 -1.2786
  752MOL0     H 1509   8.163  10.843   5.924 -0.0236  3.6655 -0.8773
  752MOL0     H 1510   8.011  10.587   6.043  0.9116  1.5056 -2.0910
  752MOL0     H 1511   8.113  10.727   6.091  0.2410 -0.1249 -1.3681
  752MOL0     H 1512   7.877  10.615   6.253  1.0066  0.7900  1.2693
  752MOL0     H 1513   7.932  10.776   6.268  1.3061  1.8870 -3.7850
  752MOL0     H 1514   8.165  10.654   6.322 -0.0225 -2.3287 -0.8367
  752MOL0     H 1515   8.072  10.523   6.370  1.1477  0.5729  1.2848
  752MOL0     H 1516   8.045  10.606   6.551 -0.4760  0.2580  0.1516
  752MOL0     H 1517   7.916  10.708   6.483 -0.9575 -1.0583 -2.1787
  752MOL0     H 1518   8.252  10.981   6.542  2.1092 -1.4937 -1.7997
  752MOL0     H 1519   7.774  10.737   5.790 -0.4636 -1.2977 -3.6277
  752MOL0     H 1520   7.851  10.756   5.558 -0.3066 -2.1553  0.9229
  753MOL0     O 1521   8.913   0.702   0.296  0.2206  0.7043 -0.1859
  753MOL0     C 1522   8.839   0.684   0.391 -0.0669  0.8377 -0.8268
  753MOL0     O 1523   8.851   0.576   0.468  0.6614  0.8017 -0.2399
  753MOL0     C 1524   8.957   0.494   0.458  0.5208 -0.3335  0.7224
  753MOL0     C 1525   9.087   0.524   0.447  0.4330 -0.1783  0.9656
  753MOL0     C 1526   9.192   0.427   0.460 -0.4860  0.5737  0.1486
  753MOL0     C 1527   9.164   0.289   0.486  0.4149 -0.2970  0.4343
  753MOL0     O 1528   9.261   0.192   0.491  0.6515 -0.1874  0.0140
  753MOL0     C 1529   9.270   0.131   0.621  0.4353 -0.8396 -0.2186
  753MOL0     C 1530   9.399   0.044   0.649  0.2120 -0.0893 -1.1237
  753MOL0     C 1531   9.534   0.114   0.673  0.0258 -1.1844  0.1216
  753MOL0     C 1532   9.665   0.040   0.640 -0.0496  0.4868 -0.2634
  753MOL0     C 1533   9.681   0.052   0.488  0.6376 -0.8498 -0.1629
  753MOL0     C 1534   9.769  -0.049   0.419  0.9317  0.9679  0.4003
  753MOL0     C 1535   9.915  -0.043   0.467  0.3546 -0.8303  0.9912
  753MOL0     C 1536   9.991   0.070   0.404 -0.5326 -0.3611 -0.3534
  753MOL0     N 1537  10.025   0.166   0.511  0.8060  0.0288 -0.0574
  753MOL0     C 1538  10.148   0.206   0.546  0.6424  0.6623  0.3480
  753MOL0     C 1539  10.128   0.314   0.623  1.9979  0.1737 -0.1744
  753MOL0     C 1540  10.241   0.381   0.683 -0.0798  0.6046 -0.4460
  753MOL0     C 1541  10.262   0.316   0.818  0.2303 -0.2219  0.0191
  753MOL0     C 1542  10.357   0.379   0.915 -0.4299  1.0199 -0.0245
  753MOL0     C 1543  10.498   0.319   0.911 -0.2060  0.3120  0.1990
  753MOL0     O 1544  10.551   0.297   1.046  0.2862 -0.1120  0.1610
  753MOL0     C 1545  10.670   0.216   1.049  1.4359 -0.4180  0.8613
  753MOL0     C 1546  10.740   0.157   0.945  0.4182 -0.2143  0.5759
  753MOL0     C 1547  10.863   0.081   0.966 -0.5006 -0.2451  0.3987
  753MOL0     C 1548  10.929   0.019   0.843  0.5235  0.6180  1.6409
  753MOL0     C 1549  10.911   0.060   1.097  0.3764  0.0077 -0.5714
  753MOL0     C 1550  11.031  -0.009   1.136  0.1034 -0.2454  0.3743
  753MOL0     O 1551  11.105   0.028   1.245 -0.6335 -0.4171 -0.3351
  753MOL0     C 1552  11.139  -0.066   1.338 -0.2607 -0.6124 -0.9789
  753MOL0     C 1553  11.069  -0.070   1.458 -0.0279 -0.5867 -0.9584
  753MOL0     C 1554  11.104  -0.162   1.552  0.0222  1.1187  0.0093
  753MOL0     C 1555  11.219  -0.243   1.555  0.2837 -0.0806 -0.6282
  753MOL0     O 1556  11.261  -0.339   1.643 -0.3038 -0.1509  0.0501
  753MOL0     C 1557  11.197  -0.351   1.770  0.6193 -0.6185 -1.0419
  753MOL0     C 1558  11.261  -0.263   1.882  0.6893 -0.2781 -0.2217
  753MOL0     C 1559  11.415  -0.253   1.878  1.2565  0.2170 -1.2206
  753MOL0     C 1560  11.499  -0.318   1.993 -1.4303  0.7217  0.3372
  753MOL0     C 1561  11.471  -0.463   1.997  0.2388 -0.0278 -0.2852
  753MOL0     C 1562  11.560  -0.530   2.111  0.2307  0.8978  0.6286
  753MOL0     C 1563  11.712  -0.548   2.058 -0.2099 -0.5208 -0.7882
  753MOL0     C 1564  11.736  -0.657   1.947 -0.4204  0.1655  0.4121
  753MOL0    Cl 1565  11.637  -0.806   1.965  0.1397 -0.1539 -0.0754
  753MOL0     C 1566  11.302  -0.214   1.446 -0.0501  0.0506 -0.1643
  753MOL0     C 1567  11.269  -0.134   1.338  0.0726 -0.6603 -0.2362
  753MOL0     O 1568  11.045  -0.113   1.069  0.1800  0.0151 -0.2265
  753MOL0     C 1569  10.844   0.120   1.204  0.5366 -0.3064  1.0776
  753MOL0     C 1570  10.722   0.200   1.178 -0.4259  0.3663  0.5280
  753MOL0     N 1571   9.985   0.336   0.641 -0.5970  0.9368  0.8189
  753MOL0     N 1572   9.928   0.234   0.582 -0.1298 -0.4181 -0.6773
  753MOL0     C 1573   9.031   0.257   0.491 -0.3492  0.2685 -0.6187
  753MOL0     C 1574   8.927   0.352   0.484  0.6404 -0.5486  0.2462
  753MOL0     C 1575   8.751   0.791   0.442  0.9888 -0.7954  0.2471
  753MOL0     C 1576   8.669   0.758   0.562  0.2492 -0.2792 -0.2196
  753MOL0     C 1577   8.581   0.856   0.604 -0.3126  0.5260 -0.0503
  753MOL0     C 1578   8.571   0.982   0.531 -0.4638  0.3313 -0.5609
  753MOL0     O 1579   8.494   1.088   0.575 -0.3284  0.4769  0.6005
  753MOL0     C 1580   8.389   1.064   0.669  1.0446 -0.9184  0.0257
  753MOL0     C 1581   8.257   1.048   0.584 -0.5604  1.6679 -0.6001
  753MOL0     C 1582   8.133   1.028   0.675  0.2487 -0.6340  0.6530
  753MOL0     C 1583   8.152   0.930   0.789  0.4989 -0.1694  0.2648
  753MOL0     C 1584   8.028   0.868   0.844 -0.4001 -0.0652 -0.1689
  753MOL0     C 1585   7.931   0.803   0.877 -0.5870  0.0378  0.1915
  753MOL0     C 1586   8.646   1.006   0.424  0.1935  0.1998  0.8256
  753MOL0     C 1587   8.728   0.910   0.366  0.0300  0.7738  0.0939
  753MOL0     H 1588   9.133   0.622   0.441  1.4365 -0.6491  0.7067
  753MOL0     H 1589   9.292   0.467   0.448 -0.0065 -1.1213 -2.4120
  753MOL0     H 1590   9.270   0.211   0.695 -2.3404  1.3694 -2.3456
  753MOL0     H 1591   9.189   0.060   0.637  1.7865 -2.4658 -0.3160
  753MOL0     H 1592   9.383  -0.005   0.746  2.1950 -0.3261 -0.8768
  753MOL0     H 1593   9.416  -0.031   0.572  1.9821  1.0881 -1.9299
  753MOL0     H 1594   9.541   0.217   0.635  1.8172 -1.5110 -0.5351
  753MOL0     H 1595   9.537   0.119   0.782  0.9463  1.3689  0.0460
  753MOL0     H 1596   9.751   0.081   0.695  1.6565  1.0065 -3.1294
  753MOL0     H 1597   9.637  -0.062   0.666  0.0960  0.7302  0.9180
  753MOL0     H 1598   9.583   0.038   0.441  0.5279 -1.8107  0.3362
  753MOL0     H 1599   9.709   0.154   0.460 -0.9271 -0.6158 -1.0038
  753MOL0     H 1600   9.728  -0.147   0.446 -3.2449  1.1459 -3.8193
  753MOL0     H 1601   9.759  -0.049   0.310  1.9119 -1.4872  0.2554
  753MOL0     H 1602   9.925  -0.046   0.576 -0.6906 -1.6384  1.0805
  753MOL0     H 1603   9.975  -0.127   0.430  0.8758 -1.1623  2.5203
  753MOL0     H 1604   9.946   0.137   0.330 -1.5028 -1.8724 -1.1872
  753MOL0     H 1605  10.079   0.029   0.355  1.0124 -0.6091  2.4117
  753MOL0     H 1606  10.240   0.161   0.510  1.4124  3.1584 -1.0573
  753MOL0     H 1607  10.335   0.371   0.628 -0.1112  2.5884 -0.9551
  753MOL0     H 1608  10.233   0.490   0.674 -3.3007  0.3044 -3.0065
  753MOL0     H 1609  10.285   0.209   0.813 -3.1957 -1.0662  0.0732
  753MOL0     H 1610  10.163   0.313   0.864  0.2318 -1.9468 -0.0189
  753MOL0     H 1611  10.319   0.362   1.017  0.5869  0.2919  0.2490
  753MOL0     H 1612  10.358   0.482   0.878 -2.2457  0.7587 -0.8923
  753MOL0     H 1613  10.569   0.382   0.858 -0.4832 -0.0955 -0.6665
  753MOL0     H 1614  10.504   0.226   0.853  2.5876  0.3520  0.2927
  753MOL0     H 1615  10.709   0.166   0.842  0.6695  0.4176  0.5484
  753MOL0     H 1616  10.883  -0.077   0.819 -1.3655  2.2007 -1.8715
  753MOL0     H 1617  10.917   0.090   0.761  2.2580  1.8913  2.4351
  753MOL0     H 1618  11.037   0.008   0.858  0.4202  0.0107  1.9687
  753MOL0     H 1619  10.977  -0.015   1.476  1.3936  1.3845  0.7203
  753MOL0     H 1620  11.047  -0.170   1.644 -0.4839  1.0248 -0.3136
  753MOL0     H 1621  11.089  -0.332   1.767  0.5404 -0.4873  1.0863
  753MOL0     H 1622  11.193  -0.457   1.799  1.2200 -0.3628  0.0479
  753MOL0     H 1623  11.226  -0.159   1.884  1.8282  0.1201 -0.0853
  753MOL0     H 1624  11.230  -0.302   1.980  2.6657  0.2845  0.6748
  753MOL0     H 1625  11.429  -0.146   1.901 -2.7649  0.1266  3.3172
  753MOL0     H 1626  11.460  -0.271   1.780 -0.3200  2.1392 -2.3560
  753MOL0     H 1627  11.602  -0.300   1.962 -1.4656  1.7447  0.7756
  753MOL0     H 1628  11.482  -0.263   2.086 -1.0633  0.4171  0.5849
  753MOL0     H 1629  11.498  -0.516   1.905  0.0370 -1.1301  0.2721
  753MOL0     H 1630  11.365  -0.471   2.022  0.5024  0.3762  1.0279
  753MOL0     H 1631  11.574  -0.466   2.199  0.6472 -1.3428  2.2582
  753MOL0     H 1632  11.526  -0.626   2.149 -1.2994  2.8142  4.7220
  753MOL0     H 1633  11.775  -0.557   2.146  0.0473  1.6904 -0.6909
  753MOL0     H 1634  11.764  -0.459   2.022  2.8556 -2.5794 -1.7950
  753MOL0     H 1635  11.840  -0.691   1.953 -1.2887 -2.9058 -0.1177
  753MOL0     H 1636  11.713  -0.622   1.846 -3.9375  1.7323  1.6046
  753MOL0     H 1637  11.405  -0.244   1.429 -0.9225 -2.9725 -0.6996
  753MOL0     H 1638  11.334  -0.112   1.254 -1.2247 -2.9931 -1.9422
  753MOL0     H 1639  10.874   0.116   1.308  4.8244 -0.2058  0.0225
  753MOL0     H 1640  10.680   0.240   1.270  2.7039  0.1619  2.1692
  753MOL0     H 1641   9.001   0.153   0.489  2.3331 -0.6169  0.7761
  753MOL0     H 1642   8.822   0.327   0.495  0.9513 -1.0061  2.4689
  753MOL0     H 1643   8.678   0.664   0.615  1.1924 -2.6864 -4.2515
  753MOL0     H 1644   8.535   0.829   0.698 -0.2726  0.3334 -0.0852
  753MOL0     H 1645   8.405   0.984   0.742  1.2036 -1.1638 -0.2745
  753MOL0     H 1646   8.369   1.156   0.725  0.3766 -0.1124 -1.4605
  753MOL0     H 1647   8.264   0.952   0.533 -1.2527  0.7919  0.8904
  753MOL0     H 1648   8.241   1.135   0.520 -0.0976  3.4978  1.6073
  753MOL0     H 1649   8.054   0.993   0.607  0.9002 -2.3249  0.7244
  753MOL0     H 1650   8.106   1.126   0.716 -0.5769 -2.4599  4.9614
  753MOL0     H 1651   8.203   0.971   0.877 -0.8087 -2.1422  2.0406
  753MOL0     H 1652   8.221   0.848   0.769  0.8550  0.2685 -0.3371
  753MOL0     H 1653   7.837   0.760   0.908 -0.1229 -0.3726  1.0953
  753MOL0     H 1654   8.641   1.103   0.376 -0.6602 -0.8472 -1.3533
  753MOL0     H 1655   8.785   0.927   0.275 -2.4576 -2.3801 -2.3119
  754MOL0     O 1656   7.481   0.060   8.858 -0.4831 -0.2549 -0.4790
  754MOL0     C 1657   7.369   0.089   8.816  0.0422 -0.3804  0.6392
  754MOL0     O 1658   7.343   0.116   8.684 -0.3355 -0.5422 -0.2667
  754MOL0     C 1659   7.448   0.115   8.594 -1.0501  0.0953 -0.2552
  754MOL0     C 1660   7.566   0.190   8.623  0.0489 -0.2807  0.1630
  754MOL0     C 1661   7.673   0.197   8.537 -0.3846 -0.0016 -0.6381
  754MOL0     C 1662   7.679   0.117   8.426 -0.5780  0.3360 -0.1307
  754MOL0     O 1663   7.794   0.139   8.344 -0.3066 -0.2054  0.2538
  754MOL0     C 1664   7.807   0.069   8.222 -0.5081  0.4456 -0.0689
  754MOL0     C 1665   7.947   0.085   8.174  0.5037  0.0827  0.1600
  754MOL0     C 1666   7.988   0.235   8.158  0.6758 -0.3761  0.6771
  754MOL0     C 1667   7.994   0.292   8.020 -0.2463 -0.0338  0.5613
  754MOL0     C 1668   7.983   0.446   8.003 -1.3251  0.0412 -0.7571
  754MOL0     C 1669   8.083   0.521   8.104  0.6174  0.1420  0.4963
  754MOL0     C 1670   8.088   0.673   8.067  0.1496  0.3920  0.1874
  754MOL0     C 1671   8.179   0.763   8.150  0.6445  0.0866 -0.5363
  754MOL0     N 1672   8.320   0.719   8.156 -0.3673 -0.2554 -0.7115
  754MOL0     C 1673   8.388   0.669   8.052  0.6340  0.7005 -0.1801
  754MOL0     C 1674   8.499   0.624   8.100 -0.8230  0.1682 -0.4626
  754MOL0     C 1675   8.605   0.562   8.007  0.2502  0.2677 -0.7842
  754MOL0     C 1676   8.650   0.651   7.880  0.0549  0.2529  0.6179
  754MOL0     C 1677   8.711   0.785   7.920  0.4351 -0.0100 -0.3146
  754MOL0     C 1678   8.819   0.772   8.034  0.7201  1.0209  0.4004
  754MOL0     O 1679   8.895   0.886   8.059  0.3733 -0.3238  0.2302
  754MOL0     C 1680   8.955   0.901   8.186 -0.6873 -1.0280  0.3979
  754MOL0     C 1681   8.887   0.898   8.302  0.0766  0.6221  1.4085
  754MOL0     C 1682   8.950   0.935   8.422  1.5867  1.5157 -0.8473
  754MOL0     C 1683   8.858   0.919   8.537  0.0913 -0.1840 -0.2881
  754MOL0     C 1684   9.085   0.968   8.420 -0.1962  0.6844  0.3653
  754MOL0     C 1685   9.156   1.032   8.546 -0.4256 -0.0054  0.1809
  754MOL0     O 1686   9.128   0.977   8.671 -0.5829  0.1714 -0.0277
  754MOL0     C 1687   9.194   1.018   8.783 -0.1923  0.6438 -0.3601
  754MOL0     C 1688   9.240   0.921   8.872 -0.6378 -0.2086  0.4899
  754MOL0     C 1689   9.307   0.957   8.988  0.5967 -0.3654 -0.7884
  754MOL0     C 1690   9.315   1.090   9.033  0.3760  0.3983 -0.0065
  754MOL0     O 1691   9.371   1.121   9.152  0.2696 -0.2632 -0.2900
  754MOL0     C 1692   9.397   1.024   9.254  0.2594  0.5980 -0.2851
  754MOL0     C 1693   9.266   0.962   9.306  0.3602  0.0530  0.8567
  754MOL0     C 1694   9.154   1.062   9.337  0.9411  0.2767  0.1498
  754MOL0     C 1695   9.192   1.156   9.446 -0.0226  0.2277 -0.1927
  754MOL0     C 1696   9.074   1.241   9.501 -0.8163 -0.3914  0.9752
  754MOL0     C 1697   9.098   1.278   9.650 -0.3173 -0.2486  0.4617
  754MOL0     C 1698   9.061   1.157   9.734  0.2957 -0.6656 -0.4201
  754MOL0     C 1699   9.156   1.149   9.851  0.3989 -0.1741  0.4285
  754MOL0    Cl 1700   9.135   1.279   9.977  0.1744  0.1596  0.2007
  754MOL0     C 1701   9.275   1.188   8.940  0.7122 -0.2282 -0.2033
  754MOL0     C 1702   9.210   1.157   8.818 -0.6833  0.7725 -0.4226
  754MOL0     O 1703   9.241   1.117   8.518  0.3547 -0.2474 -0.2465
  754MOL0     C 1704   9.159   0.968   8.304  0.7655 -0.2607  0.9601
  754MOL0     C 1705   9.092   0.928   8.191  0.3690  0.3023 -0.0166
  754MOL0     N 1706   8.514   0.666   8.235  0.1843  0.0817  1.1338
  754MOL0     N 1707   8.405   0.719   8.268 -1.1175  0.9731 -1.0055
  754MOL0     C 1708   7.571   0.032   8.397  0.8225 -0.1968 -0.5443
  754MOL0     C 1709   7.455   0.041   8.482 -0.1232 -0.2451  1.8780
  754MOL0     C 1710   7.269   0.134   8.909  0.7133 -1.0342  0.4668
  754MOL0     C 1711   7.130   0.144   8.869 -0.5292  0.4653 -0.2471
  754MOL0     C 1712   7.039   0.197   8.967 -0.6153 -0.9571 -0.3845
  754MOL0     C 1713   7.079   0.229   9.095  1.1983  0.0640 -0.2655
  754MOL0     O 1714   6.988   0.287   9.192  0.5058  0.2726 -0.4124
  754MOL0     C 1715   6.843   0.279   9.180 -0.0041 -0.0073  0.2621
  754MOL0     C 1716   6.787   0.415   9.131  0.3178 -1.1474 -0.1361
  754MOL0     C 1717   6.852   0.535   9.183 -0.0499 -0.0113 -0.6771
  754MOL0     C 1718   6.804   0.565   9.333  0.9026  1.0877 -0.3003
  754MOL0     C 1719   6.682   0.642   9.327  0.0646 -0.1742  0.3222
  754MOL0     C 1720   6.583   0.700   9.308  0.2765  0.1199 -0.9126
  754MOL0     C 1721   7.211   0.222   9.127 -0.4461 -0.4110  0.1606
  754MOL0     C 1722   7.305   0.173   9.034  0.1624  0.1739 -1.0675
  754MOL0     H 1723   7.571   0.252   8.711 -0.6765  1.6199 -1.0809
  754MOL0     H 1724   7.759   0.264   8.542  0.1678 -0.5037 -2.5266
  754MOL0     H 1725   7.781  -0.035   8.244  0.3530  0.6341  2.1310
  754MOL0     H 1726   7.751   0.122   8.145  0.9722  3.1714  0.5939
  754MOL0     H 1727   8.014   0.041   8.249  1.0455  0.1743 -0.2604
  754MOL0     H 1728   7.964   0.030   8.081 -1.8010 -1.5596  0.6349
  754MOL0     H 1729   7.916   0.293   8.217 -2.3067 -4.4670  1.5062
  754MOL0     H 1730   8.080   0.268   8.208  0.7035  2.1415 -0.8635
  754MOL0     H 1731   8.091   0.260   7.980  0.9024  4.7270 -1.1980
  754MOL0     H 1732   7.914   0.249   7.959  0.5342 -1.9603  0.8123
  754MOL0     H 1733   8.001   0.479   7.900 -1.0391 -2.3726 -1.5335
  754MOL0     H 1734   7.877   0.464   8.020 -1.4196 -1.5999  0.5956
  754MOL0     H 1735   8.042   0.515   8.205 -1.2119  0.6579 -0.1714
  754MOL0     H 1736   8.186   0.485   8.094  1.0068  1.1228  0.8587
  754MOL0     H 1737   8.123   0.689   7.965 -2.2708  0.8060 -0.6646
  754MOL0     H 1738   7.981   0.696   8.070 -0.3183 -1.6089 -0.1028
  754MOL0     H 1739   8.133   0.780   8.248 -2.4582 -0.8092 -1.7338
  754MOL0     H 1740   8.178   0.862   8.104 -2.8238  0.2689 -0.3431
  754MOL0     H 1741   8.366   0.667   7.946  4.0089 -0.8427 -1.0056
  754MOL0     H 1742   8.686   0.509   8.058  0.9864  1.0659 -1.0935
  754MOL0     H 1743   8.555   0.473   7.968 -2.0034 -0.4888  3.2646
  754MOL0     H 1744   8.565   0.671   7.814 -0.3913 -0.9046  0.8047
  754MOL0     H 1745   8.720   0.595   7.817 -0.7302  1.3692 -1.3090
  754MOL0     H 1746   8.620   0.840   7.942  0.6378  0.1676  0.0867
  754MOL0     H 1747   8.754   0.839   7.835 -0.6880  4.6300  1.7907
  754MOL0     H 1748   8.890   0.691   8.014 -1.4778 -1.3087  1.5058
  754MOL0     H 1749   8.763   0.753   8.126 -0.0950  0.9613 -0.1076
  754MOL0     H 1750   8.779   0.894   8.295  0.1102  1.9932 -1.5009
  754MOL0     H 1751   8.755   0.940   8.504 -0.0744  1.9384  1.3873
  754MOL0     H 1752   8.864   0.817   8.575 -1.9375  0.3175  1.5710
  754MOL0     H 1753   8.896   0.990   8.611 -2.6455 -0.1125  1.2126
  754MOL0     H 1754   9.234   0.815   8.849 -0.0595 -0.1383 -0.0031
  754MOL0     H 1755   9.360   0.884   9.048 -0.9566  1.4854  3.1926
  754MOL0     H 1756   9.464   0.954   9.203  1.8651  1.5649  0.4114
  754MOL0     H 1757   9.457   1.067   9.336 -0.2250  1.8798 -0.5727
  754MOL0     H 1758   9.219   0.899   9.229 -0.0262 -0.1473  1.2448
  754MOL0     H 1759   9.284   0.893   9.389 -0.1011 -0.7541  0.2991
  754MOL0     H 1760   9.067   1.001   9.365  2.3573 -4.6284 -4.4759
  754MOL0     H 1761   9.121   1.116   9.248 -0.5819 -2.7023 -1.2677
  754MOL0     H 1762   9.252   1.104   9.521  1.9335 -0.9858 -2.4683
  754MOL0     H 1763   9.262   1.223   9.396 -1.4049  0.3635 -2.0397
  754MOL0     H 1764   8.978   1.190   9.490 -1.0160  0.4879 -2.4207
  754MOL0     H 1765   9.061   1.337   9.450 -3.4040  0.2237  2.6203
  754MOL0     H 1766   9.204   1.306   9.652 -0.3805  0.6886 -2.8692
  754MOL0     H 1767   9.032   1.360   9.680 -1.0110 -0.3212 -0.7855
  754MOL0     H 1768   9.072   1.063   9.679  2.5697 -1.0246  0.5266
  754MOL0     H 1769   8.961   1.178   9.772 -0.9788 -1.1686 -3.2138
  754MOL0     H 1770   9.260   1.139   9.820  0.5777 -0.1142  1.0085
  754MOL0     H 1771   9.137   1.053   9.899 -1.0915 -0.7274 -1.1269
  754MOL0     H 1772   9.286   1.295   8.957 -0.4981  0.1338 -1.5132
  754MOL0     H 1773   9.177   1.228   8.743 -0.9441  0.8148 -0.2683
  754MOL0     H 1774   9.260   1.001   8.283 -0.0252  1.4472 -0.4109
  754MOL0     H 1775   9.141   0.932   8.094 -0.9751  1.1103 -0.6889
  754MOL0     H 1776   7.562  -0.030   8.308  0.4292 -0.5112 -0.2858
  754MOL0     H 1777   7.362  -0.008   8.454  0.2759  0.9789 -2.3683
  754MOL0     H 1778   7.101   0.130   8.765 -1.1409 -0.0382 -0.0137
  754MOL0     H 1779   6.952   0.249   8.928 -0.8754 -1.6110 -0.6918
  754MOL0     H 1780   6.808   0.205   9.108 -0.4968  3.3020 -3.1496
  754MOL0     H 1781   6.811   0.240   9.277 -0.4865  0.5813  0.3418
  754MOL0     H 1782   6.680   0.420   9.150  0.7485  0.5752  2.3705
  754MOL0     H 1783   6.807   0.433   9.024  2.2855  1.3509  0.5354
  754MOL0     H 1784   6.829   0.628   9.131  4.2637  2.3473  1.0585
  754MOL0     H 1785   6.960   0.519   9.171 -0.0816  1.2740 -3.3923
  754MOL0     H 1786   6.888   0.620   9.376  1.6466  0.0582 -0.3913
  754MOL0     H 1787   6.785   0.475   9.393 -0.9825  2.0257  0.5981
  754MOL0     H 1788   6.485   0.743   9.296  0.6761  1.0951 -0.7249
  754MOL0     H 1789   7.240   0.256   9.226 -1.8673 -0.6739  0.6897
  754MOL0     H 1790   7.408   0.153   9.063 -0.0779 -0.2912 -0.5120
  755MOL0     O 1791   6.180   6.639   6.673 -0.3009 -0.1406  0.0043
  755MOL0     C 1792   6.245   6.563   6.592  0.1516 -0.5154 -0.4953
  755MOL0     O 1793   6.199   6.498   6.477 -0.1906  0.3221 -0.0064
  755MOL0     C 1794   6.060   6.509   6.446 -0.3313 -0.2667  0.2807
  755MOL0     C 1795   6.006   6.409   6.372 -0.8516  0.8369 -0.3594
  755MOL0     C 1796   5.872   6.413   6.336  0.3899 -0.7279  0.7968
  755MOL0     C 1797   5.801   6.536   6.354  1.0206  0.1494 -0.5236
  755MOL0     O 1798   5.664   6.551   6.316 -1.0541 -0.7878 -0.2708
  755MOL0     C 1799   5.595   6.432   6.279 -0.0882 -0.4290  0.4815
  755MOL0     C 1800   5.454   6.480   6.284 -0.1364  0.1607  0.6393
  755MOL0     C 1801   5.414   6.560   6.153  0.5402 -0.9438 -0.4368
  755MOL0     C 1802   5.307   6.662   6.203  0.0244 -0.1155 -0.8762
  755MOL0     C 1803   5.234   6.723   6.083 -0.3836 -0.4620 -0.0325
  755MOL0     C 1804   5.154   6.846   6.132  0.0164  0.2704  0.5062
  755MOL0     C 1805   5.103   6.909   6.005  0.7201  0.0090  1.0997
  755MOL0     C 1806   4.998   6.823   5.931  0.2569  0.5407 -0.8462
  755MOL0     N 1807   4.896   6.900   5.869  0.5557 -0.0579  0.3945
  755MOL0     C 1808   4.814   6.981   5.945 -0.5251  0.5104  0.3382
  755MOL0     C 1809   4.740   7.045   5.848 -0.5694 -0.6258 -0.8214
  755MOL0     C 1810   4.633   7.140   5.863 -0.0692 -0.1243 -0.9869
  755MOL0     C 1811   4.526   7.074   5.961 -0.5970 -0.2992 -0.2754
  755MOL0     C 1812   4.394   7.159   5.976 -1.1163  0.0908  0.1696
  755MOL0     C 1813   4.290   7.139   5.866 -1.1155  0.2553  0.2680
  755MOL0     O 1814   4.241   7.008   5.851  0.1941  0.3320 -0.0572
  755MOL0     C 1815   4.127   6.982   5.778  1.3052  0.5993 -0.4333
  755MOL0     C 1816   4.120   6.867   5.697  0.5450 -0.4848 -0.2882
  755MOL0     C 1817   3.997   6.835   5.630 -0.5590  0.7861 -0.9319
  755MOL0     C 1818   4.003   6.697   5.566  0.5447  0.6955  0.9267
  755MOL0     C 1819   3.884   6.909   5.626 -0.8290 -1.2019 -0.7091
  755MOL0     C 1820   3.758   6.894   5.542  0.6025 -0.4049 -0.5477
  755MOL0     O 1821   3.658   6.978   5.559  0.0021 -0.1610 -0.4835
  755MOL0     C 1822   3.554   6.980   5.469  0.8197  0.5118  0.1491
  755MOL0     C 1823   3.526   7.092   5.389  0.8481 -0.3278  0.3257
  755MOL0     C 1824   3.418   7.089   5.300 -0.5146 -0.3096 -0.4148
  755MOL0     C 1825   3.325   6.990   5.294 -0.2846  0.4124 -0.4314
  755MOL0     O 1826   3.221   6.994   5.194  0.2563  0.5464 -1.4587
  755MOL0     C 1827   3.191   7.114   5.115 -1.1344  0.2437  0.5763
  755MOL0     C 1828   3.062   7.105   5.045  0.4474  0.6276 -0.3616
  755MOL0     C 1829   3.063   6.989   4.942  0.2103  0.7511  0.0870
  755MOL0     C 1830   2.923   6.916   4.958 -0.0614 -0.0049 -0.5431
  755MOL0     C 1831   2.906   6.809   4.840  0.0981 -0.1723 -0.2530
  755MOL0     C 1832   2.904   6.876   4.698  0.3355  0.0997  0.4000
  755MOL0     C 1833   2.886   6.778   4.582  0.1565  0.3946  0.6197
  755MOL0     C 1834   3.015   6.712   4.539  0.6053  0.0418  0.9151
  755MOL0    Cl 1835   3.003   6.640   4.387  0.4379 -0.2671 -0.3007
  755MOL0     C 1836   3.365   6.871   5.357  0.5345 -1.0556 -0.1397
  755MOL0     C 1837   3.480   6.871   5.445  0.6319  0.1370  0.2949
  755MOL0     O 1838   3.776   6.821   5.447  0.0080  0.0977  0.3545
  755MOL0     C 1839   3.889   7.017   5.712  0.3058  0.6256 -0.5667
  755MOL0     C 1840   4.002   7.050   5.794  0.4341 -0.2829  0.1126
  755MOL0     N 1841   4.777   7.009   5.724 -0.1459 -0.1467  0.3066
  755MOL0     N 1842   4.865   6.912   5.734 -0.5564 -0.5408 -0.2827
  755MOL0     C 1843   5.858   6.637   6.429 -0.5271 -0.1184  0.1276
  755MOL0     C 1844   5.990   6.630   6.463  0.6207  0.3508  0.4118
  755MOL0     C 1845   6.386   6.544   6.625  0.5053 -0.7099  0.6665
  755MOL0     C 1846   6.432   6.583   6.745 -0.2798 -0.6288 -0.5898
  755MOL0     C 1847   6.565   6.557   6.791  0.0973  0.1874  0.1404
  755MOL0     C 1848   6.650   6.470   6.710 -0.6140  0.5333 -0.5311
  755MOL0     O 1849   6.780   6.444   6.745 -0.3805 -0.2098  0.0299
  755MOL0     C 1850   6.855   6.344   6.678 -0.3735  0.4890 -1.0320
  755MOL0     C 1851   6.795   6.198   6.699  0.2288  0.0888  0.8210
  755MOL0     C 1852   6.911   6.097   6.711 -1.3484  0.8274 -0.0418
  755MOL0     C 1853   6.859   5.960   6.752  0.1759 -0.1342  0.3059
  755MOL0     C 1854   6.752   5.902   6.675 -0.0657 -0.5663 -0.1198
  755MOL0     C 1855   6.647   5.852   6.649  0.4060  0.3514  0.6893
  755MOL0     C 1856   6.594   6.433   6.584 -0.2624 -0.5408  0.4110
  755MOL0     C 1857   6.468   6.463   6.546 -0.0302 -0.4284  0.2036
  755MOL0     H 1858   6.053   6.312   6.360  0.4698  1.0554  2.2764
  755MOL0     H 1859   5.830   6.320   6.298 -1.3050 -0.6156  2.2194
  755MOL0     H 1860   5.628   6.399   6.180 -1.6897 -2.1540  0.4741
  755MOL0     H 1861   5.610   6.356   6.357 -2.0337 -2.0878 -0.6804
  755MOL0     H 1862   5.382   6.400   6.302  0.0629 -0.1776 -0.0241
  755MOL0     H 1863   5.444   6.542   6.373 -2.0578  1.1849 -0.2390
  755MOL0     H 1864   5.497   6.616   6.109  0.9887 -1.2927 -0.0376
  755MOL0     H 1865   5.350   6.503   6.084  0.3967 -0.2144 -0.9230
  755MOL0     H 1866   5.226   6.619   6.262 -0.6869  1.5334 -0.5741
  755MOL0     H 1867   5.352   6.733   6.273 -3.9844 -0.6955  2.6754
  755MOL0     H 1868   5.315   6.745   6.012  1.1529  1.7833  2.2463
  755MOL0     H 1869   5.175   6.649   6.028  2.3868 -2.4443 -0.5448
  755MOL0     H 1870   5.070   6.826   6.199  1.9242  0.8545  3.2376
  755MOL0     H 1871   5.230   6.912   6.175  0.1579 -0.1472  0.9065
  755MOL0     H 1872   5.070   7.008   6.038  1.4122  1.2567 -1.6635
  755MOL0     H 1873   5.182   6.924   5.931 -2.7142 -2.8199 -3.6623
  755MOL0     H 1874   4.953   6.744   5.991 -1.3900  0.2516 -2.3710
  755MOL0     H 1875   5.064   6.776   5.858  1.5318  1.3643 -0.2673
  755MOL0     H 1876   4.798   6.981   6.053 -0.5221 -0.2942  0.3494
  755MOL0     H 1877   4.673   7.234   5.903 -1.0908 -0.5752  1.2023
  755MOL0     H 1878   4.588   7.160   5.765 -1.8791  0.6141 -0.0325
  755MOL0     H 1879   4.571   7.086   6.060 -1.9967  1.7518  0.1765
  755MOL0     H 1880   4.513   6.967   5.943  2.8803 -1.3873  2.5775
  755MOL0     H 1881   4.425   7.263   5.962  2.2822 -1.2077 -4.1609
  755MOL0     H 1882   4.368   7.132   6.079  0.0251 -0.5470  0.3200
  755MOL0     H 1883   4.332   7.175   5.772 -1.0050 -1.8550 -0.5485
  755MOL0     H 1884   4.198   7.193   5.889 -1.8652 -1.1369  0.6948
  755MOL0     H 1885   4.198   6.792   5.706 -0.1968 -1.2006  0.3239
  755MOL0     H 1886   4.058   6.625   5.628 -2.9769 -4.2251 -0.9629
  755MOL0     H 1887   3.906   6.646   5.556  0.0266  1.5333  1.5440
  755MOL0     H 1888   4.050   6.696   5.467  0.4333 -1.8570  0.8214
  755MOL0     H 1889   3.576   7.187   5.396 -2.9657  1.9808 -0.8164
  755MOL0     H 1890   3.417   7.180   5.241 -0.7473  1.1399  1.7546
  755MOL0     H 1891   3.191   7.205   5.176 -0.7471  0.7297 -0.1391
  755MOL0     H 1892   3.280   7.117   5.051 -0.6601  0.1493  1.2180
  755MOL0     H 1893   2.985   7.095   5.123 -0.0419 -0.9782 -1.0057
  755MOL0     H 1894   3.038   7.199   4.994  0.8795  0.7825 -0.2768
  755MOL0     H 1895   3.144   6.916   4.951  0.2343  0.2952 -2.9436
  755MOL0     H 1896   3.069   7.040   4.845 -0.1034 -1.0238 -0.9026
  755MOL0     H 1897   2.926   6.867   5.056  0.6348 -1.3705 -1.2143
  755MOL0     H 1898   2.848   6.995   4.956  1.5879  1.7561  1.7430
  755MOL0     H 1899   2.814   6.751   4.850  0.3663 -0.1295  4.7406
  755MOL0     H 1900   2.998   6.751   4.848 -0.1238 -0.4005  0.6527
  755MOL0     H 1901   2.821   6.947   4.695  1.4631  1.5249  1.3743
  755MOL0     H 1902   3.004   6.922   4.698 -0.7820  2.7223 -0.5158
  755MOL0     H 1903   2.833   6.832   4.503 -0.8127 -0.8300  0.3889
  755MOL0     H 1904   2.820   6.698   4.618 -3.0709  2.0989 -1.0643
  755MOL0     H 1905   3.031   6.634   4.615 -2.1163 -0.6477  0.8843
  755MOL0     H 1906   3.095   6.786   4.541  1.7564 -0.7757 -3.9576
  755MOL0     H 1907   3.306   6.786   5.324  1.9540 -1.5678 -1.5457
  755MOL0     H 1908   3.516   6.776   5.484  0.2070 -0.2039 -0.1343
  755MOL0     H 1909   3.804   7.084   5.714  0.2967  0.6100  1.3243
  755MOL0     H 1910   3.988   7.122   5.874  1.3470 -0.2546  0.2571
  755MOL0     H 1911   5.802   6.729   6.435  0.1724  0.6763 -3.3201
  755MOL0     H 1912   6.036   6.714   6.513 -1.1212  0.2176  2.3928
  755MOL0     H 1913   6.369   6.640   6.812  0.9536 -3.4533  3.3962
  755MOL0     H 1914   6.593   6.593   6.889  3.0048 -0.7889 -0.2167
  755MOL0     H 1915   6.863   6.355   6.569 -1.1163 -1.4807 -1.3302
  755MOL0     H 1916   6.959   6.356   6.708 -0.1456  0.1706 -1.6688
  755MOL0     H 1917   6.723   6.169   6.621  1.3200  0.7274 -0.4748
  755MOL0     H 1918   6.740   6.192   6.793 -1.9050  0.4938 -0.3186
  755MOL0     H 1919   6.969   6.124   6.800 -0.4648  0.1051 -0.3842
  755MOL0     H 1920   6.980   6.096   6.626 -2.5251 -1.6073 -1.0785
  755MOL0     H 1921   6.827   5.955   6.857  0.5448 -2.6217  0.3638
  755MOL0     H 1922   6.938   5.885   6.752  0.2916 -0.0482 -1.5954
  755MOL0     H 1923   6.548   5.813   6.636 -1.2617  4.7092 -2.1126
  755MOL0     H 1924   6.652   6.375   6.512  0.5984  0.3660  0.3478
  755MOL0     H 1925   6.441   6.420   6.450  1.9226  1.3508 -1.2362
  756MOL0     O 1926   8.119   8.694   7.200  0.0530 -0.9146 -0.5303
  756MOL0     C 1927   8.235   8.678   7.233 -0.0187  0.3009  0.5013
  756MOL0     O 1928   8.316   8.773   7.301 -0.5123  0.8127  0.9009
  756MOL0     C 1929   8.254   8.882   7.357 -0.3339  0.2022  0.0874
  756MOL0     C 1930   8.244   9.007   7.289  0.0890  0.4130 -0.6122
  756MOL0     C 1931   8.181   9.114   7.353  1.2402 -0.8983 -0.0821
  756MOL0     C 1932   8.128   9.094   7.479  0.2112  1.0289  0.1675
  756MOL0     O 1933   8.075   9.202   7.552  0.2613  0.4087 -0.1892
  756MOL0     C 1934   7.938   9.187   7.592 -0.2295 -0.3074 -0.5174
  756MOL0     C 1935   7.851   9.300   7.549  0.7171 -0.1343 -0.0898
  756MOL0     C 1936   7.827   9.306   7.396 -0.3721  0.0499  0.0369
  756MOL0     C 1937   7.750   9.194   7.327 -0.4423  0.6985 -0.8421
  756MOL0     C 1938   7.709   9.214   7.191 -0.2607  0.1236 -0.0149
  756MOL0     C 1939   7.566   9.254   7.182  0.2397  0.5779  0.3209
  756MOL0     C 1940   7.529   9.382   7.252  0.2707 -0.8801 -0.6914
  756MOL0     C 1941   7.566   9.512   7.184 -1.0852  0.0977  1.3584
  756MOL0     N 1942   7.525   9.535   7.043  0.8713 -0.2781  0.3318
  756MOL0     C 1943   7.566   9.628   6.957 -0.0159 -0.0098 -0.6509
  756MOL0     C 1944   7.501   9.619   6.842  0.2714 -0.4152  0.2714
  756MOL0     C 1945   7.517   9.724   6.731 -0.5600 -0.5456  0.4275
  756MOL0     C 1946   7.664   9.748   6.699 -0.1610  0.8222 -0.2817
  756MOL0     C 1947   7.723   9.621   6.645  0.7713  0.0171 -0.7176
  756MOL0     C 1948   7.877   9.612   6.643  0.6800  0.1593 -0.5475
  756MOL0     O 1949   7.937   9.693   6.538  1.3990 -0.0496  0.0287
  756MOL0     C 1950   8.072   9.690   6.516 -0.4152 -0.1195 -0.5298
  756MOL0     C 1951   8.158   9.592   6.577  0.1432 -0.4802 -0.4719
  756MOL0     C 1952   8.291   9.573   6.541 -0.4523  0.5868 -0.0761
  756MOL0     C 1953   8.372   9.474   6.630  0.3203 -0.0710  0.5597
  756MOL0     C 1954   8.350   9.659   6.441 -0.3948 -0.0891 -0.2364
  756MOL0     C 1955   8.489   9.654   6.391 -0.8608 -0.5305  0.6688
  756MOL0     O 1956   8.562   9.774   6.375  0.8085 -0.6022  1.0953
  756MOL0     C 1957   8.679   9.769   6.301 -0.4522 -0.5363 -0.8115
  756MOL0     C 1958   8.809   9.731   6.349  0.2056  0.5370  0.1161
  756MOL0     C 1959   8.921   9.753   6.262  0.3100 -0.4930  0.4729
  756MOL0     C 1960   8.907   9.810   6.136 -0.7966 -0.0496 -0.3177
  756MOL0     O 1961   9.022   9.797   6.066  0.2658 -0.0638  0.1045
  756MOL0     C 1962   9.063   9.913   5.992 -1.0575 -0.0548  0.7250
  756MOL0     C 1963   9.147   9.871   5.870 -0.0027  0.2327 -0.2615
  756MOL0     C 1964   9.246   9.776   5.908 -0.4198  0.4482  0.2949
  756MOL0     C 1965   9.367   9.767   5.808  0.8413  0.1390 -0.8223
  756MOL0     C 1966   9.457   9.656   5.873 -0.7675 -0.1811  0.2840
  756MOL0     C 1967   9.604   9.667   5.816 -0.4097  1.1099  0.0027
  756MOL0     C 1968   9.702   9.574   5.885 -0.4688  0.0941 -0.5311
  756MOL0     C 1969   9.662   9.418   5.900  0.9304 -1.0797 -0.4376
  756MOL0    Cl 1970   9.812   9.343   5.956 -0.0402 -0.4941 -0.4924
  756MOL0     C 1971   8.789   9.847   6.096  0.0247  0.3997  0.9165
  756MOL0     C 1972   8.675   9.828   6.173  1.3562 -0.5950 -0.5622
  756MOL0     O 1973   8.534   9.550   6.354  0.3709 -0.0512 -0.4734
  756MOL0     C 1974   8.264   9.757   6.382  0.2942  0.5073 -0.8841
  756MOL0     C 1975   8.127   9.765   6.416 -0.0328 -0.0990 -0.5039
  756MOL0     N 1976   7.434   9.492   6.860  0.4210 -0.3125 -0.4356
  756MOL0     N 1977   7.442   9.451   6.979 -1.3900  0.0520 -0.6496
  756MOL0     C 1978   8.133   8.971   7.540  0.0771  0.6974  0.1516
  756MOL0     C 1979   8.187   8.868   7.480 -0.3751  0.3741  0.2479
  756MOL0     C 1980   8.304   8.564   7.173 -0.0865  0.3705  0.3507
  756MOL0     C 1981   8.245   8.488   7.074 -0.0179  0.4400  0.0729
  756MOL0     C 1982   8.306   8.388   7.004 -0.3166  0.0056 -0.4532
  756MOL0     C 1983   8.426   8.335   7.054 -0.2131  0.7046  0.3301
  756MOL0     O 1984   8.508   8.238   7.001  0.2310  0.2967 -0.1069
  756MOL0     C 1985   8.439   8.123   6.938 -0.5390 -0.0780  0.2625
  756MOL0     C 1986   8.383   8.014   7.028 -0.4476 -0.3870 -0.2416
  756MOL0     C 1987   8.237   8.034   7.076 -0.1931 -0.8044 -0.4172
  756MOL0     C 1988   8.179   7.906   7.135  0.4659  0.0461  0.5782
  756MOL0     C 1989   8.031   7.924   7.142  0.2128 -0.4482 -0.8063
  756MOL0     C 1990   7.907   7.931   7.148 -0.8965  0.6447 -0.0615
  756MOL0     C 1991   8.487   8.412   7.159 -0.9036  0.4746  0.6023
  756MOL0     C 1992   8.424   8.517   7.219  0.7859  0.2013 -0.0963
  756MOL0     H 1993   8.291   9.015   7.192  2.3450 -0.6243  0.2979
  756MOL0     H 1994   8.182   9.215   7.314  2.0361 -0.7066  0.4161
  756MOL0     H 1995   7.896   9.093   7.554 -0.6588  0.6726 -2.6001
  756MOL0     H 1996   7.939   9.199   7.701 -0.9142  2.0422 -0.7252
  756MOL0     H 1997   7.751   9.287   7.592 -0.5761  0.5138 -2.6649
  756MOL0     H 1998   7.888   9.396   7.586  0.9607  0.0831 -0.8663
  756MOL0     H 1999   7.777   9.401   7.374  0.1486  0.8032  1.8905
  756MOL0     H 2000   7.927   9.320   7.354  0.3036  1.9387  2.0201
  756MOL0     H 2001   7.821   9.110   7.330 -2.3521 -1.0660  3.8297
  756MOL0     H 2002   7.665   9.155   7.384  0.0524  0.9678  0.0853
  756MOL0     H 2003   7.779   9.290   7.153  0.6886 -0.0407  1.3042
  756MOL0     H 2004   7.727   9.118   7.142  2.9093 -0.4815  2.0288
  756MOL0     H 2005   7.534   9.248   7.078 -1.1581 -3.1193  0.8150
  756MOL0     H 2006   7.517   9.165   7.225 -0.6258 -0.5507 -2.7531
  756MOL0     H 2007   7.421   9.395   7.247  0.2052 -1.3867 -0.6653
  756MOL0     H 2008   7.566   9.377   7.355 -1.9070 -1.0795  0.1373
  756MOL0     H 2009   7.669   9.547   7.191 -1.5862  1.3915  2.8511
  756MOL0     H 2010   7.505   9.584   7.239 -1.6715  1.1095 -0.5146
  756MOL0     H 2011   7.632   9.710   6.984 -0.7051  1.3605 -2.8897
  756MOL0     H 2012   7.472   9.692   6.637  4.7707 -1.2359 -2.2213
  756MOL0     H 2013   7.459   9.811   6.763 -4.0157 -2.6393  0.4034
  756MOL0     H 2014   7.722   9.789   6.783 -1.5212  3.1086 -0.3763
  756MOL0     H 2015   7.674   9.828   6.625  0.9605 -0.4357 -1.5517
  756MOL0     H 2016   7.680   9.604   6.546  0.8711 -0.7797 -0.6281
  756MOL0     H 2017   7.681   9.543   6.709  0.5070  2.4179  2.2535
  756MOL0     H 2018   7.905   9.508   6.630  1.0720  0.4828 -2.5862
  756MOL0     H 2019   7.915   9.650   6.739 -0.8602  0.6947 -0.1217
  756MOL0     H 2020   8.122   9.524   6.653  0.5201  1.0277  1.1024
  756MOL0     H 2021   8.318   9.385   6.664 -0.4065 -0.8615 -2.4232
  756MOL0     H 2022   8.452   9.424   6.575  2.0671 -1.1397  3.7963
  756MOL0     H 2023   8.415   9.523   6.718  0.1667 -2.2955  1.9481
  756MOL0     H 2024   8.815   9.687   6.448  1.2037  0.0158 -0.1640
  756MOL0     H 2025   9.016   9.717   6.299  0.9998  0.5764 -0.1894
  756MOL0     H 2026   8.983   9.985   5.976 -1.7811 -0.2174  3.2077
  756MOL0     H 2027   9.123   9.967   6.065 -1.7192 -2.4362  3.2155
  756MOL0     H 2028   9.081   9.826   5.796 -1.1217 -0.7613  1.2884
  756MOL0     H 2029   9.181   9.962   5.819  1.0196 -0.7430 -1.3768
  756MOL0     H 2030   9.191   9.683   5.921  1.1615 -0.1760  3.6039
  756MOL0     H 2031   9.285   9.806   6.005  2.9943  0.1215 -0.8337
  756MOL0     H 2032   9.349   9.749   5.702  4.2987 -1.0818 -1.3122
  756MOL0     H 2033   9.417   9.865   5.812 -0.6408  0.9032  0.4180
  756MOL0     H 2034   9.426   9.555   5.844  3.5274 -1.5280 -0.3428
  756MOL0     H 2035   9.461   9.669   5.981  1.7511 -1.0490  0.3420
  756MOL0     H 2036   9.609   9.624   5.715  0.3525 -0.5130  0.7051
  756MOL0     H 2037   9.637   9.771   5.809 -1.6870  1.5487  0.2335
  756MOL0     H 2038   9.714   9.620   5.984  1.5008  1.3585 -1.3187
  756MOL0     H 2039   9.803   9.587   5.847  0.2919  3.0523  2.0564
  756MOL0     H 2040   9.627   9.385   5.802  0.6742 -1.1446 -0.3260
  756MOL0     H 2041   9.583   9.412   5.976  1.2410 -1.0884 -0.1122
  756MOL0     H 2042   8.775   9.903   6.004 -4.7441  3.4360  3.0827
  756MOL0     H 2043   8.578   9.855   6.132  0.7978  2.1207  2.1918
  756MOL0     H 2044   8.316   9.818   6.309  3.2772  1.3011  1.7024
  756MOL0     H 2045   8.061   9.830   6.359 -0.5007  0.6835  0.8667
  756MOL0     H 2046   8.083   8.939   7.630  0.7420 -3.9619 -0.8542
  756MOL0     H 2047   8.185   8.766   7.516  0.7379  0.4667  0.6384
  756MOL0     H 2048   8.154   8.526   7.029 -1.2813 -1.1763  1.1519
  756MOL0     H 2049   8.258   8.334   6.923 -2.1217 -2.5120  2.0895
  756MOL0     H 2050   8.363   8.159   6.868 -0.1647 -1.4996 -0.9401
  756MOL0     H 2051   8.519   8.079   6.877  2.6738  2.1244  2.6145
  756MOL0     H 2052   8.452   8.005   7.113 -0.9965  4.4027  0.9956
  756MOL0     H 2053   8.391   7.918   6.977 -2.2766 -0.5635 -0.2700
  756MOL0     H 2054   8.190   8.076   6.987  2.3333  2.0045 -0.5756
  756MOL0     H 2055   8.241   8.103   7.161  2.0191  3.4781 -3.6318
  756MOL0     H 2056   8.219   7.895   7.236 -0.4549 -4.0842  0.6511
  756MOL0     H 2057   8.204   7.816   7.079  1.5630  1.7458 -1.8251
  756MOL0     H 2058   7.800   7.927   7.150 -0.8990  0.7226  1.6834
  756MOL0     H 2059   8.582   8.380   7.200 -0.7849 -1.4291 -1.0298
  756MOL0     H 2060   8.474   8.562   7.304  1.9355 -0.0523 -0.6142
  757MOL0     O 2061   5.523   4.207   9.324 -0.9992 -0.0908 -0.1106
  757MOL0     C 2062   5.445   4.108   9.336  1.0065  0.5947  0.6014
  757MOL0     O 2063   5.441   4.012   9.429  0.4010  0.0657  0.4610
  757MOL0     C 2064   5.527   4.011   9.532  0.2141  0.5471 -0.5753
  757MOL0     C 2065   5.590   3.889   9.558 -0.2514 -0.3747  0.6497
  757MOL0     C 2066   5.677   3.881   9.665 -0.5467  0.2041 -0.4285
  757MOL0     C 2067   5.701   3.978   9.757 -0.3845 -0.4750  0.9327
  757MOL0     O 2068   5.773   3.958   9.871 -0.2338 -0.1413  0.2458
  757MOL0     C 2069   5.699   3.971   9.997  0.5756  0.9746 -0.3961
  757MOL0     C 2070   5.781   3.883  10.102  0.1415  0.0615 -0.1105
  757MOL0     C 2071   5.927   3.939  10.122 -0.5821 -0.4962 -0.0363
  757MOL0     C 2072   5.934   4.092  10.155  0.5484  0.3293  0.1998
  757MOL0     C 2073   6.085   4.137  10.179 -0.4814 -0.9226 -0.0010
  757MOL0     C 2074   6.086   4.295  10.211 -0.3233 -0.5574  0.0632
  757MOL0     C 2075   6.191   4.352  10.306 -0.2022  0.5849  0.4950
  757MOL0     C 2076   6.343   4.304  10.289  0.8810 -0.1820  1.0812
  757MOL0     N 2077   6.415   4.392  10.372 -0.0757 -0.2938 -0.1856
  757MOL0     C 2078   6.397   4.405  10.506 -0.3994 -0.5556 -0.0140
  757MOL0     C 2079   6.512   4.476  10.543  0.0153  0.9951 -0.1684
  757MOL0     C 2080   6.537   4.515  10.685 -0.1098 -1.0632  0.6042
  757MOL0     C 2081   6.598   4.397  10.779 -1.0764 -0.3139  0.7645
  757MOL0     C 2082   6.633   4.442  10.921  0.8191  1.4232  0.3025
  757MOL0     C 2083   6.662   4.312  11.015  0.7357  0.0354  1.5727
  757MOL0     O 2084   6.641   4.183  10.962 -0.7581 -0.1502 -0.2133
  757MOL0     C 2085   6.602   4.087  11.056  0.5668 -0.2579 -1.1582
  757MOL0     C 2086   6.514   3.999  10.993  0.0503 -0.1857  0.9500
  757MOL0     C 2087   6.440   3.909  11.065 -0.0267 -0.3735 -0.4421
  757MOL0     C 2088   6.340   3.821  10.995  0.1173  0.5871  0.7633
  757MOL0     C 2089   6.451   3.906  11.208 -0.6016 -0.0359  0.2597
  757MOL0     C 2090   6.379   3.807  11.290 -0.0777  0.2254 -0.0509
  757MOL0     O 2091   6.347   3.676  11.253  0.3885 -0.2386  0.0051
  757MOL0     C 2092   6.240   3.622  11.330 -0.2606  0.7124 -0.9752
  757MOL0     C 2093   6.109   3.683  11.346  0.4015 -0.4830  0.4143
  757MOL0     C 2094   6.014   3.617  11.424  0.8558 -0.2991  0.9819
  757MOL0     C 2095   6.037   3.497  11.487 -0.7793  1.2151 -0.2978
  757MOL0     O 2096   5.930   3.442  11.551  0.0970 -0.0325 -0.7254
  757MOL0     C 2097   5.943   3.353  11.670  0.4490 -0.0521  0.1435
  757MOL0     C 2098   5.803   3.299  11.698  0.5006  1.5802  0.7127
  757MOL0     C 2099   5.710   3.400  11.760 -0.2325 -0.9177 -0.1222
  757MOL0     C 2100   5.589   3.432  11.665 -0.7455 -0.5486  0.4162
  757MOL0     C 2101   5.479   3.532  11.721  0.5535  0.5946  0.3260
  757MOL0     C 2102   5.340   3.513  11.657 -0.0243  0.1186 -1.1281
  757MOL0     C 2103   5.240   3.468  11.764 -0.0896  0.1325  0.9342
  757MOL0     C 2104   5.105   3.429  11.707  0.2137  0.4814 -0.1375
  757MOL0    Cl 2105   4.988   3.451  11.835 -0.1385  0.3678  0.1925
  757MOL0     C 2106   6.165   3.442  11.481 -0.5318  0.0144  0.7257
  757MOL0     C 2107   6.263   3.506  11.405 -1.0797  0.1268 -0.7107
  757MOL0     O 2108   6.338   3.857  11.396  0.9698  0.0622 -1.0422
  757MOL0     C 2109   6.557   3.979  11.265  1.1168 -0.1569 -0.2073
  757MOL0     C 2110   6.622   4.077  11.190 -0.3053  0.3359 -0.2303
  757MOL0     N 2111   6.596   4.494  10.437 -0.9143 -1.5818 -0.8005
  757MOL0     N 2112   6.549   4.427  10.337  0.8295 -0.0759  0.6341
  757MOL0     C 2113   5.633   4.094   9.740  0.4276  0.9675 -0.0318
  757MOL0     C 2114   5.547   4.113   9.626 -1.0995 -0.5617 -1.3340
  757MOL0     C 2115   5.323   4.117   9.246 -0.0147  1.2043 -0.4183
  757MOL0     C 2116   5.309   4.232   9.162  0.1420 -0.0277 -0.5987
  757MOL0     C 2117   5.206   4.249   9.071  1.3399 -0.2758 -0.4394
  757MOL0     C 2118   5.123   4.142   9.047  0.0608 -0.1955 -0.9224
  757MOL0     O 2119   5.040   4.149   8.938 -0.0386 -0.7834  0.1555
  757MOL0     C 2120   4.957   4.036   8.902  0.3303  0.3743 -1.0060
  757MOL0     C 2121   4.893   4.053   8.763  0.4825 -0.0272 -0.6292
  757MOL0     C 2122   4.851   3.919   8.697 -0.0678  0.4537  0.2258
  757MOL0     C 2123   4.767   3.936   8.574 -0.7726 -0.3770 -1.0548
  757MOL0     C 2124   4.626   3.952   8.597 -0.3641 -0.2315  0.6903
  757MOL0     C 2125   4.513   3.971   8.632  0.0501  0.9594  0.2130
  757MOL0     C 2126   5.137   4.021   9.120 -0.1913  0.2539 -0.3408
  757MOL0     C 2127   5.238   4.000   9.220  0.4658 -0.2412  1.0043
  757MOL0     H 2128   5.549   3.806   9.501 -2.8142  0.0051  1.7585
  757MOL0     H 2129   5.713   3.781   9.687 -0.6953 -0.0678 -1.4131
  757MOL0     H 2130   5.685   4.072  10.036  0.5129  1.8349 -2.5147
  757MOL0     H 2131   5.603   3.919   9.992 -0.3641  2.4596  1.1454
  757MOL0     H 2132   5.733   3.892  10.200  1.1537  0.3659  0.3727
  757MOL0     H 2133   5.770   3.782  10.062 -2.5420  0.3840 -0.3727
  757MOL0     H 2134   5.962   3.888  10.213 -1.4211 -1.4187 -0.2102
  757MOL0     H 2135   6.000   3.910  10.046  1.1249  1.0355  0.9359
  757MOL0     H 2136   5.892   4.158  10.078  1.7023  0.1041 -0.6484
  757MOL0     H 2137   5.884   4.115  10.250 -2.1804 -0.2417 -1.0073
  757MOL0     H 2138   6.116   4.082  10.269 -0.0718  1.9207  1.6946
  757MOL0     H 2139   6.160   4.127  10.100  1.3333  0.8243  1.4298
  757MOL0     H 2140   6.102   4.361  10.126  0.0590  1.5129  1.6695
  757MOL0     H 2141   5.986   4.316  10.249 -0.8311 -1.2796 -0.8243
  757MOL0     H 2142   6.181   4.461  10.294 -2.3233  0.4361  0.5420
  757MOL0     H 2143   6.155   4.316  10.403 -2.6497 -0.4086 -0.7099
  757MOL0     H 2144   6.386   4.307  10.188  1.0104 -2.5407  1.0022
  757MOL0     H 2145   6.355   4.198  10.314  0.4296 -0.2132  1.1705
  757MOL0     H 2146   6.316   4.371  10.569 -0.7017  1.0263  0.4936
  757MOL0     H 2147   6.605   4.600  10.682 -0.9108 -0.3966  0.9609
  757MOL0     H 2148   6.440   4.537  10.732 -0.2253  0.3772 -0.2534
  757MOL0     H 2149   6.682   4.349  10.728 -0.3907  1.5117  0.0556
  757MOL0     H 2150   6.525   4.317  10.790  0.0896 -1.3568  1.0759
  757MOL0     H 2151   6.547   4.497  10.963 -2.0522 -1.8980 -0.7309
  757MOL0     H 2152   6.717   4.511  10.915 -0.0905  2.5782  0.5704
  757MOL0     H 2153   6.601   4.341  11.102 -1.2228  2.0012 -0.3271
  757MOL0     H 2154   6.764   4.330  11.050  0.5245  4.1413  0.5848
  757MOL0     H 2155   6.478   4.008  10.891 -0.0938  2.8363  1.1895
  757MOL0     H 2156   6.353   3.824  10.886 -1.9849  1.9774  0.4846
  757MOL0     H 2157   6.353   3.715  11.018 -0.5245 -0.8197 -4.0886
  757MOL0     H 2158   6.242   3.863  11.018 -1.6577 -2.0705 -1.3256
  757MOL0     H 2159   6.093   3.784  11.309  0.4791 -0.0528  1.4919
  757MOL0     H 2160   5.924   3.674  11.447  0.3866 -0.3108 -0.6407
  757MOL0     H 2161   6.006   3.267  11.646  1.3267  0.7880 -0.6146
  757MOL0     H 2162   5.968   3.412  11.758  0.5406  1.8887 -1.1370
  757MOL0     H 2163   5.759   3.253  11.609 -0.0139  0.7203  1.3993
  757MOL0     H 2164   5.803   3.213  11.765  1.9825  0.4862 -0.6384
  757MOL0     H 2165   5.763   3.495  11.774 -2.0626  0.4145 -1.7944
  757MOL0     H 2166   5.691   3.366  11.863  2.6637  0.5431  1.0062
  757MOL0     H 2167   5.613   3.484  11.572 -1.7814  2.4345  1.6793
  757MOL0     H 2168   5.547   3.333  11.643 -0.8679 -0.5044  0.4473
  757MOL0     H 2169   5.509   3.637  11.709 -2.2478  1.5076  0.4749
  757MOL0     H 2170   5.472   3.507  11.827  4.8084 -2.7982  0.0391
  757MOL0     H 2171   5.299   3.601  11.607 -0.3111  1.2230  0.9485
  757MOL0     H 2172   5.342   3.431  11.584 -4.9926 -2.4908  1.1938
  757MOL0     H 2173   5.233   3.539  11.847 -1.2753 -0.7015  1.5881
  757MOL0     H 2174   5.277   3.378  11.815 -0.2293  0.4921  1.6946
  757MOL0     H 2175   5.115   3.323  11.681  0.5187 -0.1051  2.0860
  757MOL0     H 2176   5.085   3.480  11.612  0.5648 -1.9253 -1.5771
  757MOL0     H 2177   6.184   3.350  11.535 -2.7499 -1.1407 -0.2893
  757MOL0     H 2178   6.360   3.460  11.392 -0.9959  0.6811 -2.3624
  757MOL0     H 2179   6.581   3.973  11.371 -1.9826 -0.4816  0.5623
  757MOL0     H 2180   6.667   4.156  11.249 -2.1230  2.5022 -1.5867
  757MOL0     H 2181   5.644   4.170   9.817 -2.2008  0.9518  0.4710
  757MOL0     H 2182   5.509   4.215   9.629  3.7368  1.5442 -1.4831
  757MOL0     H 2183   5.382   4.312   9.164 -1.3145  1.3415  1.1872
  757MOL0     H 2184   5.200   4.330   8.999  1.5201 -0.2351 -0.4096
  757MOL0     H 2185   5.011   3.941   8.897  0.4970  0.2705  1.6704
  757MOL0     H 2186   4.878   4.026   8.977  1.6765  0.7163  0.5154
  757MOL0     H 2187   4.965   4.098   8.694  1.3124 -0.6746 -0.2124
  757MOL0     H 2188   4.801   4.111   8.765  0.8591  0.5680 -0.4545
  757MOL0     H 2189   4.785   3.865   8.767  1.2556 -1.3209  0.1834
  757MOL0     H 2190   4.928   3.846   8.671 -1.7322 -0.4404 -2.6018
  757MOL0     H 2191   4.780   3.843   8.517  2.5969 -0.9875  0.4599
  757MOL0     H 2192   4.806   4.019   8.513 -1.3331 -0.2685 -1.2680
  757MOL0     H 2193   4.408   3.985   8.648  0.0379  1.6992 -0.4113
  757MOL0     H 2194   5.075   3.933   9.104 -0.0170 -0.2263  1.3258
  757MOL0     H 2195   5.281   3.908   9.258  0.6565 -0.2595  0.7489
  758MOL0     O 2196   8.273   7.056   9.647 -0.1122  0.0148  0.1546
  758MOL0     C 2197   8.341   7.086   9.746  0.3950  1.0250  0.3507
  758MOL0     O 2198   8.296   7.145   9.853 -0.0834  0.5902 -0.0114
  758MOL0     C 2199   8.164   7.159   9.877 -0.6413 -1.0808 -0.3431
  758MOL0     C 2200   8.093   7.037   9.911 -1.1266 -0.4155  0.1091
  758MOL0     C 2201   7.953   7.040   9.926 -0.0355  0.3575 -1.0357
  758MOL0     C 2202   7.882   7.159   9.921 -0.7331 -1.1474 -0.1553
  758MOL0     O 2203   7.756   7.169   9.959  0.1477 -0.0505 -0.2325
  758MOL0     C 2204   7.669   7.062   9.999 -0.2899 -0.0393  0.6261
  758MOL0     C 2205   7.519   7.096   9.969 -1.2340  0.4879  0.9101
  758MOL0     C 2206   7.496   7.171   9.829 -0.4426 -0.0051 -0.0537
  758MOL0     C 2207   7.343   7.158   9.803 -0.3937 -0.6986  0.4260
  758MOL0     C 2208   7.324   7.235   9.666  0.0498  0.0275 -0.2061
  758MOL0     C 2209   7.207   7.324   9.677 -0.1711 -0.7330  0.1784
  758MOL0     C 2210   7.164   7.357   9.530 -0.0627  0.1629  0.1672
  758MOL0     C 2211   7.058   7.471   9.525 -0.3145 -0.0871  0.0654
  758MOL0     N 2212   7.050   7.519   9.391 -0.6307 -0.0014  0.4918
  758MOL0     C 2213   7.024   7.443   9.278  0.3011  0.2153 -0.4946
  758MOL0     C 2214   7.002   7.536   9.176 -0.2177 -0.0141  0.6070
  758MOL0     C 2215   6.992   7.482   9.029 -0.5012 -0.6162 -0.3280
  758MOL0     C 2216   6.932   7.590   8.927  0.0151  0.8773 -0.0253
  758MOL0     C 2217   6.872   7.513   8.811 -0.4014 -0.0849 -0.5068
  758MOL0     C 2218   6.742   7.436   8.839 -0.2245 -0.0596 -0.2243
  758MOL0     O 2219   6.661   7.427   8.721  0.4053 -0.8124 -0.0258
  758MOL0     C 2220   6.687   7.359   8.614 -0.6821  0.1278 -0.3403
  758MOL0     C 2221   6.678   7.432   8.491  0.3815  0.0993 -0.5208
  758MOL0     C 2222   6.701   7.373   8.360  0.1338  1.0550 -0.2827
  758MOL0     C 2223   6.639   7.433   8.240 -0.2311 -0.9398  0.8309
  758MOL0     C 2224   6.756   7.235   8.364  0.8778 -0.3501  0.2907
  758MOL0     C 2225   6.806   7.166   8.241 -0.0310  0.2311  1.0235
  758MOL0     O 2226   6.783   7.221   8.117 -0.4220 -1.0725  0.3809
  758MOL0     C 2227   6.883   7.200   8.029  0.4254 -0.6777 -1.0111
  758MOL0     C 2228   6.880   7.088   7.943 -0.1143  0.4880 -0.2937
  758MOL0     C 2229   6.976   7.076   7.842 -0.2553  0.0160  0.3064
  758MOL0     C 2230   7.081   7.164   7.824 -0.3707 -0.1855  0.1117
  758MOL0     O 2231   7.183   7.130   7.737  0.8647 -0.2172 -0.1316
  758MOL0     C 2232   7.207   7.224   7.631 -1.3687  0.3308 -0.0352
  758MOL0     C 2233   7.349   7.299   7.639  0.6822 -0.1962  0.1308
  758MOL0     C 2234   7.369   7.364   7.507 -0.2967 -0.6149 -0.1884
  758MOL0     C 2235   7.448   7.499   7.511 -1.0301 -0.3546 -0.3669
  758MOL0     C 2236   7.487   7.540   7.373  0.2159 -0.8455  0.3709
  758MOL0     C 2237   7.576   7.661   7.362 -0.4930 -0.3134  0.2062
  758MOL0     C 2238   7.483   7.792   7.357  0.8975 -1.5099  1.4343
  758MOL0     C 2239   7.551   7.924   7.414 -0.3450  0.1081 -0.7250
  758MOL0    Cl 2240   7.584   8.039   7.282  0.0330  0.1037  0.1788
  758MOL0     C 2241   7.087   7.270   7.927 -0.0746 -0.3459 -0.2953
  758MOL0     C 2242   6.987   7.293   8.018  0.5522  0.1872 -0.1510
  758MOL0     O 2243   6.856   7.057   8.259  0.0289  0.5275 -0.4176
  758MOL0     C 2244   6.791   7.187   8.491  1.3440 -0.0313 -0.5029
  758MOL0     C 2245   6.758   7.239   8.612  0.3470 -1.1385 -0.7635
  758MOL0     N 2246   7.035   7.659   9.223 -0.1074 -0.3985  0.0801
  758MOL0     N 2247   7.063   7.649   9.351 -0.1906 -0.0582  0.2417
  758MOL0     C 2248   7.952   7.276   9.899 -1.0881 -0.1944  0.0534
  758MOL0     C 2249   8.093   7.282   9.883 -0.0208  0.1805  0.3710
  758MOL0     C 2250   8.476   7.038   9.761  0.2455  1.2582  0.5907
  758MOL0     C 2251   8.537   6.958   9.662  0.4254  0.3402  0.5781
  758MOL0     C 2252   8.670   6.922   9.679  0.1674 -0.0765  0.1338
  758MOL0     C 2253   8.750   6.954   9.785 -0.3322 -1.1255 -0.5847
  758MOL0     O 2254   8.884   6.927   9.777 -0.3413  0.2902 -0.2417
  758MOL0     C 2255   8.977   6.982   9.876 -0.8788  0.0246 -0.2036
  758MOL0     C 2256   9.117   6.941   9.829 -1.2013  0.5556 -0.0427
  758MOL0     C 2257   9.232   7.038   9.865 -0.9889  0.1987  1.4579
  758MOL0     C 2258   9.368   6.968   9.850  0.7519  0.8403 -0.1912
  758MOL0     C 2259   9.497   7.026   9.888  0.1649  0.3564 -0.6944
  758MOL0     C 2260   9.602   7.086   9.904 -0.4326  0.7083 -0.9719
  758MOL0     C 2261   8.693   7.033   9.883 -1.1688 -0.1891 -0.4793
  758MOL0     C 2262   8.564   7.083   9.873  0.4083  0.1744 -0.3209
  758MOL0     H 2263   8.146   6.942   9.909 -0.4890 -0.1207  1.5128
  758MOL0     H 2264   7.910   6.944   9.954  1.0528 -0.1700 -1.1395
  758MOL0     H 2265   7.688   6.982   9.926 -1.0095 -0.3318  0.7568
  758MOL0     H 2266   7.685   7.022  10.100  2.1477  0.7303  0.6295
  758MOL0     H 2267   7.479   6.995   9.978  2.7452 -1.6054 -1.9587
  758MOL0     H 2268   7.491   7.158  10.055  0.0776  1.1969  0.8444
  758MOL0     H 2269   7.537   7.272   9.828 -0.6284  0.1590  2.3539
  758MOL0     H 2270   7.554   7.112   9.758  1.2894  0.3604  1.0096
  758MOL0     H 2271   7.301   7.057   9.804 -1.4402 -0.3104 -1.2081
  758MOL0     H 2272   7.283   7.214   9.875 -1.3156  0.4531 -1.1674
  758MOL0     H 2273   7.411   7.287   9.626 -0.9266  0.9139 -1.2348
  758MOL0     H 2274   7.294   7.155   9.597 -0.5105 -0.2802  0.3814
  758MOL0     H 2275   7.122   7.270   9.721  0.5778 -2.7198 -0.6654
  758MOL0     H 2276   7.221   7.408   9.746  4.0018  0.2158 -1.5504
  758MOL0     H 2277   7.260   7.370   9.479  0.4124 -3.2302 -0.0892
  758MOL0     H 2278   7.118   7.265   9.491 -0.0152  0.4573 -0.6079
  758MOL0     H 2279   7.086   7.546   9.598 -1.0864  0.6840 -0.4123
  758MOL0     H 2280   6.960   7.427   9.548 -1.0999  0.5961 -1.7665
  758MOL0     H 2281   7.021   7.334   9.282  2.6087  0.1441  2.0018
  758MOL0     H 2282   7.089   7.436   9.010 -1.0816 -1.9977 -0.0718
  758MOL0     H 2283   6.933   7.391   9.045  0.6084 -1.2529  0.2500
  758MOL0     H 2284   7.009   7.657   8.888  1.1478  0.8438  2.0034
  758MOL0     H 2285   6.853   7.654   8.968 -1.7463 -1.5748  0.6123
  758MOL0     H 2286   6.948   7.461   8.751 -0.4177 -1.4553  0.5965
  758MOL0     H 2287   6.849   7.581   8.729  3.1816  0.8586 -0.8918
  758MOL0     H 2288   6.694   7.498   8.915  2.3162  0.7343  0.8562
  758MOL0     H 2289   6.752   7.334   8.879  1.4813  1.5993  4.3152
  758MOL0     H 2290   6.630   7.529   8.498 -4.2421 -1.9809  0.3733
  758MOL0     H 2291   6.560   7.375   8.191 -1.2001 -1.0817  2.5045
  758MOL0     H 2292   6.594   7.526   8.276  0.3248  0.5779 -2.0668
  758MOL0     H 2293   6.709   7.461   8.161 -2.3639  2.8534 -0.0050
  758MOL0     H 2294   6.798   7.018   7.948 -0.1794  0.5908  0.1314
  758MOL0     H 2295   6.977   6.981   7.789  2.4743 -0.3136  0.8044
  758MOL0     H 2296   7.230   7.158   7.546 -0.6875 -0.2221  0.5692
  758MOL0     H 2297   7.131   7.303   7.630 -2.1978 -0.4352  1.1364
  758MOL0     H 2298   7.342   7.369   7.722 -1.2680  0.3430 -0.4287
  758MOL0     H 2299   7.423   7.224   7.666  0.7914 -0.3130 -0.4651
  758MOL0     H 2300   7.266   7.388   7.480 -1.8085 -3.0758  2.7741
  758MOL0     H 2301   7.415   7.290   7.440  3.0641  1.9040 -0.9215
  758MOL0     H 2302   7.404   7.574   7.578  0.5399  0.9718 -0.7745
  758MOL0     H 2303   7.542   7.469   7.558 -0.8982 -2.2042 -1.6625
  758MOL0     H 2304   7.396   7.569   7.320 -0.1543  3.7686  2.9689
  758MOL0     H 2305   7.516   7.449   7.319 -4.6532 -0.8145 -2.9264
  758MOL0     H 2306   7.651   7.671   7.441  1.1827  0.8051 -1.4456
  758MOL0     H 2307   7.632   7.635   7.272 -3.6808 -2.7110 -1.2784
  758MOL0     H 2308   7.395   7.775   7.420  0.0665  1.3568  1.1554
  758MOL0     H 2309   7.457   7.813   7.253  0.8528  4.1056  2.2984
  758MOL0     H 2310   7.644   7.890   7.459 -0.6642  0.1612  0.0010
  758MOL0     H 2311   7.489   7.960   7.497  2.8451 -0.3893  2.1036
  758MOL0     H 2312   7.170   7.339   7.933 -2.3130  2.6361 -1.2043
  758MOL0     H 2313   7.002   7.368   8.096  0.5190 -1.4130  1.4440
  758MOL0     H 2314   6.839   7.089   8.486  0.3133 -0.6005  0.2999
  758MOL0     H 2315   6.776   7.169   8.693 -1.3385  1.3235  1.9235
  758MOL0     H 2316   7.897   7.370   9.905 -0.6149  0.0326  1.1258
  758MOL0     H 2317   8.140   7.379   9.869 -1.3518  0.6737 -0.9519
  758MOL0     H 2318   8.486   6.944   9.567  2.8682 -0.4960 -0.6923
  758MOL0     H 2319   8.718   6.865   9.601  2.0338  2.6355 -0.8129
  758MOL0     H 2320   8.970   7.091   9.874 -1.0129  0.0859  1.9714
  758MOL0     H 2321   8.959   6.952   9.979  0.1347  0.5213  0.1315
  758MOL0     H 2322   9.113   6.920   9.722  0.4969  0.1307 -0.0549
  758MOL0     H 2323   9.136   6.844   9.877 -0.3462  0.5753 -0.3256
  758MOL0     H 2324   9.208   7.069   9.967 -2.2192 -2.6251  2.1162
  758MOL0     H 2325   9.223   7.121   9.795 -1.1487  0.6241  1.9715
  758MOL0     H 2326   9.360   6.942   9.744 -2.2217  2.1366 -0.3991
  758MOL0     H 2327   9.366   6.877   9.910  1.3830  2.3564  2.2483
  758MOL0     H 2328   9.698   7.132   9.920 -0.9324  1.7815 -0.9248
  758MOL0     H 2329   8.751   7.078   9.962 -2.8110  3.8392 -1.2931
  758MOL0     H 2330   8.521   7.155   9.942 -3.3051 -0.4269 -1.7663
  759MOL0     O 2331   3.940   1.967   9.397  0.2627  0.3540 -0.8511
  759MOL0     C 2332   3.980   1.971   9.514  0.3749 -0.2859 -0.0902
  759MOL0     O 2333   4.112   2.003   9.544  0.0370  0.0739 -0.1930
  759MOL0     C 2334   4.183   2.085   9.458 -0.4320  0.0117 -0.0919
  759MOL0     C 2335   4.313   2.039   9.432 -0.1948 -0.1456  0.0122
  759MOL0     C 2336   4.395   2.118   9.341 -0.0525  0.6670  0.2083
  759MOL0     C 2337   4.344   2.236   9.299  0.3042 -0.7591 -1.0775
  759MOL0     O 2338   4.426   2.322   9.228 -0.0574 -0.0850  0.0150
  759MOL0     C 2339   4.438   2.276   9.092 -0.1258  0.0755 -0.1847
  759MOL0     C 2340   4.540   2.363   9.024 -1.0342 -0.5498  0.5739
  759MOL0     C 2341   4.497   2.504   9.017 -0.1679 -0.4946  0.1431
  759MOL0     C 2342   4.376   2.538   8.926  1.6421 -0.1455 -1.0855
  759MOL0     C 2343   4.321   2.685   8.955  0.0794  0.6420 -0.4930
  759MOL0     C 2344   4.229   2.715   9.075 -0.6126  0.0377  0.1136
  759MOL0     C 2345   4.109   2.617   9.104 -0.4613  0.2700  0.0394
  759MOL0     C 2346   3.988   2.663   9.030 -0.1969 -0.1188 -0.1058
  759MOL0     N 2347   3.920   2.769   9.100 -0.1095 -0.6483 -0.2748
  759MOL0     C 2348   3.862   2.762   9.223  0.3406 -1.0165 -0.4626
  759MOL0     C 2349   3.801   2.879   9.236  0.3600 -0.3440 -0.4644
  759MOL0     C 2350   3.717   2.916   9.351 -0.3123  0.3675 -0.1650
  759MOL0     C 2351   3.580   2.980   9.327 -0.2994  0.7492  1.2271
  759MOL0     C 2352   3.510   3.011   9.461 -0.0336 -0.4881  0.1776
  759MOL0     C 2353   3.383   3.097   9.437 -0.1840 -0.0102  0.4358
  759MOL0     O 2354   3.304   3.010   9.360  0.4014  0.2278  0.4876
  759MOL0     C 2355   3.200   3.068   9.290 -0.7261  0.3022  0.6388
  759MOL0     C 2356   3.179   3.206   9.270  0.2566  0.0922 -0.5306
  759MOL0     C 2357   3.076   3.252   9.187 -0.4572 -0.2815 -0.2967
  759MOL0     C 2358   3.085   3.399   9.148  0.4094 -0.0522  0.7362
  759MOL0     C 2359   2.980   3.171   9.130  0.6219 -1.1594  0.9953
  759MOL0     C 2360   2.859   3.219   9.045  0.0104  0.3159  0.5865
  759MOL0     O 2361   2.815   3.117   8.958  1.4597 -0.6093 -0.0624
  759MOL0     C 2362   2.693   3.155   8.900 -0.2770 -0.9749  0.0981
  759MOL0     C 2363   2.581   3.090   8.950  0.8081 -0.4877  0.0999
  759MOL0     C 2364   2.449   3.093   8.878  0.2216 -0.6420 -0.9578
  759MOL0     C 2365   2.434   3.165   8.771 -0.5286  0.5337 -0.0917
  759MOL0     O 2366   2.312   3.165   8.706  0.8447  0.1851 -0.5335
  759MOL0     C 2367   2.268   3.271   8.624 -0.6863 -0.1039 -0.4609
  759MOL0     C 2368   2.302   3.238   8.475 -0.2644 -0.6881 -0.6537
  759MOL0     C 2369   2.235   3.327   8.370  0.1874  0.7267 -0.0019
  759MOL0     C 2370   2.302   3.461   8.357  0.0913 -1.4437  0.1568
  759MOL0     C 2371   2.222   3.552   8.259 -0.2823 -0.2405 -0.1543
  759MOL0     C 2372   2.119   3.634   8.336  0.1596 -0.7018  0.8834
  759MOL0     C 2373   2.010   3.682   8.234 -0.5576 -0.1082 -0.0851
  759MOL0     C 2374   1.898   3.761   8.307 -0.3938 -0.5477 -0.3843
  759MOL0    Cl 2375   1.940   3.934   8.347  0.0870  0.8953  0.5765
  759MOL0     C 2376   2.543   3.245   8.725 -0.0656  0.2703 -0.5529
  759MOL0     C 2377   2.670   3.245   8.796  0.3549  0.5906 -0.4548
  759MOL0     O 2378   2.806   3.326   9.070  0.4669 -0.3257 -0.2404
  759MOL0     C 2379   3.001   3.026   9.148 -0.1063 -0.0388  0.2829
  759MOL0     C 2380   3.113   2.978   9.217 -0.3550  0.1496 -1.6934
  759MOL0     N 2381   3.829   2.960   9.133  0.5463 -0.8536  0.2502
  759MOL0     N 2382   3.904   2.893   9.058  0.0464  0.0033  0.5133
  759MOL0     C 2383   4.218   2.285   9.332 -0.5628  0.2094 -1.0486
  759MOL0     C 2384   4.130   2.208   9.402 -0.7582  0.0690  0.0539
  759MOL0     C 2385   3.890   1.927   9.622 -0.4826  0.1295 -0.2393
  759MOL0     C 2386   3.924   1.948   9.756 -1.0883 -0.1554 -0.3369
  759MOL0     C 2387   3.835   1.905   9.852  0.7267 -0.8029 -0.2416
  759MOL0     C 2388   3.719   1.828   9.819 -0.4290  0.0756 -0.3135
  759MOL0     O 2389   3.623   1.769   9.900 -1.3839 -0.3334 -0.6581
  759MOL0     C 2390   3.595   1.834  10.029  0.2683 -1.1552  0.0462
  759MOL0     C 2391   3.645   1.754  10.152  0.3825 -0.0446 -0.0464
  759MOL0     C 2392   3.597   1.605  10.162 -0.1095  1.4374 -0.0952
  759MOL0     C 2393   3.463   1.582  10.136  0.9304  0.1326 -0.6881
  759MOL0     C 2394   3.415   1.443  10.182 -0.0476  0.1242 -1.2235
  759MOL0     C 2395   3.363   1.346  10.235  0.1896 -0.5193  0.7380
  759MOL0     C 2396   3.692   1.799   9.694  0.3080 -0.2118  1.0054
  759MOL0     C 2397   3.775   1.850   9.592 -0.8769  0.8053  0.1187
  759MOL0     H 2398   4.345   1.950   9.486 -3.4939 -1.2407  0.3831
  759MOL0     H 2399   4.503   2.106   9.331 -0.2344  0.8800 -3.4599
  759MOL0     H 2400   4.471   2.172   9.090  0.7966  0.3532 -3.0346
  759MOL0     H 2401   4.342   2.280   9.038 -0.1590  1.6469 -0.0437
  759MOL0     H 2402   4.641   2.345   9.063 -0.0432  3.1705  0.1133
  759MOL0     H 2403   4.548   2.332   8.919 -0.2860  2.1704 -0.2675
  759MOL0     H 2404   4.492   2.546   9.118  0.4384 -3.1977  1.3867
  759MOL0     H 2405   4.572   2.567   8.968 -0.5154  1.7839  2.3513
  759MOL0     H 2406   4.408   2.535   8.821 -0.6847  3.1152 -2.0970
  759MOL0     H 2407   4.291   2.469   8.930  0.3527  1.4491  2.0754
  759MOL0     H 2408   4.405   2.754   8.964  0.9249 -0.1069 -2.1300
  759MOL0     H 2409   4.265   2.709   8.864 -0.3709 -0.3292 -0.4902
  759MOL0     H 2410   4.308   2.716   9.150 -0.6574  4.8730  0.4166
  759MOL0     H 2411   4.190   2.817   9.075  0.1648  0.3567  1.7687
  759MOL0     H 2412   4.131   2.518   9.062 -1.5430 -0.1035  0.3148
  759MOL0     H 2413   4.096   2.611   9.212  3.1147 -1.1189  0.5345
  759MOL0     H 2414   3.916   2.581   9.036 -2.9787  2.1716 -0.3111
  759MOL0     H 2415   4.028   2.681   8.930  1.9650 -0.0179  0.7133
  759MOL0     H 2416   3.857   2.680   9.293  0.5650 -1.3280 -0.8072
  759MOL0     H 2417   3.681   2.827   9.403  1.1592 -0.3067 -0.2292
  759MOL0     H 2418   3.778   2.973   9.422 -0.1188  2.2698 -1.8000
  759MOL0     H 2419   3.516   2.909   9.273  1.2705  0.1155  0.1190
  759MOL0     H 2420   3.586   3.070   9.264 -2.6462 -1.1271 -2.0148
  759MOL0     H 2421   3.573   3.062   9.534  0.7299  1.8010 -1.9236
  759MOL0     H 2422   3.477   2.911   9.490  1.2767 -0.7082  0.9739
  759MOL0     H 2423   3.410   3.189   9.383  1.5946 -0.7186  0.0498
  759MOL0     H 2424   3.341   3.126   9.534 -1.4779  0.7997 -0.3301
  759MOL0     H 2425   3.248   3.280   9.310 -0.5216  1.1518 -1.0725
  759MOL0     H 2426   2.991   3.455   9.146  0.2026 -0.3954  0.9090
  759MOL0     H 2427   3.156   3.457   9.209 -1.3233  3.0750  0.0084
  759MOL0     H 2428   3.112   3.410   9.043  1.8283 -1.9171  0.8481
  759MOL0     H 2429   2.590   3.034   9.042 -0.4658 -0.7554  0.0787
  759MOL0     H 2430   2.362   3.040   8.914 -0.1372 -1.5338 -2.9667
  759MOL0     H 2431   2.160   3.284   8.636 -0.6302 -1.0898  1.5068
  759MOL0     H 2432   2.314   3.365   8.658  2.9652 -1.9888  0.2842
  759MOL0     H 2433   2.411   3.234   8.472 -0.2211 -1.5458  0.9941
  759MOL0     H 2434   2.264   3.139   8.451 -2.7282  0.8850 -4.0376
  759MOL0     H 2435   2.132   3.346   8.403  0.7143  2.6318  0.6440
  759MOL0     H 2436   2.237   3.267   8.278 -0.0182  2.4279 -1.1588
  759MOL0     H 2437   2.300   3.513   8.453  4.1515  1.2439 -0.9516
  759MOL0     H 2438   2.410   3.452   8.342  0.5630  0.0795  2.2293
  759MOL0     H 2439   2.169   3.485   8.190 -1.6589 -1.7033  2.1836
  759MOL0     H 2440   2.295   3.612   8.204  1.7366 -0.3452  2.2287
  759MOL0     H 2441   2.067   3.572   8.410 -2.0830  0.8031  0.6503
  759MOL0     H 2442   2.164   3.718   8.390  2.2044 -1.6004  0.6621
  759MOL0     H 2443   1.961   3.598   8.184  1.6050 -0.1537 -2.2924
  759MOL0     H 2444   2.060   3.739   8.156  1.1286 -0.0387  1.0122
  759MOL0     H 2445   1.887   3.700   8.398 -0.4724 -0.1192 -0.1025
  759MOL0     H 2446   1.809   3.763   8.245 -0.7241  0.3708  0.0943
  759MOL0     H 2447   2.532   3.310   8.639  0.8948  1.7596  0.4137
  759MOL0     H 2448   2.753   3.305   8.758 -0.3004  0.4393 -2.2375
  759MOL0     H 2449   2.934   2.957   9.098 -1.1695  0.8544  0.4345
  759MOL0     H 2450   3.153   2.877   9.226 -0.9978  0.0568  3.2746
  759MOL0     H 2451   4.206   2.389   9.304 -0.6534  0.1248 -1.3236
  759MOL0     H 2452   4.040   2.265   9.420 -1.0562 -0.6352  0.9157
  759MOL0     H 2453   4.014   1.999   9.788 -1.9494  0.7939  0.6634
  759MOL0     H 2454   3.853   1.914   9.959 -0.7482 -1.7261  0.1090
  759MOL0     H 2455   3.639   1.932  10.048 -0.7982 -0.4612 -0.8896
  759MOL0     H 2456   3.486   1.842  10.033  0.3977  1.5332 -0.0231
  759MOL0     H 2457   3.605   1.809  10.238  2.2761  0.6951  0.4187
  759MOL0     H 2458   3.754   1.762  10.163  0.3658  1.5277 -0.6635
  759MOL0     H 2459   3.622   1.564  10.260 -0.6472  0.1925 -0.4571
  759MOL0     H 2460   3.658   1.548  10.092 -0.5611  0.2416  0.4609
  759MOL0     H 2461   3.445   1.593  10.029 -2.2709  2.1573 -0.0819
  759MOL0     H 2462   3.410   1.665  10.184  4.6925  0.9588  2.6100
  759MOL0     H 2463   3.318   1.255  10.270 -0.9195  0.7245  2.7299
  759MOL0     H 2464   3.606   1.740   9.663  0.1396  0.7119 -0.3658
  759MOL0     H 2465   3.744   1.829   9.490 -1.8190  2.7836 -0.0560
  760MOL0     O 2466   7.039   6.089   4.776  0.0932  0.3599  1.1754
  760MOL0     C 2467   7.126   6.174   4.806 -0.6108 -0.4261  0.7355
  760MOL0     O 2468   7.225   6.159   4.895 -0.4475  0.2990  0.2116
  760MOL0     C 2469   7.214   6.041   4.967 -0.1955 -0.8908  0.4769
  760MOL0     C 2470   7.293   5.926   4.932 -0.7731  0.2165 -0.1130
  760MOL0     C 2471   7.260   5.812   5.003  0.0578  0.2718 -0.5743
  760MOL0     C 2472   7.165   5.812   5.104  0.2122  0.4638 -1.1774
  760MOL0     O 2473   7.153   5.714   5.202 -1.2785  0.3337  0.1097
  760MOL0     C 2474   7.121   5.592   5.140  1.2206 -1.0353  0.6004
  760MOL0     C 2475   7.157   5.464   5.229 -1.3044 -0.4197  1.1278
  760MOL0     C 2476   7.308   5.426   5.225  0.4681 -0.3686  0.5804
  760MOL0     C 2477   7.339   5.335   5.344 -0.2702  0.6268  0.4258
  760MOL0     C 2478   7.490   5.305   5.367 -0.1746 -0.6650  0.4860
  760MOL0     C 2479   7.505   5.219   5.491 -0.4602 -0.0945 -0.4650
  760MOL0     C 2480   7.655   5.196   5.534 -0.5908 -0.1606 -0.4980
  760MOL0     C 2481   7.714   5.120   5.416  0.1048  0.6102 -0.6524
  760MOL0     N 2482   7.833   5.046   5.457 -0.6352  0.2107  0.9378
  760MOL0     C 2483   7.878   5.018   5.587 -0.5273  0.7384  0.5804
  760MOL0     C 2484   7.972   4.920   5.578 -0.4357 -0.0099  0.6298
  760MOL0     C 2485   8.037   4.857   5.695  0.3325  0.4254  0.1988
  760MOL0     C 2486   8.001   4.710   5.719  0.0365 -0.3147 -0.1248
  760MOL0     C 2487   8.092   4.647   5.824  1.4421  0.4630  0.5216
  760MOL0     C 2488   8.067   4.508   5.856  1.1061  0.5286 -0.1813
  760MOL0     O 2489   7.971   4.503   5.963  0.0601  0.2560  0.2136
  760MOL0     C 2490   7.950   4.381   6.019 -0.5042 -0.4142  0.9341
  760MOL0     C 2491   7.854   4.391   6.122  0.2592  0.4368 -0.3387
  760MOL0     C 2492   7.834   4.279   6.205  0.3008  0.7188  0.5088
  760MOL0     C 2493   7.729   4.298   6.309  0.2914 -0.0060  0.0311
  760MOL0     C 2494   7.896   4.154   6.182 -0.6057  0.1794  0.2509
  760MOL0     C 2495   7.868   4.030   6.246 -0.6241  0.1554 -0.0946
  760MOL0     O 2496   7.962   3.929   6.239  0.7600 -0.4122  0.5964
  760MOL0     C 2497   7.946   3.795   6.275  0.0203  0.3736 -0.1902
  760MOL0     C 2498   8.061   3.716   6.258  0.5865  0.8029  0.4847
  760MOL0     C 2499   8.066   3.584   6.296  0.1029 -0.9756  0.2245
  760MOL0     C 2500   7.944   3.524   6.342 -0.3681 -0.1495  0.6917
  760MOL0     O 2501   7.948   3.390   6.360  0.3724  0.3400 -0.0582
  760MOL0     C 2502   7.897   3.355   6.491 -0.6041 -0.3613 -1.4827
  760MOL0     C 2503   7.942   3.209   6.518 -0.2352 -0.5444  1.5363
  760MOL0     C 2504   8.054   3.191   6.614 -0.3709  0.1046 -0.4546
  760MOL0     C 2505   8.194   3.182   6.551  0.5487  0.7286  0.0108
  760MOL0     C 2506   8.246   3.318   6.486 -0.0955 -0.1189 -0.7362
  760MOL0     C 2507   8.397   3.323   6.444  0.5087 -0.4175  0.8120
  760MOL0     C 2508   8.438   3.478   6.437 -0.1015 -0.2881 -0.2437
  760MOL0     C 2509   8.597   3.479   6.437 -0.3050  0.1443 -0.0360
  760MOL0    Cl 2510   8.650   3.409   6.279  0.0283 -0.1611  0.1519
  760MOL0     C 2511   7.827   3.598   6.345 -0.0972  1.0463  0.6772
  760MOL0     C 2512   7.823   3.731   6.311 -0.4871 -0.3378 -0.0358
  760MOL0     O 2513   7.751   4.009   6.278 -0.3242 -1.0614  0.2877
  760MOL0     C 2514   7.988   4.146   6.073 -0.2510 -0.7692  0.3443
  760MOL0     C 2515   8.017   4.262   5.999 -0.0060 -0.5520  0.5064
  760MOL0     N 2516   7.992   4.889   5.439  0.4095 -0.6735  0.1672
  760MOL0     N 2517   7.908   4.961   5.366  0.0883 -0.5973 -0.3484
  760MOL0     C 2518   7.088   5.919   5.135  0.2334  0.9790  0.5948
  760MOL0     C 2519   7.109   6.042   5.071  0.1190 -0.8568  0.8966
  760MOL0     C 2520   7.120   6.302   4.726  0.1914  0.2616 -0.4559
  760MOL0     C 2521   7.209   6.402   4.756  0.2239 -0.5519  0.2591
  760MOL0     C 2522   7.217   6.515   4.668  0.2088  0.4627  0.0301
  760MOL0     C 2523   7.136   6.537   4.563  1.0099 -0.9201  0.4975
  760MOL0     O 2524   7.171   6.642   4.476  0.3239  1.0343  0.0023
  760MOL0     C 2525   7.087   6.676   4.363 -0.4077  0.4373  0.4531
  760MOL0     C 2526   7.143   6.592   4.250  0.7162  0.7573 -0.3369
  760MOL0     C 2527   7.279   6.647   4.220  0.6491 -0.7105  0.0427
  760MOL0     C 2528   7.342   6.585   4.090  0.7053 -0.6930 -0.1731
  760MOL0     C 2529   7.472   6.651   4.064  0.2388 -0.4326 -0.0193
  760MOL0     C 2530   7.569   6.716   4.041 -0.0735  0.5888 -0.3253
  760MOL0     C 2531   7.033   6.447   4.543  0.4946  0.3784  0.2394
  760MOL0     C 2532   7.027   6.325   4.617 -0.6077  0.1938 -0.8375
  760MOL0     H 2533   7.378   5.925   4.865  1.2053 -1.2048  2.2361
  760MOL0     H 2534   7.327   5.726   4.999 -0.4626 -0.2169  0.7236
  760MOL0     H 2535   7.013   5.603   5.132  1.2590 -0.5175  0.7522
  760MOL0     H 2536   7.160   5.579   5.039  0.6651  0.5105  0.1625
  760MOL0     H 2537   7.133   5.488   5.333 -1.7248 -0.4086  1.0323
  760MOL0     H 2538   7.103   5.375   5.196  0.3473 -0.8842 -0.4511
  760MOL0     H 2539   7.337   5.369   5.136 -0.2752 -1.3203  0.9244
  760MOL0     H 2540   7.366   5.518   5.224 -1.4516  0.9075  0.3881
  760MOL0     H 2541   7.306   5.378   5.439 -0.0359  0.9412  0.3672
  760MOL0     H 2542   7.273   5.252   5.318 -0.2865  0.5083  0.8403
  760MOL0     H 2543   7.520   5.236   5.288  0.9294 -0.9444  1.1323
  760MOL0     H 2544   7.555   5.391   5.384 -1.4378  0.9007 -1.9547
  760MOL0     H 2545   7.451   5.250   5.580  1.5780  1.5053  0.3150
  760MOL0     H 2546   7.450   5.128   5.467 -2.0609  0.9175 -0.7838
  760MOL0     H 2547   7.697   5.294   5.559  1.0938 -0.8713 -0.4453
  760MOL0     H 2548   7.652   5.138   5.626  0.6821 -0.0773 -0.3869
  760MOL0     H 2549   7.728   5.185   5.330  1.4320 -1.4052 -2.0502
  760MOL0     H 2550   7.639   5.043   5.398  1.5949 -1.3527  1.0046
  760MOL0     H 2551   7.841   5.051   5.684 -3.3317  1.9621 -0.7947
  760MOL0     H 2552   8.145   4.866   5.682  0.0457  1.7977 -1.6328
  760MOL0     H 2553   8.005   4.920   5.779  1.1528  3.1377 -1.3941
  760MOL0     H 2554   8.009   4.661   5.621 -4.5067  2.7738 -2.4170
  760MOL0     H 2555   7.897   4.705   5.755  0.1924  4.3598  1.7952
  760MOL0     H 2556   8.091   4.707   5.915 -2.4524 -1.2512  1.8203
  760MOL0     H 2557   8.192   4.640   5.780  0.6430  0.7255 -1.4350
  760MOL0     H 2558   8.162   4.462   5.886  1.4455  1.7625  0.7098
  760MOL0     H 2559   8.018   4.450   5.778  1.5864 -1.6958  1.0621
  760MOL0     H 2560   7.826   4.484   6.171  0.2222 -0.5547  1.6637
  760MOL0     H 2561   7.759   4.247   6.401 -3.8793  0.2578  1.7705
  760MOL0     H 2562   7.714   4.405   6.322 -0.8547  0.0988 -1.7746
  760MOL0     H 2563   7.635   4.252   6.275  0.3225  0.6747 -1.0228
  760MOL0     H 2564   8.153   3.759   6.221  0.5412  1.1222  0.7358
  760MOL0     H 2565   8.161   3.536   6.282  0.8444 -0.5343  3.1142
  760MOL0     H 2566   7.933   3.422   6.569 -2.4642 -1.0330  0.0255
  760MOL0     H 2567   7.788   3.366   6.491 -0.6193 -0.1123  0.5214
  760MOL0     H 2568   7.853   3.151   6.545 -2.0446  1.6568  0.5807
  760MOL0     H 2569   7.963   3.154   6.426  2.4184  0.4672  1.4336
  760MOL0     H 2570   8.030   3.099   6.667  0.2548  0.4062  0.3632
  760MOL0     H 2571   8.048   3.269   6.690 -0.3314 -0.2687 -0.0687
  760MOL0     H 2572   8.275   3.146   6.614  0.6694  1.9406  0.5748
  760MOL0     H 2573   8.189   3.108   6.470 -0.0360  0.5331  0.2231
  760MOL0     H 2574   8.231   3.390   6.567  0.2799 -1.1699  0.3040
  760MOL0     H 2575   8.189   3.331   6.394 -0.4764 -1.6432 -0.7478
  760MOL0     H 2576   8.458   3.280   6.525 -0.2822 -1.0923  1.0717
  760MOL0     H 2577   8.412   3.263   6.354 -5.5101  0.4114 -1.1786
  760MOL0     H 2578   8.406   3.540   6.521  2.4828 -0.7406  1.1863
  760MOL0     H 2579   8.404   3.530   6.346  3.0129  1.1913 -0.6884
  760MOL0     H 2580   8.634   3.416   6.518  0.4914 -0.4957 -0.8813
  760MOL0     H 2581   8.644   3.577   6.449  1.1818 -0.6245  0.7174
  760MOL0     H 2582   7.746   3.528   6.364  1.5315 -1.9168 -2.1818
  760MOL0     H 2583   7.729   3.785   6.309  0.3268  1.1114 -1.2194
  760MOL0     H 2584   8.043   4.057   6.044 -0.8188 -0.7449 -0.8431
  760MOL0     H 2585   8.096   4.259   5.924 -1.1534  1.4952 -0.8908
  760MOL0     H 2586   7.019   5.915   5.219  1.1009  0.2824  1.2862
  760MOL0     H 2587   7.050   6.132   5.090  1.6807 -0.3021  3.4881
  760MOL0     H 2588   7.273   6.391   4.843  2.3873  2.6597 -0.7444
  760MOL0     H 2589   7.301   6.581   4.688  1.3173 -0.6231 -0.9002
  760MOL0     H 2590   6.979   6.668   4.379 -0.3709 -0.0602  0.4493
  760MOL0     H 2591   7.109   6.779   4.332  1.1155  0.0852  0.3039
  760MOL0     H 2592   7.076   6.597   4.164  0.4144 -0.5511 -0.1965
  760MOL0     H 2593   7.152   6.486   4.273 -1.2177  0.5323 -0.4270
  760MOL0     H 2594   7.342   6.623   4.306  0.6193 -3.3466 -0.6082
  760MOL0     H 2595   7.267   6.755   4.208 -2.4005 -1.0003 -0.4943
  760MOL0     H 2596   7.271   6.608   4.010 -1.1383 -2.7292  0.7509
  760MOL0     H 2597   7.366   6.479   4.103  4.6397 -0.0712 -1.2460
  760MOL0     H 2598   7.655   6.774   4.012  0.6060 -1.4559 -2.8021
  760MOL0     H 2599   6.985   6.451   4.445  2.4402 -1.2613 -0.8738
  760MOL0     H 2600   6.954   6.245   4.607  0.3660 -0.9788  1.0830
  761MOL0     O 2601  10.406   0.784   7.557  0.2806  0.2102  0.7518
  761MOL0     C 2602  10.502   0.833   7.503  0.4307 -0.5402 -0.3395
  761MOL0     O 2603  10.633   0.832   7.556  0.9894 -0.0851 -0.3996
  761MOL0     C 2604  10.661   0.762   7.676  0.0950  0.4375 -0.4939
  761MOL0     C 2605  10.642   0.828   7.803  0.2523 -0.0008  0.1814
  761MOL0     C 2606  10.664   0.764   7.926 -0.0997  0.2461 -0.0194
  761MOL0     C 2607  10.704   0.637   7.921 -0.2824  0.5535  0.2025
  761MOL0     O 2608  10.719   0.588   8.047  0.1434  0.8594  0.0584
  761MOL0     C 2609  10.708   0.444   8.055 -0.3450 -0.1483  1.1289
  761MOL0     C 2610  10.645   0.428   8.192 -1.2294  0.4298  0.0455
  761MOL0     C 2611  10.603   0.272   8.201 -0.4157  0.0399 -1.0102
  761MOL0     C 2612  10.547   0.224   8.337  0.5420  0.0575  0.2361
  761MOL0     C 2613  10.405   0.301   8.356 -0.1729 -1.2577  0.5961
  761MOL0     C 2614  10.285   0.261   8.258  0.2233  0.2044 -1.3509
  761MOL0     C 2615  10.154   0.310   8.318 -0.5224  0.0476  0.5213
  761MOL0     C 2616  10.025   0.285   8.251  0.3225  0.0776 -0.0177
  761MOL0     N 2617  10.001   0.385   8.144  0.4295  0.7644  0.1131
  761MOL0     C 2618   9.947   0.358   8.024  0.5057  0.1772  0.0963
  761MOL0     C 2619   9.916   0.470   7.963 -0.3891  0.7783 -0.4992
  761MOL0     C 2620   9.860   0.495   7.820 -0.3223  0.1853  0.0812
  761MOL0     C 2621   9.701   0.500   7.817 -1.4501  0.1390  0.5109
  761MOL0     C 2622   9.649   0.359   7.805  1.0788 -0.1505 -0.1687
  761MOL0     C 2623   9.576   0.326   7.940  1.0655 -0.4351  1.3591
  761MOL0     O 2624   9.534   0.191   7.935  0.2486  0.7189  0.5256
  761MOL0     C 2625   9.601   0.102   8.009  1.2198 -0.4892  0.8049
  761MOL0     C 2626   9.628  -0.021   7.961  0.1702  0.0795 -0.6801
  761MOL0     C 2627   9.705  -0.120   8.027 -0.5669 -0.6148 -0.4545
  761MOL0     C 2628   9.732  -0.253   7.954 -0.1027  0.6344  0.0106
  761MOL0     C 2629   9.769  -0.082   8.146  0.1730 -0.4997 -0.2445
  761MOL0     C 2630   9.869  -0.173   8.223 -1.1240  1.1659 -0.4370
  761MOL0     O 2631   9.875  -0.166   8.360 -0.3125 -0.9572 -0.5422
  761MOL0     C 2632   9.954  -0.248   8.440  0.0309 -0.5976  0.6644
  761MOL0     C 2633   9.955  -0.394   8.432  0.5718 -0.0930  0.5222
  761MOL0     C 2634  10.017  -0.462   8.533 -0.0985  0.8793 -0.0991
  761MOL0     C 2635  10.079  -0.397   8.643  0.0151  0.9348 -0.1202
  761MOL0     O 2636  10.146  -0.467   8.744 -0.3304 -0.4680  0.7376
  761MOL0     C 2637  10.103  -0.600   8.767  0.9458 -0.7866 -0.2911
  761MOL0     C 2638  10.222  -0.673   8.821  0.5293  0.9317 -0.4140
  761MOL0     C 2639  10.342  -0.685   8.724 -0.7837  0.7927 -0.2194
  761MOL0     C 2640  10.438  -0.792   8.767  0.0420  0.4187  0.0038
  761MOL0     C 2641  10.572  -0.776   8.695  0.4039  0.9311  0.2475
  761MOL0     C 2642  10.669  -0.897   8.695  1.4550  0.0500 -0.3818
  761MOL0     C 2643  10.608  -1.025   8.625 -0.4185 -0.3614  0.5838
  761MOL0     C 2644  10.714  -1.120   8.581 -0.1480  0.7264  0.0201
  761MOL0    Cl 2645  10.651  -1.239   8.451 -0.3381 -0.0736 -0.3616
  761MOL0     C 2646  10.082  -0.256   8.647  0.5589 -0.7267 -0.3276
  761MOL0     C 2647  10.014  -0.183   8.554  0.0167  0.3039  0.1291
  761MOL0     O 2648   9.949  -0.236   8.149  0.3954  0.2616  0.6571
  761MOL0     C 2649   9.721   0.038   8.204  0.4607 -0.9334 -0.6175
  761MOL0     C 2650   9.642   0.124   8.134  0.4009 -0.5909 -0.2290
  761MOL0     N 2651   9.969   0.572   8.037 -0.2847 -0.0258  0.4481
  761MOL0     N 2652  10.006   0.521   8.155 -0.6664  0.1396  0.7496
  761MOL0     C 2653  10.717   0.558   7.798 -0.0376 -0.1943 -0.7247
  761MOL0     C 2654  10.698   0.629   7.682  0.3885 -0.4170  0.2070
  761MOL0     C 2655  10.493   0.901   7.372 -0.1773 -0.6803 -0.2221
  761MOL0     C 2656  10.368   0.945   7.328 -0.1521 -0.0137 -0.4119
  761MOL0     C 2657  10.359   1.013   7.210 -0.0064  0.1827 -0.5919
  761MOL0     C 2658  10.468   1.033   7.131 -0.3629 -0.2851  0.6614
  761MOL0     O 2659  10.440   1.102   7.011 -0.3661  0.5038 -0.0998
  761MOL0     C 2660  10.514   1.051   6.901  0.0120  1.0146  0.4575
  761MOL0     C 2661  10.446   1.096   6.776  0.0927  0.1221  0.1551
  761MOL0     C 2662  10.447   1.247   6.752 -0.7479  0.1582  0.3546
  761MOL0     C 2663  10.564   1.285   6.663 -0.7599  0.3499 -0.6103
  761MOL0     C 2664  10.577   1.426   6.653 -0.4558 -0.3089  0.6787
  761MOL0     C 2665  10.594   1.545   6.638  0.3319 -0.8112  0.4337
  761MOL0     C 2666  10.596   0.993   7.166  0.5413 -0.0833  0.2082
  761MOL0     C 2667  10.599   0.910   7.287  0.0140  0.2532  1.2298
  761MOL0     H 2668  10.615   0.933   7.799  1.1771  0.2302 -0.1207
  761MOL0     H 2669  10.653   0.815   8.022  2.0193  2.6037 -0.9167
  761MOL0     H 2670  10.652   0.406   7.970  2.1751  0.2408 -0.8434
  761MOL0     H 2671  10.809   0.407   8.037 -0.8428 -0.6325 -0.8671
  761MOL0     H 2672  10.727   0.446   8.262  2.0259  0.9953 -3.5841
  761MOL0     H 2673  10.555   0.490   8.203 -1.0204  0.7634 -0.1215
  761MOL0     H 2674  10.526   0.249   8.126 -1.0134  0.0051 -0.3985
  761MOL0     H 2675  10.690   0.209   8.182 -1.9094 -2.9588  1.1828
  761MOL0     H 2676  10.535   0.115   8.331  0.7383  0.1302 -2.3437
  761MOL0     H 2677  10.609   0.246   8.424 -2.4731  1.9634  2.0921
  761MOL0     H 2678  10.370   0.283   8.458  0.3840  3.9784  1.9472
  761MOL0     H 2679  10.417   0.408   8.336  0.3068 -1.7465 -2.1439
  761MOL0     H 2680  10.313   0.318   8.169  0.9578  1.4514 -0.3647
  761MOL0     H 2681  10.278   0.152   8.249  3.2266 -0.1405 -0.5277
  761MOL0     H 2682  10.145   0.262   8.416  1.6307 -0.1952  0.6430
  761MOL0     H 2683  10.166   0.418   8.326  2.1347 -0.1916  0.5092
  761MOL0     H 2684   9.941   0.285   8.320 -0.9368  3.8870 -1.2873
  761MOL0     H 2685  10.042   0.182   8.217  2.2978 -0.4560  2.2983
  761MOL0     H 2686   9.924   0.263   7.977 -1.1440  0.1497  0.8812
  761MOL0     H 2687   9.905   0.584   7.776  0.2883  1.0916  2.3970
  761MOL0     H 2688   9.904   0.416   7.758  2.3886 -0.4487  2.5792
  761MOL0     H 2689   9.671   0.562   7.731  1.2350  1.7856  0.6266
  761MOL0     H 2690   9.662   0.566   7.895 -3.3053 -0.6696  0.3147
  761MOL0     H 2691   9.732   0.288   7.807 -0.2570 -1.7299  0.4224
  761MOL0     H 2692   9.582   0.325   7.726 -0.7975  0.2369  1.2033
  761MOL0     H 2693   9.486   0.388   7.939  0.2200 -1.5993 -1.1081
  761MOL0     H 2694   9.626   0.349   8.035  3.1098 -1.2841  0.5548
  761MOL0     H 2695   9.575  -0.040   7.868 -2.3209 -1.0108  0.8351
  761MOL0     H 2696   9.683  -0.260   7.856  0.9448 -1.1301 -0.4221
  761MOL0     H 2697   9.839  -0.262   7.933  0.1482 -0.5083  1.6588
  761MOL0     H 2698   9.699  -0.340   8.010  0.4567 -0.1579 -0.8681
  761MOL0     H 2699   9.914  -0.446   8.346  0.5006 -0.3008  0.6829
  761MOL0     H 2700  10.000  -0.569   8.540  1.8152  0.6520  3.1601
  761MOL0     H 2701  10.041  -0.587   8.856  0.8459 -0.5201 -0.3998
  761MOL0     H 2702  10.055  -0.667   8.695  3.4158 -2.8679 -0.1451
  761MOL0     H 2703  10.267  -0.639   8.915  0.3583 -1.3724  0.5888
  761MOL0     H 2704  10.188  -0.771   8.856 -0.5274  2.1175  2.1543
  761MOL0     H 2705  10.402  -0.593   8.718  1.5250 -0.5358  1.1546
  761MOL0     H 2706  10.317  -0.697   8.618 -0.6231  2.6493 -0.5096
  761MOL0     H 2707  10.448  -0.798   8.876  0.9949 -2.1078 -0.1315
  761MOL0     H 2708  10.404  -0.892   8.739 -1.1478  0.8410 -0.1073
  761MOL0     H 2709  10.623  -0.684   8.725  0.3168  0.0036  3.5882
  761MOL0     H 2710  10.532  -0.756   8.595 -0.9574 -1.2029  0.3008
  761MOL0     H 2711  10.756  -0.873   8.634  1.3837  1.0233 -0.1198
  761MOL0     H 2712  10.697  -0.919   8.798 -1.4856 -1.4282  0.2152
  761MOL0     H 2713  10.555  -0.983   8.539  0.4405  0.1971  0.3200
  761MOL0     H 2714  10.522  -1.077   8.669 -1.2584  0.7939  0.3689
  761MOL0     H 2715  10.736  -1.185   8.667 -3.2872 -0.2570  0.1909
  761MOL0     H 2716  10.809  -1.077   8.548  0.3407 -0.5706 -0.3441
  761MOL0     H 2717  10.137  -0.211   8.728  1.8796 -0.2907 -1.4133
  761MOL0     H 2718  10.008  -0.075   8.555  0.9962  0.3691 -0.3103
  761MOL0     H 2719   9.764   0.070   8.298  0.3425  2.0823 -1.4734
  761MOL0     H 2720   9.608   0.216   8.181 -3.0211 -0.4852 -2.5979
  761MOL0     H 2721  10.749   0.454   7.793  1.3968  0.1729  0.3555
  761MOL0     H 2722  10.709   0.583   7.584 -1.6743  0.8749 -0.6914
  761MOL0     H 2723  10.274   0.937   7.381 -1.2854 -0.1887 -2.3618
  761MOL0     H 2724  10.263   1.058   7.187 -0.0710 -0.5372 -1.8055
  761MOL0     H 2725  10.618   1.086   6.898  0.3443 -0.0590 -1.1670
  761MOL0     H 2726  10.517   0.943   6.886  2.4782  1.2819 -1.6605
  761MOL0     H 2727  10.342   1.062   6.772  0.2756 -0.3577 -1.5801
  761MOL0     H 2728  10.494   1.043   6.693 -0.0073 -0.0823  0.2278
  761MOL0     H 2729  10.448   1.307   6.843  0.3710  1.2114 -0.3290
  761MOL0     H 2730  10.358   1.287   6.703 -1.4515 -1.6920  0.0145
  761MOL0     H 2731  10.561   1.235   6.566  1.0547 -1.7361  0.3371
  761MOL0     H 2732  10.656   1.248   6.708 -1.2925 -0.7975 -0.4436
  761MOL0     H 2733  10.610   1.648   6.615 -3.8055 -0.7860 -3.7206
  761MOL0     H 2734  10.684   0.992   7.103  0.8478  0.2276  0.6263
  761MOL0     H 2735  10.691   0.861   7.319 -0.2481 -1.0121  0.1038
  762MOL0     O 2736   8.023   9.050   9.041  0.0854 -0.0921  0.1972
  762MOL0     C 2737   8.143   9.064   9.013 -0.0201 -0.4484 -0.5754
  762MOL0     O 2738   8.231   8.969   8.973  0.0924  0.1178 -0.2482
  762MOL0     C 2739   8.171   8.849   8.977 -0.6301 -0.3452  0.1241
  762MOL0     C 2740   8.144   8.781   9.094  0.2200  0.4549 -0.9235
  762MOL0     C 2741   8.081   8.660   9.106 -0.7278  0.4632  0.0506
  762MOL0     C 2742   8.050   8.589   8.985 -0.1512  0.2402 -0.6988
  762MOL0     O 2743   7.984   8.462   8.983 -0.1643  0.3590 -0.0912
  762MOL0     C 2744   7.981   8.395   9.104 -0.2591  0.0067 -0.5153
  762MOL0     C 2745   7.930   8.253   9.070  0.1840 -0.2039  0.2641
  762MOL0     C 2746   7.870   8.183   9.189 -0.9103 -0.6644 -0.1043
  762MOL0     C 2747   7.836   8.035   9.171 -0.4983 -0.1436 -0.0679
  762MOL0     C 2748   7.943   7.936   9.151 -0.4716 -0.6568 -1.1344
  762MOL0     C 2749   7.892   7.791   9.161  0.2194  0.2855  0.3041
  762MOL0     C 2750   8.009   7.696   9.146 -0.2999 -0.1240 -0.9537
  762MOL0     C 2751   8.085   7.678   9.011 -0.2223 -0.7926 -1.4446
  762MOL0     N 2752   8.019   7.612   8.899 -0.8082  0.2583 -0.0980
  762MOL0     C 2753   7.896   7.553   8.901  0.5474 -0.1979 -0.8402
  762MOL0     C 2754   7.890   7.465   8.794 -0.3701  0.4942 -0.3531
  762MOL0     C 2755   7.772   7.381   8.754 -0.6716  0.1272 -0.0870
  762MOL0     C 2756   7.732   7.386   8.613 -0.7094  0.0845 -0.4301
  762MOL0     C 2757   7.610   7.294   8.581 -0.5410 -0.0506  0.0678
  762MOL0     C 2758   7.544   7.317   8.441 -0.4260  0.2353 -0.5481
  762MOL0     O 2759   7.633   7.271   8.328 -0.6082  0.2199 -0.6136
  762MOL0     C 2760   7.668   7.138   8.328  0.0684 -0.5056 -1.1196
  762MOL0     C 2761   7.596   7.034   8.392  0.1786 -0.4309 -0.5204
  762MOL0     C 2762   7.622   6.898   8.355 -0.4337  0.4195 -0.3748
  762MOL0     C 2763   7.542   6.787   8.422 -0.0769 -1.2827  0.6129
  762MOL0     C 2764   7.721   6.872   8.259 -0.5271  0.1829  0.2634
  762MOL0     C 2765   7.743   6.739   8.209 -0.2794  0.2859  0.7098
  762MOL0     O 2766   7.734   6.723   8.072 -0.5294 -0.0737 -0.5276
  762MOL0     C 2767   7.797   6.623   7.993 -1.1109  0.0760 -0.2893
  762MOL0     C 2768   7.746   6.595   7.867  0.8549  1.0792 -0.3344
  762MOL0     C 2769   7.788   6.489   7.791  1.1435  0.3531 -0.7501
  762MOL0     C 2770   7.891   6.417   7.839 -0.3873 -0.2825  0.8967
  762MOL0     O 2771   7.968   6.342   7.754 -0.8715 -0.1707  0.4635
  762MOL0     C 2772   7.964   6.199   7.788  0.3890 -0.5051  0.1291
  762MOL0     C 2773   8.022   6.127   7.669 -1.2746  0.1172  0.0863
  762MOL0     C 2774   8.041   5.978   7.699 -0.4826  0.7863 -0.8086
  762MOL0     C 2775   8.069   5.892   7.569  0.4301 -0.7300  0.1168
  762MOL0     C 2776   8.122   5.755   7.595  0.5046 -0.1601  0.1014
  762MOL0     C 2777   8.018   5.660   7.661 -0.1215  0.5612  0.3088
  762MOL0     C 2778   8.083   5.525   7.678 -0.4280 -0.1421  0.3368
  762MOL0     C 2779   8.071   5.455   7.537  0.1285 -0.6627  0.2590
  762MOL0    Cl 2780   8.099   5.274   7.556 -0.3064  0.2410  0.2092
  762MOL0     C 2781   7.940   6.430   7.964 -0.9171  0.0676 -0.1242
  762MOL0     C 2782   7.899   6.541   8.040 -0.4942  0.5397  0.6876
  762MOL0     O 2783   7.772   6.647   8.285 -0.8951  0.0278  0.3075
  762MOL0     C 2784   7.789   6.979   8.198 -0.5812 -0.2598  0.2153
  762MOL0     C 2785   7.759   7.117   8.233 -0.8494 -0.4580  0.4695
  762MOL0     N 2786   8.021   7.459   8.743  0.5214  0.3329 -0.0657
  762MOL0     N 2787   8.090   7.553   8.795  0.0676  0.0793 -0.4001
  762MOL0     C 2788   8.072   8.656   8.853 -0.3069  0.4627 -0.4950
  762MOL0     C 2789   8.141   8.776   8.855 -0.0250 -0.7177 -0.3417
  762MOL0     C 2790   8.203   9.199   9.021 -0.0889 -0.2558  0.2321
  762MOL0     C 2791   8.333   9.230   8.998  0.6370 -0.1480  0.0642
  762MOL0     C 2792   8.375   9.370   8.995 -0.4859  0.8908  0.0623
  762MOL0     C 2793   8.285   9.471   9.036 -0.3130 -0.1543  0.3313
  762MOL0     O 2794   8.305   9.605   9.065 -0.3290  0.2894 -0.6967
  762MOL0     C 2795   8.441   9.651   9.038 -0.1908  0.7497 -1.2244
  762MOL0     C 2796   8.460   9.782   9.115  0.7743 -0.0115 -0.1074
  762MOL0     C 2797   8.583   9.855   9.062  0.1967 -0.2328  0.4349
  762MOL0     C 2798   8.610   9.999   9.117 -0.0893  0.3440 -0.5167
  762MOL0     C 2799   8.502  10.089   9.092 -0.0944  0.4394  0.6824
  762MOL0     C 2800   8.412  10.165   9.070 -0.4780  0.1516  0.6278
  762MOL0     C 2801   8.153   9.430   9.043  0.4412 -0.1024  0.3108
  762MOL0     C 2802   8.116   9.297   9.039  0.5496 -0.8469  0.1876
  762MOL0     H 2803   8.170   8.821   9.191 -0.1321 -0.9708 -0.2127
  762MOL0     H 2804   8.054   8.623   9.205 -1.3465 -0.2085 -0.3594
  762MOL0     H 2805   8.069   8.406   9.167 -1.9013  3.9816  1.3974
  762MOL0     H 2806   7.908   8.451   9.164 -1.8038 -2.2476 -0.1568
  762MOL0     H 2807   7.838   8.265   9.013 -1.1783 -0.8983  2.2331
  762MOL0     H 2808   8.008   8.192   9.023  2.4810  1.3705  1.7688
  762MOL0     H 2809   7.946   8.178   9.267  0.5048  1.9082 -1.1818
  762MOL0     H 2810   7.777   8.233   9.219  0.7580  1.9738  1.0223
  762MOL0     H 2811   7.783   8.024   9.266 -1.0753  2.6638  0.0302
  762MOL0     H 2812   7.773   8.033   9.082  0.2503  4.7358 -0.9661
  762MOL0     H 2813   7.994   7.952   9.055  2.3305 -0.6608  0.2640
  762MOL0     H 2814   8.021   7.953   9.226  0.0262 -0.2366 -1.7368
  762MOL0     H 2815   7.851   7.761   9.258  2.6877 -2.8084  0.5536
  762MOL0     H 2816   7.819   7.783   9.080  1.3544  0.7420 -0.8030
  762MOL0     H 2817   8.082   7.723   9.222 -0.2558 -1.6563 -0.4001
  762MOL0     H 2818   7.970   7.597   9.174 -1.6844  0.5282 -0.4621
  762MOL0     H 2819   8.176   7.620   9.029  0.1510  0.6499  2.2553
  762MOL0     H 2820   8.112   7.781   8.982 -2.2188 -0.3214 -1.7560
  762MOL0     H 2821   7.820   7.570   8.977 -1.8528 -2.9318 -2.4066
  762MOL0     H 2822   7.772   7.281   8.799 -6.7268 -0.0348  0.3777
  762MOL0     H 2823   7.692   7.419   8.818 -0.1110 -2.8078  2.6140
  762MOL0     H 2824   7.815   7.360   8.546  0.7962  0.7571  1.0989
  762MOL0     H 2825   7.709   7.492   8.598  1.1193  0.7333  1.0156
  762MOL0     H 2826   7.529   7.313   8.651 -0.1089  0.1945  0.5110
  762MOL0     H 2827   7.650   7.192   8.587 -3.9698 -1.4782  1.4108
  762MOL0     H 2828   7.522   7.424   8.433  1.3799  0.5737 -1.3640
  762MOL0     H 2829   7.449   7.263   8.438  0.4129 -1.2971 -0.3767
  762MOL0     H 2830   7.532   7.063   8.474  5.0766  3.6575  2.4747
  762MOL0     H 2831   7.455   6.830   8.474  1.2636  0.8636  1.2251
  762MOL0     H 2832   7.520   6.710   8.347 -1.0725 -1.3637  0.9649
  762MOL0     H 2833   7.600   6.729   8.493  1.3316 -0.6203  0.0323
  762MOL0     H 2834   7.670   6.651   7.814 -1.1675  1.3476  2.6401
  762MOL0     H 2835   7.737   6.466   7.698 -0.0933 -1.3046  0.2861
  762MOL0     H 2836   8.010   6.175   7.885  0.6975  0.0058  0.1142
  762MOL0     H 2837   7.862   6.159   7.788  1.4559 -3.5440  0.2924
  762MOL0     H 2838   7.956   6.149   7.584 -0.6575  0.3829 -0.3270
  762MOL0     H 2839   8.123   6.163   7.646 -1.1022  0.9969  2.0646
  762MOL0     H 2840   7.952   5.936   7.747 -0.8618 -1.5310 -3.2924
  762MOL0     H 2841   8.118   5.974   7.778 -1.8895 -1.5378  0.5846
  762MOL0     H 2842   7.971   5.882   7.520 -0.7217 -1.5712  2.4087
  762MOL0     H 2843   8.139   5.938   7.499  3.2476 -1.9389  1.9537
  762MOL0     H 2844   8.218   5.764   7.645  0.8295 -1.1862 -0.3099
  762MOL0     H 2845   8.151   5.708   7.501 -1.4931 -1.8472  0.2528
  762MOL0     H 2846   7.999   5.688   7.765 -0.7517  0.2729  0.2742
  762MOL0     H 2847   7.919   5.657   7.613 -0.4523  0.1587  1.0014
  762MOL0     H 2848   8.021   5.472   7.751 -2.9298 -0.2584 -1.7691
  762MOL0     H 2849   8.189   5.531   7.705  0.0137  2.6217 -1.6328
  762MOL0     H 2850   8.125   5.489   7.448  0.0310  0.5442  0.6437
  762MOL0     H 2851   7.965   5.450   7.513  0.0742  0.9666  0.1009
  762MOL0     H 2852   8.008   6.353   8.000 -0.0321  1.4650  1.3875
  762MOL0     H 2853   7.941   6.547   8.140 -1.0650  0.6589  0.9231
  762MOL0     H 2854   7.852   6.962   8.112  1.8499 -0.5281  1.9447
  762MOL0     H 2855   7.818   7.195   8.187  1.4523 -2.1471  0.3470
  762MOL0     H 2856   8.046   8.619   8.755 -0.2440  0.1666 -0.4019
  762MOL0     H 2857   8.162   8.824   8.760  1.2382 -1.8334 -0.6592
  762MOL0     H 2858   8.401   9.155   8.959 -0.7621 -2.1188  1.2180
  762MOL0     H 2859   8.478   9.395   8.968  0.1033 -1.8695 -0.5320
  762MOL0     H 2860   8.517   9.584   9.078  1.6819  4.4288  1.9294
  762MOL0     H 2861   8.456   9.664   8.930 -2.2160  1.5095 -1.4630
  762MOL0     H 2862   8.478   9.773   9.222  0.3948  0.9448  0.0482
  762MOL0     H 2863   8.375   9.848   9.092  0.7739  0.0217 -0.0119
  762MOL0     H 2864   8.578   9.846   8.953 -2.1593 -2.3476  0.6600
  762MOL0     H 2865   8.676   9.803   9.087 -0.2168 -1.5467 -0.6559
  762MOL0     H 2866   8.697  10.039   9.063  1.4258  0.9480  2.1892
  762MOL0     H 2867   8.638   9.986   9.221 -1.0818 -1.9787 -0.4922
  762MOL0     H 2868   8.336  10.231   9.033  0.1675  1.7544  2.0649
  762MOL0     H 2869   8.089   9.517   9.056  1.5445  0.8438 -0.3693
  762MOL0     H 2870   8.008   9.293   9.053 -0.1231  1.7445 -3.1283
  763MOL0     O 2871   7.132   1.889   6.133  0.4334 -0.4024  0.0785
  763MOL0     C 2872   7.133   1.955   6.240 -0.0417  0.7847  0.0274
  763MOL0     O 2873   7.026   1.979   6.325  0.3011  0.5284 -0.1948
  763MOL0     C 2874   6.900   1.941   6.287 -0.0606  0.2960 -0.1210
  763MOL0     C 2875   6.798   2.028   6.235  1.0423 -0.1888 -0.3869
  763MOL0     C 2876   6.685   1.973   6.171 -0.2273  0.3734  1.1199
  763MOL0     C 2877   6.663   1.837   6.172 -0.2816 -0.0686  0.1107
  763MOL0     O 2878   6.551   1.778   6.120 -0.6752  0.0932  0.6171
  763MOL0     C 2879   6.469   1.850   6.019  0.0211 -0.5148 -0.2978
  763MOL0     C 2880   6.379   1.759   5.941 -0.1014  0.1063  0.3787
  763MOL0     C 2881   6.455   1.650   5.861  0.5949  0.0692 -0.0817
  763MOL0     C 2882   6.374   1.540   5.785 -0.2426  0.2730 -0.0907
  763MOL0     C 2883   6.288   1.591   5.673 -0.2819 -0.4190  0.2735
  763MOL0     C 2884   6.254   1.463   5.596 -0.0881 -0.2939  0.1027
  763MOL0     C 2885   6.133   1.486   5.507 -0.2641 -0.9301  0.1051
  763MOL0     C 2886   6.106   1.368   5.419  0.3094  0.1240 -0.1939
  763MOL0     N 2887   6.212   1.335   5.330 -0.7454  1.0637  0.4651
  763MOL0     C 2888   6.239   1.209   5.284 -0.1065  0.7711 -0.0440
  763MOL0     C 2889   6.351   1.220   5.204 -0.2166  1.3115  0.0637
  763MOL0     C 2890   6.424   1.106   5.133  0.5326  0.1354  0.0547
  763MOL0     C 2891   6.527   1.037   5.225  0.3867  0.0502  0.3140
  763MOL0     C 2892   6.491   1.019   5.382  0.0151 -0.9164 -0.6452
  763MOL0     C 2893   6.535   1.137   5.471 -0.1659 -0.1526 -0.0221
  763MOL0     O 2894   6.457   1.161   5.598 -0.0884 -0.4409 -0.1669
  763MOL0     C 2895   6.435   1.050   5.678  0.5897 -0.4892 -0.3530
  763MOL0     C 2896   6.520   0.941   5.692  0.1242 -0.2120  0.1048
  763MOL0     C 2897   6.478   0.825   5.765  0.3285  0.2097  0.0300
  763MOL0     C 2898   6.548   0.691   5.773  0.6387  1.4402  0.1557
  763MOL0     C 2899   6.355   0.846   5.848 -0.8024 -0.5088  0.6878
  763MOL0     C 2900   6.300   0.740   5.925  1.1432 -0.0556  0.3077
  763MOL0     O 2901   6.382   0.674   6.009  0.4122  0.4376  1.4607
  763MOL0     C 2902   6.343   0.551   6.050  0.3585  0.1456 -0.5793
  763MOL0     C 2903   6.392   0.511   6.173 -0.4249  0.0423  0.1057
  763MOL0     C 2904   6.366   0.384   6.225 -0.5209  0.0440  0.7196
  763MOL0     C 2905   6.301   0.290   6.148 -0.3808  0.1254  0.1761
  763MOL0     O 2906   6.291   0.171   6.215  0.2134  0.2428  0.1939
  763MOL0     C 2907   6.238   0.061   6.142  0.3322 -0.0701  0.8140
  763MOL0     C 2908   6.200  -0.053   6.238 -0.6070 -0.3672 -0.3923
  763MOL0     C 2909   6.159  -0.197   6.180 -0.9792  0.4095  0.2124
  763MOL0     C 2910   6.010  -0.187   6.128 -1.5527 -0.3021 -0.2216
  763MOL0     C 2911   5.978  -0.306   6.043 -0.4150 -0.5993 -0.8555
  763MOL0     C 2912   6.049  -0.325   5.909  0.1090 -0.3493  0.2834
  763MOL0     C 2913   5.987  -0.436   5.829 -0.1544 -1.0956 -0.1979
  763MOL0     C 2914   6.077  -0.522   5.753 -0.9412  0.1666 -0.0748
  763MOL0    Cl 2915   5.983  -0.654   5.679 -0.2075  0.1626 -0.7175
  763MOL0     C 2916   6.262   0.323   6.015  0.2209  0.2296 -0.4650
  763MOL0     C 2917   6.285   0.452   5.967 -0.5739  0.2941 -0.4141
  763MOL0     O 2918   6.182   0.718   5.913 -0.3298  0.7956  0.0025
  763MOL0     C 2919   6.279   0.958   5.829 -0.5221 -0.2800  0.3106
  763MOL0     C 2920   6.307   1.056   5.738  0.3267  0.8365  0.0615
  763MOL0     N 2921   6.382   1.352   5.196  0.8441  0.7498 -0.1182
  763MOL0     N 2922   6.310   1.415   5.279 -1.0189  0.0378 -0.3849
  763MOL0     C 2923   6.752   1.759   6.248 -0.8303 -0.8850  0.5748
  763MOL0     C 2924   6.868   1.807   6.301 -0.7030 -0.1164  0.2643
  763MOL0     C 2925   7.262   2.024   6.274  0.3610 -0.0790  0.8971
  763MOL0     C 2926   7.271   2.109   6.392  0.7404 -0.4390  0.2704
  763MOL0     C 2927   7.388   2.172   6.427 -0.6602 -0.3226 -0.0219
  763MOL0     C 2928   7.513   2.156   6.351  0.2045 -0.2982  1.4744
  763MOL0     O 2929   7.620   2.234   6.382 -0.3162  0.1202  0.0344
  763MOL0     C 2930   7.671   2.308   6.268  0.2530  0.1490  0.1682
  763MOL0     C 2931   7.804   2.389   6.304  0.6460 -0.2980  0.4721
  763MOL0     C 2932   7.858   2.472   6.191 -0.5256 -0.0634  0.2421
  763MOL0     C 2933   7.977   2.569   6.232 -0.0664 -0.7790  0.0697
  763MOL0     C 2934   7.938   2.659   6.342  0.6166  0.0684 -0.2109
  763MOL0     C 2935   7.911   2.733   6.440 -0.0661  1.2750 -0.7981
  763MOL0     C 2936   7.503   2.055   6.245  0.1648  0.8562 -0.3578
  763MOL0     C 2937   7.385   1.991   6.205  0.1082  0.0891 -0.2268
  763MOL0     H 2938   6.823   2.133   6.221  3.4743 -0.5119  1.0008
  763MOL0     H 2939   6.617   2.037   6.115  0.2062  0.6085  0.8602
  763MOL0     H 2940   6.422   1.931   6.075 -0.9054 -0.9763 -0.3955
  763MOL0     H 2941   6.531   1.902   5.945 -1.3592  2.4178  0.4808
  763MOL0     H 2942   6.317   1.704   6.013  2.1989 -3.5889 -0.1715
  763MOL0     H 2943   6.318   1.815   5.869  1.2398  0.5024 -0.4806
  763MOL0     H 2944   6.511   1.707   5.786 -3.4078  5.1119  0.1862
  763MOL0     H 2945   6.511   1.590   5.933 -0.8930 -1.5380 -0.1943
  763MOL0     H 2946   6.450   1.469   5.753  2.1354  1.0930  3.1715
  763MOL0     H 2947   6.303   1.489   5.850 -0.5738 -0.2225 -0.8282
  763MOL0     H 2948   6.200   1.644   5.712 -2.1190 -2.5629 -0.7474
  763MOL0     H 2949   6.356   1.658   5.620  0.2152  0.0362  1.4467
  763MOL0     H 2950   6.344   1.441   5.538  1.0409 -3.0044  2.6024
  763MOL0     H 2951   6.238   1.387   5.673  2.7850 -1.2476 -0.0987
  763MOL0     H 2952   6.048   1.515   5.570  2.1500  0.8330  2.7918
  763MOL0     H 2953   6.158   1.576   5.449  0.6329 -0.7069  0.8230
  763MOL0     H 2954   6.016   1.390   5.362  1.0886  1.4438 -0.9624
  763MOL0     H 2955   6.092   1.274   5.473  1.4358 -1.3368 -2.2913
  763MOL0     H 2956   6.191   1.114   5.306  0.9366  0.7549  2.4287
  763MOL0     H 2957   6.352   1.030   5.101  1.0635 -0.6242  0.6303
  763MOL0     H 2958   6.468   1.143   5.040 -0.7191  0.1292 -0.5629
  763MOL0     H 2959   6.626   1.085   5.218  0.3980  0.3406  1.9707
  763MOL0     H 2960   6.552   0.937   5.189  1.5297  0.3444  0.2376
  763MOL0     H 2961   6.553   0.935   5.414  3.1748  0.0799 -3.5542
  763MOL0     H 2962   6.386   0.991   5.397 -0.1526 -1.1135 -2.0381
  763MOL0     H 2963   6.522   1.226   5.410  1.2602  0.3237  0.3285
  763MOL0     H 2964   6.642   1.129   5.494 -0.5388 -4.0413  1.1915
  763MOL0     H 2965   6.611   0.947   5.633  0.7694  4.0204  1.2424
  763MOL0     H 2966   6.591   0.670   5.871  0.5936 -1.1986 -0.3070
  763MOL0     H 2967   6.480   0.608   5.751  2.0197  0.2317  0.2732
  763MOL0     H 2968   6.625   0.687   5.696 -0.8908  2.8143 -1.5346
  763MOL0     H 2969   6.445   0.580   6.238 -1.0042 -1.8795  2.7645
  763MOL0     H 2970   6.387   0.369   6.330  0.0721  0.0173  0.6022
  763MOL0     H 2971   6.140   0.085   6.098  0.1496 -2.7945 -0.4813
  763MOL0     H 2972   6.302   0.037   6.057 -0.4559  2.4054 -0.5739
  763MOL0     H 2973   6.288  -0.060   6.302 -0.0382  0.8694 -1.0093
  763MOL0     H 2974   6.114  -0.016   6.295  1.8762  0.8039  2.9255
  763MOL0     H 2975   6.175  -0.271   6.259  3.0370  1.0211  0.1612
  763MOL0     H 2976   6.225  -0.232   6.100 -1.8047  2.3277 -1.3920
  763MOL0     H 2977   5.947  -0.176   6.218  2.0411  4.4257  2.1788
  763MOL0     H 2978   6.007  -0.094   6.072 -0.1175  0.9622  1.6813
  763MOL0     H 2979   5.871  -0.295   6.021 -0.9665 -2.0331  0.8249
  763MOL0     H 2980   5.989  -0.388   6.115 -0.9334  0.0360 -0.0268
  763MOL0     H 2981   6.046  -0.230   5.855 -0.4289 -0.0375  0.8576
  763MOL0     H 2982   6.155  -0.348   5.925  0.0270 -0.1538  1.1657
  763MOL0     H 2983   5.906  -0.399   5.764 -0.7750 -0.3852  0.9443
  763MOL0     H 2984   5.938  -0.510   5.894 -0.2675  0.5591  1.6985
  763MOL0     H 2985   6.154  -0.575   5.809 -0.0396  0.2110 -1.2353
  763MOL0     H 2986   6.137  -0.459   5.686 -0.1579  0.1894  0.6377
  763MOL0     H 2987   6.203   0.263   5.946  1.0754 -2.3799  0.9277
  763MOL0     H 2988   6.261   0.473   5.863 -0.3494  2.9938  0.0186
  763MOL0     H 2989   6.191   0.980   5.889 -0.1749  3.0552 -0.2242
  763MOL0     H 2990   6.233   1.136   5.737  1.3346  1.9657  3.3170
  763MOL0     H 2991   6.728   1.653   6.258 -1.5910 -0.8513 -0.7986
  763MOL0     H 2992   6.938   1.744   6.355  0.3024  1.1331  0.4653
  763MOL0     H 2993   7.181   2.117   6.452 -0.8931  2.1177 -2.2576
  763MOL0     H 2994   7.378   2.235   6.514 -0.2287  2.4962 -1.8723
  763MOL0     H 2995   7.704   2.242   6.188  3.4751  3.0227 -1.1005
  763MOL0     H 2996   7.594   2.379   6.235  0.5037 -0.4240 -1.7022
  763MOL0     H 2997   7.888   2.325   6.332  0.7718  0.4322  1.8641
  763MOL0     H 2998   7.774   2.457   6.385 -1.8228  0.9891 -1.4081
  763MOL0     H 2999   7.782   2.540   6.150 -1.4885  0.3287  2.5188
  763MOL0     H 3000   7.893   2.403   6.113  1.8278  3.4839 -2.1264
  763MOL0     H 3001   8.022   2.633   6.155  0.2982  0.3354  1.1719
  763MOL0     H 3002   8.056   2.507   6.277  1.7092  2.6674  2.1171
  763MOL0     H 3003   7.886   2.790   6.527 -0.4864 -2.3222  1.6853
  763MOL0     H 3004   7.593   2.027   6.192  0.9756 -1.5944  2.0622
  763MOL0     H 3005   7.378   1.917   6.126  0.4221 -0.9364  0.6949
  764MOL0     O 3006   7.181   2.067   3.376 -0.6312  0.0521 -0.0023
  764MOL0     C 3007   7.213   1.953   3.340  0.2170  0.0565  0.3730
  764MOL0     O 3008   7.145   1.845   3.350  0.7131  0.1564  0.3145
  764MOL0     C 3009   7.010   1.851   3.385 -1.1252 -0.5353  0.6660
  764MOL0     C 3010   6.917   1.887   3.291  0.3529 -0.3190  0.3674
  764MOL0     C 3011   6.783   1.851   3.305  0.0430  0.6445 -0.8292
  764MOL0     C 3012   6.744   1.800   3.431  0.1352  0.0784  0.2627
  764MOL0     O 3013   6.610   1.794   3.464  0.3623 -0.2993  0.3114
  764MOL0     C 3014   6.505   1.738   3.380 -0.3176  0.6730 -0.2453
  764MOL0     C 3015   6.442   1.614   3.446  0.0910 -0.4034  0.2916
  764MOL0     C 3016   6.360   1.647   3.575  0.4086  0.1483  0.4851
  764MOL0     C 3017   6.269   1.517   3.608  0.4217  0.4191  0.4828
  764MOL0     C 3018   6.206   1.521   3.754 -0.3583  0.3250  0.7187
  764MOL0     C 3019   6.115   1.649   3.777  0.6084  0.1654 -0.3047
  764MOL0     C 3020   6.033   1.654   3.910  0.3654  0.5827 -0.1148
  764MOL0     C 3021   6.104   1.725   4.027  0.0287 -0.8520  0.5919
  764MOL0     N 3022   6.026   1.719   4.149  0.1995 -0.4564 -0.1004
  764MOL0     C 3023   5.998   1.610   4.234 -0.3604 -0.0254 -0.8896
  764MOL0     C 3024   5.938   1.665   4.343  0.3737  1.5515  0.3674
  764MOL0     C 3025   5.872   1.583   4.457 -0.0785 -0.0354 -0.8626
  764MOL0     C 3026   5.750   1.502   4.409 -0.5745 -0.0154 -0.3224
  764MOL0     C 3027   5.616   1.574   4.404 -0.2732 -0.8062 -0.2463
  764MOL0     C 3028   5.502   1.470   4.388  0.3000 -1.0341 -0.0542
  764MOL0     O 3029   5.380   1.549   4.386 -0.2730  0.9356 -0.1342
  764MOL0     C 3030   5.317   1.575   4.510  0.3289  0.2670  0.5831
  764MOL0     C 3031   5.264   1.706   4.539 -0.2254  0.4118  0.4803
  764MOL0     C 3032   5.195   1.729   4.655  0.5737  0.1050 -0.1957
  764MOL0     C 3033   5.141   1.869   4.674 -0.7639  0.0102  0.6683
  764MOL0     C 3034   5.195   1.634   4.763  0.1736 -0.2960 -0.1198
  764MOL0     C 3035   5.135   1.644   4.898  1.5017 -0.5557 -0.1577
  764MOL0     O 3036   5.073   1.760   4.932 -0.1321 -0.1496 -0.5948
  764MOL0     C 3037   4.985   1.749   5.045 -0.6799  0.0292 -0.5421
  764MOL0     C 3038   4.856   1.719   5.027 -0.1233  0.9569  1.3626
  764MOL0     C 3039   4.766   1.701   5.124 -0.7154  0.4185 -0.6049
  764MOL0     C 3040   4.808   1.735   5.254  1.3195 -0.0831 -0.1413
  764MOL0     O 3041   4.709   1.741   5.358  0.6555 -0.0298 -0.5511
  764MOL0     C 3042   4.645   1.872   5.372  0.0187 -0.0786  0.3206
  764MOL0     C 3043   4.487   1.865   5.385  0.3189 -0.9876 -0.6131
  764MOL0     C 3044   4.429   2.011   5.370  0.4715  0.2865 -0.2034
  764MOL0     C 3045   4.350   2.023   5.239 -0.1412  0.7883 -0.2508
  764MOL0     C 3046   4.246   2.128   5.263  0.6920 -0.0463  0.4042
  764MOL0     C 3047   4.293   2.275   5.275 -0.3748  0.4201  0.5081
  764MOL0     C 3048   4.182   2.374   5.283  0.2474 -1.3047  0.1076
  764MOL0     C 3049   4.073   2.358   5.175  0.9528 -0.9358  0.5778
  764MOL0    Cl 3050   3.934   2.477   5.186  0.4561  0.0758  0.2760
  764MOL0     C 3051   4.942   1.780   5.277 -0.0385 -0.6011 -0.3871
  764MOL0     C 3052   5.035   1.787   5.171  0.5776  0.0085 -0.5302
  764MOL0     O 3053   5.140   1.544   4.971  0.3593  0.0467  1.0622
  764MOL0     C 3054   5.255   1.507   4.731 -0.3569 -0.0516 -0.2256
  764MOL0     C 3055   5.307   1.482   4.605  0.6243  1.1309  0.4595
  764MOL0     N 3056   5.931   1.805   4.337  0.0437 -0.1554  0.8260
  764MOL0     N 3057   5.982   1.832   4.217 -0.0614 -0.0273 -0.6984
  764MOL0     C 3058   6.847   1.768   3.524 -0.8331 -0.0321  0.6343
  764MOL0     C 3059   6.979   1.783   3.495 -0.2280 -0.2131 -0.0865
  764MOL0     C 3060   7.353   1.929   3.287  0.2299  0.0325 -0.4989
  764MOL0     C 3061   7.402   1.801   3.270 -0.3485  0.9205 -0.8900
  764MOL0     C 3062   7.532   1.773   3.228  0.1198  0.6288 -0.4796
  764MOL0     C 3063   7.617   1.876   3.190  0.1039  0.5168 -0.5379
  764MOL0     O 3064   7.751   1.830   3.168  0.6718 -0.3295 -0.2323
  764MOL0     C 3065   7.852   1.932   3.164 -0.4397  0.3692 -0.4081
  764MOL0     C 3066   7.998   1.870   3.179  0.2373 -1.0000 -0.2341
  764MOL0     C 3067   8.104   1.973   3.131  0.0095  0.4081 -0.3578
  764MOL0     C 3068   8.234   1.945   3.194 -0.2450  0.6404  0.1469
  764MOL0     C 3069   8.242   2.003   3.333  0.0870  0.6334 -0.4136
  764MOL0     C 3070   8.243   2.019   3.453 -0.3337 -0.2777  0.1257
  764MOL0     C 3071   7.571   2.000   3.200 -0.5810 -1.3730 -0.8709
  764MOL0     C 3072   7.442   2.031   3.247 -0.6264 -0.0912  0.1513
  764MOL0     H 3073   6.946   1.912   3.189  1.5898  0.8834  0.9895
  764MOL0     H 3074   6.713   1.859   3.223  1.3648 -0.3916 -2.1121
  764MOL0     H 3075   6.434   1.820   3.369 -0.8629 -0.0357 -2.7346
  764MOL0     H 3076   6.541   1.714   3.280  0.7218 -0.7157  0.4237
  764MOL0     H 3077   6.374   1.578   3.369 -0.9740  3.8057 -0.9962
  764MOL0     H 3078   6.522   1.541   3.461  0.2795 -0.0677  1.0043
  764MOL0     H 3079   6.446   1.670   3.639  2.2487 -0.5755 -1.5686
  764MOL0     H 3080   6.290   1.730   3.566  1.2171  1.3391  3.7472
  764MOL0     H 3081   6.187   1.516   3.535  2.3438  0.6039 -1.7934
  764MOL0     H 3082   6.322   1.423   3.586 -0.8005 -0.4488  1.1127
  764MOL0     H 3083   6.149   1.428   3.764 -0.6834  0.4666  0.2227
  764MOL0     H 3084   6.287   1.504   3.826 -0.6421 -5.1933  0.1699
  764MOL0     H 3085   6.175   1.741   3.778  0.8456  0.0328  1.9624
  764MOL0     H 3086   6.045   1.655   3.693  1.2957 -0.9860 -0.9905
  764MOL0     H 3087   5.936   1.702   3.895 -0.1871  0.2601  2.0808
  764MOL0     H 3088   6.013   1.550   3.940  1.7792  0.3910  0.2459
  764MOL0     H 3089   6.110   1.827   3.986 -1.9257 -1.6724 -1.9918
  764MOL0     H 3090   6.204   1.681   4.038 -0.1519 -1.1444  1.0835
  764MOL0     H 3091   6.027   1.507   4.215  0.4602  0.0836 -0.2773
  764MOL0     H 3092   5.951   1.511   4.481  0.9010  1.3287  0.2118
  764MOL0     H 3093   5.845   1.636   4.549  1.2674  1.4392 -1.2622
  764MOL0     H 3094   5.740   1.424   4.485 -0.0190 -0.3875 -0.6318
  764MOL0     H 3095   5.763   1.453   4.313 -2.9472 -1.8906  0.2120
  764MOL0     H 3096   5.624   1.631   4.311  0.3826 -1.7631 -0.8021
  764MOL0     H 3097   5.601   1.647   4.484  0.5866 -0.3531 -0.4869
  764MOL0     H 3098   5.502   1.397   4.470 -1.0394  0.0491  0.9382
  764MOL0     H 3099   5.506   1.419   4.291  2.0447  0.3069 -0.7478
  764MOL0     H 3100   5.274   1.785   4.465 -1.4236  0.4924  0.3818
  764MOL0     H 3101   5.205   1.918   4.748 -0.2629 -0.4334  0.5364
  764MOL0     H 3102   5.149   1.923   4.580  1.9453 -2.3418 -0.6156
  764MOL0     H 3103   5.040   1.857   4.713 -1.0892  1.6951  0.4143
  764MOL0     H 3104   4.831   1.727   4.921  3.3278  1.8792  0.5167
  764MOL0     H 3105   4.674   1.656   5.089 -0.4465  0.2267 -1.0742
  764MOL0     H 3106   4.688   1.924   5.457  5.1424  0.0555 -1.9904
  764MOL0     H 3107   4.662   1.937   5.286  0.8910 -1.2345 -0.4159
  764MOL0     H 3108   4.449   1.803   5.304  0.5634  0.6596 -2.0589
  764MOL0     H 3109   4.458   1.827   5.483 -1.7640  3.6027  0.8442
  764MOL0     H 3110   4.497   2.097   5.371  0.0233  0.6784  2.2622
  764MOL0     H 3111   4.359   2.013   5.453 -0.2678 -2.4271 -0.6783
  764MOL0     H 3112   4.428   2.043   5.164  0.5688  0.6500  0.4334
  764MOL0     H 3113   4.309   1.926   5.209  1.8439  0.3063 -1.6410
  764MOL0     H 3114   4.196   2.097   5.356  0.7854 -0.0385  0.4560
  764MOL0     H 3115   4.174   2.127   5.180 -2.4810  3.9045  2.7165
  764MOL0     H 3116   4.359   2.290   5.361 -0.9292  2.6318  0.6310
  764MOL0     H 3117   4.349   2.291   5.182 -1.5606  2.0417  0.0169
  764MOL0     H 3118   4.233   2.470   5.278  2.0481 -2.2744 -2.9345
  764MOL0     H 3119   4.129   2.364   5.378 -1.3025 -0.9600 -0.6922
  764MOL0     H 3120   4.013   2.267   5.187 -2.5464  1.2347  1.0190
  764MOL0     H 3121   4.118   2.362   5.076  0.4884  1.4174  0.3944
  764MOL0     H 3122   4.966   1.809   5.379  0.6155  0.5021 -0.8270
  764MOL0     H 3123   5.137   1.822   5.185  0.7682  1.1190 -3.6941
  764MOL0     H 3124   5.270   1.433   4.809 -2.8278 -0.4559 -0.0699
  764MOL0     H 3125   5.356   1.385   4.594 -0.5017  0.8003 -3.1773
  764MOL0     H 3126   6.815   1.754   3.627  0.4785 -2.3437  0.8000
  764MOL0     H 3127   7.058   1.750   3.562 -0.0252 -0.6635 -0.5415
  764MOL0     H 3128   7.336   1.719   3.299 -1.0273  2.0136  0.8021
  764MOL0     H 3129   7.556   1.667   3.221  0.8278  0.7085  0.5756
  764MOL0     H 3130   7.846   1.966   3.060  2.9973 -2.1839 -1.6607
  764MOL0     H 3131   7.828   2.013   3.234  0.1235  0.3407 -0.1773
  764MOL0     H 3132   8.006   1.789   3.107  0.4802  1.6613 -3.4478
  764MOL0     H 3133   8.007   1.833   3.282 -2.3906 -1.5412 -0.1241
  764MOL0     H 3134   8.063   2.064   3.175  3.1173  2.1197 -0.7100
  764MOL0     H 3135   8.106   1.972   3.021 -0.1420  1.5642 -0.3803
  764MOL0     H 3136   8.309   1.997   3.134 -0.8364  0.4421 -0.7771
  764MOL0     H 3137   8.260   1.840   3.184  0.6636  0.7717  0.8832
  764MOL0     H 3138   8.252   2.028   3.559 -0.3932 -1.9071  0.2978
  764MOL0     H 3139   7.632   2.085   3.173  0.5067 -1.8763 -0.0460
  764MOL0     H 3140   7.422   2.134   3.273 -0.6028 -0.2244  0.7102
  765MOL0     O 3141   0.279   5.274   2.732  1.0215  0.1001  0.2816
  765MOL0     C 3142   0.338   5.257   2.838  0.0344  0.0999  0.1757
  765MOL0     O 3143   0.331   5.153   2.917  0.0925 -0.2192  0.1005
  765MOL0     C 3144   0.235   5.054   2.892 -0.0199  0.4006  0.3488
  765MOL0     C 3145   0.266   4.943   2.965 -1.0930  0.2447  0.0604
  765MOL0     C 3146   0.191   4.826   2.967 -0.5874  0.7314 -0.1517
  765MOL0     C 3147   0.078   4.816   2.895 -0.3241 -0.4005  0.8559
  765MOL0     O 3148   0.010   4.699   2.916 -0.1941  0.1830  0.0118
  765MOL0     C 3149  -0.059   4.640   2.803 -1.2659 -0.9580  0.0147
  765MOL0     C 3150  -0.100   4.500   2.835 -1.0353 -0.5025  0.0260
  765MOL0     C 3151  -0.141   4.411   2.717 -0.7433  0.3807  0.4486
  765MOL0     C 3152  -0.040   4.384   2.610 -0.1275 -0.4130 -0.5099
  765MOL0     C 3153  -0.089   4.281   2.503 -0.2410 -0.2105  0.0372
  765MOL0     C 3154  -0.010   4.274   2.375  0.6958  0.4291 -0.9405
  765MOL0     C 3155  -0.010   4.400   2.288 -0.0421 -0.0244 -0.2690
  765MOL0     C 3156   0.054   4.374   2.152 -0.2534  1.3542 -0.7181
  765MOL0     N 3157   0.049   4.482   2.058 -0.1361  0.0050 -0.2324
  765MOL0     C 3158  -0.054   4.475   1.968 -0.4298 -0.5015 -0.0024
  765MOL0     C 3159  -0.053   4.599   1.921  0.1436 -0.6248  0.4488
  765MOL0     C 3160  -0.142   4.659   1.816  0.0333 -0.1390  0.6775
  765MOL0     C 3161  -0.049   4.683   1.691  0.6041  0.2628  0.3022
  765MOL0     C 3162  -0.145   4.658   1.565  0.1270  0.2312  0.0083
  765MOL0     C 3163  -0.066   4.682   1.447  0.5075 -0.1999  0.8500
  765MOL0     O 3164  -0.136   4.703   1.320 -0.0686 -0.4861  0.2935
  765MOL0     C 3165  -0.196   4.599   1.259  0.6718  0.7797  0.2865
  765MOL0     C 3166  -0.324   4.543   1.292  0.0789 -0.1590 -0.0273
  765MOL0     C 3167  -0.377   4.437   1.222  0.0462 -0.4817  0.4327
  765MOL0     C 3168  -0.510   4.374   1.262  0.4616 -0.0918 -0.3107
  765MOL0     C 3169  -0.302   4.389   1.112 -0.1893  0.6749  1.6138
  765MOL0     C 3170  -0.344   4.264   1.029  0.8081  0.1989  0.0947
  765MOL0     O 3171  -0.243   4.181   0.978 -0.9005 -0.2776 -0.1395
  765MOL0     C 3172  -0.274   4.076   0.891  0.7015 -0.1812 -0.0709
  765MOL0     C 3173  -0.174   4.034   0.803 -0.0766  0.6247  0.2303
  765MOL0     C 3174  -0.189   3.934   0.711  0.6878  0.2075 -0.3733
  765MOL0     C 3175  -0.315   3.865   0.705  0.0177 -1.0313  0.0697
  765MOL0     O 3176  -0.343   3.768   0.614  0.0094  0.4053  0.5317
  765MOL0     C 3177  -0.233   3.693   0.554 -0.1080  0.5966 -1.0277
  765MOL0     C 3178  -0.295   3.564   0.499  0.1242 -0.1217 -0.4988
  765MOL0     C 3179  -0.345   3.487   0.620  0.3111 -0.2686 -0.2152
  765MOL0     C 3180  -0.359   3.337   0.579 -0.1568 -0.8709  1.5524
  765MOL0     C 3181  -0.358   3.234   0.689 -0.6465  0.7995 -0.1726
  765MOL0     C 3182  -0.397   3.092   0.659  0.2679  0.0912  0.6097
  765MOL0     C 3183  -0.549   3.071   0.654 -0.3483  0.2992 -0.2802
  765MOL0     C 3184  -0.597   2.996   0.531  0.0354  0.0479  0.3881
  765MOL0    Cl 3185  -0.775   3.003   0.511 -0.4006 -0.7965  0.0916
  765MOL0     C 3186  -0.419   3.907   0.787  0.8163  0.0637 -0.2719
  765MOL0     C 3187  -0.400   4.009   0.877 -0.0663 -0.2190  0.0522
  765MOL0     O 3188  -0.464   4.270   0.992 -0.0811 -0.0139  0.2180
  765MOL0     C 3189  -0.182   4.437   1.082 -0.8577 -0.7103 -0.6262
  765MOL0     C 3190  -0.123   4.542   1.150  0.1404 -0.1123  1.1712
  765MOL0     N 3191   0.038   4.682   1.982 -1.3256  0.0770  0.6407
  765MOL0     N 3192   0.097   4.607   2.074  0.3972  0.2158 -0.5243
  765MOL0     C 3193   0.036   4.932   2.818  0.3685  0.3887 -0.3959
  765MOL0     C 3194   0.116   5.048   2.813 -1.0755  0.1933 -0.1851
  765MOL0     C 3195   0.439   5.359   2.866 -0.2014 -0.1209 -0.4039
  765MOL0     C 3196   0.451   5.478   2.789 -0.3828 -0.1409 -1.3848
  765MOL0     C 3197   0.558   5.562   2.817 -0.4929 -0.3889 -0.7634
  765MOL0     C 3198   0.637   5.550   2.935 -0.3376 -0.5287  0.7486
  765MOL0     O 3199   0.728   5.647   2.959 -0.7264  0.2215 -0.0751
  765MOL0     C 3200   0.812   5.650   3.073  0.7658  0.0219 -0.1787
  765MOL0     C 3201   0.925   5.754   3.044 -0.2148 -0.0014 -0.1947
  765MOL0     C 3202   0.875   5.900   3.047 -0.9818 -0.4080 -0.3710
  765MOL0     C 3203   0.785   5.940   2.927 -0.1141  0.4334  0.3552
  765MOL0     C 3204   0.755   6.085   2.941  0.6635  1.1640  0.0718
  765MOL0     C 3205   0.743   6.196   2.956 -0.2697  0.2642 -0.2829
  765MOL0     C 3206   0.620   5.442   3.019  1.1200  0.2737 -0.5133
  765MOL0     C 3207   0.518   5.350   2.984 -1.1502 -0.4595  0.2411
  765MOL0     H 3208   0.361   4.950   3.018 -0.6822  1.9597 -0.8282
  765MOL0     H 3209   0.236   4.740   3.015  2.1710  3.0759  1.8185
  765MOL0     H 3210  -0.140   4.699   2.760  1.3849  3.4003  0.3977
  765MOL0     H 3211   0.013   4.629   2.721 -1.3864 -2.1192  0.0531
  765MOL0     H 3212  -0.018   4.450   2.887 -1.8131 -2.5658 -0.6384
  765MOL0     H 3213  -0.180   4.502   2.909 -3.3810 -2.0478 -2.3032
  765MOL0     H 3214  -0.170   4.313   2.755  0.6317  0.1264  0.9085
  765MOL0     H 3215  -0.232   4.451   2.673  0.4030  1.9737 -0.5753
  765MOL0     H 3216  -0.028   4.484   2.568  0.6344 -1.7971 -3.9643
  765MOL0     H 3217   0.055   4.360   2.659 -0.6231 -1.1498  0.1094
  765MOL0     H 3218  -0.082   4.178   2.540 -1.5215 -1.6353 -3.2927
  765MOL0     H 3219  -0.193   4.308   2.485  0.0476  2.3816  1.7962
  765MOL0     H 3220   0.096   4.261   2.396  0.7308 -0.3739 -1.5820
  765MOL0     H 3221  -0.046   4.188   2.318 -1.2620 -0.4400  1.4251
  765MOL0     H 3222  -0.107   4.444   2.263 -0.0024 -1.4700 -3.5209
  765MOL0     H 3223   0.043   4.486   2.329  1.6761 -0.5378 -1.3160
  765MOL0     H 3224   0.013   4.290   2.095 -1.1022  1.2324  0.0427
  765MOL0     H 3225   0.161   4.368   2.175 -0.4424  2.0252  0.4351
  765MOL0     H 3226  -0.116   4.396   1.926  0.1781 -0.1298 -1.6568
  765MOL0     H 3227  -0.221   4.588   1.790  0.0693 -0.2921  0.9790
  765MOL0     H 3228  -0.194   4.753   1.838  3.0854  3.2884 -4.4950
  765MOL0     H 3229   0.043   4.623   1.698  0.1932 -0.2557  1.5737
  765MOL0     H 3230  -0.010   4.785   1.683 -0.6754  0.7529  0.2442
  765MOL0     H 3231  -0.212   4.744   1.567 -0.0919  0.2025 -2.5336
  765MOL0     H 3232  -0.210   4.571   1.553 -1.4828  1.5508 -1.4267
  765MOL0     H 3233  -0.008   4.590   1.443 -2.1797 -1.9834 -0.2181
  765MOL0     H 3234   0.003   4.765   1.462  0.7904  0.0387 -1.3819
  765MOL0     H 3235  -0.389   4.587   1.367 -2.7249  0.3433 -2.5555
  765MOL0     H 3236  -0.591   4.415   1.201  0.4029  0.9234  0.4051
  765MOL0     H 3237  -0.514   4.266   1.247 -2.7349 -0.0026 -0.8592
  765MOL0     H 3238  -0.538   4.384   1.368  1.1703  2.4850 -0.2807
  765MOL0     H 3239  -0.075   4.077   0.812  1.2539 -2.1441 -0.2019
  765MOL0     H 3240  -0.115   3.909   0.636 -2.4406 -1.3681 -3.1608
  765MOL0     H 3241  -0.191   3.751   0.471 -2.8999  0.1278 -2.9500
  765MOL0     H 3242  -0.162   3.675   0.634 -0.4850  0.1497 -0.7862
  765MOL0     H 3243  -0.375   3.594   0.430 -0.7926 -0.6837  0.3064
  765MOL0     H 3244  -0.222   3.510   0.438  1.5511  3.0503 -1.8463
  765MOL0     H 3245  -0.442   3.528   0.648  0.8863  3.2429 -2.6410
  765MOL0     H 3246  -0.269   3.491   0.699  0.3868 -0.5260 -0.2749
  765MOL0     H 3247  -0.446   3.329   0.512  0.3672  2.3432  0.3213
  765MOL0     H 3248  -0.277   3.302   0.516 -2.1691 -3.0188 -0.0538
  765MOL0     H 3249  -0.418   3.269   0.774 -2.1721  1.6799 -1.5440
  765MOL0     H 3250  -0.251   3.222   0.711 -0.8374 -3.8571 -0.8568
  765MOL0     H 3251  -0.353   3.065   0.563  0.4134 -2.2379  1.2625
  765MOL0     H 3252  -0.360   3.021   0.734  3.0849 -0.7002 -1.3641
  765MOL0     H 3253  -0.596   3.170   0.663 -2.1976 -0.5552 -0.0876
  765MOL0     H 3254  -0.588   3.019   0.742  0.5682 -0.4663 -0.3236
  765MOL0     H 3255  -0.573   2.890   0.538  0.9220  0.3370  2.7373
  765MOL0     H 3256  -0.556   3.048   0.444 -2.4310  3.0096  0.7926
  765MOL0     H 3257  -0.519   3.866   0.785  1.3997 -1.4711 -2.3926
  765MOL0     H 3258  -0.485   4.035   0.939 -1.2633  2.8393 -2.5873
  765MOL0     H 3259  -0.127   4.392   0.999 -1.1585 -2.4975  0.0999
  765MOL0     H 3260  -0.024   4.585   1.135 -0.0166 -0.0025  0.3841
  765MOL0     H 3261  -0.065   4.933   2.777 -1.5201 -0.5607  3.7216
  765MOL0     H 3262   0.082   5.125   2.744  1.2310 -0.4793 -2.2353
  765MOL0     H 3263   0.383   5.512   2.711 -2.4833  1.4467  1.0006
  765MOL0     H 3264   0.582   5.650   2.759  2.3831 -0.0812  0.6913
  765MOL0     H 3265   0.750   5.676   3.160  3.0378  0.3999  1.4393
  765MOL0     H 3266   0.863   5.557   3.101  3.0353  1.5509  1.1356
  765MOL0     H 3267   0.977   5.729   2.951  1.8427  1.9842  0.3020
  765MOL0     H 3268   1.008   5.752   3.115 -0.6704  0.5443  0.3626
  765MOL0     H 3269   0.970   5.953   3.030  0.4514 -3.4248 -2.6915
  765MOL0     H 3270   0.826   5.918   3.143 -1.1787 -0.1035 -0.5295
  765MOL0     H 3271   0.707   5.865   2.913  0.4616 -1.1212  4.1544
  765MOL0     H 3272   0.841   5.923   2.835 -0.8927 -0.4874  0.0321
  765MOL0     H 3273   0.728   6.299   2.982 -2.6511  0.0516 -0.5767
  765MOL0     H 3274   0.677   5.438   3.112 -2.3596 -0.7538  1.7594
  765MOL0     H 3275   0.519   5.257   3.040 -0.9548 -0.6756 -0.1136
  766MOL0     O 3276  10.734   5.112   7.030 -0.1101 -0.7627  0.0459
  766MOL0     C 3277  10.794   5.024   6.956  0.9973 -0.3168  0.1766
  766MOL0     O 3278  10.874   4.932   7.008 -0.1868 -0.0935  0.1931
  766MOL0     C 3279  10.898   4.927   7.145  0.2516 -0.8333 -0.6844
  766MOL0     C 3280  10.957   5.038   7.218  0.4017  0.1138  0.5273
  766MOL0     C 3281  10.995   5.019   7.350  0.2737  0.4342 -1.3007
  766MOL0     C 3282  10.957   4.901   7.421 -0.1349  0.1047  0.2483
  766MOL0     O 3283  10.982   4.883   7.558 -0.2984  0.6094  0.3883
  766MOL0     C 3284  10.934   4.989   7.634  0.4427  0.8662 -0.2077
  766MOL0     C 3285  10.923   4.951   7.773  0.6919 -0.2509  0.1605
  766MOL0     C 3286  11.056   4.912   7.844 -0.6402 -0.3220 -0.2302
  766MOL0     C 3287  11.097   5.013   7.951  0.4804  0.2382  0.1701
  766MOL0     C 3288  11.156   5.152   7.879 -0.0636 -0.3893 -0.0705
  766MOL0     C 3289  11.294   5.130   7.824 -0.6872 -0.6157  0.7537
  766MOL0     C 3290  11.375   5.261   7.815  1.7335 -0.0922  1.0311
  766MOL0     C 3291  11.337   5.350   7.694  1.0178  0.3643  0.4379
  766MOL0     N 3292  11.357   5.308   7.552  0.3890 -0.0333 -0.1698
  766MOL0     C 3293  11.485   5.289   7.494 -0.4358  0.0494  0.5860
  766MOL0     C 3294  11.457   5.285   7.362 -0.3902 -0.1520  0.2477
  766MOL0     C 3295  11.552   5.293   7.240  0.5888 -0.4038 -0.2330
  766MOL0     C 3296  11.548   5.431   7.163 -0.0661 -0.5903  0.3831
  766MOL0     C 3297  11.453   5.445   7.052  0.4016  0.6678 -0.0194
  766MOL0     C 3298  11.477   5.343   6.943  1.0298 -0.8975 -0.2148
  766MOL0     O 3299  11.605   5.369   6.882  0.7554 -1.0875 -0.3253
  766MOL0     C 3300  11.622   5.412   6.752 -0.4746  0.0842 -0.5775
  766MOL0     C 3301  11.519   5.443   6.659 -0.4186 -0.4959  0.2332
  766MOL0     C 3302  11.547   5.474   6.525 -0.6863 -0.1448 -0.4652
  766MOL0     C 3303  11.426   5.497   6.429  1.1792 -0.0286  0.2642
  766MOL0     C 3304  11.680   5.480   6.474  0.6249  0.6822  0.1803
  766MOL0     C 3305  11.727   5.497   6.336  0.3175  0.1531 -0.2106
  766MOL0     O 3306  11.628   5.497   6.238  0.2958 -0.6998  0.3634
  766MOL0     C 3307  11.663   5.512   6.106 -0.5641  0.7598  0.6787
  766MOL0     C 3308  11.751   5.420   6.045 -0.1861 -1.0942 -0.5325
  766MOL0     C 3309  11.785   5.445   5.915  0.3215 -0.6471 -0.0451
  766MOL0     C 3310  11.717   5.540   5.838  0.0956  0.5814  0.5251
  766MOL0     O 3311  11.734   5.554   5.702  0.9910  0.7042 -0.2700
  766MOL0     C 3312  11.836   5.497   5.621 -0.6786  0.1195  0.5243
  766MOL0     C 3313  11.791   5.539   5.481 -0.1713  0.1935  0.0411
  766MOL0     C 3314  11.662   5.472   5.421  0.3837  0.4473  0.6117
  766MOL0     C 3315  11.705   5.355   5.331 -0.6166 -0.2893 -0.0833
  766MOL0     C 3316  11.586   5.294   5.262 -0.0601 -0.6685  0.7611
  766MOL0     C 3317  11.529   5.184   5.353 -0.6161 -0.2193  0.9857
  766MOL0     C 3318  11.602   5.055   5.323 -0.2916 -0.9932 -0.9190
  766MOL0     C 3319  11.579   4.965   5.439  0.0733 -1.1668 -1.6305
  766MOL0    Cl 3320  11.676   5.031   5.580  0.2756 -0.2407  0.2260
  766MOL0     C 3321  11.625   5.629   5.896  0.8828  0.7839 -0.3309
  766MOL0     C 3322  11.596   5.613   6.030 -0.3561  0.2639 -0.2851
  766MOL0     O 3323  11.837   5.533   6.314 -0.4326  0.3977  0.4330
  766MOL0     C 3324  11.775   5.447   6.571  0.5725 -0.7078 -0.4813
  766MOL0     C 3325  11.753   5.425   6.707 -0.0239 -0.4367  0.2310
  766MOL0     N 3326  11.312   5.283   7.344  0.9146  0.0517 -0.8099
  766MOL0     N 3327  11.256   5.303   7.463 -0.4838 -0.2909  0.0133
  766MOL0     C 3328  10.912   4.795   7.348  0.1619  0.4453  0.0147
  766MOL0     C 3329  10.889   4.805   7.213 -0.0853  0.5987 -0.9053
  766MOL0     C 3330  10.746   5.012   6.819 -0.4662  0.1336  0.7040
  766MOL0     C 3331  10.650   5.097   6.757  0.0279 -0.4212 -0.1264
  766MOL0     C 3332  10.630   5.104   6.618 -0.8769 -0.1522  0.3463
  766MOL0     C 3333  10.713   5.036   6.534 -1.4977  0.3623  0.4080
  766MOL0     O 3334  10.716   5.066   6.404  0.0773  0.0992  0.1240
  766MOL0     C 3335  10.766   4.963   6.311 -0.5360  0.4713  0.1675
  766MOL0     C 3336  10.720   4.990   6.167 -0.4395 -0.3873 -0.1028
  766MOL0     C 3337  10.811   4.925   6.065 -0.5909 -0.5725 -0.0663
  766MOL0     C 3338  10.798   4.971   5.922  0.0322 -1.1688  0.0763
  766MOL0     C 3339  10.872   5.098   5.896  0.7865 -0.4347  0.1853
  766MOL0     C 3340  10.930   5.196   5.873  0.4304 -0.1525 -0.3734
  766MOL0     C 3341  10.798   4.950   6.591  0.7379 -0.8707 -0.0818
  766MOL0     C 3342  10.808   4.929   6.727  0.7373  0.8011  0.0035
  766MOL0     H 3343  10.986   5.132   7.172 -1.0703  2.3099  3.6603
  766MOL0     H 3344  11.040   5.100   7.406 -2.1396  1.5037 -0.7849
  766MOL0     H 3345  10.996   5.079   7.631  1.4113  0.2710  1.1389
  766MOL0     H 3346  10.836   5.009   7.589 -0.9679 -2.5207  1.0167
  766MOL0     H 3347  10.868   5.030   7.823  2.2568  0.6631  0.4980
  766MOL0     H 3348  10.856   4.865   7.760 -2.4119  2.3542 -2.8196
  766MOL0     H 3349  11.028   4.821   7.899 -0.5274  0.4010  1.0780
  766MOL0     H 3350  11.134   4.889   7.772  0.8067 -0.3737  1.3033
  766MOL0     H 3351  11.008   5.027   8.013  0.5357 -4.0163  1.5724
  766MOL0     H 3352  11.167   4.955   8.012 -1.0415 -1.6532  0.2030
  766MOL0     H 3353  11.085   5.187   7.803 -3.9409 -0.0645  3.3539
  766MOL0     H 3354  11.156   5.229   7.957  1.5762  1.8519 -2.1234
  766MOL0     H 3355  11.356   5.063   7.884  0.2928 -1.1633 -0.7905
  766MOL0     H 3356  11.291   5.082   7.726 -0.7522 -0.3192  0.6102
  766MOL0     H 3357  11.362   5.330   7.898 -0.8521  0.5668  0.1589
  766MOL0     H 3358  11.478   5.228   7.799  1.6352 -1.6806  3.1786
  766MOL0     H 3359  11.409   5.433   7.699  0.1397  1.1855 -0.1373
  766MOL0     H 3360  11.232   5.380   7.701  0.0944 -2.9051  3.9960
  766MOL0     H 3361  11.583   5.281   7.539  0.1168 -2.7646 -0.8621
  766MOL0     H 3362  11.648   5.272   7.288 -0.1496 -0.6295  1.2124
  766MOL0     H 3363  11.538   5.205   7.177 -1.0258 -1.4691  1.4895
  766MOL0     H 3364  11.646   5.444   7.115  0.6868 -0.6490  1.8506
  766MOL0     H 3365  11.530   5.516   7.229 -0.0207 -1.7975  2.0134
  766MOL0     H 3366  11.459   5.542   7.003  2.2397  0.2949 -0.6162
  766MOL0     H 3367  11.352   5.431   7.092 -0.0041  0.7678 -0.9727
  766MOL0     H 3368  11.394   5.358   6.873  0.0288  0.5600  1.2362
  766MOL0     H 3369  11.463   5.239   6.974 -2.2353 -0.9198 -1.3746
  766MOL0     H 3370  11.418   5.455   6.697  1.0535 -0.6186  4.7897
  766MOL0     H 3371  11.449   5.567   6.348  0.6057  1.8302  1.6453
  766MOL0     H 3372  11.388   5.402   6.390  1.7852  0.3246 -1.2586
  766MOL0     H 3373  11.345   5.535   6.492  0.9771  0.4635 -0.2842
  766MOL0     H 3374  11.792   5.340   6.106  2.5374 -1.6520 -2.8704
  766MOL0     H 3375  11.855   5.369   5.882 -0.8072 -1.1127 -1.4676
  766MOL0     H 3376  11.934   5.541   5.643  0.2374  0.1974 -2.9945
  766MOL0     H 3377  11.852   5.390   5.637 -2.3096 -0.6835 -2.3849
  766MOL0     H 3378  11.778   5.648   5.486 -3.0108 -0.1269  1.8668
  766MOL0     H 3379  11.874   5.512   5.415 -0.0995  1.3297 -0.3548
  766MOL0     H 3380  11.610   5.548   5.362  1.2371  5.2911  5.3056
  766MOL0     H 3381  11.598   5.433   5.501 -0.7600 -0.4782 -0.7038
  766MOL0     H 3382  11.771   5.390   5.252 -1.1144  1.3648  0.1927
  766MOL0     H 3383  11.766   5.277   5.377  4.3006  2.8158 -0.6355
  766MOL0     H 3384  11.600   5.272   5.156 -0.0877  1.3046  0.3136
  766MOL0     H 3385  11.506   5.365   5.242  1.3848  0.9049  0.3277
  766MOL0     H 3386  11.536   5.222   5.455 -1.7734  0.3170  0.8760
  766MOL0     H 3387  11.424   5.164   5.329 -0.5557 -1.0890  1.4015
  766MOL0     H 3388  11.710   5.068   5.312 -0.1383 -1.2627  0.1615
  766MOL0     H 3389  11.566   5.003   5.233 -2.4918  0.8636 -1.1950
  766MOL0     H 3390  11.615   4.864   5.419  2.7224 -0.4345 -0.9671
  766MOL0     H 3391  11.475   4.968   5.472  0.6432 -0.9905  0.2500
  766MOL0     H 3392  11.572   5.700   5.833 -2.5631  0.7531  2.2486
  766MOL0     H 3393  11.512   5.671   6.067 -0.4703  0.6108 -1.0586
  766MOL0     H 3394  11.880   5.450   6.543  0.5457  1.2569 -0.5262
  766MOL0     H 3395  11.833   5.419   6.781  0.5774 -0.8870 -0.4489
  766MOL0     H 3396  10.878   4.706   7.401 -2.1109  0.3188 -1.5239
  766MOL0     H 3397  10.838   4.720   7.168 -1.3692  0.3376  0.9186
  766MOL0     H 3398  10.587   5.156   6.823  1.6291  0.3750  0.7564
  766MOL0     H 3399  10.564   5.184   6.586  0.8140  1.5312  0.8976
  766MOL0     H 3400  10.875   4.964   6.315 -0.5505 -0.8292  2.3479
  766MOL0     H 3401  10.733   4.866   6.351  1.7793 -0.0942  0.8313
  766MOL0     H 3402  10.723   5.098   6.149  2.3334 -0.0392  1.7488
  766MOL0     H 3403  10.616   4.958   6.157 -0.7248  0.1868  0.9035
  766MOL0     H 3404  10.808   4.816   6.066  2.3730 -0.7827 -1.7253
  766MOL0     H 3405  10.909   4.951   6.108 -0.6249 -2.1896  1.0856
  766MOL0     H 3406  10.693   4.990   5.898  0.2896 -0.2578 -0.3974
  766MOL0     H 3407  10.827   4.895   5.848 -2.1175 -0.2393 -1.8749
  766MOL0     H 3408  10.994   5.280   5.854 -0.4279  0.6704  0.3020
  766MOL0     H 3409  10.872   4.897   6.531 -0.0965 -2.5029  0.2965
  766MOL0     H 3410  10.883   4.857   6.761 -1.2079 -1.4394 -0.1644
  767MOL0     O 3411  10.797   0.527   3.602 -0.6400 -0.5066 -0.3528
  767MOL0     C 3412  10.677   0.557   3.609 -0.3403  0.6288 -0.4560
  767MOL0     O 3413  10.619   0.602   3.718  0.1350 -0.2480 -0.2317
  767MOL0     C 3414  10.673   0.601   3.846  0.8605 -0.7684  0.6855
  767MOL0     C 3415  10.775   0.681   3.877 -0.8003 -0.0177 -0.9812
  767MOL0     C 3416  10.832   0.661   4.002  0.6025 -0.9361 -1.0588
  767MOL0     C 3417  10.798   0.563   4.097  0.3819 -0.8424  0.4954
  767MOL0     O 3418  10.853   0.554   4.226  0.3088  0.3811  0.0548
  767MOL0     C 3419  10.951   0.448   4.229  0.5189 -0.0241  1.0226
  767MOL0     C 3420  11.092   0.476   4.151 -0.3846  0.9159 -0.4141
  767MOL0     C 3421  11.178   0.364   4.156  0.9709 -0.4267  0.1092
  767MOL0     C 3422  11.316   0.396   4.114  0.3484  0.6528 -0.3877
  767MOL0     C 3423  11.407   0.271   4.098 -0.1170 -0.2812 -0.3582
  767MOL0     C 3424  11.546   0.303   4.058  0.2713  1.0489 -0.1764
  767MOL0     C 3425  11.650   0.189   4.054 -0.2283 -0.9486  0.3816
  767MOL0     C 3426  11.681   0.130   4.187  0.6536  0.3551 -0.4132
  767MOL0     N 3427  11.759   0.217   4.268  0.8936  0.2171 -0.3904
  767MOL0     C 3428  11.699   0.272   4.384 -0.6817  0.3621  0.5176
  767MOL0     C 3429  11.799   0.323   4.451  0.1995 -0.4947  0.5360
  767MOL0     C 3430  11.781   0.389   4.581 -0.4726  0.1899  0.3285
  767MOL0     C 3431  11.819   0.541   4.578  0.4015  0.1169  1.4255
  767MOL0     C 3432  11.778   0.615   4.705  0.5337 -0.1860  0.2627
  767MOL0     C 3433  11.868   0.564   4.826 -0.4980  0.0573  0.9931
  767MOL0     O 3434  11.891   0.676   4.912  0.6904  0.5506 -0.8875
  767MOL0     C 3435  12.021   0.678   4.973 -0.3276  0.2999 -0.2003
  767MOL0     C 3436  12.041   0.613   5.096 -0.4081  0.7925 -0.2713
  767MOL0     C 3437  12.165   0.608   5.164 -0.1760 -0.3892  0.3220
  767MOL0     C 3438  12.171   0.536   5.296  0.0664 -0.7561 -0.6456
  767MOL0     C 3439  12.281   0.664   5.102  0.7007  0.0776  1.1427
  767MOL0     C 3440  12.422   0.656   5.153  0.2052  0.6365  0.7481
  767MOL0     O 3441  12.512   0.728   5.091 -0.4626  0.3689  0.5705
  767MOL0     C 3442  12.646   0.705   5.128  0.5657 -0.5518 -0.7898
  767MOL0     C 3443  12.736   0.687   5.028 -0.0150 -0.2030  0.1133
  767MOL0     C 3444  12.874   0.683   5.050  0.3204  0.7106 -0.4499
  767MOL0     C 3445  12.927   0.684   5.178 -0.7845  0.1925  0.3236
  767MOL0     O 3446  13.055   0.650   5.197  0.6705 -0.0511 -0.0044
  767MOL0     C 3447  13.099   0.632   5.330  0.1140 -1.2049 -0.6679
  767MOL0     C 3448  13.249   0.611   5.323  0.2118  1.2704 -0.3273
  767MOL0     C 3449  13.310   0.540   5.448  0.1850  0.1456 -0.2809
  767MOL0     C 3450  13.271   0.611   5.577 -0.3879  0.0786  0.8286
  767MOL0     C 3451  13.381   0.596   5.679  0.1238  0.0279  0.3716
  767MOL0     C 3452  13.343   0.669   5.813  0.3823 -0.3531  0.2455
  767MOL0     C 3453  13.459   0.655   5.915  0.5080 -0.1084  0.0252
  767MOL0     C 3454  13.461   0.513   5.971 -0.1876 -0.4268  0.1693
  767MOL0    Cl 3455  13.597   0.490   6.073  0.3434 -0.1446  0.4926
  767MOL0     C 3456  12.836   0.702   5.279  0.6252 -0.4498 -0.0061
  767MOL0     C 3457  12.700   0.719   5.254  0.7054  0.4865 -0.1951
  767MOL0     O 3458  12.444   0.582   5.254  0.3892 -0.9928  0.2948
  767MOL0     C 3459  12.260   0.744   4.986  0.0123 -0.1455 -0.2479
  767MOL0     C 3460  12.142   0.746   4.921 -0.9447  0.1421  0.5675
  767MOL0     N 3461  11.919   0.294   4.378  0.3775 -0.1388  0.7589
  767MOL0     N 3462  11.894   0.237   4.271  0.7216 -0.1273 -0.4189
  767MOL0     C 3463  10.684   0.484   4.058 -0.7569  0.3882  1.1389
  767MOL0     C 3464  10.628   0.504   3.930 -0.2161  0.2194  0.4483
  767MOL0     C 3465  10.599   0.548   3.485  1.1481  1.0825 -0.7197
  767MOL0     C 3466  10.647   0.494   3.368  1.0880  0.5761  0.5886
  767MOL0     C 3467  10.566   0.476   3.251 -0.6675 -0.2101 -0.2239
  767MOL0     C 3468  10.430   0.515   3.250 -0.7727 -0.9907  0.5190
  767MOL0     O 3469  10.347   0.494   3.137 -0.3172 -0.3999  0.3687
  767MOL0     C 3470  10.259   0.603   3.093  0.0430  0.1664  0.5351
  767MOL0     C 3471  10.343   0.701   3.005 -0.0527 -0.5773 -0.0310
  767MOL0     C 3472  10.421   0.628   2.892 -0.1204  0.0940 -0.0752
  767MOL0     C 3473  10.339   0.616   2.760  0.3282 -0.6718 -1.0540
  767MOL0     C 3474  10.425   0.547   2.662  0.8600  0.4821 -0.6163
  767MOL0     C 3475  10.489   0.478   2.590  0.0560  0.3440  0.5172
  767MOL0     C 3476  10.387   0.571   3.368  0.1819  0.7682 -1.1921
  767MOL0     C 3477  10.466   0.586   3.486 -0.4799  0.0753  0.1341
  767MOL0     H 3478  10.811   0.752   3.804  0.7772  1.9362  1.4894
  767MOL0     H 3479  10.911   0.730   4.029 -0.2429 -0.9227  1.6124
  767MOL0     H 3480  10.973   0.437   4.336 -2.0008  0.7773  1.7067
  767MOL0     H 3481  10.908   0.351   4.204 -1.6133  1.2719 -0.6780
  767MOL0     H 3482  11.083   0.497   4.044 -2.5578 -0.2628 -0.5226
  767MOL0     H 3483  11.131   0.566   4.198 -0.2911  0.0713  1.1981
  767MOL0     H 3484  11.183   0.328   4.258  0.4093  1.7567  0.9746
  767MOL0     H 3485  11.121   0.296   4.092 -1.5334  2.6171 -1.2156
  767MOL0     H 3486  11.316   0.445   4.016  1.4898  2.5473  0.4953
  767MOL0     H 3487  11.364   0.463   4.187  2.7641 -1.8002  0.4491
  767MOL0     H 3488  11.392   0.212   4.189 -2.8705 -0.1503 -0.6368
  767MOL0     H 3489  11.372   0.215   4.011  1.4792  0.7520 -1.7217
  767MOL0     H 3490  11.550   0.364   3.967  1.2899  1.5321  0.1708
  767MOL0     H 3491  11.587   0.380   4.125 -0.6995  1.1744  0.2840
  767MOL0     H 3492  11.617   0.117   3.978 -3.8649 -0.3320  1.1781
  767MOL0     H 3493  11.741   0.231   4.012  0.7917 -1.0841  2.3467
  767MOL0     H 3494  11.723   0.029   4.182 -0.1317  0.0584 -1.2381
  767MOL0     H 3495  11.585   0.108   4.234 -0.8569  3.3893 -1.8594
  767MOL0     H 3496  11.597   0.264   4.419 -0.0353 -0.7265  2.3422
  767MOL0     H 3497  11.682   0.362   4.619 -0.5427 -0.3136 -0.1774
  767MOL0     H 3498  11.839   0.359   4.668 -2.2350  2.7498  2.5200
  767MOL0     H 3499  11.775   0.590   4.491  0.6214 -2.2628 -0.1171
  767MOL0     H 3500  11.928   0.548   4.565  0.1022 -0.6208 -2.9823
  767MOL0     H 3501  11.672   0.594   4.724  0.4475 -2.7548 -2.3856
  767MOL0     H 3502  11.805   0.721   4.695 -4.9418  1.8375  2.6760
  767MOL0     H 3503  11.973   0.546   4.799 -0.4218  0.4975  0.9784
  767MOL0     H 3504  11.824   0.475   4.871 -3.4783 -0.7296 -2.9527
  767MOL0     H 3505  11.954   0.569   5.145 -0.3584 -3.2759 -3.2716
  767MOL0     H 3506  12.077   0.508   5.344  0.4486 -0.3281  0.3908
  767MOL0     H 3507  12.226   0.441   5.292  1.1347 -0.1138 -2.0471
  767MOL0     H 3508  12.219   0.605   5.366 -1.4950  1.9569 -2.1172
  767MOL0     H 3509  12.689   0.676   4.931 -0.3408  0.6768  0.1566
  767MOL0     H 3510  12.948   0.649   4.978  0.9224 -1.1121  0.9174
  767MOL0     H 3511  13.078   0.711   5.403 -0.3639 -3.8261  2.2485
  767MOL0     H 3512  13.055   0.546   5.381  1.1395 -1.0046  0.6257
  767MOL0     H 3513  13.289   0.553   5.239 -0.1467  0.8233 -0.1961
  767MOL0     H 3514  13.298   0.707   5.307 -2.0075  1.9740 -4.2109
  767MOL0     H 3515  13.418   0.536   5.433  0.1268  0.3242 -0.7633
  767MOL0     H 3516  13.275   0.437   5.458 -1.3638  0.3534 -2.6984
  767MOL0     H 3517  13.254   0.718   5.562  0.4268  0.4364  2.2517
  767MOL0     H 3518  13.190   0.560   5.629  2.7864 -4.2172  2.1195
  767MOL0     H 3519  13.478   0.625   5.639 -0.8398 -0.6783 -2.7477
  767MOL0     H 3520  13.385   0.488   5.696 -1.6586 -0.5531 -2.2344
  767MOL0     H 3521  13.319   0.772   5.783 -2.9905 -2.2889 -5.1537
  767MOL0     H 3522  13.254   0.625   5.859 -0.5452 -0.9219 -1.9364
  767MOL0     H 3523  13.450   0.724   6.000  3.5577  1.8050 -1.0417
  767MOL0     H 3524  13.554   0.683   5.867 -1.8891  0.5378 -4.9124
  767MOL0     H 3525  13.470   0.444   5.886 -0.4626  2.0926 -2.0477
  767MOL0     H 3526  13.366   0.486   6.018 -0.6415  0.0166 -0.4697
  767MOL0     H 3527  12.876   0.692   5.379  0.2245  0.1852  0.2231
  767MOL0     H 3528  12.639   0.742   5.340  1.0321 -0.7200  0.3849
  767MOL0     H 3529  12.342   0.799   4.939 -2.4731  4.2416 -0.0487
  767MOL0     H 3530  12.151   0.797   4.825  1.7200 -2.3732 -0.6477
  767MOL0     H 3531  10.646   0.399   4.113 -0.2809 -0.2691  0.4742
  767MOL0     H 3532  10.552   0.429   3.908 -0.0422  0.5068 -1.2769
  767MOL0     H 3533  10.747   0.451   3.367  1.6008  1.7348  0.7480
  767MOL0     H 3534  10.617   0.449   3.159  1.5674 -2.2305  1.4706
  767MOL0     H 3535  10.177   0.563   3.033 -0.6396 -1.7732  2.6124
  767MOL0     H 3536  10.214   0.659   3.175 -2.7256 -1.7320  0.4411
  767MOL0     H 3537  10.413   0.757   3.068  1.9960 -2.0503 -0.8814
  767MOL0     H 3538  10.273   0.773   2.962 -2.6916 -1.4550  2.4740
  767MOL0     H 3539  10.477   0.537   2.913  1.5422  1.4939  1.9530
  767MOL0     H 3540  10.504   0.696   2.874  3.3512 -3.6793  0.3689
  767MOL0     H 3541  10.311   0.716   2.725  3.2212  0.8616  0.5867
  767MOL0     H 3542  10.257   0.546   2.778 -1.1737  1.3638  0.5076
  767MOL0     H 3543  10.549   0.422   2.521  2.4480  2.0759  1.0424
  767MOL0     H 3544  10.281   0.595   3.370 -0.0312  0.2616  3.1920
  767MOL0     H 3545  10.427   0.656   3.559  0.5704  1.6525 -0.7535
  768MOL0     O 3546   2.648   6.459   3.652 -1.4516  0.7789  0.1801
  768MOL0     C 3547   2.550   6.496   3.715 -0.2711  0.0337  0.8117
  768MOL0     O 3548   2.500   6.620   3.709 -0.1389 -0.7745  0.6946
  768MOL0     C 3549   2.516   6.691   3.589 -0.3512 -1.0430  0.2368
  768MOL0     C 3550   2.519   6.829   3.602 -0.7068 -0.1260 -1.3709
  768MOL0     C 3551   2.546   6.915   3.495 -0.2904 -0.3943  0.5909
  768MOL0     C 3552   2.566   6.865   3.364 -0.3015  0.9068  1.1939
  768MOL0     O 3553   2.571   6.948   3.252 -0.3007 -0.7129 -0.0785
  768MOL0     C 3554   2.566   7.091   3.261  0.4291 -0.4700 -0.4063
  768MOL0     C 3555   2.555   7.140   3.118 -0.0892 -0.0760  0.2033
  768MOL0     C 3556   2.435   7.083   3.028 -0.2316 -0.1984 -0.0005
  768MOL0     C 3557   2.299   7.061   3.095  0.0563 -0.8299 -0.4077
  768MOL0     C 3558   2.195   7.054   2.991  0.3409  0.7442 -0.7148
  768MOL0     C 3559   2.065   7.019   3.047 -0.1111 -0.7218 -0.4660
  768MOL0     C 3560   1.947   7.041   2.948 -0.6023  0.1388  0.6145
  768MOL0     C 3561   1.907   6.924   2.855  0.1379  0.2055  0.5555
  768MOL0     N 3562   1.895   6.791   2.929 -0.6188 -0.2092  0.5218
  768MOL0     C 3563   1.791   6.761   3.014  0.0360 -0.7020  0.3774
  768MOL0     C 3564   1.820   6.631   3.054 -0.4766  0.1258 -0.8418
  768MOL0     C 3565   1.732   6.555   3.150 -0.6940 -1.0009 -0.3090
  768MOL0     C 3566   1.804   6.538   3.283 -0.5270  0.0639  0.5002
  768MOL0     C 3567   1.730   6.438   3.378  0.2952  0.4535 -0.1841
  768MOL0     C 3568   1.722   6.286   3.348 -0.7980 -0.3444 -0.2771
  768MOL0     O 3569   1.663   6.229   3.461  0.3924  0.2215  0.1047
  768MOL0     C 3570   1.630   6.094   3.454 -0.1923 -0.4930 -0.4530
  768MOL0     C 3571   1.664   6.009   3.344 -0.3156 -1.0744 -0.7731
  768MOL0     C 3572   1.624   5.873   3.342 -0.1259  0.5766  0.1785
  768MOL0     C 3573   1.676   5.785   3.227  0.8973 -0.7430 -0.2916
  768MOL0     C 3574   1.538   5.826   3.440  0.0365  0.6940  0.0384
  768MOL0     C 3575   1.493   5.684   3.443  0.1607  0.1302  0.7193
  768MOL0     O 3576   1.484   5.631   3.574 -0.0511 -0.9146  0.7390
  768MOL0     C 3577   1.434   5.512   3.598 -0.0827  0.7939  0.7874
  768MOL0     C 3578   1.374   5.485   3.714 -0.2201 -0.0034  0.5717
  768MOL0     C 3579   1.330   5.359   3.757 -0.8104 -0.0121  0.2742
  768MOL0     C 3580   1.381   5.248   3.687 -0.5997 -0.4453  0.2868
  768MOL0     O 3581   1.340   5.125   3.739  0.1792 -0.5789 -0.0657
  768MOL0     C 3582   1.352   5.008   3.656 -0.1216 -0.3540 -0.0525
  768MOL0     C 3583   1.372   4.884   3.751  0.5762 -0.4888 -0.7687
  768MOL0     C 3584   1.317   4.763   3.668 -0.9581 -0.8283  0.0447
  768MOL0     C 3585   1.340   4.630   3.742 -0.1252  0.3772 -0.2530
  768MOL0     C 3586   1.230   4.538   3.706  0.9359 -0.7148  0.3410
  768MOL0     C 3587   1.229   4.399   3.768 -0.2675 -0.3628  0.5114
  768MOL0     C 3588   1.103   4.313   3.742 -0.7260 -0.3245 -0.5781
  768MOL0     C 3589   1.075   4.212   3.855 -0.1392 -0.8831 -0.4797
  768MOL0    Cl 3590   0.956   4.103   3.776  0.1574  0.3425 -0.5144
  768MOL0     C 3591   1.447   5.266   3.564 -0.1583 -0.3318 -0.2263
  768MOL0     C 3592   1.473   5.396   3.514  0.4374  1.6181 -0.3270
  768MOL0     O 3593   1.455   5.632   3.335  0.6725  0.0560  0.2821
  768MOL0     C 3594   1.509   5.907   3.553 -0.2341  0.0393 -0.1380
  768MOL0     C 3595   1.557   6.037   3.559  0.3911  0.3877 -0.2580
  768MOL0     N 3596   1.930   6.583   2.991 -0.4698  1.2184  0.5548
  768MOL0     N 3597   1.974   6.684   2.915 -0.0315  0.6937  1.1132
  768MOL0     C 3598   2.551   6.727   3.350  0.4378  0.2172  0.3234
  768MOL0     C 3599   2.552   6.643   3.460  0.4144  1.6114 -0.6349
  768MOL0     C 3600   2.497   6.398   3.814 -0.1046 -0.4865 -0.6948
  768MOL0     C 3601   2.512   6.253   3.796  0.7210 -0.9091 -0.4083
  768MOL0     C 3602   2.449   6.173   3.887 -0.7767  0.9166  0.3362
  768MOL0     C 3603   2.372   6.230   3.995 -0.2567  0.0665  0.5131
  768MOL0     O 3604   2.347   6.150   4.105 -0.5275  0.1843 -0.3079
  768MOL0     C 3605   2.330   6.007   4.101 -0.5830 -0.2110  0.1799
  768MOL0     C 3606   2.461   5.943   4.158 -0.3298  0.2762 -0.3366
  768MOL0     C 3607   2.467   5.918   4.309  0.0412 -0.1349 -0.4135
  768MOL0     C 3608   2.601   5.855   4.365  0.0310  0.5504  1.0099
  768MOL0     C 3609   2.625   5.718   4.322 -0.1864  0.4924  0.3041
  768MOL0     C 3610   2.634   5.597   4.300  0.6703 -0.2779 -0.3369
  768MOL0     C 3611   2.349   6.368   4.003 -0.1825 -0.2012 -0.3959
  768MOL0     C 3612   2.418   6.447   3.917 -0.1593  0.3459 -0.0172
  768MOL0     H 3613   2.497   6.876   3.697 -0.5729  0.1873 -1.4910
  768MOL0     H 3614   2.543   7.023   3.509  2.6855 -0.1231 -0.2575
  768MOL0     H 3615   2.480   7.115   3.323 -0.4446 -0.8506 -1.4550
  768MOL0     H 3616   2.651   7.124   3.321  0.5965  0.5356 -1.1774
  768MOL0     H 3617   2.561   7.249   3.111  0.2534 -0.0843  0.3296
  768MOL0     H 3618   2.643   7.114   3.059  0.3413  2.0146 -0.1687
  768MOL0     H 3619   2.427   7.145   2.938  1.4825  1.1667  0.7387
  768MOL0     H 3620   2.462   6.983   2.994  0.3573  0.2300 -0.8339
  768MOL0     H 3621   2.303   6.959   3.136 -0.0532 -0.5395  0.3353
  768MOL0     H 3622   2.272   7.133   3.173 -2.5241 -0.7798 -1.2555
  768MOL0     H 3623   2.184   7.153   2.947 -1.4010 -0.0713 -2.2857
  768MOL0     H 3624   2.215   6.978   2.914  1.1184 -2.9836  2.8357
  768MOL0     H 3625   2.073   6.916   3.083  0.6952 -1.4048 -2.4450
  768MOL0     H 3626   2.053   7.101   3.119 -0.9427  1.5473 -3.0308
  768MOL0     H 3627   1.858   7.079   3.000 -0.6071  1.2832 -0.1876
  768MOL0     H 3628   1.982   7.119   2.879 -2.8301 -0.2044 -1.0108
  768MOL0     H 3629   1.990   6.909   2.786 -1.2145  1.9129 -1.5541
  768MOL0     H 3630   1.814   6.959   2.809  0.4184  1.8426  1.1469
  768MOL0     H 3631   1.703   6.812   3.051 -0.6648 -0.0998 -1.9915
  768MOL0     H 3632   1.643   6.620   3.152  0.4286  0.9592 -4.1741
  768MOL0     H 3633   1.704   6.458   3.109 -1.5895 -0.4330 -1.0854
  768MOL0     H 3634   1.828   6.639   3.320  0.4232  0.2254 -0.4850
  768MOL0     H 3635   1.897   6.486   3.257 -2.3280 -2.3716 -1.5615
  768MOL0     H 3636   1.625   6.465   3.381 -0.6950 -2.9887  2.2690
  768MOL0     H 3637   1.769   6.455   3.479  1.2172  2.5156 -0.8392
  768MOL0     H 3638   1.823   6.254   3.323 -0.5290  1.7541 -2.1799
  768MOL0     H 3639   1.653   6.261   3.267 -1.5557  1.9094 -0.3926
  768MOL0     H 3640   1.724   6.045   3.261  0.4695  2.1944  1.0257
  768MOL0     H 3641   1.598   5.723   3.183 -3.0187  1.2904  3.1857
  768MOL0     H 3642   1.722   5.851   3.152  1.9022 -3.0765 -1.8514
  768MOL0     H 3643   1.766   5.729   3.256  0.4408 -0.5457  1.6256
  768MOL0     H 3644   1.347   5.563   3.785  1.2685  0.8280  0.2764
  768MOL0     H 3645   1.284   5.347   3.855 -0.5390  1.7027  0.6444
  768MOL0     H 3646   1.264   4.988   3.594  1.1291 -0.7551 -1.7536
  768MOL0     H 3647   1.433   5.021   3.585 -1.7980  3.0766 -1.5605
  768MOL0     H 3648   1.476   4.870   3.784 -0.8089 -0.8779  4.2133
  768MOL0     H 3649   1.310   4.887   3.841  2.4307 -2.7314  0.7033
  768MOL0     H 3650   1.376   4.770   3.576  0.2163 -1.1733  0.7542
  768MOL0     H 3651   1.215   4.775   3.630 -1.4069 -2.4375  0.6613
  768MOL0     H 3652   1.435   4.579   3.727 -1.8395 -2.9917 -0.6600
  768MOL0     H 3653   1.323   4.643   3.849 -2.1067 -0.5622 -0.4064
  768MOL0     H 3654   1.236   4.517   3.598  1.8165  1.7467 -0.1670
  768MOL0     H 3655   1.139   4.590   3.738  0.6606 -1.2338  0.4043
  768MOL0     H 3656   1.324   4.355   3.734  2.2904  3.7802  1.6216
  768MOL0     H 3657   1.251   4.415   3.874 -1.6169 -3.4292  1.3611
  768MOL0     H 3658   1.121   4.252   3.654 -2.3252 -3.2472  0.9459
  768MOL0     H 3659   1.011   4.372   3.734 -0.5268  0.4709  1.9257
  768MOL0     H 3660   1.039   4.266   3.943 -2.7717  0.2984 -2.1430
  768MOL0     H 3661   1.163   4.152   3.880  0.0428 -0.4085  0.0592
  768MOL0     H 3662   1.490   5.185   3.507  2.1094 -0.6236  1.7173
  768MOL0     H 3663   1.511   5.398   3.412 -0.3647  1.0608 -0.6480
  768MOL0     H 3664   1.451   5.866   3.636  0.1385 -0.9277 -0.3378
  768MOL0     H 3665   1.547   6.101   3.646 -2.5827 -0.1769 -0.0709
  768MOL0     H 3666   2.563   6.685   3.251 -0.3787 -0.6096  0.5610
  768MOL0     H 3667   2.553   6.536   3.444  2.9177  1.1562  1.7991
  768MOL0     H 3668   2.572   6.215   3.714 -1.3763 -2.3632 -1.3360
  768MOL0     H 3669   2.479   6.069   3.886 -0.1565  1.0421 -2.6111
  768MOL0     H 3670   2.241   5.961   4.145 -1.7530 -0.5918 -2.4085
  768MOL0     H 3671   2.331   5.974   3.997  1.0632  1.0440 -0.2397
  768MOL0     H 3672   2.548   5.994   4.116  0.4348  0.3947  1.3057
  768MOL0     H 3673   2.474   5.845   4.111 -2.8853  0.2446 -1.1168
  768MOL0     H 3674   2.389   5.847   4.336 -0.2754  0.2844 -0.2088
  768MOL0     H 3675   2.450   6.014   4.359 -2.6314 -1.3697  1.2602
  768MOL0     H 3676   2.600   5.857   4.474 -0.2648  1.3353  0.9975
  768MOL0     H 3677   2.680   5.921   4.328  1.0424  0.1983  2.4649
  768MOL0     H 3678   2.653   5.493   4.283 -0.4028 -0.3704 -1.0285
  768MOL0     H 3679   2.288   6.404   4.086 -0.7782 -1.0400 -0.4584
  768MOL0     H 3680   2.406   6.551   3.946 -0.7961  0.4829 -0.7275
  769MOL0     O 3681   0.491   8.393   3.629 -0.0073 -0.4957  0.2676
  769MOL0     C 3682   0.536   8.500   3.657  0.9702 -0.8178 -0.9732
  769MOL0     O 3683   0.529   8.557   3.783  0.0438 -0.3093 -0.2024
  769MOL0     C 3684   0.455   8.486   3.879 -0.4640  0.4645  0.0399
  769MOL0     C 3685   0.314   8.479   3.871  0.0101  0.2759  0.4706
  769MOL0     C 3686   0.238   8.428   3.980 -0.4040 -0.2923 -0.2595
  769MOL0     C 3687   0.307   8.394   4.102  0.8271 -0.4999 -0.0222
  769MOL0     O 3688   0.250   8.340   4.218 -0.6088  0.1208  0.1656
  769MOL0     C 3689   0.110   8.319   4.231 -0.3578 -0.0621 -1.0933
  769MOL0     C 3690   0.101   8.218   4.346  0.2442  0.8205 -0.0340
  769MOL0     C 3691  -0.026   8.131   4.335 -0.1464 -0.5522  0.1907
  769MOL0     C 3692  -0.027   7.998   4.417 -0.3800 -0.3278  0.5588
  769MOL0     C 3693  -0.147   7.909   4.410 -0.4020  0.4259 -0.0359
  769MOL0     C 3694  -0.126   7.768   4.475  0.2145 -0.6129  0.1326
  769MOL0     C 3695  -0.248   7.686   4.463 -0.5042 -0.6266 -0.8994
  769MOL0     C 3696  -0.214   7.556   4.538  0.6921  0.4470  1.3576
  769MOL0     N 3697  -0.340   7.474   4.559 -0.0559  0.4669 -0.5016
  769MOL0     C 3698  -0.449   7.461   4.486  0.5371  0.1359 -0.5217
  769MOL0     C 3699  -0.533   7.387   4.558  0.4819 -0.0753  0.4034
  769MOL0     C 3700  -0.672   7.344   4.511 -0.9258 -0.3046  1.2744
  769MOL0     C 3701  -0.680   7.313   4.366  0.1890  0.6052  0.1573
  769MOL0     C 3702  -0.714   7.420   4.259  0.0672 -0.4943  0.5990
  769MOL0     C 3703  -0.698   7.356   4.123 -0.8063  0.1864  0.0995
  769MOL0     O 3704  -0.730   7.443   4.011  0.1412 -0.0877  1.0409
  769MOL0     C 3705  -0.777   7.361   3.902  0.6031  0.4802  0.7577
  769MOL0     C 3706  -0.837   7.445   3.806 -0.3694  0.2353 -0.3734
  769MOL0     C 3707  -0.893   7.401   3.690 -0.0402  0.1578 -0.5910
  769MOL0     C 3708  -0.982   7.493   3.616 -0.2222  0.2312  0.3964
  769MOL0     C 3709  -0.883   7.260   3.665 -0.6956 -0.1455  0.8208
  769MOL0     C 3710  -0.948   7.198   3.549 -0.9713  0.5580  0.2398
  769MOL0     O 3711  -0.930   7.065   3.549 -0.1274  0.0980  0.0827
  769MOL0     C 3712  -0.949   6.998   3.429 -0.0871 -1.0464 -0.6567
  769MOL0     C 3713  -1.072   6.988   3.363 -0.2173 -0.1692 -1.0465
  769MOL0     C 3714  -1.087   6.918   3.245 -0.2874  0.0780 -0.5976
  769MOL0     C 3715  -0.985   6.848   3.183  1.1846 -0.3991 -0.8541
  769MOL0     O 3716  -0.991   6.783   3.063 -1.0101 -0.3451  0.0916
  769MOL0     C 3717  -0.879   6.761   2.974  0.7160 -0.5887 -0.3605
  769MOL0     C 3718  -0.902   6.691   2.836  0.1040 -0.1093 -0.6487
  769MOL0     C 3719  -0.958   6.800   2.751  0.4999  0.3689  0.8542
  769MOL0     C 3720  -1.025   6.738   2.627 -0.2137  0.0192 -1.1322
  769MOL0     C 3721  -1.111   6.851   2.545 -0.5481 -1.0698 -1.3011
  769MOL0     C 3722  -1.173   6.804   2.416 -1.1588  0.3566  0.2460
  769MOL0     C 3723  -1.273   6.911   2.352  0.6366  0.3802  0.3554
  769MOL0     C 3724  -1.387   6.862   2.271  0.0067 -0.3289 -0.3587
  769MOL0    Cl 3725  -1.358   6.747   2.138  0.0976 -0.3299 -0.2189
  769MOL0     C 3726  -0.871   6.833   3.263  0.1068 -0.6655  0.4209
  769MOL0     C 3727  -0.850   6.917   3.372 -0.3181 -1.0720 -0.6753
  769MOL0     O 3728  -1.000   7.255   3.455 -0.3878  0.5874 -0.0504
  769MOL0     C 3729  -0.817   7.173   3.755  0.0199  0.3373 -0.3659
  769MOL0     C 3730  -0.763   7.221   3.876  0.3143 -0.6275 -0.0111
  769MOL0     N 3731  -0.474   7.366   4.681 -0.4683 -0.0861 -0.3753
  769MOL0     N 3732  -0.356   7.421   4.681  0.7749  0.8025 -0.3724
  769MOL0     C 3733   0.443   8.408   4.105  0.7089 -0.5094  0.3310
  769MOL0     C 3734   0.517   8.453   3.995  0.2732 -0.3930  0.1134
  769MOL0     C 3735   0.606   8.579   3.554  0.5471  0.0297 -0.2468
  769MOL0     C 3736   0.662   8.706   3.577 -0.2047 -0.1537 -0.4712
  769MOL0     C 3737   0.722   8.765   3.467  0.1400  0.2158  0.2338
  769MOL0     C 3738   0.735   8.709   3.338 -0.7057  0.1386  0.2389
  769MOL0     O 3739   0.809   8.755   3.232  0.1051  0.0167 -0.1620
  769MOL0     C 3740   0.911   8.849   3.246 -0.1614 -0.4602 -0.9349
  769MOL0     C 3741   0.973   8.889   3.122  0.6188 -0.0339  0.4388
  769MOL0     C 3742   1.037   8.773   3.039 -0.6651 -0.2038 -0.0659
  769MOL0     C 3743   1.107   8.832   2.913  0.6022  0.5913  0.3278
  769MOL0     C 3744   1.044   8.925   2.823  0.6792 -0.1613 -0.3217
  769MOL0     C 3745   0.967   8.994   2.750  0.2322 -0.5406  0.1315
  769MOL0     C 3746   0.671   8.593   3.317 -0.7499 -0.5417 -0.5460
  769MOL0     C 3747   0.615   8.522   3.422 -0.4016 -1.0129 -0.7873
  769MOL0     H 3748   0.264   8.509   3.780 -0.4272  0.6490  0.8285
  769MOL0     H 3749   0.131   8.408   3.977  0.0717 -3.0789 -1.3447
  769MOL0     H 3750   0.055   8.411   4.253  0.7060 -0.3165  3.8004
  769MOL0     H 3751   0.058   8.273   4.146 -1.4443  0.0957 -0.5328
  769MOL0     H 3752   0.181   8.145   4.356 -2.7648 -2.8667 -0.8846
  769MOL0     H 3753   0.081   8.283   4.432  1.7005  3.8571 -1.8107
  769MOL0     H 3754  -0.115   8.189   4.363  0.3633 -0.3146  1.3830
  769MOL0     H 3755  -0.035   8.092   4.233  2.1260 -0.7166  0.0026
  769MOL0     H 3756   0.066   7.945   4.396  0.9865  2.1134  0.1259
  769MOL0     H 3757  -0.020   8.021   4.524  1.6673  0.2973  0.3308
  769MOL0     H 3758  -0.227   7.962   4.462  0.9998  0.0824  2.6612
  769MOL0     H 3759  -0.175   7.884   4.308  0.4608 -1.2841  0.1117
  769MOL0     H 3760  -0.049   7.711   4.422  0.4399  0.0914 -0.3104
  769MOL0     H 3761  -0.103   7.780   4.582 -3.3928 -0.5713  1.0432
  769MOL0     H 3762  -0.325   7.744   4.515  0.1670  2.4860 -3.1064
  769MOL0     H 3763  -0.288   7.675   4.362  1.3262 -1.5272 -1.5802
  769MOL0     H 3764  -0.189   7.576   4.642  0.4514 -1.8263  1.9091
  769MOL0     H 3765  -0.131   7.507   4.486  0.6158  2.0572 -0.4405
  769MOL0     H 3766  -0.462   7.509   4.389 -2.4729  1.6194  0.4945
  769MOL0     H 3767  -0.688   7.246   4.558 -2.8371 -0.6589 -0.0188
  769MOL0     H 3768  -0.738   7.426   4.538  1.3311  2.0379  0.1630
  769MOL0     H 3769  -0.763   7.242   4.365  1.4666 -0.9921  1.3969
  769MOL0     H 3770  -0.593   7.254   4.334  0.4789  1.7135 -1.2018
  769MOL0     H 3771  -0.634   7.493   4.274  1.3378 -2.0663  1.9750
  769MOL0     H 3772  -0.811   7.465   4.277  1.1373  1.0582  2.9558
  769MOL0     H 3773  -0.747   7.258   4.124  0.1307 -0.2956 -0.3030
  769MOL0     H 3774  -0.591   7.335   4.117 -1.3143 -2.3147 -3.4316
  769MOL0     H 3775  -0.841   7.551   3.827 -0.2177  0.2325 -0.3243
  769MOL0     H 3776  -1.029   7.562   3.687  0.3725  1.4810 -0.3932
  769MOL0     H 3777  -0.932   7.552   3.539  2.3338 -1.0745  0.9477
  769MOL0     H 3778  -1.069   7.447   3.569  1.4096  0.1240 -2.8060
  769MOL0     H 3779  -1.152   7.044   3.411  1.1661  1.4942 -0.5700
  769MOL0     H 3780  -1.184   6.919   3.197 -1.9821  2.7908  2.4614
  769MOL0     H 3781  -0.816   6.851   2.977  0.1239  0.0329 -3.3761
  769MOL0     H 3782  -0.823   6.685   3.028  0.5220  0.3056  1.1624
  769MOL0     H 3783  -0.802   6.657   2.808  0.5511  1.0192 -0.4564
  769MOL0     H 3784  -0.968   6.604   2.827 -0.6900  0.5624 -1.6109
  769MOL0     H 3785  -0.884   6.870   2.711  2.0508 -0.9456  1.2985
  769MOL0     H 3786  -1.037   6.844   2.812 -1.2234  1.9308 -2.2379
  769MOL0     H 3787  -0.952   6.694   2.560 -0.8869  0.1694 -1.9875
  769MOL0     H 3788  -1.096   6.663   2.665  0.9008 -0.0434  0.9488
  769MOL0     H 3789  -1.071   6.952   2.532  0.8761 -1.5898 -1.1424
  769MOL0     H 3790  -1.191   6.872   2.616  1.4568  2.4701  0.1605
  769MOL0     H 3791  -1.092   6.803   2.343 -0.0288  0.5886  1.4685
  769MOL0     H 3792  -1.204   6.700   2.422  0.0009  0.0190  0.5838
  769MOL0     H 3793  -1.223   6.986   2.290 -2.2108 -0.0327 -2.6679
  769MOL0     H 3794  -1.308   6.968   2.439 -0.6344  0.5050 -0.2227
  769MOL0     H 3795  -1.437   6.953   2.238 -1.2005 -0.6907  0.3867
  769MOL0     H 3796  -1.440   6.819   2.357  1.1568  1.3962  1.3094
  769MOL0     H 3797  -0.799   6.758   3.230 -3.3562 -3.6370 -1.2415
  769MOL0     H 3798  -0.751   6.910   3.416  0.1267  0.1727 -1.4078
  769MOL0     H 3799  -0.805   7.067   3.736 -0.9214 -0.0737  1.1104
  769MOL0     H 3800  -0.708   7.152   3.939  1.6631  2.0301  1.9135
  769MOL0     H 3801   0.494   8.394   4.200  1.7501 -2.7975 -0.4896
  769MOL0     H 3802   0.623   8.476   3.999  0.1905  0.0255 -0.1105
  769MOL0     H 3803   0.648   8.754   3.674  1.1654 -0.9176  0.1403
  769MOL0     H 3804   0.765   8.862   3.490 -1.7872  1.2952 -0.5176
  769MOL0     H 3805   0.873   8.933   3.305  0.6807 -2.9564  3.5845
  769MOL0     H 3806   0.993   8.802   3.301 -1.2609 -1.7114 -0.3085
  769MOL0     H 3807   1.036   8.978   3.131  0.0473  0.5360 -0.9603
  769MOL0     H 3808   0.891   8.934   3.066  0.5478  0.9051  1.2585
  769MOL0     H 3809   0.962   8.700   3.008 -0.1616 -0.0210 -1.8245
  769MOL0     H 3810   1.096   8.714   3.109  1.2146  1.0323 -0.5514
  769MOL0     H 3811   1.126   8.736   2.864 -4.6661 -0.5814 -0.0568
  769MOL0     H 3812   1.202   8.876   2.942  0.7328  0.1727  0.5440
  769MOL0     H 3813   0.906   9.062   2.692  0.2119 -1.6527 -1.2069
  769MOL0     H 3814   0.678   8.548   3.219 -5.1553 -1.3513 -0.6840
  769MOL0     H 3815   0.567   8.425   3.415 -3.3522  0.2903 -0.1368
  770MOL0     O 3816   3.049   2.807   3.217  0.1418  0.3181  0.5137
  770MOL0     C 3817   2.959   2.717   3.202  0.3430 -0.2920 -0.4490
  770MOL0     O 3818   2.883   2.699   3.092  0.9619 -0.9803  0.3685
  770MOL0     C 3819   2.895   2.783   2.991 -0.2579 -0.0584  0.0535
  770MOL0     C 3820   3.006   2.802   2.899 -0.0876  0.0141  0.2123
  770MOL0     C 3821   3.001   2.885   2.789  0.0862  0.4773 -0.0728
  770MOL0     C 3822   2.887   2.955   2.755  0.2293 -0.2944  0.6266
  770MOL0     O 3823   2.872   3.044   2.653 -0.4054  0.1724  0.4331
  770MOL0     C 3824   2.871   2.994   2.518 -0.5940 -0.2115 -0.3033
  770MOL0     C 3825   2.865   3.116   2.422  0.5117 -0.0373 -0.6965
  770MOL0     C 3826   2.741   3.112   2.326  0.3079 -0.0832 -0.6341
  770MOL0     C 3827   2.751   3.000   2.224 -0.1162 -0.8710 -0.0746
  770MOL0     C 3828   2.618   2.935   2.191 -0.2037 -0.0332  0.1615
  770MOL0     C 3829   2.633   2.817   2.097 -0.7738 -0.1214 -0.4542
  770MOL0     C 3830   2.686   2.869   1.958 -0.3348  0.6567  0.0354
  770MOL0     C 3831   2.624   2.803   1.839  0.3565  0.0248  0.3688
  770MOL0     N 3832   2.480   2.812   1.843 -0.4385 -0.1742 -0.2625
  770MOL0     C 3833   2.418   2.931   1.804  0.1488  0.1886  0.4249
  770MOL0     C 3834   2.284   2.894   1.807 -0.1969 -0.1056  1.0713
  770MOL0     C 3835   2.166   2.983   1.791  0.0581 -0.8145  0.3408
  770MOL0     C 3836   2.135   3.052   1.656 -0.0442 -0.0388  0.0010
  770MOL0     C 3837   2.093   2.949   1.553 -0.8491 -0.5025  0.5512
  770MOL0     C 3838   2.218   2.871   1.491  1.3136 -0.6409 -0.3846
  770MOL0     O 3839   2.317   2.959   1.457  0.0562  0.0893  0.2383
  770MOL0     C 3840   2.400   2.910   1.357  0.2396 -1.2868  0.7638
  770MOL0     C 3841   2.467   3.010   1.291  0.2096  1.0163 -1.0086
  770MOL0     C 3842   2.552   2.974   1.181 -0.1812  0.7088  0.2009
  770MOL0     C 3843   2.611   3.086   1.097  0.2212  0.1933 -0.5124
  770MOL0     C 3844   2.569   2.835   1.153  0.0854  0.0054  0.3056
  770MOL0     C 3845   2.656   2.800   1.042  0.3224 -0.4225 -0.1989
  770MOL0     O 3846   2.613   2.696   0.964 -0.7138  1.4045  0.0522
  770MOL0     C 3847   2.707   2.625   0.879  0.7168  0.3859  0.6307
  770MOL0     C 3848   2.826   2.679   0.808  0.0728  0.3546 -0.1176
  770MOL0     C 3849   2.897   2.587   0.736 -0.7903 -0.5301  0.6562
  770MOL0     C 3850   2.865   2.453   0.731  0.5224  0.5974 -0.4147
  770MOL0     O 3851   2.952   2.366   0.674 -0.9027 -0.3368 -0.3247
  770MOL0     C 3852   2.974   2.245   0.734 -0.2101 -0.8300  0.1236
  770MOL0     C 3853   3.089   2.179   0.647  0.4767 -0.2215 -0.4346
  770MOL0     C 3854   3.148   2.068   0.728 -0.0026 -0.4929 -0.0304
  770MOL0     C 3855   3.242   2.115   0.844  0.1497 -0.4685 -0.0401
  770MOL0     C 3856   3.263   1.998   0.945 -0.0337  0.4766  0.4680
  770MOL0     C 3857   3.360   2.019   1.056  0.5721 -0.5641 -0.2770
  770MOL0     C 3858   3.376   1.895   1.152 -0.5420  0.3134  0.9630
  770MOL0     C 3859   3.481   1.904   1.264  0.2999  0.3134  0.2340
  770MOL0    Cl 3860   3.458   2.059   1.349  0.3057  0.4496  0.4589
  770MOL0     C 3861   2.750   2.407   0.794  0.1788  0.2514 -0.7094
  770MOL0     C 3862   2.669   2.494   0.864  0.0430  1.5767  0.4166
  770MOL0     O 3863   2.765   2.861   1.034  0.0290  0.1418 -1.3987
  770MOL0     C 3864   2.507   2.738   1.236  0.1313 -0.1480 -0.1203
  770MOL0     C 3865   2.421   2.774   1.335  0.0969  0.1373 -0.2149
  770MOL0     N 3866   2.273   2.763   1.834 -0.3398  0.2154 -0.6753
  770MOL0     N 3867   2.390   2.715   1.867  0.9002 -0.0110  0.3176
  770MOL0     C 3868   2.778   2.955   2.844 -0.1246 -0.2518 -0.3472
  770MOL0     C 3869   2.791   2.877   2.963  0.1831 -0.1971 -0.1327
  770MOL0     C 3870   2.925   2.644   3.318  0.0493 -1.1464  0.6403
  770MOL0     C 3871   3.011   2.656   3.437 -0.1849  0.1130 -0.2679
  770MOL0     C 3872   2.986   2.564   3.548  0.5885 -0.2811 -0.2213
  770MOL0     C 3873   2.873   2.477   3.546 -0.5791 -0.1842  0.3513
  770MOL0     O 3874   2.849   2.396   3.651  0.5046  0.7775  0.0467
  770MOL0     C 3875   2.939   2.289   3.664  0.1353  0.5534  0.4060
  770MOL0     C 3876   2.883   2.171   3.586  0.1472 -0.5005  0.0745
  770MOL0     C 3877   2.755   2.108   3.632 -0.1376  0.8597 -1.0111
  770MOL0     C 3878   2.680   2.024   3.522 -0.7630 -0.5795  0.0641
  770MOL0     C 3879   2.590   1.928   3.588 -0.5768  0.1614 -1.3407
  770MOL0     C 3880   2.505   1.866   3.641 -0.1805  0.0858  0.5322
  770MOL0     C 3881   2.788   2.473   3.434  0.2730 -0.9645 -0.5155
  770MOL0     C 3882   2.814   2.557   3.325  1.1505  0.5329 -0.0343
  770MOL0     H 3883   3.107   2.762   2.911  0.2829  0.4603 -1.2070
  770MOL0     H 3884   3.095   2.913   2.744  0.6634  0.4746  1.1009
  770MOL0     H 3885   2.961   2.938   2.490  1.4895  0.7898  3.6677
  770MOL0     H 3886   2.782   2.932   2.506 -1.9356  1.3135  1.3172
  770MOL0     H 3887   2.850   3.206   2.483 -3.4895  1.3327 -3.2712
  770MOL0     H 3888   2.965   3.127   2.377  1.3214  1.7935  1.3501
  770MOL0     H 3889   2.648   3.099   2.383  0.6211  1.2602  0.2381
  770MOL0     H 3890   2.735   3.204   2.268 -0.2412  0.6367  0.5160
  770MOL0     H 3891   2.809   3.035   2.139 -0.8616  5.3216  1.5155
  770MOL0     H 3892   2.815   2.920   2.264  0.8605 -0.8249 -1.4756
  770MOL0     H 3893   2.580   2.912   2.291 -0.0770  1.7985  0.6750
  770MOL0     H 3894   2.542   3.002   2.148 -1.8408 -0.7108  1.8604
  770MOL0     H 3895   2.709   2.757   2.148  1.7329  1.8605 -1.6186
  770MOL0     H 3896   2.539   2.762   2.093 -2.2892  2.1502  1.1275
  770MOL0     H 3897   2.650   2.972   1.952 -1.2161  0.4927  1.7971
  770MOL0     H 3898   2.795   2.865   1.948 -0.5324 -0.4565 -2.5095
  770MOL0     H 3899   2.657   2.699   1.836  0.6523  0.1142 -2.8836
  770MOL0     H 3900   2.659   2.850   1.747 -3.1836  1.3877 -0.4541
  770MOL0     H 3901   2.460   3.025   1.769 -0.2129  0.1702 -0.0740
  770MOL0     H 3902   2.074   2.930   1.817 -0.1375 -0.0523  1.2802
  770MOL0     H 3903   2.186   3.069   1.856 -0.7438  0.5309 -1.0915
  770MOL0     H 3904   2.220   3.117   1.637  0.3560 -1.2282 -2.8115
  770MOL0     H 3905   2.056   3.124   1.679 -0.1563  0.5650 -2.0729
  770MOL0     H 3906   2.046   2.996   1.467  2.5778  2.5702  0.1024
  770MOL0     H 3907   2.032   2.866   1.590 -0.3034 -2.4405 -2.5278
  770MOL0     H 3908   2.189   2.809   1.405  4.1019 -0.4543 -1.5813
  770MOL0     H 3909   2.252   2.799   1.565  0.7468 -2.0440 -1.4500
  770MOL0     H 3910   2.438   3.112   1.314 -2.1948 -0.0173  1.0509
  770MOL0     H 3911   2.718   3.104   1.108  1.1226 -4.0288 -0.5208
  770MOL0     H 3912   2.603   3.061   0.991 -2.3053  0.3343 -0.4125
  770MOL0     H 3913   2.567   3.185   1.112  3.6268  1.8400 -0.5431
  770MOL0     H 3914   2.862   2.781   0.820 -0.7743  0.5991  0.4560
  770MOL0     H 3915   2.985   2.628   0.686 -0.2155 -1.5887  0.7617
  770MOL0     H 3916   3.008   2.247   0.838  1.8244 -2.0775 -0.4490
  770MOL0     H 3917   2.889   2.178   0.722 -0.6850  0.2585 -3.9050
  770MOL0     H 3918   3.056   2.132   0.554  0.9393  0.2556 -0.8466
  770MOL0     H 3919   3.164   2.253   0.619 -1.5517  1.7302 -0.9324
  770MOL0     H 3920   3.198   1.999   0.660  2.8309  0.1198  1.2786
  770MOL0     H 3921   3.057   2.020   0.764  0.3299  0.1400  1.7672
  770MOL0     H 3922   3.331   2.155   0.795 -1.8344  0.9043 -2.8349
  770MOL0     H 3923   3.203   2.202   0.898 -0.3904  0.5247 -1.9236
  770MOL0     H 3924   3.272   1.914   0.875 -2.5614  1.1501 -0.7991
  770MOL0     H 3925   3.167   1.975   0.991  0.1243 -0.8454  0.1769
  770MOL0     H 3926   3.457   2.046   1.013  0.5100  0.1974  0.0369
  770MOL0     H 3927   3.319   2.105   1.110  1.4102 -1.6091  2.1824
  770MOL0     H 3928   3.396   1.808   1.088 -1.8450 -0.9654  2.2391
  770MOL0     H 3929   3.276   1.881   1.193 -1.2867 -2.6497 -1.4404
  770MOL0     H 3930   3.583   1.912   1.225  0.4334  4.3225  0.9351
  770MOL0     H 3931   3.475   1.821   1.335 -1.5095  0.8184  0.7413
  770MOL0     H 3932   2.713   2.305   0.795 -0.1221  0.3583  0.3093
  770MOL0     H 3933   2.582   2.455   0.915  0.3313  2.5606  1.7284
  770MOL0     H 3934   2.520   2.630   1.233 -1.0122 -0.3771  1.7868
  770MOL0     H 3935   2.375   2.691   1.388 -1.2248 -0.4261 -2.1582
  770MOL0     H 3936   2.688   3.011   2.819 -1.3103 -1.8495  0.1590
  770MOL0     H 3937   2.713   2.878   3.038  1.4571  0.4313  1.2439
  770MOL0     H 3938   3.105   2.711   3.432  0.8297 -1.4827  0.3183
  770MOL0     H 3939   3.057   2.550   3.629 -0.9085  1.9149  1.5987
  770MOL0     H 3940   3.042   2.315   3.638 -0.3836  1.4739 -0.8518
  770MOL0     H 3941   2.945   2.247   3.765 -0.0436 -0.3702  0.0455
  770MOL0     H 3942   2.960   2.093   3.590 -0.2393 -0.8454  2.0295
  770MOL0     H 3943   2.857   2.197   3.483  1.2953  1.5064  0.2574
  770MOL0     H 3944   2.681   2.188   3.642 -1.1911 -0.1108 -0.8703
  770MOL0     H 3945   2.762   2.066   3.732  0.0548 -0.4638 -1.5644
  770MOL0     H 3946   2.745   1.979   3.446 -1.4630 -2.4081  0.4880
  770MOL0     H 3947   2.621   2.100   3.470 -2.6517 -1.1246  1.3030
  770MOL0     H 3948   2.429   1.818   3.699  0.3409 -1.8740 -0.3218
  770MOL0     H 3949   2.704   2.405   3.446 -2.9444  2.5173 -1.4780
  770MOL0     H 3950   2.743   2.555   3.243 -0.3048  0.7857  1.1696
  771MOL0     O 3951   1.087   3.261   3.115  0.7693  0.6520  0.6361
  771MOL0     C 3952   1.020   3.301   3.018 -0.4976  0.0160 -0.0160
  771MOL0     O 3953   0.980   3.425   2.986  0.2494 -0.7765  0.1375
  771MOL0     C 3954   1.008   3.528   3.069 -0.5901 -0.0112 -0.1873
  771MOL0     C 3955   0.906   3.602   3.140 -0.6865 -0.1541 -0.7685
  771MOL0     C 3956   0.942   3.716   3.219  0.5805 -0.5624  0.3185
  771MOL0     C 3957   1.075   3.760   3.233  0.5016 -0.5785  0.1849
  771MOL0     O 3958   1.113   3.881   3.289 -0.2538 -0.4050  0.0768
  771MOL0     C 3959   1.011   3.961   3.354  0.4507  0.4435 -0.8761
  771MOL0     C 3960   1.078   4.082   3.430 -0.0017 -0.1533 -0.8332
  771MOL0     C 3961   1.180   4.176   3.363 -0.7045 -1.3175 -0.2523
  771MOL0     C 3962   1.142   4.315   3.326  0.5390  0.7418  0.8681
  771MOL0     C 3963   1.258   4.392   3.270 -1.0872 -0.3809 -0.6178
  771MOL0     C 3964   1.271   4.362   3.116 -0.2547 -1.0155 -0.4116
  771MOL0     C 3965   1.290   4.492   3.038 -0.4605 -0.2074  0.0222
  771MOL0     C 3966   1.441   4.550   3.052  0.2996 -0.4405  0.1729
  771MOL0     N 3967   1.445   4.696   3.093  0.6522 -0.6294  0.5318
  771MOL0     C 3968   1.405   4.750   3.208 -0.9019 -0.4425 -0.7810
  771MOL0     C 3969   1.387   4.884   3.179  0.5701  0.8085  0.2974
  771MOL0     C 3970   1.337   4.991   3.266  0.2709 -0.3979 -0.2044
  771MOL0     C 3971   1.197   5.048   3.232 -0.0489 -0.4675  0.2793
  771MOL0     C 3972   1.075   4.954   3.269 -1.4160  0.6570  0.4626
  771MOL0     C 3973   0.958   5.010   3.195  0.3296  0.1447 -1.0331
  771MOL0     O 3974   0.841   4.928   3.208  0.0030  0.2868  0.0141
  771MOL0     C 3975   0.828   4.801   3.164 -0.2270 -0.2801  0.4556
  771MOL0     C 3976   0.899   4.744   3.062 -0.6794 -0.3356  0.5445
  771MOL0     C 3977   0.879   4.612   3.014 -0.1457 -0.0162 -0.3092
  771MOL0     C 3978   0.949   4.563   2.896  0.2759  0.6902 -0.7294
  771MOL0     C 3979   0.774   4.531   3.069 -0.2322  0.1319  0.0786
  771MOL0     C 3980   0.733   4.387   3.047 -0.2763 -0.2494  0.9873
  771MOL0     O 3981   0.765   4.333   2.931 -0.7851 -0.7420  0.0529
  771MOL0     C 3982   0.806   4.204   2.915  0.1548  0.3584 -0.3050
  771MOL0     C 3983   0.756   4.139   2.803  0.1774  1.1113  0.4712
  771MOL0     C 3984   0.805   4.014   2.759 -0.9243  0.0644  0.5256
  771MOL0     C 3985   0.896   3.945   2.845 -0.0883  1.3497  0.1667
  771MOL0     O 3986   0.926   3.818   2.810  0.7784  0.0546 -0.6098
  771MOL0     C 3987   1.055   3.780   2.815 -0.0886 -0.5803 -0.5828
  771MOL0     C 3988   1.073   3.650   2.738  0.5586 -0.0624 -0.6691
  771MOL0     C 3989   1.053   3.679   2.583 -0.8471  0.3071  0.0374
  771MOL0     C 3990   1.099   3.557   2.498  0.0224  0.3549  0.2816
  771MOL0     C 3991   1.112   3.606   2.349  0.3984  1.0858  0.0540
  771MOL0     C 3992   0.976   3.616   2.286 -0.0416 -0.3709  0.6433
  771MOL0     C 3993   0.951   3.753   2.209  0.4589 -0.0987  0.4799
  771MOL0     C 3994   0.817   3.757   2.137  0.5452  0.5280  0.6689
  771MOL0    Cl 3995   0.802   3.910   2.030 -0.2372 -0.2299  0.2993
  771MOL0     C 3996   0.942   4.009   2.968  0.3924 -0.1250  0.3237
  771MOL0     C 3997   0.888   4.136   3.001 -0.5323 -0.3490  0.1739
  771MOL0     O 3998   0.677   4.325   3.137  0.4061 -0.0029 -0.1445
  771MOL0     C 3999   0.698   4.598   3.174 -0.3534 -0.0114  0.5543
  771MOL0     C 4000   0.725   4.723   3.218  1.2545  0.2710 -0.1843
  771MOL0     N 4001   1.425   4.903   3.051  0.9474 -0.3263  0.2136
  771MOL0     N 4002   1.450   4.786   2.996 -0.3239 -0.8338  0.1028
  771MOL0     C 4003   1.180   3.693   3.162  0.6251 -0.7392 -0.2941
  771MOL0     C 4004   1.142   3.581   3.084  1.8122  0.9807  0.6873
  771MOL0     C 4005   0.981   3.198   2.911 -0.7287  0.1248  0.8117
  771MOL0     C 4006   1.060   3.086   2.893 -0.2233 -0.5679  0.1429
  771MOL0     C 4007   1.021   2.992   2.789 -0.3696  0.3871 -0.9066
  771MOL0     C 4008   0.909   3.015   2.707 -0.3958  0.2599  0.0821
  771MOL0     O 4009   0.862   2.928   2.608  0.3949 -0.2936  0.5520
  771MOL0     C 4010   0.984   2.880   2.526 -0.1216  0.4675 -1.0790
  771MOL0     C 4011   0.946   2.814   2.394 -0.2307 -0.4389 -1.0236
  771MOL0     C 4012   1.060   2.760   2.322  0.5429 -0.6786  0.7083
  771MOL0     C 4013   1.097   2.614   2.359 -0.0045  0.4722 -0.0689
  771MOL0     C 4014   1.232   2.598   2.308 -0.4586  0.0639  0.4208
  771MOL0     C 4015   1.345   2.582   2.279 -0.5757 -0.2457 -0.1879
  771MOL0     C 4016   0.849   3.145   2.713 -0.3014  0.5226  0.8104
  771MOL0     C 4017   0.889   3.231   2.808 -0.0650  0.5127  0.3755
  771MOL0     H 4018   0.802   3.577   3.124 -1.2468 -1.0501  3.3526
  771MOL0     H 4019   0.863   3.780   3.256 -0.1727  0.2672 -2.4745
  771MOL0     H 4020   0.937   3.987   3.278 -2.6400 -2.0890  1.0328
  771MOL0     H 4021   0.960   3.893   3.423  1.5248 -0.5595 -1.0277
  771MOL0     H 4022   1.000   4.151   3.465  1.0689  0.9402 -0.5234
  771MOL0     H 4023   1.130   4.034   3.513 -0.9101  3.2231  1.8947
  771MOL0     H 4024   1.261   4.174   3.437 -1.9464 -3.6485  1.1488
  771MOL0     H 4025   1.220   4.132   3.271 -0.4785 -0.1107 -0.7577
  771MOL0     H 4026   1.054   4.303   3.261  0.9122  0.8558  0.3351
  771MOL0     H 4027   1.103   4.367   3.414 -4.0070  0.9692 -0.9733
  771MOL0     H 4028   1.244   4.496   3.299 -2.8786 -0.8744  0.4463
  771MOL0     H 4029   1.349   4.375   3.328 -1.2779 -0.2262 -0.2725
  771MOL0     H 4030   1.363   4.303   3.109  2.2551  1.7021  4.3571
  771MOL0     H 4031   1.186   4.297   3.090 -1.5465  0.3675  0.2240
  771MOL0     H 4032   1.269   4.462   2.935  2.1388  0.7832 -0.8974
  771MOL0     H 4033   1.210   4.555   3.075  0.8316 -0.2144  3.1423
  771MOL0     H 4034   1.491   4.547   2.955  1.3695  0.0624  0.6749
  771MOL0     H 4035   1.506   4.491   3.118  2.9204  1.1277 -0.8099
  771MOL0     H 4036   1.375   4.691   3.294 -0.8294  0.6256 -0.0012
  771MOL0     H 4037   1.330   4.975   3.374  2.4561  3.4355  0.6902
  771MOL0     H 4038   1.412   5.071   3.256  1.1884 -1.1289  0.6296
  771MOL0     H 4039   1.186   5.079   3.128 -1.9961  2.4746  1.2059
  771MOL0     H 4040   1.181   5.137   3.295 -0.7169  1.3123 -2.2530
  771MOL0     H 4041   1.055   4.955   3.377  1.0856 -0.0217  1.0179
  771MOL0     H 4042   1.093   4.851   3.237  1.4416  0.3196  2.6932
  771MOL0     H 4043   0.986   5.007   3.089  0.1699 -1.7049 -1.0537
  771MOL0     H 4044   0.936   5.111   3.231  0.9100 -0.2204  0.4230
  771MOL0     H 4045   0.987   4.798   3.028 -1.2390  1.0358  1.2373
  771MOL0     H 4046   1.001   4.469   2.918  0.7903  1.3254  0.9293
  771MOL0     H 4047   0.879   4.560   2.812 -2.4786 -0.5655  1.4482
  771MOL0     H 4048   1.030   4.631   2.867  1.7590 -0.6716  0.0546
  771MOL0     H 4049   0.678   4.179   2.738  0.2342  0.7132  0.1539
  771MOL0     H 4050   0.779   3.966   2.665  0.9604 -0.4454  0.2053
  771MOL0     H 4051   1.122   3.850   2.765  1.1684  0.0422  1.8309
  771MOL0     H 4052   1.068   3.774   2.924 -1.4641  3.6803 -0.0179
  771MOL0     H 4053   1.178   3.623   2.755  0.5175  0.7985  1.1522
  771MOL0     H 4054   1.011   3.568   2.775 -0.9272  1.4752  0.3599
  771MOL0     H 4055   1.118   3.766   2.571 -0.9463  0.6298  1.5441
  771MOL0     H 4056   0.955   3.721   2.555 -0.8195 -0.1645 -0.7871
  771MOL0     H 4057   1.199   3.519   2.523  1.2521  3.8889  1.2211
  771MOL0     H 4058   1.040   3.465   2.498 -0.6948  0.7323  3.0463
  771MOL0     H 4059   1.168   3.527   2.300 -0.8800  0.6997 -0.8223
  771MOL0     H 4060   1.164   3.702   2.355 -0.4885  1.5195  1.3359
  771MOL0     H 4061   0.979   3.529   2.221  2.2242  0.3562 -0.3409
  771MOL0     H 4062   0.892   3.612   2.356  0.3190  0.7987  1.1753
  771MOL0     H 4063   1.037   3.774   2.145 -0.0294  0.1859 -0.0972
  771MOL0     H 4064   0.956   3.834   2.282 -3.7660 -0.5845  1.5796
  771MOL0     H 4065   0.740   3.759   2.215  0.2184  4.1205  0.4370
  771MOL0     H 4066   0.801   3.672   2.071 -0.3082  1.1229  0.0989
  771MOL0     H 4067   1.015   3.956   3.028  0.5266  1.3144  1.4902
  771MOL0     H 4068   0.933   4.192   3.082  0.6728  1.3490 -1.6005
  771MOL0     H 4069   0.618   4.553   3.233 -0.4635 -0.5389  0.0054
  771MOL0     H 4070   0.657   4.776   3.285  2.2799  1.3794  0.0119
  771MOL0     H 4071   1.285   3.721   3.164  0.2665  0.7617  2.0457
  771MOL0     H 4072   1.218   3.514   3.046 -1.0307 -2.6211  0.7833
  771MOL0     H 4073   1.155   3.076   2.944  1.1439  0.9982 -1.9212
  771MOL0     H 4074   1.086   2.905   2.793  0.4097  0.9917  1.3636
  771MOL0     H 4075   1.052   2.964   2.507  1.8731 -0.3914  1.5565
  771MOL0     H 4076   1.036   2.808   2.590 -0.3012  2.7157  1.8395
  771MOL0     H 4077   0.891   2.897   2.349  0.1399  0.1082 -0.4947
  771MOL0     H 4078   0.872   2.736   2.406 -0.6191  0.3216  2.8001
  771MOL0     H 4079   1.148   2.824   2.337  0.5961 -0.6078  0.1077
  771MOL0     H 4080   1.042   2.753   2.215 -0.5122  0.5617  0.7891
  771MOL0     H 4081   1.025   2.536   2.332  0.0577 -0.6041  2.5511
  771MOL0     H 4082   1.105   2.600   2.467 -1.2242 -1.8498 -0.2208
  771MOL0     H 4083   1.448   2.575   2.253 -0.5594 -0.1347 -0.1558
  771MOL0     H 4084   0.758   3.154   2.654  0.7056  1.7068 -0.6538
  771MOL0     H 4085   0.823   3.316   2.819  0.4230  0.6798  2.5818
  772MOL0     O 4086   2.437   7.167  11.348 -0.0314  0.9130  0.2450
  772MOL0     C 4087   2.513   7.073  11.312  0.1374 -0.3263 -0.1470
  772MOL0     O 4088   2.649   7.059  11.338 -0.3646  0.7403  0.5180
  772MOL0     C 4089   2.726   7.152  11.405 -0.0583  0.8445  0.2542
  772MOL0     C 4090   2.686   7.249  11.492  0.0311 -0.5683  0.2385
  772MOL0     C 4091   2.783   7.331  11.560  0.3168  0.0002 -0.1001
  772MOL0     C 4092   2.920   7.317  11.544 -0.5589  1.0141 -0.2483
  772MOL0     O 4093   2.999   7.399  11.621  0.3422  0.3013 -0.7445
  772MOL0     C 4094   3.136   7.395  11.588 -0.5647 -0.1043 -0.3845
  772MOL0     C 4095   3.210   7.488  11.691  0.6692  0.6387  1.1144
  772MOL0     C 4096   3.237   7.411  11.820  0.0730  0.2863 -0.3331
  772MOL0     C 4097   3.293   7.501  11.932 -0.2073  0.1987 -0.2774
  772MOL0     C 4098   3.306   7.397  12.054 -0.3325  0.2914  0.2947
  772MOL0     C 4099   3.379   7.460  12.173  0.8151 -0.2937  0.7861
  772MOL0     C 4100   3.325   7.593  12.231 -0.4096 -0.0533  0.0198
  772MOL0     C 4101   3.368   7.614  12.376 -0.4024 -0.1242 -0.9037
  772MOL0     N 4102   3.331   7.508  12.461 -1.5344 -0.1588 -0.0485
  772MOL0     C 4103   3.412   7.472  12.567  1.0321  0.9843  0.3913
  772MOL0     C 4104   3.327   7.398  12.649 -0.9562  0.7116 -0.6347
  772MOL0     C 4105   3.370   7.330  12.769 -0.2922 -0.3046 -0.5183
  772MOL0     C 4106   3.454   7.206  12.747  0.8990  1.1996 -0.1250
  772MOL0     C 4107   3.382   7.107  12.660  0.3650  0.5970  0.5109
  772MOL0     C 4108   3.251   7.050  12.722  0.5717 -0.0396  1.0277
  772MOL0     O 4109   3.199   6.927  12.656 -0.3060  0.3531  0.1299
  772MOL0     C 4110   3.153   6.937  12.526  0.2320 -1.1051 -0.1927
  772MOL0     C 4111   3.107   7.050  12.461 -0.8206 -0.2713 -0.7697
  772MOL0     C 4112   3.076   7.043  12.323 -0.0827 -0.9417 -0.0641
  772MOL0     C 4113   3.015   7.163  12.247  0.4647  0.8787 -0.2513
  772MOL0     C 4114   3.065   6.914  12.271  1.3014 -0.1065  0.1640
  772MOL0     C 4115   3.036   6.899  12.127 -0.6960 -0.1408 -0.1300
  772MOL0     O 4116   2.972   6.789  12.093 -0.4083  0.4948  0.1302
  772MOL0     C 4117   2.921   6.769  11.963  1.0137 -0.1593  0.6392
  772MOL0     C 4118   2.867   6.879  11.893  0.5538 -0.0341  0.1792
  772MOL0     C 4119   2.805   6.843  11.767  0.1047  0.3153  0.2737
  772MOL0     C 4120   2.811   6.706  11.724 -0.3346 -0.2047 -0.1383
  772MOL0     O 4121   2.756   6.666  11.610  0.7755  0.3204  0.1898
  772MOL0     C 4122   2.617   6.621  11.634 -0.6248  0.7726 -0.3358
  772MOL0     C 4123   2.535   6.648  11.513  0.0252 -0.3316 -0.3040
  772MOL0     C 4124   2.398   6.578  11.521 -0.5545 -0.1428  0.4875
  772MOL0     C 4125   2.325   6.616  11.388 -0.4594 -0.7281 -0.1773
  772MOL0     C 4126   2.180   6.589  11.394  0.2859 -0.4557 -0.0081
  772MOL0     C 4127   2.093   6.640  11.279 -0.2378  0.4264  0.3717
  772MOL0     C 4128   1.948   6.607  11.304  0.3254  0.2660  0.0233
  772MOL0     C 4129   1.857   6.617  11.185  0.2653 -0.9997 -0.6159
  772MOL0    Cl 4130   1.880   6.479  11.071 -0.0421  0.1473  0.3264
  772MOL0     C 4131   2.891   6.614  11.789 -0.2213  0.0158  0.0745
  772MOL0     C 4132   2.924   6.643  11.913  0.5192 -0.2855 -0.2456
  772MOL0     O 4133   3.096   6.972  12.052 -0.4813 -0.2387 -0.0131
  772MOL0     C 4134   3.091   6.793  12.336 -0.1617 -0.2016 -1.3097
  772MOL0     C 4135   3.136   6.812  12.467 -0.3509  0.8606  0.3913
  772MOL0     N 4136   3.214   7.379  12.576 -0.5980  0.1217  0.0285
  772MOL0     N 4137   3.210   7.450  12.470 -0.1170 -0.0518 -0.3220
  772MOL0     C 4138   2.961   7.228  11.441 -0.5292  0.2683 -0.9871
  772MOL0     C 4139   2.862   7.144  11.376  0.1818  0.1581  0.3658
  772MOL0     C 4140   2.453   6.973  11.229  0.9728  0.4835 -0.2448
  772MOL0     C 4141   2.531   6.870  11.177  0.5346 -1.0323  0.0447
  772MOL0     C 4142   2.482   6.774  11.093 -0.8578 -0.5238 -0.4720
  772MOL0     C 4143   2.345   6.777  11.059 -0.8765 -0.6586  0.8982
  772MOL0     O 4144   2.306   6.681  10.964 -0.5098  0.9570  0.1954
  772MOL0     C 4145   2.169   6.690  10.916 -0.0642  0.5092 -0.1353
  772MOL0     C 4146   2.146   6.570  10.811  0.8183 -0.4087 -0.1913
  772MOL0     C 4147   2.230   6.590  10.688  0.5666 -0.3355 -0.0026
  772MOL0     C 4148   2.189   6.484  10.582 -0.0815  0.2485 -0.7665
  772MOL0     C 4149   2.275   6.470  10.461 -0.1862 -0.7547 -0.5432
  772MOL0     C 4150   2.332   6.443  10.364 -0.0744  0.6941  0.9681
  772MOL0     C 4151   2.260   6.871  11.121 -0.2600 -0.1454  0.5271
  772MOL0     C 4152   2.315   6.973  11.208 -0.6391  0.0995  0.1988
  772MOL0     H 4153   2.583   7.249  11.526  0.6502 -2.6266  2.3567
  772MOL0     H 4154   2.738   7.393  11.637 -0.9886 -1.4241  0.3488
  772MOL0     H 4155   3.182   7.296  11.596 -2.1091 -0.7527  1.5868
  772MOL0     H 4156   3.132   7.425  11.483 -2.3285 -3.7492 -1.5091
  772MOL0     H 4157   3.292   7.535  11.636  1.6260 -2.4029 -0.2696
  772MOL0     H 4158   3.142   7.568  11.721 -0.5679 -0.1417  0.4506
  772MOL0     H 4159   3.143   7.369  11.856  0.9746 -1.4730  0.1032
  772MOL0     H 4160   3.305   7.327  11.802  0.7134  0.7308 -0.0538
  772MOL0     H 4161   3.391   7.542  11.907 -1.3051  1.8969 -2.0667
  772MOL0     H 4162   3.220   7.578  11.960  1.3683  1.1886  1.3350
  772MOL0     H 4163   3.205   7.362  12.077 -0.7779  1.4916  0.2180
  772MOL0     H 4164   3.364   7.312  12.018 -0.9254  0.3603 -0.8516
  772MOL0     H 4165   3.395   7.381  12.247 -2.1374 -2.1325 -0.3782
  772MOL0     H 4166   3.468   7.494  12.119 -1.7948  0.5220 -3.4496
  772MOL0     H 4167   3.357   7.685  12.182  1.5341 -2.1487 -3.0384
  772MOL0     H 4168   3.217   7.587  12.213 -0.2284 -1.5153 -0.7385
  772MOL0     H 4169   3.337   7.714  12.408  3.2818  1.3212 -1.3125
  772MOL0     H 4170   3.476   7.632  12.383 -0.2988 -0.6782 -1.0287
  772MOL0     H 4171   3.519   7.480  12.587  0.6670 -0.6972  3.8013
  772MOL0     H 4172   3.436   7.386  12.835 -0.6862 -0.3599 -0.0782
  772MOL0     H 4173   3.280   7.307  12.826  1.6992 -0.1722  2.9478
  772MOL0     H 4174   3.460   7.165  12.849 -1.6959 -1.0176 -0.7462
  772MOL0     H 4175   3.558   7.223  12.718  1.1847 -3.3255 -2.6553
  772MOL0     H 4176   3.455   7.024  12.658 -1.4732 -1.0777 -0.2677
  772MOL0     H 4177   3.363   7.135  12.557 -0.4143 -0.7337  0.2705
  772MOL0     H 4178   3.169   7.122  12.727  0.9276  0.3323  1.6937
  772MOL0     H 4179   3.267   7.039  12.830  0.3476 -0.1374  1.0516
  772MOL0     H 4180   3.100   7.146  12.511 -2.5789  0.0142 -1.4704
  772MOL0     H 4181   3.004   7.244  12.319 -2.9379 -2.6308  3.7325
  772MOL0     H 4182   3.078   7.196  12.164  0.5802 -1.2585 -1.0704
  772MOL0     H 4183   2.919   7.131  12.204 -0.3698  4.0297 -0.9664
  772MOL0     H 4184   2.865   6.980  11.932  2.4304 -0.3248  1.1375
  772MOL0     H 4185   2.763   6.929  11.715  2.3445  0.4697 -1.4245
  772MOL0     H 4186   2.620   6.519  11.673  2.5432  0.4602 -1.1032
  772MOL0     H 4187   2.578   6.680  11.717  0.9830 -2.3130  2.8851
  772MOL0     H 4188   2.522   6.757  11.507 -1.1329 -0.4753 -0.5667
  772MOL0     H 4189   2.594   6.628  11.423  1.0652 -1.2306  0.5594
  772MOL0     H 4190   2.343   6.606  11.612 -0.0575 -0.3322  0.8523
  772MOL0     H 4191   2.413   6.471  11.538 -4.0156 -0.9854 -0.9279
  772MOL0     H 4192   2.339   6.720  11.359  1.5148 -0.7744  0.4118
  772MOL0     H 4193   2.371   6.556  11.309  0.4504 -0.1699 -0.0860
  772MOL0     H 4194   2.145   6.643  11.482 -1.1606  1.2143 -1.5335
  772MOL0     H 4195   2.171   6.480  11.404  1.4554 -0.4855  0.9725
  772MOL0     H 4196   2.112   6.748  11.274  3.3941 -0.0805  0.7105
  772MOL0     H 4197   2.133   6.587  11.192 -0.5122 -0.9582  1.0597
  772MOL0     H 4198   1.905   6.679  11.374  0.9830 -1.5162  2.3703
  772MOL0     H 4199   1.943   6.506  11.344  1.5711  0.0620 -0.2795
  772MOL0     H 4200   1.860   6.716  11.138  1.7930 -1.4791 -1.6173
  772MOL0     H 4201   1.759   6.606  11.233  0.2384 -0.0934 -0.4462
  772MOL0     H 4202   2.896   6.513  11.751  3.0500  0.3092 -0.5873
  772MOL0     H 4203   2.968   6.570  11.981 -1.6397  1.9730  3.9948
  772MOL0     H 4204   3.080   6.700  12.281  3.0305 -0.5277 -1.5774
  772MOL0     H 4205   3.161   6.719  12.517 -2.5149  1.1655  2.1801
  772MOL0     H 4206   3.068   7.216  11.424 -0.5695 -2.9848  0.3357
  772MOL0     H 4207   2.877   7.071  11.298  1.8136  0.3897  0.4318
  772MOL0     H 4208   2.638   6.872  11.200  0.6439 -1.9491 -0.3527
  772MOL0     H 4209   2.554   6.699  11.063 -0.6235 -0.2802 -0.5301
  772MOL0     H 4210   2.094   6.674  10.994  0.3173  0.8313  0.3086
  772MOL0     H 4211   2.150   6.787  10.870  1.3984  0.6337 -0.5470
  772MOL0     H 4212   2.039   6.564  10.788  0.7546 -2.2372  0.3673
  772MOL0     H 4213   2.182   6.478  10.858 -0.7604  0.5293  3.1870
  772MOL0     H 4214   2.338   6.591  10.701  0.9812 -2.4587 -2.4085
  772MOL0     H 4215   2.220   6.692  10.648 -1.5468 -0.0974  0.9612
  772MOL0     H 4216   2.092   6.520  10.547 -0.5309  0.6720  0.8212
  772MOL0     H 4217   2.189   6.384  10.626  3.2167 -1.6156 -4.4000
  772MOL0     H 4218   2.406   6.437  10.286 -0.7013 -0.2547  0.4234
  772MOL0     H 4219   2.153   6.883  11.105 -0.3341 -2.6228 -1.6141
  772MOL0     H 4220   2.253   7.045  11.259 -1.4919 -1.3578  1.2891
  773MOL0     O 4221   7.714   7.805   9.850  0.2869 -0.2239  0.8306
  773MOL0     C 4222   7.672   7.843   9.958  0.3475 -0.2705 -0.6507
  773MOL0     O 4223   7.740   7.852  10.076 -0.0423 -0.1367 -0.0506
  773MOL0     C 4224   7.865   7.798  10.090 -0.1001  0.1144  0.4427
  773MOL0     C 4225   7.954   7.887  10.143 -0.2837  0.0443  0.4896
  773MOL0     C 4226   8.088   7.852  10.123 -0.6933 -0.3554  0.2534
  773MOL0     C 4227   8.136   7.736  10.064  0.3242 -0.6548 -0.8868
  773MOL0     O 4228   8.273   7.707  10.052 -0.0668 -0.7435 -0.2922
  773MOL0     C 4229   8.329   7.619   9.948  0.4703 -0.2384 -0.4347
  773MOL0     C 4230   8.460   7.571  10.015  0.2241  0.8127 -0.5832
  773MOL0     C 4231   8.533   7.464   9.934  0.2417  0.9184  0.4426
  773MOL0     C 4232   8.674   7.499   9.890  0.1491  0.4840  0.0862
  773MOL0     C 4233   8.738   7.382   9.813  0.1784  0.0958 -1.3770
  773MOL0     C 4234   8.826   7.408   9.680 -0.7874  0.4741 -0.2107
  773MOL0     C 4235   8.880   7.268   9.628 -0.3140  0.0661  0.8514
  773MOL0     C 4236   8.987   7.283   9.522 -0.0412 -0.7071 -0.6119
  773MOL0     N 4237   9.056   7.157   9.503 -0.9562 -0.1494 -0.0171
  773MOL0     C 4238   9.017   7.045   9.450  0.8430 -0.1588 -0.3867
  773MOL0     C 4239   9.125   6.956   9.444  0.6761 -0.7626 -0.2017
  773MOL0     C 4240   9.136   6.817   9.383 -0.1761 -0.8332 -0.1954
  773MOL0     C 4241   9.260   6.728   9.403  0.9528 -0.4206 -0.2783
  773MOL0     C 4242   9.261   6.590   9.338  0.1001 -0.7719 -0.2902
  773MOL0     C 4243   9.390   6.521   9.292  0.7084  0.3662  1.3764
  773MOL0     O 4244   9.358   6.378   9.289 -0.6283 -0.3030 -0.3620
  773MOL0     C 4245   9.328   6.323   9.166  0.1977  0.7926 -0.5352
  773MOL0     C 4246   9.434   6.295   9.083 -0.2727 -0.2134 -0.1099
  773MOL0     C 4247   9.412   6.215   8.969  0.4259  0.1521  0.0321
  773MOL0     C 4248   9.532   6.198   8.879  0.8372  0.9087 -0.4601
  773MOL0     C 4249   9.275   6.182   8.933 -0.5458  0.9855 -0.2270
  773MOL0     C 4250   9.233   6.088   8.823 -0.3892  0.5320 -0.3309
  773MOL0     O 4251   9.119   6.112   8.745 -0.3010  0.2838  0.6737
  773MOL0     C 4252   9.085   6.022   8.645  0.0225  0.0579  0.4232
  773MOL0     C 4253   9.170   5.963   8.556  0.1817 -0.6782  0.5576
  773MOL0     C 4254   9.136   5.863   8.461  0.0374 -0.0643 -0.5246
  773MOL0     C 4255   9.008   5.806   8.462  0.4361  0.2361 -0.6104
  773MOL0     O 4256   8.974   5.718   8.361  0.2706  0.2675 -0.6113
  773MOL0     C 4257   8.907   5.597   8.409 -0.7187 -0.3312 -0.7583
  773MOL0     C 4258   8.901   5.495   8.300  0.9238 -0.5524 -0.1369
  773MOL0     C 4259   9.004   5.387   8.321  0.5946 -0.8312 -0.1999
  773MOL0     C 4260   9.010   5.287   8.204  0.1674 -0.3798  0.1870
  773MOL0     C 4261   9.087   5.163   8.249 -0.7253 -0.3003  0.7999
  773MOL0     C 4262   9.234   5.204   8.283 -0.1707  0.3750 -0.5870
  773MOL0     C 4263   9.316   5.075   8.295  0.3475 -0.2197  0.1742
  773MOL0     C 4264   9.472   5.098   8.285  0.0763  0.8342 -0.2703
  773MOL0    Cl 4265   9.551   4.948   8.259 -0.4083 -0.0436  0.2463
  773MOL0     C 4266   8.914   5.863   8.552 -0.0285  0.3687 -0.2624
  773MOL0     C 4267   8.958   5.965   8.637 -0.7920 -0.0337  0.5674
  773MOL0     O 4268   9.315   5.996   8.811  0.0824  0.4343  0.0182
  773MOL0     C 4269   9.180   6.215   9.024  0.1615  0.5484  0.2395
  773MOL0     C 4270   9.192   6.290   9.139  0.2039 -0.5012  0.0110
  773MOL0     N 4271   9.230   7.029   9.506 -0.7835  0.7457 -0.1429
  773MOL0     N 4272   9.187   7.147   9.540  1.2215  0.2872 -0.5836
  773MOL0     C 4273   8.039   7.648  10.011  0.2118 -0.1607 -0.0357
  773MOL0     C 4274   7.904   7.680  10.025 -0.6001  0.6507  1.0254
  773MOL0     C 4275   7.528   7.864   9.981 -0.4049  0.5876 -0.0404
  773MOL0     C 4276   7.435   7.786   9.916  0.9266  0.4636 -0.2967
  773MOL0     C 4277   7.301   7.819   9.929 -0.5958  0.3837  0.9274
  773MOL0     C 4278   7.256   7.916  10.022  0.6159 -0.0542 -0.4837
  773MOL0     O 4279   7.121   7.919  10.034 -0.4858  0.5104  0.3832
  773MOL0     C 4280   7.071   8.028  10.111 -0.2821 -0.1556  0.3087
  773MOL0     C 4281   6.922   8.011  10.107  0.0453 -0.0893 -0.5422
  773MOL0     C 4282   6.853   8.087   9.992  0.7356  0.8121  0.4423
  773MOL0     C 4283   6.910   8.044   9.860  0.0381  0.3846 -0.0741
  773MOL0     C 4284   6.846   8.099   9.747  0.8027  0.6405 -0.2296
  773MOL0     C 4285   6.797   8.168   9.657 -0.1347 -0.2023 -0.3248
  773MOL0     C 4286   7.352   7.984  10.100 -0.3370 -0.7952  0.4287
  773MOL0     C 4287   7.485   7.952  10.082  0.6091 -0.1605  1.0062
  773MOL0     H 4288   7.921   7.969  10.205  0.9988  0.9806 -0.0334
  773MOL0     H 4289   8.164   7.925  10.147 -1.1743  0.7642 -1.4050
  773MOL0     H 4290   8.277   7.526   9.923  2.0162 -1.9990  2.3426
  773MOL0     H 4291   8.355   7.683   9.864 -1.6987 -0.3543 -1.2671
  773MOL0     H 4292   8.525   7.656  10.036 -0.0376  0.1881  3.4321
  773MOL0     H 4293   8.429   7.533  10.112 -1.4820  2.1580 -0.5539
  773MOL0     H 4294   8.534   7.371   9.991  0.3130 -0.7537 -2.0991
  773MOL0     H 4295   8.490   7.444   9.835  2.2820  0.4743 -0.4139
  773MOL0     H 4296   8.670   7.595   9.837 -3.7597  1.3972  1.7132
  773MOL0     H 4297   8.734   7.523   9.979  1.3876  1.9625 -1.0864
  773MOL0     H 4298   8.793   7.330   9.891 -0.0272  2.1628  0.2609
  773MOL0     H 4299   8.668   7.307   9.774  1.8527 -2.0371 -0.4389
  773MOL0     H 4300   8.768   7.468   9.608 -1.3280 -0.0717 -0.2471
  773MOL0     H 4301   8.914   7.468   9.705  0.0556 -0.7383 -0.1811
  773MOL0     H 4302   8.925   7.220   9.715 -0.4803  0.7875  1.3398
  773MOL0     H 4303   8.798   7.201   9.601 -0.8727  0.9550  0.2950
  773MOL0     H 4304   9.058   7.361   9.548 -0.4939 -0.1364 -1.0695
  773MOL0     H 4305   8.936   7.311   9.430 -4.2918  1.3420  2.0293
  773MOL0     H 4306   8.915   7.031   9.414  1.7031 -1.6771 -2.4548
  773MOL0     H 4307   9.058   6.748   9.415 -0.7344  0.7537  2.1761
  773MOL0     H 4308   9.111   6.828   9.277 -2.5174  0.9498  0.4427
  773MOL0     H 4309   9.274   6.714   9.510 -2.4584  0.1641  0.3792
  773MOL0     H 4310   9.355   6.778   9.385  1.0146 -0.0631  0.9913
  773MOL0     H 4311   9.201   6.590   9.246  0.7178  2.8185 -0.8254
  773MOL0     H 4312   9.234   6.517   9.415 -0.1809 -0.0246  0.3249
  773MOL0     H 4313   9.461   6.547   9.371  5.5694 -0.2021 -2.3020
  773MOL0     H 4314   9.414   6.554   9.190  0.3975  1.3786  1.6105
  773MOL0     H 4315   9.533   6.336   9.100 -0.1396 -0.4304 -0.3709
  773MOL0     H 4316   9.502   6.182   8.775 -0.4698  1.7642 -0.2388
  773MOL0     H 4317   9.599   6.285   8.876  2.3622 -0.2444 -1.2403
  773MOL0     H 4318   9.577   6.107   8.921 -1.0212  0.5300  0.8228
  773MOL0     H 4319   9.271   6.003   8.562 -0.5331  1.3146 -0.0863
  773MOL0     H 4320   9.202   5.815   8.390 -0.9793  0.1516 -1.6418
  773MOL0     H 4321   8.954   5.561   8.501 -1.3770 -0.4571 -0.4678
  773MOL0     H 4322   8.806   5.622   8.443 -0.1357  1.3371 -0.1469
  773MOL0     H 4323   8.814   5.431   8.318  1.9815 -1.6804  1.2304
  773MOL0     H 4324   8.893   5.544   8.203 -0.4823 -3.0922 -1.4091
  773MOL0     H 4325   8.978   5.325   8.408  0.0601 -2.0984 -1.2410
  773MOL0     H 4326   9.102   5.433   8.340 -1.0363  2.4960  1.0654
  773MOL0     H 4327   8.911   5.254   8.171 -0.3605  0.9986  0.2986
  773MOL0     H 4328   9.053   5.346   8.123 -2.4322  1.8019  0.2511
  773MOL0     H 4329   9.080   5.086   8.172  4.4907  3.4262 -4.1744
  773MOL0     H 4330   9.041   5.124   8.341 -3.0342 -2.8119 -1.2345
  773MOL0     H 4331   9.280   5.271   8.210 -2.7964  0.0991 -2.6440
  773MOL0     H 4332   9.231   5.263   8.375 -0.3777  0.6482 -0.7676
  773MOL0     H 4333   9.292   5.002   8.217  1.5062 -0.1545 -0.2664
  773MOL0     H 4334   9.291   5.027   8.390 -0.8953  2.5648  1.3754
  773MOL0     H 4335   9.514   5.147   8.373 -1.3828  0.9963  0.3765
  773MOL0     H 4336   9.483   5.164   8.199 -0.6949 -0.2093 -1.2032
  773MOL0     H 4337   8.811   5.831   8.562 -0.1714  1.3482  2.1407
  773MOL0     H 4338   8.889   5.998   8.714 -1.3507  1.1675 -0.4080
  773MOL0     H 4339   9.081   6.176   9.005  0.9520 -0.6709 -1.6022
  773MOL0     H 4340   9.112   6.314   9.208  2.3327  1.2363  2.0768
  773MOL0     H 4341   8.074   7.555   9.966 -4.1194 -1.4495 -1.2234
  773MOL0     H 4342   7.826   7.622   9.976  0.8487 -0.6403  0.1747
  773MOL0     H 4343   7.477   7.709   9.851  0.9110  1.8650 -2.0392
  773MOL0     H 4344   7.221   7.769   9.875 -0.9004  0.3363  1.4181
  773MOL0     H 4345   7.116   8.037  10.210  0.6670  0.0528 -0.1311
  773MOL0     H 4346   7.081   8.121  10.053 -0.7702 -0.9020 -1.0097
  773MOL0     H 4347   6.884   8.051  10.202  1.5897  0.0275  0.0594
  773MOL0     H 4348   6.897   7.905  10.105 -0.4535  0.0313 -0.8222
  773MOL0     H 4349   6.848   8.196  10.002 -0.7403  0.8504 -0.5328
  773MOL0     H 4350   6.752   8.050  10.012  0.6304  0.1848 -1.1246
  773MOL0     H 4351   6.885   7.937   9.862  1.2342  0.0765 -0.6214
  773MOL0     H 4352   7.018   8.058   9.860  0.0310  0.4499  0.2890
  773MOL0     H 4353   6.769   8.215   9.565 -3.7602  0.5769  1.0013
  773MOL0     H 4354   7.344   8.053  10.183  1.5922 -0.5270  0.4374
  773MOL0     H 4355   7.544   7.995  10.163  0.8430  2.4882 -0.4302
  774MOL0     O 4356   9.358   5.058   9.843 -0.0352  0.1127 -0.1853
  774MOL0     C 4357   9.260   5.018   9.891 -0.5658 -0.0713  0.2428
  774MOL0     O 4358   9.143   5.076   9.869  0.8203 -0.3833 -0.1574
  774MOL0     C 4359   9.118   5.193   9.797  0.3045 -0.0031 -0.9964
  774MOL0     C 4360   9.208   5.265   9.713  0.1889  0.0817  0.7544
  774MOL0     C 4361   9.167   5.380   9.647 -0.4030  0.7493  0.3780
  774MOL0     C 4362   9.038   5.417   9.663 -0.3437 -1.2775 -0.0663
  774MOL0     O 4363   9.015   5.527   9.587  0.0085 -0.2465 -1.0173
  774MOL0     C 4364   8.868   5.556   9.565  0.1826  1.2153  0.5051
  774MOL0     C 4365   8.776   5.624   9.668 -0.0877  0.6218 -0.0400
  774MOL0     C 4366   8.771   5.773   9.647  0.1928  0.6180 -0.6315
  774MOL0     C 4367   8.908   5.840   9.678  0.7078  0.2885  0.5737
  774MOL0     C 4368   8.909   5.940   9.790 -0.3956  0.1328  0.5056
  774MOL0     C 4369   8.857   5.905   9.930  1.3324  0.2101  0.3023
  774MOL0     C 4370   8.970   5.863  10.028  0.1440 -0.5185  0.0033
  774MOL0     C 4371   8.915   5.801  10.154  0.1946  0.9358 -0.9983
  774MOL0     N 4372   9.027   5.733  10.222 -0.0533 -0.5436 -0.1597
  774MOL0     C 4373   9.109   5.785  10.324 -0.2938 -0.7865  0.2504
  774MOL0     C 4374   9.201   5.682  10.343  0.5358 -0.4301 -0.5108
  774MOL0     C 4375   9.300   5.660  10.446 -0.3284 -0.0410 -0.8568
  774MOL0     C 4376   9.241   5.681  10.590 -0.0487 -0.2441 -0.3961
  774MOL0     C 4377   9.317   5.598  10.692 -0.0541  1.0438  0.0616
  774MOL0     C 4378   9.272   5.628  10.835  0.9072 -0.5206 -0.4962
  774MOL0     O 4379   9.303   5.771  10.862  0.6036 -0.2995 -0.6371
  774MOL0     C 4380   9.223   5.844  10.946  0.6014  0.2244 -0.2975
  774MOL0     C 4381   9.164   5.783  11.058 -0.0014  0.7951 -0.2447
  774MOL0     C 4382   9.080   5.849  11.143  1.0597  0.6733  0.2668
  774MOL0     C 4383   9.026   5.759  11.255  0.5551 -0.5963  0.1598
  774MOL0     C 4384   9.036   5.986  11.116  0.3296 -0.7778  0.5625
  774MOL0     C 4385   8.920   6.054  11.182  0.2778 -0.4672 -0.5307
  774MOL0     O 4386   8.823   5.983  11.246 -0.3058  0.5997  0.5683
  774MOL0     C 4387   8.723   6.056  11.298 -0.2574  0.3250  0.0927
  774MOL0     C 4388   8.726   6.105  11.429  0.7000  0.5289  0.4880
  774MOL0     C 4389   8.618   6.172  11.487  0.0603  0.2849 -0.2752
  774MOL0     C 4390   8.500   6.197  11.406 -0.4625  0.1815  0.9291
  774MOL0     O 4391   8.393   6.265  11.463 -0.7300 -0.0838 -0.3034
  774MOL0     C 4392   8.319   6.351  11.377 -0.7844  0.0467  0.6682
  774MOL0     C 4393   8.228   6.457  11.465  0.2193  0.2714 -0.7281
  774MOL0     C 4394   8.187   6.572  11.381 -0.0220 -0.0369  0.5571
  774MOL0     C 4395   8.103   6.681  11.453  0.1942 -0.7712 -0.6763
  774MOL0     C 4396   8.035   6.775  11.350  0.3786  0.8161 -0.0201
  774MOL0     C 4397   8.126   6.871  11.279 -0.1551 -0.7350  1.5583
  774MOL0     C 4398   8.045   6.979  11.212  0.2159  0.8305  0.1777
  774MOL0     C 4399   8.129   7.071  11.130  0.1803 -0.6093 -0.3113
  774MOL0    Cl 4400   8.276   7.133  11.211 -0.0817 -0.3051  0.0013
  774MOL0     C 4401   8.497   6.155  11.273 -0.0607  0.3980 -0.6733
  774MOL0     C 4402   8.612   6.090  11.225  1.2370  1.1180 -0.6186
  774MOL0     O 4403   8.931   6.177  11.177 -0.0165  0.2279  0.7051
  774MOL0     C 4404   9.110   6.050  11.004  0.5203 -0.3459  0.6989
  774MOL0     C 4405   9.198   5.978  10.924  0.1621 -0.2649  0.4131
  774MOL0     N 4406   9.169   5.587  10.248 -0.9469 -1.0638  0.6388
  774MOL0     N 4407   9.069   5.622  10.175  0.1536 -0.6259 -0.3020
  774MOL0     C 4408   8.943   5.350   9.739 -0.9114 -0.5577 -0.7338
  774MOL0     C 4409   8.983   5.236   9.804  0.1950 -0.2361  0.2818
  774MOL0     C 4410   9.260   4.897   9.982 -0.2454 -0.1413 -0.7096
  774MOL0     C 4411   9.153   4.859  10.061  0.9990 -0.5123 -0.0293
  774MOL0     C 4412   9.163   4.766  10.159  0.4122 -0.5368 -0.3046
  774MOL0     C 4413   9.279   4.705  10.187 -0.6778 -0.9379 -0.2893
  774MOL0     O 4414   9.278   4.630  10.303 -0.3507 -0.4472  0.3790
  774MOL0     C 4415   9.390   4.540  10.335 -0.9788  0.2075  0.9276
  774MOL0     C 4416   9.334   4.420  10.424  0.2754  0.0692  0.3701
  774MOL0     C 4417   9.459   4.356  10.477 -0.7883 -0.0806 -0.0902
  774MOL0     C 4418   9.432   4.222  10.536  0.3461 -0.3904  0.7678
  774MOL0     C 4419   9.550   4.156  10.584 -0.3805 -0.2815  0.6973
  774MOL0     C 4420   9.644   4.101  10.633 -0.0691  0.0879 -0.0263
  774MOL0     C 4421   9.392   4.730  10.102 -0.6901  0.1301 -0.2738
  774MOL0     C 4422   9.380   4.829  10.002  0.6114 -0.3822 -0.0686
  774MOL0     H 4423   9.307   5.229   9.686 -0.3391  0.6166 -2.1050
  774MOL0     H 4424   9.214   5.429   9.563  1.1186 -0.9614  0.1746
  774MOL0     H 4425   8.855   5.601   9.466 -1.3830  0.7310  0.4557
  774MOL0     H 4426   8.820   5.459   9.545  2.0027  0.2721  0.5465
  774MOL0     H 4427   8.674   5.591   9.650 -0.4362  2.7350 -2.5657
  774MOL0     H 4428   8.822   5.610   9.767  1.7650  0.1727 -0.9180
  774MOL0     H 4429   8.745   5.790   9.542 -2.5245  3.2866  0.3228
  774MOL0     H 4430   8.690   5.817   9.706  2.6532  2.7463  1.3839
  774MOL0     H 4431   8.978   5.762   9.711 -0.7031 -2.4846 -2.4775
  774MOL0     H 4432   8.937   5.881   9.582  0.1399  2.1966  1.1818
  774MOL0     H 4433   9.010   5.982   9.800 -1.3627  2.4397  1.2159
  774MOL0     H 4434   8.851   6.028   9.763 -0.6344  0.3785  1.7906
  774MOL0     H 4435   8.807   5.993   9.970  1.1906  0.0773  0.4191
  774MOL0     H 4436   8.783   5.826   9.911  0.5887  1.0846 -0.5260
  774MOL0     H 4437   9.027   5.787   9.974 -0.2425 -1.6388  1.1218
  774MOL0     H 4438   9.041   5.943  10.052  2.4172 -2.3107 -0.3587
  774MOL0     H 4439   8.836   5.729  10.130 -1.3512  2.2917 -0.1014
  774MOL0     H 4440   8.883   5.883  10.217  2.6970  1.4659 -0.2821
  774MOL0     H 4441   9.089   5.879  10.374  0.5963 -0.5097  0.1198
  774MOL0     H 4442   9.336   5.558  10.429  4.6626  1.1793  0.7569
  774MOL0     H 4443   9.379   5.733  10.425 -2.8726  2.9932 -0.6392
  774MOL0     H 4444   9.140   5.641  10.602  0.5296 -0.9404  3.1038
  774MOL0     H 4445   9.248   5.788  10.611  0.4721 -0.1536 -0.9906
  774MOL0     H 4446   9.425   5.620  10.690  0.0200  0.8111  0.8881
  774MOL0     H 4447   9.300   5.492  10.672  1.2749  0.5307  1.4001
  774MOL0     H 4448   9.337   5.568  10.900  0.8194 -1.2071 -1.0361
  774MOL0     H 4449   9.169   5.604  10.864  0.2503  1.1190 -1.3500
  774MOL0     H 4450   9.182   5.677  11.073 -0.2575  0.4287 -2.2415
  774MOL0     H 4451   9.096   5.680  11.284  0.3604  0.6374  4.6066
  774MOL0     H 4452   9.016   5.813  11.349 -1.7480  0.4103 -0.5768
  774MOL0     H 4453   8.932   5.712  11.222  1.8984 -1.5660 -2.6609
  774MOL0     H 4454   8.816   6.082  11.485  0.5833  1.0075  0.8792
  774MOL0     H 4455   8.635   6.212  11.586  1.2760  3.2863 -1.5738
  774MOL0     H 4456   8.382   6.406  11.307 -0.7269 -2.9927 -1.9047
  774MOL0     H 4457   8.251   6.287  11.320 -0.5246 -0.5663  1.0400
  774MOL0     H 4458   8.142   6.414  11.517 -1.6451  1.9345 -2.2751
  774MOL0     H 4459   8.302   6.485  11.541 -1.4367 -0.4530  1.2400
  774MOL0     H 4460   8.137   6.534  11.292  0.0932 -1.2920  1.0127
  774MOL0     H 4461   8.283   6.617  11.352 -0.2513  0.5746  0.7128
  774MOL0     H 4462   8.038   6.627  11.523  0.1245  0.2786  0.0953
  774MOL0     H 4463   8.166   6.744  11.517 -1.9513 -1.3322  2.2000
  774MOL0     H 4464   7.957   6.829  11.404 -1.6832 -0.4081 -1.5940
  774MOL0     H 4465   7.984   6.724  11.267  0.8243 -0.0468  0.2222
  774MOL0     H 4466   8.189   6.927  11.349  1.1172  2.0962 -1.5632
  774MOL0     H 4467   8.191   6.826  11.203  1.8366  3.4795  0.4471
  774MOL0     H 4468   7.992   7.045  11.281 -0.9191  0.2333 -0.1094
  774MOL0     H 4469   7.980   6.927  11.141  0.3183  2.3405 -1.0591
  774MOL0     H 4470   8.068   7.155  11.096 -0.1153  0.2702  2.2202
  774MOL0     H 4471   8.172   7.019  11.043  1.2929 -1.4239  0.6979
  774MOL0     H 4472   8.412   6.168  11.208 -0.9115 -0.1612  0.2928
  774MOL0     H 4473   8.609   6.055  11.122  0.4770  0.8822 -0.5241
  774MOL0     H 4474   9.086   6.151  10.973  0.5741 -0.7303 -0.6379
  774MOL0     H 4475   9.241   6.020  10.833 -2.3685 -0.4409 -0.9392
  774MOL0     H 4476   8.840   5.377   9.756 -1.3460 -3.2575  1.7614
  774MOL0     H 4477   8.904   5.196   9.865 -1.9183 -1.9687 -3.2636
  774MOL0     H 4478   9.060   4.914  10.065  1.7118  0.6948  0.6736
  774MOL0     H 4479   9.079   4.734  10.219 -1.4368  2.7726 -0.8480
  774MOL0     H 4480   9.435   4.507  10.241 -0.8503  0.8390  0.7624
  774MOL0     H 4481   9.461   4.608  10.384 -0.1567  0.7555 -0.9422
  774MOL0     H 4482   9.278   4.355  10.356 -1.7395  3.8987 -2.0507
  774MOL0     H 4483   9.288   4.456  10.517  1.7975 -0.8927  1.5342
  774MOL0     H 4484   9.493   4.422  10.558  1.9547  0.3570 -1.4717
  774MOL0     H 4485   9.532   4.359  10.396 -1.0367 -0.1526 -0.3177
  774MOL0     H 4486   9.406   4.145  10.462  1.7158 -0.3477  0.2214
  774MOL0     H 4487   9.356   4.236  10.614  0.0010  3.0188 -0.0367
  774MOL0     H 4488   9.735   4.057  10.670  0.7564  0.1053 -1.9582
  774MOL0     H 4489   9.487   4.679  10.114 -2.1198 -2.7373 -0.1068
  774MOL0     H 4490   9.459   4.866   9.937 -0.2735 -1.5754 -1.9258
  775MOL0     O 4491   0.646   7.459   2.633  0.6933 -0.0334 -0.4294
  775MOL0     C 4492   0.563   7.495   2.549  0.1825 -0.8685 -0.3038
  775MOL0     O 4493   0.454   7.413   2.510  0.1784 -0.2942  0.5524
  775MOL0     C 4494   0.439   7.297   2.569  0.2871  0.8132 -0.1158
  775MOL0     C 4495   0.349   7.275   2.679  0.1469  0.2463 -0.3075
  775MOL0     C 4496   0.348   7.154   2.741  0.2941  1.0258  0.3394
  775MOL0     C 4497   0.429   7.050   2.718  0.4526  0.3068 -0.7766
  775MOL0     O 4498   0.410   6.930   2.787 -0.7407 -0.3910  0.3982
  775MOL0     C 4499   0.441   6.815   2.704  0.8952 -0.6859 -0.6070
  775MOL0     C 4500   0.317   6.727   2.704  0.0662  0.4287  0.1697
  775MOL0     C 4501   0.350   6.589   2.660  0.2564  0.8640  0.1173
  775MOL0     C 4502   0.227   6.494   2.626  0.7493  0.6163 -0.1655
  775MOL0     C 4503   0.272   6.358   2.576 -0.1641  1.0208  0.2647
  775MOL0     C 4504   0.150   6.262   2.555 -0.4830 -0.1724 -0.2559
  775MOL0     C 4505   0.207   6.114   2.502 -0.4791 -0.4415  0.0567
  775MOL0     C 4506   0.116   6.049   2.397 -0.6113  0.3326 -0.2747
  775MOL0     N 4507   0.199   5.947   2.325  0.0345 -0.3092  0.2072
  775MOL0     C 4508   0.300   5.973   2.245  0.6129  0.1101  1.1683
  775MOL0     C 4509   0.354   5.854   2.193 -0.1819  0.3682  0.4694
  775MOL0     C 4510   0.460   5.832   2.084  0.3093 -0.0374 -0.3633
  775MOL0     C 4511   0.493   5.968   2.023  0.6474  0.2627  0.7452
  775MOL0     C 4512   0.591   5.961   1.908  0.3083 -0.0248 -0.3457
  775MOL0     C 4513   0.623   6.092   1.851  0.5180  0.9399  0.7126
  775MOL0     O 4514   0.746   6.089   1.785 -0.4075 -1.1796 -0.7603
  775MOL0     C 4515   0.800   6.188   1.701  0.3656  0.3056  0.7520
  775MOL0     C 4516   0.741   6.305   1.662  0.1518  0.6356  1.0375
  775MOL0     C 4517   0.813   6.403   1.591 -0.0434 -0.4444  0.2208
  775MOL0     C 4518   0.735   6.515   1.525  1.1084 -0.3323  0.6166
  775MOL0     C 4519   0.956   6.401   1.592  0.3627 -0.5517 -0.7052
  775MOL0     C 4520   1.047   6.513   1.552 -0.0685  0.3558 -0.1653
  775MOL0     O 4521   1.178   6.485   1.571 -0.1280 -0.1240  0.5430
  775MOL0     C 4522   1.276   6.579   1.536  0.4938  0.8722  0.9553
  775MOL0     C 4523   1.393   6.529   1.477  0.1324 -0.7738 -0.6752
  775MOL0     C 4524   1.513   6.604   1.468 -0.1616  0.4325 -0.7497
  775MOL0     C 4525   1.518   6.743   1.515 -0.5610 -0.6111  0.1325
  775MOL0     O 4526   1.638   6.810   1.506 -0.4860 -0.5114  0.3227
  775MOL0     C 4527   1.658   6.929   1.582 -0.8189  0.2075  0.7740
  775MOL0     C 4528   1.782   6.991   1.513 -0.5856  0.3656  0.2022
  775MOL0     C 4529   1.771   7.010   1.357 -0.0966 -0.6367 -1.0645
  775MOL0     C 4530   1.900   7.072   1.309  0.4110  0.0872  0.1415
  775MOL0     C 4531   1.902   7.060   1.153  0.1287 -0.0136 -0.3254
  775MOL0     C 4532   2.034   7.094   1.080  0.1341 -0.6392 -0.6010
  775MOL0     C 4533   2.144   6.999   1.120 -1.0115  0.4823 -0.3256
  775MOL0     C 4534   2.277   7.040   1.053 -0.8028  0.9463  1.0395
  775MOL0    Cl 4535   2.329   7.187   1.132 -0.0610  0.3099  0.5504
  775MOL0     C 4536   1.398   6.789   1.574  0.1465  1.0484 -0.3502
  775MOL0     C 4537   1.277   6.711   1.581  1.4998 -0.1645  0.8984
  775MOL0     O 4538   1.002   6.619   1.517 -1.1649  0.1134  0.1879
  775MOL0     C 4539   1.014   6.283   1.637 -0.3735  0.8331  0.4417
  775MOL0     C 4540   0.935   6.181   1.686  0.0555 -0.0595  0.2905
  775MOL0     N 4541   0.265   5.759   2.246 -0.5949 -0.3037 -0.5939
  775MOL0     N 4542   0.185   5.813   2.329 -0.1237  0.4231 -0.4267
  775MOL0     C 4543   0.532   7.079   2.623 -0.1263  0.4980  0.3155
  775MOL0     C 4544   0.534   7.197   2.544 -0.5493  0.0681 -0.1443
  775MOL0     C 4545   0.564   7.636   2.504  1.2595 -0.5934 -0.5110
  775MOL0     C 4546   0.484   7.681   2.400 -0.1997 -0.5702  0.4589
  775MOL0     C 4547   0.487   7.823   2.362  0.1462 -0.0955 -0.0475
  775MOL0     C 4548   0.577   7.915   2.411  0.1475 -1.0640 -0.3896
  775MOL0     O 4549   0.582   8.047   2.366  0.6967  0.0828 -0.7865
  775MOL0     C 4550   0.697   8.136   2.391  0.5862 -1.0284 -0.0332
  775MOL0     C 4551   0.812   8.129   2.285  0.7802  0.1840 -0.2163
  775MOL0     C 4552   0.814   8.256   2.198 -0.2395 -0.4906 -0.5790
  775MOL0     C 4553   0.886   8.232   2.062 -0.4152 -0.0467  0.0018
  775MOL0     C 4554   0.928   8.366   2.016  0.3374 -1.1691 -0.5102
  775MOL0     C 4555   0.953   8.482   1.983 -0.9895 -0.0762 -0.5551
  775MOL0     C 4556   0.671   7.864   2.502  0.2689 -0.8667 -0.2672
  775MOL0     C 4557   0.659   7.731   2.553  0.3791  0.2364  0.0060
  775MOL0     H 4558   0.285   7.358   2.706 -0.2326 -0.1407  0.0005
  775MOL0     H 4559   0.270   7.135   2.815 -0.8568 -1.2553 -1.3524
  775MOL0     H 4560   0.467   6.838   2.600  2.0226  0.2178 -0.1526
  775MOL0     H 4561   0.520   6.753   2.749 -0.0378 -2.6253 -1.5235
  775MOL0     H 4562   0.271   6.724   2.803 -0.9772  3.2351 -0.1320
  775MOL0     H 4563   0.248   6.769   2.630 -0.4820  2.6446  1.8126
  775MOL0     H 4564   0.405   6.590   2.565 -0.0174 -0.5196 -0.0742
  775MOL0     H 4565   0.405   6.537   2.740  0.1640 -2.8328 -2.0027
  775MOL0     H 4566   0.173   6.471   2.718 -1.5730 -2.0005 -2.0033
  775MOL0     H 4567   0.157   6.528   2.549  1.4349  0.2709 -0.9608
  775MOL0     H 4568   0.321   6.370   2.479 -1.1037  2.2524 -0.0869
  775MOL0     H 4569   0.341   6.312   2.647  0.7148  0.3163 -1.0058
  775MOL0     H 4570   0.107   6.240   2.653  1.5628 -1.1527  0.4818
  775MOL0     H 4571   0.076   6.304   2.487 -1.0584 -1.7093 -0.6304
  775MOL0     H 4572   0.305   6.134   2.458 -0.6682 -0.2312 -0.2719
  775MOL0     H 4573   0.227   6.044   2.584  0.6382 -1.7405 -1.2666
  775MOL0     H 4574   0.082   6.125   2.325 -2.0330  3.0806  2.9973
  775MOL0     H 4575   0.027   6.010   2.448 -0.1441 -0.5659 -0.1251
  775MOL0     H 4576   0.350   6.070   2.237  0.7969 -0.0034  0.9161
  775MOL0     H 4577   0.552   5.790   2.125 -0.0789 -1.1316 -0.5541
  775MOL0     H 4578   0.413   5.776   2.002 -0.7523  0.5116 -0.1458
  775MOL0     H 4579   0.533   6.032   2.103  0.8484 -0.8525  1.5677
  775MOL0     H 4580   0.399   6.010   1.989  1.3406  2.7975  1.7004
  775MOL0     H 4581   0.548   5.900   1.828 -0.8620  0.5827 -0.2024
  775MOL0     H 4582   0.681   5.917   1.952 -0.2808 -3.9136 -2.6328
  775MOL0     H 4583   0.605   6.177   1.917 -1.9323  0.4120  0.8133
  775MOL0     H 4584   0.548   6.103   1.773 -1.1332 -1.7649  1.7619
  775MOL0     H 4585   0.633   6.316   1.658  0.2647  1.4484 -1.9243
  775MOL0     H 4586   0.742   6.597   1.597 -0.0289  0.2792  0.0617
  775MOL0     H 4587   0.773   6.536   1.425 -1.9193 -2.3565 -1.1081
  775MOL0     H 4588   0.632   6.483   1.508  1.5773 -1.6940  0.2277
  775MOL0     H 4589   1.393   6.433   1.426 -0.8531 -0.2977 -1.5766
  775MOL0     H 4590   1.606   6.556   1.440 -0.8119 -0.6952 -1.0384
  775MOL0     H 4591   1.572   6.996   1.578 -1.0234 -0.1060 -1.3788
  775MOL0     H 4592   1.677   6.892   1.683 -0.5710 -0.3694  0.5229
  775MOL0     H 4593   1.787   7.094   1.551  1.0198 -0.1656  1.5192
  775MOL0     H 4594   1.868   6.935   1.549 -0.0477  2.3495  2.2473
  775MOL0     H 4595   1.695   7.085   1.333  1.2554  1.4449  0.8167
  775MOL0     H 4596   1.737   6.914   1.316 -0.8520 -2.3591  3.0820
  775MOL0     H 4597   1.910   7.177   1.334  2.6622  0.0109 -0.2163
  775MOL0     H 4598   1.978   7.010   1.353 -1.9061 -1.6719  2.0568
  775MOL0     H 4599   1.833   7.130   1.107  2.3441  1.3572 -1.7216
  775MOL0     H 4600   1.867   6.962   1.118 -2.4621  0.7916 -0.1774
  775MOL0     H 4601   2.015   7.097   0.973 -1.3123  2.2826 -0.3573
  775MOL0     H 4602   2.053   7.198   1.108 -0.4705 -0.4135 -1.0096
  775MOL0     H 4603   2.123   6.892   1.109  0.7079 -0.0644  1.2228
  775MOL0     H 4604   2.158   7.009   1.228  2.6629 -0.5420 -0.5691
  775MOL0     H 4605   2.250   7.056   0.948 -0.6234  0.4772  0.9187
  775MOL0     H 4606   2.353   6.963   1.071  1.7068  3.5271  2.1394
  775MOL0     H 4607   1.403   6.894   1.601  2.3258  0.5578  1.4803
  775MOL0     H 4608   1.190   6.747   1.636 -0.3170 -0.0488 -1.8357
  775MOL0     H 4609   1.118   6.250   1.635 -0.6442 -0.2979 -3.5189
  775MOL0     H 4610   0.987   6.102   1.737  2.6258  2.1628  1.3689
  775MOL0     H 4611   0.612   7.007   2.610 -0.6667 -0.4490  1.9254
  775MOL0     H 4612   0.607   7.208   2.464  0.0688 -1.3394  0.1822
  775MOL0     H 4613   0.411   7.618   2.351 -1.8471 -0.0589  2.1432
  775MOL0     H 4614   0.408   7.857   2.295 -1.0149 -1.4487  0.5628
  775MOL0     H 4615   0.661   8.239   2.393  0.5878 -1.0298  0.0146
  775MOL0     H 4616   0.737   8.118   2.492 -2.0126  0.3145  1.3407
  775MOL0     H 4617   0.814   8.035   2.230  2.0272 -0.9880  1.7207
  775MOL0     H 4618   0.903   8.132   2.345 -2.0402  3.8300  4.6698
  775MOL0     H 4619   0.856   8.334   2.262 -2.4083 -1.5393  2.3489
  775MOL0     H 4620   0.710   8.287   2.178 -1.0283 -0.0949  3.2905
  775MOL0     H 4621   0.819   8.173   1.998  0.0506  0.4912 -1.0011
  775MOL0     H 4622   0.982   8.180   2.070 -0.4295 -0.1915 -0.7197
  775MOL0     H 4623   0.993   8.579   1.962  2.1835 -1.1268  0.1090
  775MOL0     H 4624   0.742   7.932   2.548  1.3719 -1.5760 -0.8933
  775MOL0     H 4625   0.723   7.699   2.634 -0.7556  0.0618  0.8616
  776MOL0     O 4626   6.180  10.715   6.710  0.3069 -0.0342  0.5406
  776MOL0     C 4627   6.186  10.766   6.819 -0.0784 -0.0345 -0.2637
  776MOL0     O 4628   6.304  10.767   6.897  0.3364 -0.2200  0.3887
  776MOL0     C 4629   6.398  10.673   6.869 -0.0992 -0.1470 -0.1536
  776MOL0     C 4630   6.518  10.698   6.797  0.4400 -0.0759  0.4497
  776MOL0     C 4631   6.609  10.602   6.763 -0.5716  0.6131  0.2061
  776MOL0     C 4632   6.594  10.475   6.806 -0.5250 -0.8754 -0.1909
  776MOL0     O 4633   6.672  10.374   6.775 -0.7790  0.3503 -0.2806
  776MOL0     C 4634   6.623  10.267   6.691 -0.5391 -0.6255 -0.0305
  776MOL0     C 4635   6.551  10.157   6.767 -0.5503 -0.6476 -0.7122
  776MOL0     C 4636   6.564  10.023   6.693  0.1839  0.4919  0.0565
  776MOL0     C 4637   6.500   9.908   6.758  0.2643  0.4464 -0.2170
  776MOL0     C 4638   6.360   9.868   6.710 -0.0086  0.3866 -0.8545
  776MOL0     C 4639   6.234   9.916   6.795  0.1451 -0.2500 -0.3288
  776MOL0     C 4640   6.114   9.818   6.769 -0.4553 -0.1831  0.2485
  776MOL0     C 4641   6.071   9.719   6.875 -0.4686 -0.1091 -0.7217
  776MOL0     N 4642   6.189   9.634   6.922  1.4933  0.1646 -0.1303
  776MOL0     C 4643   6.262   9.539   6.854 -0.6847 -0.1091 -0.3838
  776MOL0     C 4644   6.325   9.465   6.953  0.5812 -0.5190 -0.0250
  776MOL0     C 4645   6.416   9.351   6.930 -0.0515 -0.1065 -0.0150
  776MOL0     C 4646   6.375   9.234   7.007  0.6247  0.3985  0.4486
  776MOL0     C 4647   6.452   9.113   6.963  0.6777 -0.3483  1.3354
  776MOL0     C 4648   6.389   8.982   7.016  0.3293  0.4961 -0.7320
  776MOL0     O 4649   6.418   8.964   7.161  0.7215  0.6025  0.0413
  776MOL0     C 4650   6.547   8.964   7.197  0.2839 -0.6061 -0.7709
  776MOL0     C 4651   6.558   8.980   7.328 -0.4010  0.1934 -0.1962
  776MOL0     C 4652   6.680   8.983   7.388 -0.5953 -0.3428 -0.3937
  776MOL0     C 4653   6.691   9.018   7.537  0.6395  0.5314 -0.6448
  776MOL0     C 4654   6.802   8.960   7.311  0.1867  0.3906  0.7838
  776MOL0     C 4655   6.938   8.977   7.355 -0.1144 -0.3833  0.7507
  776MOL0     O 4656   7.035   8.910   7.296 -0.7847  0.3690  0.8248
  776MOL0     C 4657   7.149   8.890   7.366 -0.4284 -0.0489  0.4539
  776MOL0     C 4658   7.252   8.985   7.401  1.4127 -0.4819 -0.3189
  776MOL0     C 4659   7.364   8.951   7.472  0.2597 -1.3926 -0.9150
  776MOL0     C 4660   7.391   8.818   7.499 -0.8586  0.6912 -0.0155
  776MOL0     O 4661   7.499   8.786   7.570  0.0824 -0.8592 -0.6542
  776MOL0     C 4662   7.601   8.705   7.519 -0.1578 -0.4097 -0.2084
  776MOL0     C 4663   7.668   8.771   7.404 -0.0291 -0.0736  0.3503
  776MOL0     C 4664   7.778   8.677   7.352  0.6660 -0.8191 -1.5489
  776MOL0     C 4665   7.719   8.579   7.252  1.3992 -0.0898  0.2178
  776MOL0     C 4666   7.834   8.541   7.165  0.0242 -0.0081 -1.2086
  776MOL0     C 4667   7.787   8.427   7.072 -0.3886 -1.0346 -0.6039
  776MOL0     C 4668   7.885   8.401   6.962  0.2124  0.6584  0.5743
  776MOL0     C 4669   7.835   8.286   6.860 -0.2703  0.3692  0.3670
  776MOL0    Cl 4670   7.875   8.131   6.934  0.1227  0.4006  0.1320
  776MOL0     C 4671   7.302   8.718   7.459  0.6059 -0.2243 -0.3839
  776MOL0     C 4672   7.180   8.757   7.392 -0.0551  1.0565 -0.4782
  776MOL0     O 4673   6.959   9.056   7.446 -0.4976 -0.3716 -0.8421
  776MOL0     C 4674   6.784   8.932   7.176  0.2949 -0.0829  0.3798
  776MOL0     C 4675   6.660   8.933   7.117 -1.0710 -0.2192  0.5402
  776MOL0     N 4676   6.288   9.507   7.078 -0.2080 -0.3590 -0.5609
  776MOL0     N 4677   6.226   9.625   7.056 -0.6057  0.2763  0.0237
  776MOL0     C 4678   6.486  10.450   6.897 -0.3226  0.3271  0.4076
  776MOL0     C 4679   6.393  10.546   6.924 -0.6512 -0.5648  0.1650
  776MOL0     C 4680   6.070  10.836   6.876 -0.2341  0.1761 -0.3034
  776MOL0     C 4681   6.077  10.899   7.007 -0.8358 -0.3185  1.1318
  776MOL0     C 4682   5.972  10.984   7.051  0.1530  1.0195  0.5901
  776MOL0     C 4683   5.861  11.008   6.971  0.7466 -0.2188 -0.2175
  776MOL0     O 4684   5.754  11.080   7.007  0.8876  0.1253 -0.0817
  776MOL0     C 4685   5.720  11.100   7.143  0.2211 -0.5303 -0.3846
  776MOL0     C 4686   5.680  10.971   7.217  0.5050  1.0192 -0.6156
  776MOL0     C 4687   5.554  10.915   7.140 -0.1059 -0.6766 -0.1581
  776MOL0     C 4688   5.507  10.778   7.196  0.1212  0.1651 -0.2293
  776MOL0     C 4689   5.481  10.783   7.346  0.3687  0.4395  1.3044
  776MOL0     C 4690   5.480  10.805   7.460  0.1942 -0.6366 -0.2897
  776MOL0     C 4691   5.866  10.971   6.836 -0.9056  0.1961  0.8231
  776MOL0     C 4692   5.963  10.881   6.794 -0.6231  0.3984 -0.5606
  776MOL0     H 4693   6.533  10.799   6.758 -1.9207  0.8394  1.7018
  776MOL0     H 4694   6.694  10.616   6.696  0.1423  0.7447  1.1162
  776MOL0     H 4695   6.557  10.301   6.610 -1.0900  0.1928  0.7426
  776MOL0     H 4696   6.715  10.229   6.647 -0.2973 -0.9440  0.7370
  776MOL0     H 4697   6.576  10.143   6.873 -1.6600 -3.2754 -0.7125
  776MOL0     H 4698   6.443  10.169   6.771 -0.4727  1.0996 -2.5222
  776MOL0     H 4699   6.525  10.034   6.592 -3.2511 -0.5800  1.1358
  776MOL0     H 4700   6.671  10.001   6.682 -0.0858 -0.4695 -0.7967
  776MOL0     H 4701   6.571   9.824   6.753 -0.3365 -0.0579 -0.3324
  776MOL0     H 4702   6.501   9.926   6.866 -0.5985 -3.3909  0.5972
  776MOL0     H 4703   6.351   9.898   6.605 -0.8736  0.5710 -0.7354
  776MOL0     H 4704   6.358   9.759   6.710  2.4013  0.2994 -0.8573
  776MOL0     H 4705   6.265   9.906   6.899  0.4429 -2.9325 -0.5992
  776MOL0     H 4706   6.219  10.020   6.764  1.3952  0.5516  1.5666
  776MOL0     H 4707   6.024   9.878   6.760 -0.1623 -0.0882 -3.2552
  776MOL0     H 4708   6.121   9.776   6.668 -1.8020  2.4940 -1.0601
  776MOL0     H 4709   5.988   9.662   6.831  0.3723 -0.5600 -1.7833
  776MOL0     H 4710   6.034   9.768   6.965  0.8773 -1.1431  0.4482
  776MOL0     H 4711   6.255   9.511   6.749  0.9898 -2.3778  0.0287
  776MOL0     H 4712   6.428   9.336   6.823  0.7351  2.2479 -0.3227
  776MOL0     H 4713   6.516   9.386   6.956  1.3273 -2.6709 -1.5093
  776MOL0     H 4714   6.272   9.209   6.978  0.4371  2.4097 -0.7639
  776MOL0     H 4715   6.364   9.246   7.115 -1.3712 -2.2682  0.6755
  776MOL0     H 4716   6.559   9.122   6.984  0.5167 -0.0200  2.0571
  776MOL0     H 4717   6.443   9.103   6.854 -0.0126 -0.2705  1.3830
  776MOL0     H 4718   6.430   8.903   6.953 -0.5442  0.7070 -1.5957
  776MOL0     H 4719   6.280   8.976   7.008  0.2273  1.7233 -0.4205
  776MOL0     H 4720   6.478   9.004   7.398 -1.6230  0.5354 -1.6678
  776MOL0     H 4721   6.754   8.939   7.578 -1.0661 -2.0031 -2.6385
  776MOL0     H 4722   6.742   9.115   7.537  0.6650  0.5151 -1.1168
  776MOL0     H 4723   6.587   9.019   7.571  0.4570 -4.0303 -0.4815
  776MOL0     H 4724   7.229   9.087   7.375  3.5814  0.1804  0.1612
  776MOL0     H 4725   7.432   9.026   7.512 -1.2634 -0.1057 -0.6651
  776MOL0     H 4726   7.674   8.687   7.599 -1.4983  2.0950  1.7344
  776MOL0     H 4727   7.561   8.609   7.486 -2.7500  0.2482  0.7280
  776MOL0     H 4728   7.602   8.824   7.335  1.0050  2.9426  1.5353
  776MOL0     H 4729   7.724   8.860   7.433  1.8135 -1.2471  0.6284
  776MOL0     H 4730   7.834   8.625   7.431 -0.0261  0.5368 -0.1098
  776MOL0     H 4731   7.849   8.751   7.314  1.0246 -0.1869  0.2322
  776MOL0     H 4732   7.682   8.487   7.298 -2.2922  0.8724 -0.5019
  776MOL0     H 4733   7.633   8.622   7.199  0.8563 -0.2843  0.9201
  776MOL0     H 4734   7.900   8.505   7.244 -4.1164 -0.1268  2.5641
  776MOL0     H 4735   7.877   8.632   7.123  0.6086  0.7519  0.9117
  776MOL0     H 4736   7.779   8.333   7.127  2.2339  0.1315  2.0376
  776MOL0     H 4737   7.687   8.452   7.035 -1.2083 -3.9025 -0.5315
  776MOL0     H 4738   7.987   8.386   7.000 -0.5144 -0.6020  2.1099
  776MOL0     H 4739   7.892   8.486   6.893 -0.3068  1.5926  1.6554
  776MOL0     H 4740   7.885   8.272   6.763  0.4605 -2.4461  1.0554
  776MOL0     H 4741   7.727   8.295   6.849 -0.1214  0.7097 -1.0491
  776MOL0     H 4742   7.321   8.613   7.477 -1.1543 -0.2256  1.9279
  776MOL0     H 4743   7.108   8.686   7.354  1.8742 -0.7792 -0.8655
  776MOL0     H 4744   6.867   8.904   7.112 -1.3784 -0.6453 -1.6560
  776MOL0     H 4745   6.647   8.921   7.010 -1.0181 -0.3269  0.5461
  776MOL0     H 4746   6.470  10.354   6.945  1.4496 -2.0529 -3.3016
  776MOL0     H 4747   6.313  10.523   6.994  1.6513  0.7528  3.4481
  776MOL0     H 4748   6.165  10.897   7.070  1.0133 -0.6447 -1.3311
  776MOL0     H 4749   5.987  11.028   7.149  2.1017  2.5267 -0.3066
  776MOL0     H 4750   5.807  11.144   7.193 -0.5913 -0.0055  0.6000
  776MOL0     H 4751   5.638  11.172   7.148  2.6881  2.4557  0.3290
  776MOL0     H 4752   5.653  11.000   7.320 -0.6536 -1.2389 -0.2424
  776MOL0     H 4753   5.767  10.905   7.204  1.9202  2.3881  1.2458
  776MOL0     H 4754   5.570  10.903   7.032  2.1863 -1.3066  0.1985
  776MOL0     H 4755   5.466  10.980   7.141 -1.5729 -2.5441 -1.0645
  776MOL0     H 4756   5.578  10.696   7.184  0.2163  0.2478 -0.2367
  776MOL0     H 4757   5.421  10.749   7.136  1.2946  1.0005 -2.4393
  776MOL0     H 4758   5.451  10.826   7.561 -0.5448  0.4285 -0.7066
  776MOL0     H 4759   5.790  10.994   6.762  1.7456 -0.4960 -2.3509
  776MOL0     H 4760   5.953  10.823   6.703  0.4680 -1.5933  0.5176
  777MOL0     O 4761   4.729   6.686   0.079  0.1790  0.2259  0.5066
  777MOL0     C 4762   4.745   6.684   0.200  1.2424  1.2648 -0.9847
  777MOL0     O 4763   4.718   6.789   0.284 -0.1960  1.2817  0.0039
  777MOL0     C 4764   4.676   6.907   0.238 -0.2733  1.5044 -0.0511
  777MOL0     C 4765   4.550   6.959   0.270  0.9460  0.1724  0.1397
  777MOL0     C 4766   4.509   7.079   0.210 -0.6019 -0.4199 -0.8210
  777MOL0     C 4767   4.601   7.158   0.143  0.2453 -0.7675  0.1587
  777MOL0     O 4768   4.562   7.287   0.101 -0.1514 -0.0604 -0.3965
  777MOL0     C 4769   4.621   7.336  -0.019  1.0698 -0.7939  0.9731
  777MOL0     C 4770   4.578   7.480  -0.038 -0.3844  0.5196  0.7893
  777MOL0     C 4771   4.638   7.525  -0.172  0.3274  1.1238  0.3796
  777MOL0     C 4772   4.571   7.650  -0.233  0.6072 -0.6160  0.2548
  777MOL0     C 4773   4.653   7.723  -0.351  0.2963 -0.0161  0.5129
  777MOL0     C 4774   4.651   7.638  -0.479 -0.0388 -0.5992 -0.0433
  777MOL0     C 4775   4.774   7.661  -0.563  0.2078  1.1750  0.4196
  777MOL0     C 4776   4.760   7.580  -0.691  0.4670  0.6163 -0.0385
  777MOL0     N 4777   4.889   7.584  -0.754  0.0997  1.1554  0.0452
  777MOL0     C 4778   4.987   7.681  -0.765  0.9242  0.0748  0.8871
  777MOL0     C 4779   5.092   7.627  -0.829  0.1084 -0.1424 -0.8279
  777MOL0     C 4780   5.216   7.705  -0.871  0.8380 -0.1940  0.7293
  777MOL0     C 4781   5.192   7.843  -0.941 -0.5615  0.0727 -0.4905
  777MOL0     C 4782   5.152   7.849  -1.090  0.1119 -0.4773 -0.4574
  777MOL0     C 4783   5.195   7.746  -1.188  0.2737 -0.2668  0.4241
  777MOL0     O 4784   5.216   7.807  -1.316 -0.5265  0.3572  0.2400
  777MOL0     C 4785   5.258   7.719  -1.414 -0.2715 -0.2413  0.2976
  777MOL0     C 4786   5.275   7.785  -1.541 -0.1657 -0.5300  0.0210
  777MOL0     C 4787   5.293   7.725  -1.662 -0.7532  0.9100 -0.4828
  777MOL0     C 4788   5.299   7.808  -1.795  0.3299 -0.4991  0.1789
  777MOL0     C 4789   5.315   7.589  -1.649 -0.0827  0.4235 -0.2034
  777MOL0     C 4790   5.323   7.500  -1.764  0.0929 -0.1659  0.7089
  777MOL0     O 4791   5.438   7.419  -1.756  0.7915  0.2915  0.0239
  777MOL0     C 4792   5.434   7.309  -1.845  0.0542 -0.0833 -1.3984
  777MOL0     C 4793   5.432   7.319  -1.979 -0.3041  1.1189 -0.5460
  777MOL0     C 4794   5.457   7.213  -2.067  0.7165  0.4686 -0.2475
  777MOL0     C 4795   5.496   7.093  -2.018  0.2879 -0.2357 -0.1148
  777MOL0     O 4796   5.550   7.001  -2.111  0.8801 -0.3268  0.1846
  777MOL0     C 4797   5.549   6.860  -2.084  0.5210 -0.6901  1.2547
  777MOL0     C 4798   5.444   6.789  -2.169 -0.3992 -0.0071  0.0777
  777MOL0     C 4799   5.424   6.642  -2.138  0.3471  0.8680 -0.1895
  777MOL0     C 4800   5.528   6.543  -2.199 -0.6665 -0.1803 -0.4543
  777MOL0     C 4801   5.467   6.405  -2.216 -0.3441  0.4755  0.4838
  777MOL0     C 4802   5.562   6.294  -2.272 -0.0299 -0.7287  0.2563
  777MOL0     C 4803   5.495   6.159  -2.312 -0.0630 -0.8116 -0.0625
  777MOL0     C 4804   5.398   6.121  -2.216 -0.3446  0.5415  0.1083
  777MOL0    Cl 4805   5.296   5.974  -2.270  0.0730  0.0600  0.0064
  777MOL0     C 4806   5.493   7.072  -1.875 -0.8227 -0.1088 -0.3356
  777MOL0     C 4807   5.462   7.186  -1.797  0.6950 -0.2919  0.3550
  777MOL0     O 4808   5.233   7.488  -1.845  0.7484  0.5805  0.1131
  777MOL0     C 4809   5.321   7.514  -1.527  0.2714 -0.5321 -0.5158
  777MOL0     C 4810   5.295   7.584  -1.412 -0.7704 -0.6215 -0.1267
  777MOL0     N 4811   5.055   7.500  -0.864  0.2263 -0.1609  0.0820
  777MOL0     N 4812   4.938   7.478  -0.821 -0.4270 -0.1309 -0.4291
  777MOL0     C 4813   4.725   7.109   0.112 -0.0362  0.1293 -0.2727
  777MOL0     C 4814   4.760   6.985   0.167  0.8125 -0.5447 -0.3549
  777MOL0     C 4815   4.808   6.566   0.270 -0.0359 -0.8591  0.1044
  777MOL0     C 4816   4.861   6.463   0.198 -0.2685 -0.0283 -0.0399
  777MOL0     C 4817   4.922   6.368   0.277  0.6322  0.1624 -0.2118
  777MOL0     C 4818   4.929   6.362   0.418  0.7458 -0.6215  0.4495
  777MOL0     O 4819   4.979   6.252   0.473  0.2709 -0.3775 -0.0880
  777MOL0     C 4820   5.120   6.251   0.457  0.4689  0.4225  0.2979
  777MOL0     C 4821   5.179   6.357   0.549 -1.0478 -0.4956  0.2611
  777MOL0     C 4822   5.333   6.329   0.534 -1.4673  0.3800 -0.7528
  777MOL0     C 4823   5.386   6.378   0.400  0.5397 -0.8991  0.3453
  777MOL0     C 4824   5.364   6.521   0.383 -0.0254 -0.1348  0.1199
  777MOL0     C 4825   5.340   6.637   0.354  0.3837  1.0532 -1.0082
  777MOL0     C 4826   4.857   6.459   0.484  0.0052  0.5188 -0.7831
  777MOL0     C 4827   4.794   6.558   0.414 -0.8954 -0.4721 -0.0697
  777MOL0     H 4828   4.484   6.896   0.328  1.4185 -0.2922  0.1782
  777MOL0     H 4829   4.411   7.122   0.225  0.2651  1.5192 -0.3344
  777MOL0     H 4830   4.730   7.331  -0.022  1.1584  0.8675 -1.9384
  777MOL0     H 4831   4.575   7.278  -0.099 -1.3250 -0.9753  2.3873
  777MOL0     H 4832   4.469   7.480  -0.048 -0.7492 -5.5564  0.6512
  777MOL0     H 4833   4.603   7.551   0.041 -1.2024  4.3320 -2.1158
  777MOL0     H 4834   4.742   7.551  -0.148  0.2536  0.4704  1.4658
  777MOL0     H 4835   4.648   7.440  -0.240  2.5294  2.2126 -0.7835
  777MOL0     H 4836   4.471   7.631  -0.272  1.0243  1.0863 -1.8193
  777MOL0     H 4837   4.564   7.724  -0.153 -0.7446 -0.2505 -0.1824
  777MOL0     H 4838   4.616   7.824  -0.370 -1.4683 -1.0517 -2.2235
  777MOL0     H 4839   4.755   7.726  -0.312  0.9760  0.5163 -1.2263
  777MOL0     H 4840   4.651   7.533  -0.447 -2.5745 -0.2300  1.4092
  777MOL0     H 4841   4.558   7.659  -0.533 -1.2757  2.2059  2.8566
  777MOL0     H 4842   4.786   7.764  -0.595 -1.4397  0.8059 -1.6147
  777MOL0     H 4843   4.858   7.630  -0.500 -2.3883 -0.6029  3.3052
  777MOL0     H 4844   4.685   7.636  -0.746  2.5057  1.7756 -1.7844
  777MOL0     H 4845   4.721   7.478  -0.683  1.3716 -0.1026 -3.4525
  777MOL0     H 4846   4.968   7.786  -0.742 -0.3204 -0.0937  0.7249
  777MOL0     H 4847   5.277   7.728  -0.782  3.0674 -0.4978 -0.6342
  777MOL0     H 4848   5.281   7.641  -0.931  1.0249  0.9152 -0.2939
  777MOL0     H 4849   5.284   7.901  -0.926 -2.6733  3.7087 -0.4428
  777MOL0     H 4850   5.116   7.897  -0.885  0.5222  0.7339  0.3874
  777MOL0     H 4851   5.171   7.949  -1.130 -0.5676  0.6936  1.9717
  777MOL0     H 4852   5.042   7.855  -1.088  0.1526  2.9259 -1.6473
  777MOL0     H 4853   5.107   7.682  -1.197 -1.5236  2.1111 -0.1321
  777MOL0     H 4854   5.280   7.691  -1.147  0.2388 -0.2771  0.4822
  777MOL0     H 4855   5.246   7.890  -1.545 -0.1931 -0.5739 -1.8832
  777MOL0     H 4856   5.243   7.746  -1.866 -1.5986 -1.9755  2.7988
  777MOL0     H 4857   5.248   7.904  -1.801 -1.4147 -1.3410  0.7349
  777MOL0     H 4858   5.399   7.834  -1.829  0.2702 -1.2040 -0.5784
  777MOL0     H 4859   5.407   7.418  -2.016  2.1641  0.5781 -4.1053
  777MOL0     H 4860   5.440   7.225  -2.173  2.3085  0.7693 -0.5059
  777MOL0     H 4861   5.645   6.837  -2.132 -0.0781  0.1799 -0.4303
  777MOL0     H 4862   5.555   6.830  -1.979  2.8798 -0.0973  1.3494
  777MOL0     H 4863   5.350   6.839  -2.142  0.0028 -0.4130  2.4548
  777MOL0     H 4864   5.468   6.810  -2.274 -1.1227  0.4967  0.0101
  777MOL0     H 4865   5.324   6.615  -2.173  0.6774  0.8469 -1.1683
  777MOL0     H 4866   5.423   6.625  -2.030  3.0859  0.8436 -0.0744
  777MOL0     H 4867   5.551   6.588  -2.296  1.2624  1.8534  0.8459
  777MOL0     H 4868   5.615   6.539  -2.133 -0.1660 -1.0631 -1.1475
  777MOL0     H 4869   5.384   6.425  -2.284  0.1268 -1.7444 -0.8524
  777MOL0     H 4870   5.438   6.377  -2.114  1.7290 -0.5932  0.8412
  777MOL0     H 4871   5.583   6.332  -2.372  0.3284  0.2941  0.7090
  777MOL0     H 4872   5.655   6.297  -2.214  0.9192  0.4335 -1.2504
  777MOL0     H 4873   5.568   6.080  -2.293  1.5781  0.3554 -1.2835
  777MOL0     H 4874   5.457   6.167  -2.414  3.2387 -1.1041 -1.4421
  777MOL0     H 4875   5.325   6.202  -2.226 -0.7190  0.0021 -2.0337
  777MOL0     H 4876   5.434   6.093  -2.117 -2.5202 -0.3580  0.6843
  777MOL0     H 4877   5.527   6.977  -1.835  2.9868  1.2780  0.1826
  777MOL0     H 4878   5.466   7.174  -1.689 -2.4748 -2.8332  0.3294
  777MOL0     H 4879   5.338   7.407  -1.525 -0.9459 -0.7685 -1.5794
  777MOL0     H 4880   5.281   7.528  -1.320  3.1468  0.5982  1.3946
  777MOL0     H 4881   4.793   7.159   0.045 -1.5121  2.2283 -0.2892
  777MOL0     H 4882   4.860   6.948   0.144  0.9224 -0.0714 -0.6645
  777MOL0     H 4883   4.862   6.460   0.089  0.8821  2.8451 -0.2119
  777MOL0     H 4884   4.975   6.288   0.226  4.3501  1.7901  0.7365
  777MOL0     H 4885   5.154   6.152   0.491  0.4584  1.4788  3.8243
  777MOL0     H 4886   5.146   6.264   0.352 -1.7406  0.3087 -0.2958
  777MOL0     H 4887   5.145   6.355   0.653 -1.2789  1.0495  0.2422
  777MOL0     H 4888   5.154   6.458   0.517 -0.0522 -0.7866 -1.6152
  777MOL0     H 4889   5.371   6.227   0.547 -1.9655  0.4542  1.9499
  777MOL0     H 4890   5.389   6.386   0.609 -0.0980  0.5204 -1.8386
  777MOL0     H 4891   5.345   6.323   0.315 -0.1775 -0.6892  0.5474
  777MOL0     H 4892   5.493   6.357   0.398  0.3410 -2.1821  1.4027
  777MOL0     H 4893   5.317   6.736   0.321  2.0334  2.2842  1.2707
  777MOL0     H 4894   4.832   6.432   0.586  2.8377 -2.6039 -0.7185
  777MOL0     H 4895   4.733   6.618   0.481  1.5560  1.0254  1.0052
  778MOL0     O 4896   5.288   4.689   2.824 -0.2681 -0.1788  0.3544
  778MOL0     C 4897   5.191   4.762   2.833 -1.0778  0.6216 -0.2020
  778MOL0     O 4898   5.197   4.891   2.877  0.2059 -0.3815  0.1102
  778MOL0     C 4899   5.318   4.965   2.888  0.7822 -0.1929  0.1770
  778MOL0     C 4900   5.437   4.934   2.807  0.2151 -0.9232 -0.0485
  778MOL0     C 4901   5.562   5.002   2.843  0.0755 -0.5315  0.0180
  778MOL0     C 4902   5.561   5.104   2.938  0.4046 -0.5327 -0.7911
  778MOL0     O 4903   5.672   5.173   2.966  0.5411 -0.1827  0.0186
  778MOL0     C 4904   5.680   5.263   3.078  0.3408 -0.4263 -0.3694
  778MOL0     C 4905   5.808   5.350   3.074 -0.0258  0.7153  0.2182
  778MOL0     C 4906   5.942   5.276   3.087  0.6649  0.4220 -0.6687
  778MOL0     C 4907   5.964   5.247   3.238 -0.4589  0.8922  0.6664
  778MOL0     C 4908   6.097   5.184   3.255 -0.9138  0.4801 -0.6065
  778MOL0     C 4909   6.193   5.294   3.302  0.0681 -0.4518 -0.0120
  778MOL0     C 4910   6.192   5.323   3.456  0.3933  0.7804 -0.5027
  778MOL0     C 4911   6.247   5.467   3.475  0.1542  0.0687  0.2907
  778MOL0     N 4912   6.392   5.482   3.440 -0.1115  0.1735 -0.3483
  778MOL0     C 4913   6.496   5.417   3.500 -0.5347 -0.3167 -0.1637
  778MOL0     C 4914   6.610   5.472   3.439 -0.3058  0.2087  0.6945
  778MOL0     C 4915   6.747   5.427   3.449 -0.9186  0.0603 -0.2108
  778MOL0     C 4916   6.765   5.305   3.367  0.3668 -0.5991 -0.1202
  778MOL0     C 4917   6.894   5.232   3.380 -0.7353 -0.4892 -0.2614
  778MOL0     C 4918   6.895   5.136   3.514  0.6127 -0.1453  1.0222
  778MOL0     O 4919   6.815   5.026   3.480  0.1968  0.0012  0.9621
  778MOL0     C 4920   6.755   4.954   3.582 -0.3165 -1.0060  0.5118
  778MOL0     C 4921   6.760   4.816   3.578 -0.2571  0.2381  0.5578
  778MOL0     C 4922   6.709   4.729   3.681 -0.8171 -0.3586  0.6922
  778MOL0     C 4923   6.728   4.580   3.660 -0.0358  0.3245 -0.9409
  778MOL0     C 4924   6.654   4.788   3.799 -0.5696 -0.5263  0.1326
  778MOL0     C 4925   6.594   4.707   3.897  0.2482  0.0431 -0.2615
  778MOL0     O 4926   6.477   4.751   3.955 -0.6942 -0.2942  0.8468
  778MOL0     C 4927   6.454   4.746   4.088 -0.1713  0.2495 -1.1177
  778MOL0     C 4928   6.522   4.664   4.193  0.3210 -0.2475  0.2088
  778MOL0     C 4929   6.482   4.664   4.326  1.3585  0.2340  1.2284
  778MOL0     C 4930   6.372   4.746   4.373 -0.1831  0.2178 -0.1379
  778MOL0     O 4931   6.310   4.757   4.493 -0.6919  0.6225 -0.3886
  778MOL0     C 4932   6.294   4.638   4.569  0.0140  0.7675 -0.1426
  778MOL0     C 4933   6.258   4.664   4.716  0.0040  0.3535 -0.5330
  778MOL0     C 4934   6.110   4.722   4.716 -0.7453  0.1313  0.3814
  778MOL0     C 4935   6.058   4.767   4.851  0.5164  0.4897 -0.3609
  778MOL0     C 4936   6.084   4.670   4.977  0.2940  0.1690 -0.3753
  778MOL0     C 4937   6.001   4.539   4.979  0.3133  0.2365 -0.5606
  778MOL0     C 4938   6.017   4.459   5.113 -0.0585  0.1210  0.3599
  778MOL0     C 4939   6.157   4.418   5.139  0.8566  0.1325 -0.4695
  778MOL0    Cl 4940   6.170   4.286   5.252 -0.0642 -0.5195  0.0890
  778MOL0     C 4941   6.324   4.829   4.274 -0.3586 -0.1719 -0.7651
  778MOL0     C 4942   6.362   4.837   4.135 -0.5386  0.6736 -0.5864
  778MOL0     O 4943   6.666   4.625   3.950 -0.4058 -0.7560  0.5973
  778MOL0     C 4944   6.652   4.927   3.810  0.4357 -0.5576  0.8439
  778MOL0     C 4945   6.699   5.012   3.699  0.4189  0.1237  0.0752
  778MOL0     N 4946   6.566   5.543   3.329  0.8338 -0.6871 -0.6642
  778MOL0     N 4947   6.436   5.565   3.340  0.2711  0.1548 -0.5366
  778MOL0     C 4948   5.440   5.144   2.999  0.2843 -0.3909 -1.3624
  778MOL0     C 4949   5.323   5.074   2.983 -0.8493 -0.4569  0.7024
  778MOL0     C 4950   5.060   4.695   2.813  0.4846  0.1608 -0.1527
  778MOL0     C 4951   4.947   4.756   2.881  0.1262 -0.5915 -0.0447
  778MOL0     C 4952   4.816   4.701   2.878 -0.0842  0.1753 -0.4848
  778MOL0     C 4953   4.796   4.576   2.813 -0.1467 -0.2850 -0.8360
  778MOL0     O 4954   4.679   4.512   2.809 -0.2809  0.0772  0.3863
  778MOL0     C 4955   4.574   4.555   2.895  0.7299 -0.2332  0.3557
  778MOL0     C 4956   4.449   4.474   2.862 -0.0797 -0.0300 -0.8687
  778MOL0     C 4957   4.452   4.320   2.897 -0.1432  0.3407 -0.3562
  778MOL0     C 4958   4.451   4.288   3.058  0.0256 -0.4998  0.6753
  778MOL0     C 4959   4.451   4.158   3.109  0.9581  0.2262  0.6775
  778MOL0     C 4960   4.456   4.046   3.156  0.5805 -0.1233 -0.0259
  778MOL0     C 4961   4.912   4.517   2.748  0.3648  0.4534 -0.6845
  778MOL0     C 4962   5.043   4.569   2.759 -0.4822 -0.6046  0.3615
  778MOL0     H 4963   5.428   4.860   2.729  2.4985 -1.7893  0.4231
  778MOL0     H 4964   5.653   4.986   2.787  0.0340 -0.8290  0.0385
  778MOL0     H 4965   5.598   5.335   3.071  0.7073 -0.0098 -0.4116
  778MOL0     H 4966   5.686   5.217   3.176  3.6678  1.1888  0.3408
  778MOL0     H 4967   5.814   5.416   2.987  0.8788  2.2983  1.4185
  778MOL0     H 4968   5.785   5.415   3.159 -4.5165 -0.5713  0.2625
  778MOL0     H 4969   5.927   5.186   3.028 -1.6037  0.0584  0.3479
  778MOL0     H 4970   6.032   5.332   3.057  2.9696 -2.4001  0.4515
  778MOL0     H 4971   5.948   5.334   3.303 -4.2640 -1.0049  2.5942
  778MOL0     H 4972   5.887   5.182   3.281 -0.5010  2.7251  3.6330
  778MOL0     H 4973   6.094   5.117   3.341 -2.9894 -0.8481 -1.6336
  778MOL0     H 4974   6.123   5.125   3.167  0.6284 -3.4747  2.2188
  778MOL0     H 4975   6.299   5.280   3.281  1.0160 -0.2371  3.8882
  778MOL0     H 4976   6.171   5.389   3.252  1.3788 -1.2273 -2.2260
  778MOL0     H 4977   6.091   5.317   3.498  1.1639 -2.2639  1.1598
  778MOL0     H 4978   6.254   5.258   3.518  0.6314  2.3027  0.9400
  778MOL0     H 4979   6.239   5.501   3.579 -0.1292 -1.3112  0.7310
  778MOL0     H 4980   6.190   5.525   3.402 -0.3452 -1.8182 -0.8852
  778MOL0     H 4981   6.480   5.343   3.577 -3.3865  0.9655  0.6143
  778MOL0     H 4982   6.813   5.507   3.417 -0.9298  1.2942  2.6124
  778MOL0     H 4983   6.776   5.401   3.551 -2.6085 -0.0505  0.2756
  778MOL0     H 4984   6.747   5.335   3.263  2.2567  1.1551 -0.0173
  778MOL0     H 4985   6.680   5.238   3.379 -0.0986 -0.3047 -1.5424
  778MOL0     H 4986   6.979   5.302   3.387 -2.5052  1.7238  0.2555
  778MOL0     H 4987   6.908   5.165   3.295 -1.8572 -0.8960 -0.1379
  778MOL0     H 4988   6.864   5.202   3.596 -1.5197 -1.3800  1.2648
  778MOL0     H 4989   6.986   5.084   3.546 -0.0821 -2.5505 -0.7014
  778MOL0     H 4990   6.807   4.772   3.491  0.6528 -0.9244  1.6038
  778MOL0     H 4991   6.825   4.559   3.707 -1.0048 -0.0913  0.9862
  778MOL0     H 4992   6.655   4.522   3.718  0.0099  1.4408  0.2696
  778MOL0     H 4993   6.718   4.562   3.553 -2.5651  1.1230 -0.9111
  778MOL0     H 4994   6.599   4.596   4.159 -1.2303 -1.0747 -1.8423
  778MOL0     H 4995   6.541   4.602   4.392  0.0525  0.5149  2.7081
  778MOL0     H 4996   6.218   4.575   4.522 -0.2392  0.5025  0.6047
  778MOL0     H 4997   6.397   4.601   4.573  0.2079  1.3753  1.9163
  778MOL0     H 4998   6.269   4.577   4.782 -0.1982  2.5694  2.6460
  778MOL0     H 4999   6.329   4.741   4.748 -3.7190  3.2845  1.4484
  778MOL0     H 5000   6.052   4.631   4.697  0.3314 -0.3252 -0.8057
  778MOL0     H 5001   6.102   4.795   4.634 -0.4221  1.4131  1.4576
  778MOL0     H 5002   6.105   4.864   4.868  0.4905  1.3032 -4.1566
  778MOL0     H 5003   5.951   4.780   4.835 -0.3782 -5.5728 -2.0726
  778MOL0     H 5004   6.067   4.720   5.073  2.1278 -3.5897  2.1299
  778MOL0     H 5005   6.191   4.650   4.981  0.8896  2.9213  3.5395
  778MOL0     H 5006   5.896   4.563   4.964 -0.3112 -0.6125  1.9698
  778MOL0     H 5007   6.035   4.470   4.900 -1.4066 -0.2856 -0.8767
  778MOL0     H 5008   5.954   4.371   5.099  1.5659 -0.8527 -1.2486
  778MOL0     H 5009   5.978   4.512   5.201 -1.2824  0.5213 -0.3997
  778MOL0     H 5010   6.212   4.503   5.178 -1.4780  0.2505  2.9921
  778MOL0     H 5011   6.205   4.381   5.047 -0.6774 -1.8238 -0.5562
  778MOL0     H 5012   6.239   4.884   4.313  1.0791  0.2701  1.9349
  778MOL0     H 5013   6.306   4.901   4.068  1.2976  4.0624  0.8567
  778MOL0     H 5014   6.592   4.964   3.893 -1.9922 -2.2763 -0.0719
  778MOL0     H 5015   6.687   5.117   3.723 -0.4153  0.0530 -0.0081
  778MOL0     H 5016   5.425   5.230   3.063  0.3165 -0.9981 -0.5354
  778MOL0     H 5017   5.239   5.108   3.042  0.5837  2.0964  1.3795
  778MOL0     H 5018   4.947   4.851   2.933 -2.7920  1.3375 -3.1527
  778MOL0     H 5019   4.733   4.755   2.923  0.5666  0.8254 -0.0459
  778MOL0     H 5020   4.596   4.549   3.002 -0.2774 -0.5666  0.5515
  778MOL0     H 5021   4.545   4.658   2.870 -3.4661 -1.5587 -1.1431
  778MOL0     H 5022   4.426   4.502   2.759  0.9517  0.7019 -0.9143
  778MOL0     H 5023   4.376   4.514   2.932 -1.6338 -2.5893 -0.8661
  778MOL0     H 5024   4.540   4.282   2.845 -0.7572  0.2221 -1.3332
  778MOL0     H 5025   4.362   4.272   2.859  0.8332 -3.0376  1.2459
  778MOL0     H 5026   4.361   4.339   3.095 -1.6740 -3.3679  0.8490
  778MOL0     H 5027   4.539   4.337   3.100 -1.9252  2.7712  1.3223
  778MOL0     H 5028   4.495   3.949   3.177 -0.4728 -0.5169  0.1761
  778MOL0     H 5029   4.896   4.426   2.691  1.3593 -0.8838  1.0715
  778MOL0     H 5030   5.128   4.526   2.706  0.7084  1.5687  0.4003
  779MOL0     O 5031   1.114   2.330   4.716  0.3287  0.0086 -0.2555
  779MOL0     C 5032   1.045   2.428   4.682  0.5073 -0.2296  0.2430
  779MOL0     O 5033   0.938   2.482   4.759  0.2067  0.2500  0.5385
  779MOL0     C 5034   0.901   2.415   4.867 -0.3361 -0.5684 -0.9789
  779MOL0     C 5035   0.944   2.459   4.996 -0.0590 -0.3408  0.6442
  779MOL0     C 5036   0.922   2.378   5.105  0.0069 -0.1263  0.0999
  779MOL0     C 5037   0.851   2.253   5.090  1.8354 -0.3866 -0.3412
  779MOL0     O 5038   0.829   2.179   5.199  0.2850 -0.4816  0.1491
  779MOL0     C 5039   0.916   2.060   5.204  0.3152 -0.0587  0.2225
  779MOL0     C 5040   0.942   2.030   5.349  0.6319  0.1600  0.2482
  779MOL0     C 5041   1.078   2.085   5.397  0.4986 -0.4406  0.2734
  779MOL0     C 5042   1.057   2.198   5.500 -0.5989 -0.6848 -0.1487
  779MOL0     C 5043   1.010   2.148   5.635  0.0036  0.5886 -0.1832
  779MOL0     C 5044   1.018   2.249   5.755  0.4375 -0.3377  0.3678
  779MOL0     C 5045   0.999   2.159   5.887 -0.3964 -0.1963  0.6352
  779MOL0     C 5046   0.967   2.251   6.008 -0.1469  0.1887 -0.2034
  779MOL0     N 5047   1.026   2.189   6.134 -0.3331 -0.0260  0.5967
  779MOL0     C 5048   1.125   2.248   6.212 -0.2007  1.0006  0.2970
  779MOL0     C 5049   1.133   2.168   6.322 -0.4995 -0.0406  0.0639
  779MOL0     C 5050   1.219   2.197   6.438  0.7201 -0.3084 -0.5234
  779MOL0     C 5051   1.155   2.292   6.545 -0.9659  0.3508 -0.3995
  779MOL0     C 5052   1.265   2.392   6.589  0.1525 -0.2372 -0.3126
  779MOL0     C 5053   1.237   2.429   6.731 -0.3126  0.1305  0.3214
  779MOL0     O 5054   1.292   2.554   6.744 -0.4497  0.3163 -0.1300
  779MOL0     C 5055   1.306   2.605   6.874 -0.2182 -0.3551 -0.3944
  779MOL0     C 5056   1.396   2.708   6.887  0.5723 -0.3139 -0.0393
  779MOL0     C 5057   1.408   2.801   6.996  1.3860 -0.1056 -0.1090
  779MOL0     C 5058   1.501   2.919   6.984 -0.7278 -0.4594  0.4264
  779MOL0     C 5059   1.323   2.778   7.100  0.3585 -0.0959  0.2098
  779MOL0     C 5060   1.294   2.868   7.216  0.2614 -0.8229  0.2828
  779MOL0     O 5061   1.182   2.837   7.292 -0.0405 -0.2108 -0.5800
  779MOL0     C 5062   1.142   2.911   7.405 -0.8225 -0.1787  0.0302
  779MOL0     C 5063   1.010   2.895   7.445 -0.1600  0.3254 -0.2423
  779MOL0     C 5064   0.968   2.947   7.568  1.4257 -0.0845  0.7800
  779MOL0     C 5065   1.059   3.016   7.655  0.5339 -0.5184  0.1773
  779MOL0     O 5066   1.015   3.054   7.779 -0.2955  0.7696  1.2093
  779MOL0     C 5067   1.087   3.135   7.855  0.1930 -0.6051  0.8475
  779MOL0     C 5068   1.013   3.181   7.979  0.4368 -0.5562  0.1050
  779MOL0     C 5069   0.972   3.064   8.074  0.0652 -0.0897 -0.1645
  779MOL0     C 5070   0.828   3.088   8.132 -1.2010  0.2203  0.5187
  779MOL0     C 5071   0.816   3.185   8.250 -0.3868  0.8677  0.6471
  779MOL0     C 5072   0.673   3.243   8.275 -0.9229 -0.4233  0.4155
  779MOL0     C 5073   0.572   3.132   8.320  0.0857  0.4181 -0.4615
  779MOL0     C 5074   0.472   3.178   8.415  0.5004  0.4936  0.6081
  779MOL0    Cl 5075   0.384   3.313   8.351 -0.6797  0.2451  0.2867
  779MOL0     C 5076   1.185   3.039   7.608  1.0403  0.5157 -0.5808
  779MOL0     C 5077   1.236   2.975   7.494  0.6791  0.1787 -0.2968
  779MOL0     O 5078   1.357   2.976   7.228 -0.4464 -0.2668  0.1443
  779MOL0     C 5079   1.247   2.653   7.099 -0.4582 -0.7500 -0.8310
  779MOL0     C 5080   1.240   2.564   6.990  0.2182  0.5423  0.7567
  779MOL0     N 5081   1.043   2.062   6.302  0.8520 -0.9409  0.2793
  779MOL0     N 5082   0.976   2.074   6.190  0.2666  0.2823  0.2810
  779MOL0     C 5083   0.804   2.213   4.969  0.3726 -0.1510 -0.0870
  779MOL0     C 5084   0.833   2.292   4.860  0.4399 -0.2275  0.9501
  779MOL0     C 5085   1.088   2.504   4.564  0.4280 -0.1690 -1.2029
  779MOL0     C 5086   1.023   2.621   4.527  0.0516  0.3395 -0.4651
  779MOL0     C 5087   1.071   2.691   4.416  0.5364 -0.4200  0.6079
  779MOL0     C 5088   1.173   2.644   4.331  0.1111  0.4652 -0.6727
  779MOL0     O 5089   1.219   2.725   4.237 -0.1662  0.0616  1.1551
  779MOL0     C 5090   1.343   2.683   4.161 -0.0668 -0.3504 -0.0307
  779MOL0     C 5091   1.382   2.808   4.089 -0.1477  0.1960  0.5423
  779MOL0     C 5092   1.451   2.770   3.961 -0.6840  0.0317 -0.5177
  779MOL0     C 5093   1.485   2.898   3.890  0.1188  0.7000  0.1139
  779MOL0     C 5094   1.545   2.868   3.755  0.3119 -0.7128 -0.7869
  779MOL0     C 5095   1.599   2.836   3.649  0.2661 -0.5082 -1.2030
  779MOL0     C 5096   1.234   2.525   4.368  0.0836  0.5128  0.3006
  779MOL0     C 5097   1.193   2.457   4.486 -0.9666 -1.0518  0.8759
  779MOL0     H 5098   0.997   2.553   5.004  1.6943 -1.1215 -1.0932
  779MOL0     H 5099   0.984   2.398   5.192  2.3878  2.3390 -1.9899
  779MOL0     H 5100   0.868   1.973   5.158 -2.8598  2.0944 -0.8680
  779MOL0     H 5101   1.007   2.074   5.145  2.1206 -0.8567  2.6385
  779MOL0     H 5102   0.859   2.071   5.407 -1.9647 -3.0437 -0.8896
  779MOL0     H 5103   0.932   1.921   5.355  2.9113 -0.3309 -2.7197
  779MOL0     H 5104   1.132   2.007   5.452 -0.5538 -0.4754  1.3105
  779MOL0     H 5105   1.147   2.117   5.319 -2.1312  2.6571 -1.0223
  779MOL0     H 5106   1.158   2.236   5.517  0.0785 -2.7812  0.8268
  779MOL0     H 5107   0.997   2.281   5.461  0.3753  0.3778  0.5748
  779MOL0     H 5108   0.904   2.125   5.635 -0.9386  4.1099  2.2757
  779MOL0     H 5109   1.061   2.054   5.657  0.0671  0.4543 -0.8679
  779MOL0     H 5110   1.112   2.306   5.754 -0.9778  2.3404 -3.4360
  779MOL0     H 5111   0.940   2.324   5.742 -0.5084 -1.6360 -1.8892
  779MOL0     H 5112   0.915   2.090   5.873 -0.6646  0.1298  0.6297
  779MOL0     H 5113   1.088   2.100   5.914  0.6760  1.5820  1.1490
  779MOL0     H 5114   0.860   2.272   6.009 -0.0288  0.8227 -0.1776
  779MOL0     H 5115   1.019   2.347   5.997  0.3760 -0.3187 -2.7259
  779MOL0     H 5116   1.174   2.341   6.189  0.7001  0.3950 -0.2971
  779MOL0     H 5117   1.242   2.100   6.482  0.2645 -0.8153 -1.3901
  779MOL0     H 5118   1.315   2.235   6.402 -0.7971  1.4838 -2.9508
  779MOL0     H 5119   1.106   2.227   6.618  1.4366 -1.4368 -0.2208
  779MOL0     H 5120   1.069   2.331   6.491 -0.6363 -0.8655 -1.9030
  779MOL0     H 5121   1.257   2.479   6.523 -3.3549 -0.7933 -0.8414
  779MOL0     H 5122   1.367   2.355   6.579  0.4357  0.8477 -1.7072
  779MOL0     H 5123   1.282   2.357   6.800  0.5954  0.1351 -0.2510
  779MOL0     H 5124   1.132   2.428   6.761 -0.1115  0.8051  1.0876
  779MOL0     H 5125   1.457   2.720   6.797  0.1498  1.9645 -0.0758
  779MOL0     H 5126   1.572   2.927   7.067 -0.3994  0.9632  0.0322
  779MOL0     H 5127   1.547   2.914   6.885  2.8064  0.0787  1.9124
  779MOL0     H 5128   1.437   3.007   6.999  1.3468  1.7145 -2.4841
  779MOL0     H 5129   0.946   2.851   7.370  2.3557  0.0618 -2.3749
  779MOL0     H 5130   0.864   2.940   7.595  0.5510  2.2227 -1.5797
  779MOL0     H 5131   1.174   3.087   7.901  1.6075 -0.8880 -1.8960
  779MOL0     H 5132   1.110   3.225   7.797  2.7526 -2.3942 -1.1764
  779MOL0     H 5133   1.070   3.257   8.034 -0.9105  2.5999 -2.5252
  779MOL0     H 5134   0.929   3.238   7.938  0.9214 -0.9245 -1.4653
  779MOL0     H 5135   1.039   3.055   8.161 -0.0615  3.8218  0.5572
  779MOL0     H 5136   0.968   2.972   8.016 -3.3065  0.0935 -0.4256
  779MOL0     H 5137   0.779   3.132   8.045  1.1500 -0.5104 -1.3036
  779MOL0     H 5138   0.788   2.989   8.158  2.7662 -1.3814  1.3413
  779MOL0     H 5139   0.885   3.270   8.247 -2.1550  2.7727  5.1497
  779MOL0     H 5140   0.847   3.133   8.341  1.1829  1.7718  0.6654
  779MOL0     H 5141   0.696   3.318   8.351 -0.4829  0.6770 -0.7540
  779MOL0     H 5142   0.636   3.287   8.182 -0.6858  1.8467  1.3284
  779MOL0     H 5143   0.625   3.052   8.372  0.8528  0.9216 -0.4456
  779MOL0     H 5144   0.531   3.074   8.237 -0.6406  0.2103  0.0336
  779MOL0     H 5145   0.519   3.204   8.511  2.9329 -0.4533 -0.2463
  779MOL0     H 5146   0.405   3.097   8.444 -1.2950  1.4668 -0.5951
  779MOL0     H 5147   1.256   3.090   7.672 -1.3192 -0.2758  2.9584
  779MOL0     H 5148   1.343   2.990   7.484  1.1537 -1.5174  1.5620
  779MOL0     H 5149   1.173   2.626   7.174  1.4451 -2.4979  0.5233
  779MOL0     H 5150   1.180   2.474   6.989  0.9173  0.0662  0.1403
  779MOL0     H 5151   0.754   2.117   4.958  0.0297 -0.0949  0.8760
  779MOL0     H 5152   0.801   2.236   4.773 -2.1936  0.2923  1.4706
  779MOL0     H 5153   0.940   2.661   4.585 -1.0474 -0.8415 -1.1549
  779MOL0     H 5154   1.029   2.790   4.402  1.6355 -0.0213 -0.0458
  779MOL0     H 5155   1.422   2.663   4.235  2.4999  2.3835 -1.8164
  779MOL0     H 5156   1.335   2.611   4.079 -0.9889  0.3381 -0.5647
  779MOL0     H 5157   1.451   2.867   4.149 -1.2372  1.1650  0.8866
  779MOL0     H 5158   1.294   2.869   4.063  2.6607  3.9371 -1.1498
  779MOL0     H 5159   1.395   2.707   3.892  0.1292  1.6406 -2.7500
  779MOL0     H 5160   1.536   2.705   3.981  1.1386  2.9827  2.3652
  779MOL0     H 5161   1.537   2.972   3.952 -3.3122  2.0894  1.6392
  779MOL0     H 5162   1.391   2.943   3.857  0.0663 -0.6502 -1.7162
  779MOL0     H 5163   1.663   2.809   3.567  1.0780 -0.1177 -0.7088
  779MOL0     H 5164   1.324   2.485   4.321  0.6586 -1.2217  2.6803
  779MOL0     H 5165   1.265   2.385   4.524  2.1828  2.0552  1.3035
  780MOL0     O 5166   4.157   1.521   8.242 -1.2008  0.4653  0.0849
  780MOL0     C 5167   4.115   1.474   8.135  0.1419  0.2811 -0.2815
  780MOL0     O 5168   4.003   1.415   8.118 -0.3623 -0.0207  0.0719
  780MOL0     C 5169   3.922   1.367   8.220  0.3244  1.5589  1.0576
  780MOL0     C 5170   3.905   1.416   8.359 -0.9261  0.1928 -0.0441
  780MOL0     C 5171   3.812   1.356   8.444  0.1285 -0.5663 -0.5258
  780MOL0     C 5172   3.754   1.234   8.420 -0.4525  0.2897 -1.0289
  780MOL0     O 5173   3.711   1.164   8.534 -0.3292  0.0454  0.6850
  780MOL0     C 5174   3.577   1.124   8.524  1.2087 -0.1307  0.6355
  780MOL0     C 5175   3.536   1.041   8.651  0.8636  0.5871  0.4345
  780MOL0     C 5176   3.381   1.010   8.644  0.5925 -0.1127 -0.5656
  780MOL0     C 5177   3.319   1.050   8.775  0.3040 -0.5864 -0.4642
  780MOL0     C 5178   3.165   1.085   8.765  0.7862  0.6276  0.5553
  780MOL0     C 5179   3.140   1.222   8.697 -0.6254  0.7986 -1.1688
  780MOL0     C 5180   2.993   1.271   8.715 -0.4752  0.0384  0.0736
  780MOL0     C 5181   2.984   1.406   8.649  0.4106  0.0622  0.1094
  780MOL0     N 5182   2.860   1.475   8.689  1.0869 -0.0777  0.0276
  780MOL0     C 5183   2.731   1.424   8.709  0.0440 -0.8237  0.6782
  780MOL0     C 5184   2.675   1.517   8.789  0.3617  0.4893  0.5631
  780MOL0     C 5185   2.570   1.507   8.895 -0.0462  0.0511 -0.2407
  780MOL0     C 5186   2.448   1.592   8.865 -0.1331 -0.3337  0.2739
  780MOL0     C 5187   2.453   1.731   8.926 -0.1958 -0.1425 -0.1260
  780MOL0     C 5188   2.329   1.816   8.872  0.3145 -0.8241  0.6109
  780MOL0     O 5189   2.338   1.957   8.880 -0.0656 -0.2585  1.1461
  780MOL0     C 5190   2.296   2.011   8.995  0.7253  0.5144 -0.7666
  780MOL0     C 5191   2.366   2.101   9.072 -0.0617 -0.4353 -0.4031
  780MOL0     C 5192   2.310   2.165   9.190 -0.9397 -0.1820 -0.4741
  780MOL0     C 5193   2.407   2.270   9.260 -0.1391  0.2850 -0.5477
  780MOL0     C 5194   2.187   2.106   9.241 -0.0019 -0.2417  0.1302
  780MOL0     C 5195   2.125   2.144   9.372  0.1514  1.1602  0.3953
  780MOL0     O 5196   1.989   2.114   9.397 -0.3439 -0.9771  0.4815
  780MOL0     C 5197   1.937   2.182   9.507  0.0717  0.6385  0.6041
  780MOL0     C 5198   1.830   2.266   9.476 -0.7837  0.6336 -0.2041
  780MOL0     C 5199   1.762   2.344   9.563 -0.1048  0.3865  0.3931
  780MOL0     C 5200   1.800   2.332   9.699  0.1320  0.2356 -0.4918
  780MOL0     O 5201   1.738   2.412   9.796  0.0839  0.1076 -0.6815
  780MOL0     C 5202   1.710   2.549   9.758  0.5845 -0.2006  0.2250
  780MOL0     C 5203   1.657   2.610   9.885  1.1063  0.0921 -0.4117
  780MOL0     C 5204   1.754   2.604  10.008  0.0884  0.2204 -0.3678
  780MOL0     C 5205   1.900   2.640   9.966 -0.3670 -0.0261 -0.7790
  780MOL0     C 5206   1.973   2.668  10.097  0.7376  0.5734  1.2539
  780MOL0     C 5207   2.118   2.708  10.061 -1.0705 -0.7031 -0.1018
  780MOL0     C 5208   2.209   2.589  10.014  0.1485  0.5952 -0.6195
  780MOL0     C 5209   2.338   2.633   9.957  0.7248  0.0105 -0.3838
  780MOL0    Cl 5210   2.450   2.680  10.084  0.1753 -0.3211 -0.4202
  780MOL0     C 5211   1.897   2.236   9.735  0.2359 -0.5189 -0.4161
  780MOL0     C 5212   1.961   2.160   9.644 -0.4188 -0.0800  0.7469
  780MOL0     O 5213   2.204   2.199   9.446  0.2002 -0.0569  1.2071
  780MOL0     C 5214   2.107   2.033   9.162  0.7293  0.0634 -0.0750
  780MOL0     C 5215   2.164   1.988   9.041 -0.0034 -0.6128 -0.2610
  780MOL0     N 5216   2.756   1.630   8.791 -0.1036 -0.5829  0.2631
  780MOL0     N 5217   2.857   1.606   8.719 -0.7470  0.3341 -0.1714
  780MOL0     C 5218   3.758   1.196   8.287  0.8048  0.7639 -0.1137
  780MOL0     C 5219   3.845   1.251   8.194  0.1440  0.0925  0.8889
  780MOL0     C 5220   4.196   1.504   8.013 -0.1916 -0.7876  0.0790
  780MOL0     C 5221   4.321   1.563   8.023  1.0665  0.0927 -0.0011
  780MOL0     C 5222   4.411   1.570   7.915 -0.4908  0.5071 -0.3947
  780MOL0     C 5223   4.374   1.523   7.797  0.3185 -0.3211  1.5061
  780MOL0     O 5224   4.441   1.535   7.680 -0.1016  0.2127  0.0954
  780MOL0     C 5225   4.580   1.590   7.669 -0.1625  0.2950 -0.0289
  780MOL0     C 5226   4.614   1.574   7.518 -0.2167  0.1861 -1.1116
  780MOL0     C 5227   4.564   1.689   7.430 -0.6872  0.8254 -0.4422
  780MOL0     C 5228   4.637   1.827   7.451 -0.1900 -0.8056 -0.2262
  780MOL0     C 5229   4.777   1.833   7.415  0.3910 -0.6600  0.4216
  780MOL0     C 5230   4.897   1.834   7.400  0.1019  0.6469 -0.5718
  780MOL0     C 5231   4.241   1.473   7.775  0.3887 -0.4906  0.0357
  780MOL0     C 5232   4.155   1.461   7.882  0.3060 -0.7939 -0.2460
  780MOL0     H 5233   3.958   1.503   8.396  3.6337 -1.1620 -2.5183
  780MOL0     H 5234   3.790   1.406   8.537 -1.7852 -1.2568 -0.5591
  780MOL0     H 5235   3.509   1.208   8.509  1.3487  0.4480  2.8681
  780MOL0     H 5236   3.560   1.055   8.441  4.5620 -0.5049  0.1414
  780MOL0     H 5237   3.586   0.944   8.647 -0.7136 -0.2698  0.5357
  780MOL0     H 5238   3.570   1.089   8.743  1.1521  1.4354 -0.1091
  780MOL0     H 5239   3.332   1.072   8.568  1.2648 -0.3441 -1.1996
  780MOL0     H 5240   3.376   0.903   8.620  0.8034 -0.2018 -0.2178
  780MOL0     H 5241   3.329   0.968   8.848 -0.1083  0.3265  0.6430
  780MOL0     H 5242   3.376   1.130   8.824  0.8468  2.1718 -5.0892
  780MOL0     H 5243   3.115   1.004   8.713  1.9214  1.6977 -2.4223
  780MOL0     H 5244   3.121   1.082   8.865  0.3525 -1.1183  0.3459
  780MOL0     H 5245   3.208   1.296   8.740 -2.1363  1.7308 -0.2827
  780MOL0     H 5246   3.174   1.229   8.593 -1.0329 -1.9232 -1.5494
  780MOL0     H 5247   2.911   1.221   8.662 -1.3499  1.7131 -0.2139
  780MOL0     H 5248   2.965   1.281   8.820  1.6133 -0.2151  0.7100
  780MOL0     H 5249   2.975   1.395   8.540 -0.5746  3.2608 -0.2402
  780MOL0     H 5250   3.066   1.477   8.664  1.4980 -0.3399 -3.0969
  780MOL0     H 5251   2.700   1.321   8.694 -1.5397 -0.5199  1.5748
  780MOL0     H 5252   2.555   1.398   8.888  1.9803 -0.2753 -0.1022
  780MOL0     H 5253   2.618   1.541   8.987 -1.0518  2.6117 -0.5939
  780MOL0     H 5254   2.365   1.536   8.910  1.1066 -0.6909  2.2026
  780MOL0     H 5255   2.416   1.590   8.760 -1.2630 -1.6133  0.6051
  780MOL0     H 5256   2.546   1.781   8.897 -0.9514  2.0043  0.9300
  780MOL0     H 5257   2.446   1.731   9.035 -0.3644 -3.6950 -0.0309
  780MOL0     H 5258   2.244   1.773   8.926 -1.3093  1.9840  0.4896
  780MOL0     H 5259   2.319   1.793   8.765 -0.8932  0.1274  0.4884
  780MOL0     H 5260   2.465   2.133   9.042 -0.3843 -0.6256 -1.7629
  780MOL0     H 5261   2.445   2.214   9.346 -0.9770 -0.9307 -0.9398
  780MOL0     H 5262   2.493   2.298   9.198  0.8342 -1.8942 -0.3092
  780MOL0     H 5263   2.353   2.360   9.291 -0.3016 -0.9823  3.4666
  780MOL0     H 5264   1.816   2.295   9.373  1.1300  1.6387 -0.2233
  780MOL0     H 5265   1.682   2.408   9.525  0.8349  1.2611 -0.1561
  780MOL0     H 5266   1.793   2.603   9.710  0.8239 -1.5675 -0.9715
  780MOL0     H 5267   1.634   2.556   9.680  2.0666  0.1512 -1.2603
  780MOL0     H 5268   1.619   2.711   9.870 -0.7371  0.1575  3.4623
  780MOL0     H 5269   1.564   2.564   9.920  0.7627  1.4199  0.4839
  780MOL0     H 5270   1.751   2.499  10.039  0.5771  0.2308 -0.2801
  780MOL0     H 5271   1.720   2.666  10.091  2.4082 -1.3124  1.8610
  780MOL0     H 5272   1.953   2.571   9.900  1.6271  0.7507 -0.0710
  780MOL0     H 5273   1.889   2.735   9.912 -1.8753  0.5192  0.4263
  780MOL0     H 5274   1.972   2.576  10.157  2.1767 -2.2864 -2.6870
  780MOL0     H 5275   1.923   2.749  10.151 -0.1383 -0.0115  1.3599
  780MOL0     H 5276   2.128   2.777   9.976 -0.1152 -0.7941 -0.0732
  780MOL0     H 5277   2.165   2.751  10.150 -1.2337  0.1953 -0.4360
  780MOL0     H 5278   2.155   2.544   9.931 -1.9704  0.5989  0.6841
  780MOL0     H 5279   2.223   2.517  10.095  0.1093 -1.1196 -2.1010
  780MOL0     H 5280   2.328   2.718   9.889  0.1100 -0.3634 -0.7646
  780MOL0     H 5281   2.386   2.548   9.909 -0.7635 -1.7429  1.0874
  780MOL0     H 5282   1.924   2.214   9.838  0.4987  1.9448  0.1072
  780MOL0     H 5283   2.026   2.078   9.673  2.2126  1.1655 -1.2541
  780MOL0     H 5284   2.004   2.005   9.184 -0.2454  3.5849  0.4253
  780MOL0     H 5285   2.105   1.928   8.972  0.1331  1.5702 -2.4328
  780MOL0     H 5286   3.709   1.101   8.266  0.5929  1.0624 -1.0407
  780MOL0     H 5287   3.837   1.213   8.093 -1.0715  1.2772  0.5040
  780MOL0     H 5288   4.342   1.607   8.120  1.0486  2.1457 -0.8804
  780MOL0     H 5289   4.511   1.613   7.917  0.3413 -1.3753  0.0721
  780MOL0     H 5290   4.598   1.694   7.699  0.7428  1.6779 -4.6248
  780MOL0     H 5291   4.627   1.503   7.716 -1.5215 -1.7017 -2.1479
  780MOL0     H 5292   4.583   1.483   7.467  0.8259  0.3877 -2.1426
  780MOL0     H 5293   4.723   1.569   7.521  0.0598  3.4984 -1.5677
  780MOL0     H 5294   4.458   1.706   7.449 -0.1973  1.5449  2.0784
  780MOL0     H 5295   4.568   1.664   7.324 -2.4897 -2.8910  0.2004
  780MOL0     H 5296   4.620   1.862   7.554  1.5585  1.9782 -0.7804
  780MOL0     H 5297   4.577   1.899   7.395 -1.1107 -0.8653  0.6544
  780MOL0     H 5298   5.001   1.827   7.377  0.5552 -0.6141  1.5557
  780MOL0     H 5299   4.203   1.437   7.680  0.4120  0.2466 -0.2587
  780MOL0     H 5300   4.056   1.419   7.868 -0.8919  2.0813 -1.0779
  781MOL0     O 5301   0.801   3.507   6.522  0.0050 -0.3221  0.7980
  781MOL0     C 5302   0.913   3.502   6.568  0.5404 -0.6781 -0.2645
  781MOL0     O 5303   0.957   3.579   6.684  0.0381 -0.0751  0.3761
  781MOL0     C 5304   0.864   3.634   6.766  0.7405 -0.3280  0.1676
  781MOL0     C 5305   0.853   3.586   6.899  0.0215  0.7799 -0.3544
  781MOL0     C 5306   0.745   3.636   6.984  0.3142  0.0413  0.0094
  781MOL0     C 5307   0.675   3.749   6.946  0.4857  0.0208 -0.0600
  781MOL0     O 5308   0.586   3.806   7.046 -0.2312  0.3809  0.0386
  781MOL0     C 5309   0.448   3.798   7.003 -0.6698  0.5183  0.2895
  781MOL0     C 5310   0.372   3.934   7.006  0.5379 -0.2262  0.3390
  781MOL0     C 5311   0.340   3.980   7.146  0.3490  0.5182 -0.2202
  781MOL0     C 5312   0.201   4.059   7.159 -0.4013 -0.0611 -0.9121
  781MOL0     C 5313   0.192   4.131   7.303  0.1420  0.3526  0.4281
  781MOL0     C 5314   0.184   4.053   7.436  0.0029  0.6818 -0.4150
  781MOL0     C 5315   0.100   3.919   7.420  0.9988 -0.3708 -0.1517
  781MOL0     C 5316   0.023   3.889   7.553 -0.0030 -0.8865 -0.1086
  781MOL0     N 5317   0.110   3.816   7.640  1.0224 -0.2344 -0.2072
  781MOL0     C 5318   0.157   3.685   7.636 -0.8811  1.1268 -0.1594
  781MOL0     C 5319   0.193   3.659   7.762 -0.2109  0.4106  0.1015
  781MOL0     C 5320   0.263   3.534   7.808  0.7530  0.3061 -0.2722
  781MOL0     C 5321   0.372   3.534   7.918  0.0570  0.9163  0.2437
  781MOL0     C 5322   0.421   3.393   7.958  0.0439 -0.1201  0.1593
  781MOL0     C 5323   0.474   3.306   7.850 -0.2458  0.4828  0.2745
  781MOL0     O 5324   0.574   3.393   7.776  0.2514 -0.3354  0.5946
  781MOL0     C 5325   0.605   3.333   7.651 -0.4300  0.2490 -0.2709
  781MOL0     C 5326   0.513   3.284   7.551 -0.1561  0.1531  0.5013
  781MOL0     C 5327   0.552   3.233   7.420 -0.1619 -1.0316  0.0044
  781MOL0     C 5328   0.437   3.201   7.330  0.6020  0.2978 -0.6229
  781MOL0     C 5329   0.695   3.222   7.402  0.6129 -0.3918  0.8154
  781MOL0     C 5330   0.749   3.166   7.276  0.3586 -0.1956  0.0194
  781MOL0     O 5331   0.866   3.209   7.237  0.0049 -0.0439  0.6637
  781MOL0     C 5332   0.920   3.178   7.113  1.3436  0.5030  0.8393
  781MOL0     C 5333   1.017   3.078   7.090 -0.5203 -0.0467  0.7173
  781MOL0     C 5334   1.066   3.046   6.968 -0.8881 -0.8544 -0.1787
  781MOL0     C 5335   1.023   3.113   6.859 -0.7315 -0.4860 -0.9588
  781MOL0     O 5336   1.070   3.090   6.736 -0.1260  0.4677 -0.0342
  781MOL0     C 5337   1.006   2.983   6.668  0.6429  0.0335  0.2661
  781MOL0     C 5338   1.081   2.849   6.686 -0.5624  0.2992  0.3945
  781MOL0     C 5339   1.022   2.736   6.591  0.1402  0.2953 -0.2410
  781MOL0     C 5340   1.061   2.738   6.450 -0.1092 -0.9935  0.6229
  781MOL0     C 5341   1.001   2.632   6.364  0.1169  1.2763  0.0036
  781MOL0     C 5342   0.853   2.629   6.352 -1.0256 -0.0158 -0.6862
  781MOL0     C 5343   0.815   2.545   6.235  0.8813 -0.5244 -1.1597
  781MOL0     C 5344   0.844   2.604   6.100 -0.8939  0.0167  0.1375
  781MOL0    Cl 5345   0.778   2.506   5.965  0.1831 -0.1863 -0.3036
  781MOL0     C 5346   0.916   3.215   6.872 -0.4395  0.1677  1.4607
  781MOL0     C 5347   0.872   3.251   7.000 -0.7969 -0.0632  0.4484
  781MOL0     O 5348   0.691   3.066   7.228 -0.4088  0.6787  0.4380
  781MOL0     C 5349   0.779   3.257   7.505 -0.2793  0.1241 -0.1065
  781MOL0     C 5350   0.732   3.314   7.627 -0.3077  0.6194  0.0209
  781MOL0     N 5351   0.171   3.763   7.837  0.1809  0.0872 -0.7170
  781MOL0     N 5352   0.129   3.862   7.767 -0.0076 -0.0830 -0.1646
  781MOL0     C 5353   0.696   3.805   6.816  0.9950  0.4452  0.2358
  781MOL0     C 5354   0.785   3.741   6.729 -0.5218  0.5630 -0.6635
  781MOL0     C 5355   1.010   3.409   6.513  0.2234 -0.4230 -0.7390
  781MOL0     C 5356   0.997   3.346   6.390  0.2422 -0.1060  0.0618
  781MOL0     C 5357   1.105   3.267   6.340  0.0101  0.1454 -0.4974
  781MOL0     C 5358   1.225   3.245   6.412  0.3981 -0.1270  1.0535
  781MOL0     O 5359   1.323   3.166   6.356 -0.1212  0.5041  0.6141
  781MOL0     C 5360   1.456   3.174   6.393 -0.8235  0.1880  0.0475
  781MOL0     C 5361   1.554   3.207   6.277  0.2554 -0.2728  0.4312
  781MOL0     C 5362   1.698   3.204   6.326 -0.7432  0.9636 -1.0070
  781MOL0     C 5363   1.799   3.277   6.241  0.0651  0.1654  0.5494
  781MOL0     C 5364   1.802   3.229   6.103  0.7089  0.6126 -0.5662
  781MOL0     C 5365   1.777   3.191   5.990 -0.3170  0.5161  0.0166
  781MOL0     C 5366   1.224   3.296   6.544  0.3586 -0.7433  0.1975
  781MOL0     C 5367   1.116   3.371   6.596  0.5406  0.1301  0.0218
  781MOL0     H 5368   0.913   3.498   6.919 -2.3955 -0.2359  3.4136
  781MOL0     H 5369   0.727   3.593   7.081  1.3464 -0.5281 -0.0354
  781MOL0     H 5370   0.439   3.748   6.906 -3.6195  3.2679 -1.0270
  781MOL0     H 5371   0.407   3.719   7.066 -0.6757 -2.6383 -3.3581
  781MOL0     H 5372   0.429   4.011   6.952 -2.3702  2.3778  0.6845
  781MOL0     H 5373   0.288   3.928   6.936  1.7228 -1.9623 -1.0074
  781MOL0     H 5374   0.348   3.892   7.209  0.9963  0.6248 -0.1510
  781MOL0     H 5375   0.420   4.046   7.182  1.4239 -0.7434 -0.2367
  781MOL0     H 5376   0.198   4.139   7.084  2.0078  0.5458 -0.4308
  781MOL0     H 5377   0.119   3.988   7.143  1.5871 -2.0663 -2.9118
  781MOL0     H 5378   0.275   4.203   7.300  0.0501  0.4601 -2.1780
  781MOL0     H 5379   0.104   4.197   7.299  1.1110  1.6379 -0.6073
  781MOL0     H 5380   0.280   4.020   7.478  0.3587  4.3024  2.1047
  781MOL0     H 5381   0.153   4.121   7.516 -3.5917 -0.7661 -0.4081
  781MOL0     H 5382   0.012   3.939   7.358  0.2764 -1.8199  0.3489
  781MOL0     H 5383   0.162   3.834   7.391  0.0539 -0.5445 -1.7915
  781MOL0     H 5384  -0.069   3.831   7.545 -0.7566  0.3776 -0.8416
  781MOL0     H 5385  -0.009   3.978   7.608 -1.5318 -1.6632  0.3096
  781MOL0     H 5386   0.160   3.631   7.541  2.3759  4.0289 -1.9575
  781MOL0     H 5387   0.190   3.466   7.853  3.9045 -0.2966  4.6497
  781MOL0     H 5388   0.309   3.488   7.720 -0.8767 -1.3790 -0.3283
  781MOL0     H 5389   0.325   3.577   8.008  1.1939 -0.8120  1.7386
  781MOL0     H 5390   0.463   3.587   7.890  0.2893 -0.0080 -0.8043
  781MOL0     H 5391   0.343   3.337   8.010 -0.3082  0.3769  0.1750
  781MOL0     H 5392   0.509   3.393   8.024 -0.8722 -0.9611  1.4216
  781MOL0     H 5393   0.385   3.284   7.790 -0.7618 -1.3995  1.6497
  781MOL0     H 5394   0.523   3.214   7.881  1.8510  0.8727 -1.6527
  781MOL0     H 5395   0.405   3.297   7.554 -0.5225 -2.5498  0.9617
  781MOL0     H 5396   0.417   3.287   7.265 -0.6940  2.0399  1.9176
  781MOL0     H 5397   0.453   3.115   7.264  0.0729  0.8527 -1.5025
  781MOL0     H 5398   0.348   3.190   7.392  1.0251  0.5893  0.0433
  781MOL0     H 5399   1.039   3.004   7.167  2.7399  2.5033  2.4588
  781MOL0     H 5400   1.141   2.969   6.950  3.2634  2.8096 -0.0939
  781MOL0     H 5401   0.901   2.979   6.697  0.2014  3.4594 -0.4935
  781MOL0     H 5402   1.006   3.011   6.562 -2.3945  0.0407  0.1873
  781MOL0     H 5403   1.189   2.859   6.672 -0.1537  0.8226  3.2355
  781MOL0     H 5404   1.081   2.810   6.789  2.7610  3.3034  1.7122
  781MOL0     H 5405   0.915   2.716   6.602 -0.1332  1.4430 -0.6563
  781MOL0     H 5406   1.067   2.650   6.641  1.3610  0.6641 -0.6821
  781MOL0     H 5407   1.023   2.832   6.410 -1.1152  0.0407  3.6654
  781MOL0     H 5408   1.170   2.737   6.453  0.0787  3.3044  0.8793
  781MOL0     H 5409   1.021   2.541   6.421  0.2207  1.2657 -0.0509
  781MOL0     H 5410   1.048   2.623   6.266 -2.2022  4.0335 -1.5141
  781MOL0     H 5411   0.811   2.590   6.445  4.2117  1.6826  2.8799
  781MOL0     H 5412   0.828   2.735   6.343 -0.9718  0.1166  0.5089
  781MOL0     H 5413   0.707   2.533   6.246  0.7824  1.4419  0.6911
  781MOL0     H 5414   0.853   2.446   6.261  0.3424 -0.1709  1.1981
  781MOL0     H 5415   0.950   2.623   6.082 -1.2286  1.4902 -0.3817
  781MOL0     H 5416   0.808   2.707   6.101  0.8151  0.6382  0.8936
  781MOL0     H 5417   0.875   3.259   6.782  0.9353  0.5594  0.9995
  781MOL0     H 5418   0.778   3.304   7.015 -0.6959 -0.0457  1.0382
  781MOL0     H 5419   0.886   3.241   7.498  0.2354  3.2056 -0.8214
  781MOL0     H 5420   0.808   3.342   7.700 -0.4973  3.1839 -0.6569
  781MOL0     H 5421   0.643   3.892   6.777  2.4994  0.7000 -1.3195
  781MOL0     H 5422   0.808   3.778   6.629  0.5784  0.7167 -0.3727
  781MOL0     H 5423   0.905   3.365   6.336  0.8437 -0.7576 -1.2434
  781MOL0     H 5424   1.100   3.226   6.240 -3.5621  1.3038 -0.9631
  781MOL0     H 5425   1.478   3.247   6.472  1.3091 -0.9665  0.5981
  781MOL0     H 5426   1.486   3.072   6.419  3.6381  0.5604 -2.6679
  781MOL0     H 5427   1.533   3.306   6.235  0.1082 -0.2019  0.6730
  781MOL0     H 5428   1.546   3.140   6.191 -0.1088  1.4711 -0.9381
  781MOL0     H 5429   1.741   3.105   6.344 -1.1480  1.2576  2.1648
  781MOL0     H 5430   1.709   3.235   6.431  2.4343 -1.0566 -0.5879
  781MOL0     H 5431   1.898   3.276   6.287 -0.0851 -1.1613  0.8993
  781MOL0     H 5432   1.767   3.381   6.228  0.0838  0.8246  4.4689
  781MOL0     H 5433   1.723   3.164   5.901 -3.2290 -0.7265  2.0184
  781MOL0     H 5434   1.310   3.296   6.610  0.1721  2.6457  0.6024
  781MOL0     H 5435   1.133   3.416   6.693 -0.9676  1.6857 -0.3797
  782MOL0     O 5436   6.967   8.298   6.964  0.0761  0.0235 -1.1642
  782MOL0     C 5437   7.007   8.343   7.074 -0.6926  0.3347  0.6763
  782MOL0     O 5438   7.005   8.472   7.108 -1.1356  0.1865 -0.0458
  782MOL0     C 5439   6.924   8.559   7.045 -0.1321 -0.0671  0.2266
  782MOL0     C 5440   6.783   8.575   7.076 -0.1397 -0.3171 -0.7990
  782MOL0     C 5441   6.701   8.657   6.987  0.2278 -0.1347 -0.0509
  782MOL0     C 5442   6.766   8.717   6.878 -0.4407 -0.1373 -0.1862
  782MOL0     O 5443   6.689   8.791   6.801  0.9574  0.0365  0.2432
  782MOL0     C 5444   6.715   8.825   6.665  1.2493  1.2541 -0.5060
  782MOL0     C 5445   6.772   8.951   6.636 -0.1229 -0.6049  0.7055
  782MOL0     C 5446   6.691   9.073   6.687 -0.4183  0.7564 -0.2991
  782MOL0     C 5447   6.771   9.198   6.649 -0.4144  0.6035 -0.0377
  782MOL0     C 5448   6.704   9.319   6.713 -0.1329 -1.0109 -0.1580
  782MOL0     C 5449   6.783   9.453   6.720 -1.9736  0.7358  0.5496
  782MOL0     C 5450   6.714   9.545   6.827  0.8763 -0.6384 -0.2978
  782MOL0     C 5451   6.807   9.669   6.842  0.0685  0.0212  0.0557
  782MOL0     N 5452   6.781   9.765   6.954  0.7226  0.0767  1.0645
  782MOL0     C 5453   6.735   9.747   7.078  0.3178  0.0979  0.1476
  782MOL0     C 5454   6.731   9.874   7.127 -0.1572  0.1975 -0.1384
  782MOL0     C 5455   6.699   9.918   7.270 -0.8146 -0.1405 -0.6902
  782MOL0     C 5456   6.555   9.881   7.306  0.5270 -0.4815 -0.2121
  782MOL0     C 5457   6.456   9.978   7.238  0.0605  0.2685 -0.2850
  782MOL0     C 5458   6.304   9.937   7.269 -0.8200  0.0501 -0.7600
  782MOL0     O 5459   6.275   9.947   7.407 -0.1720 -0.3470  0.0529
  782MOL0     C 5460   6.145   9.909   7.451 -0.2690 -0.5802 -0.4352
  782MOL0     C 5461   6.121   9.909   7.590  0.4508 -0.5727 -1.3104
  782MOL0     C 5462   5.994   9.895   7.644 -0.2043 -1.6016  0.6415
  782MOL0     C 5463   5.986   9.917   7.800  0.0800 -0.8039 -0.3147
  782MOL0     C 5464   5.872   9.884   7.561 -0.6881 -0.2329  0.4685
  782MOL0     C 5465   5.737   9.878   7.626  0.7927  0.2268  0.1950
  782MOL0     O 5466   5.697   9.772   7.704 -0.5967 -0.0025  0.0098
  782MOL0     C 5467   5.577   9.775   7.764  0.1170  0.5122 -0.6487
  782MOL0     C 5468   5.485   9.678   7.730 -1.2009 -1.1609 -0.1386
  782MOL0     C 5469   5.355   9.680   7.782 -0.0555  0.7736 -1.0267
  782MOL0     C 5470   5.313   9.778   7.875  0.0983  0.6038  0.4420
  782MOL0     O 5471   5.192   9.781   7.932  0.1253  0.1963  0.4171
  782MOL0     C 5472   5.086   9.752   7.844 -0.3342  0.0271  0.8681
  782MOL0     C 5473   4.953   9.784   7.903 -0.0043  0.8958 -0.0783
  782MOL0     C 5474   4.909   9.678   7.999  0.0509  0.4721 -0.7240
  782MOL0     C 5475   4.760   9.685   8.039  0.0740  0.6143  0.0894
  782MOL0     C 5476   4.712   9.571   8.132 -0.1300  0.5990  0.8961
  782MOL0     C 5477   4.658   9.447   8.060 -0.3487  0.5223 -0.2435
  782MOL0     C 5478   4.588   9.350   8.165  0.5690  0.0141  0.3324
  782MOL0     C 5479   4.550   9.221   8.094  0.0583  0.2106  1.0083
  782MOL0    Cl 5480   4.381   9.194   8.079  0.0620  0.0880 -0.2815
  782MOL0     C 5481   5.407   9.877   7.911  0.3883  0.1342  0.6240
  782MOL0     C 5482   5.533   9.874   7.853  0.1305  0.2850  0.2125
  782MOL0     O 5483   5.670   9.972   7.588 -0.0660 -0.1620  0.4221
  782MOL0     C 5484   5.895   9.876   7.424  0.3696 -1.1151 -0.5371
  782MOL0     C 5485   6.023   9.886   7.372 -0.8140 -0.4803 -0.2695
  782MOL0     N 5486   6.755   9.966   7.030 -0.1943  0.5306  0.5754
  782MOL0     N 5487   6.790   9.898   6.921  0.2890 -0.2081 -0.0861
  782MOL0     C 5488   6.897   8.710   6.861  0.4966 -0.6528 -0.9742
  782MOL0     C 5489   6.977   8.627   6.942  0.3996  0.4694  0.4755
  782MOL0     C 5490   7.045   8.235   7.165  0.5880 -0.2692  0.2215
  782MOL0     C 5491   7.031   8.099   7.125 -0.0809  0.0625 -0.2620
  782MOL0     C 5492   7.072   7.998   7.213  0.2881 -0.1414  0.2751
  782MOL0     C 5493   7.133   8.033   7.334 -0.0360  0.2160 -0.5092
  782MOL0     O 5494   7.186   7.930   7.414 -0.1405 -0.3490  0.6411
  782MOL0     C 5495   7.216   7.953   7.551  0.3570  0.1589  0.3860
  782MOL0     C 5496   7.097   7.988   7.631 -0.5558  0.9431 -0.6977
  782MOL0     C 5497   7.002   7.875   7.624  0.6245  0.9724  1.3177
  782MOL0     C 5498   6.879   7.920   7.703 -0.9974  0.4111 -0.6114
  782MOL0     C 5499   6.776   7.826   7.669 -0.5320  0.1044 -0.0521
  782MOL0     C 5500   6.682   7.758   7.637  0.4153  0.2039 -0.4277
  782MOL0     C 5501   7.141   8.166   7.372  0.5855 -0.4678  0.8747
  782MOL0     C 5502   7.099   8.270   7.290  0.0028 -0.3966 -0.7568
  782MOL0     H 5503   6.735   8.509   7.148 -0.9678 -1.1381 -2.0681
  782MOL0     H 5504   6.596   8.675   7.010 -0.5298 -0.7839 -2.7349
  782MOL0     H 5505   6.789   8.750   6.635  0.0554 -0.5409  0.7886
  782MOL0     H 5506   6.621   8.823   6.608  0.2225 -1.2485  1.0893
  782MOL0     H 5507   6.877   8.958   6.669  0.4498 -2.1716 -0.6176
  782MOL0     H 5508   6.784   8.945   6.528 -1.3585 -2.4586  0.6280
  782MOL0     H 5509   6.592   9.071   6.640 -0.9475 -1.4268  0.8105
  782MOL0     H 5510   6.695   9.057   6.795 -0.8275  1.4388 -0.1760
  782MOL0     H 5511   6.874   9.191   6.686 -0.1436 -0.0326 -0.8646
  782MOL0     H 5512   6.766   9.200   6.539 -2.5274  1.3335  0.0287
  782MOL0     H 5513   6.605   9.332   6.667 -0.9764 -2.4282  1.1477
  782MOL0     H 5514   6.681   9.298   6.818 -2.0546  0.7984 -0.1448
  782MOL0     H 5515   6.880   9.420   6.759 -3.0149  1.3917  3.9865
  782MOL0     H 5516   6.801   9.493   6.620 -0.3951 -0.3864  0.3378
  782MOL0     H 5517   6.611   9.576   6.806 -0.1261 -0.0755  4.2122
  782MOL0     H 5518   6.709   9.498   6.926 -2.3834  1.2079  0.5765
  782MOL0     H 5519   6.810   9.721   6.745 -0.7919  1.0535  0.5633
  782MOL0     H 5520   6.916   9.656   6.841  0.5523  3.0941 -1.5836
  782MOL0     H 5521   6.722   9.658   7.139  2.4260  1.4838  2.8746
  782MOL0     H 5522   6.777   9.868   7.328 -0.2282  2.7030  1.1570
  782MOL0     H 5523   6.712  10.026   7.280 -0.5499 -0.0932 -1.4246
  782MOL0     H 5524   6.541   9.893   7.414  2.8790  1.0638 -0.0259
  782MOL0     H 5525   6.534   9.775   7.285 -2.2684 -0.0274 -0.1225
  782MOL0     H 5526   6.474   9.971   7.130  2.3716 -2.5407  0.1636
  782MOL0     H 5527   6.480  10.078   7.275  0.2956 -0.0091  0.3178
  782MOL0     H 5528   6.302   9.830   7.244  1.8430 -0.1463 -0.3710
  782MOL0     H 5529   6.239  10.002   7.209 -4.5516 -1.3687  1.4126
  782MOL0     H 5530   6.207   9.940   7.648 -0.4912 -2.2662  1.1193
  782MOL0     H 5531   5.962  10.023   7.812 -1.3944 -0.8076 -2.5664
  782MOL0     H 5532   5.907   9.861   7.851  1.1511 -2.4413 -0.3769
  782MOL0     H 5533   6.085   9.897   7.843  0.2658  1.1431  0.2977
  782MOL0     H 5534   5.518   9.605   7.657  0.2336  0.3294 -1.0611
  782MOL0     H 5535   5.304   9.595   7.737  2.9590 -2.3376  0.8622
  782MOL0     H 5536   5.104   9.820   7.760  0.4424 -0.9283  0.2344
  782MOL0     H 5537   5.096   9.649   7.809 -1.2219 -0.0064  0.6922
  782MOL0     H 5538   4.953   9.883   7.949 -3.0171  1.5236 -1.2336
  782MOL0     H 5539   4.886   9.777   7.817  1.7211  0.9256 -1.4905
  782MOL0     H 5540   4.969   9.684   8.091  0.9576  2.8961 -1.3865
  782MOL0     H 5541   4.935   9.581   7.955  0.4355 -0.9465  2.3483
  782MOL0     H 5542   4.736   9.775   8.097 -1.8780  1.3562 -1.7378
  782MOL0     H 5543   4.693   9.684   7.953  0.4944 -3.0192 -0.3581
  782MOL0     H 5544   4.636   9.615   8.198 -0.9842  1.0275 -0.3443
  782MOL0     H 5545   4.786   9.523   8.196 -2.4073 -4.7329  0.1225
  782MOL0     H 5546   4.595   9.481   7.977 -0.0619 -3.0831 -2.1403
  782MOL0     H 5547   4.737   9.393   8.008  0.1542  2.2153 -1.3107
  782MOL0     H 5548   4.500   9.409   8.194  1.2773  1.5117 -0.4888
  782MOL0     H 5549   4.653   9.320   8.247  0.7041 -0.9503 -0.1101
  782MOL0     H 5550   4.586   9.141   8.160 -2.5343 -1.0499  1.0132
  782MOL0     H 5551   4.598   9.217   7.996 -1.8487  1.1250 -0.0197
  782MOL0     H 5552   5.385   9.960   7.977 -1.7679  1.3446 -1.4698
  782MOL0     H 5553   5.605   9.948   7.887 -1.2755  1.5969  0.4531
  782MOL0     H 5554   5.807   9.861   7.363  1.3511 -1.6616 -1.8785
  782MOL0     H 5555   6.049   9.863   7.269 -2.1561 -3.2639 -0.0970
  782MOL0     H 5556   6.934   8.759   6.772  0.0240  2.0466  0.2215
  782MOL0     H 5557   7.079   8.613   6.909  0.1274  0.4742 -0.4188
  782MOL0     H 5558   6.984   8.079   7.028 -0.2198  2.3564 -0.7232
  782MOL0     H 5559   7.066   7.896   7.175 -0.0977 -0.1665  0.3992
  782MOL0     H 5560   7.246   7.861   7.601 -1.8783  1.8630  5.5267
  782MOL0     H 5561   7.292   8.031   7.560 -0.8333  1.1326  2.6631
  782MOL0     H 5562   7.043   8.081   7.609 -0.8748  1.4479  1.8894
  782MOL0     H 5563   7.123   7.982   7.737 -3.0800  1.0147 -0.0146
  782MOL0     H 5564   7.043   7.786   7.672  0.1742  0.8992  1.5773
  782MOL0     H 5565   6.971   7.856   7.521 -0.6571  3.2464  1.2064
  782MOL0     H 5566   6.850   8.014   7.656  2.3176  2.1719  0.4864
  782MOL0     H 5567   6.895   7.927   7.812  2.2535 -1.9543 -0.7866
  782MOL0     H 5568   6.600   7.694   7.611  1.3318 -0.4835 -1.8005
  782MOL0     H 5569   7.193   8.195   7.464  2.2859  1.6951 -0.6556
  782MOL0     H 5570   7.102   8.369   7.333 -1.4842 -0.0398 -1.4269
  783MOL0     O 5571   1.240   2.055   3.662  0.2209  0.1256  0.3940
  783MOL0     C 5572   1.286   1.960   3.608  0.1875  0.0722 -0.4416
  783MOL0     O 5573   1.283   1.935   3.468  0.2971 -0.1534 -0.6557
  783MOL0     C 5574   1.204   2.016   3.385 -0.8856 -0.7102 -0.4608
  783MOL0     C 5575   1.064   2.016   3.405  0.2132 -0.3483 -0.4226
  783MOL0     C 5576   0.975   2.089   3.316 -0.8655 -0.2639  0.1162
  783MOL0     C 5577   1.032   2.149   3.193 -0.3040 -0.6456 -0.2131
  783MOL0     O 5578   0.962   2.207   3.088  0.1179  0.5234  0.5566
  783MOL0     C 5579   0.822   2.177   3.087 -0.8601 -0.7896 -0.2168
  783MOL0     C 5580   0.781   2.049   2.997 -0.3051  0.1196  0.7195
  783MOL0     C 5581   0.854   1.924   3.050  0.0876 -0.3613 -1.3048
  783MOL0     C 5582   0.826   1.805   2.968 -0.4036  0.6937 -0.0918
  783MOL0     C 5583   0.903   1.784   2.836 -0.0788  0.2592 -0.5570
  783MOL0     C 5584   0.852   1.662   2.763 -0.2265 -0.1754 -0.4741
  783MOL0     C 5585   0.951   1.616   2.658 -0.1610  0.4637  0.3783
  783MOL0     C 5586   0.895   1.494   2.577 -0.2297 -0.0135  0.0715
  783MOL0     N 5587   0.970   1.434   2.471  0.4878  0.4266  0.7245
  783MOL0     C 5588   1.096   1.468   2.437  0.2767  0.0817 -0.1539
  783MOL0     C 5589   1.121   1.384   2.333  0.5510 -0.5585  0.4018
  783MOL0     C 5590   1.263   1.392   2.267 -1.4210 -0.0681 -0.3243
  783MOL0     C 5591   1.270   1.316   2.127 -0.0814 -1.2426 -0.1696
  783MOL0     C 5592   1.378   1.356   2.038 -0.1500  0.5130  0.2095
  783MOL0     C 5593   1.383   1.268   1.906  0.3283  0.5999  0.1336
  783MOL0     O 5594   1.500   1.311   1.829  0.6492  0.2897 -0.8144
  783MOL0     C 5595   1.488   1.399   1.719  0.2778  1.1432  0.4246
  783MOL0     C 5596   1.387   1.383   1.626  0.2176  0.1986 -0.0952
  783MOL0     C 5597   1.374   1.475   1.520 -0.4358 -0.5217  0.5597
  783MOL0     C 5598   1.260   1.447   1.423  0.5054  0.7069  0.3460
  783MOL0     C 5599   1.460   1.586   1.510  0.2570 -0.3711  0.3950
  783MOL0     C 5600   1.461   1.677   1.393  0.0032 -0.2296 -0.5071
  783MOL0     O 5601   1.459   1.807   1.428 -0.2238  0.3969  0.6345
  783MOL0     C 5602   1.485   1.896   1.325  0.3693  0.2773  0.1201
  783MOL0     C 5603   1.461   2.023   1.365 -0.0830 -0.4599  0.1117
  783MOL0     C 5604   1.500   2.131   1.291 -0.3005 -1.0352 -0.0997
  783MOL0     C 5605   1.573   2.115   1.176 -0.2313  0.0913  0.1264
  783MOL0     O 5606   1.620   2.223   1.105  0.1320  0.2539 -0.5128
  783MOL0     C 5607   1.687   2.326   1.185  0.7531 -0.3867 -0.2323
  783MOL0     C 5608   1.778   2.420   1.095 -0.2851  0.5130 -1.0108
  783MOL0     C 5609   1.811   2.552   1.167 -0.0934 -0.0543 -0.4831
  783MOL0     C 5610   1.863   2.530   1.309 -0.2235  0.8476  0.0684
  783MOL0     C 5611   1.922   2.648   1.393  0.9159 -0.7872  0.2235
  783MOL0     C 5612   1.813   2.748   1.425 -0.0951  0.1679  0.8819
  783MOL0     C 5613   1.775   2.840   1.304 -0.3438 -1.0681 -0.7230
  783MOL0     C 5614   1.755   2.984   1.364  0.2100  0.4645  0.0230
  783MOL0    Cl 5615   1.637   2.989   1.506  0.1046  0.3717 -0.3038
  783MOL0     C 5616   1.585   1.990   1.119 -0.0628 -0.1338  0.4076
  783MOL0     C 5617   1.539   1.878   1.191 -0.8988  0.0245 -0.3100
  783MOL0     O 5618   1.443   1.632   1.282  0.4794  0.1504 -0.8700
  783MOL0     C 5619   1.562   1.595   1.606  0.8816 -0.2528 -0.0710
  783MOL0     C 5620   1.584   1.496   1.704  0.4066 -0.2405  0.5228
  783MOL0     N 5621   1.010   1.306   2.301  0.1596  0.2303  0.5240
  783MOL0     N 5622   0.918   1.346   2.386  0.2964  0.3090 -0.2724
  783MOL0     C 5623   1.169   2.147   3.178 -0.4494  0.1291  0.6974
  783MOL0     C 5624   1.255   2.081   3.272  0.4942 -0.1206  0.0462
  783MOL0     C 5625   1.357   1.859   3.683 -0.1405 -0.5538 -0.3526
  783MOL0     C 5626   1.338   1.873   3.825 -1.2837  0.6651 -0.6263
  783MOL0     C 5627   1.417   1.787   3.907 -0.0915  1.1594  0.3047
  783MOL0     C 5628   1.500   1.682   3.856  0.6038 -0.3318 -0.5016
  783MOL0     O 5629   1.578   1.609   3.939 -0.4800 -0.1358  0.4684
  783MOL0     C 5630   1.712   1.604   3.900 -0.2849  0.7158  0.4356
  783MOL0     C 5631   1.775   1.473   3.959  0.6212 -1.1826 -1.1845
  783MOL0     C 5632   1.804   1.507   4.110 -0.1078  0.3659  0.0715
  783MOL0     C 5633   1.935   1.436   4.137 -0.0710  0.6062 -0.1421
  783MOL0     C 5634   1.995   1.447   4.273  0.1375  0.0785 -0.3068
  783MOL0     C 5635   2.070   1.466   4.371  0.0455  0.1530 -0.0839
  783MOL0     C 5636   1.507   1.679   3.718  0.2836 -0.6703 -0.5622
  783MOL0     C 5637   1.435   1.756   3.630 -0.7556 -1.3527 -0.7148
  783MOL0     H 5638   1.028   1.949   3.482  0.9861 -1.8645 -1.3383
  783MOL0     H 5639   0.870   2.080   3.340 -1.1933 -0.1033 -1.2001
  783MOL0     H 5640   0.766   2.183   3.181  0.0139 -0.0251  0.2757
  783MOL0     H 5641   0.777   2.266   3.040  0.1931  0.1170  0.4391
  783MOL0     H 5642   0.675   2.042   2.975 -0.0224 -3.0464 -0.0797
  783MOL0     H 5643   0.821   2.067   2.897 -1.1097  1.5504  0.6189
  783MOL0     H 5644   0.961   1.939   3.064 -0.3379  1.6701  0.2893
  783MOL0     H 5645   0.818   1.907   3.151  2.6561  0.2371 -0.2208
  783MOL0     H 5646   0.832   1.708   3.017 -0.6917  0.0635 -1.2865
  783MOL0     H 5647   0.718   1.814   2.952 -0.3347 -1.1188 -1.8534
  783MOL0     H 5648   0.880   1.862   2.762  1.5410 -0.9407 -2.4331
  783MOL0     H 5649   1.012   1.785   2.850 -0.3129 -0.1122  1.4724
  783MOL0     H 5650   0.856   1.583   2.839  1.1691 -1.0338 -1.3900
  783MOL0     H 5651   0.745   1.677   2.744  0.0282  1.6015 -0.6881
  783MOL0     H 5652   0.964   1.695   2.583  1.1961 -2.5860 -2.8720
  783MOL0     H 5653   1.045   1.581   2.702 -0.5532 -2.2266 -0.7546
  783MOL0     H 5654   0.804   1.538   2.536 -0.4096 -1.8237 -1.6096
  783MOL0     H 5655   0.863   1.416   2.648 -2.1624  0.6765  0.0064
  783MOL0     H 5656   1.165   1.545   2.470 -0.5759  0.5899  0.4815
  783MOL0     H 5657   1.271   1.497   2.237 -1.3648 -0.7561 -2.9882
  783MOL0     H 5658   1.345   1.375   2.337  0.0621  2.1280 -1.4239
  783MOL0     H 5659   1.169   1.328   2.087  0.3984 -0.0185 -1.0734
  783MOL0     H 5660   1.285   1.208   2.136 -2.4574 -1.5361  1.0039
  783MOL0     H 5661   1.473   1.338   2.090 -1.1358 -2.4856  1.2353
  783MOL0     H 5662   1.373   1.459   2.004  1.3445  1.3488  2.3059
  783MOL0     H 5663   1.298   1.279   1.838  0.4234 -0.2176 -0.1370
  783MOL0     H 5664   1.387   1.161   1.928 -0.2125  0.8946  1.8102
  783MOL0     H 5665   1.302   1.315   1.636  1.0448 -0.6969  1.1830
  783MOL0     H 5666   1.194   1.363   1.449  2.0321 -0.1780  1.5093
  783MOL0     H 5667   1.194   1.534   1.430 -1.7605 -0.9787  1.2218
  783MOL0     H 5668   1.290   1.439   1.318 -0.0934 -0.6269  0.2478
  783MOL0     H 5669   1.401   2.041   1.454 -0.2229 -0.4793  0.0228
  783MOL0     H 5670   1.481   2.220   1.350  0.0974 -1.6148  0.9283
  783MOL0     H 5671   1.604   2.386   1.225  0.2475 -1.3267  0.1765
  783MOL0     H 5672   1.743   2.274   1.263  0.5205  0.2074  0.3442
  783MOL0     H 5673   1.866   2.360   1.069  0.0520  0.9151 -0.7972
  783MOL0     H 5674   1.735   2.445   0.997  2.0809 -0.2478 -2.3247
  783MOL0     H 5675   1.716   2.607   1.165  0.1460  0.4058  0.4744
  783MOL0     H 5676   1.887   2.609   1.114  0.4467  0.8326  1.1874
  783MOL0     H 5677   1.779   2.479   1.357 -0.4453 -0.2811 -1.4367
  783MOL0     H 5678   1.940   2.453   1.301  3.1428  4.1037 -1.8719
  783MOL0     H 5679   2.010   2.701   1.355 -1.5128  2.4639 -1.3813
  783MOL0     H 5680   1.956   2.609   1.489  0.0557 -2.3463 -0.0718
  783MOL0     H 5681   1.726   2.690   1.458  0.9930 -1.8075  0.4623
  783MOL0     H 5682   1.853   2.802   1.512  2.9389  1.2681 -1.0329
  783MOL0     H 5683   1.686   2.791   1.262  1.4630 -4.5277 -0.9031
  783MOL0     H 5684   1.841   2.842   1.217  0.0749  1.2694 -0.4199
  783MOL0     H 5685   1.713   3.047   1.285  0.6895 -1.9276 -2.2783
  783MOL0     H 5686   1.851   3.028   1.392  1.0746 -1.4358  0.1924
  783MOL0     H 5687   1.651   1.982   1.033  2.1744 -1.1741  2.1465
  783MOL0     H 5688   1.571   1.783   1.148 -0.8892 -0.0757 -0.0788
  783MOL0     H 5689   1.630   1.679   1.603 -0.7624  1.2626  1.8086
  783MOL0     H 5690   1.661   1.498   1.780  0.4533 -1.5629  0.5220
  783MOL0     H 5691   1.211   2.179   3.083 -0.3532 -3.8860 -0.7945
  783MOL0     H 5692   1.355   2.085   3.232  1.1731  0.9287  1.7151
  783MOL0     H 5693   1.272   1.949   3.865 -1.4561  1.0062 -1.5332
  783MOL0     H 5694   1.415   1.807   4.013 -0.5616 -0.3823  0.6162
  783MOL0     H 5695   1.732   1.597   3.793 -1.0442  0.5084  0.3027
  783MOL0     H 5696   1.760   1.700   3.925  1.3627  0.0023  0.0976
  783MOL0     H 5697   1.862   1.456   3.896  1.2547 -0.2434 -0.6012
  783MOL0     H 5698   1.703   1.392   3.951 -0.5092 -0.7675  2.5396
  783MOL0     H 5699   1.731   1.467   4.181  1.8308 -0.0616  1.9685
  783MOL0     H 5700   1.811   1.614   4.135  1.4837  0.0549  1.1270
  783MOL0     H 5701   2.018   1.460   4.071  2.7119 -1.0752  2.4976
  783MOL0     H 5702   1.907   1.330   4.132 -3.8969  1.0262  4.4180
  783MOL0     H 5703   2.137   1.506   4.444  0.4165  0.1106 -0.4004
  783MOL0     H 5704   1.559   1.592   3.678 -0.0526 -0.8881 -0.5383
  783MOL0     H 5705   1.435   1.738   3.523  0.1896  1.1950 -1.2104
  784MOL0     O 5706   7.016   5.778  11.131 -0.1956 -0.6168  0.1028
  784MOL0     C 5707   7.051   5.668  11.173  0.2535 -0.4932  0.5179
  784MOL0     O 5708   6.990   5.602  11.271  0.2483  0.1161 -0.4265
  784MOL0     C 5709   6.883   5.662  11.330 -0.3705  0.2771 -0.2792
  784MOL0     C 5710   6.881   5.688  11.475  0.7950 -0.5657  0.7965
  784MOL0     C 5711   6.770   5.747  11.534 -0.0316 -0.1118 -0.3716
  784MOL0     C 5712   6.647   5.759  11.466 -0.9129 -0.2611  0.5239
  784MOL0     O 5713   6.537   5.825  11.511  0.0352 -0.1405 -0.6129
  784MOL0     C 5714   6.497   5.805  11.650 -0.2263  0.6313 -0.2515
  784MOL0     C 5715   6.456   5.655  11.665  0.4446  0.5416  0.0225
  784MOL0     C 5716   6.385   5.633  11.802  0.7968 -0.1350 -0.2158
  784MOL0     C 5717   6.351   5.496  11.851 -0.1646  0.5184  0.2538
  784MOL0     C 5718   6.457   5.402  11.863 -0.5088 -0.1071 -1.4726
  784MOL0     C 5719   6.396   5.263  11.867  0.1050 -0.0023  0.2313
  784MOL0     C 5720   6.495   5.148  11.895  0.1042  1.2892  0.9656
  784MOL0     C 5721   6.432   5.001  11.910 -0.3665 -0.7037 -0.3637
  784MOL0     N 5722   6.523   4.893  11.963  0.3710 -0.9543 -0.2328
  784MOL0     C 5723   6.481   4.763  11.979 -0.2865  0.2773 -0.2228
  784MOL0     C 5724   6.593   4.684  11.966  0.4732  0.2567  0.0105
  784MOL0     C 5725   6.603   4.529  11.967 -0.5359 -0.5514  0.4073
  784MOL0     C 5726   6.734   4.465  12.028 -0.0924 -0.5390 -0.2451
  784MOL0     C 5727   6.716   4.309  12.021  0.0802 -0.1824 -1.2594
  784MOL0     C 5728   6.830   4.240  12.097  0.6692 -0.7855  0.0567
  784MOL0     O 5729   6.805   4.101  12.083  0.0645  0.1709  0.3326
  784MOL0     C 5730   6.908   4.012  12.102  0.3195 -0.4628 -0.1807
  784MOL0     C 5731   7.044   4.044  12.131 -0.6985  0.0540  0.3254
  784MOL0     C 5732   7.147   3.951  12.156 -0.1289 -0.4966  1.3940
  784MOL0     C 5733   7.283   4.001  12.192  0.3340 -0.2941 -0.8121
  784MOL0     C 5734   7.117   3.814  12.155 -0.7794 -0.1902  0.6229
  784MOL0     C 5735   7.210   3.704  12.185 -0.9924 -0.5101  0.0356
  784MOL0     O 5736   7.155   3.588  12.230 -0.0104  0.2300 -0.4130
  784MOL0     C 5737   7.252   3.484  12.229 -0.2526 -0.5591 -0.5327
  784MOL0     C 5738   7.252   3.420  12.349  0.0264 -0.0174 -0.2234
  784MOL0     C 5739   7.321   3.304  12.377  0.1745 -0.0131  1.1043
  784MOL0     C 5740   7.400   3.251  12.275 -1.0005 -0.6203 -0.5183
  784MOL0     O 5741   7.484   3.147  12.306  0.8930 -0.0083 -0.6834
  784MOL0     C 5742   7.623   3.163  12.276  0.4438  0.5497 -0.1211
  784MOL0     C 5743   7.698   3.051  12.362  0.5256  0.9761 -0.5833
  784MOL0     C 5744   7.846   3.069  12.360 -0.5896 -0.1285 -0.4894
  784MOL0     C 5745   7.927   2.952  12.408 -0.2602  0.1688 -0.1262
  784MOL0     C 5746   7.916   2.913  12.551  0.9245  0.7930 -0.3367
  784MOL0     C 5747   7.977   3.004  12.648 -0.0313 -0.6872  0.5294
  784MOL0     C 5748   7.990   2.957  12.791  1.1506 -0.4509  0.9462
  784MOL0     C 5749   8.062   3.061  12.884  0.4416 -0.8044 -0.2864
  784MOL0    Cl 5750   8.218   3.124  12.808  0.1612 -0.0412  0.6308
  784MOL0     C 5751   7.418   3.326  12.157  0.7302 -0.8110  0.3141
  784MOL0     C 5752   7.337   3.441  12.130  0.1673  0.8234  0.8803
  784MOL0     O 5753   7.325   3.723  12.157  0.3298  0.1914 -0.0456
  784MOL0     C 5754   6.992   3.780  12.115  0.3411  0.2636  0.3123
  784MOL0     C 5755   6.883   3.871  12.100 -0.2446  0.7654 -1.2049
  784MOL0     N 5756   6.701   4.766  11.955  0.2440 -0.1772  0.4259
  784MOL0     N 5757   6.659   4.894  11.958 -0.6468 -0.3096 -0.0509
  784MOL0     C 5758   6.648   5.742  11.329  0.2437  0.1819  0.2076
  784MOL0     C 5759   6.758   5.684  11.262  0.2096 -0.4397 -0.3988
  784MOL0     C 5760   7.161   5.588  11.107 -0.3119 -0.8450 -0.2462
  784MOL0     C 5761   7.198   5.609  10.966 -1.0597  0.1374  0.0981
  784MOL0     C 5762   7.297   5.526  10.914  0.4636  0.6397 -0.5390
  784MOL0     C 5763   7.366   5.430  10.986 -1.0617  0.2796 -1.2153
  784MOL0     O 5764   7.471   5.341  10.943 -0.4779 -0.2652 -0.6847
  784MOL0     C 5765   7.521   5.353  10.807  0.5703 -0.2113 -0.6817
  784MOL0     C 5766   7.643   5.257  10.798 -0.3071  0.1059 -0.3594
  784MOL0     C 5767   7.697   5.265  10.659  0.7240  0.3548 -0.2716
  784MOL0     C 5768   7.820   5.174  10.635 -0.6013 -0.1622 -0.5852
  784MOL0     C 5769   7.948   5.225  10.696 -0.2742 -0.4582  1.1071
  784MOL0     C 5770   8.035   5.285  10.745 -0.7918  0.3128  0.3851
  784MOL0     C 5771   7.322   5.409  11.116 -0.2013 -0.1527 -0.7932
  784MOL0     C 5772   7.233   5.491  11.175  0.3616  0.3523 -0.2552
  784MOL0     H 5773   6.975   5.675  11.528  1.8368  3.7796  0.4167
  784MOL0     H 5774   6.783   5.773  11.638  0.0762  0.4434 -0.5199
  784MOL0     H 5775   6.571   5.855  11.714 -0.5250  1.3575 -0.4558
  784MOL0     H 5776   6.409   5.864  11.678  1.0360  2.2801  0.4799
  784MOL0     H 5777   6.405   5.610  11.579  0.4240 -1.9804  1.2549
  784MOL0     H 5778   6.542   5.589  11.677 -0.4972 -1.0435 -1.5132
  784MOL0     H 5779   6.442   5.669  11.889 -2.2558  1.6345  1.2033
  784MOL0     H 5780   6.290   5.685  11.786 -0.6815 -2.5915  0.1521
  784MOL0     H 5781   6.302   5.493  11.949 -0.2660 -1.4419  0.1829
  784MOL0     H 5782   6.275   5.461  11.780  1.1945 -0.3583 -0.8192
  784MOL0     H 5783   6.522   5.409  11.775  2.5332 -3.8955  0.1738
  784MOL0     H 5784   6.526   5.426  11.945 -1.8217  1.0018 -0.6424
  784MOL0     H 5785   6.326   5.262  11.951 -0.6804 -0.7673 -0.4109
  784MOL0     H 5786   6.339   5.245  11.775  1.8254  1.6706 -1.2597
  784MOL0     H 5787   6.563   5.144  11.809 -1.7535 -0.7313 -0.5141
  784MOL0     H 5788   6.552   5.170  11.986  1.0497  0.9924  0.4549
  784MOL0     H 5789   6.385   4.979  11.813 -0.1042  0.2795 -0.7209
  784MOL0     H 5790   6.349   5.008  11.981 -0.2621  1.0351 -0.3727
  784MOL0     H 5791   6.376   4.738  11.988 -0.1159  0.2986  3.0392
  784MOL0     H 5792   6.503   4.507  12.006 -1.1617  1.2707 -0.0506
  784MOL0     H 5793   6.600   4.494  11.864 -1.6596 -0.3051  0.3349
  784MOL0     H 5794   6.746   4.502  12.130 -0.2265 -1.5660  0.1515
  784MOL0     H 5795   6.820   4.489  11.965  1.4711 -2.5945  0.9741
  784MOL0     H 5796   6.715   4.278  11.916 -3.4896 -3.2752 -0.5470
  784MOL0     H 5797   6.624   4.281  12.073  0.8796  2.7664  2.0460
  784MOL0     H 5798   6.831   4.264  12.203  1.2818 -3.5044  0.7280
  784MOL0     H 5799   6.928   4.282  12.071 -1.1343  2.9852 -1.4277
  784MOL0     H 5800   7.079   4.145  12.150 -1.4524  0.0766  1.6924
  784MOL0     H 5801   7.320   3.955  12.284  1.2945  1.4399 -0.2843
  784MOL0     H 5802   7.348   3.978  12.106 -1.3518  0.9577 -2.4988
  784MOL0     H 5803   7.283   4.110  12.197  2.6131 -0.0199 -3.6856
  784MOL0     H 5804   7.185   3.460  12.425 -3.4513 -0.1482 -2.9475
  784MOL0     H 5805   7.316   3.259  12.476 -3.0562 -0.7531  0.7141
  784MOL0     H 5806   7.651   3.142  12.173  1.1228 -1.8371  0.4772
  784MOL0     H 5807   7.655   3.265  12.302 -1.8551  0.9171  1.6108
  784MOL0     H 5808   7.650   3.052  12.460 -0.8642 -2.0332 -1.1018
  784MOL0     H 5809   7.679   2.954  12.315 -1.6446  0.6206  0.8793
  784MOL0     H 5810   7.863   3.153  12.428  1.7089  0.2347 -1.4136
  784MOL0     H 5811   7.878   3.102  12.261  0.7737 -0.1410 -0.0782
  784MOL0     H 5812   7.896   2.871  12.342  0.9789 -2.1123  1.9014
  784MOL0     H 5813   8.028   2.972  12.373 -0.5734  1.4198 -0.3337
  784MOL0     H 5814   7.972   2.819  12.557 -1.6463 -0.9716 -1.6603
  784MOL0     H 5815   7.813   2.887  12.578  1.7069 -0.7213  1.4310
  784MOL0     H 5816   8.077   3.019  12.606  0.2755  1.8032  1.9346
  784MOL0     H 5817   7.932   3.102  12.627  3.7709  1.0058 -0.7626
  784MOL0     H 5818   8.034   2.856  12.784 -1.4693 -1.5683 -0.8778
  784MOL0     H 5819   7.890   2.937  12.829  0.5130  2.5382  1.0615
  784MOL0     H 5820   8.078   3.014  12.981 -1.1263  1.2774  1.0679
  784MOL0     H 5821   8.004   3.151  12.905 -1.5879 -2.0042 -0.4903
  784MOL0     H 5822   7.481   3.300  12.072 -2.0610 -2.4498 -1.4360
  784MOL0     H 5823   7.336   3.483  12.030 -1.8662  0.9787  0.9236
  784MOL0     H 5824   6.964   3.677  12.093 -3.1983  0.4167  3.0855
  784MOL0     H 5825   6.786   3.839  12.065  0.8436 -0.7604 -2.9853
  784MOL0     H 5826   6.558   5.773  11.278  0.3699 -0.3994 -0.3868
  784MOL0     H 5827   6.750   5.661  11.156  3.2978 -1.9649 -0.4135
  784MOL0     H 5828   7.154   5.692  10.911 -2.5285 -0.0688  0.8985
  784MOL0     H 5829   7.305   5.540  10.807 -2.0412  0.5310 -0.8149
  784MOL0     H 5830   7.441   5.327  10.737 -0.9029  1.1291  0.4468
  784MOL0     H 5831   7.562   5.453  10.793 -1.7726  0.7270 -1.1910
  784MOL0     H 5832   7.620   5.157  10.833 -0.2605  0.7232  1.5568
  784MOL0     H 5833   7.723   5.297  10.861 -0.2688  1.1266 -1.0300
  784MOL0     H 5834   7.723   5.371  10.648 -2.0348  0.9876 -1.5563
  784MOL0     H 5835   7.612   5.245  10.594  2.1269 -1.2144 -1.7192
  784MOL0     H 5836   7.838   5.173  10.527  0.3614 -0.4386 -0.4234
  784MOL0     H 5837   7.804   5.076  10.681 -0.9400  1.2728  2.6261
  784MOL0     H 5838   8.114   5.319  10.809 -1.7897  1.6232  0.9451
  784MOL0     H 5839   7.368   5.336  11.182  1.3864  0.7047 -0.9089
  784MOL0     H 5840   7.209   5.474  11.280 -1.2741  0.8602 -0.5284
  785MOL0     O 5841   6.150   2.057   0.786  0.6929  0.6219  0.6644
  785MOL0     C 5842   6.227   2.049   0.688 -1.0089 -0.8901 -0.1089
  785MOL0     O 5843   6.279   2.159   0.622 -0.3909 -0.4835 -0.4672
  785MOL0     C 5844   6.323   2.267   0.693 -0.7212  0.2176  1.1638
  785MOL0     C 5845   6.381   2.351   0.603  0.0035  0.3530  1.0994
  785MOL0     C 5846   6.469   2.454   0.658  1.5777 -0.5187 -0.2069
  785MOL0     C 5847   6.485   2.465   0.796 -0.3281  0.0919 -0.0651
  785MOL0     O 5848   6.570   2.553   0.860 -0.6826 -0.5172  0.0309
  785MOL0     C 5849   6.675   2.604   0.773 -0.5206 -1.3502  0.3640
  785MOL0     C 5850   6.777   2.662   0.871  0.3715 -0.2336 -0.2195
  785MOL0     C 5851   6.894   2.741   0.808 -0.3597  0.5137 -0.0671
  785MOL0     C 5852   6.853   2.862   0.715  0.0566  0.3394 -0.3303
  785MOL0     C 5853   6.838   2.989   0.799 -0.2203 -0.4765 -0.3153
  785MOL0     C 5854   6.742   3.095   0.739  0.1857 -0.4824 -0.1299
  785MOL0     C 5855   6.743   3.240   0.810 -0.3490  0.3940  1.9701
  785MOL0     C 5856   6.845   3.327   0.740  0.2658 -0.1134 -0.2868
  785MOL0     N 5857   6.829   3.465   0.783 -1.0869 -0.5042 -0.9628
  785MOL0     C 5858   6.909   3.513   0.876  0.2205  0.3885 -0.4302
  785MOL0     C 5859   6.855   3.636   0.920  0.1030 -0.6008 -0.7817
  785MOL0     C 5860   6.910   3.723   1.036 -0.0444  0.8950  0.3251
  785MOL0     C 5861   6.920   3.862   0.990  0.0150  0.3732  0.0609
  785MOL0     C 5862   7.009   3.945   1.084 -0.3603  0.4552  0.1046
  785MOL0     C 5863   7.009   4.091   1.037 -0.1585 -0.2200  0.6437
  785MOL0     O 5864   7.066   4.179   1.121 -0.7430 -0.4975 -0.4894
  785MOL0     C 5865   6.987   4.261   1.195 -1.6011 -0.4215  0.8810
  785MOL0     C 5866   6.976   4.396   1.172  0.2665 -0.7035 -0.2866
  785MOL0     C 5867   6.904   4.479   1.266  0.2994  0.3151 -0.1775
  785MOL0     C 5868   6.890   4.626   1.215 -0.4133 -0.6156  0.4114
  785MOL0     C 5869   6.877   4.434   1.397 -0.4212  0.2623  0.1611
  785MOL0     C 5870   6.819   4.517   1.506 -1.3007  0.3771  0.2315
  785MOL0     O 5871   6.732   4.448   1.586 -0.3641  0.1706 -0.3053
  785MOL0     C 5872   6.648   4.523   1.659 -0.7521  0.0694  0.8603
  785MOL0     C 5873   6.576   4.624   1.601  1.3689  0.0170  0.4031
  785MOL0     C 5874   6.498   4.708   1.675  1.5725  0.0106  0.4704
  785MOL0     C 5875   6.493   4.694   1.816  0.0314  0.1220  0.3642
  785MOL0     O 5876   6.430   4.788   1.897 -0.0237  1.0188 -0.3138
  785MOL0     C 5877   6.443   4.931   1.864 -0.5617  0.1276 -0.8398
  785MOL0     C 5878   6.587   4.970   1.889  0.0541 -0.4997  0.4981
  785MOL0     C 5879   6.609   5.125   1.876 -0.5412  0.3216 -0.2742
  785MOL0     C 5880   6.582   5.179   1.733  0.1558 -0.5444 -0.7973
  785MOL0     C 5881   6.586   5.334   1.728 -0.4419  0.7528 -0.1923
  785MOL0     C 5882   6.724   5.398   1.763 -0.1475 -0.2464 -0.0713
  785MOL0     C 5883   6.816   5.371   1.641  0.5610  0.1675 -0.7686
  785MOL0     C 5884   6.969   5.413   1.661  0.1944  0.6876  0.3475
  785MOL0    Cl 5885   6.987   5.582   1.688  0.0783  0.1185  0.1469
  785MOL0     C 5886   6.566   4.583   1.870  0.6148 -0.6079 -0.2008
  785MOL0     C 5887   6.642   4.497   1.793 -0.8354 -0.8859  1.0500
  785MOL0     O 5888   6.847   4.632   1.515 -0.0585 -0.0768  0.1689
  785MOL0     C 5889   6.886   4.292   1.411  0.4215 -0.8867 -1.1283
  785MOL0     C 5890   6.927   4.208   1.305  0.0169 -0.2957 -1.0046
  785MOL0     N 5891   6.737   3.648   0.849  0.3267 -0.2211 -0.1487
  785MOL0     N 5892   6.721   3.547   0.770 -0.1960  0.1820 -1.0964
  785MOL0     C 5893   6.414   2.376   0.882 -0.0169 -1.0257  0.1244
  785MOL0     C 5894   6.327   2.284   0.830  0.7386 -0.1422  0.1742
  785MOL0     C 5895   6.237   1.919   0.622 -0.9011 -0.0021  0.4137
  785MOL0     C 5896   6.274   1.909   0.485  0.2836  0.8092  0.8784
  785MOL0     C 5897   6.278   1.786   0.413 -0.9901  0.4237 -0.4937
  785MOL0     C 5898   6.244   1.671   0.489  0.6179 -0.6795 -0.1424
  785MOL0     O 5899   6.241   1.546   0.426  0.3162 -0.4394 -0.8891
  785MOL0     C 5900   6.215   1.530   0.290 -0.4061 -0.0040  0.3082
  785MOL0     C 5901   6.164   1.387   0.261  0.3849 -0.4001  0.1546
  785MOL0     C 5902   6.258   1.283   0.312  0.0299 -0.7377  0.2564
  785MOL0     C 5903   6.188   1.139   0.291 -0.3715 -0.1179 -0.1860
  785MOL0     C 5904   6.293   1.041   0.307  0.5398  0.4664  0.5796
  785MOL0     C 5905   6.376   0.949   0.318 -0.6945  0.2491  0.0616
  785MOL0     C 5906   6.202   1.685   0.628  0.0457 -0.5850  0.4009
  785MOL0     C 5907   6.196   1.811   0.692 -1.1505  0.6369  0.0007
  785MOL0     H 5908   6.372   2.329   0.497  0.3560  1.9728  0.7089
  785MOL0     H 5909   6.511   2.515   0.578 -1.4203 -0.8387 -2.1640
  785MOL0     H 5910   6.718   2.520   0.717  3.7845 -0.6211  2.2184
  785MOL0     H 5911   6.648   2.680   0.700  2.4286  1.5960  2.0878
  785MOL0     H 5912   6.725   2.728   0.940 -1.4766  0.6009 -2.3188
  785MOL0     H 5913   6.819   2.573   0.921 -0.6095 -0.8702 -0.4987
  785MOL0     H 5914   6.972   2.773   0.878  1.1991 -0.2832 -1.3615
  785MOL0     H 5915   6.963   2.678   0.750  1.4222 -1.2336  3.6230
  785MOL0     H 5916   6.933   2.886   0.644  2.1648  1.2218  2.1594
  785MOL0     H 5917   6.760   2.855   0.659 -0.3434  0.8086  0.2543
  785MOL0     H 5918   6.802   2.965   0.899 -0.2555  1.8253  0.2940
  785MOL0     H 5919   6.937   3.032   0.812  0.1487 -1.4773  0.2501
  785MOL0     H 5920   6.772   3.112   0.635 -1.7159  3.0944 -0.2803
  785MOL0     H 5921   6.635   3.073   0.729 -0.2111  1.8893 -1.9252
  785MOL0     H 5922   6.644   3.285   0.799 -0.6955 -0.6725  0.3672
  785MOL0     H 5923   6.767   3.225   0.915 -2.9292 -0.2664  2.5159
  785MOL0     H 5924   6.817   3.332   0.635  0.2304 -0.2849 -0.2864
  785MOL0     H 5925   6.947   3.289   0.749 -0.5018 -2.3519 -0.3139
  785MOL0     H 5926   6.996   3.460   0.913 -0.9751 -0.4520  1.3089
  785MOL0     H 5927   6.838   3.726   1.117 -0.2580  0.6215  0.1479
  785MOL0     H 5928   7.009   3.686   1.065  1.3309  3.2944 -0.8625
  785MOL0     H 5929   6.817   3.896   0.987 -0.2333 -0.2382  1.1739
  785MOL0     H 5930   6.970   3.865   0.893 -0.1469 -3.3703 -0.2945
  785MOL0     H 5931   7.113   3.918   1.063 -0.1679  1.2415 -0.0165
  785MOL0     H 5932   7.000   3.940   1.193  0.9392  0.9853  0.2638
  785MOL0     H 5933   6.909   4.121   1.006 -0.5509  0.3253  2.3609
  785MOL0     H 5934   7.068   4.089   0.945 -0.1855  2.0854  0.5366
  785MOL0     H 5935   7.014   4.434   1.077 -2.4304  0.1156 -1.1319
  785MOL0     H 5936   6.951   4.696   1.274 -1.2754  0.7441 -0.2769
  785MOL0     H 5937   6.916   4.637   1.109  0.9381  0.2661  0.8007
  785MOL0     H 5938   6.787   4.659   1.226  0.6092  3.7917 -1.2035
  785MOL0     H 5939   6.584   4.638   1.493  2.2854  0.9159  0.5777
  785MOL0     H 5940   6.443   4.787   1.626  0.9713  0.1747  1.3694
  785MOL0     H 5941   6.410   4.963   1.764 -0.1944  0.5454 -0.8352
  785MOL0     H 5942   6.370   4.982   1.927 -1.6373 -3.0756  0.6986
  785MOL0     H 5943   6.629   4.939   1.985  0.3902  0.4700  0.6736
  785MOL0     H 5944   6.647   4.927   1.808 -0.1545 -0.2404  0.2021
  785MOL0     H 5945   6.708   5.147   1.917 -2.6852  1.8003  4.9936
  785MOL0     H 5946   6.537   5.171   1.945 -0.2052 -0.8206  0.8876
  785MOL0     H 5947   6.660   5.141   1.665  0.7936  2.6197 -2.0516
  785MOL0     H 5948   6.483   5.145   1.704  0.2156 -0.8971 -0.5884
  785MOL0     H 5949   6.509   5.366   1.798 -2.6004  0.3892 -2.2442
  785MOL0     H 5950   6.556   5.353   1.624  0.4416 -0.2358 -0.6517
  785MOL0     H 5951   6.720   5.506   1.776 -1.1809 -0.4227  1.3416
  785MOL0     H 5952   6.773   5.359   1.853  2.7035  2.5534 -0.2316
  785MOL0     H 5953   6.763   5.413   1.555 -1.3287 -3.9897 -1.8941
  785MOL0     H 5954   6.828   5.263   1.634 -0.8983  0.1010 -2.8170
  785MOL0     H 5955   7.034   5.386   1.576  2.2387  1.3191  1.6372
  785MOL0     H 5956   7.012   5.365   1.749  1.0025  1.1329  0.2043
  785MOL0     H 5957   6.557   4.578   1.978  0.7524 -0.5392 -0.1858
  785MOL0     H 5958   6.695   4.419   1.848  0.0315 -1.9428 -1.1593
  785MOL0     H 5959   6.842   4.249   1.501 -1.5303  2.0454 -0.5523
  785MOL0     H 5960   6.916   4.101   1.316 -0.3618 -0.7011 -4.1996
  785MOL0     H 5961   6.417   2.369   0.990  0.1189  0.7204  0.2655
  785MOL0     H 5962   6.281   2.210   0.894  1.2646  0.3041  1.0898
  785MOL0     H 5963   6.305   2.001   0.438  0.1451  0.0128 -0.8640
  785MOL0     H 5964   6.301   1.790   0.308  1.2910  0.1431 -0.0563
  785MOL0     H 5965   6.145   1.599   0.240  1.4355  0.0717 -2.3924
  785MOL0     H 5966   6.311   1.537   0.239  1.2915 -3.2460  2.6748
  785MOL0     H 5967   6.145   1.379   0.154  0.1561 -2.2820  0.3076
  785MOL0     H 5968   6.064   1.367   0.300  0.0784 -1.9278 -1.3071
  785MOL0     H 5969   6.298   1.307   0.411 -0.1910  0.0802  0.1552
  785MOL0     H 5970   6.344   1.302   0.246  1.1102 -1.2530  1.4572
  785MOL0     H 5971   6.139   1.128   0.194 -1.3105 -0.3242  0.2997
  785MOL0     H 5972   6.111   1.111   0.363  0.6991 -3.9751 -0.2892
  785MOL0     H 5973   6.438   0.865   0.341  1.5837  1.5965 -0.8330
  785MOL0     H 5974   6.144   1.605   0.672 -3.7966  1.1151 -1.1848
  785MOL0     H 5975   6.183   1.805   0.800 -0.3846 -1.3576  0.0217
  786MOL0     O 5976   2.793   3.772   6.401 -0.4791  0.2637  1.0479
  786MOL0     C 5977   2.873   3.862   6.374 -0.6802 -0.5579 -0.3941
  786MOL0     O 5978   2.996   3.851   6.325 -0.9194  0.2246  0.0275
  786MOL0     C 5979   3.032   3.740   6.263  0.3122  0.3941  0.0678
  786MOL0     C 5980   2.950   3.637   6.202  0.0485 -0.2139  0.1841
  786MOL0     C 5981   3.007   3.536   6.118  0.2692  0.1248 -0.5009
  786MOL0     C 5982   3.142   3.538   6.101 -0.4959 -0.4069 -0.2153
  786MOL0     O 5983   3.181   3.439   6.021 -0.4290  0.8437 -0.8097
  786MOL0     C 5984   3.312   3.381   6.043  0.0780  0.3819 -0.2422
  786MOL0     C 5985   3.298   3.230   6.020 -0.0039 -0.7674 -0.8240
  786MOL0     C 5986   3.415   3.175   5.957 -0.2646  0.5481  0.2648
  786MOL0     C 5987   3.536   3.146   6.041 -0.3575  0.8858 -0.7903
  786MOL0     C 5988   3.678   3.159   5.982 -0.6811  1.2274  0.4867
  786MOL0     C 5989   3.717   3.297   5.935  0.3368 -0.5291  0.4711
  786MOL0     C 5990   3.858   3.304   5.860 -0.0770 -0.5678  0.1453
  786MOL0     C 5991   3.915   3.451   5.868 -0.6200  0.0636 -0.1434
  786MOL0     N 5992   3.959   3.498   5.994 -1.0357  0.1150 -0.2226
  786MOL0     C 5993   3.934   3.621   6.048 -0.2749  0.4469  1.4635
  786MOL0     C 5994   4.020   3.634   6.149  0.2910  0.2693  0.2558
  786MOL0     C 5995   4.010   3.740   6.247  0.5388 -0.0429 -0.1906
  786MOL0     C 5996   3.941   3.701   6.376 -0.1704  0.4840 -0.5167
  786MOL0     C 5997   3.789   3.662   6.352  0.5342 -0.0007 -0.1047
  786MOL0     C 5998   3.702   3.670   6.478  0.6939  0.7880  0.5320
  786MOL0     O 5999   3.559   3.651   6.463 -1.0921 -0.1604  0.5996
  786MOL0     C 6000   3.505   3.524   6.462  0.3062 -0.6893  0.2012
  786MOL0     C 6001   3.372   3.517   6.465  0.4410 -0.3958 -0.3239
  786MOL0     C 6002   3.298   3.395   6.443  0.3259  0.7051 -0.2136
  786MOL0     C 6003   3.150   3.387   6.428  0.2264 -0.7313  0.2630
  786MOL0     C 6004   3.372   3.269   6.434 -0.7402 -0.1699  0.1503
  786MOL0     C 6005   3.320   3.138   6.402 -0.2405  0.7420  0.1697
  786MOL0     O 6006   3.409   3.037   6.422 -0.3200 -0.3984  0.3257
  786MOL0     C 6007   3.356   2.904   6.402 -0.6387  0.1845 -0.5060
  786MOL0     C 6008   3.336   2.816   6.511 -0.4610 -0.1685  0.2781
  786MOL0     C 6009   3.283   2.691   6.476 -0.4793 -0.5556 -0.4993
  786MOL0     C 6010   3.277   2.649   6.342  0.2190  0.4226  0.3818
  786MOL0     O 6011   3.233   2.528   6.298 -0.2404 -0.2477 -0.0465
  786MOL0     C 6012   3.273   2.418   6.381 -0.2172  0.0930 -0.3390
  786MOL0     C 6013   3.162   2.320   6.396  0.3722  0.4713  1.0842
  786MOL0     C 6014   3.187   2.207   6.490  0.5521  0.0054  0.0031
  786MOL0     C 6015   3.078   2.093   6.494 -0.1456 -1.6010 -0.2934
  786MOL0     C 6016   3.126   1.964   6.542 -0.3475 -0.6470 -0.8111
  786MOL0     C 6017   3.010   1.859   6.543 -0.7194  0.0966  0.9400
  786MOL0     C 6018   2.991   1.783   6.684 -0.5469  0.7627  0.9507
  786MOL0     C 6019   2.906   1.655   6.678  0.1280  0.1895 -1.1118
  786MOL0    Cl 6020   2.997   1.536   6.581 -0.0303  0.1574 -0.1610
  786MOL0     C 6021   3.304   2.741   6.235  0.1366 -0.3215  0.1361
  786MOL0     C 6022   3.340   2.868   6.269 -0.2708 -0.5375  0.1108
  786MOL0     O 6023   3.199   3.118   6.371 -0.0963 -0.0105 -0.0951
  786MOL0     C 6024   3.515   3.288   6.435 -1.1359 -0.4489 -0.4431
  786MOL0     C 6025   3.586   3.415   6.448 -0.8816 -0.0535  0.7240
  786MOL0     N 6026   4.113   3.532   6.142 -1.1597 -0.1370 -0.1986
  786MOL0     N 6027   4.071   3.442   6.059  0.0299  0.3553 -0.0723
  786MOL0     C 6028   3.224   3.629   6.178 -0.6160  0.1762  0.2880
  786MOL0     C 6029   3.168   3.727   6.251 -0.1677 -0.0318 -0.1091
  786MOL0     C 6030   2.836   4.001   6.419 -0.1192  0.1288 -0.2397
  786MOL0     C 6031   2.918   4.110   6.381  1.1059 -0.7364 -0.5462
  786MOL0     C 6032   2.896   4.248   6.421 -0.0878  0.2725  0.0358
  786MOL0     C 6033   2.776   4.278   6.507 -0.2112 -0.2319 -0.1837
  786MOL0     O 6034   2.727   4.399   6.546  0.0467  0.2716 -0.6388
  786MOL0     C 6035   2.796   4.516   6.508  0.4574  0.0809 -0.2311
  786MOL0     C 6036   2.748   4.642   6.583  0.3020  0.9112 -0.7484
  786MOL0     C 6037   2.628   4.624   6.670  0.1510  0.7948 -0.0920
  786MOL0     C 6038   2.554   4.746   6.706  0.4832 -1.0526 -0.2454
  786MOL0     C 6039   2.642   4.831   6.790 -0.1055 -0.0510  0.2825
  786MOL0     C 6040   2.707   4.910   6.859  0.5048 -0.6391  0.1883
  786MOL0     C 6041   2.692   4.167   6.542 -0.7856 -0.0812  0.6912
  786MOL0     C 6042   2.733   4.029   6.505  0.1572  0.0659 -0.1330
  786MOL0     H 6043   2.844   3.620   6.215 -0.3139  1.2315 -0.6321
  786MOL0     H 6044   2.943   3.457   6.081  1.0985 -1.6300  1.5992
  786MOL0     H 6045   3.376   3.418   5.962  0.2335 -0.2646 -0.4209
  786MOL0     H 6046   3.355   3.405   6.140  1.0337  1.2759 -0.8649
  786MOL0     H 6047   3.267   3.172   6.107  0.5624  1.6079  1.0534
  786MOL0     H 6048   3.214   3.218   5.951 -0.4003  3.1951 -1.2527
  786MOL0     H 6049   3.391   3.076   5.917 -0.0785 -0.1555  1.8257
  786MOL0     H 6050   3.447   3.227   5.867  0.5887  1.7524  1.2300
  786MOL0     H 6051   3.535   3.222   6.120  1.3490  0.0059  0.1283
  786MOL0     H 6052   3.528   3.045   6.081  1.3701  1.0497  0.0879
  786MOL0     H 6053   3.751   3.126   6.058 -0.9628  1.3606  0.8194
  786MOL0     H 6054   3.696   3.098   5.894 -2.9928  2.4825 -0.9514
  786MOL0     H 6055   3.639   3.334   5.868 -0.4328 -0.4496  1.3809
  786MOL0     H 6056   3.718   3.371   6.016 -1.7995 -1.5282  1.4816
  786MOL0     H 6057   3.934   3.235   5.895  1.5542  1.2121  0.2852
  786MOL0     H 6058   3.836   3.287   5.754 -4.2034 -1.0647  0.9084
  786MOL0     H 6059   3.834   3.518   5.838 -0.5323  0.7141  1.0298
  786MOL0     H 6060   4.002   3.465   5.803  0.4260 -2.7085  0.5174
  786MOL0     H 6061   3.861   3.697   6.022  0.3326  0.4243 -0.4950
  786MOL0     H 6062   4.112   3.775   6.266  1.4679 -3.5201  2.1257
  786MOL0     H 6063   3.956   3.824   6.202  1.1202  1.6758  2.1298
  786MOL0     H 6064   3.941   3.787   6.443 -1.0924  0.0472  0.0667
  786MOL0     H 6065   3.989   3.619   6.430 -1.9018 -0.7834 -0.8161
  786MOL0     H 6066   3.787   3.566   6.301  0.2644  0.7372 -1.5415
  786MOL0     H 6067   3.747   3.732   6.279  0.8292  0.0332 -0.2424
  786MOL0     H 6068   3.705   3.771   6.520 -2.5622  0.1510  2.6559
  786MOL0     H 6069   3.737   3.593   6.547  1.0131 -0.1368 -0.6426
  786MOL0     H 6070   3.314   3.609   6.474 -2.7169 -2.2383 -0.2464
  786MOL0     H 6071   3.117   3.334   6.338 -1.8044 -0.0915  0.5635
  786MOL0     H 6072   3.109   3.328   6.510 -1.1897 -0.6741 -0.3601
  786MOL0     H 6073   3.103   3.486   6.424  1.1237 -0.2552  1.0031
  786MOL0     H 6074   3.355   2.842   6.615 -1.1563  2.5809 -0.2013
  786MOL0     H 6075   3.248   2.623   6.553 -0.8815  0.4874  0.2466
  786MOL0     H 6076   3.364   2.379   6.336  0.9452  1.7654  0.4538
  786MOL0     H 6077   3.301   2.443   6.484  1.6702 -0.1617 -0.7610
  786MOL0     H 6078   3.073   2.373   6.431  0.0259 -0.3171  1.4263
  786MOL0     H 6079   3.135   2.284   6.295 -0.2944  1.7063  0.7998
  786MOL0     H 6080   3.216   2.232   6.593  3.9668  2.7958 -1.4489
  786MOL0     H 6081   3.272   2.151   6.451  1.3095  0.8586  0.4089
  786MOL0     H 6082   2.990   2.128   6.550  2.0835 -0.1079  2.5724
  786MOL0     H 6083   3.054   2.082   6.388 -2.7777 -4.6677  0.4790
  786MOL0     H 6084   3.147   1.979   6.648  1.4425 -0.3628 -1.1704
  786MOL0     H 6085   3.215   1.921   6.493  0.0543 -2.9277  1.6694
  786MOL0     H 6086   2.925   1.924   6.522 -1.4918 -1.5805 -1.6854
  786MOL0     H 6087   3.028   1.789   6.460 -1.9979  2.0356 -1.0640
  786MOL0     H 6088   2.947   1.854   6.755 -2.5071 -2.1880  2.9271
  786MOL0     H 6089   3.088   1.755   6.726 -1.1888  2.7904  4.0749
  786MOL0     H 6090   2.808   1.686   6.640 -0.8842  1.8952  2.4642
  786MOL0     H 6091   2.881   1.605   6.771 -0.2613  2.8940  0.3422
  786MOL0     H 6092   3.281   2.725   6.130 -0.0072  1.4620 -0.1326
  786MOL0     H 6093   3.358   2.949   6.198 -4.4580 -1.2303 -2.1013
  786MOL0     H 6094   3.590   3.210   6.421 -0.8412 -0.1086 -0.7646
  786MOL0     H 6095   3.694   3.426   6.438 -0.7037 -2.7095 -1.5951
  786MOL0     H 6096   3.331   3.624   6.161 -0.7971  1.0445 -1.3105
  786MOL0     H 6097   3.236   3.791   6.307  1.2121 -3.0180  1.8687
  786MOL0     H 6098   3.003   4.090   6.317  1.5287 -0.5804 -0.0447
  786MOL0     H 6099   2.972   4.320   6.392  0.2262  0.2438  0.7851
  786MOL0     H 6100   2.904   4.508   6.525  0.1191  0.3941  2.4085
  786MOL0     H 6101   2.784   4.516   6.399 -1.1778 -0.9845 -0.0816
  786MOL0     H 6102   2.722   4.723   6.513 -0.8197  1.1548 -0.0767
  786MOL0     H 6103   2.830   4.691   6.637 -1.6681  3.1812  0.3876
  786MOL0     H 6104   2.655   4.571   6.762 -0.1812 -0.6540 -0.8024
  786MOL0     H 6105   2.559   4.562   6.611  0.5525  1.2856 -1.1043
  786MOL0     H 6106   2.457   4.727   6.753  0.6677 -1.9085 -0.1996
  786MOL0     H 6107   2.526   4.801   6.615  0.0942  2.7547  1.9843
  786MOL0     H 6108   2.777   4.976   6.907 -0.2237 -0.2698  0.7539
  786MOL0     H 6109   2.603   4.182   6.602 -0.4443  2.0149  0.7453
  786MOL0     H 6110   2.665   3.952   6.542 -4.9240  4.6754  1.5266
  787MOL0     O 6111   8.722   1.115   4.542  0.2003 -0.0375  0.1573
  787MOL0     C 6112   8.624   1.099   4.618  0.5723  0.1886  0.4328
  787MOL0     O 6113   8.572   1.188   4.712  0.1541  0.2490  0.0512
  787MOL0     C 6114   8.604   1.316   4.700 -0.3352  0.2567  0.5475
  787MOL0     C 6115   8.546   1.394   4.602 -0.2377 -0.2085 -0.0258
  787MOL0     C 6116   8.562   1.534   4.609 -0.5676  0.4258  0.3654
  787MOL0     C 6117   8.655   1.602   4.680 -0.2242  0.2044  0.0563
  787MOL0     O 6118   8.665   1.738   4.676 -0.4078  0.2528  0.8719
  787MOL0     C 6119   8.776   1.813   4.729 -0.1771  0.9601  0.4131
  787MOL0     C 6120   8.771   1.957   4.692  0.3730 -0.1452  0.2965
  787MOL0     C 6121   8.882   2.027   4.780  0.5177 -0.5026 -0.3217
  787MOL0     C 6122   9.030   1.993   4.743  0.9404  0.3040  0.1425
  787MOL0     C 6123   9.124   2.043   4.851  0.3367 -0.0825 -0.0839
  787MOL0     C 6124   9.093   2.178   4.919 -0.1528  0.3654  0.9053
  787MOL0     C 6125   9.185   2.209   5.038  0.1847 -0.1242 -1.2040
  787MOL0     C 6126   9.169   2.119   5.156  0.7235  0.4829  0.2619
  787MOL0     N 6127   9.242   2.170   5.274  0.1909 -0.7048  0.3322
  787MOL0     C 6128   9.202   2.282   5.347 -0.2088  0.3745  0.1593
  787MOL0     C 6129   9.303   2.297   5.440  1.0836 -0.3540 -0.3780
  787MOL0     C 6130   9.306   2.403   5.543 -0.7979 -0.1750  0.5526
  787MOL0     C 6131   9.343   2.529   5.474  0.4910  0.0995  0.1061
  787MOL0     C 6132   9.380   2.640   5.576 -0.6870  0.0894  0.0714
  787MOL0     C 6133   9.395   2.781   5.517  0.1124 -1.1515  1.4538
  787MOL0     O 6134   9.272   2.812   5.443 -1.1159 -0.2608  0.0683
  787MOL0     C 6135   9.252   2.940   5.403  0.1742 -0.4101  0.3072
  787MOL0     C 6136   9.125   2.978   5.355  0.1583  0.1541  0.2700
  787MOL0     C 6137   9.094   3.109   5.318  0.4212 -0.5914 -0.6824
  787MOL0     C 6138   8.941   3.141   5.293  0.1772  1.1612  0.0152
  787MOL0     C 6139   9.192   3.205   5.307 -0.7789  0.6378 -0.2061
  787MOL0     C 6140   9.174   3.336   5.242  0.4867  0.6393  0.0912
  787MOL0     O 6141   9.048   3.367   5.187  0.5168  0.2945 -0.1240
  787MOL0     C 6142   9.011   3.492   5.151  0.5587 -0.7148  0.0112
  787MOL0     C 6143   8.873   3.510   5.125 -0.0086  0.1750 -0.1364
  787MOL0     C 6144   8.818   3.630   5.092 -0.0332 -0.2360  0.2583
  787MOL0     C 6145   8.902   3.737   5.066 -0.3974  0.0868  1.0514
  787MOL0     O 6146   8.841   3.859   5.058  0.3243  0.1782 -0.3182
  787MOL0     C 6147   8.915   3.977   5.085  0.6392  1.0848 -0.3759
  787MOL0     C 6148   8.821   4.096   5.084  1.1160 -0.9050 -0.5521
  787MOL0     C 6149   8.741   4.114   5.211  0.3150  0.0491 -1.1243
  787MOL0     C 6150   8.774   4.029   5.330  0.9500  1.6117  0.1702
  787MOL0     C 6151   8.699   4.076   5.455 -0.2733  0.4391  0.2327
  787MOL0     C 6152   8.794   4.149   5.557  0.8591 -0.2731 -0.0781
  787MOL0     C 6153   8.719   4.194   5.681  0.1752 -0.8739  0.5415
  787MOL0     C 6154   8.801   4.216   5.801 -0.3685  0.0600  0.2185
  787MOL0    Cl 6155   8.878   4.377   5.792 -0.4874 -0.5330  0.9248
  787MOL0     C 6156   9.046   3.716   5.069  0.4863  0.4218 -0.1918
  787MOL0     C 6157   9.093   3.599   5.118 -0.1394 -0.1166 -0.6805
  787MOL0     O 6158   9.270   3.415   5.252 -0.5621  0.2530  0.1110
  787MOL0     C 6159   9.327   3.167   5.346  0.2865  0.1773 -0.1974
  787MOL0     C 6160   9.349   3.039   5.400 -1.5096 -0.5746  0.1671
  787MOL0     N 6161   9.398   2.206   5.411  0.2053 -0.0273 -0.0899
  787MOL0     N 6162   9.363   2.130   5.318 -0.0356 -0.4696  1.1014
  787MOL0     C 6163   8.726   1.513   4.766 -0.8712  0.8890 -0.1379
  787MOL0     C 6164   8.707   1.372   4.774  0.6033  0.6330  0.5536
  787MOL0     C 6165   8.554   0.962   4.611 -0.7165 -1.2640 -0.2649
  787MOL0     C 6166   8.459   0.920   4.711 -0.0458 -0.5687 -0.0947
  787MOL0     C 6167   8.392   0.804   4.689  0.5041 -0.2837 -0.2944
  787MOL0     C 6168   8.417   0.725   4.582  0.0879  0.2372  0.0083
  787MOL0     O 6169   8.353   0.599   4.579  0.5542 -0.0665  0.3312
  787MOL0     C 6170   8.375   0.516   4.462 -0.9831  0.1234  1.2983
  787MOL0     C 6171   8.512   0.433   4.492 -0.1202 -0.3667 -0.0281
  787MOL0     C 6172   8.499   0.307   4.405 -0.0660  0.1479  0.1851
  787MOL0     C 6173   8.633   0.242   4.382  0.0612  0.4746 -0.3107
  787MOL0     C 6174   8.610   0.129   4.285  0.6420 -0.3319 -0.1066
  787MOL0     C 6175   8.591   0.031   4.215 -0.2112  0.1937  0.9732
  787MOL0     C 6176   8.516   0.761   4.488 -0.4455 -0.1981  0.0007
  787MOL0     C 6177   8.591   0.874   4.508 -0.5166  0.4766 -0.4942
  787MOL0     H 6178   8.460   1.351   4.550 -1.1015 -0.8652  1.8621
  787MOL0     H 6179   8.510   1.607   4.546  0.3643  1.2799  0.5634
  787MOL0     H 6180   8.776   1.811   4.838 -1.0222  1.6345  0.4378
  787MOL0     H 6181   8.860   1.757   4.688 -0.3142  1.5780 -0.7527
  787MOL0     H 6182   8.805   1.970   4.589 -0.2572 -1.6570 -0.1278
  787MOL0     H 6183   8.673   2.002   4.708  0.6355  0.0748  1.3525
  787MOL0     H 6184   8.875   2.136   4.772 -1.4740 -0.4420  1.5119
  787MOL0     H 6185   8.859   2.001   4.883 -0.5671 -1.4029 -0.7743
  787MOL0     H 6186   9.055   1.887   4.733  4.2528  0.7324  2.3665
  787MOL0     H 6187   9.051   2.051   4.652 -0.0464 -0.1605 -0.3894
  787MOL0     H 6188   9.128   1.969   4.932 -1.4749 -0.1628 -0.0376
  787MOL0     H 6189   9.220   2.047   4.799 -0.3267 -1.1106 -1.4592
  787MOL0     H 6190   9.101   2.256   4.844  0.9214 -2.4062 -2.0774
  787MOL0     H 6191   8.989   2.163   4.952 -1.4053  1.2208 -2.3383
  787MOL0     H 6192   9.288   2.223   5.005 -0.1135  1.2102 -1.6205
  787MOL0     H 6193   9.155   2.309   5.070 -2.5551 -0.1185 -3.4686
  787MOL0     H 6194   9.198   2.015   5.136 -3.4484 -0.1671 -4.6891
  787MOL0     H 6195   9.065   2.121   5.191  0.9941 -0.1769  1.1551
  787MOL0     H 6196   9.107   2.334   5.352 -0.4783 -0.1281  0.3142
  787MOL0     H 6197   9.216   2.420   5.603 -1.0434 -1.9738  0.7504
  787MOL0     H 6198   9.388   2.366   5.606  1.8361  1.5917 -1.6238
  787MOL0     H 6199   9.253   2.566   5.426  0.3977  1.3042  1.1384
  787MOL0     H 6200   9.427   2.522   5.405  1.0200  0.6983  0.6670
  787MOL0     H 6201   9.479   2.624   5.620  0.1693 -0.1922 -1.8398
  787MOL0     H 6202   9.307   2.635   5.657 -1.3962 -0.1936 -0.5760
  787MOL0     H 6203   9.476   2.768   5.445  0.0273 -0.2870  1.1899
  787MOL0     H 6204   9.417   2.849   5.599 -2.3394  3.0638 -0.9832
  787MOL0     H 6205   9.043   2.907   5.362  0.6015 -0.5844 -1.4850
  787MOL0     H 6206   8.925   3.149   5.185  3.8443 -0.1208 -0.7696
  787MOL0     H 6207   8.887   3.054   5.330 -0.4103  0.6621 -1.8830
  787MOL0     H 6208   8.898   3.225   5.348 -1.9760 -0.3933  0.8231
  787MOL0     H 6209   8.809   3.423   5.134 -2.1304  1.6712 -0.0835
  787MOL0     H 6210   8.710   3.645   5.093  0.2992  3.1736 -1.7354
  787MOL0     H 6211   8.970   3.963   5.178  0.2472  0.1428 -0.2736
  787MOL0     H 6212   9.001   3.989   5.019  2.3776 -0.7517  1.4104
  787MOL0     H 6213   8.877   4.190   5.076  0.2892 -0.1627  1.6262
  787MOL0     H 6214   8.754   4.091   4.997  1.0781 -0.5119 -0.5459
  787MOL0     H 6215   8.633   4.102   5.192  0.4394  0.4073 -2.1659
  787MOL0     H 6216   8.755   4.213   5.256  1.8219 -1.1092  1.1109
  787MOL0     H 6217   8.751   3.925   5.304  1.2564  1.6183 -0.1344
  787MOL0     H 6218   8.881   4.037   5.351  1.7132 -0.8646 -2.2516
  787MOL0     H 6219   8.672   3.984   5.508 -1.1328 -1.0618 -2.6193
  787MOL0     H 6220   8.614   4.131   5.414  2.8660  3.2236 -3.1054
  787MOL0     H 6221   8.882   4.088   5.580  0.3169 -1.4645 -1.0306
  787MOL0     H 6222   8.823   4.242   5.507 -1.9223  0.0670 -1.2874
  787MOL0     H 6223   8.656   4.109   5.708 -1.6045 -0.6012 -2.3706
  787MOL0     H 6224   8.654   4.278   5.655  0.1228 -0.4269  2.0338
  787MOL0     H 6225   8.875   4.136   5.814 -1.2289 -1.0493 -1.4814
  787MOL0     H 6226   8.735   4.209   5.888  0.1445  2.2621  0.8417
  787MOL0     H 6227   9.118   3.791   5.037  2.9201 -1.4193  0.6354
  787MOL0     H 6228   9.199   3.580   5.124 -0.2658 -0.4804  1.5715
  787MOL0     H 6229   9.417   3.226   5.330  1.0966 -0.8997  0.2517
  787MOL0     H 6230   9.449   3.030   5.441 -2.3177  0.3989  2.5282
  787MOL0     H 6231   8.795   1.542   4.845 -4.0835 -2.3662  4.3762
  787MOL0     H 6232   8.766   1.307   4.837  0.5684  1.2678  1.2582
  787MOL0     H 6233   8.446   0.970   4.806  1.6860 -0.6068  0.1916
  787MOL0     H 6234   8.333   0.760   4.769  0.3452 -0.5746 -0.5682
  787MOL0     H 6235   8.305   0.432   4.467 -0.2889 -0.4545  1.3862
  787MOL0     H 6236   8.383   0.555   4.360 -0.8704 -0.2766  1.1505
  787MOL0     H 6237   8.512   0.411   4.599  2.5192 -3.6603 -0.5422
  787MOL0     H 6238   8.605   0.478   4.455 -0.6710  0.9498  0.1225
  787MOL0     H 6239   8.454   0.331   4.308  0.0418 -0.3029  0.0216
  787MOL0     H 6240   8.431   0.240   4.458  0.6515 -0.9039 -0.1877
  787MOL0     H 6241   8.679   0.195   4.470  0.3515 -0.2409 -0.8292
  787MOL0     H 6242   8.702   0.314   4.337 -0.3721  0.4070 -1.1010
  787MOL0     H 6243   8.565  -0.050   4.149 -1.0326  1.7025 -0.6132
  787MOL0     H 6244   8.534   0.704   4.398 -0.6799 -1.1128  0.5234
  787MOL0     H 6245   8.656   0.907   4.428  1.5633  0.7430  1.2097
  788MOL0     O 6246   4.876   2.035   9.338  0.1154 -0.2361  0.3106
  788MOL0     C 6247   4.949   1.994   9.253 -0.3560 -0.7345  0.1129
  788MOL0     O 6248   5.070   1.955   9.272 -0.2390  0.3278 -0.8827
  788MOL0     C 6249   5.143   1.968   9.386  0.9123 -0.4462  0.1649
  788MOL0     C 6250   5.176   1.863   9.467  1.0898 -0.6556  0.7303
  788MOL0     C 6251   5.245   1.875   9.590  0.3010  0.2018  0.9271
  788MOL0     C 6252   5.295   2.002   9.629 -0.3844  0.0226  0.7406
  788MOL0     O 6253   5.385   1.997   9.734  0.2879 -1.3009 -0.2793
  788MOL0     C 6254   5.442   2.117   9.787  0.9171  0.1430 -0.2266
  788MOL0     C 6255   5.563   2.162   9.710 -0.0359  0.1923 -0.4689
  788MOL0     C 6256   5.690   2.090   9.727 -0.1773  1.5229  0.1259
  788MOL0     C 6257   5.760   2.092   9.861 -0.3876  0.1066 -0.4625
  788MOL0     C 6258   5.894   2.030   9.850 -0.2680  0.3197 -0.2294
  788MOL0     C 6259   5.941   1.957   9.969 -0.0825  0.1421 -1.5332
  788MOL0     C 6260   5.838   1.857  10.040 -0.8426  0.1588  1.0676
  788MOL0     C 6261   5.758   1.891  10.159 -0.2535  1.1635  0.1160
  788MOL0     N 6262   5.850   1.933  10.265 -0.0258 -0.4909  0.3538
  788MOL0     C 6263   5.944   1.853  10.320 -0.7114  0.2684  0.4922
  788MOL0     C 6264   6.034   1.935  10.382  0.4654 -0.8329 -0.2889
  788MOL0     C 6265   6.159   1.909  10.469 -0.1663 -1.0484  0.0989
  788MOL0     C 6266   6.226   2.027  10.548  0.7402 -0.0888 -0.0476
  788MOL0     C 6267   6.129   2.084  10.662  0.3127 -0.1468 -0.6653
  788MOL0     C 6268   6.192   2.146  10.788 -0.4674 -0.6754 -0.0547
  788MOL0     O 6269   6.254   2.039  10.867  0.1965  0.0556 -0.0192
  788MOL0     C 6270   6.313   2.066  10.988  0.4062  0.3515  0.4493
  788MOL0     C 6271   6.358   2.195  11.016  0.6055 -0.0522  1.5652
  788MOL0     C 6272   6.433   2.219  11.129  0.0640 -0.5106  0.1138
  788MOL0     C 6273   6.487   2.365  11.145  0.0961  0.6793  0.0236
  788MOL0     C 6274   6.457   2.111  11.217 -0.6218 -0.4937 -0.1864
  788MOL0     C 6275   6.531   2.133  11.340 -0.2739 -0.3291  0.2187
  788MOL0     O 6276   6.491   2.058  11.449  0.3938  0.4550 -0.0166
  788MOL0     C 6277   6.588   2.027  11.542 -0.7671  0.1239  0.2202
  788MOL0     C 6278   6.553   2.056  11.670  0.7239 -0.0779 -0.8846
  788MOL0     C 6279   6.626   2.008  11.782  0.2398 -0.7260 -0.1235
  788MOL0     C 6280   6.756   1.960  11.755  0.2352 -0.4536 -0.2687
  788MOL0     O 6281   6.855   1.927  11.852  0.5713 -0.5220  0.0100
  788MOL0     C 6282   6.799   1.898  11.985 -0.0835  0.1729 -0.8435
  788MOL0     C 6283   6.804   2.024  12.066 -0.2581  0.0853 -0.3601
  788MOL0     C 6284   6.731   1.989  12.198 -0.2365 -0.1120 -0.1183
  788MOL0     C 6285   6.749   2.109  12.289 -0.1708 -0.1460  0.1168
  788MOL0     C 6286   6.732   2.079  12.433  0.5645 -0.6302  0.4753
  788MOL0     C 6287   6.776   2.192  12.530 -0.4848  0.1084  0.3714
  788MOL0     C 6288   6.924   2.229  12.520 -0.2653 -0.1158  0.8232
  788MOL0     C 6289   6.953   2.331  12.629  0.8200 -1.0048  0.9259
  788MOL0    Cl 6290   7.127   2.393  12.625 -0.3283 -0.2669  0.0115
  788MOL0     C 6291   6.790   1.928  11.627 -0.6171  0.0217 -0.2947
  788MOL0     C 6292   6.704   1.955  11.519 -0.1075  0.8598 -0.5389
  788MOL0     O 6293   6.637   2.200  11.332  0.3241 -0.4052 -0.1477
  788MOL0     C 6294   6.418   1.982  11.189 -0.1022  0.0267 -0.4639
  788MOL0     C 6295   6.346   1.967  11.075  0.1164 -0.9359 -1.2938
  788MOL0     N 6296   5.995   2.063  10.348  0.4301 -0.2174  0.6891
  788MOL0     N 6297   5.886   2.065  10.283  1.0544  0.9017 -0.5452
  788MOL0     C 6298   5.261   2.110   9.552  0.1385  0.6923 -0.3144
  788MOL0     C 6299   5.192   2.089   9.432 -0.0193  0.3739  0.6150
  788MOL0     C 6300   4.890   1.988   9.118 -0.4553  0.6274  0.5821
  788MOL0     C 6301   4.941   1.892   9.025  0.2809 -0.2469 -1.0923
  788MOL0     C 6302   4.879   1.869   8.902 -0.4008 -0.7612 -0.6479
  788MOL0     C 6303   4.771   1.949   8.865 -0.7556 -0.3357 -0.5403
  788MOL0     O 6304   4.726   1.925   8.738  0.0446  0.5185 -0.3970
  788MOL0     C 6305   4.677   2.043   8.675  0.6924  0.6119  0.6549
  788MOL0     C 6306   4.708   2.041   8.520 -0.3579 -0.4376  0.6015
  788MOL0     C 6307   4.670   2.174   8.441 -0.6631  0.7322 -0.0850
  788MOL0     C 6308   4.780   2.218   8.336 -0.1409  0.5438 -0.2264
  788MOL0     C 6309   4.761   2.151   8.209 -0.0421  0.8288  1.1941
  788MOL0     C 6310   4.752   2.097   8.104 -0.4528  0.1564 -0.0700
  788MOL0     C 6311   4.726   2.045   8.950 -0.7838 -0.2794 -0.3076
  788MOL0     C 6312   4.780   2.061   9.075 -0.0664 -0.0796 -0.0498
  788MOL0     H 6313   5.146   1.761   9.442  0.1675 -0.2454  0.1114
  788MOL0     H 6314   5.248   1.778   9.638  0.8577 -1.3576 -2.0212
  788MOL0     H 6315   5.366   2.195   9.803 -0.5022 -0.5876 -2.8142
  788MOL0     H 6316   5.467   2.090   9.890  0.3107  1.3720  0.2736
  788MOL0     H 6317   5.536   2.153   9.604 -0.3630 -1.0524 -0.2967
  788MOL0     H 6318   5.585   2.266   9.736  2.1474 -0.1968 -0.5515
  788MOL0     H 6319   5.685   1.986   9.692  3.3278  2.0913 -2.6565
  788MOL0     H 6320   5.758   2.140   9.657  1.3561  1.1988  1.3339
  788MOL0     H 6321   5.746   2.183   9.920 -1.3195  0.5764 -1.3685
  788MOL0     H 6322   5.686   2.026   9.910  0.1479  1.1916  1.9810
  788MOL0     H 6323   5.895   1.943   9.784 -1.1376  1.0472 -1.2276
  788MOL0     H 6324   5.956   2.110   9.809 -1.7811  1.3163 -0.6697
  788MOL0     H 6325   6.031   1.896   9.957 -0.7030 -1.3582  0.7691
  788MOL0     H 6326   5.968   2.036  10.040  1.2539  3.0420 -4.9455
  788MOL0     H 6327   5.784   1.821   9.952 -2.0998  1.3379  1.3331
  788MOL0     H 6328   5.901   1.772  10.067 -0.4947 -0.2700 -0.8997
  788MOL0     H 6329   5.698   1.805  10.191  1.3520  0.8769  2.6865
  788MOL0     H 6330   5.696   1.977  10.134  4.8412  4.9653 -1.1393
  788MOL0     H 6331   5.953   1.744  10.315  0.4698  0.3063  1.2988
  788MOL0     H 6332   6.146   1.834  10.547 -0.5550 -2.9272 -1.7045
  788MOL0     H 6333   6.228   1.854  10.405 -1.7803 -0.6369 -2.1012
  788MOL0     H 6334   6.250   2.103  10.472 -0.7096 -0.7319 -1.2001
  788MOL0     H 6335   6.323   1.997  10.589  0.4904  0.9375  1.3493
  788MOL0     H 6336   6.061   2.007  10.700 -2.0120  0.5009 -3.2233
  788MOL0     H 6337   6.064   2.162  10.623  1.8443  0.6621 -1.7347
  788MOL0     H 6338   6.112   2.195  10.844  1.2102  0.8690  1.0852
  788MOL0     H 6339   6.262   2.222  10.753 -0.1269 -0.5696  0.8323
  788MOL0     H 6340   6.335   2.281  10.955  0.0325 -0.8656  0.5987
  788MOL0     H 6341   6.594   2.384  11.155  0.4619 -1.6323  1.2686
  788MOL0     H 6342   6.457   2.422  11.056  2.6172  2.5872  0.2758
  788MOL0     H 6343   6.425   2.397  11.229 -0.8606  0.2132 -0.4974
  788MOL0     H 6344   6.453   2.089  11.698  0.6319 -0.6008 -0.5713
  788MOL0     H 6345   6.597   2.026  11.885  1.1098  0.8808 -0.1140
  788MOL0     H 6346   6.697   1.857  11.990  0.4851 -1.3766 -1.4112
  788MOL0     H 6347   6.858   1.825  12.041 -2.9770 -1.4725  0.2721
  788MOL0     H 6348   6.908   2.047  12.090 -0.5408  0.9057  0.1225
  788MOL0     H 6349   6.764   2.114  12.017 -3.2646  0.9685  3.2414
  788MOL0     H 6350   6.771   1.897  12.241 -1.8868 -0.5741  0.4837
  788MOL0     H 6351   6.625   1.973  12.178 -0.4104 -1.1087  1.4689
  788MOL0     H 6352   6.849   2.150  12.271 -0.8318  0.1775 -3.5782
  788MOL0     H 6353   6.679   2.185  12.254  2.1467  1.0168 -2.3757
  788MOL0     H 6354   6.774   1.984  12.466  1.8409  0.9493  3.8837
  788MOL0     H 6355   6.625   2.060  12.444  0.6739 -0.6495  1.6397
  788MOL0     H 6356   6.713   2.273  12.493  0.0638 -0.6983 -2.6497
  788MOL0     H 6357   6.752   2.163  12.632 -2.9051 -2.9086 -0.8736
  788MOL0     H 6358   6.949   2.281  12.427 -2.1948 -0.7999 -0.1291
  788MOL0     H 6359   6.984   2.137  12.526 -0.2102 -0.2089 -0.7290
  788MOL0     H 6360   6.936   2.278  12.723 -3.2939  0.2553  1.1129
  788MOL0     H 6361   6.883   2.414  12.618 -0.3734 -2.1314 -0.6727
  788MOL0     H 6362   6.885   1.886  11.593  0.1594  1.6702 -0.2851
  788MOL0     H 6363   6.747   1.931  11.422  2.1938 -1.5334  0.9434
  788MOL0     H 6364   6.431   1.900  11.259  1.9637  0.7559  0.0582
  788MOL0     H 6365   6.315   1.869  11.042  1.0662 -1.4980 -0.5627
  788MOL0     H 6366   5.293   2.209   9.581 -3.8245  2.8848 -2.6289
  788MOL0     H 6367   5.171   2.173   9.366 -1.2816 -1.1954 -1.0773
  788MOL0     H 6368   5.021   1.824   9.050  2.6401  2.6535 -0.0412
  788MOL0     H 6369   4.908   1.786   8.839 -1.1844  1.0116 -3.5553
  788MOL0     H 6370   4.568   2.038   8.674  0.7368 -1.6335 -1.8815
  788MOL0     H 6371   4.712   2.137   8.719  2.0796 -0.7631  2.7093
  788MOL0     H 6372   4.659   1.951   8.482 -2.1661  1.3170 -1.5465
  788MOL0     H 6373   4.813   2.019   8.500 -1.2987 -2.5635 -3.0623
  788MOL0     H 6374   4.636   2.247   8.516 -1.5053  2.9508 -2.4784
  788MOL0     H 6375   4.577   2.158   8.386 -1.0389  2.0625  0.1278
  788MOL0     H 6376   4.880   2.192   8.371 -0.1515 -0.1515 -0.7039
  788MOL0     H 6377   4.786   2.325   8.314  2.1868 -0.1717 -4.1189
  788MOL0     H 6378   4.733   2.025   8.026 -0.1471  1.8141 -1.7563
  788MOL0     H 6379   4.634   2.100   8.933  1.1434  3.9556  1.4841
  788MOL0     H 6380   4.719   2.116   9.145 -0.6735  1.1641 -1.5076
  789MOL0     O 6381  11.260   1.818   3.298 -0.2930 -0.1978 -0.3114
  789MOL0     C 6382  11.220   1.790   3.187  0.0174  0.7437 -0.3631
  789MOL0     O 6383  11.238   1.865   3.078 -0.3371  0.6022  0.8000
  789MOL0     C 6384  11.293   1.986   3.068  0.3550  0.1085 -0.0683
  789MOL0     C 6385  11.301   2.039   2.936  0.1952 -0.2737 -0.3861
  789MOL0     C 6386  11.344   2.167   2.909  0.0280  1.5859 -0.1344
  789MOL0     C 6387  11.386   2.254   3.005 -0.6378 -0.4239  0.1699
  789MOL0     O 6388  11.441   2.384   2.986 -0.0752  0.2057  0.0062
  789MOL0     C 6389  11.477   2.429   2.854  1.0886  0.0637 -0.7165
  789MOL0     C 6390  11.587   2.537   2.876  0.5876  0.5747 -0.6777
  789MOL0     C 6391  11.720   2.491   2.924  0.0681 -0.0644 -0.8793
  789MOL0     C 6392  11.837   2.560   2.847 -0.0268 -1.7412 -0.9306
  789MOL0     C 6393  11.968   2.558   2.926 -0.3389 -0.5766  0.1225
  789MOL0     C 6394  12.089   2.640   2.862  0.0891  0.5694 -0.6822
  789MOL0     C 6395  12.203   2.624   2.970  0.0601 -0.3179 -1.1017
  789MOL0     C 6396  12.343   2.663   2.902 -0.1976  0.3149 -0.1631
  789MOL0     N 6397  12.387   2.565   2.805 -0.4152  0.7249 -0.1568
  789MOL0     C 6398  12.412   2.436   2.812 -0.6236  0.5742 -0.3000
  789MOL0     C 6399  12.429   2.385   2.686  0.2981 -0.2914  0.1612
  789MOL0     C 6400  12.461   2.247   2.649 -1.7762 -0.1665 -0.0221
  789MOL0     C 6401  12.592   2.198   2.714 -0.6229 -0.2102 -0.8254
  789MOL0     C 6402  12.677   2.121   2.612  0.6182  0.1966 -1.3055
  789MOL0     C 6403  12.800   2.052   2.668 -0.2043 -0.2954  0.6675
  789MOL0     O 6404  12.776   1.993   2.800 -0.4636 -0.5582  0.1327
  789MOL0     C 6405  12.886   1.933   2.863 -0.3372  0.1282 -1.2916
  789MOL0     C 6406  13.016   1.926   2.813 -0.2910  1.2474  0.5787
  789MOL0     C 6407  13.123   1.867   2.886 -0.4490 -0.4268  0.1699
  789MOL0     C 6408  13.254   1.848   2.806  0.3913  0.3043 -0.3125
  789MOL0     C 6409  13.094   1.801   3.010 -0.2326 -0.2813  0.2768
  789MOL0     C 6410  13.201   1.731   3.086 -0.5055 -0.3443 -0.4790
  789MOL0     O 6411  13.146   1.661   3.184  0.2064  0.1202  0.0882
  789MOL0     C 6412  13.228   1.594   3.270 -0.4297  0.4996 -0.1795
  789MOL0     C 6413  13.248   1.650   3.394  0.0675 -0.4327 -0.5107
  789MOL0     C 6414  13.306   1.580   3.491 -0.7219 -0.2542  0.7481
  789MOL0     C 6415  13.322   1.441   3.473  0.3448 -0.5631 -0.0812
  789MOL0     O 6416  13.361   1.384   3.592 -0.3334  0.8663  0.6902
  789MOL0     C 6417  13.309   1.258   3.627 -0.1775 -0.1785 -0.7687
  789MOL0     C 6418  13.397   1.192   3.733  0.1955 -0.1564  0.6681
  789MOL0     C 6419  13.520   1.140   3.661 -0.0204 -0.4591  0.3673
  789MOL0     C 6420  13.643   1.119   3.752  1.3266  0.7646 -0.0299
  789MOL0     C 6421  13.759   1.056   3.683 -1.1429  1.0207  1.1212
  789MOL0     C 6422  13.874   1.024   3.783  0.0318 -0.7790 -0.1966
  789MOL0     C 6423  13.978   0.935   3.711  0.2766  0.3576 -0.3960
  789MOL0     C 6424  14.108   0.896   3.798  0.1472 -0.7614 -0.4175
  789MOL0    Cl 6425  14.198   0.780   3.699  0.1210  0.3522 -0.1900
  789MOL0     C 6426  13.298   1.380   3.352 -0.0049  0.6032  0.5893
  789MOL0     C 6427  13.260   1.460   3.245  0.3193  0.6613 -0.8506
  789MOL0     O 6428  13.313   1.730   3.049 -1.0768  0.1669 -0.0969
  789MOL0     C 6429  12.965   1.813   3.065 -0.1112 -0.7137 -0.2585
  789MOL0     C 6430  12.861   1.866   2.992 -0.8985 -0.5148 -0.2164
  789MOL0     N 6431  12.414   2.493   2.599  0.1964  0.8546  0.1867
  789MOL0     N 6432  12.385   2.599   2.673  0.5775 -0.2965  0.7078
  789MOL0     C 6433  11.383   2.205   3.138 -0.4365  0.4542  0.3806
  789MOL0     C 6434  11.330   2.072   3.173  0.3650  0.3391 -0.1773
  789MOL0     C 6435  11.185   1.654   3.151  0.6949  0.4920  0.3553
  789MOL0     C 6436  11.191   1.537   3.242 -0.6834  0.3575 -0.9008
  789MOL0     C 6437  11.172   1.412   3.195  0.7490  0.4804  0.4153
  789MOL0     C 6438  11.138   1.384   3.066 -0.6327 -0.4514  1.0002
  789MOL0     O 6439  11.145   1.260   3.023 -0.2466  0.2489  0.0981
  789MOL0     C 6440  11.083   1.216   2.903 -0.3255 -0.1145 -0.2315
  789MOL0     C 6441  11.065   1.061   2.897  1.0439 -0.1825  0.4628
  789MOL0     C 6442  11.201   0.995   2.883 -0.2991  0.3738 -0.8112
  789MOL0     C 6443  11.190   0.841   2.879  1.0941 -0.0071 -1.0277
  789MOL0     C 6444  11.330   0.798   2.875 -0.3778 -0.3226  0.1122
  789MOL0     C 6445  11.446   0.773   2.871  0.4751 -0.0801  0.0525
  789MOL0     C 6446  11.129   1.489   2.975  0.8929 -0.2944  0.0529
  789MOL0     C 6447  11.144   1.622   3.018  0.4975 -0.4117  0.0480
  789MOL0     H 6448  11.254   1.972   2.865 -0.4648 -2.1407  1.6958
  789MOL0     H 6449  11.355   2.201   2.807  1.8727  0.4943 -0.3446
  789MOL0     H 6450  11.513   2.347   2.791 -1.3570 -0.8167 -1.0542
  789MOL0     H 6451  11.385   2.467   2.810 -0.2011 -1.1092  0.8286
  789MOL0     H 6452  11.592   2.575   2.773 -1.4951  0.1556 -0.9720
  789MOL0     H 6453  11.548   2.617   2.940  0.7030 -0.3722  0.5964
  789MOL0     H 6454  11.709   2.508   3.032  0.9637  2.2193 -1.1125
  789MOL0     H 6455  11.719   2.381   2.920 -0.9045 -0.0404 -1.5317
  789MOL0     H 6456  11.851   2.513   2.749  2.7997 -0.5616 -1.1973
  789MOL0     H 6457  11.817   2.667   2.840 -0.3105 -1.5847  1.5307
  789MOL0     H 6458  11.940   2.615   3.015 -2.6382  2.5363 -2.3493
  789MOL0     H 6459  12.001   2.457   2.952  2.3701 -0.0676 -0.9701
  789MOL0     H 6460  12.116   2.588   2.769  0.0789 -1.8848  0.5874
  789MOL0     H 6461  12.064   2.743   2.838 -1.8749  0.0679 -0.9486
  789MOL0     H 6462  12.181   2.705   3.040  3.4201  3.0172 -3.4866
  789MOL0     H 6463  12.202   2.529   3.024  0.8467 -0.7791 -1.8621
  789MOL0     H 6464  12.421   2.661   2.979  1.0585 -1.6329 -1.4062
  789MOL0     H 6465  12.316   2.761   2.862 -3.2067 -0.3256  0.0650
  789MOL0     H 6466  12.439   2.372   2.895 -0.8345 -0.8848 -1.3293
  789MOL0     H 6467  12.381   2.179   2.680  0.0094 -0.9625  3.3141
  789MOL0     H 6468  12.482   2.254   2.542  2.6794  2.4803  0.7954
  789MOL0     H 6469  12.560   2.136   2.799 -1.3395  0.7189 -0.3914
  789MOL0     H 6470  12.646   2.285   2.752 -0.2529 -1.6762  2.2797
  789MOL0     H 6471  12.703   2.182   2.525  3.0230 -0.3228 -1.0013
  789MOL0     H 6472  12.601   2.049   2.579  2.1233 -2.3867  0.5165
  789MOL0     H 6473  12.890   2.113   2.672 -0.0330 -0.3717 -1.0948
  789MOL0     H 6474  12.826   1.974   2.596 -0.7586  0.9140 -0.9251
  789MOL0     H 6475  13.032   1.974   2.717 -1.5905 -1.3941 -1.0932
  789MOL0     H 6476  13.241   1.892   2.707  0.9440 -0.6889 -0.8393
  789MOL0     H 6477  13.338   1.900   2.852  2.0294 -0.3612 -2.4348
  789MOL0     H 6478  13.269   1.741   2.787 -2.0649 -0.5284  1.8421
  789MOL0     H 6479  13.205   1.744   3.424 -1.1146 -1.1499  0.1000
  789MOL0     H 6480  13.332   1.637   3.580  0.6246  0.1542  0.1097
  789MOL0     H 6481  13.212   1.267   3.677 -1.6978 -4.3393 -2.5722
  789MOL0     H 6482  13.287   1.192   3.544  2.7402 -1.8121 -0.3997
  789MOL0     H 6483  13.424   1.269   3.805 -1.1429  1.1000 -0.0976
  789MOL0     H 6484  13.333   1.111   3.771 -1.8734  0.7892 -0.5882
  789MOL0     H 6485  13.559   1.212   3.588  1.9904  1.7385  3.3705
  789MOL0     H 6486  13.498   1.040   3.623 -2.3121 -0.5660  1.7766
  789MOL0     H 6487  13.679   1.211   3.799  0.3697  2.2751 -2.1005
  789MOL0     H 6488  13.607   1.066   3.841  0.2082  3.3793  1.1848
  789MOL0     H 6489  13.792   1.116   3.597 -0.2257  2.1269  2.2026
  789MOL0     H 6490  13.734   0.957   3.643  1.6961  0.3835  0.6714
  789MOL0     H 6491  13.923   1.121   3.793 -1.7616  0.2836 -1.2377
  789MOL0     H 6492  13.829   0.983   3.874 -4.5092  1.7662 -0.9687
  789MOL0     H 6493  14.014   0.976   3.616  2.7930  0.4165  0.4873
  789MOL0     H 6494  13.943   0.835   3.682  3.4618  0.0259 -3.8198
  789MOL0     H 6495  14.090   0.849   3.895 -0.6888  0.9065  0.2850
  789MOL0     H 6496  14.167   0.988   3.809 -2.3892  0.7471  1.6894
  789MOL0     H 6497  13.315   1.277   3.325 -1.1410  0.3342  0.8318
  789MOL0     H 6498  13.244   1.419   3.145 -0.5205  0.9702 -0.8592
  789MOL0     H 6499  12.937   1.777   3.164 -3.3532  0.0557 -0.7691
  789MOL0     H 6500  12.759   1.870   3.029 -1.0247  0.6098 -0.6355
  789MOL0     H 6501  11.422   2.254   3.227  0.4765 -1.5250  1.1414
  789MOL0     H 6502  11.328   2.029   3.272 -0.0832  1.0935  0.1478
  789MOL0     H 6503  11.187   1.561   3.348 -0.9952 -2.2534 -0.2696
  789MOL0     H 6504  11.173   1.320   3.251 -3.6159 -1.8370 -2.7231
  789MOL0     H 6505  10.981   1.257   2.903  0.1805  1.1562 -0.1786
  789MOL0     H 6506  11.118   1.236   2.802 -1.7815 -3.5426 -1.6053
  789MOL0     H 6507  11.010   1.030   2.808  0.5081 -0.8353  1.0071
  789MOL0     H 6508  11.009   1.016   2.980  3.0598 -1.0610  1.4181
  789MOL0     H 6509  11.269   1.014   2.967  2.1683 -4.5413 -1.3794
  789MOL0     H 6510  11.255   1.036   2.797  2.0979 -0.2420  0.3152
  789MOL0     H 6511  11.146   0.811   2.783  1.7532 -0.2755 -1.2525
  789MOL0     H 6512  11.136   0.801   2.965  1.3932 -1.4251 -1.4633
  789MOL0     H 6513  11.551   0.753   2.864  0.5435 -0.7656  2.2750
  789MOL0     H 6514  11.100   1.463   2.874 -0.7049 -1.9394  0.8812
  789MOL0     H 6515  11.117   1.708   2.957 -0.5724 -0.7075  0.0922
  790MOL0     O 6516   9.803  10.882   4.725  0.3543 -0.2094 -0.8015
  790MOL0     C 6517   9.862  10.776   4.692  0.6197 -0.0764  0.0885
  790MOL0     O 6518   9.908  10.679   4.765 -0.3963 -0.3417  0.9298
  790MOL0     C 6519   9.929  10.702   4.897 -0.0982 -0.7168 -0.3468
  790MOL0     C 6520   9.854  10.613   4.974  0.7850  0.4996 -0.0040
  790MOL0     C 6521   9.868  10.611   5.115  1.2780  1.2871 -0.1197
  790MOL0     C 6522   9.966  10.687   5.175 -0.1894 -0.5115  0.0593
  790MOL0     O 6523   9.973  10.693   5.311 -1.2004  0.1270  0.0883
  790MOL0     C 6524  10.066  10.784   5.369  0.2001 -0.5243  0.8718
  790MOL0     C 6525  10.088  10.755   5.509 -0.7837 -0.5191  1.3953
  790MOL0     C 6526   9.978  10.800   5.610 -0.5981 -0.3184  0.0762
  790MOL0     C 6527   9.832  10.764   5.571  0.4013 -0.5680 -0.3628
  790MOL0     C 6528   9.722  10.822   5.669 -0.1700 -0.2691 -0.5124
  790MOL0     C 6529   9.594  10.753   5.635  0.8240  0.0885  0.6961
  790MOL0     C 6530   9.566  10.626   5.708  0.1868 -0.4977 -0.8150
  790MOL0     C 6531   9.410  10.605   5.712 -0.6607  0.1631 -0.6572
  790MOL0     N 6532   9.351  10.706   5.804  0.0397 -0.1684  0.1462
  790MOL0     C 6533   9.358  10.699   5.939  0.4575  0.1466 -0.4516
  790MOL0     C 6534   9.295  10.821   5.972 -0.1538 -0.3224 -0.4674
  790MOL0     C 6535   9.258  10.865   6.116 -0.0181  0.0098  0.5320
  790MOL0     C 6536   9.137  10.779   6.162 -0.4462 -0.4086  0.2211
  790MOL0     C 6537   9.081  10.828   6.294 -0.4289 -0.1300 -0.4445
  790MOL0     C 6538   8.990  10.736   6.373 -0.0638 -0.0882 -0.0397
  790MOL0     O 6539   8.953  10.789   6.494  0.1041  0.2853  0.1957
  790MOL0     C 6540   8.899  10.720   6.601 -0.7550  1.0297  0.0491
  790MOL0     C 6541   8.871  10.782   6.722  0.9533  1.3854  0.6798
  790MOL0     C 6542   8.817  10.717   6.827  0.3912  0.1647  1.1557
  790MOL0     C 6543   8.750  10.799   6.936  0.1016 -0.6289 -0.4562
  790MOL0     C 6544   8.787  10.575   6.809  0.0114 -0.3713 -1.0831
  790MOL0     C 6545   8.744  10.500   6.930 -0.5334 -0.9343 -0.0761
  790MOL0     O 6546   8.653  10.399   6.899  0.1919 -0.5002  0.2324
  790MOL0     C 6547   8.611  10.312   6.996 -0.3057 -0.7100 -0.3227
  790MOL0     C 6548   8.687  10.205   7.024  0.4199 -0.1801 -0.7093
  790MOL0     C 6549   8.644  10.105   7.116 -0.2884 -0.8356  0.3835
  790MOL0     C 6550   8.529  10.123   7.190 -0.6779 -0.1633  0.4496
  790MOL0     O 6551   8.507  10.015   7.271 -0.2438  0.7284 -0.3637
  790MOL0     C 6552   8.404  10.042   7.371 -0.2417 -0.6368  0.5192
  790MOL0     C 6553   8.381   9.908   7.444 -0.2775 -0.0863  0.4573
  790MOL0     C 6554   8.313   9.793   7.365  0.3716  0.7128  0.3021
  790MOL0     C 6555   8.246   9.692   7.464  0.0623  0.9732  0.8462
  790MOL0     C 6556   8.358   9.588   7.495  0.2971 -0.1038  0.4062
  790MOL0     C 6557   8.298   9.480   7.588 -0.4408 -0.4123 -0.4141
  790MOL0     C 6558   8.397   9.363   7.620  0.5357  0.4903 -0.3168
  790MOL0     C 6559   8.515   9.410   7.703 -0.7281 -0.2163 -1.0068
  790MOL0    Cl 6560   8.608   9.275   7.787 -0.3434 -0.5242  0.5981
  790MOL0     C 6561   8.455  10.247   7.170  0.1020  0.1931  0.2010
  790MOL0     C 6562   8.497  10.339   7.072  0.1296 -0.5438 -0.1645
  790MOL0     O 6563   8.788  10.527   7.039  0.6957  0.6903  0.3680
  790MOL0     C 6564   8.810  10.511   6.684  0.1912  0.3853  0.0808
  790MOL0     C 6565   8.862  10.584   6.581  0.0124  0.2480  0.1466
  790MOL0     N 6566   9.253  10.886   5.859 -0.3034 -1.2364  0.5620
  790MOL0     N 6567   9.285  10.814   5.761 -0.1993  0.3678 -1.0307
  790MOL0     C 6568  10.047  10.775   5.096 -1.0741 -0.2621 -0.8943
  790MOL0     C 6569  10.027  10.783   4.954 -0.4878  0.1530 -0.6553
  790MOL0     C 6570   9.901  10.764   4.545  0.8286 -0.2491 -0.1786
  790MOL0     C 6571   9.995  10.658   4.506  0.4443 -0.1203 -0.3440
  790MOL0     C 6572  10.033  10.655   4.371 -0.1641 -0.1041 -1.7630
  790MOL0     C 6573  10.018  10.762   4.284 -0.8500  0.7028  0.2937
  790MOL0     O 6574  10.069  10.760   4.154 -0.0254 -0.0588 -0.6049
  790MOL0     C 6575  10.194  10.700   4.124  0.0808  0.3033  0.4908
  790MOL0     C 6576  10.289  10.823   4.114  0.3879  0.5939 -1.0951
  790MOL0     C 6577  10.431  10.776   4.075 -0.7371 -0.8535  0.2780
  790MOL0     C 6578  10.527  10.890   4.107  0.4000  0.0667  0.8411
  790MOL0     C 6579  10.665  10.867   4.066 -1.0058 -0.3478 -0.2260
  790MOL0     C 6580  10.770  10.829   4.037 -1.0298 -0.1858  0.0061
  790MOL0     C 6581   9.939  10.863   4.325 -0.4938 -1.2206 -0.2540
  790MOL0     C 6582   9.879  10.865   4.449 -0.1509 -0.5944  0.0903
  790MOL0     H 6583   9.786  10.540   4.931 -1.7260  2.5155  0.2575
  790MOL0     H 6584   9.792  10.557   5.170  1.9580 -0.2939 -0.6737
  790MOL0     H 6585  10.164  10.766   5.323 -2.2876 -2.7075 -4.3921
  790MOL0     H 6586  10.042  10.890   5.360  1.9778  0.0608  2.4609
  790MOL0     H 6587  10.094  10.646   5.511 -0.1790 -0.4829  2.6191
  790MOL0     H 6588  10.179  10.807   5.540 -2.2335  2.9962  0.2068
  790MOL0     H 6589   9.998  10.764   5.711  0.9000 -0.9092 -0.3960
  790MOL0     H 6590   9.984  10.909   5.604  1.3655 -0.3212  1.1923
  790MOL0     H 6591   9.817  10.804   5.470 -0.0892  0.0356 -0.0583
  790MOL0     H 6592   9.824  10.655   5.581  0.3710 -0.4040  2.0571
  790MOL0     H 6593   9.754  10.813   5.773  2.6683  0.5209 -1.2354
  790MOL0     H 6594   9.709  10.927   5.639  2.3179  0.5856  1.1302
  790MOL0     H 6595   9.508  10.816   5.661 -0.3953 -2.0271  2.1024
  790MOL0     H 6596   9.595  10.739   5.527  2.1522 -0.3478  0.7545
  790MOL0     H 6597   9.622  10.541   5.668  1.3635 -0.5787  0.8921
  790MOL0     H 6598   9.607  10.639   5.809 -3.2976 -1.4945  0.9071
  790MOL0     H 6599   9.389  10.502   5.744 -0.3831 -0.2797 -1.8286
  790MOL0     H 6600   9.372  10.605   5.609 -1.7201  1.0280 -0.2804
  790MOL0     H 6601   9.387  10.611   5.996  0.9719 -0.1110 -1.1064
  790MOL0     H 6602   9.346  10.858   6.180  0.7224  2.4793 -0.1113
  790MOL0     H 6603   9.228  10.970   6.116  6.3290  2.3068 -1.3408
  790MOL0     H 6604   9.172  10.676   6.177 -1.2606 -0.8580 -0.8327
  790MOL0     H 6605   9.050  10.774   6.096  0.2928 -1.3127 -0.7209
  790MOL0     H 6606   9.025  10.920   6.275  1.3461  0.9393 -0.7167
  790MOL0     H 6607   9.167  10.847   6.359  0.1322 -3.9284  0.1911
  790MOL0     H 6608   9.044  10.641   6.384  1.4921  0.6121 -1.3119
  790MOL0     H 6609   8.894  10.715   6.323 -1.0839 -0.1347  1.8617
  790MOL0     H 6610   8.904  10.886   6.724  1.0711  1.3541  0.4782
  790MOL0     H 6611   8.717  10.897   6.900  1.0136  0.0670  0.5223
  790MOL0     H 6612   8.658  10.744   6.959 -0.0522 -0.8478 -1.5247
  790MOL0     H 6613   8.810  10.799   7.027  4.2652 -3.4138 -2.8638
  790MOL0     H 6614   8.789  10.183   6.996  0.4689 -3.7686  1.5942
  790MOL0     H 6615   8.706  10.017   7.132  0.6279 -0.0198  1.4883
  790MOL0     H 6616   8.438  10.121   7.438 -1.4552  0.2255  0.1396
  790MOL0     H 6617   8.312  10.081   7.327 -0.8069  0.1766  2.3410
  790MOL0     H 6618   8.476   9.864   7.476 -0.4171  0.8207  2.2578
  790MOL0     H 6619   8.320   9.939   7.529  1.1561 -0.9585  1.8447
  790MOL0     H 6620   8.387   9.747   7.299 -1.1323  0.3621 -1.1973
  790MOL0     H 6621   8.239   9.840   7.300 -1.6290 -2.3590  0.1619
  790MOL0     H 6622   8.208   9.749   7.549  0.3527  2.2301  0.1597
  790MOL0     H 6623   8.155   9.650   7.419 -0.8647  3.3018  0.3636
  790MOL0     H 6624   8.454   9.629   7.526  0.6131  1.8983 -2.8207
  790MOL0     H 6625   8.384   9.540   7.401 -1.8234  1.2885 -0.9789
  790MOL0     H 6626   8.270   9.533   7.679 -0.5227 -1.0231 -0.0782
  790MOL0     H 6627   8.202   9.437   7.558 -0.5797  1.0968 -2.4079
  790MOL0     H 6628   8.424   9.316   7.525 -1.0423  1.5989 -1.3586
  790MOL0     H 6629   8.345   9.286   7.677  1.5456 -0.0967 -0.1663
  790MOL0     H 6630   8.481   9.467   7.790  0.4784 -0.6223 -0.2344
  790MOL0     H 6631   8.583   9.464   7.637  0.8390 -1.2486 -0.2961
  790MOL0     H 6632   8.358  10.252   7.220 -0.4395 -0.4355 -0.7526
  790MOL0     H 6633   8.436  10.426   7.049  3.4187  1.8401 -0.5325
  790MOL0     H 6634   8.792  10.405   6.670 -2.6066  0.6029  1.2632
  790MOL0     H 6635   8.864  10.525   6.490 -1.0016  0.6191 -0.1277
  790MOL0     H 6636  10.111  10.850   5.140 -1.3963 -1.0938  1.0892
  790MOL0     H 6637  10.082  10.848   4.885 -2.3659  1.7288 -0.7403
  790MOL0     H 6638  10.007  10.571   4.570  1.3894  1.6781  2.0817
  790MOL0     H 6639  10.084  10.568   4.332 -0.6800 -0.1419 -2.3685
  790MOL0     H 6640  10.225  10.632   4.204  1.9115  2.2185  1.5003
  790MOL0     H 6641  10.183  10.648   4.028  0.2052  0.1114  0.5805
  790MOL0     H 6642  10.283  10.878   4.209  1.2646 -1.2056  0.0426
  790MOL0     H 6643  10.243  10.896   4.047 -1.9388  3.6617  3.2701
  790MOL0     H 6644  10.458  10.751   3.972  1.8929  1.9712  0.1243
  790MOL0     H 6645  10.460  10.697   4.146 -0.7880  0.1724  1.4709
  790MOL0     H 6646  10.527  10.918   4.213 -0.0411  2.8689  0.1770
  790MOL0     H 6647  10.492  10.979   4.055  3.3290  1.9665  1.8664
  790MOL0     H 6648  10.867  10.792   4.009 -0.1287  1.6443  0.5528
  790MOL0     H 6649   9.933  10.952   4.263  1.5869 -0.8838 -0.0386
  790MOL0     H 6650   9.820  10.953   4.473 -0.1419  0.0585 -2.0733
  791MOL0     O 6651   8.387  10.673   8.706  0.3281 -0.2019  0.3152
  791MOL0     C 6652   8.488  10.625   8.654  0.1192  0.0733  0.3018
  791MOL0     O 6653   8.608  10.694   8.635 -0.6973  0.4895 -0.4500
  791MOL0     C 6654   8.603  10.831   8.676 -0.6620 -0.1331  0.3530
  791MOL0     C 6655   8.579  10.915   8.571  1.3278 -1.1247 -0.0415
  791MOL0     C 6656   8.571  11.053   8.601 -1.0132 -0.3579  0.5126
  791MOL0     C 6657   8.583  11.114   8.728 -0.8879  0.0110 -0.2306
  791MOL0     O 6658   8.560  11.249   8.741  0.0128  0.9414 -0.4604
  791MOL0     C 6659   8.585  11.314   8.867 -0.2059  0.3302  0.5549
  791MOL0     C 6660   8.591  11.462   8.833 -0.6401  0.2720  0.8912
  791MOL0     C 6661   8.616  11.557   8.949 -0.6236 -0.2101 -1.2344
  791MOL0     C 6662   8.558  11.534   9.096  0.4875 -0.0936 -0.1992
  791MOL0     C 6663   8.599  11.659   9.173  0.5173 -0.2059  0.0657
  791MOL0     C 6664   8.538  11.658   9.325 -0.0130  0.2799 -0.5821
  791MOL0     C 6665   8.580  11.786   9.411 -0.4443  0.0836  0.2340
  791MOL0     C 6666   8.732  11.786   9.443 -0.2025 -0.8959  0.1722
  791MOL0     N 6667   8.764  11.724   9.570  0.4661  0.6862 -0.0045
  791MOL0     C 6668   8.787  11.785   9.684  0.2387  0.5298  0.5704
  791MOL0     C 6669   8.850  11.709   9.766 -0.4775  1.5411  0.6241
  791MOL0     C 6670   8.884  11.746   9.904 -0.5202 -0.5529  0.5398
  791MOL0     C 6671   9.028  11.725   9.927 -1.1652 -1.1665  0.2462
  791MOL0     C 6672   9.070  11.709  10.066 -0.0013 -0.5223 -0.0258
  791MOL0     C 6673   8.982  11.768  10.174  1.0433 -0.6318  0.2093
  791MOL0     O 6674   8.975  11.918  10.165  0.2582 -0.3221  0.4940
  791MOL0     C 6675   8.959  11.991  10.282 -0.1058  0.1396  0.4247
  791MOL0     C 6676   8.983  11.947  10.412 -0.3548  0.4154 -0.3119
  791MOL0     C 6677   8.963  12.018  10.534  0.1335 -0.2176 -0.3322
  791MOL0     C 6678   8.995  11.947  10.659 -0.6204 -0.5882  0.3420
  791MOL0     C 6679   8.913  12.146  10.525  0.1353 -0.3790 -0.2589
  791MOL0     C 6680   8.857  12.241  10.635 -0.4584  0.7347 -0.0985
  791MOL0     O 6681   8.849  12.373  10.606 -0.0909  0.0045  0.3102
  791MOL0     C 6682   8.764  12.458  10.674 -1.0077 -0.5264 -0.5712
  791MOL0     C 6683   8.776  12.489  10.816  0.3114 -0.0712  1.0535
  791MOL0     C 6684   8.679  12.564  10.889 -0.5174  0.9313  0.1042
  791MOL0     C 6685   8.562  12.611  10.814  0.7691  0.2576 -0.0853
  791MOL0     O 6686   8.460  12.690  10.857  0.9645 -0.5438  0.1851
  791MOL0     C 6687   8.478  12.763  10.982  0.3403  0.2945  0.2847
  791MOL0     C 6688   8.366  12.704  11.065  0.3394 -0.8112  0.0888
  791MOL0     C 6689   8.378  12.558  11.093 -0.5243 -0.3233  0.1508
  791MOL0     C 6690   8.260  12.510  11.179  0.4642 -0.2261  0.0648
  791MOL0     C 6691   8.249  12.360  11.204  0.6728 -0.1516 -0.7463
  791MOL0     C 6692   8.324  12.309  11.325 -0.4360  0.1080  0.6293
  791MOL0     C 6693   8.294  12.166  11.361  0.2680  0.1899  0.2823
  791MOL0     C 6694   8.164  12.144  11.432  0.4974 -0.9988  0.4826
  791MOL0    Cl 6695   8.138  11.970  11.456  0.0244 -0.3070  0.0300
  791MOL0     C 6696   8.556  12.576  10.686  0.7929  0.1737  0.4630
  791MOL0     C 6697   8.646  12.502  10.615 -0.6058 -0.0991  0.5504
  791MOL0     O 6698   8.823  12.192  10.744 -0.3433 -0.1008  0.4353
  791MOL0     C 6699   8.906  12.196  10.396 -0.3371 -0.6965  0.3458
  791MOL0     C 6700   8.930  12.126  10.279  0.3502  0.5545  0.4150
  791MOL0     N 6701   8.872  11.588   9.692 -0.0822  0.2416 -0.2025
  791MOL0     N 6702   8.809  11.599   9.581  0.5904 -0.1793  0.0781
  791MOL0     C 6703   8.614  11.019   8.830 -0.0724 -0.4637 -0.5478
  791MOL0     C 6704   8.622  10.880   8.805  0.4070  0.0732 -0.6869
  791MOL0     C 6705   8.484  10.497   8.567 -0.5875 -0.3547 -0.4285
  791MOL0     C 6706   8.600  10.451   8.516  0.0582  1.1406  0.3131
  791MOL0     C 6707   8.594  10.359   8.410  0.2899 -0.3626 -0.3834
  791MOL0     C 6708   8.476  10.311   8.364 -0.2314 -0.5947 -0.3146
  791MOL0     O 6709   8.470  10.214   8.265 -0.3928  0.7728  0.6394
  791MOL0     C 6710   8.370  10.196   8.177  0.1298 -0.4781  1.2316
  791MOL0     C 6711   8.311  10.053   8.198  0.1577 -0.3021  1.3377
  791MOL0     C 6712   8.154  10.055   8.185 -1.0131  0.3645 -0.2248
  791MOL0     C 6713   8.107   9.909   8.170  0.9664 -0.0876  0.9120
  791MOL0     C 6714   8.088   9.869   8.034  0.1164 -0.4329  0.9352
  791MOL0     C 6715   8.070   9.820   7.925 -0.8857  1.0490  0.5036
  791MOL0     C 6716   8.358  10.352   8.426  0.4722 -0.2582  0.4862
  791MOL0     C 6717   8.364  10.454   8.523 -1.0103  0.8296 -0.1720
  791MOL0     H 6718   8.562  10.877   8.471 -1.3605  2.1409 -1.0181
  791MOL0     H 6719   8.539  11.116   8.520  2.3616 -1.4064 -1.8413
  791MOL0     H 6720   8.502  11.285   8.931 -2.7219  1.5749 -1.9136
  791MOL0     H 6721   8.680  11.292   8.917 -0.8297  0.5426  1.8608
  791MOL0     H 6722   8.680  11.460   8.770  0.0750  0.6472  1.8613
  791MOL0     H 6723   8.500  11.488   8.777 -0.1138  1.3967  0.5317
  791MOL0     H 6724   8.723  11.563   8.970 -0.8786  1.1567 -0.1805
  791MOL0     H 6725   8.596  11.660   8.918 -1.3614  0.2800  0.7227
  791MOL0     H 6726   8.454  11.504   9.081  0.9882 -1.1161 -2.0786
  791MOL0     H 6727   8.609  11.452   9.147  1.5870 -0.8780 -2.3978
  791MOL0     H 6728   8.708  11.668   9.179  0.3490  2.7061  0.0303
  791MOL0     H 6729   8.573  11.750   9.118  0.4950  0.0766  0.5401
  791MOL0     H 6730   8.430  11.645   9.338 -0.0166 -0.5870 -1.4067
  791MOL0     H 6731   8.580  11.564   9.360 -1.6258 -1.4597 -2.9864
  791MOL0     H 6732   8.565  11.874   9.348  0.1299  1.4407  1.9350
  791MOL0     H 6733   8.515  11.798   9.498 -1.1613 -2.2270  0.0852
  791MOL0     H 6734   8.756  11.892   9.457  0.2333 -1.2707  2.7743
  791MOL0     H 6735   8.786  11.737   9.362 -1.6071  0.0583 -1.4202
  791MOL0     H 6736   8.752  11.886   9.703  0.8647  1.6375 -3.3284
  791MOL0     H 6737   8.865  11.851   9.927  0.7378 -0.0444 -0.6242
  791MOL0     H 6738   8.825  11.675   9.964 -0.9304  0.5996  1.5324
  791MOL0     H 6739   9.078  11.805   9.871 -5.7175 -0.4008 -3.3520
  791MOL0     H 6740   9.050  11.624   9.892 -1.2937 -1.7196  1.7012
  791MOL0     H 6741   9.160  11.770  10.081  1.1027 -1.8203 -1.1272
  791MOL0     H 6742   9.084  11.600  10.075 -1.3451 -0.7889 -0.8346
  791MOL0     H 6743   9.024  11.746  10.273  2.2283  1.7742  0.3125
  791MOL0     H 6744   8.879  11.732  10.182  0.4918  0.9879  0.9399
  791MOL0     H 6745   9.034  11.858  10.447 -0.6485  1.3523  2.8334
  791MOL0     H 6746   8.941  11.858  10.692 -1.6583 -1.1139 -2.5548
  791MOL0     H 6747   9.102  11.925  10.647 -0.2940  1.0176  0.0602
  791MOL0     H 6748   8.983  11.999  10.755 -2.1134 -3.0132  1.5535
  791MOL0     H 6749   8.859  12.454  10.877  0.1577 -1.0267  0.7398
  791MOL0     H 6750   8.683  12.564  10.997  1.1551 -1.5349  0.1050
  791MOL0     H 6751   8.574  12.749  11.032  0.1020  1.0222  0.9577
  791MOL0     H 6752   8.454  12.866  10.956 -0.5082  0.0178 -0.0629
  791MOL0     H 6753   8.355  12.757  11.160 -2.1740 -0.7234 -0.1774
  791MOL0     H 6754   8.278  12.716  11.001 -0.0676 -0.7684  0.6436
  791MOL0     H 6755   8.468  12.535  11.151  0.5463 -2.3643 -2.1298
  791MOL0     H 6756   8.387  12.488  11.008  3.0101 -0.6175  0.6031
  791MOL0     H 6757   8.268  12.570  11.270 -0.6779 -1.5250  1.0580
  791MOL0     H 6758   8.164  12.534  11.131  1.3003  3.6508 -0.0424
  791MOL0     H 6759   8.290  12.296  11.126  2.3959 -0.2933  0.2037
  791MOL0     H 6760   8.144  12.338  11.222  0.9291 -1.2141 -0.5303
  791MOL0     H 6761   8.430  12.310  11.299 -1.1830 -0.7717 -3.0052
  791MOL0     H 6762   8.308  12.379  11.408  0.4206 -2.9493  3.6305
  791MOL0     H 6763   8.365  12.130  11.437 -1.4791 -2.0706  0.9347
  791MOL0     H 6764   8.308  12.104  11.272 -2.2391 -1.4632  0.9542
  791MOL0     H 6765   8.086  12.185  11.368 -0.1711 -0.6168  1.5253
  791MOL0     H 6766   8.159  12.197  11.527  0.0596 -0.7994  0.3481
  791MOL0     H 6767   8.464  12.611  10.641  0.6382  0.1734  0.7771
  791MOL0     H 6768   8.618  12.486  10.512 -2.7796  1.1717  0.8753
  791MOL0     H 6769   8.869  12.298  10.388  1.7248  0.0149 -1.2176
  791MOL0     H 6770   8.920  12.178  10.184  0.4146 -0.0984  0.0427
  791MOL0     H 6771   8.638  11.049   8.931  2.0216 -0.4543 -1.0044
  791MOL0     H 6772   8.627  10.809   8.887 -0.8472  0.8220  0.0568
  791MOL0     H 6773   8.695  10.478   8.560 -0.6067 -0.5174  2.9986
  791MOL0     H 6774   8.690  10.313   8.391  1.2917 -0.3284  3.6913
  791MOL0     H 6775   8.287  10.266   8.188  0.3046 -0.3496  1.7940
  791MOL0     H 6776   8.407  10.210   8.075  2.2509  1.0889  2.1252
  791MOL0     H 6777   8.353  10.009   8.288  0.1930 -0.8255  1.0637
  791MOL0     H 6778   8.352   9.992   8.117  2.1865  1.3246  1.0553
  791MOL0     H 6779   8.109  10.109   8.101 -1.4459 -0.5315 -0.5814
  791MOL0     H 6780   8.118  10.095   8.281  1.4356 -2.5459  2.0979
  791MOL0     H 6781   8.015   9.911   8.230 -1.1278  1.9149 -2.0973
  791MOL0     H 6782   8.173   9.830   8.209  1.7205  0.7953  1.4769
  791MOL0     H 6783   8.059   9.754   7.842  0.0216 -1.4834  2.2771
  791MOL0     H 6784   8.266  10.306   8.393 -1.1261  3.7742 -1.2487
  791MOL0     H 6785   8.275  10.499   8.565 -1.5909  1.6031 -2.1372
  792MOL0     O 6786  10.759   5.719   4.967  0.7299 -0.1714 -0.0917
  792MOL0     C 6787  10.823   5.702   4.860  0.0254 -0.2625 -0.3593
  792MOL0     O 6788  10.784   5.622   4.753  1.0272  0.1863  0.2008
  792MOL0     C 6789  10.648   5.592   4.720 -0.4114  0.0032  0.4164
  792MOL0     C 6790  10.609   5.602   4.580 -0.5819 -0.4279  1.3234
  792MOL0     C 6791  10.476   5.572   4.551  0.0063  0.0924  0.3372
  792MOL0     C 6792  10.384   5.522   4.644  0.4265  1.2303  0.3687
  792MOL0     O 6793  10.257   5.480   4.604 -0.3887  0.5369 -0.1490
  792MOL0     C 6794  10.231   5.429   4.473  0.2354 -0.4194  0.1824
  792MOL0     C 6795  10.102   5.340   4.483 -0.4125  0.0130 -0.3968
  792MOL0     C 6796  10.102   5.210   4.570  0.0020  0.4212 -0.0841
  792MOL0     C 6797  10.178   5.096   4.500 -0.3009 -1.4139 -0.8474
  792MOL0     C 6798  10.125   5.042   4.368 -0.2582  0.0681 -0.1171
  792MOL0     C 6799  10.212   4.927   4.328 -0.3265 -0.7725 -0.4600
  792MOL0     C 6800  10.193   4.878   4.181  1.2060 -1.4796 -0.0781
  792MOL0     C 6801  10.051   4.831   4.147 -0.5278  0.1092  0.3989
  792MOL0     N 6802  10.026   4.841   3.999  0.8486 -0.2960 -0.5073
  792MOL0     C 6803  10.119   4.866   3.908  0.6816  1.0240 -0.5074
  792MOL0     C 6804  10.050   4.867   3.790 -0.0071 -0.0522  0.8308
  792MOL0     C 6805  10.106   4.895   3.652  0.5311  0.5454 -0.0629
  792MOL0     C 6806  10.261   4.867   3.645 -0.8728 -0.3719  0.3189
  792MOL0     C 6807  10.301   4.718   3.613 -0.3731  0.7868 -0.7587
  792MOL0     C 6808  10.455   4.710   3.596 -0.1310 -0.6049  0.6385
  792MOL0     O 6809  10.482   4.571   3.607  0.3936 -0.6557  0.0692
  792MOL0     C 6810  10.511   4.504   3.729 -0.2471  0.0272 -0.3182
  792MOL0     C 6811  10.513   4.564   3.855 -0.2647 -0.8515 -0.4953
  792MOL0     C 6812  10.534   4.489   3.975  0.3004  0.8286  0.4759
  792MOL0     C 6813  10.519   4.573   4.102 -0.3609  0.1355  1.0426
  792MOL0     C 6814  10.583   4.356   3.961  0.4742 -0.6775 -0.0661
  792MOL0     C 6815  10.640   4.271   4.073 -1.0296  1.1173  0.0850
  792MOL0     O 6816  10.624   4.138   4.075  0.7865 -0.0543  0.3673
  792MOL0     C 6817  10.677   4.072   4.174 -0.3420 -0.0007  0.9284
  792MOL0     C 6818  10.792   4.008   4.160  0.3658 -0.2047 -1.0817
  792MOL0     C 6819  10.850   3.945   4.268 -0.2380 -0.1177  0.2850
  792MOL0     C 6820  10.779   3.925   4.386 -0.7421  0.1122 -0.3134
  792MOL0     O 6821  10.837   3.859   4.495  0.9078 -0.3383  0.3192
  792MOL0     C 6822  10.815   3.918   4.628  0.6849  1.0650  0.4590
  792MOL0     C 6823  10.917   3.839   4.719  0.9404 -0.2157  0.1673
  792MOL0     C 6824  10.869   3.834   4.866  0.7995  0.2350 -0.4212
  792MOL0     C 6825  10.883   3.968   4.931  0.1308  0.6878  0.0707
  792MOL0     C 6826  10.806   3.976   5.067  0.5746 -0.6360 -0.4466
  792MOL0     C 6827  10.822   3.869   5.172 -0.1027 -0.3450  0.4697
  792MOL0     C 6828  10.970   3.844   5.222 -0.2697  0.3939  0.1475
  792MOL0     C 6829  11.030   3.964   5.279  0.6787 -0.0090 -0.2278
  792MOL0    Cl 6830  11.203   3.939   5.303  0.1421 -0.5937 -0.2582
  792MOL0     C 6831  10.656   3.986   4.396  0.6646 -0.9280  0.5010
  792MOL0     C 6832  10.605   4.057   4.289 -0.6496 -0.3967  0.2710
  792MOL0     O 6833  10.688   4.336   4.167 -0.3566 -0.4633  0.5288
  792MOL0     C 6834  10.572   4.295   3.832  0.3319 -0.3831 -0.5538
  792MOL0     C 6835  10.534   4.362   3.716  0.4165 -0.6743 -0.4675
  792MOL0     N 6836   9.922   4.819   3.809  0.0543  0.3042  0.7141
  792MOL0     N 6837   9.906   4.810   3.939  0.5984  0.1317 -0.4354
  792MOL0     C 6838  10.432   5.502   4.768 -0.3277  0.6763  0.2849
  792MOL0     C 6839  10.561   5.539   4.813 -0.0456 -0.2523  0.4834
  792MOL0     C 6840  10.973   5.737   4.866  0.7771  0.1520 -0.1467
  792MOL0     C 6841  11.041   5.711   4.754 -0.5210  0.0445  0.6924
  792MOL0     C 6842  11.179   5.720   4.750 -1.3030  0.0269 -0.0918
  792MOL0     C 6843  11.248   5.755   4.869  0.7796  0.5890  0.9240
  792MOL0     O 6844  11.383   5.771   4.852 -0.2078  0.0834  0.1772
  792MOL0     C 6845  11.447   5.657   4.905 -0.0355 -0.0724 -0.0645
  792MOL0     C 6846  11.561   5.701   5.002 -0.1406 -0.0705  0.1702
  792MOL0     C 6847  11.647   5.814   4.957  0.0095  0.9812  0.1711
  792MOL0     C 6848  11.793   5.809   4.991  0.5649 -0.7701 -0.0421
  792MOL0     C 6849  11.834   5.830   5.126  0.4439  0.2782 -0.1908
  792MOL0     C 6850  11.871   5.834   5.240  0.5990  0.7136  0.4641
  792MOL0     C 6851  11.177   5.786   4.992 -0.2296 -0.5515 -0.2686
  792MOL0     C 6852  11.040   5.779   4.988  1.0608 -0.0437  0.0451
  792MOL0     H 6853  10.683   5.630   4.505 -0.3639 -2.6286  0.6463
  792MOL0     H 6854  10.435   5.579   4.450  2.2068  1.6962 -0.5126
  792MOL0     H 6855  10.222   5.518   4.409  0.3102 -0.2481  0.4089
  792MOL0     H 6856  10.319   5.375   4.438  0.5633  0.4126 -0.2989
  792MOL0     H 6857  10.013   5.388   4.524  0.8505 -0.5829  3.4413
  792MOL0     H 6858  10.090   5.305   4.380  3.6831 -2.8160 -0.1688
  792MOL0     H 6859  10.156   5.217   4.665 -0.3150  4.4790 -0.0391
  792MOL0     H 6860  10.001   5.176   4.596  0.3428 -0.2978  0.3305
  792MOL0     H 6861  10.283   5.126   4.489  0.4776 -0.4552  5.4613
  792MOL0     H 6862  10.172   5.013   4.572 -1.4499  0.0919  0.8847
  792MOL0     H 6863  10.019   5.016   4.362 -0.0408 -0.5916 -4.0270
  792MOL0     H 6864  10.147   5.123   4.298 -1.7911  0.4019 -0.2551
  792MOL0     H 6865  10.319   4.949   4.329  0.4433 -4.0753 -1.0896
  792MOL0     H 6866  10.192   4.847   4.400 -0.6795  1.6258  2.3064
  792MOL0     H 6867  10.228   4.963   4.123 -0.9060  0.2397  1.0472
  792MOL0     H 6868  10.257   4.791   4.159  0.7862 -1.8802  0.2742
  792MOL0     H 6869   9.977   4.886   4.205 -1.2000 -0.7514  0.3781
  792MOL0     H 6870  10.048   4.723   4.165  0.1687 -0.0294 -0.2438
  792MOL0     H 6871  10.224   4.885   3.924  0.4195  1.6046  0.5937
  792MOL0     H 6872  10.053   4.827   3.584  1.8800 -0.4680 -0.1539
  792MOL0     H 6873  10.092   4.998   3.620 -2.2232  0.8871  1.8766
  792MOL0     H 6874  10.308   4.910   3.735 -3.2450  0.8101  1.0740
  792MOL0     H 6875  10.289   4.919   3.553  1.1156  1.1092  1.6761
  792MOL0     H 6876  10.264   4.673   3.520 -0.8065 -3.2573  1.1654
  792MOL0     H 6877  10.263   4.655   3.693 -2.6401  3.6898  0.6385
  792MOL0     H 6878  10.507   4.777   3.666 -0.0042 -0.5708  0.5125
  792MOL0     H 6879  10.465   4.746   3.493  2.3079 -3.6664 -0.3253
  792MOL0     H 6880  10.479   4.667   3.847  1.2504 -0.2642  0.1593
  792MOL0     H 6881  10.610   4.586   4.161 -0.4345  1.3073  0.9138
  792MOL0     H 6882  10.480   4.672   4.077 -2.6352 -0.3848  2.2688
  792MOL0     H 6883  10.449   4.516   4.165  0.3389 -2.9837 -0.7766
  792MOL0     H 6884  10.833   4.025   4.061 -3.3491  0.2578 -2.7242
  792MOL0     H 6885  10.938   3.882   4.257  1.7993  2.5482  0.4937
  792MOL0     H 6886  10.824   4.027   4.632  2.0741  0.9237  2.6243
  792MOL0     H 6887  10.709   3.908   4.655  0.7608  3.1929  1.8197
  792MOL0     H 6888  10.933   3.736   4.687  2.4597 -0.2350  0.8883
  792MOL0     H 6889  11.014   3.890   4.721 -0.5915  2.9840  0.4386
  792MOL0     H 6890  10.911   3.746   4.917 -1.0650  0.3457  1.4487
  792MOL0     H 6891  10.764   3.805   4.861  0.9779 -0.3909 -0.6615
  792MOL0     H 6892  10.986   3.988   4.960  0.4346 -1.7519  0.9377
  792MOL0     H 6893  10.858   4.046   4.859  0.6189  0.4177 -0.3999
  792MOL0     H 6894  10.700   3.974   5.039  0.4181  0.4055  0.0367
  792MOL0     H 6895  10.812   4.079   5.103  1.6083 -0.8806  0.1056
  792MOL0     H 6896  10.754   3.892   5.255 -0.6722  1.9428 -0.5582
  792MOL0     H 6897  10.790   3.775   5.126 -1.2198 -0.3328  1.1764
  792MOL0     H 6898  11.031   3.812   5.137  1.6395  1.6994  0.9511
  792MOL0     H 6899  10.975   3.766   5.298  1.4966 -1.2885 -1.5994
  792MOL0     H 6900  10.975   3.987   5.370 -0.4111 -2.6448 -0.1410
  792MOL0     H 6901  11.022   4.045   5.205 -2.0353  1.8245  1.9035
  792MOL0     H 6902  10.599   3.982   4.488  0.2915 -0.5719  0.2908
  792MOL0     H 6903  10.516   4.114   4.312  0.1802  0.9909  0.1173
  792MOL0     H 6904  10.594   4.189   3.829 -1.7744 -1.0571  2.8778
  792MOL0     H 6905  10.544   4.325   3.614 -2.9060  2.0316 -1.9809
  792MOL0     H 6906  10.359   5.462   4.838 -0.7632 -0.1527 -0.6119
  792MOL0     H 6907  10.581   5.522   4.918 -3.2271  0.0853  1.2683
  792MOL0     H 6908  11.006   5.666   4.661  0.3987  3.0374 -1.2810
  792MOL0     H 6909  11.234   5.707   4.657 -2.3001  3.7819 -1.3945
  792MOL0     H 6910  11.379   5.579   4.941 -2.1416  0.8657 -1.7908
  792MOL0     H 6911  11.482   5.605   4.815  0.3388  1.0344 -0.5805
  792MOL0     H 6912  11.620   5.612   5.028 -0.9106  0.0462  2.5448
  792MOL0     H 6913  11.508   5.735   5.092 -1.9248  0.1279 -0.9161
  792MOL0     H 6914  11.610   5.914   4.982  0.6927  1.7168 -1.6160
  792MOL0     H 6915  11.635   5.808   4.848 -0.9057 -0.6370  0.3393
  792MOL0     H 6916  11.844   5.878   4.923  1.8225 -3.6343 -2.2158
  792MOL0     H 6917  11.820   5.707   4.963  1.5270 -0.3062 -0.8448
  792MOL0     H 6918  11.924   5.827   5.332  1.6978  0.8781 -0.1496
  792MOL0     H 6919  11.232   5.817   5.080 -2.4494  5.0110 -0.4339
  792MOL0     H 6920  10.978   5.812   5.071  1.9424  1.8749  0.0040
  793MOL0     O 6921   7.432   2.056   2.530 -0.5797  0.4689  0.0425
  793MOL0     C 6922   7.498   2.024   2.623  0.2718 -0.5072  0.1558
  793MOL0     O 6923   7.464   2.044   2.757  0.9956  0.1492 -0.3327
  793MOL0     C 6924   7.332   2.081   2.789 -0.4080  0.6989  0.1942
  793MOL0     C 6925   7.214   2.102   2.713 -0.6934  0.1530  0.1605
  793MOL0     C 6926   7.097   2.148   2.772 -0.5758  0.2404 -0.3549
  793MOL0     C 6927   7.097   2.187   2.908 -0.3211 -0.3536 -0.5081
  793MOL0     O 6928   6.983   2.255   2.943  0.0573  0.3722  0.5094
  793MOL0     C 6929   6.918   2.190   3.059 -0.1190 -1.0217 -0.3667
  793MOL0     C 6930   6.786   2.256   3.089 -0.4847  0.1624 -0.3968
  793MOL0     C 6931   6.704   2.260   2.958 -0.9485 -0.8627  0.0917
  793MOL0     C 6932   6.553   2.298   2.971  0.6081 -0.3200  0.8402
  793MOL0     C 6933   6.465   2.190   3.037  0.8134  0.0000 -0.6073
  793MOL0     C 6934   6.319   2.239   3.067  0.0293 -0.5219  1.0446
  793MOL0     C 6935   6.237   2.148   3.168  0.7013 -0.6632 -0.4030
  793MOL0     C 6936   6.211   2.004   3.120  0.0423 -1.1705 -0.0722
  793MOL0     N 6937   6.115   1.932   3.201 -0.2144  0.2973 -0.1524
  793MOL0     C 6938   5.981   1.915   3.162  0.1152  0.1531  0.1886
  793MOL0     C 6939   5.946   1.794   3.217  0.2200 -0.6705 -0.4850
  793MOL0     C 6940   5.811   1.727   3.203 -0.3022  0.0925  0.6433
  793MOL0     C 6941   5.792   1.664   3.062  0.4066 -0.9496  0.2786
  793MOL0     C 6942   5.731   1.520   3.073 -0.5556 -0.8151  0.6231
  793MOL0     C 6943   5.826   1.408   3.118  0.6064 -0.4134  1.4336
  793MOL0     O 6944   5.900   1.360   2.996  0.8330  0.1279 -0.5991
  793MOL0     C 6945   6.028   1.400   2.977  0.4844  0.9829  0.5593
  793MOL0     C 6946   6.089   1.349   2.860  0.8906  0.3687 -0.2523
  793MOL0     C 6947   6.219   1.374   2.830 -0.5357 -0.3636  1.2852
  793MOL0     C 6948   6.256   1.306   2.698 -0.6710 -0.6253 -0.4478
  793MOL0     C 6949   6.293   1.472   2.903 -0.3683  0.4037 -0.0608
  793MOL0     C 6950   6.430   1.514   2.876 -0.0819 -0.2532  0.4247
  793MOL0     O 6951   6.498   1.587   2.975 -0.0671 -0.2548 -0.1310
  793MOL0     C 6952   6.624   1.634   2.948  1.0845  0.2968 -0.5747
  793MOL0     C 6953   6.641   1.773   2.946 -1.3829 -0.7173 -1.4399
  793MOL0     C 6954   6.775   1.826   2.954 -0.5507  0.2968  0.6754
  793MOL0     C 6955   6.884   1.743   2.954 -0.1927  0.8232  0.6273
  793MOL0     O 6956   7.003   1.810   2.958 -0.1728 -0.5799 -0.2263
  793MOL0     C 6957   7.121   1.751   3.005  0.0244 -0.4026  0.3108
  793MOL0     C 6958   7.205   1.689   2.893  0.1861 -0.2849  0.2350
  793MOL0     C 6959   7.361   1.700   2.912 -0.4800 -0.5203 -1.3794
  793MOL0     C 6960   7.437   1.654   2.791  0.0909 -0.2849 -0.0295
  793MOL0     C 6961   7.595   1.634   2.815  0.2128  0.0773 -0.1047
  793MOL0     C 6962   7.649   1.575   2.684 -0.5978 -0.4161  0.1220
  793MOL0     C 6963   7.791   1.534   2.695 -0.3837  0.5575 -0.0723
  793MOL0     C 6964   7.835   1.460   2.565 -0.6847  0.3980 -0.4112
  793MOL0    Cl 6965   7.762   1.295   2.547 -0.5197 -0.1176  0.3457
  793MOL0     C 6966   6.868   1.606   2.934  0.3096  0.5543 -0.4879
  793MOL0     C 6967   6.736   1.547   2.934 -0.6633 -0.0503 -0.4656
  793MOL0     O 6968   6.482   1.447   2.791 -0.0867 -0.0785 -0.3709
  793MOL0     C 6969   6.231   1.521   3.021  0.6987 -0.8072  1.4155
  793MOL0     C 6970   6.103   1.484   3.056  0.4331  0.1904 -0.3352
  793MOL0     N 6971   6.058   1.748   3.292 -0.6261 -0.1428  1.3429
  793MOL0     N 6972   6.149   1.831   3.283  0.8174 -0.5039 -0.0999
  793MOL0     C 6973   7.201   2.158   2.993 -0.6554  0.3343  0.8595
  793MOL0     C 6974   7.323   2.099   2.926 -0.4299  0.1424 -0.6476
  793MOL0     C 6975   7.631   1.957   2.603 -0.5857 -0.3532 -0.6947
  793MOL0     C 6976   7.658   1.894   2.487 -0.5262  0.5919  0.3753
  793MOL0     C 6977   7.778   1.835   2.458  0.1144 -0.8479 -0.7682
  793MOL0     C 6978   7.877   1.844   2.543 -0.9245 -0.5242 -0.9422
  793MOL0     O 6979   7.999   1.792   2.497 -0.0186 -0.8131 -0.0127
  793MOL0     C 6980   8.116   1.796   2.575 -0.4402  0.7221  0.3195
  793MOL0     C 6981   8.197   1.668   2.537 -0.1759 -1.2716 -0.0638
  793MOL0     C 6982   8.338   1.668   2.605  0.6943 -0.0380 -0.0265
  793MOL0     C 6983   8.441   1.720   2.501  0.0707  0.2359 -0.3692
  793MOL0     C 6984   8.467   1.607   2.404 -0.0035 -0.3209 -0.5807
  793MOL0     C 6985   8.495   1.518   2.327 -0.0557  0.1203 -0.8345
  793MOL0     C 6986   7.854   1.905   2.663  0.4292  1.1512 -0.2203
  793MOL0     C 6987   7.732   1.958   2.696 -0.7128  0.3930  0.3405
  793MOL0     H 6988   7.219   2.085   2.606  2.5201  0.2689  0.2019
  793MOL0     H 6989   7.013   2.154   2.703 -0.9290  0.2602  0.0722
  793MOL0     H 6990   6.904   2.087   3.026 -2.4064 -1.5319  1.9123
  793MOL0     H 6991   6.984   2.179   3.145  1.5677 -0.0366 -1.4684
  793MOL0     H 6992   6.746   2.199   3.173 -0.3737 -1.4566 -1.3923
  793MOL0     H 6993   6.799   2.359   3.122 -0.0305 -0.0256  0.0228
  793MOL0     H 6994   6.745   2.329   2.885 -2.9407  0.3143 -0.0056
  793MOL0     H 6995   6.724   2.163   2.911  1.4511 -0.8660  1.0113
  793MOL0     H 6996   6.544   2.385   3.037  1.5999  1.6612 -1.4872
  793MOL0     H 6997   6.503   2.318   2.876 -3.6868 -2.2334  2.4562
  793MOL0     H 6998   6.456   2.104   2.970  0.9618 -2.2119  2.0714
  793MOL0     H 6999   6.515   2.147   3.124  0.3329 -0.2240 -0.4408
  793MOL0     H 7000   6.329   2.333   3.122  1.4833  0.2758 -0.4720
  793MOL0     H 7001   6.273   2.256   2.970  3.6330 -1.3906 -1.0293
  793MOL0     H 7002   6.287   2.144   3.265 -0.8708 -0.2441  0.4547
  793MOL0     H 7003   6.136   2.189   3.176  0.3383 -0.8057 -3.2278
  793MOL0     H 7004   6.302   1.944   3.115 -0.1322 -1.4179 -0.3038
  793MOL0     H 7005   6.177   2.023   3.018 -3.6297  2.1667  1.5029
  793MOL0     H 7006   5.913   1.988   3.119 -1.3836  0.1478  2.4015
  793MOL0     H 7007   5.789   1.652   3.279 -0.4081  0.6510  1.1698
  793MOL0     H 7008   5.737   1.807   3.215 -0.3070  0.3920 -1.0542
  793MOL0     H 7009   5.884   1.665   3.002  1.7512 -1.8447  2.2431
  793MOL0     H 7010   5.716   1.729   3.016  1.6557  0.4677  0.1423
  793MOL0     H 7011   5.699   1.502   2.969  1.2368  3.0056 -0.7853
  793MOL0     H 7012   5.643   1.534   3.137 -0.2375  4.7087  0.3496
  793MOL0     H 7013   5.770   1.323   3.156  0.1116 -0.8066 -0.0834
  793MOL0     H 7014   5.886   1.427   3.207  1.6367 -0.9116  0.8715
  793MOL0     H 7015   6.023   1.285   2.802  1.4346  1.4228 -2.1022
  793MOL0     H 7016   6.253   1.374   2.613  0.6096 -0.5588 -0.4679
  793MOL0     H 7017   6.355   1.259   2.702 -0.5681 -0.7040 -2.7057
  793MOL0     H 7018   6.195   1.217   2.678 -1.6978 -0.3519  1.2861
  793MOL0     H 7019   6.549   1.831   2.941 -0.8101  0.1238 -5.5794
  793MOL0     H 7020   6.790   1.933   2.958  1.9039  0.0685 -0.3465
  793MOL0     H 7021   7.189   1.830   3.038 -0.6029 -0.3143  1.4344
  793MOL0     H 7022   7.102   1.681   3.087  0.3946 -1.0459 -0.1445
  793MOL0     H 7023   7.179   1.584   2.879  1.4078 -0.9659  2.4765
  793MOL0     H 7024   7.188   1.750   2.804  2.2577  1.2981  0.8481
  793MOL0     H 7025   7.399   1.649   3.001  2.2473 -0.3905 -2.3618
  793MOL0     H 7026   7.382   1.804   2.939  0.3791 -1.3837  1.7593
  793MOL0     H 7027   7.402   1.558   2.752 -0.2431  0.0556 -0.5727
  793MOL0     H 7028   7.421   1.724   2.709 -0.4359 -2.4415 -1.8585
  793MOL0     H 7029   7.606   1.568   2.902 -0.0283 -0.5772 -0.5624
  793MOL0     H 7030   7.651   1.724   2.841  0.4967 -0.3177  0.7029
  793MOL0     H 7031   7.585   1.490   2.658 -0.9016 -0.6624  1.5804
  793MOL0     H 7032   7.646   1.651   2.606 -3.3169  0.9718  1.4464
  793MOL0     H 7033   7.818   1.469   2.779  0.0585 -0.2719 -0.8378
  793MOL0     H 7034   7.842   1.629   2.714 -1.4133  0.6119  3.0065
  793MOL0     H 7035   7.943   1.457   2.554 -0.4969 -0.0314  1.2416
  793MOL0     H 7036   7.807   1.527   2.483  1.6777 -0.4264 -1.9807
  793MOL0     H 7037   6.955   1.542   2.940  1.3264  1.9235 -0.0065
  793MOL0     H 7038   6.731   1.440   2.918 -1.1368  0.1881 -2.0685
  793MOL0     H 7039   6.281   1.593   3.085 -0.7177  0.8556  0.7550
  793MOL0     H 7040   6.062   1.533   3.144  5.0590  2.5782  0.8565
  793MOL0     H 7041   7.203   2.181   3.099 -0.7517 -0.5229  1.0531
  793MOL0     H 7042   7.408   2.094   2.993 -0.4583  0.6942 -0.5613
  793MOL0     H 7043   7.576   1.905   2.417  0.0032  1.4806 -0.1240
  793MOL0     H 7044   7.806   1.790   2.363  2.7742  0.9569 -0.9522
  793MOL0     H 7045   8.172   1.888   2.557  2.1601 -1.3470 -3.2837
  793MOL0     H 7046   8.097   1.780   2.682 -1.6150 -4.3285 -0.4134
  793MOL0     H 7047   8.220   1.669   2.430 -0.1285 -3.3217 -0.1136
  793MOL0     H 7048   8.138   1.581   2.568 -2.9855 -0.1484 -1.8729
  793MOL0     H 7049   8.336   1.566   2.645 -2.1752 -0.1476 -0.2300
  793MOL0     H 7050   8.336   1.730   2.695  0.4227  0.3860 -0.3232
  793MOL0     H 7051   8.532   1.746   2.555 -0.4473 -1.3483  1.3949
  793MOL0     H 7052   8.395   1.806   2.452  2.3722  1.4949 -0.4405
  793MOL0     H 7053   8.541   1.434   2.279 -1.5385 -2.9892  2.6422
  793MOL0     H 7054   7.926   1.908   2.744 -1.8698 -2.4983  2.2877
  793MOL0     H 7055   7.728   2.013   2.789  2.1655 -2.2045  2.1573
  794MOL0     O 7056   9.314   8.505   8.271  0.1718  0.0326  0.0889
  794MOL0     C 7057   9.402   8.458   8.197  0.8644 -0.4683  0.1349
  794MOL0     O 7058   9.385   8.404   8.066 -0.0952  1.2201 -0.3119
  794MOL0     C 7059   9.260   8.407   8.000 -0.9097 -0.1907  0.2282
  794MOL0     C 7060   9.275   8.405   7.858 -0.8254  0.3117  0.6432
  794MOL0     C 7061   9.163   8.398   7.781  0.2745  1.1444  0.4480
  794MOL0     C 7062   9.033   8.394   7.837  0.7530 -0.5809  0.0387
  794MOL0     O 7063   8.922   8.394   7.753  0.3593 -0.3906  0.1054
  794MOL0     C 7064   8.858   8.268   7.735 -0.8251  0.0278 -0.2775
  794MOL0     C 7065   8.763   8.273   7.616 -1.1481  0.2470  1.2044
  794MOL0     C 7066   8.685   8.137   7.603  0.0882 -0.0281 -0.1465
  794MOL0     C 7067   8.602   8.129   7.475  0.2405 -0.1524  0.0125
  794MOL0     C 7068   8.495   8.018   7.473 -0.2184  0.1535  0.5798
  794MOL0     C 7069   8.548   7.875   7.481 -0.9192  0.1445  0.2069
  794MOL0     C 7070   8.670   7.849   7.399 -0.1172 -0.0709  0.3194
  794MOL0     C 7071   8.691   7.697   7.372 -0.0995 -0.2155 -0.3978
  794MOL0     N 7072   8.591   7.655   7.275  0.6862  0.0646 -0.2115
  794MOL0     C 7073   8.612   7.668   7.140  0.3779  1.1157  1.3095
  794MOL0     C 7074   8.554   7.556   7.082  0.0741  0.2315 -0.1054
  794MOL0     C 7075   8.552   7.526   6.937 -0.8079 -0.8450  0.2169
  794MOL0     C 7076   8.457   7.625   6.873  0.3427  0.4898 -0.0806
  794MOL0     C 7077   8.429   7.602   6.725 -0.3007  0.7341 -0.4981
  794MOL0     C 7078   8.298   7.667   6.674 -0.0033 -0.0859 -0.0930
  794MOL0     O 7079   8.294   7.801   6.720  0.2620 -0.7047  0.4864
  794MOL0     C 7080   8.280   7.900   6.622  0.6082 -0.4471  0.5987
  794MOL0     C 7081   8.224   8.024   6.649  0.0026 -0.8054  0.6464
  794MOL0     C 7082   8.208   8.115   6.546  0.3317 -0.5368 -0.3563
  794MOL0     C 7083   8.146   8.248   6.596  0.6972  0.5507  0.5201
  794MOL0     C 7084   8.262   8.097   6.414 -0.9264  0.7257  0.0018
  794MOL0     C 7085   8.241   8.184   6.295  0.1276 -0.4739  0.0374
  794MOL0     O 7086   8.352   8.193   6.215 -0.5016 -0.0344  0.3081
  794MOL0     C 7087   8.366   8.305   6.130 -0.2261  1.2884 -0.0969
  794MOL0     C 7088   8.414   8.294   6.000  0.3208 -0.3055 -0.5460
  794MOL0     C 7089   8.437   8.396   5.908 -1.1449  0.7422 -0.3424
  794MOL0     C 7090   8.398   8.528   5.953  0.3955  0.5508 -0.4189
  794MOL0     O 7091   8.395   8.632   5.870  0.0314  0.0564 -0.8355
  794MOL0     C 7092   8.274   8.684   5.816  0.1786 -0.0639  0.7397
  794MOL0     C 7093   8.317   8.774   5.706  0.1641  0.0817 -0.3734
  794MOL0     C 7094   8.375   8.704   5.574  0.3513  0.0778  0.3888
  794MOL0     C 7095   8.429   8.813   5.470  0.1268  1.2992  0.8964
  794MOL0     C 7096   8.576   8.869   5.502  1.0579 -0.1770  0.1380
  794MOL0     C 7097   8.618   8.967   5.389 -0.2966 -0.2108 -0.0380
  794MOL0     C 7098   8.758   9.020   5.408  0.5374  0.0744  0.5389
  794MOL0     C 7099   8.802   9.083   5.274 -0.5123  0.0360  0.0709
  794MOL0    Cl 7100   8.954   9.166   5.267 -0.2109 -0.3849  0.5315
  794MOL0     C 7101   8.349   8.547   6.083 -0.3458  0.9078  0.1705
  794MOL0     C 7102   8.333   8.434   6.170  0.3412 -1.8155  0.2186
  794MOL0     O 7103   8.139   8.252   6.276  0.0196 -0.3849  0.5928
  794MOL0     C 7104   8.342   7.974   6.396 -0.4894 -0.7259 -0.8248
  794MOL0     C 7105   8.356   7.889   6.501 -0.5558 -0.0772 -0.3978
  794MOL0     N 7106   8.492   7.490   7.184 -1.2031 -0.4824  0.2682
  794MOL0     N 7107   8.508   7.551   7.298 -0.2557  0.4005 -0.7508
  794MOL0     C 7108   9.021   8.380   7.978 -0.6552 -0.7460  0.4262
  794MOL0     C 7109   9.143   8.375   8.051  0.1678 -0.8849  0.4285
  794MOL0     C 7110   9.545   8.464   8.236 -0.6608  0.5193 -0.1695
  794MOL0     C 7111   9.650   8.456   8.143 -0.2785  0.0219 -0.0612
  794MOL0     C 7112   9.778   8.433   8.193  0.4509  0.0826  0.0618
  794MOL0     C 7113   9.814   8.436   8.326  0.5527 -0.1779  0.1144
  794MOL0     O 7114   9.945   8.423   8.363 -0.7392 -0.8631 -0.3344
  794MOL0     C 7115   9.970   8.429   8.503 -0.7402  1.4761 -0.9807
  794MOL0     C 7116  10.109   8.381   8.535  0.4916  0.9452 -0.4250
  794MOL0     C 7117  10.149   8.408   8.681 -0.5511  0.8035 -0.8843
  794MOL0     C 7118  10.297   8.382   8.723  1.1828  0.7175 -0.6790
  794MOL0     C 7119  10.364   8.513   8.733 -0.5978  0.1782 -0.0975
  794MOL0     C 7120  10.414   8.617   8.744  0.7338  0.0482  0.8941
  794MOL0     C 7121   9.703   8.449   8.416 -0.1527 -0.0093  0.0139
  794MOL0     C 7122   9.569   8.458   8.367  0.7373  0.5210  0.0120
  794MOL0     H 7123   9.371   8.424   7.811 -2.3376  1.6079 -2.1730
  794MOL0     H 7124   9.182   8.403   7.674  6.1647  2.8492  1.1876
  794MOL0     H 7125   8.941   8.197   7.726 -2.7543 -2.2088 -1.4373
  794MOL0     H 7126   8.802   8.232   7.821 -0.1753  1.5143  0.8165
  794MOL0     H 7127   8.685   8.347   7.635 -1.5376 -0.2630  1.6208
  794MOL0     H 7128   8.815   8.291   7.521  0.2338 -3.5989  1.0828
  794MOL0     H 7129   8.753   8.051   7.601 -0.6388 -0.6355  0.4662
  794MOL0     H 7130   8.620   8.128   7.690  0.9513  1.3963  0.6752
  794MOL0     H 7131   8.536   8.215   7.489 -2.8649 -2.1858 -1.1597
  794MOL0     H 7132   8.663   8.130   7.384 -1.5186 -3.4130 -1.3667
  794MOL0     H 7133   8.431   8.029   7.561  2.0867  2.0679  2.1534
  794MOL0     H 7134   8.432   8.033   7.385 -0.1041 -2.2295  0.0233
  794MOL0     H 7135   8.563   7.846   7.586  0.5947 -2.2606 -0.5849
  794MOL0     H 7136   8.474   7.817   7.425  0.2881  1.9245 -3.6128
  794MOL0     H 7137   8.662   7.906   7.306 -1.6164 -1.3682 -0.3857
  794MOL0     H 7138   8.749   7.882   7.467  0.9619  1.3354 -1.5440
  794MOL0     H 7139   8.697   7.636   7.463  0.4290  0.3990 -0.0158
  794MOL0     H 7140   8.792   7.691   7.329  0.4022 -3.8640  0.9245
  794MOL0     H 7141   8.667   7.746   7.089  0.5411  1.5425  2.1277
  794MOL0     H 7142   8.652   7.534   6.894  0.1499 -3.3602  1.7207
  794MOL0     H 7143   8.526   7.420   6.925 -0.8969 -0.9858  1.4666
  794MOL0     H 7144   8.474   7.730   6.899  0.1870  0.0415  1.9918
  794MOL0     H 7145   8.362   7.611   6.924  0.9693 -0.7646  0.8082
  794MOL0     H 7146   8.419   7.495   6.707 -1.2322  0.9667 -1.4375
  794MOL0     H 7147   8.517   7.637   6.671  2.1529  0.1618  2.8020
  794MOL0     H 7148   8.213   7.619   6.723 -4.0765  3.8389 -2.5989
  794MOL0     H 7149   8.292   7.655   6.565 -1.2851 -1.0919  0.0640
  794MOL0     H 7150   8.177   8.046   6.744 -1.1801 -0.9512  0.1030
  794MOL0     H 7151   8.141   8.315   6.510  2.3246 -1.7279 -1.4824
  794MOL0     H 7152   8.041   8.238   6.626  0.4300  0.0024 -0.5290
  794MOL0     H 7153   8.197   8.306   6.673  0.4625  3.5793 -1.4352
  794MOL0     H 7154   8.436   8.192   5.969 -0.7985 -1.2935  1.6451
  794MOL0     H 7155   8.476   8.379   5.809 -0.5061 -0.8154  0.1439
  794MOL0     H 7156   8.209   8.602   5.785  0.6482  0.3991 -1.7112
  794MOL0     H 7157   8.217   8.742   5.889  0.0934 -0.4895  1.0131
  794MOL0     H 7158   8.231   8.836   5.679  1.3233  1.9881  0.1007
  794MOL0     H 7159   8.381   8.850   5.753 -0.0104  0.5430 -0.8661
  794MOL0     H 7160   8.304   8.636   5.525  1.5058 -2.3358  1.8932
  794MOL0     H 7161   8.456   8.639   5.608 -0.1775 -0.7259  0.1453
  794MOL0     H 7162   8.436   8.766   5.371  0.3163  2.9633  0.0752
  794MOL0     H 7163   8.358   8.896   5.469 -1.6139 -0.1388  0.4066
  794MOL0     H 7164   8.636   8.780   5.482  0.0125 -0.9045  0.1688
  794MOL0     H 7165   8.585   8.913   5.602 -1.6042 -0.1903  0.4370
  794MOL0     H 7166   8.621   8.907   5.298  0.3483 -3.0376  1.7325
  794MOL0     H 7167   8.548   9.052   5.388 -1.7388 -1.2619  2.6275
  794MOL0     H 7168   8.828   8.949   5.451  1.1426 -0.1189 -0.7158
  794MOL0     H 7169   8.756   9.104   5.478 -0.9142  0.1944  0.3914
  794MOL0     H 7170   8.724   9.154   5.244 -1.0954 -1.4479 -2.1535
  794MOL0     H 7171   8.813   9.012   5.192  2.6084  1.3841 -0.8129
  794MOL0     H 7172   8.319   8.649   6.105  0.4888  0.8657  1.6345
  794MOL0     H 7173   8.316   8.463   6.273  0.7579  0.0865 -0.1994
  794MOL0     H 7174   8.378   7.945   6.298  0.6540  0.9395 -0.9505
  794MOL0     H 7175   8.410   7.795   6.495  0.1708  0.4436 -2.9004
  794MOL0     H 7176   8.926   8.364   8.029 -1.9415  0.1445 -1.5750
  794MOL0     H 7177   9.135   8.361   8.159 -1.6917 -0.2549  0.3960
  794MOL0     H 7178   9.645   8.469   8.035  2.1107  0.9645 -0.1311
  794MOL0     H 7179   9.860   8.393   8.135  0.0398 -2.9610  1.3868
  794MOL0     H 7180   9.955   8.523   8.557 -0.6280  0.4692  0.8865
  794MOL0     H 7181   9.902   8.358   8.550 -0.4531  0.1235 -2.5161
  794MOL0     H 7182  10.183   8.440   8.479  1.1389 -0.2464 -0.8575
  794MOL0     H 7183  10.121   8.278   8.500 -0.6418  0.7760 -0.3527
  794MOL0     H 7184  10.089   8.343   8.745  1.6773 -0.7564 -0.2525
  794MOL0     H 7185  10.130   8.512   8.709 -0.4713  0.0889  2.1268
  794MOL0     H 7186  10.357   8.324   8.653  0.9040 -3.2060  1.9843
  794MOL0     H 7187  10.295   8.326   8.818 -1.5406 -0.6663 -1.4304
  794MOL0     H 7188  10.455   8.716   8.738  0.6112  0.3142  3.5217
  794MOL0     H 7189   9.703   8.433   8.524  0.8268  0.0744  0.0380
  794MOL0     H 7190   9.478   8.452   8.427 -1.8283 -0.8227 -3.5985
  795MOL0     O 7191   0.224   6.281   4.917 -0.4592 -0.1170 -0.2978
  795MOL0     C 7192   0.241   6.313   4.795 -0.0148  0.0472 -0.3897
  795MOL0     O 7193   0.329   6.400   4.749 -0.2588 -0.0771  0.4647
  795MOL0     C 7194   0.402   6.481   4.837 -0.0222  0.6008  0.0107
  795MOL0     C 7195   0.517   6.433   4.905  0.3625 -0.0397  0.3613
  795MOL0     C 7196   0.585   6.518   4.988  0.6791  0.4172 -0.3350
  795MOL0     C 7197   0.550   6.660   5.005 -0.1467 -0.9232 -0.7922
  795MOL0     O 7198   0.632   6.741   5.079  1.2103  0.1373  0.0843
  795MOL0     C 7199   0.698   6.839   5.003 -0.1017 -0.4841  0.2022
  795MOL0     C 7200   0.732   6.958   5.098  0.5895 -1.3870 -0.2283
  795MOL0     C 7201   0.877   6.945   5.129 -1.2118  0.1922  0.3431
  795MOL0     C 7202   0.911   7.042   5.240  0.1746  0.0440  0.4365
  795MOL0     C 7203   1.058   7.037   5.274 -0.6644 -0.8159 -0.0439
  795MOL0     C 7204   1.075   7.100   5.410  0.1630  0.0771  0.1833
  795MOL0     C 7205   1.208   7.074   5.463 -0.5700 -0.2767  0.3695
  795MOL0     C 7206   1.310   7.174   5.399 -0.7835  0.3014 -0.3501
  795MOL0     N 7207   1.451   7.129   5.428 -0.6335 -0.5931 -0.2844
  795MOL0     C 7208   1.552   7.193   5.509 -0.0947 -0.5338  0.8479
  795MOL0     C 7209   1.666   7.122   5.495  0.8737 -0.4755  0.5144
  795MOL0     C 7210   1.806   7.178   5.537  0.3831  0.2163 -0.0462
  795MOL0     C 7211   1.860   7.147   5.675 -0.5729  0.2215  0.9827
  795MOL0     C 7212   1.777   7.188   5.796 -0.6014 -0.3465 -0.2942
  795MOL0     C 7213   1.842   7.174   5.929 -0.6666  0.2799 -0.5412
  795MOL0     O 7214   1.882   7.042   5.952 -0.5810  0.3991  1.2500
  795MOL0     C 7215   1.940   6.993   6.070  0.4687  0.1664  0.7417
  795MOL0     C 7216   1.929   7.054   6.190  0.5607  0.3564 -0.0057
  795MOL0     C 7217   1.975   6.993   6.312 -0.3817  0.3878 -0.7155
  795MOL0     C 7218   1.948   7.069   6.436 -0.4934  0.1022 -0.0517
  795MOL0     C 7219   2.046   6.875   6.304 -0.8074  1.0090  0.1633
  795MOL0     C 7220   2.102   6.807   6.422  0.1008 -0.7181  1.2044
  795MOL0     O 7221   2.038   6.821   6.544  0.8070  0.6787 -0.3869
  795MOL0     C 7222   2.095   6.762   6.655  0.9483  0.0230  0.4422
  795MOL0     C 7223   2.082   6.619   6.676  0.4530 -0.4728 -0.3967
  795MOL0     C 7224   2.135   6.565   6.790 -0.5211 -0.4406  0.3610
  795MOL0     C 7225   2.213   6.651   6.878 -0.1196  0.2600  0.4660
  795MOL0     O 7226   2.273   6.606   7.001 -0.5088 -0.5251  0.4338
  795MOL0     C 7227   2.337   6.481   7.004  0.2196  0.0454 -0.8085
  795MOL0     C 7228   2.265   6.418   7.121 -0.5495 -0.1633 -0.6507
  795MOL0     C 7229   2.289   6.267   7.138 -0.0157 -0.6690  0.1653
  795MOL0     C 7230   2.210   6.217   7.264  0.4865  0.1067  0.4561
  795MOL0     C 7231   2.265   6.079   7.324 -0.1639 -0.0114  0.3332
  795MOL0     C 7232   2.173   6.036   7.433 -0.1954  0.6464 -1.1710
  795MOL0     C 7233   2.207   5.886   7.477 -0.0568 -1.3207  0.0092
  795MOL0     C 7234   2.111   5.815   7.568  0.1247  0.4558 -0.1960
  795MOL0    Cl 7235   2.161   5.646   7.562 -0.2238  0.0381 -0.4286
  795MOL0     C 7236   2.224   6.788   6.852  1.0893  0.3431  0.4336
  795MOL0     C 7237   2.168   6.845   6.737 -0.5212 -0.3270 -0.2284
  795MOL0     O 7238   2.206   6.752   6.406 -0.1623  0.1557  0.0692
  795MOL0     C 7239   2.070   6.819   6.183  1.2720 -0.0987  0.9115
  795MOL0     C 7240   2.017   6.875   6.066  0.2017  0.3444  0.3887
  795MOL0     N 7241   1.640   7.019   5.414  0.6838  0.1114  0.9298
  795MOL0     N 7242   1.520   7.025   5.371 -0.2770  0.1445 -0.0252
  795MOL0     C 7243   0.426   6.704   4.954 -0.4435  0.0386  0.2356
  795MOL0     C 7244   0.352   6.612   4.869  0.3114  0.2639  0.8503
  795MOL0     C 7245   0.138   6.253   4.692  0.0120 -0.1141 -0.4927
  795MOL0     C 7246   0.047   6.150   4.735 -0.7134  1.2504  0.8642
  795MOL0     C 7247  -0.047   6.091   4.643 -0.4496 -0.0362  0.3701
  795MOL0     C 7248  -0.055   6.134   4.511 -0.3124  0.4289  0.2501
  795MOL0     O 7249  -0.158   6.078   4.437  0.9512 -1.1406 -0.1615
  795MOL0     C 7250  -0.159   6.121   4.298  0.1457  0.5260  0.0091
  795MOL0     C 7251  -0.269   6.035   4.242  0.5988 -0.3774  0.0970
  795MOL0     C 7252  -0.234   5.885   4.255  0.5451  0.5510  0.8600
  795MOL0     C 7253  -0.354   5.790   4.233  1.3964  0.4427  0.3078
  795MOL0     C 7254  -0.458   5.792   4.326  0.7110 -0.5395  0.1415
  795MOL0     C 7255  -0.549   5.788   4.408  0.3039 -0.3881  0.7524
  795MOL0     C 7256   0.028   6.239   4.473  0.7364 -0.1198 -0.2484
  795MOL0     C 7257   0.125   6.292   4.556 -0.3227 -0.0765 -0.5634
  795MOL0     H 7258   0.537   6.327   4.916 -2.4037 -0.5875  0.8609
  795MOL0     H 7259   0.665   6.470   5.043  1.0355  0.0294 -1.1889
  795MOL0     H 7260   0.787   6.795   4.957  1.6229 -1.7346  4.2151
  795MOL0     H 7261   0.646   6.892   4.923  1.0442  3.4544  1.8407
  795MOL0     H 7262   0.706   7.058   5.060  5.0277 -0.6771 -2.0805
  795MOL0     H 7263   0.678   6.943   5.192  2.1372  0.8088  1.1310
  795MOL0     H 7264   0.890   6.846   5.173 -0.8909 -0.4897 -1.2546
  795MOL0     H 7265   0.949   6.952   5.047  0.2512 -3.5419  1.1180
  795MOL0     H 7266   0.882   7.139   5.198  1.7687 -0.6177 -2.4925
  795MOL0     H 7267   0.851   7.031   5.331 -0.8442  1.5247 -0.0184
  795MOL0     H 7268   1.098   6.935   5.267 -0.4095 -0.6226 -2.0334
  795MOL0     H 7269   1.116   7.088   5.196 -1.1459 -0.6098 -0.2702
  795MOL0     H 7270   1.056   7.207   5.399 -1.0752 -0.3479 -2.8226
  795MOL0     H 7271   0.993   7.065   5.474  0.1263 -0.6568 -0.2498
  795MOL0     H 7272   1.207   7.085   5.572 -0.9493 -0.1253  0.3520
  795MOL0     H 7273   1.235   6.969   5.452  0.7350  0.0971 -0.2366
  795MOL0     H 7274   1.274   7.272   5.432 -4.9738 -0.8014 -1.0308
  795MOL0     H 7275   1.310   7.175   5.289  3.3296 -1.9079 -0.5522
  795MOL0     H 7276   1.539   7.288   5.558 -1.7611 -1.0556  1.5166
  795MOL0     H 7277   1.877   7.132   5.468  1.6798 -0.0322  1.3889
  795MOL0     H 7278   1.832   7.284   5.525  1.9286 -0.0620  0.5982
  795MOL0     H 7279   1.964   7.181   5.678  0.7514 -2.8158 -2.3328
  795MOL0     H 7280   1.866   7.038   5.667 -5.1564 -0.2607  1.7270
  795MOL0     H 7281   1.678   7.142   5.794 -0.5873 -0.3640 -0.6731
  795MOL0     H 7282   1.763   7.294   5.776  1.4467 -0.0549 -0.3530
  795MOL0     H 7283   1.776   7.203   6.012  0.3023 -2.0007  1.1244
  795MOL0     H 7284   1.929   7.240   5.925  2.1405 -3.1624 -0.9542
  795MOL0     H 7285   1.886   7.153   6.204  3.5083  1.4395  2.5523
  795MOL0     H 7286   1.910   7.171   6.438 -4.2957 -1.1492  0.9188
  795MOL0     H 7287   1.866   7.014   6.484  0.0078  1.6490  2.7901
  795MOL0     H 7288   2.020   7.074   6.518 -1.2851  1.3527  0.6136
  795MOL0     H 7289   2.019   6.562   6.608 -0.0156 -0.7495  0.2609
  795MOL0     H 7290   2.126   6.463   6.828 -1.3220  0.8168  3.9386
  795MOL0     H 7291   2.335   6.423   6.911 -1.5749  0.1854 -0.8916
  795MOL0     H 7292   2.445   6.486   7.019  0.0663  0.2697  0.3310
  795MOL0     H 7293   2.298   6.474   7.208  0.1741 -0.5894 -0.6408
  795MOL0     H 7294   2.156   6.428   7.116 -0.8990 -1.7406  1.8592
  795MOL0     H 7295   2.397   6.261   7.153 -0.0207 -1.6900 -0.1045
  795MOL0     H 7296   2.250   6.200   7.061 -1.6947 -1.4592  1.6031
  795MOL0     H 7297   2.240   6.295   7.335 -0.4551  1.7505 -0.8686
  795MOL0     H 7298   2.102   6.218   7.246  0.0306  1.4320  2.8552
  795MOL0     H 7299   2.370   6.086   7.354  1.0057  1.1579 -3.4766
  795MOL0     H 7300   2.267   5.999   7.249 -2.3469 -0.1452  0.3484
  795MOL0     H 7301   2.187   6.110   7.511  0.1926 -2.2470  1.7269
  795MOL0     H 7302   2.067   6.037   7.406 -0.9741  1.7493  1.5748
  795MOL0     H 7303   2.305   5.885   7.525  0.8637  0.1301 -1.7081
  795MOL0     H 7304   2.217   5.820   7.390 -0.2004 -1.3603  0.0213
  795MOL0     H 7305   2.008   5.819   7.532  0.1738  1.5071 -0.2420
  795MOL0     H 7306   2.108   5.858   7.669 -0.4494  1.1508 -0.5029
  795MOL0     H 7307   2.290   6.843   6.919  2.5057 -1.3090  0.4483
  795MOL0     H 7308   2.180   6.952   6.720  0.0767  0.1982  2.8676
  795MOL0     H 7309   2.124   6.725   6.172 -2.3304 -2.3835  1.3165
  795MOL0     H 7310   2.037   6.831   5.968 -0.0636 -0.7285  0.7976
  795MOL0     H 7311   0.388   6.800   4.985  2.2461  1.6008 -0.9803
  795MOL0     H 7312   0.257   6.640   4.825 -0.6207 -3.7609 -0.1574
  795MOL0     H 7313   0.059   6.119   4.838 -0.6294  2.1910  1.1469
  795MOL0     H 7314  -0.106   6.004   4.670 -0.6484 -0.1843 -0.5333
  795MOL0     H 7315  -0.180   6.227   4.281  1.9326  1.1939  1.5800
  795MOL0     H 7316  -0.076   6.080   4.240  0.6918  0.1140  1.0637
  795MOL0     H 7317  -0.285   6.067   4.138  1.5280 -1.9358 -0.5663
  795MOL0     H 7318  -0.360   6.050   4.300  1.3198  0.9453  0.9246
  795MOL0     H 7319  -0.187   5.856   4.350 -0.7584  0.1582  1.4068
  795MOL0     H 7320  -0.166   5.859   4.174  1.5244  1.0907  1.4902
  795MOL0     H 7321  -0.320   5.687   4.247 -0.0620 -0.2983 -1.1713
  795MOL0     H 7322  -0.384   5.792   4.127  0.0927  0.2335  0.6572
  795MOL0     H 7323  -0.620   5.770   4.486  3.8422 -1.0880  4.1209
  795MOL0     H 7324   0.036   6.269   4.369 -1.7459 -0.6905 -0.6660
  795MOL0     H 7325   0.185   6.376   4.520  2.7039 -1.6977  0.3554
  796MOL0     O 7326   1.271   5.614   9.235 -0.6502 -0.1306 -0.1001
  796MOL0     C 7327   1.195   5.708   9.227 -0.1870 -0.0673 -0.6561
  796MOL0     O 7328   1.085   5.710   9.154  0.2526 -0.6896  0.1037
  796MOL0     C 7329   1.030   5.604   9.092 -0.6428 -0.4868  0.1264
  796MOL0     C 7330   0.928   5.615   8.996  0.0251 -0.3183 -0.0023
  796MOL0     C 7331   0.860   5.503   8.941 -0.2225 -0.3083 -0.3737
  796MOL0     C 7332   0.897   5.375   8.971  0.2576 -0.0369 -0.1313
  796MOL0     O 7333   0.821   5.274   8.921 -0.4299 -0.5310  0.3605
  796MOL0     C 7334   0.853   5.140   8.944  0.0689 -0.3816 -0.0300
  796MOL0     C 7335   0.779   5.051   8.837  0.1879  0.4931 -0.1047
  796MOL0     C 7336   0.628   5.062   8.816  0.3631 -0.3351 -0.1979
  796MOL0     C 7337   0.581   4.971   8.702 -0.9428  0.6900 -0.0815
  796MOL0     C 7338   0.550   4.819   8.737 -0.4134  0.2695 -0.1771
  796MOL0     C 7339   0.554   4.739   8.608 -0.3450  0.0357 -0.8160
  796MOL0     C 7340   0.550   4.589   8.652  0.4582 -0.9651 -0.0215
  796MOL0     C 7341   0.580   4.485   8.551 -0.1254  0.8390 -0.4901
  796MOL0     N 7342   0.664   4.519   8.434  0.3513 -0.2941 -0.6103
  796MOL0     C 7343   0.792   4.522   8.427  0.1197  0.9929  0.4356
  796MOL0     C 7344   0.830   4.569   8.313 -1.2379 -0.8173 -0.6696
  796MOL0     C 7345   0.971   4.583   8.264  0.3174 -0.6690 -0.6624
  796MOL0     C 7346   1.038   4.451   8.224  0.7645  0.0093  0.3543
  796MOL0     C 7347   0.945   4.365   8.139 -0.9032  0.9669  0.1916
  796MOL0     C 7348   1.022   4.240   8.076 -0.3590 -0.3628  0.7005
  796MOL0     O 7349   0.918   4.152   8.030 -0.4037 -0.2712  0.4673
  796MOL0     C 7350   0.959   4.024   7.989  0.1965 -0.1503  0.4655
  796MOL0     C 7351   0.855   3.932   7.962  0.1075  0.1071  1.1030
  796MOL0     C 7352   0.885   3.800   7.923  0.2588 -1.3556  0.6063
  796MOL0     C 7353   0.766   3.708   7.903 -0.4986 -0.1968 -1.0572
  796MOL0     C 7354   1.022   3.767   7.902 -0.3065  0.1714  0.3443
  796MOL0     C 7355   1.070   3.630   7.855 -0.5993 -0.4538 -0.3137
  796MOL0     O 7356   1.186   3.634   7.793 -0.6553  0.2520 -0.2689
  796MOL0     C 7357   1.229   3.518   7.742 -0.3578  0.5281 -0.1718
  796MOL0     C 7358   1.326   3.451   7.814  0.6691  0.1687  0.4047
  796MOL0     C 7359   1.402   3.356   7.763 -0.0215  1.1748  0.6702
  796MOL0     C 7360   1.390   3.328   7.624  0.1047  0.2012 -0.1763
  796MOL0     O 7361   1.468   3.221   7.579  0.6039  0.1996  0.0276
  796MOL0     C 7362   1.585   3.264   7.513 -0.5643 -0.6659  0.1853
  796MOL0     C 7363   1.699   3.256   7.610  0.2697  0.1486  1.4448
  796MOL0     C 7364   1.710   3.119   7.685  0.1509  0.8567 -0.4104
  796MOL0     C 7365   1.732   3.013   7.583 -0.5284 -0.3742  0.8833
  796MOL0     C 7366   1.742   2.875   7.653 -0.1268  0.1408 -0.6812
  796MOL0     C 7367   1.749   2.765   7.549  0.1065 -0.8460 -0.4965
  796MOL0     C 7368   1.611   2.740   7.481  0.7607 -0.2188 -0.4537
  796MOL0     C 7369   1.625   2.655   7.358 -0.1023  0.2072  0.5188
  796MOL0    Cl 7370   1.651   2.475   7.404  0.1617  0.0915 -0.5634
  796MOL0     C 7371   1.287   3.391   7.552 -0.0080 -1.0851  0.8013
  796MOL0     C 7372   1.212   3.492   7.610  1.0024  0.5940 -0.4962
  796MOL0     O 7373   1.002   3.529   7.870  0.4371 -0.0965 -0.9085
  796MOL0     C 7374   1.122   3.865   7.926  0.4628 -0.0186  0.5243
  796MOL0     C 7375   1.085   3.989   7.976  0.5538 -0.0269  1.1148
  796MOL0     N 7376   0.714   4.600   8.247  0.0389  0.1733 -0.6430
  796MOL0     N 7377   0.606   4.565   8.315 -0.4935  0.7296  0.0831
  796MOL0     C 7378   0.991   5.358   9.074  0.3743 -1.0261 -0.6006
  796MOL0     C 7379   1.048   5.471   9.136 -0.4590 -1.5854 -0.0986
  796MOL0     C 7380   1.222   5.821   9.318  0.3112 -0.7039  0.7577
  796MOL0     C 7381   1.114   5.913   9.343 -1.0737  0.2550 -0.1026
  796MOL0     C 7382   1.131   6.020   9.432 -0.5639  0.2589  0.2695
  796MOL0     C 7383   1.264   6.047   9.483 -0.0309  0.9606  0.2387
  796MOL0     O 7384   1.288   6.166   9.547 -0.0886  1.3150  0.4534
  796MOL0     C 7385   1.180   6.248   9.588  0.5154  0.4071  0.2458
  796MOL0     C 7386   1.239   6.372   9.669 -0.1457 -0.9294 -0.3332
  796MOL0     C 7387   1.141   6.496   9.673 -0.2427 -0.3153 -0.5516
  796MOL0     C 7388   1.200   6.606   9.770  0.5553  0.8181 -0.7243
  796MOL0     C 7389   1.100   6.708   9.812 -0.8983 -0.3369 -0.3143
  796MOL0     C 7390   1.024   6.782   9.861  0.5103 -0.5628  0.9305
  796MOL0     C 7391   1.373   5.966   9.457  0.2964  0.3623 -1.0248
  796MOL0     C 7392   1.353   5.846   9.384  0.4707 -0.1470 -1.5335
  796MOL0     H 7393   0.916   5.715   8.954  1.0064  0.0809  0.6454
  796MOL0     H 7394   0.785   5.529   8.867 -0.1000 -0.8101 -0.6788
  796MOL0     H 7395   0.957   5.113   8.927  0.2699 -0.2356  0.8954
  796MOL0     H 7396   0.830   5.114   9.048  3.8266 -1.4263  0.7075
  796MOL0     H 7397   0.826   5.078   8.742  0.2609  3.9365  0.7722
  796MOL0     H 7398   0.801   4.951   8.875 -1.4829 -0.8271 -2.4593
  796MOL0     H 7399   0.575   5.030   8.907 -0.5349 -2.1901 -1.3018
  796MOL0     H 7400   0.584   5.158   8.790 -3.2254 -1.4679  1.1618
  796MOL0     H 7401   0.484   5.001   8.662 -0.7769  1.9429  0.4123
  796MOL0     H 7402   0.669   4.983   8.637 -0.2183  1.4798  0.9946
  796MOL0     H 7403   0.628   4.778   8.802 -2.0441  2.8712  3.8040
  796MOL0     H 7404   0.455   4.796   8.787 -0.7844  0.2301 -0.8938
  796MOL0     H 7405   0.466   4.744   8.544 -0.2293 -0.7983 -1.0440
  796MOL0     H 7406   0.649   4.761   8.558 -0.3149 -0.8516 -1.1683
  796MOL0     H 7407   0.628   4.570   8.726  1.9849  2.2164 -0.6623
  796MOL0     H 7408   0.449   4.576   8.693  0.9009 -1.6123  0.9089
  796MOL0     H 7409   0.487   4.442   8.514 -0.4231  1.2777 -0.2462
  796MOL0     H 7410   0.631   4.402   8.601  0.2876  0.8366 -0.9107
  796MOL0     H 7411   0.863   4.483   8.499 -1.7222  0.0241  1.8187
  796MOL0     H 7412   0.956   4.639   8.171 -2.1394  3.1606  1.7331
  796MOL0     H 7413   1.029   4.632   8.343  0.1260  0.6028 -1.2838
  796MOL0     H 7414   1.075   4.394   8.310 -0.1270 -2.5057 -0.8069
  796MOL0     H 7415   1.127   4.472   8.164  1.6321  2.6607  2.3580
  796MOL0     H 7416   0.892   4.418   8.059 -1.3979 -2.1913 -1.7450
  796MOL0     H 7417   0.864   4.312   8.190 -1.8588  1.4195 -0.8054
  796MOL0     H 7418   1.094   4.195   8.145  1.3604  2.2396  0.7544
  796MOL0     H 7419   1.078   4.271   7.988  1.1210 -1.2113  1.3020
  796MOL0     H 7420   0.754   3.964   7.986 -1.3517  0.4261 -4.1278
  796MOL0     H 7421   0.665   3.750   7.896 -0.7841 -0.6848 -0.0859
  796MOL0     H 7422   0.790   3.641   7.820  2.5503 -0.4387 -0.1043
  796MOL0     H 7423   0.777   3.646   7.992 -0.0050  3.0436  1.3342
  796MOL0     H 7424   1.329   3.478   7.919 -1.5940 -2.4108  1.2362
  796MOL0     H 7425   1.485   3.304   7.810 -0.0067  0.1326 -0.4559
  796MOL0     H 7426   1.610   3.213   7.420 -0.9772  1.8204 -1.4046
  796MOL0     H 7427   1.563   3.367   7.482  0.2914 -1.4962 -3.7035
  796MOL0     H 7428   1.794   3.283   7.562  1.7469  2.1493  5.1285
  796MOL0     H 7429   1.682   3.342   7.676  1.0943  1.6231 -0.1760
  796MOL0     H 7430   1.620   3.108   7.746  0.2707 -0.6338 -0.4646
  796MOL0     H 7431   1.787   3.119   7.762 -1.4564  2.1820  1.2962
  796MOL0     H 7432   1.642   3.005   7.522 -0.6823 -1.5960  1.2277
  796MOL0     H 7433   1.822   3.028   7.522 -1.1121  2.2532  0.5568
  796MOL0     H 7434   1.651   2.866   7.712  1.2860 -1.3180  1.4143
  796MOL0     H 7435   1.823   2.869   7.726 -1.8197 -1.7185  1.1666
  796MOL0     H 7436   1.834   2.784   7.483  0.0312 -1.1582 -0.6880
  796MOL0     H 7437   1.776   2.677   7.608 -2.5942 -2.7221 -1.8228
  796MOL0     H 7438   1.568   2.835   7.447  3.5758  3.2211  4.3155
  796MOL0     H 7439   1.545   2.699   7.558  0.3872 -0.0122 -0.6587
  796MOL0     H 7440   1.703   2.690   7.290 -0.4038  0.1301  0.1267
  796MOL0     H 7441   1.541   2.663   7.288 -0.0123  2.0661  0.5594
  796MOL0     H 7442   1.258   3.373   7.449  0.3108  0.5487  0.3978
  796MOL0     H 7443   1.138   3.556   7.562  0.4924  2.6322  2.7111
  796MOL0     H 7444   1.224   3.827   7.921 -0.6780 -3.1727 -1.4674
  796MOL0     H 7445   1.167   4.055   8.000 -0.9171  1.9774  0.9335
  796MOL0     H 7446   1.036   5.260   9.089  1.8098 -0.6756 -2.2529
  796MOL0     H 7447   1.112   5.445   9.220  0.5510 -2.1136 -0.9909
  796MOL0     H 7448   1.020   5.894   9.292  0.1828 -2.8629 -1.4831
  796MOL0     H 7449   1.046   6.082   9.457 -0.0401  1.1813 -0.1782
  796MOL0     H 7450   1.118   6.277   9.502  2.2557  3.9647  0.0283
  796MOL0     H 7451   1.120   6.193   9.661  1.4471 -0.0402  0.6746
  796MOL0     H 7452   1.339   6.401   9.637  0.2934  0.8945  2.3324
  796MOL0     H 7453   1.246   6.334   9.771 -2.1109  2.4949  1.2355
  796MOL0     H 7454   1.040   6.464   9.700 -0.7969  1.5704 -0.2202
  796MOL0     H 7455   1.129   6.541   9.574 -1.7292 -1.8220 -1.0939
  796MOL0     H 7456   1.273   6.660   9.709 -0.9551  1.8789 -1.6696
  796MOL0     H 7457   1.236   6.559   9.862  3.4381  1.2329 -1.5391
  796MOL0     H 7458   0.960   6.858   9.900  0.2048  1.6388 -3.2295
  796MOL0     H 7459   1.465   5.971   9.515 -1.7834 -0.3658  2.6128
  796MOL0     H 7460   1.420   5.762   9.393  1.1986  0.5612  0.0352
  797MOL0     O 7461  11.005   7.223   5.695  0.2392  0.0809 -0.4081
  797MOL0     C 7462  11.083   7.271   5.769 -0.0395 -0.6977 -0.3068
  797MOL0     O 7463  11.207   7.322   5.734 -0.4623  0.5940  0.1426
  797MOL0     C 7464  11.263   7.314   5.610 -0.3662 -0.9942 -0.0536
  797MOL0     C 7465  11.208   7.341   5.489  0.6450 -0.7109 -0.4332
  797MOL0     C 7466  11.276   7.353   5.376  0.1251  0.0154  0.5867
  797MOL0     C 7467  11.409   7.325   5.377  0.1657  0.8983  0.0611
  797MOL0     O 7468  11.484   7.305   5.261  1.0668  0.2102  0.1273
  797MOL0     C 7469  11.437   7.201   5.170 -0.1685 -0.3336  0.3098
  797MOL0     C 7470  11.532   7.190   5.054  0.4331  0.4160  0.8994
  797MOL0     C 7471  11.491   7.087   4.951  0.3172 -0.6259  0.7316
  797MOL0     C 7472  11.559   7.099   4.803  0.6249  1.0516  0.0508
  797MOL0     C 7473  11.522   6.970   4.726 -0.0523 -0.0121 -1.3114
  797MOL0     C 7474  11.377   6.957   4.689 -0.4468  0.2823  0.2322
  797MOL0     C 7475  11.338   7.048   4.571 -0.6346  0.9764 -0.2940
  797MOL0     C 7476  11.206   7.031   4.501  0.0063  0.8249 -0.0437
  797MOL0     N 7477  11.220   7.088   4.362  0.0888 -0.6814  0.2489
  797MOL0     C 7478  11.248   7.216   4.333 -0.8034  0.0503  0.1283
  797MOL0     C 7479  11.258   7.213   4.198 -0.1090  0.6499 -0.6329
  797MOL0     C 7480  11.286   7.328   4.111  0.6510 -0.6034  0.0800
  797MOL0     C 7481  11.393   7.428   4.157 -0.2180  0.8000  0.3175
  797MOL0     C 7482  11.428   7.524   4.045  0.5858 -0.0900  0.8569
  797MOL0     C 7483  11.336   7.645   4.007  0.2708  0.6281 -0.3083
  797MOL0     O 7484  11.207   7.596   3.953  0.1980  0.6841  0.2643
  797MOL0     C 7485  11.181   7.577   3.817 -0.3566 -0.5978  0.1375
  797MOL0     C 7486  11.251   7.645   3.717 -0.1586 -0.5162 -0.4825
  797MOL0     C 7487  11.231   7.611   3.581  0.6221 -0.4188 -0.6044
  797MOL0     C 7488  11.336   7.651   3.483 -0.8988 -0.5789 -0.4092
  797MOL0     C 7489  11.109   7.544   3.550 -0.2434 -0.3793  0.5033
  797MOL0     C 7490  11.068   7.521   3.408 -0.4574 -0.7418 -0.1409
  797MOL0     O 7491  10.977   7.425   3.402  0.0117  0.3687 -0.0893
  797MOL0     C 7492  10.886   7.391   3.308  0.3053 -0.1159 -0.0927
  797MOL0     C 7493  10.823   7.264   3.315  0.4617  0.2359  0.8050
  797MOL0     C 7494  10.732   7.224   3.218 -0.4041  0.0913  0.8130
  797MOL0     C 7495  10.695   7.314   3.114  1.4148  0.7303  0.7044
  797MOL0     O 7496  10.587   7.274   3.031 -0.4557  0.0258 -0.0794
  797MOL0     C 7497  10.589   7.331   2.899  0.2079  0.0514  0.0885
  797MOL0     C 7498  10.493   7.258   2.806  0.0373  0.0986 -0.1472
  797MOL0     C 7499  10.353   7.305   2.801 -1.2060  0.1443  0.2391
  797MOL0     C 7500  10.339   7.440   2.726 -0.0352 -0.7962 -0.4484
  797MOL0     C 7501  10.214   7.526   2.760 -0.5853 -0.2835  0.3578
  797MOL0     C 7502  10.091   7.438   2.760 -0.0606  0.7788  0.7406
  797MOL0     C 7503   9.957   7.505   2.755  0.1771  0.0423  0.3659
  797MOL0     C 7504   9.920   7.592   2.869  0.1889 -0.4374 -0.8829
  797MOL0    Cl 7505   9.864   7.474   2.991  0.0222 -0.0217  0.3082
  797MOL0     C 7506  10.754   7.444   3.106 -1.2207 -0.0349  0.3367
  797MOL0     C 7507  10.857   7.475   3.201 -0.1425  0.3761 -0.0046
  797MOL0     O 7508  11.117   7.579   3.306 -0.2090  0.6506 -0.0612
  797MOL0     C 7509  11.027   7.486   3.653  0.2710 -0.4931  0.3011
  797MOL0     C 7510  11.068   7.502   3.788 -0.3996 -0.5129 -0.1964
  797MOL0     N 7511  11.225   7.082   4.154 -0.4978  0.7243 -0.5316
  797MOL0     N 7512  11.185   7.012   4.251 -0.7319  0.2554  0.3384
  797MOL0     C 7513  11.473   7.286   5.493 -0.0372 -0.8423  0.0484
  797MOL0     C 7514  11.406   7.280   5.612  0.0447 -0.0707 -0.0361
  797MOL0     C 7515  11.043   7.299   5.910  0.3459 -0.5796 -0.7020
  797MOL0     C 7516  10.910   7.269   5.959  0.3415  0.1006  0.4485
  797MOL0     C 7517  10.865   7.316   6.086 -0.6933  0.5635 -0.6742
  797MOL0     C 7518  10.960   7.386   6.173  1.0751  0.4745 -1.0261
  797MOL0     O 7519  10.927   7.438   6.299 -0.5087 -0.2259 -0.4357
  797MOL0     C 7520  10.831   7.377   6.379  0.3531 -0.6008  1.2634
  797MOL0     C 7521  10.894   7.372   6.518  0.1525 -0.3564 -0.3293
  797MOL0     C 7522  10.889   7.505   6.589 -0.0604 -0.0092  0.2869
  797MOL0     C 7523  10.794   7.516   6.714  0.0657  0.1390 -0.0361
  797MOL0     C 7524  10.807   7.657   6.760 -0.1336 -0.1390  0.3849
  797MOL0     C 7525  10.809   7.776   6.777 -1.0830 -0.7687 -0.6618
  797MOL0     C 7526  11.088   7.408   6.127 -0.6150  0.2566 -0.1148
  797MOL0     C 7527  11.137   7.370   5.996  0.6058 -0.2912  0.4977
  797MOL0     H 7528  11.100   7.351   5.478  0.9613  3.4074 -1.3681
  797MOL0     H 7529  11.224   7.366   5.282 -1.7703 -0.5159  1.4993
  797MOL0     H 7530  11.437   7.103   5.220  1.7372  0.3363  1.7254
  797MOL0     H 7531  11.340   7.234   5.131 -0.3253  2.1350  2.4915
  797MOL0     H 7532  11.546   7.291   5.014  2.0947 -0.3031 -0.4496
  797MOL0     H 7533  11.634   7.170   5.087  0.5785 -0.6842 -0.1681
  797MOL0     H 7534  11.503   6.985   4.989 -0.3169 -1.1342 -0.3837
  797MOL0     H 7535  11.389   7.104   4.916  1.3077 -0.9691 -2.6522
  797MOL0     H 7536  11.524   7.186   4.745 -0.8150  0.1254 -0.5302
  797MOL0     H 7537  11.666   7.085   4.814  0.2606 -1.6094  0.7122
  797MOL0     H 7538  11.574   6.963   4.630 -2.7474 -0.3542 -2.8696
  797MOL0     H 7539  11.556   6.882   4.781  1.4546  0.3972 -1.5510
  797MOL0     H 7540  11.358   6.854   4.657  2.8857 -1.2013  2.4683
  797MOL0     H 7541  11.302   6.967   4.768 -1.0710 -0.5492 -0.2426
  797MOL0     H 7542  11.332   7.147   4.617 -2.0960  0.2495  1.2009
  797MOL0     H 7543  11.415   7.042   4.494 -0.6650  2.1140 -0.4227
  797MOL0     H 7544  11.136   7.089   4.562 -0.7658  1.7687 -1.7587
  797MOL0     H 7545  11.170   6.928   4.508  0.3242  0.8053  1.6456
  797MOL0     H 7546  11.268   7.299   4.400  1.7471  0.1652 -0.6660
  797MOL0     H 7547  11.318   7.287   4.015 -1.5527  1.4971 -1.6828
  797MOL0     H 7548  11.186   7.372   4.103  2.0983  3.5331  1.8232
  797MOL0     H 7549  11.486   7.386   4.196  0.4944  2.1159  0.0771
  797MOL0     H 7550  11.359   7.496   4.235 -2.3940  0.9335 -0.6716
  797MOL0     H 7551  11.461   7.462   3.961  1.2063 -0.0741  1.0831
  797MOL0     H 7552  11.513   7.577   4.088 -0.0752  0.6954  1.2291
  797MOL0     H 7553  11.383   7.711   3.933 -0.7592 -0.3542 -1.8908
  797MOL0     H 7554  11.325   7.701   4.100 -2.5362  0.7642 -0.6417
  797MOL0     H 7555  11.333   7.715   3.730 -0.7376  0.5463 -2.1659
  797MOL0     H 7556  11.303   7.748   3.445  0.2668  0.0522  0.1438
  797MOL0     H 7557  11.425   7.670   3.543  0.4480  0.4076 -2.6027
  797MOL0     H 7558  11.355   7.573   3.409  0.3932 -1.6401  0.9924
  797MOL0     H 7559  10.837   7.205   3.405  3.9087  2.2484  1.7752
  797MOL0     H 7560  10.678   7.130   3.214  3.5103 -2.3384 -0.5159
  797MOL0     H 7561  10.560   7.436   2.901  1.0588  0.3133 -0.5714
  797MOL0     H 7562  10.690   7.320   2.860 -0.6230 -0.2322 -2.1306
  797MOL0     H 7563  10.519   7.269   2.701 -5.8624 -1.7009 -2.1876
  797MOL0     H 7564  10.509   7.152   2.830  0.5293  0.3027  0.4575
  797MOL0     H 7565  10.316   7.308   2.904 -2.1207  0.3308 -0.0842
  797MOL0     H 7566  10.292   7.232   2.747  0.6229 -0.5892 -0.9436
  797MOL0     H 7567  10.419   7.505   2.762  1.0740 -4.1087  3.9326
  797MOL0     H 7568  10.332   7.431   2.617 -2.7674 -1.2773 -0.3096
  797MOL0     H 7569  10.220   7.597   2.676  0.4205  0.3868  0.9716
  797MOL0     H 7570  10.215   7.586   2.851 -0.2413 -0.8926  0.7556
  797MOL0     H 7571  10.087   7.371   2.673  0.5052 -0.4275  1.6260
  797MOL0     H 7572  10.088   7.370   2.845 -1.4060 -1.6590 -1.1145
  797MOL0     H 7573   9.872   7.440   2.734  1.1271 -0.7957 -1.0675
  797MOL0     H 7574   9.966   7.572   2.668 -1.9698  0.0401  0.0910
  797MOL0     H 7575   9.850   7.668   2.834  0.9233  0.7633  0.1478
  797MOL0     H 7576   9.997   7.653   2.918  0.3541 -2.1683  1.1727
  797MOL0     H 7577  10.734   7.502   3.017 -1.8974 -0.5598  0.1448
  797MOL0     H 7578  10.898   7.575   3.191  1.6421 -0.2643  0.6904
  797MOL0     H 7579  10.941   7.424   3.631 -0.1094  0.6400 -1.7434
  797MOL0     H 7580  11.002   7.453   3.859 -0.9807  0.7039  0.1289
  797MOL0     H 7581  11.577   7.259   5.481  0.4948 -1.0200  3.6887
  797MOL0     H 7582  11.465   7.254   5.699 -0.5621 -2.3835 -0.2545
  797MOL0     H 7583  10.835   7.212   5.906  0.9596 -1.7327  1.4392
  797MOL0     H 7584  10.765   7.291   6.121 -1.1882  3.3991  0.2370
  797MOL0     H 7585  10.730   7.419   6.368 -0.3226 -2.2564  0.8908
  797MOL0     H 7586  10.815   7.272   6.353  2.2365 -0.7000  0.3555
  797MOL0     H 7587  10.996   7.333   6.507  0.4849  0.8026 -1.6422
  797MOL0     H 7588  10.837   7.307   6.584 -2.8297  2.5345  0.1730
  797MOL0     H 7589  10.853   7.580   6.518  3.8365  2.1276  0.3183
  797MOL0     H 7590  10.986   7.543   6.621 -0.9242  2.6977 -0.0912
  797MOL0     H 7591  10.825   7.459   6.802 -1.4344  0.2085  0.5580
  797MOL0     H 7592  10.691   7.493   6.688 -0.1498 -2.5946  2.6739
  797MOL0     H 7593  10.809   7.882   6.793 -2.1416 -0.4258 -2.5584
  797MOL0     H 7594  11.153   7.469   6.189 -1.4635  1.0018  0.0585
  797MOL0     H 7595  11.237   7.401   5.969  1.0907 -0.7659  1.6623
  798MOL0     O 7596  10.886   3.636  10.883 -0.2052  0.0478 -0.5432
  798MOL0     C 7597  11.005   3.621  10.919  0.1564 -0.2658  0.0792
  798MOL0     O 7598  11.040   3.552  11.034  0.5800  0.8937  0.1352
  798MOL0     C 7599  10.936   3.488  11.104 -0.0636 -0.1066 -0.4577
  798MOL0     C 7600  10.844   3.539  11.201  0.4886 -0.7707 -0.0814
  798MOL0     C 7601  10.751   3.452  11.262 -0.7002 -0.4405 -0.3505
  798MOL0     C 7602  10.731   3.330  11.217  0.0326  0.5418  0.6495
  798MOL0     O 7603  10.634   3.259  11.279  0.5066 -0.3387  0.2209
  798MOL0     C 7604  10.553   3.178  11.190 -1.4087 -0.3983 -0.5887
  798MOL0     C 7605  10.457   3.104  11.277 -0.3797 -0.2365  0.3442
  798MOL0     C 7606  10.359   3.201  11.342  0.1904  0.8620  0.5244
  798MOL0     C 7607  10.256   3.264  11.253  0.0573  0.2049 -0.0081
  798MOL0     C 7608  10.125   3.323  11.317 -0.1858 -0.1402 -0.9794
  798MOL0     C 7609  10.026   3.400  11.216 -0.6486 -0.1547  0.4847
  798MOL0     C 7610   9.909   3.462  11.299  0.1545  0.4694 -0.1569
  798MOL0     C 7611   9.810   3.553  11.212 -0.0544  0.5889 -0.1941
  798MOL0     N 7612   9.895   3.647  11.137  1.3808 -0.2148 -0.6452
  798MOL0     C 7613   9.951   3.762  11.179 -0.0706  0.4103 -0.9998
  798MOL0     C 7614  10.019   3.813  11.078 -0.1242 -0.8722  0.2695
  798MOL0     C 7615  10.098   3.940  11.077 -0.4478 -0.4293  0.1552
  798MOL0     C 7616  10.138   3.977  10.927 -0.3029 -1.1165 -1.4228
  798MOL0     C 7617  10.009   4.032  10.866  0.4344 -0.5466  0.6135
  798MOL0     C 7618  10.045   4.083  10.725  0.1367  0.2398  0.0002
  798MOL0     O 7619   9.958   4.196  10.687  1.2127 -0.0701  0.1659
  798MOL0     C 7620   9.955   4.231  10.561  0.3241  0.0899  0.9149
  798MOL0     C 7621  10.040   4.171  10.452  0.3282 -0.0371 -0.9248
  798MOL0     C 7622  10.038   4.218  10.316 -0.2018  0.5296  1.0406
  798MOL0     C 7623  10.112   4.142  10.210 -0.6743  0.0962 -0.1387
  798MOL0     C 7624   9.948   4.333  10.290 -1.1234 -0.3996  0.1742
  798MOL0     C 7625   9.941   4.388  10.144  0.6253 -0.8342  0.5873
  798MOL0     O 7626  10.034   4.363  10.059 -0.6410  0.2908  0.3471
  798MOL0     C 7627  10.043   4.424   9.940 -0.4771  0.7898  0.4490
  798MOL0     C 7628   9.964   4.374   9.839  0.1493 -0.4615 -0.1884
  798MOL0     C 7629   9.970   4.410   9.707  0.0054  0.0208 -0.2380
  798MOL0     C 7630  10.073   4.494   9.663  1.0530  0.4081 -0.0611
  798MOL0     O 7631  10.084   4.524   9.528 -0.2629  0.6664 -0.6163
  798MOL0     C 7632  10.212   4.528   9.468 -0.7352  0.7219  0.5217
  798MOL0     C 7633  10.201   4.538   9.316  0.0733 -0.6266 -0.1845
  798MOL0     C 7634  10.130   4.416   9.242 -0.0880  0.3455  0.6222
  798MOL0     C 7635  10.114   4.424   9.085  0.8908 -0.1697  0.4738
  798MOL0     C 7636  10.235   4.355   9.012 -0.4759 -0.3142  0.1535
  798MOL0     C 7637  10.243   4.403   8.870 -0.4576 -0.5891 -0.6355
  798MOL0     C 7638  10.354   4.342   8.791  0.2618  0.8886 -0.9895
  798MOL0     C 7639  10.357   4.402   8.651  0.5620  0.1704 -0.1627
  798MOL0    Cl 7640  10.375   4.578   8.651  0.2459  0.1099  0.1194
  798MOL0     C 7641  10.152   4.541   9.766 -0.0765 -0.5719 -0.7453
  798MOL0     C 7642  10.143   4.505   9.897 -0.3452 -0.4154 -0.1360
  798MOL0     O 7643   9.853   4.463  10.128 -0.1792 -0.2013  1.4604
  798MOL0     C 7644   9.864   4.383  10.392 -0.7768  0.4301  0.9590
  798MOL0     C 7645   9.863   4.330  10.522 -0.0018 -0.1989 -0.5821
  798MOL0     N 7646  10.005   3.726  10.980 -0.1111 -0.0732  0.8370
  798MOL0     N 7647   9.921   3.637  11.005  0.7448 -0.6881 -0.0072
  798MOL0     C 7648  10.816   3.282  11.121 -0.2019  0.0192  0.3809
  798MOL0     C 7649  10.916   3.356  11.066 -0.6527 -0.7114 -0.1676
  798MOL0     C 7650  11.115   3.680  10.836 -1.0587  0.7959  0.5187
  798MOL0     C 7651  11.252   3.629  10.842  0.3027 -0.0589 -1.0147
  798MOL0     C 7652  11.359   3.686  10.770 -0.1564 -0.5452 -0.7739
  798MOL0     C 7653  11.336   3.804  10.706  0.6316 -0.3809  0.6362
  798MOL0     O 7654  11.433   3.867  10.635 -0.0444 -0.5812  0.2886
  798MOL0     C 7655  11.564   3.882  10.689  0.4801  0.3174  0.8657
  798MOL0     C 7656  11.602   4.026  10.719  0.3722 -0.5762 -1.0706
  798MOL0     C 7657  11.515   4.110  10.808  0.1217  1.0145  0.4286
  798MOL0     C 7658  11.583   4.121  10.943  0.4975  0.5424 -0.4549
  798MOL0     C 7659  11.574   3.996  11.006  0.3943  0.3916 -0.1274
  798MOL0     C 7660  11.583   3.883  11.055 -0.0865 -0.5173 -0.9449
  798MOL0     C 7661  11.200   3.847  10.703  0.1864 -0.1226  0.9474
  798MOL0     C 7662  11.092   3.782  10.757  0.4737  0.1282 -1.0065
  798MOL0     H 7663  10.860   3.639  11.241  1.8575 -0.1398 -2.0294
  798MOL0     H 7664  10.688   3.477  11.347 -1.6890 -2.1086 -0.5483
  798MOL0     H 7665  10.498   3.238  11.118  2.4127  1.0790 -2.5787
  798MOL0     H 7666  10.619   3.110  11.135 -1.7869  1.2729 -3.2567
  798MOL0     H 7667  10.401   3.029  11.220  0.2994 -1.2930  1.0498
  798MOL0     H 7668  10.505   3.043  11.354  0.2863 -0.8126 -0.5083
  798MOL0     H 7669  10.303   3.153  11.423 -0.6966  0.6349 -0.2072
  798MOL0     H 7670  10.423   3.265  11.404  1.9632  0.2241 -0.5506
  798MOL0     H 7671  10.299   3.355  11.210  1.1624 -0.8704 -1.2775
  798MOL0     H 7672  10.226   3.202  11.168  0.0052 -1.3642  1.1137
  798MOL0     H 7673  10.073   3.237  11.361  0.9936 -0.0986  0.5856
  798MOL0     H 7674  10.156   3.386  11.401  1.3274 -0.2725 -1.4060
  798MOL0     H 7675  10.083   3.487  11.181 -0.2349 -0.4319  0.4656
  798MOL0     H 7676   9.998   3.340  11.129  1.5229 -2.8751  1.5117
  798MOL0     H 7677   9.860   3.377  11.346  1.3700  0.1041  0.4797
  798MOL0     H 7678   9.967   3.527  11.366  2.2708 -2.1697  0.7135
  798MOL0     H 7679   9.744   3.621  11.267 -0.2951  0.0058  0.2509
  798MOL0     H 7680   9.751   3.493  11.142  2.4902 -1.0005 -1.0911
  798MOL0     H 7681   9.932   3.820  11.269 -2.0063  4.6524 -3.8249
  798MOL0     H 7682  10.043   4.019  11.128 -1.2927  0.0471 -1.4262
  798MOL0     H 7683  10.187   3.932  11.140 -0.6814 -0.1328  0.5278
  798MOL0     H 7684  10.189   3.893  10.879  0.8608 -0.2380 -1.7726
  798MOL0     H 7685  10.202   4.063  10.949 -4.0732  1.1202  2.3937
  798MOL0     H 7686   9.971   4.109  10.934  0.9566  0.8142 -0.6034
  798MOL0     H 7687   9.935   3.952  10.850 -3.1195  2.6413 -0.2475
  798MOL0     H 7688  10.045   3.993  10.663 -0.0792 -2.4977  3.6601
  798MOL0     H 7689  10.147   4.121  10.739  0.5902 -1.5754  2.0809
  798MOL0     H 7690  10.104   4.086  10.475  0.6146  0.5572  0.6025
  798MOL0     H 7691  10.050   4.126  10.122  0.4335  0.5143 -1.0199
  798MOL0     H 7692  10.199   4.200  10.177 -0.6612 -0.9232 -2.0518
  798MOL0     H 7693  10.153   4.049  10.249  3.3700  2.3477  1.5702
  798MOL0     H 7694   9.875   4.317   9.865 -2.2822  2.7123 -0.8597
  798MOL0     H 7695   9.909   4.351   9.639 -0.5940 -0.4860  0.7112
  798MOL0     H 7696  10.263   4.619   9.499  3.9526 -1.6186  0.6840
  798MOL0     H 7697  10.268   4.439   9.499  0.2911  1.2899  0.3508
  798MOL0     H 7698  10.138   4.626   9.300 -1.3735 -0.9931  2.8068
  798MOL0     H 7699  10.300   4.538   9.270 -0.3428  2.8940 -1.4115
  798MOL0     H 7700  10.027   4.411   9.278 -0.2574  2.0713  0.4494
  798MOL0     H 7701  10.177   4.325   9.280 -1.3063 -0.1897  0.9028
  798MOL0     H 7702  10.018   4.386   9.050  1.3745  0.0803 -1.2396
  798MOL0     H 7703  10.105   4.532   9.072  0.2909 -0.0123  2.0135
  798MOL0     H 7704  10.242   4.247   9.030 -2.2519 -0.0207  3.2068
  798MOL0     H 7705  10.333   4.390   9.047  0.0773 -2.5540  0.9780
  798MOL0     H 7706  10.147   4.388   8.819 -1.5147 -1.0567  1.3959
  798MOL0     H 7707  10.267   4.509   8.876 -4.7345  0.4573  3.1280
  798MOL0     H 7708  10.328   4.235   8.794 -2.0724  1.4141  0.0176
  798MOL0     H 7709  10.447   4.357   8.845 -1.2932 -0.1761  2.2481
  798MOL0     H 7710  10.271   4.363   8.595  1.2165 -1.0358 -0.3451
  798MOL0     H 7711  10.446   4.355   8.609  1.8161  0.4801  2.0214
  798MOL0     H 7712  10.236   4.604   9.737 -1.2172  2.0844  1.3297
  798MOL0     H 7713  10.215   4.539   9.971 -1.8484 -0.9187  1.6278
  798MOL0     H 7714   9.802   4.467  10.360  0.4081  1.4952  1.3664
  798MOL0     H 7715   9.792   4.371  10.594 -0.5799 -0.2418 -1.1107
  798MOL0     H 7716  10.817   3.179  11.086 -0.0612 -0.1851  0.9720
  798MOL0     H 7717  10.982   3.315  10.990  1.3682 -0.4958  1.3956
  798MOL0     H 7718  11.278   3.538  10.896  0.7022  0.2923 -0.6132
  798MOL0     H 7719  11.461   3.651  10.781 -0.5653 -1.1176  1.6648
  798MOL0     H 7720  11.567   3.824  10.781  1.4691  0.0093  0.6579
  798MOL0     H 7721  11.637   3.836  10.622 -0.5319 -2.6338  1.6498
  798MOL0     H 7722  11.618   4.080  10.625  2.3024  1.0382  0.1133
  798MOL0     H 7723  11.698   4.022  10.771 -1.4696 -0.0301  2.6557
  798MOL0     H 7724  11.414   4.069  10.808  0.8083 -0.7843 -0.7414
  798MOL0     H 7725  11.495   4.208  10.763  0.8838  0.1158 -2.0156
  798MOL0     H 7726  11.530   4.195  11.004 -1.6765 -0.7643 -0.6689
  798MOL0     H 7727  11.686   4.158  10.942  0.6595  0.1100 -1.3555
  798MOL0     H 7728  11.578   3.783  11.094  0.6908 -0.1215  0.2170
  798MOL0     H 7729  11.173   3.936  10.647 -2.1651 -1.2369  0.2009
  798MOL0     H 7730  10.993   3.822  10.740 -0.2018 -1.1099 -0.2005
  799MOL0     O 7731   8.149   0.832   5.829  0.4048 -0.3676 -0.2031
  799MOL0     C 7732   8.051   0.781   5.771 -0.9580 -0.7693  1.2047
  799MOL0     O 7733   8.057   0.703   5.662  0.3075 -0.4085  0.4604
  799MOL0     C 7734   8.176   0.673   5.603 -1.1178 -0.7260  0.2943
  799MOL0     C 7735   8.272   0.769   5.563  1.0864  0.1741  0.8787
  799MOL0     C 7736   8.390   0.731   5.494 -1.0060  0.5552 -0.2654
  799MOL0     C 7737   8.415   0.590   5.481 -0.4008 -0.3153  0.1564
  799MOL0     O 7738   8.536   0.553   5.431 -0.6416  0.7746 -0.0674
  799MOL0     C 7739   8.593   0.421   5.447  1.6026  0.0640  0.3902
  799MOL0     C 7740   8.610   0.394   5.597  0.4290 -0.9443  0.0009
  799MOL0     C 7741   8.725   0.291   5.617 -0.4566 -0.3914  0.3562
  799MOL0     C 7742   8.737   0.184   5.520  0.5139  0.7054 -0.6382
  799MOL0     C 7743   8.853   0.097   5.566  0.6975  0.7850  0.2216
  799MOL0     C 7744   8.910   0.025   5.450 -0.7863  0.2498 -0.0730
  799MOL0     C 7745   9.025  -0.073   5.483 -0.0497 -0.2257 -0.6013
  799MOL0     C 7746   9.088  -0.149   5.362  0.1409  0.1084  0.4546
  799MOL0     N 7747   9.212  -0.220   5.388  0.1711 -0.2344 -0.1103
  799MOL0     C 7748   9.219  -0.303   5.499  0.3110  1.1328  1.4199
  799MOL0     C 7749   9.352  -0.331   5.510 -0.1085  0.1883  0.4271
  799MOL0     C 7750   9.422  -0.409   5.613  0.9004 -0.6181  0.6531
  799MOL0     C 7751   9.401  -0.329   5.746 -0.5097 -0.0733  0.4619
  799MOL0     C 7752   9.530  -0.251   5.781  0.3626 -0.5798 -0.0700
  799MOL0     C 7753   9.534  -0.210   5.920 -0.2832  0.7750  0.7135
  799MOL0     O 7754   9.444  -0.116   5.956 -0.1783 -0.1287  0.5096
  799MOL0     C 7755   9.441  -0.094   6.092  0.4717 -0.8300  0.0586
  799MOL0     C 7756   9.349  -0.150   6.174 -0.7654  0.9629  0.0095
  799MOL0     C 7757   9.340  -0.124   6.299 -0.9210 -0.9955 -0.3156
  799MOL0     C 7758   9.223  -0.176   6.371  1.1388  0.4715  1.2076
  799MOL0     C 7759   9.421  -0.024   6.358 -0.4919 -0.6023  0.6509
  799MOL0     C 7760   9.426   0.011   6.506  0.0274  0.8318 -1.0885
  799MOL0     O 7761   9.500   0.123   6.546 -0.5148 -0.4248 -0.6873
  799MOL0     C 7762   9.535   0.128   6.677 -0.6930 -0.7146 -0.2739
  799MOL0     C 7763   9.454   0.200   6.771  0.1702 -0.1201  0.3825
  799MOL0     C 7764   9.491   0.231   6.903 -0.1835  0.5242 -0.4519
  799MOL0     C 7765   9.608   0.170   6.948  0.3843 -1.5816  0.0198
  799MOL0     O 7766   9.643   0.197   7.074 -0.6519 -0.0032 -0.0524
  799MOL0     C 7767   9.768   0.167   7.129  0.5744 -0.8816  0.4529
  799MOL0     C 7768   9.780   0.225   7.273  0.4604  0.0263 -0.1301
  799MOL0     C 7769   9.713   0.364   7.299  0.0774  0.3095  0.3531
  799MOL0     C 7770   9.800   0.483   7.251  0.8065  1.0859 -0.0186
  799MOL0     C 7771   9.794   0.506   7.103  0.1293  0.0166 -0.4849
  799MOL0     C 7772   9.666   0.562   7.041  0.2864 -0.2695 -0.3689
  799MOL0     C 7773   9.607   0.678   7.122  0.2341 -0.2312  1.2150
  799MOL0     C 7774   9.476   0.740   7.064  0.8149  0.3813 -0.5750
  799MOL0    Cl 7775   9.513   0.837   6.913  0.0447  0.4497  0.0661
  799MOL0     C 7776   9.679   0.099   6.855  0.4267  0.0458 -1.0506
  799MOL0     C 7777   9.657   0.080   6.718 -0.4407 -0.0158 -0.0891
  799MOL0     O 7778   9.368  -0.066   6.590  0.1502 -1.0127  0.2085
  799MOL0     C 7779   9.516   0.041   6.276 -0.0289  0.3808  0.0615
  799MOL0     C 7780   9.513   0.015   6.141  0.1290 -0.9508 -0.1143
  799MOL0     N 7781   9.412  -0.267   5.405  0.3400 -0.0211  0.3535
  799MOL0     N 7782   9.336  -0.203   5.336 -0.4772 -0.2781  0.4000
  799MOL0     C 7783   8.318   0.499   5.518 -0.9120  0.3991  0.5372
  799MOL0     C 7784   8.202   0.541   5.574  0.2536 -0.4961 -0.0562
  799MOL0     C 7785   7.918   0.798   5.831 -0.5982  0.5725  0.6858
  799MOL0     C 7786   7.801   0.782   5.762  0.9121 -0.1092 -0.0661
  799MOL0     C 7787   7.676   0.783   5.829 -0.0315 -0.1761 -0.1058
  799MOL0     C 7788   7.665   0.823   5.964 -0.3268  0.2617  0.5045
  799MOL0     O 7789   7.552   0.832   6.029 -0.0033 -0.8186  0.2620
  799MOL0     C 7790   7.551   0.816   6.173 -0.0861  0.5362 -0.1273
  799MOL0     C 7791   7.597   0.678   6.230  0.5946 -0.1929 -0.3515
  799MOL0     C 7792   7.498   0.561   6.220  0.2892 -0.5669  0.6032
  799MOL0     C 7793   7.460   0.525   6.072  0.9768  0.8490 -0.4168
  799MOL0     C 7794   7.374   0.410   6.078 -0.5866 -0.3367  0.7392
  799MOL0     C 7795   7.302   0.320   6.077 -0.2498  0.0081 -0.0961
  799MOL0     C 7796   7.791   0.845   6.028 -0.0660  1.2983 -0.1382
  799MOL0     C 7797   7.911   0.828   5.968 -0.1774 -0.1375  0.3874
  799MOL0     H 7798   8.244   0.873   5.575  0.0718 -0.1891  1.8210
  799MOL0     H 7799   8.451   0.810   5.452 -1.7053  2.1152  1.4729
  799MOL0     H 7800   8.528   0.343   5.406  0.4000  1.1076  0.2354
  799MOL0     H 7801   8.691   0.416   5.399  0.9233 -5.9521 -1.2552
  799MOL0     H 7802   8.630   0.484   5.656 -0.3908 -0.5554 -0.2869
  799MOL0     H 7803   8.520   0.347   5.636 -1.3486  0.4368 -2.1721
  799MOL0     H 7804   8.819   0.347   5.610  0.9585 -2.7421 -0.6958
  799MOL0     H 7805   8.704   0.248   5.715 -0.1145 -2.6617 -0.5209
  799MOL0     H 7806   8.647   0.121   5.521 -0.1807  1.6600 -1.1969
  799MOL0     H 7807   8.756   0.209   5.415  3.5004 -0.7785 -0.5565
  799MOL0     H 7808   8.932   0.159   5.610 -0.6298  0.6167  3.0844
  799MOL0     H 7809   8.812   0.028   5.641 -1.5854  0.3885 -1.3159
  799MOL0     H 7810   8.837  -0.037   5.397 -0.3773 -1.7371  1.5413
  799MOL0     H 7811   8.951   0.089   5.372 -0.5379 -0.3504 -0.4438
  799MOL0     H 7812   9.094  -0.013   5.543  0.5534 -3.4097  2.2066
  799MOL0     H 7813   8.980  -0.150   5.546 -0.7117  0.0372 -0.7453
  799MOL0     H 7814   9.107  -0.068   5.291  2.2322 -1.8102 -1.2884
  799MOL0     H 7815   9.015  -0.212   5.311 -0.0879  2.9597 -3.1042
  799MOL0     H 7816   9.136  -0.332   5.564 -2.5006  0.4609 -2.1822
  799MOL0     H 7817   9.379  -0.509   5.605 -1.1176  0.2605 -0.0881
  799MOL0     H 7818   9.530  -0.412   5.596  1.2271  1.0038  2.1058
  799MOL0     H 7819   9.376  -0.392   5.831  1.5961 -2.2082 -0.3893
  799MOL0     H 7820   9.320  -0.256   5.739 -0.1580  0.1417 -2.9989
  799MOL0     H 7821   9.543  -0.160   5.721  1.0889 -0.5800  0.0794
  799MOL0     H 7822   9.614  -0.316   5.755  0.4475 -0.1675 -0.8586
  799MOL0     H 7823   9.637  -0.182   5.947  1.1390 -3.1134  0.0202
  799MOL0     H 7824   9.525  -0.298   5.984 -0.4252 -1.2273 -1.8782
  799MOL0     H 7825   9.274  -0.214   6.130 -1.7595  0.2911  2.5271
  799MOL0     H 7826   9.175  -0.096   6.429 -1.9189 -0.0792 -0.3551
  799MOL0     H 7827   9.154  -0.216   6.296  3.6759  0.7169 -1.4490
  799MOL0     H 7828   9.266  -0.253   6.435  0.4204 -2.6043 -1.7209
  799MOL0     H 7829   9.364   0.245   6.730 -1.3757 -1.3749  2.1654
  799MOL0     H 7830   9.427   0.290   6.968 -4.3234  1.0547 -4.5544
  799MOL0     H 7831   9.788   0.059   7.127  3.1415 -0.5159  1.9885
  799MOL0     H 7832   9.844   0.228   7.080 -0.1880 -0.0873  0.2329
  799MOL0     H 7833   9.733   0.145   7.331 -1.6847  0.0766 -1.6805
  799MOL0     H 7834   9.881   0.236   7.313  0.7966 -1.1673 -0.6074
  799MOL0     H 7835   9.689   0.378   7.405  1.5956 -0.3465  0.8023
  799MOL0     H 7836   9.613   0.372   7.255  0.3344 -1.9201 -0.7304
  799MOL0     H 7837   9.755   0.571   7.299 -0.2714  2.1646 -2.8017
  799MOL0     H 7838   9.901   0.456   7.282  0.9074  2.3290  0.8089
  799MOL0     H 7839   9.830   0.425   7.040  2.8122  0.4232  0.4268
  799MOL0     H 7840   9.866   0.586   7.087  1.1807 -0.0371  3.1501
  799MOL0     H 7841   9.687   0.599   6.940  1.2124 -3.0516 -1.2748
  799MOL0     H 7842   9.596   0.478   7.032  0.9167 -0.7144 -1.2924
  799MOL0     H 7843   9.680   0.758   7.139  0.9776 -0.6728  0.1680
  799MOL0     H 7844   9.580   0.641   7.222  0.7951 -2.2898  0.6380
  799MOL0     H 7845   9.434   0.803   7.143  0.9713 -1.6329  1.2020
  799MOL0     H 7846   9.407   0.661   7.034  1.3865 -0.1500 -0.5314
  799MOL0     H 7847   9.771   0.048   6.883 -1.8043 -3.9513 -0.2439
  799MOL0     H 7848   9.716   0.021   6.648 -1.0981  0.3904 -1.0025
  799MOL0     H 7849   9.583   0.119   6.309  3.0620 -0.8023 -2.8941
  799MOL0     H 7850   9.578   0.068   6.071 -0.2924 -0.7199 -0.3344
  799MOL0     H 7851   8.335   0.393   5.502 -2.6518 -0.0084  1.0998
  799MOL0     H 7852   8.130   0.465   5.602 -1.1871 -0.5127 -3.2956
  799MOL0     H 7853   7.812   0.748   5.660 -0.0494 -1.9247  0.4008
  799MOL0     H 7854   7.581   0.766   5.777 -1.2261 -4.7510  2.9356
  799MOL0     H 7855   7.603   0.901   6.220 -1.6469  1.5375 -0.1156
  799MOL0     H 7856   7.451   0.835   6.214 -0.0259  2.9122 -0.8960
  799MOL0     H 7857   7.620   0.706   6.333 -0.2761  2.4562 -0.7869
  799MOL0     H 7858   7.691   0.644   6.186  1.3901  0.0154  1.1267
  799MOL0     H 7859   7.409   0.589   6.278 -0.4650  0.0227 -0.7872
  799MOL0     H 7860   7.543   0.470   6.260 -0.0249 -1.1119 -0.2553
  799MOL0     H 7861   7.554   0.508   6.018  0.2488  0.5934 -1.6524
  799MOL0     H 7862   7.395   0.596   6.020 -0.7601 -1.1536 -1.1306
  799MOL0     H 7863   7.243   0.240   6.117 -2.9394  1.8931 -0.0409
  799MOL0     H 7864   7.788   0.872   6.133 -0.8121  2.5811 -0.4630
  799MOL0     H 7865   8.001   0.859   6.020 -0.2463 -2.4096  2.0252
  800MOL0     O 7866   5.885  11.296   0.588 -0.0385 -0.5444  0.2423
  800MOL0     C 7867   5.944  11.307   0.479 -0.0244  0.0434 -0.0441
  800MOL0     O 7868   6.003  11.204   0.414 -0.1422 -0.1709  0.3861
  800MOL0     C 7869   6.018  11.077   0.460 -0.0020  0.3309  0.6196
  800MOL0     C 7870   6.062  11.060   0.590 -0.0667 -0.2997 -0.1214
  800MOL0     C 7871   6.078  10.928   0.649  1.1542 -0.1545  0.2238
  800MOL0     C 7872   6.051  10.809   0.571  0.5819  0.1108  0.6304
  800MOL0     O 7873   6.072  10.677   0.616 -0.0374  0.4969 -0.0885
  800MOL0     C 7874   6.037  10.647   0.750 -0.1128 -0.3871  0.9058
  800MOL0     C 7875   6.012  10.498   0.770  0.8659  0.2941  0.5524
  800MOL0     C 7876   5.869  10.449   0.718  0.4217 -1.3531  0.6489
  800MOL0     C 7877   5.824  10.316   0.789  1.0919  0.8152 -0.5247
  800MOL0     C 7878   5.899  10.202   0.730  0.0577 -0.8916  0.5762
  800MOL0     C 7879   5.872  10.064   0.802  0.1687  0.6677 -0.3151
  800MOL0     C 7880   5.963   9.947   0.743  0.8855 -0.3752  0.0908
  800MOL0     C 7881   5.957   9.817   0.832 -1.3422 -0.3808 -0.4275
  800MOL0     N 7882   5.825   9.777   0.870 -0.5841  0.0301 -0.6535
  800MOL0     C 7883   5.736   9.740   0.779  0.0244  0.1133 -0.0623
  800MOL0     C 7884   5.651   9.669   0.852  0.1560  0.0841 -0.0921
  800MOL0     C 7885   5.539   9.594   0.784  0.0583  0.1633 -0.1189
  800MOL0     C 7886   5.401   9.639   0.825 -0.3027  0.5768  0.3619
  800MOL0     C 7887   5.296   9.591   0.722 -0.1918  0.3230 -0.6457
  800MOL0     C 7888   5.159   9.625   0.772 -0.4949  1.0178  0.2231
  800MOL0     O 7889   5.150   9.765   0.764  0.4524  0.4358  0.2383
  800MOL0     C 7890   5.028   9.825   0.735  1.1300  1.4331  0.6638
  800MOL0     C 7891   4.902   9.765   0.713 -0.2204 -0.6117  1.3240
  800MOL0     C 7892   4.794   9.851   0.675  0.0609  0.5630  0.5531
  800MOL0     C 7893   4.660   9.778   0.678 -0.3251  0.5190 -0.2687
  800MOL0     C 7894   4.808   9.985   0.651 -0.1384 -0.4955  0.6132
  800MOL0     C 7895   4.699  10.065   0.602 -0.8072  0.2542  0.1547
  800MOL0     O 7896   4.687  10.184   0.666  0.0457 -0.4632 -0.5003
  800MOL0     C 7897   4.594  10.278   0.626 -0.2964 -0.1939 -0.3738
  800MOL0     C 7898   4.620  10.415   0.628  0.0272 -0.0287  0.8544
  800MOL0     C 7899   4.525  10.520   0.605 -0.7539  0.0063 -0.3891
  800MOL0     C 7900   4.393  10.485   0.578  0.9658 -0.0216 -0.4613
  800MOL0     O 7901   4.294  10.579   0.572 -0.1478 -0.3925  0.8744
  800MOL0     C 7902   4.323  10.714   0.588  0.4010  0.4829  0.0451
  800MOL0     C 7903   4.199  10.795   0.566 -0.1918  0.4788  0.2641
  800MOL0     C 7904   4.241  10.944   0.551  0.9486  0.6556  0.0049
  800MOL0     C 7905   4.280  10.994   0.685 -0.6579 -0.1935  0.5675
  800MOL0     C 7906   4.337  11.130   0.682  0.4969  0.3643 -0.9553
  800MOL0     C 7907   4.230  11.242   0.638  0.2633 -0.1377  0.8139
  800MOL0     C 7908   4.287  11.382   0.646  1.0178 -0.6335  0.8056
  800MOL0     C 7909   4.216  11.492   0.546  0.6339  0.2795  0.2394
  800MOL0    Cl 7910   4.293  11.488   0.377  0.1523  0.3933 -0.0492
  800MOL0     C 7911   4.357  10.350   0.586  0.7290 -0.4011 -0.2606
  800MOL0     C 7912   4.455  10.246   0.609 -0.4955 -0.7040  1.3668
  800MOL0     O 7913   4.624  10.030   0.510 -0.2401 -0.1952  0.3948
  800MOL0     C 7914   4.933  10.041   0.670 -0.3435 -0.4070 -0.1195
  800MOL0     C 7915   5.041   9.957   0.723  0.0078  0.1398  1.0958
  800MOL0     N 7916   5.687   9.662   0.985  0.0218  0.4782  0.6485
  800MOL0     N 7917   5.795   9.724   0.997  0.2387  0.5371  0.3906
  800MOL0     C 7918   6.011  10.833   0.441  0.2795 -1.1001  0.3745
  800MOL0     C 7919   6.013  10.958   0.382  0.8071  1.0408  0.4783
  800MOL0     C 7920   5.949  11.444   0.411  0.4112 -0.1083  0.5156
  800MOL0     C 7921   5.858  11.550   0.448  0.1243 -0.0690  0.1991
  800MOL0     C 7922   5.860  11.675   0.380 -0.2944  1.2066 -1.0519
  800MOL0     C 7923   5.965  11.694   0.287  0.1102 -0.7738 -0.1342
  800MOL0     O 7924   5.961  11.814   0.224  0.5765 -0.3000 -0.2440
  800MOL0     C 7925   6.064  11.858   0.133 -0.6842  0.6246  0.0071
  800MOL0     C 7926   6.072  12.016   0.138 -1.2033  0.2205 -0.1940
  800MOL0     C 7927   6.195  12.077   0.052  0.4105 -0.8123  0.3612
  800MOL0     C 7928   6.331  12.018   0.083  0.0678  0.0357 -0.9355
  800MOL0     C 7929   6.363  11.900   0.005 -0.9912 -0.2125 -0.6254
  800MOL0     C 7930   6.408  11.796  -0.043 -1.3010 -0.8063  0.2217
  800MOL0     C 7931   6.042  11.592   0.252  0.1621  0.2408  0.4700
  800MOL0     C 7932   6.035  11.469   0.309 -0.3182  0.5991  0.1920
  800MOL0     H 7933   6.083  11.148   0.651 -0.8779 -0.5842  0.5847
  800MOL0     H 7934   6.120  10.917   0.749 -0.8556 -1.8844  0.9724
  800MOL0     H 7935   6.125  10.660   0.813  3.3567  0.1907 -3.5759
  800MOL0     H 7936   5.952  10.713   0.771 -1.7686 -0.8749 -3.2498
  800MOL0     H 7937   6.079  10.444   0.703 -0.5539 -0.5694 -0.2376
  800MOL0     H 7938   6.034  10.475   0.875  2.9038 -0.1112  0.0776
  800MOL0     H 7939   5.793  10.521   0.749  1.2962 -0.6903  1.3325
  800MOL0     H 7940   5.851  10.431   0.612 -0.1351  2.6702 -0.1162
  800MOL0     H 7941   5.844  10.312   0.897 -1.4276  0.4506 -0.0016
  800MOL0     H 7942   5.715  10.303   0.785  0.7294  2.3896  1.8349
  800MOL0     H 7943   5.884  10.193   0.622  1.1053  0.3633  0.3019
  800MOL0     H 7944   6.003  10.219   0.759  1.1343 -1.8621 -2.3097
  800MOL0     H 7945   5.884  10.084   0.909 -0.9557 -1.6132  0.2984
  800MOL0     H 7946   5.773  10.020   0.785 -0.0057  0.1893  1.6709
  800MOL0     H 7947   5.946   9.932   0.636  1.9202 -0.9402 -0.0096
  800MOL0     H 7948   6.066   9.978   0.762  1.1055 -0.8491 -0.3073
  800MOL0     H 7949   6.012   9.831   0.926 -2.5957 -2.1923  0.6400
  800MOL0     H 7950   6.000   9.738   0.770  0.9119 -1.0536  1.8147
  800MOL0     H 7951   5.749   9.751   0.672 -1.7673  2.8445 -0.1072
  800MOL0     H 7952   5.556   9.621   0.679 -0.1292  2.3706  0.3790
  800MOL0     H 7953   5.557   9.487   0.794  1.1572  0.4816  1.8964
  800MOL0     H 7954   5.392   9.746   0.840 -1.9548  0.6182 -0.6259
  800MOL0     H 7955   5.382   9.590   0.921 -1.1333 -0.1439 -0.1480
  800MOL0     H 7956   5.300   9.481   0.723 -0.2217  0.3168 -0.9479
  800MOL0     H 7957   5.312   9.621   0.618 -1.3076  0.9613 -0.6555
  800MOL0     H 7958   5.145   9.585   0.873 -3.5710 -2.8912 -1.4894
  800MOL0     H 7959   5.107   9.563   0.699  5.3538 -1.5113 -2.4182
  800MOL0     H 7960   4.882   9.661   0.738 -1.8753  0.0371  2.9330
  800MOL0     H 7961   4.654   9.680   0.726 -0.9020 -0.3194 -1.9522
  800MOL0     H 7962   4.584   9.848   0.713 -0.5420 -0.3470  1.0628
  800MOL0     H 7963   4.637   9.749   0.575 -0.9519  1.7014 -0.4819
  800MOL0     H 7964   4.721  10.448   0.648  1.4163 -2.5090 -1.3900
  800MOL0     H 7965   4.540  10.626   0.619 -3.5049  0.8608 -2.8754
  800MOL0     H 7966   4.353  10.726   0.693  1.8660  1.4513 -0.4524
  800MOL0     H 7967   4.403  10.744   0.520 -0.6210  2.8050 -0.2338
  800MOL0     H 7968   4.156  10.766   0.469 -3.1643 -0.8254  1.8074
  800MOL0     H 7969   4.120  10.774   0.639 -1.0600 -1.2182 -1.1008
  800MOL0     H 7970   4.159  11.000   0.505 -1.4246 -3.1038 -0.8444
  800MOL0     H 7971   4.328  10.959   0.486  0.1164 -0.6286 -1.4828
  800MOL0     H 7972   4.197  10.991   0.756 -0.2983 -2.0354  0.9746
  800MOL0     H 7973   4.358  10.936   0.736  1.3653  2.6667  0.9840
  800MOL0     H 7974   4.429  11.134   0.623  2.3271 -1.9199  1.5074
  800MOL0     H 7975   4.362  11.145   0.788  0.2554  0.2121 -0.8764
  800MOL0     H 7976   4.202  11.223   0.535 -0.4551 -1.8490  1.2931
  800MOL0     H 7977   4.136  11.243   0.694 -0.2248  1.4282  0.0162
  800MOL0     H 7978   4.392  11.387   0.616  1.0284 -2.9824  0.2516
  800MOL0     H 7979   4.282  11.413   0.751 -0.4749  0.9625  0.3071
  800MOL0     H 7980   4.236  11.596   0.574  0.7044  0.3358 -0.0225
  800MOL0     H 7981   4.108  11.475   0.550  0.4514  1.5111  1.5109
  800MOL0     H 7982   4.249  10.344   0.585  0.7430 -1.1168  0.8930
  800MOL0     H 7983   4.426  10.141   0.605  0.7649 -1.0439 -0.7640
  800MOL0     H 7984   4.955  10.146   0.656  3.7168 -0.8561  1.4822
  800MOL0     H 7985   5.132  10.010   0.749  1.4664 -1.4130 -0.5772
  800MOL0     H 7986   5.993  10.749   0.375  0.6575 -0.0307 -1.1433
  800MOL0     H 7987   5.985  10.948   0.278  2.4468 -1.7951  0.1861
  800MOL0     H 7988   5.788  11.528   0.528 -0.0314  2.8511  0.9874
  800MOL0     H 7989   5.785  11.743   0.419 -0.5954 -0.3551  1.2495
  800MOL0     H 7990   6.165  11.818   0.152 -0.8778  0.6417  1.1615
  800MOL0     H 7991   6.039  11.818   0.034  1.6484 -2.2854  0.4444
  800MOL0     H 7992   6.095  12.036   0.243  3.6573 -2.1767 -0.5067
  800MOL0     H 7993   5.979  12.065   0.108 -1.8160 -0.0893  1.1374
  800MOL0     H 7994   6.186  12.179   0.089 -1.3592 -1.1125  0.8528
  800MOL0     H 7995   6.177  12.078  -0.056  0.9755  1.4145  0.2485
  800MOL0     H 7996   6.333  11.989   0.188  0.0606 -1.3364 -1.2902
  800MOL0     H 7997   6.422  12.078   0.070  2.2643 -2.7232  0.5447
  800MOL0     H 7998   6.439  11.699  -0.075  1.1401 -1.0719  2.9452
  800MOL0     H 7999   6.120  11.605   0.177  0.5223  0.3283  0.8523
  800MOL0     H 8000   6.094  11.384   0.278 -2.5956  0.1549 -3.4454
  801MOL0     O 8001   3.233   7.937  11.369 -0.4238 -0.4034  0.3224
  801MOL0     C 8002   3.118   7.979  11.391  0.1591 -1.0246 -0.8680
  801MOL0     O 8003   3.095   8.095  11.460 -0.0881 -0.4189  0.5422
  801MOL0     C 8004   3.163   8.212  11.452  0.5984 -0.1499  0.1942
  801MOL0     C 8005   3.247   8.241  11.344  0.7688 -0.2784 -0.0133
  801MOL0     C 8006   3.319   8.358  11.334  0.6908  1.2619  0.8637
  801MOL0     C 8007   3.313   8.459  11.433 -0.7891 -0.1840 -0.4266
  801MOL0     O 8008   3.390   8.574  11.432  0.1872 -0.2016  0.1058
  801MOL0     C 8009   3.445   8.617  11.557 -0.4797  0.0324  1.1028
  801MOL0     C 8010   3.355   8.723  11.628  0.1186 -0.9189  0.3755
  801MOL0     C 8011   3.375   8.866  11.571 -0.2440 -1.0588  0.4242
  801MOL0     C 8012   3.267   8.957  11.621 -0.7280 -0.2324  0.0867
  801MOL0     C 8013   3.317   9.094  11.581 -0.3173 -0.3730  0.4401
  801MOL0     C 8014   3.199   9.189  11.573  0.3166  0.3843 -0.2827
  801MOL0     C 8015   3.225   9.314  11.490  0.2543 -0.1673 -0.1720
  801MOL0     C 8016   3.311   9.414  11.561  0.6043  0.2404  0.5692
  801MOL0     N 8017   3.300   9.539  11.483  0.1815  0.4722  0.2987
  801MOL0     C 8018   3.354   9.541  11.354 -1.2831 -0.9709  0.3738
  801MOL0     C 8019   3.331   9.668  11.320 -0.4690  0.5246  0.0523
  801MOL0     C 8020   3.342   9.732  11.180 -0.5415  0.3543  0.1676
  801MOL0     C 8021   3.209   9.805  11.126 -0.6974 -0.3084 -0.0777
  801MOL0     C 8022   3.244   9.852  10.993  0.0065 -0.6529 -1.2029
  801MOL0     C 8023   3.181   9.991  10.955 -0.7510 -0.0937 -0.1676
  801MOL0     O 8024   3.267  10.048  10.852 -0.1902  0.5052  0.8020
  801MOL0     C 8025   3.211  10.120  10.750  0.4908  0.3188  0.1538
  801MOL0     C 8026   3.272  10.136  10.618  0.1613  0.7505 -0.5267
  801MOL0     C 8027   3.199  10.193  10.508  0.0377 -0.1229  0.0342
  801MOL0     C 8028   3.259  10.195  10.373 -0.6762  1.2123  0.7284
  801MOL0     C 8029   3.073  10.256  10.535 -0.0004  0.0934  0.2190
  801MOL0     C 8030   2.984  10.300  10.431 -0.1710 -0.0843 -0.5264
  801MOL0     O 8031   2.893  10.390  10.472 -0.4704  0.5051  0.3799
  801MOL0     C 8032   2.787  10.418  10.389  0.2415 -1.1606 -0.5466
  801MOL0     C 8033   2.765  10.558  10.403 -0.2819 -1.0270 -0.0312
  801MOL0     C 8034   2.661  10.620  10.313 -0.3538  0.8638  0.3138
  801MOL0     C 8035   2.597  10.550  10.220 -0.4989  0.3429  0.8034
  801MOL0     O 8036   2.516  10.623  10.139  0.4009  0.0164 -0.2542
  801MOL0     C 8037   2.387  10.616  10.191 -0.2576  0.2235  0.3301
  801MOL0     C 8038   2.294  10.611  10.076  0.5432  0.2919  0.3988
  801MOL0     C 8039   2.258  10.744  10.006 -0.0506 -0.1154 -0.2921
  801MOL0     C 8040   2.202  10.713   9.868 -0.5266  0.5770 -0.5896
  801MOL0     C 8041   2.166  10.833   9.772 -0.5531  0.1122  0.0254
  801MOL0     C 8042   2.099  10.947   9.852  0.2075 -0.1547  0.7446
  801MOL0     C 8043   2.039  11.043   9.754  0.1103 -0.5460  0.9055
  801MOL0     C 8044   1.895  11.101   9.797  0.0261 -0.2205 -0.1820
  801MOL0    Cl 8045   1.773  10.972   9.755  0.5077  0.3210  0.2757
  801MOL0     C 8046   2.645  10.416  10.192 -0.1255  0.4214 -0.3713
  801MOL0     C 8047   2.717  10.346  10.290 -0.0138 -0.6066  0.5692
  801MOL0     O 8048   2.992  10.258  10.316 -0.0887  0.0051 -0.5205
  801MOL0     C 8049   3.030  10.264  10.670 -0.5592 -0.2109  0.8874
  801MOL0     C 8050   3.099  10.194  10.772 -0.5617 -0.6111 -0.1332
  801MOL0     N 8051   3.274   9.735  11.423 -0.2999  0.1993  0.3395
  801MOL0     N 8052   3.251   9.653  11.513  0.5000 -0.4798 -0.0908
  801MOL0     C 8053   3.212   8.443  11.535 -0.0397 -0.0394 -0.4066
  801MOL0     C 8054   3.144   8.322  11.544 -0.0335  0.0017  0.6316
  801MOL0     C 8055   2.997   7.899  11.352 -0.3344 -0.4493  0.0269
  801MOL0     C 8056   2.877   7.959  11.316  0.5610 -0.4351 -0.1808
  801MOL0     C 8057   2.770   7.878  11.275  0.0298  0.0152  1.2727
  801MOL0     C 8058   2.773   7.743  11.281 -0.0278 -0.5279  0.4234
  801MOL0     O 8059   2.649   7.690  11.242 -0.0366  0.6430  0.0328
  801MOL0     C 8060   2.630   7.557  11.206  0.1164  0.3543  0.3907
  801MOL0     C 8061   2.725   7.520  11.090  0.2083  0.3096  1.0238
  801MOL0     C 8062   2.684   7.402  11.008  1.4280  0.1701 -0.1410
  801MOL0     C 8063   2.670   7.275  11.087  0.4850 -0.0852 -0.3535
  801MOL0     C 8064   2.684   7.151  11.021 -1.3787 -0.3502 -0.7473
  801MOL0     C 8065   2.675   7.053  10.958 -0.1927  1.0044 -0.3431
  801MOL0     C 8066   2.884   7.677  11.317  0.2501 -0.1904 -0.4665
  801MOL0     C 8067   2.998   7.756  11.355  0.2592  0.4077  0.4506
  801MOL0     H 8068   3.273   8.163  11.274  2.3913 -1.0203  1.3369
  801MOL0     H 8069   3.385   8.380  11.250 -3.4040  0.0514 -3.0649
  801MOL0     H 8070   3.459   8.537  11.629 -0.3441  3.0783  4.7704
  801MOL0     H 8071   3.550   8.645  11.541 -0.3107 -0.6202  1.0682
  801MOL0     H 8072   3.250   8.707  11.602 -0.2670  1.9725 -0.0925
  801MOL0     H 8073   3.366   8.708  11.736  1.3776 -2.2175  0.1048
  801MOL0     H 8074   3.474   8.903  11.602 -0.9038  2.2643 -1.0241
  801MOL0     H 8075   3.380   8.851  11.463 -0.3348 -2.4054  0.5890
  801MOL0     H 8076   3.175   8.931  11.568 -1.2037 -1.5035  1.4519
  801MOL0     H 8077   3.247   8.966  11.729  3.1741  2.6029  0.7923
  801MOL0     H 8078   3.396   9.133  11.646  0.2813 -0.1746 -0.3869
  801MOL0     H 8079   3.334   9.089  11.473 -0.9694  0.6139  0.2791
  801MOL0     H 8080   3.119   9.136  11.521 -1.4397 -0.3558  2.9220
  801MOL0     H 8081   3.163   9.215  11.673 -1.3279  2.6869 -1.3676
  801MOL0     H 8082   3.266   9.286  11.392 -1.5706 -2.9296 -0.2345
  801MOL0     H 8083   3.125   9.356  11.475 -0.7783 -1.8261  1.6677
  801MOL0     H 8084   3.413   9.387  11.590  1.0897  1.8539  0.4677
  801MOL0     H 8085   3.266   9.417  11.661  1.8316  2.1484  1.1094
  801MOL0     H 8086   3.385   9.474  11.275 -1.6937 -0.6479 -0.0650
  801MOL0     H 8087   3.429   9.798  11.177  0.2829 -0.7093  0.4064
  801MOL0     H 8088   3.370   9.651  11.112  2.3120 -1.2892  3.0079
  801MOL0     H 8089   3.169   9.883  11.191  1.0654 -1.7942  3.0149
  801MOL0     H 8090   3.121   9.740  11.124 -1.1632  0.3069  0.2430
  801MOL0     H 8091   3.221   9.767  10.928 -0.5621 -2.5688  1.3530
  801MOL0     H 8092   3.352   9.869  10.991 -0.2721  2.4289  1.3598
  801MOL0     H 8093   3.177  10.064  11.036 -1.1820 -2.6015  2.2215
  801MOL0     H 8094   3.079   9.975  10.919 -0.9247 -1.0493  0.7181
  801MOL0     H 8095   3.359  10.075  10.598 -1.9970 -2.1801 -1.6989
  801MOL0     H 8096   3.223  10.107  10.320 -1.3121  1.4827  0.7023
  801MOL0     H 8097   3.233  10.293  10.331 -0.6138  1.4924  1.3276
  801MOL0     H 8098   3.367  10.189  10.390 -0.9171 -1.0832  1.8287
  801MOL0     H 8099   2.805  10.617  10.484 -1.9860  0.5575 -0.2802
  801MOL0     H 8100   2.631  10.723  10.327 -4.6889 -0.1804  0.3096
  801MOL0     H 8101   2.375  10.530  10.258  0.2979  1.7661  2.5026
  801MOL0     H 8102   2.370  10.703  10.254 -1.4019  1.3798 -1.4721
  801MOL0     H 8103   2.340  10.538  10.009  3.6325  0.3597  2.2312
  801MOL0     H 8104   2.204  10.567  10.121  0.9875 -0.5735  0.4764
  801MOL0     H 8105   2.341  10.814   9.991  0.4204 -0.0265  2.2256
  801MOL0     H 8106   2.198  10.807  10.072  2.1875  0.8550  0.9139
  801MOL0     H 8107   2.272  10.645   9.817 -0.5584 -0.5602  0.8115
  801MOL0     H 8108   2.108  10.658   9.878 -0.4870  0.8306  1.6363
  801MOL0     H 8109   2.100  10.798   9.691 -0.2464  1.5373 -0.8824
  801MOL0     H 8110   2.247  10.887   9.722 -3.0110  0.1594 -4.4919
  801MOL0     H 8111   2.019  10.914   9.918  2.4434 -0.0122  3.7303
  801MOL0     H 8112   2.177  10.998   9.908  2.7465 -3.2970  0.3878
  801MOL0     H 8113   2.036  11.015   9.648 -2.3493  0.8703  0.5427
  801MOL0     H 8114   2.108  11.127   9.758  0.8047 -1.0827  0.4149
  801MOL0     H 8115   1.871  11.194   9.745  0.1632 -0.4686 -0.6960
  801MOL0     H 8116   1.897  11.130   9.902 -2.2837 -0.8328  0.0686
  801MOL0     H 8117   2.629  10.376  10.092  1.0811  0.3749 -0.5580
  801MOL0     H 8118   2.741  10.248  10.249 -2.3458 -1.4587  1.0849
  801MOL0     H 8119   2.931  10.301  10.695 -1.7720 -3.3175  1.2045
  801MOL0     H 8120   3.059  10.211  10.871  1.0367 -2.8918  0.9883
  801MOL0     H 8121   3.212   8.520  11.611 -0.0249  1.8124 -2.1965
  801MOL0     H 8122   3.079   8.298  11.629 -2.9566 -0.1428 -1.4841
  801MOL0     H 8123   2.871   8.064  11.291  2.1446 -0.0700  0.8532
  801MOL0     H 8124   2.691   7.930  11.223 -0.2108 -0.5843  1.0237
  801MOL0     H 8125   2.647   7.488  11.289  1.0026 -0.3790 -0.3812
  801MOL0     H 8126   2.525   7.537  11.185  0.5955  0.4898 -2.5456
  801MOL0     H 8127   2.826   7.500  11.127  0.2541 -0.6762  0.3838
  801MOL0     H 8128   2.722   7.609  11.026  2.0308 -0.2235  0.1434
  801MOL0     H 8129   2.757   7.389  10.928  1.8973 -1.4639  0.5163
  801MOL0     H 8130   2.588   7.424  10.960 -0.6017  1.6471  4.1151
  801MOL0     H 8131   2.572   7.255  11.131 -0.1930 -2.5944 -2.7691
  801MOL0     H 8132   2.739   7.288  11.171  0.4089  3.2678 -0.6599
  801MOL0     H 8133   2.675   6.967  10.895 -2.0206  1.2433 -0.7137
  801MOL0     H 8134   2.899   7.569  11.318 -1.1807 -0.4065 -0.7455
  801MOL0     H 8135   3.086   7.697  11.378  0.1950  0.6034  1.2365
  802MOL0     O 8136   6.453  11.047   6.655 -0.4552 -0.1698  0.8875
  802MOL0     C 8137   6.369  11.142   6.632 -0.8244 -0.6655 -0.0422
  802MOL0     O 8138   6.381  11.273   6.676 -0.1944 -0.1038 -0.4167
  802MOL0     C 8139   6.508  11.319   6.707 -0.5128  0.4111 -0.1327
  802MOL0     C 8140   6.634  11.298   6.641  0.3682  0.0819 -0.4869
  802MOL0     C 8141   6.753  11.361   6.686 -0.8639  0.3179  0.5237
  802MOL0     C 8142   6.748  11.454   6.785 -0.4409 -1.1219 -0.3182
  802MOL0     O 8143   6.861  11.515   6.848  0.4213  0.2908 -0.2309
  802MOL0     C 8144   6.931  11.592   6.751  1.0215  0.4946  0.4920
  802MOL0     C 8145   7.055  11.660   6.824 -1.0196  0.0831  0.2963
  802MOL0     C 8146   7.175  11.574   6.865  0.9996  0.4315 -0.5379
  802MOL0     C 8147   7.236  11.488   6.757 -0.3020 -0.4206  0.0255
  802MOL0     C 8148   7.366  11.420   6.811  0.2435  0.4561 -0.9549
  802MOL0     C 8149   7.331  11.333   6.925 -0.1401 -0.3369  0.0069
  802MOL0     C 8150   7.436  11.238   6.959 -0.5926  0.3013  0.1800
  802MOL0     C 8151   7.409  11.185   7.100  0.5225 -0.0740  0.7302
  802MOL0     N 8152   7.516  11.089   7.123 -0.0887 -0.3982  0.7588
  802MOL0     C 8153   7.547  11.036   7.246  0.8077  0.1142 -0.1124
  802MOL0     C 8154   7.643  10.947   7.230  0.6698  0.6044  0.1879
  802MOL0     C 8155   7.689  10.870   7.344  0.4380  0.6675  0.1891
  802MOL0     C 8156   7.584  10.759   7.386 -0.3517  0.1061 -1.2302
  802MOL0     C 8157   7.560  10.648   7.294  0.6054  0.3245  0.4531
  802MOL0     C 8158   7.466  10.542   7.349  0.0779  0.3391  0.5309
  802MOL0     O 8159   7.337  10.599   7.379 -0.4747  0.6180  0.0763
  802MOL0     C 8160   7.254  10.516   7.453  0.2677  0.1002 -0.8284
  802MOL0     C 8161   7.179  10.568   7.562 -0.0991 -0.6480 -0.6180
  802MOL0     C 8162   7.096  10.487   7.647 -0.5613 -0.2544 -0.0330
  802MOL0     C 8163   7.020  10.552   7.761 -0.3229 -0.5079  0.0874
  802MOL0     C 8164   7.081  10.352   7.617 -0.0028  1.1957 -0.5635
  802MOL0     C 8165   6.967  10.267   7.678  0.0445  0.5577 -1.3941
  802MOL0     O 8166   7.011  10.140   7.708  0.2166  0.1117  0.2718
  802MOL0     C 8167   6.918  10.055   7.764  1.3801  0.5829  0.0806
  802MOL0     C 8168   6.938  10.011   7.890  0.1829 -0.7462 -0.7534
  802MOL0     C 8169   6.882   9.891   7.945 -0.7190  0.0404 -0.8718
  802MOL0     C 8170   6.793   9.813   7.873 -0.0150  0.1720 -0.1209
  802MOL0     O 8171   6.731   9.706   7.941  0.8451 -1.0450 -0.0745
  802MOL0     C 8172   6.648   9.617   7.864  0.1834  0.5042 -0.5347
  802MOL0     C 8173   6.619   9.484   7.939 -0.5796  0.7044 -0.3241
  802MOL0     C 8174   6.748   9.394   7.971 -0.5322 -0.4350 -0.1819
  802MOL0     C 8175   6.816   9.330   7.848 -0.0581 -0.5143 -0.1199
  802MOL0     C 8176   6.912   9.230   7.893  0.4204  1.2081 -0.5510
  802MOL0     C 8177   6.984   9.160   7.775 -0.2539  0.1235  1.4431
  802MOL0     C 8178   7.101   9.082   7.834  0.2511 -0.1155  0.6094
  802MOL0     C 8179   7.199   9.026   7.732 -0.5268 -0.4135 -0.2598
  802MOL0    Cl 8180   7.370   9.029   7.812 -0.7144  0.1948 -0.1146
  802MOL0     C 8181   6.750   9.873   7.753  0.4389 -0.0406 -0.2504
  802MOL0     C 8182   6.815   9.984   7.691 -0.5442  0.2040  0.5351
  802MOL0     O 8183   6.858  10.314   7.710  0.4394  0.0108 -0.9868
  802MOL0     C 8184   7.172  10.297   7.514  0.4563  1.0255  0.6234
  802MOL0     C 8185   7.243  10.378   7.428 -0.8694 -0.0068 -0.2941
  802MOL0     N 8186   7.690  10.955   7.106 -0.7927 -0.0264 -0.7954
  802MOL0     N 8187   7.610  11.026   7.044  0.6294  0.2450  0.2282
  802MOL0     C 8188   6.625  11.482   6.844  0.2808  0.4295 -0.4954
  802MOL0     C 8189   6.508  11.422   6.803  0.3594 -0.0072  0.3008
  802MOL0     C 8190   6.247  11.106   6.564  0.6747 -0.4941 -0.3108
  802MOL0     C 8191   6.220  10.986   6.508 -0.0018 -0.1165  0.1906
  802MOL0     C 8192   6.108  10.964   6.430  0.9947 -0.0755 -0.2323
  802MOL0     C 8193   6.001  11.059   6.420 -0.2444  0.0444 -0.2853
  802MOL0     O 8194   5.897  11.019   6.342  0.4444 -0.2923  0.3918
  802MOL0     C 8195   5.775  11.097   6.363 -0.3054  0.6357 -1.0264
  802MOL0     C 8196   5.659  11.045   6.287  1.2799  0.2199 -0.0317
  802MOL0     C 8197   5.676  11.058   6.131  0.7595 -0.4747 -0.2511
  802MOL0     C 8198   5.576  10.966   6.064 -0.2299  0.6263 -0.0257
  802MOL0     C 8199   5.623  10.936   5.925 -1.9643  0.5440 -1.1440
  802MOL0     C 8200   5.648  10.879   5.821  0.6567 -0.1063  0.1138
  802MOL0     C 8201   6.014  11.180   6.492 -0.7103 -0.1831 -0.4121
  802MOL0     C 8202   6.136  11.201   6.562  0.2378 -0.2011  0.4863
  802MOL0     H 8203   6.642  11.214   6.573  4.1424  0.6328 -0.8993
  802MOL0     H 8204   6.842  11.318   6.641 -3.0977 -0.3392 -3.8989
  802MOL0     H 8205   6.959  11.535   6.662 -3.6401  0.9725 -1.5855
  802MOL0     H 8206   6.858  11.663   6.711  1.0086 -0.3863 -1.1005
  802MOL0     H 8207   7.089  11.724   6.742 -1.1630  1.5166  1.3362
  802MOL0     H 8208   7.025  11.712   6.915  0.2802 -1.5589  1.7427
  802MOL0     H 8209   7.249  11.639   6.913  1.7188 -0.1877 -0.7891
  802MOL0     H 8210   7.146  11.511   6.950 -0.8003  3.2466  1.1185
  802MOL0     H 8211   7.172  11.419   6.701  0.0847 -0.7507 -0.0120
  802MOL0     H 8212   7.280  11.559   6.685  2.2586 -0.1629  1.7100
  802MOL0     H 8213   7.414  11.364   6.730  2.5592  0.3512  0.4247
  802MOL0     H 8214   7.440  11.496   6.833  0.6143  1.0011 -3.7018
  802MOL0     H 8215   7.326  11.407   7.005  1.4963  1.1133 -1.1538
  802MOL0     H 8216   7.234  11.284   6.914 -2.0652  3.2950 -0.7935
  802MOL0     H 8217   7.418  11.156   6.889 -3.0132  0.3384  0.6887
  802MOL0     H 8218   7.538  11.277   6.951  0.0533 -1.6140 -2.6070
  802MOL0     H 8219   7.315  11.129   7.105  0.2878 -0.1046 -2.2219
  802MOL0     H 8220   7.422  11.264   7.175 -0.6239  0.6852  0.1576
  802MOL0     H 8221   7.486  11.047   7.335 -1.5287  2.6814 -1.8548
  802MOL0     H 8222   7.784  10.819   7.322  0.4109  1.3238 -1.6345
  802MOL0     H 8223   7.701  10.935   7.431  0.9936 -0.7864  1.2543
  802MOL0     H 8224   7.491  10.815   7.401  2.1501  4.7100 -1.0446
  802MOL0     H 8225   7.611  10.727   7.488  1.1447 -1.3482 -2.0343
  802MOL0     H 8226   7.650  10.594   7.261 -1.2603 -2.3910 -0.5459
  802MOL0     H 8227   7.525  10.687   7.198 -0.4770 -1.8993 -0.1414
  802MOL0     H 8228   7.493  10.486   7.439  2.0574  0.0630 -0.1823
  802MOL0     H 8229   7.449  10.456   7.284  0.5551 -1.5434  2.7844
  802MOL0     H 8230   7.187  10.676   7.572  3.4689 -0.8888  0.6680
  802MOL0     H 8231   6.984  10.481   7.836  0.6631  0.0905  1.1584
  802MOL0     H 8232   7.093  10.624   7.799 -2.2386  2.2876 -1.2028
  802MOL0     H 8233   6.935  10.609   7.723  1.8818  3.3295  0.3957
  802MOL0     H 8234   7.010  10.074   7.941  0.6677 -1.7889 -0.1236
  802MOL0     H 8235   6.909   9.853   8.043  1.1370 -2.3168 -2.1820
  802MOL0     H 8236   6.558   9.671   7.834 -0.8105 -0.4255  0.6197
  802MOL0     H 8237   6.696   9.591   7.769  1.0710  1.0586 -0.2444
  802MOL0     H 8238   6.584   9.510   8.040  2.0156  2.2233  0.2904
  802MOL0     H 8239   6.548   9.422   7.885  0.5207 -1.6716  0.8144
  802MOL0     H 8240   6.718   9.308   8.031 -0.3700 -0.1797  0.2669
  802MOL0     H 8241   6.811   9.452   8.039 -3.2548  2.7280 -0.0987
  802MOL0     H 8242   6.741   9.282   7.785  0.0197  0.9743 -1.4062
  802MOL0     H 8243   6.872   9.401   7.786  2.0431 -2.6498 -0.8275
  802MOL0     H 8244   6.850   9.153   7.941 -0.5684  2.5788  0.4801
  802MOL0     H 8245   6.978   9.291   7.956  1.2484  1.2644 -1.4576
  802MOL0     H 8246   6.925   9.094   7.711  1.6695  1.2755 -1.7112
  802MOL0     H 8247   7.019   9.234   7.703  1.7279  0.2972  2.5247
  802MOL0     H 8248   7.075   8.999   7.901  1.6832 -0.0189  1.3397
  802MOL0     H 8249   7.154   9.153   7.898  2.3250 -0.9146 -0.1285
  802MOL0     H 8250   7.195   9.085   7.640 -0.2846  1.4114  0.8421
  802MOL0     H 8251   7.159   8.926   7.713 -0.5676 -0.1233 -1.7998
  802MOL0     H 8252   6.671   9.829   7.692  0.1859 -0.8572  0.6397
  802MOL0     H 8253   6.801  10.034   7.596  0.0045  2.2748  1.5052
  802MOL0     H 8254   7.155  10.193   7.489  2.7652  1.0297 -1.3110
  802MOL0     H 8255   7.272  10.340   7.331 -1.0055 -0.2199 -0.2524
  802MOL0     H 8256   6.629  11.534   6.939  0.3462 -3.7610  2.0558
  802MOL0     H 8257   6.415  11.449   6.852 -0.9824  0.1671 -2.1475
  802MOL0     H 8258   6.297  10.910   6.514  2.2288  2.0152  0.3188
  802MOL0     H 8259   6.101  10.875   6.369 -0.0837  0.3059 -0.6891
  802MOL0     H 8260   5.745  11.108   6.468  1.1810  1.1944 -0.6223
  802MOL0     H 8261   5.787  11.198   6.323 -0.6484  2.8121  3.6328
  802MOL0     H 8262   5.568  11.097   6.316 -0.0347 -0.9777 -1.8206
  802MOL0     H 8263   5.646  10.939   6.310  1.0155  0.4936  1.1808
  802MOL0     H 8264   5.779  11.032   6.105  0.8801  0.4538 -0.7614
  802MOL0     H 8265   5.653  11.158   6.092  0.5439 -0.3250  0.2537
  802MOL0     H 8266   5.479  11.017   6.057  0.6404  2.3070 -0.5799
  802MOL0     H 8267   5.565  10.876   6.125  0.5669  0.6120  0.1152
  802MOL0     H 8268   5.651  10.816   5.735 -2.4257  2.1792 -1.9172
  802MOL0     H 8269   5.941  11.259   6.480 -0.5132 -0.0098 -0.4771
  802MOL0     H 8270   6.141  11.297   6.612 -2.3105 -0.8506  2.1783
  803MOL0     O 8271   1.446   2.914   0.168  0.0901 -0.4226 -0.0342
  803MOL0     C 8272   1.558   2.882   0.140  0.3247  0.0172  0.3724
  803MOL0     O 8273   1.614   2.756   0.152  0.4646  0.0084 -0.2582
  803MOL0     C 8274   1.546   2.647   0.207 -0.2390  0.6880 -0.1092
  803MOL0     C 8275   1.524   2.620   0.338 -0.1352 -0.1096 -0.0524
  803MOL0     C 8276   1.472   2.497   0.392  0.6305 -0.7945 -0.7955
  803MOL0     C 8277   1.430   2.399   0.295 -0.0241 -0.6676  0.3107
  803MOL0     O 8278   1.375   2.287   0.325  0.1563 -0.3650 -0.2652
  803MOL0     C 8279   1.287   2.281   0.442 -0.1455  0.0634  0.2656
  803MOL0     C 8280   1.251   2.144   0.485  0.7733 -0.1195 -0.7656
  803MOL0     C 8281   1.191   2.145   0.631 -0.7129 -1.3017 -0.0152
  803MOL0     C 8282   1.117   2.016   0.679  0.9027  0.1708  0.3138
  803MOL0     C 8283   0.965   2.006   0.678  0.6126  0.5143  0.0510
  803MOL0     C 8284   0.900   2.095   0.795 -0.1362  0.4179 -0.3845
  803MOL0     C 8285   0.749   2.097   0.798 -0.3562 -1.2890  0.9480
  803MOL0     C 8286   0.702   2.175   0.926 -0.3507 -0.3023 -0.4609
  803MOL0     N 8287   0.712   2.327   0.917  0.7421 -0.9644  0.4067
  803MOL0     C 8288   0.676   2.403   0.802  0.7691  0.5187 -0.2317
  803MOL0     C 8289   0.618   2.508   0.852  0.8352 -0.5265  0.1326
  803MOL0     C 8290   0.555   2.613   0.775  0.2977  0.2657 -0.1145
  803MOL0     C 8291   0.662   2.707   0.716  0.1523 -0.1298 -0.7376
  803MOL0     C 8292   0.602   2.811   0.615 -0.5052  0.2863 -0.7924
  803MOL0     C 8293   0.689   2.933   0.579 -0.8981 -0.4758 -0.1018
  803MOL0     O 8294   0.777   2.902   0.473  0.2133  0.3941  0.0750
  803MOL0     C 8295   0.753   2.952   0.351  0.3890  0.3354 -1.0906
  803MOL0     C 8296   0.826   3.055   0.299  0.2501  0.1303  0.3492
  803MOL0     C 8297   0.798   3.104   0.166 -0.7896  0.0338  0.3022
  803MOL0     C 8298   0.902   3.203   0.115 -0.9871  0.3532  0.0582
  803MOL0     C 8299   0.702   3.042   0.084 -0.4723  0.6092 -0.2948
  803MOL0     C 8300   0.672   3.076  -0.055 -0.2090 -0.0550 -0.3888
  803MOL0     O 8301   0.626   2.977  -0.128 -0.3293  0.4627  1.4616
  803MOL0     C 8302   0.570   2.997  -0.261 -0.1212  0.6893 -0.7967
  803MOL0     C 8303   0.587   2.893  -0.348 -0.2323 -0.5728  0.0142
  803MOL0     C 8304   0.537   2.914  -0.486 -0.3497 -1.8478 -0.6871
  803MOL0     C 8305   0.463   3.028  -0.518 -0.0354 -0.2874 -0.1829
  803MOL0     O 8306   0.408   3.047  -0.645 -0.0237  0.2603 -0.8981
  803MOL0     C 8307   0.464   3.165  -0.704  0.5238  0.6167  0.6749
  803MOL0     C 8308   0.349   3.262  -0.739 -0.4732 -0.3775 -0.9074
  803MOL0     C 8309   0.315   3.276  -0.889  0.0163 -0.4127 -0.3826
  803MOL0     C 8310   0.206   3.384  -0.930 -0.0384 -0.4206 -1.2441
  803MOL0     C 8311   0.085   3.392  -0.844  0.0295  0.5080 -1.0695
  803MOL0     C 8312  -0.013   3.263  -0.845 -0.1515 -0.7678 -0.5255
  803MOL0     C 8313  -0.154   3.305  -0.808 -0.2426 -0.7808 -0.1956
  803MOL0     C 8314  -0.252   3.183  -0.808  1.3410  0.9089 -0.8337
  803MOL0    Cl 8315  -0.424   3.242  -0.791  0.3473  0.0169  0.1731
  803MOL0     C 8316   0.441   3.120  -0.417  0.2381  0.5012  0.2309
  803MOL0     C 8317   0.494   3.112  -0.295 -0.5844  0.4597 -0.2131
  803MOL0     O 8318   0.703   3.192  -0.096 -0.7025  0.1442 -0.3171
  803MOL0     C 8319   0.628   2.933   0.138 -1.0409  0.7240  0.2837
  803MOL0     C 8320   0.654   2.890   0.265 -0.4884 -0.8008 -0.6833
  803MOL0     N 8321   0.644   2.518   0.986 -0.5707 -0.7198  0.2433
  803MOL0     N 8322   0.691   2.407   1.024 -0.8553  1.6845 -0.4618
  803MOL0     C 8323   1.463   2.428   0.162  0.7292 -0.5407  0.0186
  803MOL0     C 8324   1.522   2.540   0.120  0.4915  0.8878 -0.1596
  803MOL0     C 8325   1.641   2.986   0.059  0.0912  0.3984 -0.6580
  803MOL0     C 8326   1.748   2.943  -0.018  0.6599 -0.7791 -0.2413
  803MOL0     C 8327   1.811   3.029  -0.113  0.3819  0.3510 -0.4658
  803MOL0     C 8328   1.783   3.163  -0.113 -0.3557 -0.4749 -0.0500
  803MOL0     O 8329   1.841   3.248  -0.206 -0.8356  0.3799 -0.7263
  803MOL0     C 8330   1.986   3.252  -0.208 -0.4877 -0.8641 -0.1143
  803MOL0     C 8331   2.024   3.396  -0.253  0.2176  0.5900 -0.0847
  803MOL0     C 8332   2.179   3.395  -0.244  0.0744  0.2586 -0.0785
  803MOL0     C 8333   2.254   3.518  -0.185  0.2819 -1.4575 -0.8956
  803MOL0     C 8334   2.402   3.503  -0.172 -0.4994 -0.3367  0.0654
  803MOL0     C 8335   2.520   3.503  -0.147 -0.2612  0.7458  1.2774
  803MOL0     C 8336   1.674   3.212  -0.033 -0.5774  0.9583 -0.2514
  803MOL0     C 8337   1.598   3.122   0.041  0.4760  0.3606 -0.8348
  803MOL0     H 8338   1.521   2.696   0.415 -1.9004  3.1172 -3.0137
  803MOL0     H 8339   1.470   2.498   0.501  2.9284  1.9488 -0.6536
  803MOL0     H 8340   1.339   2.330   0.525  2.3458  3.0512 -2.8185
  803MOL0     H 8341   1.199   2.344   0.425 -1.1320 -1.9745 -3.1186
  803MOL0     H 8342   1.173   2.102   0.420  1.0007  0.4776 -1.4325
  803MOL0     H 8343   1.347   2.093   0.481  0.9748 -0.0405  1.6371
  803MOL0     H 8344   1.280   2.164   0.691 -0.0893 -1.1068 -0.9837
  803MOL0     H 8345   1.124   2.230   0.647 -0.5601 -1.0827 -0.5372
  803MOL0     H 8346   1.161   1.930   0.627  3.2276  2.2738 -1.4776
  803MOL0     H 8347   1.151   2.013   0.782 -0.3449 -2.7911  0.7310
  803MOL0     H 8348   0.919   2.025   0.581  1.7905 -0.1362 -0.6462
  803MOL0     H 8349   0.941   1.901   0.697  0.0530  0.8928  1.5859
  803MOL0     H 8350   0.946   2.065   0.889 -0.0021 -2.3263 -1.2255
  803MOL0     H 8351   0.934   2.199   0.789 -0.3504  0.4589 -1.0313
  803MOL0     H 8352   0.721   2.158   0.712 -1.6332  0.6994  2.6646
  803MOL0     H 8353   0.695   2.002   0.789 -3.7274  0.5077  0.6382
  803MOL0     H 8354   0.753   2.135   1.014 -0.0915  1.3800  0.1905
  803MOL0     H 8355   0.594   2.163   0.932 -0.2052 -2.7528 -1.3524
  803MOL0     H 8356   0.668   2.382   0.696 -3.4610 -0.0588  0.0349
  803MOL0     H 8357   0.481   2.580   0.702 -1.3827  1.7653  0.8428
  803MOL0     H 8358   0.515   2.682   0.850  3.7510  2.0502  0.2893
  803MOL0     H 8359   0.748   2.657   0.670  1.3842  0.5775  0.6978
  803MOL0     H 8360   0.705   2.761   0.801 -3.9589 -1.0308  2.2105
  803MOL0     H 8361   0.515   2.857   0.663  0.8467  1.2523  0.8605
  803MOL0     H 8362   0.571   2.766   0.521 -1.8068  2.7219 -1.6276
  803MOL0     H 8363   0.749   2.967   0.664 -2.1625  1.2838  0.1379
  803MOL0     H 8364   0.627   3.021   0.560 -0.6357  0.1619  1.8111
  803MOL0     H 8365   0.901   3.106   0.358 -0.6555 -0.4272  2.0653
  803MOL0     H 8366   0.934   3.204   0.011  0.2473 -0.2256  0.4153
  803MOL0     H 8367   0.871   3.299   0.159  1.4527  1.2585 -0.0273
  803MOL0     H 8368   0.992   3.172   0.168 -0.5956  0.8781 -0.2929
  803MOL0     H 8369   0.643   2.803  -0.323 -2.6771 -1.6632  2.0068
  803MOL0     H 8370   0.553   2.844  -0.568  0.4905 -1.8407 -0.5366
  803MOL0     H 8371   0.547   3.207  -0.646  2.8484 -2.1889 -0.3637
  803MOL0     H 8372   0.521   3.138  -0.794 -0.9478  1.0340 -0.4183
  803MOL0     H 8373   0.258   3.252  -0.678  1.2835 -0.0029  1.9555
  803MOL0     H 8374   0.399   3.353  -0.707  2.3836 -2.2182  0.2346
  803MOL0     H 8375   0.292   3.174  -0.921  1.2460 -1.2744  1.3913
  803MOL0     H 8376   0.408   3.303  -0.940 -0.3518  0.3921 -0.6624
  803MOL0     H 8377   0.262   3.478  -0.936  0.8571 -0.7210  1.1118
  803MOL0     H 8378   0.166   3.362  -1.029  3.2521  1.0426 -3.0897
  803MOL0     H 8379   0.025   3.478  -0.877 -2.6353  0.9388  3.8932
  803MOL0     H 8380   0.113   3.426  -0.744  1.3091 -1.8053 -0.5753
  803MOL0     H 8381  -0.011   3.210  -0.940 -0.0261 -1.2656 -0.2458
  803MOL0     H 8382   0.015   3.189  -0.771 -2.7279 -2.5588 -1.2071
  803MOL0     H 8383  -0.200   3.373  -0.880  2.3125 -1.6864 -2.8656
  803MOL0     H 8384  -0.146   3.349  -0.708 -1.4704  0.1740 -0.5023
  803MOL0     H 8385  -0.233   3.121  -0.720 -5.5987  0.2683  0.7912
  803MOL0     H 8386  -0.245   3.122  -0.899  1.6998  1.6806 -1.3345
  803MOL0     H 8387   0.374   3.203  -0.438  0.1830  0.7271  1.2455
  803MOL0     H 8388   0.484   3.189  -0.220  1.5058  0.7463 -0.1721
  803MOL0     H 8389   0.555   2.885   0.074 -0.5544 -0.8932  0.9043
  803MOL0     H 8390   0.594   2.807   0.303 -0.9522 -0.9174 -1.6358
  803MOL0     H 8391   1.406   2.361   0.099 -1.1503  1.9208 -1.1013
  803MOL0     H 8392   1.537   2.561   0.014  0.1035  1.0760 -0.1795
  803MOL0     H 8393   1.786   2.841  -0.014  1.5862 -0.4085  0.8110
  803MOL0     H 8394   1.877   2.993  -0.191  1.7668 -0.9052  1.2218
  803MOL0     H 8395   2.023   3.224  -0.109 -1.7094 -4.2133 -0.4556
  803MOL0     H 8396   2.035   3.171  -0.262  2.3326 -0.5908  1.8549
  803MOL0     H 8397   1.981   3.477  -0.193 -0.4233  1.3076 -1.4582
  803MOL0     H 8398   1.986   3.406  -0.355  0.2705 -0.6347 -0.2456
  803MOL0     H 8399   2.217   3.365  -0.342  1.1679 -0.1461  0.4582
  803MOL0     H 8400   2.203   3.309  -0.181 -1.9320 -0.6367 -0.4409
  803MOL0     H 8401   2.232   3.517  -0.078 -0.2166 -2.9222 -0.9960
  803MOL0     H 8402   2.210   3.603  -0.238 -1.1172 -1.0724  0.7953
  803MOL0     H 8403   2.623   3.503  -0.116 -0.5110  0.7814  2.1227
  803MOL0     H 8404   1.656   3.319  -0.033 -0.6788  0.9402 -0.4864
  803MOL0     H 8405   1.512   3.168   0.088  0.4545 -1.7927  1.4496
  804MOL0     O 8406   4.562   1.520   3.006 -0.0988  0.9882  0.3582
  804MOL0     C 8407   4.646   1.447   2.950  0.4589 -0.4702 -0.6078
  804MOL0     O 8408   4.686   1.322   2.990  0.4569  0.2663  0.3356
  804MOL0     C 8409   4.617   1.259   3.093 -0.2153  0.5493 -0.8928
  804MOL0     C 8410   4.687   1.216   3.210 -0.3415 -0.3153  1.5691
  804MOL0     C 8411   4.622   1.144   3.310 -1.7550  0.3711 -0.2130
  804MOL0     C 8412   4.487   1.110   3.307  0.3654 -0.7398  0.4791
  804MOL0     O 8413   4.426   1.043   3.411 -0.2663 -0.3925 -0.1134
  804MOL0     C 8414   4.295   1.088   3.444 -0.0796  0.2536 -0.4979
  804MOL0     C 8415   4.228   0.957   3.450  0.4868  0.0390 -0.4393
  804MOL0     C 8416   4.076   0.967   3.462 -0.3167 -0.2081 -0.0923
  804MOL0     C 8417   4.036   1.053   3.583  0.1905 -0.7419  0.1260
  804MOL0     C 8418   3.882   1.075   3.573 -0.5612 -0.5946 -0.4295
  804MOL0     C 8419   3.816   0.980   3.674 -0.4354  0.4189 -0.7488
  804MOL0     C 8420   3.686   1.031   3.725  0.1326  0.6092  0.0453
  804MOL0     C 8421   3.578   1.063   3.617 -0.4374  0.2696 -0.2638
  804MOL0     N 8422   3.552   0.945   3.538  0.2664  0.6102 -0.0443
  804MOL0     C 8423   3.501   0.825   3.602 -0.0664 -0.4123 -0.1410
  804MOL0     C 8424   3.467   0.749   3.496 -0.9623 -0.2697  0.0735
  804MOL0     C 8425   3.395   0.614   3.506 -0.6502 -0.9928  0.4710
  804MOL0     C 8426   3.503   0.505   3.491 -0.8114  1.4959 -0.0826
  804MOL0     C 8427   3.615   0.509   3.593 -0.8473  0.6105 -0.2755
  804MOL0     C 8428   3.751   0.559   3.543 -1.6163 -0.4858 -0.1567
  804MOL0     O 8429   3.827   0.440   3.530  0.1903  0.6005  0.1078
  804MOL0     C 8430   3.935   0.419   3.608  0.2636 -0.2780  0.2890
  804MOL0     C 8431   4.025   0.328   3.562  0.2707  0.4168  0.6224
  804MOL0     C 8432   4.154   0.316   3.620 -0.0607  0.3741 -0.0872
  804MOL0     C 8433   4.252   0.203   3.573 -0.1031 -0.1549 -0.5177
  804MOL0     C 8434   4.188   0.396   3.725 -0.5439 -0.4882 -0.7736
  804MOL0     C 8435   4.327   0.395   3.790 -0.1458 -0.6552 -0.3655
  804MOL0     O 8436   4.443   0.402   3.714 -0.6536 -0.2892 -0.3609
  804MOL0     C 8437   4.569   0.384   3.763 -0.9254  0.3470  0.8643
  804MOL0     C 8438   4.602   0.294   3.861 -0.8845  0.0721  0.4278
  804MOL0     C 8439   4.736   0.292   3.914  0.2162 -0.1390 -0.0321
  804MOL0     C 8440   4.840   0.373   3.861  1.5143  0.0262 -0.0865
  804MOL0     O 8441   4.957   0.381   3.923 -0.6324 -0.0669 -0.0471
  804MOL0     C 8442   5.039   0.265   3.902  0.3735  1.1981  0.6928
  804MOL0     C 8443   5.169   0.249   3.975 -0.4482  0.5653  0.3219
  804MOL0     C 8444   5.176   0.307   4.104 -0.0138  0.2449 -0.0071
  804MOL0     C 8445   5.308   0.241   4.163  1.1706 -0.6154 -0.1826
  804MOL0     C 8446   5.360   0.312   4.286  0.4547  0.0163  0.4635
  804MOL0     C 8447   5.395   0.462   4.259  0.4679  0.4432 -0.5520
  804MOL0     C 8448   5.488   0.501   4.370  0.0442  0.4989 -0.2334
  804MOL0     C 8449   5.523   0.654   4.382  0.5707 -0.0664  0.2520
  804MOL0    Cl 8450   5.568   0.730   4.219  0.3434  0.0112 -0.2276
  804MOL0     C 8451   4.814   0.462   3.763  0.7550  0.5248 -0.7622
  804MOL0     C 8452   4.680   0.463   3.712 -0.1320 -0.5095  0.3097
  804MOL0     O 8453   4.321   0.386   3.912  0.3856  0.1344 -0.1715
  804MOL0     C 8454   4.093   0.482   3.791  1.0113 -0.0882 -0.6439
  804MOL0     C 8455   3.964   0.490   3.737 -0.6989  0.9342 -0.6366
  804MOL0     N 8456   3.498   0.810   3.373  0.0781 -0.7449 -0.1697
  804MOL0     N 8457   3.549   0.925   3.398 -0.0421  0.0225  0.1170
  804MOL0     C 8458   4.421   1.147   3.195  0.0847  0.4854  0.4324
  804MOL0     C 8459   4.482   1.225   3.087  0.5214  0.4375  0.0899
  804MOL0     C 8460   4.702   1.498   2.825  0.4172 -0.0350  0.6088
  804MOL0     C 8461   4.629   1.576   2.733  0.7406  0.2097  0.3683
  804MOL0     C 8462   4.686   1.617   2.615  0.1062  0.4943  0.0583
  804MOL0     C 8463   4.819   1.591   2.586 -0.4893  0.0292 -0.4936
  804MOL0     O 8464   4.877   1.662   2.484  0.4562 -0.3411  0.1510
  804MOL0     C 8465   4.857   1.807   2.491  0.2042 -0.2855  0.2530
  804MOL0     C 8466   4.846   1.884   2.357  0.1339  0.3932 -0.0909
  804MOL0     C 8467   4.694   1.883   2.301  0.3867 -0.9347  0.2700
  804MOL0     C 8468   4.665   2.014   2.221  0.7751  0.6941  0.1172
  804MOL0     C 8469   4.599   2.111   2.309 -1.0442 -0.0726  0.1845
  804MOL0     C 8470   4.550   2.202   2.377  0.8397 -0.4018  0.1544
  804MOL0     C 8471   4.892   1.520   2.682  0.5947 -0.9857 -0.0768
  804MOL0     C 8472   4.836   1.455   2.792  0.9627 -0.5454  0.2409
  804MOL0     H 8473   4.792   1.245   3.216 -0.5166  1.7664 -2.4113
  804MOL0     H 8474   4.680   1.112   3.396 -1.0104 -0.8503 -1.1378
  804MOL0     H 8475   4.316   1.123   3.546 -2.3591 -1.2251  0.5534
  804MOL0     H 8476   4.258   1.173   3.387 -1.5408 -1.5221 -2.3245
  804MOL0     H 8477   4.247   0.891   3.365  0.7755  1.5885 -1.6278
  804MOL0     H 8478   4.265   0.906   3.539 -1.8363 -0.4521  0.3021
  804MOL0     H 8479   4.043   1.014   3.368  2.9649  0.1876 -1.1673
  804MOL0     H 8480   4.015   0.877   3.469 -2.2614  1.1132  0.8981
  804MOL0     H 8481   4.065   1.000   3.675 -1.3263 -0.8737  0.5573
  804MOL0     H 8482   4.086   1.150   3.580  0.6703 -0.9341  1.3512
  804MOL0     H 8483   3.869   1.180   3.599 -0.0461  0.3616 -3.6054
  804MOL0     H 8484   3.833   1.045   3.480  0.1424 -1.6768 -0.4714
  804MOL0     H 8485   3.800   0.887   3.619  0.2789 -1.3019  1.8086
  804MOL0     H 8486   3.883   0.950   3.755 -0.2635 -1.7553 -1.6165
  804MOL0     H 8487   3.644   0.945   3.778 -2.0420  1.2949 -0.4697
  804MOL0     H 8488   3.688   1.117   3.792 -0.7419  0.9768 -0.3866
  804MOL0     H 8489   3.622   1.133   3.545  1.8393 -0.1026  0.6903
  804MOL0     H 8490   3.486   1.106   3.658 -1.3702 -2.7461  1.0245
  804MOL0     H 8491   3.489   0.813   3.709 -0.8569  4.1954  0.4682
  804MOL0     H 8492   3.366   0.613   3.611  4.2442 -4.7288  2.1858
  804MOL0     H 8493   3.311   0.600   3.437 -2.0212 -0.4948  1.9840
  804MOL0     H 8494   3.541   0.501   3.388  0.4143 -0.4917  0.4130
  804MOL0     H 8495   3.446   0.414   3.511 -2.4238  1.9085 -2.3537
  804MOL0     H 8496   3.622   0.413   3.644 -3.7946  0.5638  0.1744
  804MOL0     H 8497   3.570   0.561   3.679 -1.7863 -5.2597  3.3251
  804MOL0     H 8498   3.794   0.635   3.609 -0.2333  0.5192 -2.1084
  804MOL0     H 8499   3.738   0.607   3.446 -0.8998 -0.7296 -0.3737
  804MOL0     H 8500   4.008   0.281   3.465  0.8648  0.0845  0.6739
  804MOL0     H 8501   4.315   0.179   3.658 -2.6216  0.2240  1.5997
  804MOL0     H 8502   4.199   0.109   3.556  3.3860 -2.0310 -1.8985
  804MOL0     H 8503   4.319   0.240   3.495 -0.4735  0.1996 -0.6777
  804MOL0     H 8504   4.520   0.236   3.902 -0.6450  0.2311  1.1270
  804MOL0     H 8505   4.752   0.222   3.996 -3.4764 -3.1024 -1.5396
  804MOL0     H 8506   4.982   0.173   3.915  0.5792  0.8010 -0.9839
  804MOL0     H 8507   5.076   0.254   3.800  3.0373  1.4823  1.5350
  804MOL0     H 8508   5.201   0.145   3.983 -0.4037  0.6713  1.9343
  804MOL0     H 8509   5.244   0.294   3.909  1.8041 -1.0317  1.6538
  804MOL0     H 8510   5.089   0.291   4.168 -0.6634  2.8252 -0.1723
  804MOL0     H 8511   5.182   0.415   4.088  2.1289  0.2377  0.4515
  804MOL0     H 8512   5.290   0.137   4.193  0.7776 -0.2871  0.7650
  804MOL0     H 8513   5.390   0.231   4.092  1.6496 -4.4210  0.7013
  804MOL0     H 8514   5.449   0.256   4.316  3.4144  5.0105  2.3131
  804MOL0     H 8515   5.290   0.303   4.369 -0.1364  2.0789  0.2446
  804MOL0     H 8516   5.443   0.472   4.161  0.5309 -2.1320 -0.8598
  804MOL0     H 8517   5.305   0.524   4.263 -0.8632 -1.4048 -0.5391
  804MOL0     H 8518   5.582   0.446   4.361  0.4497  0.5610  2.8541
  804MOL0     H 8519   5.447   0.465   4.464  2.5992 -1.9342  0.0987
  804MOL0     H 8520   5.601   0.674   4.455  0.4376 -0.3801  0.4839
  804MOL0     H 8521   5.434   0.704   4.422 -0.7071 -0.7148 -1.6079
  804MOL0     H 8522   4.889   0.539   3.748 -0.3458  1.8272  0.1719
  804MOL0     H 8523   4.664   0.547   3.645 -1.1611 -0.6718  0.3320
  804MOL0     H 8524   4.117   0.533   3.883  0.8579 -0.5361 -0.3525
  804MOL0     H 8525   3.894   0.551   3.793 -0.6866  0.7158 -0.3821
  804MOL0     H 8526   4.319   1.112   3.198  0.2284  0.1410  1.4027
  804MOL0     H 8527   4.426   1.256   3.000  2.3773 -0.7699 -1.6374
  804MOL0     H 8528   4.524   1.597   2.750  0.6734  1.2968 -1.1965
  804MOL0     H 8529   4.623   1.654   2.535  0.3597 -2.1358 -1.4537
  804MOL0     H 8530   4.777   1.839   2.558  0.8034 -0.6645  1.1611
  804MOL0     H 8531   4.946   1.842   2.544 -1.3043  2.3636  1.2213
  804MOL0     H 8532   4.912   1.830   2.288  0.4567  1.5610 -0.7359
  804MOL0     H 8533   4.883   1.986   2.370 -1.8906  1.4468 -1.9807
  804MOL0     H 8534   4.627   1.865   2.386 -0.3401  0.5219  0.0260
  804MOL0     H 8535   4.676   1.796   2.237  0.0997 -0.0676 -0.8503
  804MOL0     H 8536   4.584   2.004   2.149 -1.0511 -1.3955  2.3192
  804MOL0     H 8537   4.750   2.052   2.163  0.9380 -1.0695 -0.8601
  804MOL0     H 8538   4.494   2.275   2.431 -1.0159  0.1481 -2.3318
  804MOL0     H 8539   4.991   1.500   2.643  0.1509 -1.3586 -1.0436
  804MOL0     H 8540   4.895   1.382   2.847  1.2804 -0.4263  0.0579
  805MOL0     O 8541   6.210   5.503  10.230  0.3840 -0.0594  0.0841
  805MOL0     C 8542   6.251   5.399  10.278 -0.4506 -0.5448 -0.4046
  805MOL0     O 8543   6.228   5.272  10.229  0.1563 -0.2229  0.0384
  805MOL0     C 8544   6.108   5.256  10.159  0.6691  0.4944 -0.3404
  805MOL0     C 8545   6.102   5.280  10.021  0.7547 -0.6958 -0.4797
  805MOL0     C 8546   5.987   5.254   9.945  1.0963  0.0380 -0.6471
  805MOL0     C 8547   5.875   5.195  10.010 -0.7195  0.1960  0.0876
  805MOL0     O 8548   5.758   5.169   9.942 -0.6887  0.2168 -0.4076
  805MOL0     C 8549   5.774   5.155   9.804  0.6013 -0.5494  0.4518
  805MOL0     C 8550   5.642   5.133   9.736  0.2459 -0.3424  0.5791
  805MOL0     C 8551   5.565   5.003   9.782  0.5209 -0.0684 -1.3633
  805MOL0     C 8552   5.447   4.962   9.692  0.2254 -0.7586  0.1271
  805MOL0     C 8553   5.373   4.830   9.737  0.0296  0.1611  0.5731
  805MOL0     C 8554   5.457   4.706   9.696 -0.1072  0.7714 -0.4042
  805MOL0     C 8555   5.441   4.654   9.550 -0.1760  0.9786  0.2787
  805MOL0     C 8556   5.307   4.594   9.516  0.1659 -0.3840  0.5638
  805MOL0     N 8557   5.247   4.480   9.602 -0.2039 -0.7312  0.2749
  805MOL0     C 8558   5.257   4.347   9.575  0.5227  0.0283 -0.6702
  805MOL0     C 8559   5.155   4.283   9.640 -0.2271  0.2269  0.3368
  805MOL0     C 8560   5.131   4.133   9.648  0.2019  0.7189 -0.4629
  805MOL0     C 8561   5.209   4.083   9.773 -0.2442  0.0949  0.0186
  805MOL0     C 8562   5.193   3.924   9.770 -0.0778 -0.1937  0.1314
  805MOL0     C 8563   5.277   3.848   9.882 -0.8921 -0.0109  0.1113
  805MOL0     O 8564   5.297   3.703   9.841  0.2380 -0.6593 -0.4365
  805MOL0     C 8565   5.190   3.618   9.856 -0.3861  0.2693 -0.4273
  805MOL0     C 8566   5.083   3.640   9.936  1.3414  0.1357 -0.2380
  805MOL0     C 8567   4.966   3.557   9.933 -0.1329  0.3032 -0.6802
  805MOL0     C 8568   4.861   3.587  10.029 -0.3672 -0.2101 -0.0390
  805MOL0     C 8569   4.977   3.437   9.861  0.9523  0.6623  0.8177
  805MOL0     C 8570   4.867   3.334   9.874  0.1587 -0.1078  0.3530
  805MOL0     O 8571   4.732   3.368   9.909 -0.2352  0.2446  0.4055
  805MOL0     C 8572   4.647   3.281   9.988  0.2216 -0.5283 -0.7114
  805MOL0     C 8573   4.505   3.310   9.986 -0.1777 -0.1389 -0.1819
  805MOL0     C 8574   4.411   3.226  10.048  0.3831  0.4100  0.7440
  805MOL0     C 8575   4.463   3.113  10.111  0.7645  0.8543 -0.2513
  805MOL0     O 8576   4.375   3.018  10.165  0.6590  0.2222  0.3972
  805MOL0     C 8577   4.283   3.077  10.260 -0.1872  0.3572 -0.2979
  805MOL0     C 8578   4.359   3.131  10.381  0.0701 -0.0556 -0.4959
  805MOL0     C 8579   4.428   3.014  10.459  0.5170  0.8074 -0.9249
  805MOL0     C 8580   4.509   3.041  10.584  0.2505 -0.6964  0.0087
  805MOL0     C 8581   4.569   2.910  10.641 -0.2517  1.2927  0.0759
  805MOL0     C 8582   4.463   2.844  10.740  0.2442  0.3660 -0.5544
  805MOL0     C 8583   4.525   2.718  10.806 -0.0543  0.1495  0.1396
  805MOL0     C 8584   4.658   2.747  10.890 -0.4503 -0.0498 -0.0839
  805MOL0    Cl 8585   4.620   2.861  11.020 -0.0971 -0.0028  0.3159
  805MOL0     C 8586   4.594   3.079  10.120 -0.8926  0.7655  0.7120
  805MOL0     C 8587   4.690   3.166  10.060  0.6982 -0.0460 -0.6071
  805MOL0     O 8588   4.903   3.222   9.848 -0.4852 -0.6399  0.1183
  805MOL0     C 8589   5.091   3.408   9.787 -0.1578 -0.0792  0.2942
  805MOL0     C 8590   5.194   3.499   9.783 -0.0885 -0.0718  1.3113
  805MOL0     N 8591   5.080   4.377   9.699  0.5634 -0.2289  0.3732
  805MOL0     N 8592   5.136   4.494   9.684  0.5760  0.2765 -0.8514
  805MOL0     C 8593   5.882   5.165  10.149 -0.2208 -0.3117 -1.2672
  805MOL0     C 8594   5.996   5.206  10.226 -0.4965  0.6015  0.0702
  805MOL0     C 8595   6.354   5.397  10.380 -0.3597  0.0520 -1.2085
  805MOL0     C 8596   6.421   5.515  10.419 -0.4416 -0.3682 -0.0594
  805MOL0     C 8597   6.532   5.514  10.505 -0.6976  0.1437 -0.1761
  805MOL0     C 8598   6.593   5.394  10.549  0.1217 -0.4634 -0.3215
  805MOL0     O 8599   6.706   5.374  10.621 -0.5138  0.4940  0.6386
  805MOL0     C 8600   6.805   5.474  10.633 -0.4083  0.0713  0.0790
  805MOL0     C 8601   6.904   5.431  10.742 -0.6385  0.2503  0.2464
  805MOL0     C 8602   6.953   5.286  10.711 -0.1520  0.3513 -0.4532
  805MOL0     C 8603   7.057   5.223  10.823 -0.2839 -0.0654 -0.0569
  805MOL0     C 8604   7.017   5.244  10.963  0.0004  0.3226  0.2213
  805MOL0     C 8605   6.988   5.258  11.078 -0.3787  0.6015 -0.3000
  805MOL0     C 8606   6.531   5.273  10.503  0.1674 -0.6322  1.3919
  805MOL0     C 8607   6.412   5.275  10.424 -0.4981  0.6043  0.2656
  805MOL0     H 8608   6.190   5.326   9.977  2.1562 -2.3709  0.4596
  805MOL0     H 8609   5.987   5.273   9.838 -2.7106 -1.9305 -1.1397
  805MOL0     H 8610   5.820   5.238   9.749 -0.3530  0.9608  1.8377
  805MOL0     H 8611   5.824   5.064   9.772 -1.4392 -0.5884 -3.0587
  805MOL0     H 8612   5.572   5.214   9.757 -1.1338 -1.0974 -0.8830
  805MOL0     H 8613   5.650   5.135   9.627  1.4725 -1.2866  0.6220
  805MOL0     H 8614   5.633   4.917   9.783  0.3324 -0.2346 -1.9159
  805MOL0     H 8615   5.530   5.041   9.878  1.8707  1.8752 -1.5808
  805MOL0     H 8616   5.373   5.042   9.693  3.1606  2.1852  1.1427
  805MOL0     H 8617   5.492   4.944   9.593 -0.7050 -3.3262  0.1051
  805MOL0     H 8618   5.342   4.829   9.842 -1.1155 -1.2230  0.2521
  805MOL0     H 8619   5.281   4.849   9.680 -0.3521 -0.1721  1.0696
  805MOL0     H 8620   5.566   4.719   9.705  0.2228 -2.0345  0.8414
  805MOL0     H 8621   5.425   4.630   9.768 -1.8586  2.8367  1.1212
  805MOL0     H 8622   5.450   4.743   9.486  0.1696  2.1238  1.8459
  805MOL0     H 8623   5.510   4.574   9.521 -2.6939 -0.9908 -0.5724
  805MOL0     H 8624   5.324   4.555   9.415 -0.6611  0.7347 -0.0284
  805MOL0     H 8625   5.222   4.662   9.502 -1.2095 -2.5327 -2.9055
  805MOL0     H 8626   5.336   4.297   9.520  1.2223 -1.3322  1.4391
  805MOL0     H 8627   5.025   4.117   9.669  0.2246  1.5944  0.4030
  805MOL0     H 8628   5.154   4.089   9.550  2.4033 -0.9527  0.7093
  805MOL0     H 8629   5.156   4.119   9.862 -1.8901 -2.5136  0.1841
  805MOL0     H 8630   5.313   4.115   9.787 -0.7946  1.3988  1.5085
  805MOL0     H 8631   5.234   3.884   9.677 -0.2614 -1.7603  0.7062
  805MOL0     H 8632   5.088   3.895   9.764 -0.0811 -0.5157  1.4902
  805MOL0     H 8633   5.222   3.847   9.976  1.6772  0.7733  1.7245
  805MOL0     H 8634   5.368   3.902   9.909 -1.1257  0.7247 -0.5119
  805MOL0     H 8635   5.070   3.725  10.001  0.6279 -1.0046  1.1710
  805MOL0     H 8636   4.876   3.525  10.118 -1.2339 -1.5826 -0.8122
  805MOL0     H 8637   4.888   3.684  10.070  2.0876 -0.7123 -0.3080
  805MOL0     H 8638   4.756   3.584   9.999 -1.7101  2.4644  3.6228
  805MOL0     H 8639   4.491   3.388   9.913 -0.6775 -1.9796 -2.1545
  805MOL0     H 8640   4.307   3.252  10.030 -0.1650 -1.8012  0.4831
  805MOL0     H 8641   4.215   3.154  10.223  0.1135  2.0137  2.3244
  805MOL0     H 8642   4.222   2.990  10.287  3.0465 -1.5412  1.6013
  805MOL0     H 8643   4.428   3.209  10.349 -0.6488 -0.6133 -3.8485
  805MOL0     H 8644   4.287   3.185  10.443  1.8033 -0.1116  1.6896
  805MOL0     H 8645   4.489   2.953  10.392  0.9899  0.4237 -0.1542
  805MOL0     H 8646   4.341   2.955  10.488  1.2384  1.1544  2.2919
  805MOL0     H 8647   4.593   3.106  10.558 -0.0500  0.3812  1.6264
  805MOL0     H 8648   4.459   3.083  10.672 -1.0420 -1.7339 -0.2017
  805MOL0     H 8649   4.662   2.936  10.691 -0.8001  0.6851  1.4736
  805MOL0     H 8650   4.608   2.834  10.573 -1.0875 -0.0565  1.0323
  805MOL0     H 8651   4.438   2.914  10.820 -0.6876 -0.2084 -0.3394
  805MOL0     H 8652   4.371   2.822  10.686  0.4731  1.0187 -1.2372
  805MOL0     H 8653   4.554   2.641  10.734  1.0203  1.7892 -1.2683
  805MOL0     H 8654   4.450   2.679  10.875  1.3271 -0.8732  1.1198
  805MOL0     H 8655   4.736   2.791  10.826  0.2282 -2.7797 -1.2772
  805MOL0     H 8656   4.691   2.649  10.926 -0.5724  0.5327  1.6895
  805MOL0     H 8657   4.607   2.985  10.172 -1.3043  0.4252  0.2145
  805MOL0     H 8658   4.789   3.122  10.052 -0.0358 -1.4149 -3.2971
  805MOL0     H 8659   5.105   3.311   9.742 -2.3417  0.7687 -2.5422
  805MOL0     H 8660   5.276   3.472   9.717 -0.3009  1.0804  0.5374
  805MOL0     H 8661   5.802   5.120  10.207  0.5573  0.0792  0.1711
  805MOL0     H 8662   6.000   5.189  10.333 -0.5004  1.3147  0.1912
  805MOL0     H 8663   6.382   5.610  10.382  0.3364 -0.1935 -0.4422
  805MOL0     H 8664   6.575   5.604  10.548  0.5887  0.1047 -1.3481
  805MOL0     H 8665   6.856   5.489  10.537  2.1261  0.0422  1.3481
  805MOL0     H 8666   6.757   5.568  10.666  1.1434  0.5926  0.9387
  805MOL0     H 8667   6.850   5.438  10.837  0.3054  5.5520  0.6720
  805MOL0     H 8668   6.990   5.498  10.745  0.4933 -1.1770  0.7555
  805MOL0     H 8669   6.995   5.285  10.610  2.0633 -1.7252  0.3803
  805MOL0     H 8670   6.866   5.219  10.712 -0.0778  0.0188  3.9009
  805MOL0     H 8671   7.156   5.266  10.808  0.2612 -0.3829  2.2406
  805MOL0     H 8672   7.072   5.116  10.805  0.0010 -0.2014  0.9094
  805MOL0     H 8673   6.981   5.262  11.185  1.7413  1.1315 -0.1343
  805MOL0     H 8674   6.563   5.170  10.520  0.5031 -0.4294  2.0174
  805MOL0     H 8675   6.373   5.181  10.386  2.3917  0.2586 -2.2118
  806MOL0     O 8676   2.589   4.662   9.532  0.0196 -0.5761  0.0980
  806MOL0     C 8677   2.515   4.744   9.486  0.0527 -0.3372 -1.4063
  806MOL0     O 8678   2.549   4.865   9.430  0.3444 -0.1266  0.1688
  806MOL0     C 8679   2.685   4.890   9.415 -0.4873  0.0479 -0.4787
  806MOL0     C 8680   2.734   5.008   9.480  0.1815 -0.7134  0.3199
  806MOL0     C 8681   2.863   5.059   9.442  0.5660  0.9229 -0.4117
  806MOL0     C 8682   2.950   4.985   9.356 -0.7670 -0.4759 -0.0009
  806MOL0     O 8683   3.074   5.009   9.314  0.0049  0.2048  0.7038
  806MOL0     C 8684   3.154   5.082   9.408 -0.0675  0.3938  0.1447
  806MOL0     C 8685   3.295   5.091   9.343 -0.1134  0.7826  0.2177
  806MOL0     C 8686   3.313   5.182   9.220 -0.7299 -0.2604 -0.8633
  806MOL0     C 8687   3.375   5.120   9.096 -0.6234 -0.1796 -0.4796
  806MOL0     C 8688   3.468   5.201   9.013 -0.5033  0.2054 -0.4226
  806MOL0     C 8689   3.388   5.272   8.899  0.2236  0.6884 -0.8448
  806MOL0     C 8690   3.485   5.328   8.788 -0.0103 -0.0051 -0.5462
  806MOL0     C 8691   3.574   5.436   8.850 -0.2201  0.8738  0.4583
  806MOL0     N 8692   3.661   5.499   8.756  0.1476 -0.1848  0.6290
  806MOL0     C 8693   3.639   5.615   8.687  0.3767  0.0266  0.2181
  806MOL0     C 8694   3.742   5.627   8.603 -0.5250 -0.7158 -0.7550
  806MOL0     C 8695   3.757   5.743   8.511 -1.1127 -0.9712 -0.1683
  806MOL0     C 8696   3.659   5.751   8.394  0.8527 -0.4320  1.1535
  806MOL0     C 8697   3.675   5.881   8.310  0.1411 -0.0767  0.2467
  806MOL0     C 8698   3.576   6.000   8.349 -0.8942 -0.5873 -0.2410
  806MOL0     O 8699   3.444   5.953   8.329  0.1113  0.3609 -0.6018
  806MOL0     C 8700   3.342   6.010   8.413 -0.4706  0.2591 -0.2245
  806MOL0     C 8701   3.238   5.925   8.458  0.2016 -0.1640 -0.0027
  806MOL0     C 8702   3.142   5.984   8.549  0.4085  0.1719 -0.2829
  806MOL0     C 8703   3.037   5.897   8.605  0.7565  0.3234  0.8658
  806MOL0     C 8704   3.139   6.123   8.582 -0.7069  0.5774  0.5699
  806MOL0     C 8705   3.050   6.186   8.671  0.3167  0.1226 -0.5677
  806MOL0     O 8706   3.002   6.123   8.781 -0.3557 -0.5135 -0.5195
  806MOL0     C 8707   2.907   6.181   8.856  0.6802  0.1228 -0.2108
  806MOL0     C 8708   2.942   6.210   8.986 -0.5421  0.0491 -0.4031
  806MOL0     C 8709   2.857   6.272   9.078 -0.6535 -0.0734  0.7846
  806MOL0     C 8710   2.729   6.319   9.027 -0.2324  0.0457 -0.0775
  806MOL0     O 8711   2.644   6.393   9.099  0.3612  0.3727  0.3208
  806MOL0     C 8712   2.693   6.488   9.192  0.2504  1.0965 -0.0092
  806MOL0     C 8713   2.599   6.605   9.220  0.3224 -1.0993 -0.7094
  806MOL0     C 8714   2.546   6.603   9.363  0.2861 -0.2742  0.1690
  806MOL0     C 8715   2.518   6.757   9.404 -0.8362 -0.0714  0.0436
  806MOL0     C 8716   2.442   6.769   9.534  0.2825  0.9025 -0.6398
  806MOL0     C 8717   2.404   6.917   9.560 -0.4194  0.2419  0.0481
  806MOL0     C 8718   2.303   6.920   9.682 -1.3412  0.9809  0.9090
  806MOL0     C 8719   2.354   6.989   9.806  0.4229  0.2243  0.5004
  806MOL0    Cl 8720   2.506   6.900   9.862 -0.2060 -0.1470 -0.3081
  806MOL0     C 8721   2.690   6.286   8.899 -0.3785 -0.8916  0.6760
  806MOL0     C 8722   2.774   6.221   8.810 -0.0028  0.2149  0.1593
  806MOL0     O 8723   3.022   6.298   8.642  0.8628 -0.0764 -0.1020
  806MOL0     C 8724   3.243   6.200   8.529  0.3072  0.2864 -0.0343
  806MOL0     C 8725   3.338   6.146   8.435 -0.2872  0.5530 -0.0197
  806MOL0     N 8726   3.837   5.523   8.630  0.0232 -1.0669 -0.3814
  806MOL0     N 8727   3.784   5.449   8.722  0.4818 -0.9477 -0.6280
  806MOL0     C 8728   2.896   4.871   9.302  0.8052 -0.7902  0.0027
  806MOL0     C 8729   2.768   4.821   9.328 -0.1378 -0.0731  0.0848
  806MOL0     C 8730   2.369   4.719   9.519  0.8115  0.0957  0.7629
  806MOL0     C 8731   2.281   4.797   9.441  0.6150  0.0703  0.0497
  806MOL0     C 8732   2.135   4.771   9.448 -0.2189  0.1512 -0.1374
  806MOL0     C 8733   2.088   4.664   9.521  0.6857 -0.9948 -0.4706
  806MOL0     O 8734   1.952   4.624   9.519 -0.2793  0.6565  0.3156
  806MOL0     C 8735   1.894   4.501   9.559  0.1251 -0.1083 -0.7432
  806MOL0     C 8736   1.931   4.382   9.475 -0.0360  0.2417 -0.7785
  806MOL0     C 8737   1.879   4.377   9.330  0.1947 -0.2216  0.6118
  806MOL0     C 8738   1.960   4.442   9.214 -0.1522  1.0345  0.6890
  806MOL0     C 8739   2.078   4.347   9.197 -0.3243  0.8461  0.1398
  806MOL0     C 8740   2.173   4.272   9.202  0.3663 -0.2547  0.0902
  806MOL0     C 8741   2.177   4.590   9.597 -1.1214  0.0398  1.0152
  806MOL0     C 8742   2.318   4.610   9.594 -0.1985  0.1558  0.1228
  806MOL0     H 8743   2.674   5.072   9.544 -1.3771  1.1958 -2.7651
  806MOL0     H 8744   2.896   5.149   9.493 -0.3881  0.5415  0.9376
  806MOL0     H 8745   3.106   5.179   9.419 -0.4656 -0.0345  3.0472
  806MOL0     H 8746   3.158   5.028   9.504  0.6634 -2.8127 -1.5364
  806MOL0     H 8747   3.372   5.123   9.414  0.8181 -1.4107  0.2937
  806MOL0     H 8748   3.317   4.987   9.316 -0.4816  0.7477  0.0427
  806MOL0     H 8749   3.215   5.221   9.190 -1.3209  1.4419  2.7670
  806MOL0     H 8750   3.372   5.268   9.250 -1.3388  0.2977 -1.2355
  806MOL0     H 8751   3.443   5.045   9.138 -0.4838  0.2263  0.0409
  806MOL0     H 8752   3.297   5.062   9.047  0.7007 -1.8980 -0.6655
  806MOL0     H 8753   3.524   5.271   9.076 -1.1146  0.1726  0.1582
  806MOL0     H 8754   3.539   5.133   8.965  0.6198  2.3378 -1.9864
  806MOL0     H 8755   3.317   5.201   8.856  0.4569  1.4158 -2.5320
  806MOL0     H 8756   3.322   5.339   8.955  0.9306 -0.3482  1.2995
  806MOL0     H 8757   3.540   5.240   8.753  2.1426 -0.7832  3.9942
  806MOL0     H 8758   3.421   5.371   8.711 -1.8355  2.7545  2.2391
  806MOL0     H 8759   3.643   5.397   8.926  1.9438  2.8625 -0.3672
  806MOL0     H 8760   3.532   5.516   8.912  0.8742  0.9914  1.0938
  806MOL0     H 8761   3.559   5.688   8.692 -0.5369 -0.9237 -0.2084
  806MOL0     H 8762   3.744   5.829   8.577 -2.4029 -1.1574 -0.1596
  806MOL0     H 8763   3.856   5.749   8.466 -1.8329 -0.2369 -1.7106
  806MOL0     H 8764   3.562   5.751   8.444 -0.1338 -3.5375 -0.4808
  806MOL0     H 8765   3.660   5.667   8.324  3.4488 -0.6644  1.3762
  806MOL0     H 8766   3.660   5.862   8.203 -1.2355  2.4194 -0.0718
  806MOL0     H 8767   3.780   5.911   8.317  0.1461  0.5334 -1.7515
  806MOL0     H 8768   3.604   6.088   8.290  1.5363 -1.4835 -0.5846
  806MOL0     H 8769   3.596   6.017   8.455 -4.2704 -0.0696  0.4115
  806MOL0     H 8770   3.230   5.819   8.436  0.9327 -0.9324  2.9338
  806MOL0     H 8771   3.077   5.857   8.699 -0.0497  2.4705  2.2084
  806MOL0     H 8772   2.940   5.947   8.619  1.0100  1.8750 -2.1956
  806MOL0     H 8773   3.024   5.824   8.526 -0.4286  1.1212  0.2821
  806MOL0     H 8774   3.035   6.165   9.020 -0.1369  0.8205 -0.4649
  806MOL0     H 8775   2.873   6.307   9.179 -3.7171  0.2934  1.2348
  806MOL0     H 8776   2.696   6.427   9.283 -1.1999 -0.6174 -1.0429
  806MOL0     H 8777   2.795   6.519   9.168  0.8473 -0.9335 -0.2778
  806MOL0     H 8778   2.640   6.705   9.205 -1.2583  0.3725  3.4369
  806MOL0     H 8779   2.517   6.600   9.147 -0.4903  2.2053 -0.1832
  806MOL0     H 8780   2.626   6.574   9.432  0.7429  1.6628  0.5166
  806MOL0     H 8781   2.463   6.532   9.366  1.6717 -1.9206  1.6095
  806MOL0     H 8782   2.611   6.814   9.414 -0.4974 -0.6961  0.5165
  806MOL0     H 8783   2.468   6.814   9.325 -0.8340  1.0723  0.8408
  806MOL0     H 8784   2.483   6.729   9.627  0.1091  0.6569 -0.6675
  806MOL0     H 8785   2.347   6.715   9.537  0.9024 -0.1817  2.0670
  806MOL0     H 8786   2.482   6.991   9.577 -0.0870 -0.1967  0.4420
  806MOL0     H 8787   2.357   6.962   9.472  0.4526  0.6797 -0.2052
  806MOL0     H 8788   2.258   6.822   9.702  0.6152 -0.2236 -0.2226
  806MOL0     H 8789   2.218   6.984   9.658 -0.7089  1.4606 -0.1324
  806MOL0     H 8790   2.279   6.988   9.885 -1.3573  2.3179 -1.0488
  806MOL0     H 8791   2.380   7.094   9.786 -1.1282  0.3555 -1.0749
  806MOL0     H 8792   2.587   6.306   8.871 -0.3980 -0.2879  1.1428
  806MOL0     H 8793   2.754   6.201   8.705 -2.4562  1.7122  0.2744
  806MOL0     H 8794   3.254   6.305   8.556  2.2085 -0.6147  3.1676
  806MOL0     H 8795   3.423   6.205   8.401  1.0790 -1.4155 -0.2041
  806MOL0     H 8796   2.955   4.816   9.230 -0.5209 -0.1452 -1.6566
  806MOL0     H 8797   2.727   4.736   9.275  0.4181  1.2416 -2.6048
  806MOL0     H 8798   2.331   4.858   9.366  5.5222 -2.2456  0.9852
  806MOL0     H 8799   2.062   4.822   9.385 -1.2095  0.6668  1.3862
  806MOL0     H 8800   1.911   4.485   9.666  0.7037  0.2056 -0.7843
  806MOL0     H 8801   1.785   4.514   9.561  0.2147  0.8929  2.2155
  806MOL0     H 8802   1.901   4.288   9.524  2.5997 -0.5490 -0.5261
  806MOL0     H 8803   2.039   4.381   9.464  0.1869 -0.4689  1.0639
  806MOL0     H 8804   1.783   4.428   9.341 -1.4739 -3.4239  2.1001
  806MOL0     H 8805   1.855   4.276   9.297 -1.2527  1.6803 -5.3958
  806MOL0     H 8806   1.998   4.543   9.236 -2.0044  2.2674 -1.3860
  806MOL0     H 8807   1.897   4.440   9.125 -0.6679  3.4061  0.9161
  806MOL0     H 8808   2.265   4.218   9.202  1.7176  1.8880  1.7455
  806MOL0     H 8809   2.123   4.516   9.654 -2.9343 -1.0812 -1.9296
  806MOL0     H 8810   2.383   4.556   9.662 -1.2778  0.0014  1.0682
  807MOL0     O 8811   4.053   9.223   3.379 -0.3602  0.0768 -0.1166
  807MOL0     C 8812   3.998   9.146   3.297  0.4631 -0.0680  0.3092
  807MOL0     O 8813   4.007   9.160   3.166  0.1099  1.2006 -0.1739
  807MOL0     C 8814   4.076   9.271   3.116  0.5670  0.6726  0.0422
  807MOL0     C 8815   4.208   9.296   3.114  0.0910  0.2292 -0.2838
  807MOL0     C 8816   4.264   9.408   3.054 -1.2190  0.0898 -0.0912
  807MOL0     C 8817   4.187   9.504   3.007  0.2794 -0.6029  0.3731
  807MOL0     O 8818   4.251   9.619   2.954 -0.2545  0.6962  0.6173
  807MOL0     C 8819   4.177   9.687   2.851 -1.0974 -0.6573 -0.0737
  807MOL0     C 8820   4.268   9.784   2.783 -0.6207 -0.2427 -0.1638
  807MOL0     C 8821   4.194   9.843   2.658  0.0554  1.5312  0.3493
  807MOL0     C 8822   4.090   9.959   2.690 -1.0052 -0.2262  0.4005
  807MOL0     C 8823   4.060  10.044   2.557  0.5340  0.3191 -0.2931
  807MOL0     C 8824   3.983  10.173   2.586 -0.2018 -0.4669 -0.2396
  807MOL0     C 8825   3.845  10.149   2.660  0.3772 -0.9287 -0.3296
  807MOL0     C 8826   3.742  10.052   2.598 -0.3423  1.0266 -0.2267
  807MOL0     N 8827   3.706  10.096   2.462 -0.0831 -0.0901 -0.5659
  807MOL0     C 8828   3.758  10.057   2.341  1.3344 -0.0859 -0.5943
  807MOL0     C 8829   3.679  10.112   2.245 -1.0941  0.2493 -0.0089
  807MOL0     C 8830   3.698  10.103   2.100  0.2987 -0.2507  0.5766
  807MOL0     C 8831   3.678  10.224   2.014  0.4823 -0.4777  0.2744
  807MOL0     C 8832   3.619  10.204   1.876 -0.3086 -0.7266 -0.6338
  807MOL0     C 8833   3.654  10.333   1.795  0.2059  0.9542  0.0096
  807MOL0     O 8834   3.596  10.334   1.662  0.4226 -0.1900  0.5498
  807MOL0     C 8835   3.646  10.275   1.544  0.4614 -1.4608 -0.2092
  807MOL0     C 8836   3.555  10.217   1.462  0.6802 -0.7995  0.3389
  807MOL0     C 8837   3.593  10.152   1.349  0.0125 -0.1562  0.8172
  807MOL0     C 8838   3.480  10.095   1.256  0.7625  0.3663 -0.1883
  807MOL0     C 8839   3.736  10.144   1.316 -0.1342  0.3872 -0.4004
  807MOL0     C 8840   3.790  10.096   1.192 -0.9414  0.3808 -0.3169
  807MOL0     O 8841   3.914  10.157   1.165 -0.0372  0.1464 -0.6241
  807MOL0     C 8842   3.984  10.129   1.045 -0.0344 -0.7600 -0.5730
  807MOL0     C 8843   3.993  10.224   0.941 -0.0453 -0.8023  0.8336
  807MOL0     C 8844   4.067  10.179   0.828  0.1153 -0.4573 -0.0750
  807MOL0     C 8845   4.131  10.056   0.824 -0.3327  0.3625  0.1394
  807MOL0     O 8846   4.191  10.031   0.700  0.2407  0.3469  0.6542
  807MOL0     C 8847   4.267   9.914   0.685 -0.3344 -0.2519  0.4715
  807MOL0     C 8848   4.295   9.875   0.539  0.8863 -0.7810  0.6808
  807MOL0     C 8849   4.152   9.862   0.457 -0.1673  0.2240  0.6031
  807MOL0     C 8850   4.163   9.772   0.329  0.1551  0.4072 -0.2777
  807MOL0     C 8851   4.052   9.784   0.223 -0.5427 -0.3120  0.8493
  807MOL0     C 8852   4.087   9.712   0.091 -0.5869 -0.3860  0.8052
  807MOL0     C 8853   4.121   9.822  -0.025 -0.1901  0.2740 -0.5351
  807MOL0     C 8854   4.179   9.755  -0.149  0.4801  0.1282 -0.0010
  807MOL0    Cl 8855   4.035   9.689  -0.239 -0.2644  0.1073  0.5540
  807MOL0     C 8856   4.133   9.970   0.937 -0.7776 -0.4880  0.1097
  807MOL0     C 8857   4.062  10.008   1.045  0.7190  0.9535  0.3926
  807MOL0     O 8858   3.737  10.008   1.123 -0.0373 -0.5609  0.2562
  807MOL0     C 8859   3.827  10.202   1.404 -0.5691 -0.7393  0.8477
  807MOL0     C 8860   3.784  10.273   1.516  0.6852  0.2289 -0.1936
  807MOL0     N 8861   3.579  10.181   2.307  0.5960  0.0807 -0.8397
  807MOL0     N 8862   3.599  10.177   2.439 -0.2312  1.0069  0.3029
  807MOL0     C 8863   4.051   9.477   3.001  0.2115  0.3496 -0.2790
  807MOL0     C 8864   3.997   9.356   3.054 -0.4218 -0.4338  0.1198
  807MOL0     C 8865   3.939   9.029   3.357 -0.2443  0.5090  0.2684
  807MOL0     C 8866   3.918   8.912   3.280  0.4883  0.2962  0.4405
  807MOL0     C 8867   3.855   8.802   3.339 -0.0600 -0.3137 -0.0566
  807MOL0     C 8868   3.822   8.800   3.476 -0.2515  0.0253  0.4318
  807MOL0     O 8869   3.763   8.681   3.513 -0.0522  1.1120 -0.5192
  807MOL0     C 8870   3.742   8.666   3.653 -0.1189  0.3373 -0.4459
  807MOL0     C 8871   3.718   8.520   3.691  0.1003  0.4090 -0.1228
  807MOL0     C 8872   3.708   8.497   3.837  1.4183  1.0669 -0.0265
  807MOL0     C 8873   3.708   8.344   3.867 -0.2333  0.0326 -0.2725
  807MOL0     C 8874   3.823   8.268   3.817  0.5244 -0.7584  0.0085
  807MOL0     C 8875   3.913   8.205   3.764 -0.0466 -0.7024 -0.2456
  807MOL0     C 8876   3.844   8.923   3.553  0.0064  1.0617  0.1618
  807MOL0     C 8877   3.901   9.029   3.493 -0.9583  0.3407  0.9222
  807MOL0     H 8878   4.277   9.224   3.155 -0.0086  0.9812  1.2772
  807MOL0     H 8879   4.370   9.434   3.059 -1.2857  0.2280  3.6281
  807MOL0     H 8880   4.132   9.612   2.785 -1.4260  1.3274 -2.2477
  807MOL0     H 8881   4.093   9.746   2.891 -1.5258 -0.8011 -0.7394
  807MOL0     H 8882   4.277   9.867   2.854  1.5965 -1.3416  0.9492
  807MOL0     H 8883   4.366   9.742   2.760 -0.6569 -1.2843  1.3766
  807MOL0     H 8884   4.275   9.877   2.593 -0.7676  1.5813 -0.6547
  807MOL0     H 8885   4.149   9.758   2.606  3.7671 -0.2390 -0.3244
  807MOL0     H 8886   3.997   9.933   2.742 -0.6463  0.5639  1.4611
  807MOL0     H 8887   4.149  10.013   2.764 -1.6620  0.0002  0.7683
  807MOL0     H 8888   4.146  10.062   2.491  1.3253  2.2953  1.1654
  807MOL0     H 8889   3.994   9.990   2.489 -1.7406  1.4410  0.9398
  807MOL0     H 8890   4.049  10.236   2.647 -1.0060 -1.6829  1.9958
  807MOL0     H 8891   3.964  10.228   2.493  0.7094  2.0728  0.9958
  807MOL0     H 8892   3.854  10.122   2.765 -2.9724  1.4223  0.7398
  807MOL0     H 8893   3.793  10.246   2.660 -1.1030 -1.6911  0.0584
  807MOL0     H 8894   3.657  10.054   2.666  0.8374  3.5847  1.3443
  807MOL0     H 8895   3.780   9.950   2.596 -1.2230  0.7041 -0.8325
  807MOL0     H 8896   3.838   9.988   2.320  0.4813 -1.0438 -0.8078
  807MOL0     H 8897   3.788  10.048   2.072 -0.4528 -0.7430 -1.0382
  807MOL0     H 8898   3.606  10.049   2.074 -1.1680  1.4059  2.0930
  807MOL0     H 8899   3.774  10.276   2.010 -0.2579  1.3147  3.3047
  807MOL0     H 8900   3.623  10.297   2.073  1.5293 -0.0019  0.6958
  807MOL0     H 8901   3.510  10.209   1.887 -0.5957  0.2462 -3.2175
  807MOL0     H 8902   3.654  10.111   1.830 -0.5428  0.3632 -3.1869
  807MOL0     H 8903   3.760  10.346   1.770  0.4448  2.6155  1.6499
  807MOL0     H 8904   3.624  10.418   1.857  1.0298  2.6765 -1.7862
  807MOL0     H 8905   3.449  10.224   1.484  0.8848  1.0808  0.8648
  807MOL0     H 8906   3.387  10.083   1.313 -0.8327  1.4277 -2.3908
  807MOL0     H 8907   3.455  10.175   1.184 -1.0245  1.0922  1.1578
  807MOL0     H 8908   3.506  10.005   1.199  0.1972  2.0196 -3.3162
  807MOL0     H 8909   3.953  10.325   0.941  0.2256 -0.6114 -2.2462
  807MOL0     H 8910   4.062  10.248   0.744  1.5184  1.9569  1.6807
  807MOL0     H 8911   4.365   9.924   0.733 -0.1374 -2.2856  0.6158
  807MOL0     H 8912   4.215   9.829   0.729 -1.2327 -0.6647 -1.2849
  807MOL0     H 8913   4.354   9.955   0.492 -0.5278  0.3129  0.6841
  807MOL0     H 8914   4.355   9.784   0.539 -0.9916 -2.1293 -1.4954
  807MOL0     H 8915   4.119   9.962   0.426 -2.8508 -1.2040 -1.5637
  807MOL0     H 8916   4.077   9.822   0.527 -2.4933 -0.1861 -1.9445
  807MOL0     H 8917   4.255   9.799   0.277 -0.8698  2.8639 -1.0072
  807MOL0     H 8918   4.162   9.668   0.361 -1.7221  0.4598 -0.0294
  807MOL0     H 8919   4.023   9.888   0.205  1.8066  0.5156  1.4365
  807MOL0     H 8920   3.959   9.729   0.241 -1.0682 -3.2218 -6.9012
  807MOL0     H 8921   4.164   9.635   0.099 -0.4906 -0.8129 -2.5056
  807MOL0     H 8922   3.994   9.670   0.050 -1.4685  2.5665 -0.5058
  807MOL0     H 8923   4.197   9.887   0.020  0.3707 -1.3017  0.8834
  807MOL0     H 8924   4.037   9.886  -0.055 -0.4215  1.7510  2.7763
  807MOL0     H 8925   4.267   9.695  -0.126  1.3649  0.3907 -2.4207
  807MOL0     H 8926   4.212   9.830  -0.221 -0.2683 -1.1092 -1.7118
  807MOL0     H 8927   4.196   9.882   0.931 -0.3311 -0.3281  1.9130
  807MOL0     H 8928   4.052   9.934   1.124 -3.4734 -2.3820 -2.7859
  807MOL0     H 8929   3.932  10.195   1.377 -0.1678 -0.6456  2.2903
  807MOL0     H 8930   3.869  10.316   1.569 -0.4247  2.9615 -0.4674
  807MOL0     H 8931   3.981   9.550   2.962 -0.3228 -0.5824 -1.1168
  807MOL0     H 8932   3.889   9.339   3.052  0.0714 -4.8117 -3.2685
  807MOL0     H 8933   3.944   8.917   3.174 -0.3264  2.0976  0.2852
  807MOL0     H 8934   3.825   8.719   3.276 -1.4533 -0.3153  0.5649
  807MOL0     H 8935   3.832   8.709   3.697 -0.0169 -0.0644 -0.2626
  807MOL0     H 8936   3.654   8.719   3.694  0.1338 -0.5762  1.3819
  807MOL0     H 8937   3.793   8.458   3.640 -0.6616 -1.2244  0.6560
  807MOL0     H 8938   3.617   8.491   3.659  0.6303 -0.3310 -1.2160
  807MOL0     H 8939   3.614   8.543   3.868 -0.3492 -0.7929 -2.1905
  807MOL0     H 8940   3.792   8.539   3.892  2.5806  0.3100 -1.1603
  807MOL0     H 8941   3.627   8.308   3.802 -1.4127 -0.4020  1.3619
  807MOL0     H 8942   3.674   8.322   3.969 -1.7271  0.0278 -0.7479
  807MOL0     H 8943   3.991   8.139   3.731 -0.3600 -1.6918  0.9312
  807MOL0     H 8944   3.828   8.935   3.659 -0.8862 -0.6004  0.2391
  807MOL0     H 8945   3.921   9.116   3.554  0.8402  0.3080  0.4555
  808MOL0     O 8946   5.158   0.430   7.607  0.1006 -0.1902  0.0069
  808MOL0     C 8947   5.147   0.417   7.730 -0.4761 -0.1613 -1.0575
  808MOL0     O 8948   5.056   0.482   7.810 -0.4575  0.2241  0.2732
  808MOL0     C 8949   4.934   0.511   7.753 -0.5819  0.9967  0.0462
  808MOL0     C 8950   4.871   0.445   7.642 -0.5058 -0.2642 -0.0529
  808MOL0     C 8951   4.752   0.496   7.597  0.2082 -0.3811 -0.2882
  808MOL0     C 8952   4.684   0.610   7.656  0.2464  0.3918  0.3667
  808MOL0     O 8953   4.567   0.641   7.586  0.7710 -0.1324 -0.7669
  808MOL0     C 8954   4.516   0.773   7.565  0.5512  0.3984  0.7590
  808MOL0     C 8955   4.400   0.759   7.459 -0.1376  0.4462 -0.7567
  808MOL0     C 8956   4.428   0.646   7.349 -0.6606  0.1818 -0.0352
  808MOL0     C 8957   4.556   0.658   7.272  0.1423 -0.5019  0.4252
  808MOL0     C 8958   4.561   0.551   7.153  0.0350 -0.4960  0.5026
  808MOL0     C 8959   4.695   0.516   7.106 -0.7319  0.3333  0.4227
  808MOL0     C 8960   4.759   0.410   7.206 -0.0953 -0.0586 -0.2954
  808MOL0     C 8961   4.918   0.399   7.209 -0.1210 -0.0793 -0.0565
  808MOL0     N 8962   4.994   0.399   7.083  0.3800 -0.0979 -0.0819
  808MOL0     C 8963   4.985   0.300   6.982 -0.3879 -0.3180  0.0774
  808MOL0     C 8964   5.077   0.348   6.893 -0.5990  1.0921 -0.1624
  808MOL0     C 8965   5.106   0.263   6.771  0.7248 -0.4625  0.5556
  808MOL0     C 8966   5.223   0.314   6.685  0.5669 -0.9774  0.4105
  808MOL0     C 8967   5.359   0.329   6.760  0.7972  0.2725 -0.4597
  808MOL0     C 8968   5.479   0.300   6.653 -0.2411 -0.3024 -0.2283
  808MOL0     O 8969   5.496   0.409   6.566 -0.6907  0.4277  0.7845
  808MOL0     C 8970   5.555   0.379   6.449  1.4876 -1.1544  0.7741
  808MOL0     C 8971   5.665   0.303   6.428  0.2856 -0.0995  0.6082
  808MOL0     C 8972   5.723   0.283   6.305  0.1224 -0.3079  0.7437
  808MOL0     C 8973   5.848   0.207   6.313  0.1569  0.2291  0.6556
  808MOL0     C 8974   5.675   0.354   6.193  0.3009  0.9108  0.5294
  808MOL0     C 8975   5.730   0.336   6.064  0.2389  0.2035  0.1564
  808MOL0     O 8976   5.684   0.422   5.967 -0.7144  0.0998 -1.0255
  808MOL0     C 8977   5.741   0.434   5.840  0.5789  0.6160 -0.9863
  808MOL0     C 8978   5.878   0.421   5.811 -0.1020 -0.5470 -0.6339
  808MOL0     C 8979   5.920   0.443   5.685 -0.6728 -0.1317  0.9121
  808MOL0     C 8980   5.833   0.467   5.578  0.3279  0.3864 -0.6413
  808MOL0     O 8981   5.883   0.471   5.453 -0.0613 -0.6857  0.2964
  808MOL0     C 8982   5.799   0.523   5.347  0.5173 -0.0169  0.0503
  808MOL0     C 8983   5.873   0.549   5.219  0.1887 -0.1636 -0.1736
  808MOL0     C 8984   5.935   0.418   5.153 -0.3603  0.0920  0.2927
  808MOL0     C 8985   5.847   0.292   5.134  0.6122  0.3190  0.4141
  808MOL0     C 8986   5.911   0.198   5.041 -0.2799 -0.3566  0.5420
  808MOL0     C 8987   6.032   0.131   5.107  0.0101  0.1702 -0.3297
  808MOL0     C 8988   6.093   0.032   5.003 -0.1511  1.2728 -0.0873
  808MOL0     C 8989   6.183   0.106   4.900 -0.8749  0.7286  0.2951
  808MOL0    Cl 8990   6.151   0.049   4.730  0.1414  0.3337  0.0518
  808MOL0     C 8991   5.697   0.473   5.610 -0.2092 -0.6610  0.6640
  808MOL0     C 8992   5.652   0.462   5.737  0.6551 -0.0180  0.0861
  808MOL0     O 8993   5.805   0.245   6.040  0.0111 -0.7925  0.3456
  808MOL0     C 8994   5.565   0.443   6.209 -0.8650  0.1658 -0.0825
  808MOL0     C 8995   5.512   0.459   6.343 -0.4406 -1.0006  0.0232
  808MOL0     N 8996   5.144   0.472   6.938 -0.2776  0.6178  0.3678
  808MOL0     N 8997   5.093   0.502   7.048 -0.9011  0.5308  0.0629
  808MOL0     C 8998   4.737   0.669   7.768  0.3248 -0.5120  0.2685
  808MOL0     C 8999   4.857   0.617   7.814  0.0402 -0.2418 -0.1463
  808MOL0     C 9000   5.260   0.337   7.795  0.9039  0.2482 -0.5135
  808MOL0     C 9001   5.258   0.333   7.938  0.4546  0.1130  0.0866
  808MOL0     C 9002   5.340   0.248   8.009 -1.7148  0.6076 -0.0288
  808MOL0     C 9003   5.437   0.175   7.942 -0.0137 -0.5797 -0.1931
  808MOL0     O 9004   5.544   0.102   7.993  0.0183 -0.4823  0.1145
  808MOL0     C 9005   5.565   0.108   8.134 -0.3511  1.0153 -0.5772
  808MOL0     C 9006   5.498  -0.023   8.183 -0.0633 -0.8967 -0.0762
  808MOL0     C 9007   5.486  -0.037   8.335  0.0134  0.4269  0.2962
  808MOL0     C 9008   5.488  -0.181   8.378 -0.3719 -0.4217  0.2349
  808MOL0     C 9009   5.483  -0.189   8.523 -0.7483  0.2569 -0.3631
  808MOL0     C 9010   5.477  -0.206   8.643 -0.2094 -0.0386 -0.0756
  808MOL0     C 9011   5.439   0.182   7.801 -0.4923  0.5871  0.0375
  808MOL0     C 9012   5.349   0.254   7.727 -0.8405  0.3525 -0.3669
  808MOL0     H 9013   4.913   0.362   7.586  0.9187  0.1392  0.3748
  808MOL0     H 9014   4.699   0.452   7.513  1.6715  1.2292 -2.1549
  808MOL0     H 9015   4.473   0.814   7.657 -0.2506  0.5376  0.3334
  808MOL0     H 9016   4.599   0.837   7.534  1.0827 -0.3002  0.7138
  808MOL0     H 9017   4.313   0.743   7.522  0.3950  2.9015  0.7206
  808MOL0     H 9018   4.380   0.859   7.420 -1.2260  1.0717  1.2754
  808MOL0     H 9019   4.443   0.556   7.409  0.2278  1.0283  1.0628
  808MOL0     H 9020   4.346   0.650   7.277 -0.1438  6.0304 -0.8223
  808MOL0     H 9021   4.573   0.755   7.225  2.3826 -2.2045 -2.6007
  808MOL0     H 9022   4.639   0.643   7.341 -0.1446 -1.8721  0.5051
  808MOL0     H 9023   4.518   0.458   7.192  4.0038 -2.1705  1.2918
  808MOL0     H 9024   4.493   0.586   7.075 -2.1420 -0.7204  2.1878
  808MOL0     H 9025   4.685   0.473   7.005 -0.5618  2.0714 -0.3654
  808MOL0     H 9026   4.756   0.607   7.102 -0.2105  0.0934  2.2830
  808MOL0     H 9027   4.738   0.442   7.309 -2.6327  2.0426 -1.3742
  808MOL0     H 9028   4.725   0.308   7.187  1.8321 -0.7644 -0.1850
  808MOL0     H 9029   4.947   0.305   7.257  0.3617  0.9535  1.7942
  808MOL0     H 9030   4.954   0.475   7.280 -1.1021  0.4735 -0.1254
  808MOL0     H 9031   4.929   0.208   6.969 -2.7764  1.4309 -3.9803
  808MOL0     H 9032   5.139   0.168   6.813  0.8299  0.1575  1.9221
  808MOL0     H 9033   5.009   0.245   6.725  0.2266 -2.8518  2.3596
  808MOL0     H 9034   5.194   0.416   6.661  1.0699 -1.4079 -2.4531
  808MOL0     H 9035   5.247   0.260   6.592  1.6890 -1.9048  1.1948
  808MOL0     H 9036   5.357   0.256   6.842 -1.5599 -1.3932 -1.8525
  808MOL0     H 9037   5.376   0.424   6.811  2.3024 -1.0099  1.5948
  808MOL0     H 9038   5.466   0.209   6.594 -3.3653 -0.5296  0.6403
  808MOL0     H 9039   5.567   0.298   6.718 -1.5488 -1.3929  1.6196
  808MOL0     H 9040   5.711   0.253   6.512  2.4941  0.5224 -0.1648
  808MOL0     H 9041   5.935   0.267   6.286 -0.6305  1.2598  0.3442
  808MOL0     H 9042   5.864   0.176   6.416 -0.7446  1.2963  1.1395
  808MOL0     H 9043   5.836   0.116   6.253  1.2088  1.6719 -1.9441
  808MOL0     H 9044   5.945   0.418   5.897 -0.1939  0.6075 -0.4967
  808MOL0     H 9045   6.024   0.457   5.656 -0.8751 -3.0494 -1.8337
  808MOL0     H 9046   5.733   0.442   5.313  3.6482 -1.8170 -2.4304
  808MOL0     H 9047   5.743   0.609   5.384 -2.8622 -0.5166 -3.3022
  808MOL0     H 9048   5.799   0.595   5.153 -1.7180 -0.5234  1.6204
  808MOL0     H 9049   5.954   0.622   5.218 -0.2942  0.5637 -4.3449
  808MOL0     H 9050   6.024   0.392   5.211  2.6520 -0.6901 -4.1720
  808MOL0     H 9051   5.972   0.442   5.053 -0.0909  3.2966  1.0435
  808MOL0     H 9052   5.829   0.247   5.232  0.6017 -2.6473 -0.8547
  808MOL0     H 9053   5.751   0.329   5.097  0.2408  0.1259  1.1599
  808MOL0     H 9054   5.937   0.247   4.947 -3.5046 -0.7952 -0.7159
  808MOL0     H 9055   5.851   0.112   5.008  1.9061 -1.7414 -0.0261
  808MOL0     H 9056   6.097   0.211   5.141  3.0938 -1.8832 -0.9861
  808MOL0     H 9057   5.999   0.069   5.191  0.8589  1.6682  1.1503
  808MOL0     H 9058   6.020  -0.035   4.956  0.6145 -0.1819  0.7422
  808MOL0     H 9059   6.163  -0.034   5.056  0.6282 -0.1399 -2.6901
  808MOL0     H 9060   6.287   0.075   4.918 -1.0281  0.1759  0.2377
  808MOL0     H 9061   6.187   0.215   4.908  0.1625  0.8731 -1.5318
  808MOL0     H 9062   5.624   0.506   5.536 -1.2936 -0.0473  1.9785
  808MOL0     H 9063   5.546   0.478   5.755  0.9343  0.6375  1.2838
  808MOL0     H 9064   5.514   0.503   6.135  0.0621  2.3483  0.9724
  808MOL0     H 9065   5.422   0.514   6.369  0.0058  0.5115 -1.4446
  808MOL0     H 9066   4.681   0.755   7.804  1.4407 -0.1593  1.1884
  808MOL0     H 9067   4.898   0.676   7.895  1.7420 -1.3221 -0.1612
  808MOL0     H 9068   5.186   0.400   7.984 -2.6143  1.4670 -5.6483
  808MOL0     H 9069   5.336   0.246   8.117  2.2929 -2.6807  0.2897
  808MOL0     H 9070   5.670   0.110   8.163  0.6146  1.5441 -3.8070
  808MOL0     H 9071   5.525   0.201   8.173 -1.2870  0.9374 -1.3187
  808MOL0     H 9072   5.555  -0.106   8.139  0.6730 -0.5077  0.1324
  808MOL0     H 9073   5.396  -0.020   8.144 -0.7871 -0.6060  1.7515
  808MOL0     H 9074   5.402   0.016   8.381 -0.0733  1.0917 -0.5875
  808MOL0     H 9075   5.571   0.028   8.361 -0.3296  1.2084 -0.4666
  808MOL0     H 9076   5.577  -0.222   8.329 -0.1000 -0.7649  1.0088
  808MOL0     H 9077   5.399  -0.230   8.337 -1.5219  1.0961  0.8063
  808MOL0     H 9078   5.476  -0.241   8.744  1.0921 -2.4052 -0.8174
  808MOL0     H 9079   5.508   0.110   7.755  1.5152  1.6541  1.2335
  808MOL0     H 9080   5.352   0.243   7.619 -0.1041  3.1771 -0.7238
  809MOL0     O 9081   8.786  11.303   7.148  0.1392  0.8898 -0.2826
  809MOL0     C 9082   8.675  11.348   7.112  0.6699 -0.0596  0.2351
  809MOL0     O 9083   8.562  11.272   7.096  0.3416  0.4362 -0.7992
  809MOL0     C 9084   8.557  11.149   7.164  0.5660  0.2172  0.2669
  809MOL0     C 9085   8.502  11.039   7.092 -0.2279 -0.1920  0.2147
  809MOL0     C 9086   8.494  10.914   7.156  1.1044 -0.1391 -0.6723
  809MOL0     C 9087   8.528  10.900   7.291 -0.2605 -0.0064  1.2485
  809MOL0     O 9088   8.527  10.782   7.351 -0.0203  0.5389 -0.1088
  809MOL0     C 9089   8.636  10.699   7.309 -0.1958  0.9604  0.2314
  809MOL0     C 9090   8.623  10.556   7.371 -0.6945  0.3390  0.0932
  809MOL0     C 9091   8.663  10.565   7.517  0.0531  0.3668  0.1465
  809MOL0     C 9092   8.700  10.429   7.580  0.6093  0.5412  0.8444
  809MOL0     C 9093   8.743  10.440   7.717 -0.6356  0.4782 -0.0893
  809MOL0     C 9094   8.774  10.315   7.795 -0.0425 -0.0549  0.2483
  809MOL0     C 9095   8.748  10.323   7.945  0.3403  0.3595 -0.0267
  809MOL0     C 9096   8.752  10.193   8.008 -0.5849  0.6711 -0.3592
  809MOL0     N 9097   8.887  10.160   8.055  0.4286  0.2711 -0.5774
  809MOL0     C 9098   9.002  10.132   7.985 -0.1635 -1.0302  0.5991
  809MOL0     C 9099   9.091  10.085   8.067 -0.1422 -0.6286  0.0118
  809MOL0     C 9100   9.214  10.015   8.010  0.5958  0.5271  0.1402
  809MOL0     C 9101   9.345  10.072   8.075 -0.1803 -0.5099 -0.7186
  809MOL0     C 9102   9.373  10.011   8.210  0.4071 -0.1086 -0.2401
  809MOL0     C 9103   9.476  10.094   8.282  0.6630 -1.0304 -0.1209
  809MOL0     O 9104   9.449  10.231   8.270 -0.3456 -0.0763  1.0266
  809MOL0     C 9105   9.501  10.312   8.362 -0.7050  0.1639  0.1419
  809MOL0     C 9106   9.634  10.320   8.398  0.7995  0.9970  0.3872
  809MOL0     C 9107   9.668  10.404   8.509 -1.0023  0.0570 -0.3131
  809MOL0     C 9108   9.821  10.391   8.551  0.0032  0.5245 -0.3958
  809MOL0     C 9109   9.576  10.493   8.570 -0.0607  0.5724  0.1917
  809MOL0     C 9110   9.603  10.586   8.676 -0.6304 -0.3423  0.0307
  809MOL0     O 9111   9.737  10.632   8.691 -0.0029  1.0946  0.1215
  809MOL0     C 9112   9.752  10.745   8.773  0.2908  0.9156 -0.6054
  809MOL0     C 9113   9.740  10.742   8.915 -0.4974  0.2987 -0.7864
  809MOL0     C 9114   9.760  10.863   8.990 -0.0787 -0.5787 -0.2786
  809MOL0     C 9115   9.769  10.984   8.930  0.5505 -0.5143 -0.0070
  809MOL0     O 9116   9.777  11.100   9.001 -0.4505 -0.3746  0.4271
  809MOL0     C 9117   9.800  11.226   8.942 -0.7232 -0.0950 -0.4057
  809MOL0     C 9118   9.838  11.326   9.034 -1.1458  0.5274  1.0312
  809MOL0     C 9119   9.971  11.277   9.096  0.6296  0.5215 -0.6592
  809MOL0     C 9120  10.094  11.283   9.011 -0.1669 -0.9475 -0.4608
  809MOL0     C 9121  10.224  11.268   9.100 -0.2707  0.3083 -0.0409
  809MOL0     C 9122  10.237  11.143   9.182 -0.0220  0.1657 -0.7594
  809MOL0     C 9123  10.382  11.116   9.233 -0.5126 -0.6266 -0.0601
  809MOL0     C 9124  10.393  10.986   9.297 -0.0495  0.3790  0.5286
  809MOL0    Cl 9125  10.569  10.956   9.329 -0.2114 -0.0656 -0.1141
  809MOL0     C 9126   9.768  10.993   8.784 -0.7852 -0.0521  0.8565
  809MOL0     C 9127   9.766  10.876   8.711 -0.5219  1.1644  0.4531
  809MOL0     O 9128   9.512  10.624   8.739  0.0953 -0.0275 -0.3725
  809MOL0     C 9129   9.443  10.484   8.521  0.0477 -0.6898  1.0215
  809MOL0     C 9130   9.409  10.400   8.424  0.5658 -0.5162  0.8123
  809MOL0     N 9131   9.033  10.099   8.197  0.5388 -0.2317 -0.4415
  809MOL0     N 9132   8.913  10.142   8.181  0.4281  0.7394 -0.3831
  809MOL0     C 9133   8.575  11.009   7.365 -1.2442  0.3716 -0.4507
  809MOL0     C 9134   8.605  11.121   7.292  0.4938 -0.8744 -0.1129
  809MOL0     C 9135   8.662  11.480   7.054  0.7019  0.5282 -0.6841
  809MOL0     C 9136   8.547  11.519   6.977 -0.6788  0.0752  0.3784
  809MOL0     C 9137   8.538  11.650   6.932  0.1033  0.7314  0.3571
  809MOL0     C 9138   8.637  11.736   6.939  0.0232 -0.9243  0.0031
  809MOL0     O 9139   8.609  11.864   6.883 -0.3721  0.4685  0.7314
  809MOL0     C 9140   8.685  11.976   6.923  1.1640 -0.6018  0.7969
  809MOL0     C 9141   8.638  12.103   6.854  1.1467  0.4154  0.5603
  809MOL0     C 9142   8.680  12.106   6.704 -0.5958  0.0457  0.6600
  809MOL0     C 9143   8.617  11.999   6.609  1.1902  0.3619 -0.3768
  809MOL0     C 9144   8.630  12.046   6.475  0.0063 -0.4959  0.1365
  809MOL0     C 9145   8.649  12.096   6.367 -0.5886  1.0061 -0.2219
  809MOL0     C 9146   8.748  11.705   7.008  0.2581 -0.7459 -0.3181
  809MOL0     C 9147   8.759  11.584   7.069  0.4968 -0.2391 -0.5324
  809MOL0     H 9148   8.452  11.058   6.997 -1.2118  1.9750  1.0824
  809MOL0     H 9149   8.459  10.833   7.092  0.6102  0.8542 -1.6993
  809MOL0     H 9150   8.625  10.673   7.203  2.7634  0.5205 -0.0708
  809MOL0     H 9151   8.735  10.743   7.327  0.3503  0.3632 -1.0989
  809MOL0     H 9152   8.527  10.511   7.346  0.5323 -0.0630 -4.7861
  809MOL0     H 9153   8.700  10.494   7.326  0.2186  2.8392 -2.0465
  809MOL0     H 9154   8.740  10.641   7.533  0.8982  0.1382 -2.3976
  809MOL0     H 9155   8.577  10.597   7.576  1.8473  0.2965  2.9499
  809MOL0     H 9156   8.610  10.366   7.581  1.1315 -0.3573  4.1736
  809MOL0     H 9157   8.783  10.376   7.531 -1.6302 -0.2694 -2.4252
  809MOL0     H 9158   8.833  10.502   7.706  0.5613 -0.7925  1.8038
  809MOL0     H 9159   8.662  10.492   7.769  0.1014  2.2019 -0.6060
  809MOL0     H 9160   8.719  10.227   7.760 -0.3528 -0.3520  1.4347
  809MOL0     H 9161   8.882  10.299   7.787  0.2328  1.6252  0.1942
  809MOL0     H 9162   8.811  10.401   7.989  0.5671 -0.6509  1.5304
  809MOL0     H 9163   8.645  10.355   7.961 -0.1417 -2.0178  2.5370
  809MOL0     H 9164   8.716  10.112   7.944 -2.3628  0.1007  1.2676
  809MOL0     H 9165   8.685  10.186   8.094 -1.9013  0.5896 -1.3624
  809MOL0     H 9166   9.014  10.136   7.877 -0.5711 -0.7557  0.5621
  809MOL0     H 9167   9.201   9.909   8.030 -2.3714  0.9481  0.9358
  809MOL0     H 9168   9.221  10.021   7.901 -0.7461 -2.2252 -0.1795
  809MOL0     H 9169   9.318  10.177   8.079 -2.2682 -1.0089  2.6309
  809MOL0     H 9170   9.427  10.059   8.003 -0.2831 -0.8542 -0.7767
  809MOL0     H 9171   9.403   9.907   8.197 -2.0895 -1.3095  2.5068
  809MOL0     H 9172   9.285  10.005   8.275  0.3443 -1.4254 -0.4279
  809MOL0     H 9173   9.576  10.087   8.237  0.8232  3.9789 -1.1357
  809MOL0     H 9174   9.498  10.073   8.387  1.9402 -0.6853 -0.2947
  809MOL0     H 9175   9.699  10.245   8.352  2.3901  2.5045  0.0752
  809MOL0     H 9176   9.871  10.479   8.509 -1.3384  1.2645 -0.5223
  809MOL0     H 9177   9.839  10.402   8.658 -0.6685 -0.4104 -0.1725
  809MOL0     H 9178   9.851  10.290   8.523 -2.2188  0.3075 -2.3064
  809MOL0     H 9179   9.719  10.655   8.975 -0.0740  0.9771  0.3899
  809MOL0     H 9180   9.771  10.854   9.098  0.9126 -1.2080 -0.4187
  809MOL0     H 9181   9.877  11.221   8.865 -0.4442  0.3087 -0.1557
  809MOL0     H 9182   9.717  11.258   8.878 -0.9176 -1.1429 -0.7022
  809MOL0     H 9183   9.846  11.421   8.981 -1.7863 -0.8957 -1.8612
  809MOL0     H 9184   9.758  11.328   9.109 -0.4003 -0.7070  1.9041
  809MOL0     H 9185   9.954  11.173   9.127  1.0082  0.2861 -1.2061
  809MOL0     H 9186   9.989  11.334   9.187 -1.5903 -1.1299  0.9243
  809MOL0     H 9187  10.093  11.206   8.932 -1.7886 -1.0971 -0.3228
  809MOL0     H 9188  10.096  11.388   8.982  2.5412  0.4324  3.8167
  809MOL0     H 9189  10.231  11.345   9.178  0.8529  0.3681 -0.1856
  809MOL0     H 9190  10.310  11.288   9.035 -0.0307  0.1222  0.2091
  809MOL0     H 9191  10.182  11.152   9.276 -0.9406 -2.5977 -0.9644
  809MOL0     H 9192  10.197  11.056   9.131 -2.5554 -1.4811  3.4737
  809MOL0     H 9193  10.405  11.182   9.318 -0.9446 -0.8001  0.1921
  809MOL0     H 9194  10.459  11.126   9.155  2.5501  1.4525  2.9310
  809MOL0     H 9195  10.358  10.908   9.229  0.9249 -1.7716  2.3407
  809MOL0     H 9196  10.347  10.972   9.395  0.5131 -0.3781  0.7062
  809MOL0     H 9197   9.786  11.081   8.723  3.0473 -1.2435  0.0183
  809MOL0     H 9198   9.769  10.878   8.602  1.3783 -3.3622  0.1683
  809MOL0     H 9199   9.366  10.545   8.566 -1.1914 -1.3117 -0.1569
  809MOL0     H 9200   9.308  10.419   8.387  1.5768  2.6495 -0.6053
  809MOL0     H 9201   8.602  10.999   7.470 -2.5158 -1.9419 -0.2811
  809MOL0     H 9202   8.656  11.197   7.350  0.5343 -1.1184  0.1785
  809MOL0     H 9203   8.465  11.453   6.951  1.2559 -2.0663 -0.6592
  809MOL0     H 9204   8.448  11.697   6.893 -0.9667 -1.4737  0.0200
  809MOL0     H 9205   8.680  11.973   7.032 -0.1266  0.5256  0.7935
  809MOL0     H 9206   8.792  11.961   6.904  1.0505 -1.6040  0.8778
  809MOL0     H 9207   8.691  12.182   6.907  0.7425  3.7693 -3.5664
  809MOL0     H 9208   8.531  12.123   6.863  0.1511 -3.7902  0.5742
  809MOL0     H 9209   8.788  12.088   6.706 -0.4992  0.5038 -0.0179
  809MOL0     H 9210   8.680  12.212   6.675  4.4288  1.3341  4.0494
  809MOL0     H 9211   8.513  11.967   6.623  1.7170 -0.6918  1.6307
  809MOL0     H 9212   8.670  11.906   6.631 -0.4711 -0.6181 -0.3564
  809MOL0     H 9213   8.663  12.131   6.267 -0.4265 -3.5720 -2.0158
  809MOL0     H 9214   8.832  11.771   7.024  1.4761 -1.8965 -1.7452
  809MOL0     H 9215   8.843  11.557   7.134  0.1999  2.3337  1.0330
  810MOL0     O 9216   1.068   9.517   3.343 -0.6051  0.3284 -1.2166
  810MOL0     C 9217   1.179   9.540   3.386  0.1650 -0.1445  0.4662
  810MOL0     O 9218   1.290   9.500   3.329 -0.0852  0.0439 -0.0010
  810MOL0     C 9219   1.287   9.401   3.228 -0.7291 -1.3093  0.3169
  810MOL0     C 9220   1.267   9.265   3.253 -0.7329 -0.2703 -0.2314
  810MOL0     C 9221   1.268   9.165   3.157  0.6135  0.1339 -0.2878
  810MOL0     C 9222   1.303   9.199   3.028 -0.2727  0.1868 -1.3610
  810MOL0     O 9223   1.304   9.099   2.931 -0.1133 -0.4920  0.6007
  810MOL0     C 9224   1.367   9.126   2.811 -0.2657 -0.0163 -0.1566
  810MOL0     C 9225   1.370   8.998   2.722  0.0406 -0.2991  0.3174
  810MOL0     C 9226   1.454   8.879   2.784  0.7555  1.1274  1.5136
  810MOL0     C 9227   1.438   8.746   2.712  0.2910  0.2317 -0.7295
  810MOL0     C 9228   1.502   8.634   2.786 -0.2396  0.5791  0.2974
  810MOL0     C 9229   1.465   8.493   2.717  0.3976  0.2096 -0.1467
  810MOL0     C 9230   1.475   8.369   2.809 -0.4577  0.0492 -0.5186
  810MOL0     C 9231   1.389   8.254   2.739 -0.3354 -0.5430 -0.2411
  810MOL0     N 9232   1.392   8.140   2.832  1.5366 -0.1639  0.1181
  810MOL0     C 9233   1.291   8.119   2.922  0.2596  0.1318  0.6923
  810MOL0     C 9234   1.336   8.012   2.991  0.8737 -0.8028  0.0315
  810MOL0     C 9235   1.279   7.973   3.124 -0.3199  0.1725  0.1216
  810MOL0     C 9236   1.287   8.094   3.224  0.2141  0.2366  0.2471
  810MOL0     C 9237   1.315   8.050   3.363 -0.3388 -0.1187  0.0910
  810MOL0     C 9238   1.186   7.972   3.422  0.1501 -0.5757 -0.7906
  810MOL0     O 9239   1.160   7.850   3.353 -0.3500 -0.2763 -0.0297
  810MOL0     C 9240   1.069   7.773   3.413  0.5069 -0.7231 -0.7988
  810MOL0     C 9241   1.029   7.779   3.538  0.0355 -0.8610 -0.3986
  810MOL0     C 9242   0.941   7.686   3.599  0.1690  1.1049 -0.5335
  810MOL0     C 9243   0.884   7.713   3.742 -0.2872  0.2506  0.1354
  810MOL0     C 9244   0.917   7.568   3.522  1.0515  0.7858  0.1446
  810MOL0     C 9245   0.835   7.452   3.578  0.4207  0.9408  0.7929
  810MOL0     O 9246   0.755   7.377   3.496 -0.2818  0.5265 -0.0078
  810MOL0     C 9247   0.686   7.265   3.533  0.2997  0.7091 -0.7848
  810MOL0     C 9248   0.603   7.251   3.644 -0.1120  0.0478  0.0770
  810MOL0     C 9249   0.517   7.140   3.651 -0.4142 -0.4836 -0.4814
  810MOL0     C 9250   0.533   7.031   3.566 -0.7130 -0.1602 -0.5303
  810MOL0     O 9251   0.462   6.921   3.599  0.6039 -0.6048 -0.0943
  810MOL0     C 9252   0.460   6.803   3.521  0.4206  0.0098 -0.0186
  810MOL0     C 9253   0.470   6.681   3.611 -0.9109  0.9439 -0.7195
  810MOL0     C 9254   0.488   6.554   3.528 -1.1592 -0.5245 -0.5927
  810MOL0     C 9255   0.476   6.428   3.604 -0.4348  0.3489 -0.3130
  810MOL0     C 9256   0.484   6.295   3.531 -0.2411  0.3133 -0.5608
  810MOL0     C 9257   0.625   6.235   3.521 -0.4348 -0.0229  0.3773
  810MOL0     C 9258   0.624   6.092   3.447  0.3696 -0.0738 -0.3318
  810MOL0     C 9259   0.631   6.124   3.299  0.0434 -0.0366  0.6291
  810MOL0    Cl 9260   0.471   6.162   3.208  0.0385  0.5755 -0.1868
  810MOL0     C 9261   0.630   7.051   3.460  0.0412  0.4086 -0.3725
  810MOL0     C 9262   0.711   7.163   3.442 -0.8475 -0.1182 -0.0299
  810MOL0     O 9263   0.847   7.432   3.694 -0.2700  0.1909 -0.0736
  810MOL0     C 9264   0.957   7.563   3.386 -0.2777  0.4458 -0.5866
  810MOL0     C 9265   1.040   7.661   3.344 -0.9121  0.9503  0.0490
  810MOL0     N 9266   1.459   7.970   2.936  1.6376 -1.0439  0.3621
  810MOL0     N 9267   1.489   8.040   2.840 -0.2030 -0.3815 -0.0731
  810MOL0     C 9268   1.320   9.330   3.001 -0.4039  0.3144 -0.0681
  810MOL0     C 9269   1.325   9.433   3.100  0.2191  0.5810  0.4882
  810MOL0     C 9270   1.193   9.617   3.508 -0.4257 -0.0734 -0.7333
  810MOL0     C 9271   1.298   9.602   3.598 -0.8262 -0.9281 -0.5625
  810MOL0     C 9272   1.294   9.669   3.716 -0.5137  0.6143  0.5635
  810MOL0     C 9273   1.189   9.755   3.761 -0.0517 -0.4983  0.2852
  810MOL0     O 9274   1.201   9.818   3.885  0.2094 -0.5691  0.7349
  810MOL0     C 9275   1.103   9.914   3.923 -0.6948  0.9992  0.1440
  810MOL0     C 9276   1.101  10.052   3.863 -0.7498 -1.0427 -0.0372
  810MOL0     C 9277   0.987  10.137   3.919  0.4727 -0.5432  0.6918
  810MOL0     C 9278   0.980  10.281   3.848 -0.7051  0.4034 -0.9383
  810MOL0     C 9279   1.107  10.355   3.865 -0.3035  0.8124 -0.3165
  810MOL0     C 9280   1.197  10.437   3.868  0.0251  0.5976 -1.5232
  810MOL0     C 9281   1.084   9.766   3.670  0.6995  0.7850 -0.9708
  810MOL0     C 9282   1.084   9.693   3.552  0.2105 -0.5826 -0.0773
  810MOL0     H 9283   1.232   9.230   3.350 -1.1292 -0.6053 -0.4895
  810MOL0     H 9284   1.254   9.060   3.181  0.5274  0.6175  2.0009
  810MOL0     H 9285   1.318   9.204   2.752  2.1660 -1.5440 -4.6616
  810MOL0     H 9286   1.472   9.151   2.829  0.1278  0.1250 -2.3656
  810MOL0     H 9287   1.267   8.962   2.723 -0.1258 -0.1722 -2.7362
  810MOL0     H 9288   1.395   9.024   2.618  0.1501 -1.3024  0.0881
  810MOL0     H 9289   1.560   8.907   2.788  1.7445 -2.1840  1.9690
  810MOL0     H 9290   1.410   8.847   2.879 -1.8588  0.2380  0.0751
  810MOL0     H 9291   1.333   8.718   2.698  0.2743  0.0550 -0.2542
  810MOL0     H 9292   1.479   8.753   2.611 -1.2926 -0.7521 -1.4941
  810MOL0     H 9293   1.610   8.648   2.788 -0.0438  0.1023 -2.5209
  810MOL0     H 9294   1.461   8.633   2.887  2.1767  3.7168  1.4556
  810MOL0     H 9295   1.362   8.497   2.680  0.4574  1.0368 -0.2330
  810MOL0     H 9296   1.530   8.485   2.630 -1.4758  0.5396 -1.6398
  810MOL0     H 9297   1.579   8.337   2.824 -1.1415 -1.6462  0.8214
  810MOL0     H 9298   1.442   8.401   2.908  2.6748  2.2466 -0.0052
  810MOL0     H 9299   1.456   8.227   2.657  2.9880  1.2631  1.6447
  810MOL0     H 9300   1.293   8.296   2.709  0.2174  1.9622  1.1918
  810MOL0     H 9301   1.212   8.187   2.950 -0.1056 -0.6853  1.6937
  810MOL0     H 9302   1.176   7.940   3.109  0.3562 -2.3798  0.5568
  810MOL0     H 9303   1.334   7.890   3.171 -1.4837  0.0271  1.3025
  810MOL0     H 9304   1.200   8.159   3.207  1.7979  1.9022 -2.0628
  810MOL0     H 9305   1.372   8.157   3.195  1.1635 -0.6690  0.9950
  810MOL0     H 9306   1.330   8.138   3.426 -2.4874  1.1013 -1.0101
  810MOL0     H 9307   1.405   7.988   3.356  0.9202  1.7350 -0.8682
  810MOL0     H 9308   1.102   8.041   3.407  0.8515  0.3125 -0.6861
  810MOL0     H 9309   1.218   7.962   3.527 -0.1542 -1.4912 -0.7767
  810MOL0     H 9310   1.057   7.860   3.604 -1.2626 -0.2308 -0.6109
  810MOL0     H 9311   0.795   7.654   3.764 -0.3002  1.2315  3.2365
  810MOL0     H 9312   0.965   7.686   3.810  0.1151 -3.5978 -1.6266
  810MOL0     H 9313   0.851   7.817   3.755 -2.0701 -0.6719  5.6125
  810MOL0     H 9314   0.597   7.321   3.727  1.1597 -0.5260  0.6789
  810MOL0     H 9315   0.436   7.136   3.723 -2.9415 -0.8521 -3.1520
  810MOL0     H 9316   0.367   6.800   3.464 -0.2552 -2.4593  1.0795
  810MOL0     H 9317   0.542   6.793   3.449  0.0314 -0.1529 -0.4390
  810MOL0     H 9318   0.561   6.696   3.669  0.4040  1.5653 -2.8278
  810MOL0     H 9319   0.378   6.665   3.669 -0.1964 -1.4390 -0.1251
  810MOL0     H 9320   0.589   6.563   3.485 -1.9211  3.3549 -1.9999
  810MOL0     H 9321   0.409   6.542   3.454  0.7546 -3.0089 -2.4030
  810MOL0     H 9322   0.550   6.436   3.685 -3.7626  3.1368  2.8250
  810MOL0     H 9323   0.384   6.431   3.663 -0.0031 -4.4078  1.0765
  810MOL0     H 9324   0.437   6.319   3.435 -0.5129  0.6852 -0.3386
  810MOL0     H 9325   0.417   6.224   3.580 -0.6558  0.8144 -0.3806
  810MOL0     H 9326   0.688   6.304   3.462  0.5589 -1.2646 -0.0619
  810MOL0     H 9327   0.672   6.235   3.620 -1.9406 -0.4782  1.1138
  810MOL0     H 9328   0.526   6.053   3.477  0.3013  0.6761  0.4630
  810MOL0     H 9329   0.713   6.032   3.469  0.3130 -0.1941 -0.4325
  810MOL0     H 9330   0.679   6.039   3.249 -2.4454  0.2859 -2.6595
  810MOL0     H 9331   0.699   6.206   3.272 -1.3979  0.6782 -1.0609
  810MOL0     H 9332   0.638   6.972   3.386 -2.2649  0.0586 -0.3258
  810MOL0     H 9333   0.785   7.170   3.364 -0.7477 -0.8954 -0.0124
  810MOL0     H 9334   0.945   7.478   3.320  3.5094 -1.1695  0.4845
  810MOL0     H 9335   1.089   7.668   3.248 -0.0677  2.0080  0.5379
  810MOL0     H 9336   1.346   9.363   2.901  3.3001  1.6406  1.1633
  810MOL0     H 9337   1.339   9.536   3.069  2.4704 -0.0791 -0.8748
  810MOL0     H 9338   1.370   9.528   3.564 -0.3623 -0.5518 -0.4099
  810MOL0     H 9339   1.381   9.666   3.782 -0.7514  5.6549  1.5194
  810MOL0     H 9340   1.006   9.871   3.896 -0.7934  0.3634  1.4224
  810MOL0     H 9341   1.112   9.931   4.031 -0.0514  2.9770 -0.1813
  810MOL0     H 9342   1.091  10.044   3.755  1.3623 -0.9166 -0.2870
  810MOL0     H 9343   1.196  10.103   3.880 -1.0057 -0.2325 -0.9638
  810MOL0     H 9344   0.994  10.147   4.028  3.4471  1.3113  0.4677
  810MOL0     H 9345   0.892  10.088   3.896  2.1410 -3.3539 -0.7581
  810MOL0     H 9346   0.891  10.338   3.876 -1.5648 -1.5730  0.6311
  810MOL0     H 9347   0.957  10.257   3.744  0.3737  0.2339 -1.1477
  810MOL0     H 9348   1.275  10.510   3.867  1.7716 -1.1599 -0.8585
  810MOL0     H 9349   0.997   9.819   3.708  1.1720  0.5495  0.5144
  810MOL0     H 9350   0.994   9.699   3.492  0.3258 -1.1971 -0.3111
  811MOL0     O 9351   5.262   2.447   9.406  0.3477 -0.2907  0.3025
  811MOL0     C 9352   5.340   2.416   9.315  0.3614  0.3132 -0.1720
  811MOL0     O 9353   5.469   2.440   9.315  0.9748  0.4299 -0.3118
  811MOL0     C 9354   5.524   2.517   9.407 -0.2503  0.7295 -0.3724
  811MOL0     C 9355   5.630   2.476   9.475 -0.1195 -0.3070 -0.2514
  811MOL0     C 9356   5.699   2.544   9.578  0.3262 -0.0805  0.1210
  811MOL0     C 9357   5.641   2.667   9.608 -0.4966 -0.4048 -0.3319
  811MOL0     O 9358   5.691   2.750   9.705 -0.3764 -0.3961 -0.0161
  811MOL0     C 9359   5.819   2.715   9.765  0.0796 -0.5393  0.5059
  811MOL0     C 9360   5.936   2.747   9.660  0.0373 -0.2434  0.5923
  811MOL0     C 9361   5.934   2.896   9.606 -0.1360 -0.9425  0.6587
  811MOL0     C 9362   5.951   2.984   9.722  0.0980 -0.4581  0.1324
  811MOL0     C 9363   5.986   3.113   9.665 -0.2883 -0.8723  0.1177
  811MOL0     C 9364   5.984   3.227   9.776 -0.2555  0.6764  0.0055
  811MOL0     C 9365   5.965   3.367   9.714  0.4057  0.1610 -0.2151
  811MOL0     C 9366   5.996   3.483   9.806 -0.5105  0.4487  0.1073
  811MOL0     N 9367   5.991   3.610   9.727  0.0650 -0.0051  0.3181
  811MOL0     C 9368   5.998   3.734   9.780  0.0129  0.1495  0.3184
  811MOL0     C 9369   6.014   3.818   9.679 -0.8226  0.5416 -0.2333
  811MOL0     C 9370   6.044   3.965   9.685 -0.3309 -0.2682 -0.0401
  811MOL0     C 9371   6.191   3.988   9.676  0.4440 -0.3351  0.3241
  811MOL0     C 9372   6.245   4.125   9.683  0.4636 -0.4082  0.3021
  811MOL0     C 9373   6.234   4.208   9.555 -0.6770  0.2939 -0.4437
  811MOL0     O 9374   6.309   4.331   9.573 -0.5219  0.5766  0.2929
  811MOL0     C 9375   6.297   4.433   9.486  0.3232 -0.7207 -1.2935
  811MOL0     C 9376   6.214   4.420   9.367 -0.2026  0.7447  0.5780
  811MOL0     C 9377   6.179   4.534   9.295  0.0994 -0.5920  0.0643
  811MOL0     C 9378   6.073   4.516   9.186 -0.1553 -0.4747  0.4280
  811MOL0     C 9379   6.243   4.661   9.325  0.2105 -0.4444 -0.5774
  811MOL0     C 9380   6.236   4.778   9.236 -0.0504  0.6391 -0.0506
  811MOL0     O 9381   6.239   4.899   9.302  0.2012  0.6386 -0.1993
  811MOL0     C 9382   6.202   5.018   9.240  0.2932  0.3019  0.8119
  811MOL0     C 9383   6.092   5.040   9.155 -0.0736 -0.8300  0.0370
  811MOL0     C 9384   6.086   5.165   9.099  0.1635  1.0282  0.2775
  811MOL0     C 9385   6.180   5.272   9.116  0.4140 -0.2652  1.0664
  811MOL0     O 9386   6.163   5.399   9.056  0.1520 -1.1460 -0.5319
  811MOL0     C 9387   6.043   5.413   8.971  0.8058  0.0414 -1.2048
  811MOL0     C 9388   6.048   5.552   8.915 -0.3515  0.0196 -0.9542
  811MOL0     C 9389   6.039   5.662   9.018 -0.7686 -0.3090 -0.2806
  811MOL0     C 9390   6.026   5.807   8.977 -1.1899 -0.4394  0.3779
  811MOL0     C 9391   5.927   5.836   8.855 -0.0538 -0.3657 -0.0480
  811MOL0     C 9392   5.877   5.975   8.836 -0.4794  0.6424  0.2605
  811MOL0     C 9393   5.961   6.097   8.825 -0.7119  0.1827  0.6432
  811MOL0     C 9394   5.872   6.214   8.784  0.4255 -0.6729  0.0805
  811MOL0    Cl 9395   5.965   6.328   8.675 -0.7228 -0.1906 -0.3402
  811MOL0     C 9396   6.296   5.233   9.186 -0.7631  0.5205  0.7129
  811MOL0     C 9397   6.305   5.112   9.246  0.2440  0.5586  0.4928
  811MOL0     O 9398   6.206   4.764   9.117 -0.0705 -0.0920 -0.6795
  811MOL0     C 9399   6.327   4.660   9.439  0.4559  0.2573  0.1001
  811MOL0     C 9400   6.351   4.560   9.518 -0.0616  0.8412 -0.8847
  811MOL0     N 9401   5.996   3.750   9.560 -1.3270  0.6837 -0.2887
  811MOL0     N 9402   5.983   3.625   9.593  0.4402  0.1808  0.1368
  811MOL0     C 9403   5.539   2.728   9.538  0.2881 -0.0544 -0.3528
  811MOL0     C 9404   5.478   2.648   9.439  0.4085  0.5163  0.5428
  811MOL0     C 9405   5.286   2.346   9.204  0.3447  0.0414  0.1821
  811MOL0     C 9406   5.369   2.289   9.101  0.3254  0.0884 -0.1873
  811MOL0     C 9407   5.325   2.237   8.983  0.8566 -0.2971  0.5040
  811MOL0     C 9408   5.190   2.253   8.944 -0.0578  0.4130  0.6033
  811MOL0     O 9409   5.164   2.218   8.819 -0.5538  0.2310 -0.6717
  811MOL0     C 9410   5.035   2.231   8.755  0.2132  0.3614  0.3762
  811MOL0     C 9411   5.011   2.380   8.721  0.2122  0.2596 -0.6296
  811MOL0     C 9412   4.863   2.418   8.685 -0.4371 -0.0361 -0.0058
  811MOL0     C 9413   4.821   2.536   8.766  0.7176  0.1811  0.0908
  811MOL0     C 9414   4.882   2.667   8.725 -0.7601 -0.2378 -0.0278
  811MOL0     C 9415   4.944   2.768   8.685  0.1750 -0.2816  0.9451
  811MOL0     C 9416   5.106   2.323   9.035 -0.0022  0.2820  0.6824
  811MOL0     C 9417   5.153   2.366   9.162  0.2632  1.0796  0.7518
  811MOL0     H 9418   5.658   2.371   9.466 -2.5442 -1.1651  0.9927
  811MOL0     H 9419   5.781   2.500   9.635 -1.5823 -0.6659  2.5934
  811MOL0     H 9420   5.836   2.774   9.856  2.4488 -1.5398  0.7943
  811MOL0     H 9421   5.811   2.611   9.795 -0.6046 -1.6081 -2.9059
  811MOL0     H 9422   6.037   2.734   9.699 -0.0475 -0.1509  0.8461
  811MOL0     H 9423   5.927   2.674   9.578  2.3244  2.2663 -2.1182
  811MOL0     H 9424   6.007   2.920   9.528 -1.0958  2.4560  0.6681
  811MOL0     H 9425   5.838   2.917   9.557  0.3740  0.0245  0.0312
  811MOL0     H 9426   5.854   3.002   9.770 -1.2597 -1.0730 -2.2478
  811MOL0     H 9427   6.024   2.948   9.796 -2.1241  0.3443  2.9014
  811MOL0     H 9428   6.084   3.102   9.617 -0.0446 -1.0514  0.6542
  811MOL0     H 9429   5.908   3.141   9.594  0.9685 -0.3759 -1.1127
  811MOL0     H 9430   5.898   3.217   9.842 -0.7462  0.2254 -0.6849
  811MOL0     H 9431   6.075   3.217   9.836  0.4844 -0.8112 -1.2670
  811MOL0     H 9432   6.021   3.366   9.620 -1.5793 -1.4450 -1.4625
  811MOL0     H 9433   5.861   3.379   9.683 -0.0097 -3.5509 -0.7337
  811MOL0     H 9434   6.098   3.468   9.842  0.1166  1.1062 -1.3128
  811MOL0     H 9435   5.923   3.481   9.888 -0.7592  3.4421  0.0783
  811MOL0     H 9436   6.013   3.751   9.886 -0.6038 -1.2141  0.6410
  811MOL0     H 9437   5.999   4.015   9.598 -1.8073 -2.3766 -0.5673
  811MOL0     H 9438   6.005   4.006   9.778  0.5881  1.4351 -0.3558
  811MOL0     H 9439   6.242   3.931   9.597  0.5089 -1.3973  1.1096
  811MOL0     H 9440   6.216   3.950   9.775 -2.8447 -2.7703  0.3801
  811MOL0     H 9441   6.349   4.108   9.713 -0.2761 -4.1949  1.1493
  811MOL0     H 9442   6.183   4.172   9.760  2.1995  1.1309  0.8442
  811MOL0     H 9443   6.130   4.235   9.535 -1.0624 -2.5522 -2.9872
  811MOL0     H 9444   6.284   4.147   9.479  2.0404  2.1148 -0.2588
  811MOL0     H 9445   6.168   4.322   9.354  0.3293  0.2344  2.2806
  811MOL0     H 9446   6.131   4.493   9.096  0.5888  0.7756  0.5694
  811MOL0     H 9447   5.996   4.443   9.211  0.0963 -0.7825  0.3205
  811MOL0     H 9448   6.020   4.610   9.168  1.5129  0.7133  1.3642
  811MOL0     H 9449   6.027   4.956   9.130 -2.7570  1.1277 -0.0761
  811MOL0     H 9450   5.998   5.174   9.037  0.7200 -1.9496 -1.0923
  811MOL0     H 9451   6.037   5.341   8.889 -1.2590  0.1777 -1.2127
  811MOL0     H 9452   5.964   5.396   9.044  1.6121 -2.1846 -0.7870
  811MOL0     H 9453   6.141   5.551   8.857 -0.2004 -2.2013 -0.7482
  811MOL0     H 9454   5.976   5.556   8.834 -0.5074 -1.2459 -0.8972
  811MOL0     H 9455   6.128   5.664   9.081 -1.0185  1.9499  0.0717
  811MOL0     H 9456   5.949   5.646   9.078 -1.0498 -0.8520 -0.8349
  811MOL0     H 9457   6.001   5.875   9.060 -0.1275  1.7303 -0.9989
  811MOL0     H 9458   6.130   5.832   8.952 -2.0166  0.4586 -2.4952
  811MOL0     H 9459   5.841   5.773   8.877 -2.2118  1.9393 -1.3250
  811MOL0     H 9460   5.981   5.809   8.764 -0.0732  1.4838 -0.6584
  811MOL0     H 9461   5.818   5.956   8.745  0.0424 -1.3091  0.2756
  811MOL0     H 9462   5.798   6.002   8.907 -1.0425  2.8790 -1.1194
  811MOL0     H 9463   6.035   6.082   8.745 -0.5905  0.2284  0.7460
  811MOL0     H 9464   6.019   6.114   8.916  1.2103  2.2456 -0.8375
  811MOL0     H 9465   5.831   6.261   8.874  1.1984 -1.2402  0.7441
  811MOL0     H 9466   5.797   6.172   8.717  0.6991 -1.7134  0.4048
  811MOL0     H 9467   6.383   5.297   9.189 -1.4317  1.4526  0.4774
  811MOL0     H 9468   6.393   5.088   9.304  1.8667 -2.4669 -2.8550
  811MOL0     H 9469   6.375   4.754   9.464 -0.1975  0.6330 -0.0177
  811MOL0     H 9470   6.420   4.565   9.602 -1.6031  0.4999  0.4499
  811MOL0     H 9471   5.488   2.819   9.567 -2.7426 -2.1771  1.5038
  811MOL0     H 9472   5.383   2.687   9.403  0.7106  2.3220  1.5515
  811MOL0     H 9473   5.473   2.272   9.127  0.1112 -0.2544  0.4584
  811MOL0     H 9474   5.385   2.175   8.917  2.7179  2.3245 -0.4460
  811MOL0     H 9475   5.038   2.178   8.660  1.4914  2.1828 -0.6707
  811MOL0     H 9476   4.955   2.193   8.819 -2.2940  1.7059 -1.7816
  811MOL0     H 9477   5.059   2.403   8.626 -3.4176 -1.3643 -3.0788
  811MOL0     H 9478   5.036   2.437   8.811 -3.5428  0.2386  0.6222
  811MOL0     H 9479   4.795   2.335   8.701 -0.5852 -0.1572 -1.1774
  811MOL0     H 9480   4.851   2.450   8.581 -0.2427  2.0959  0.5658
  811MOL0     H 9481   4.842   2.525   8.872 -1.8853  0.2435  0.6909
  811MOL0     H 9482   4.712   2.534   8.759  0.7781 -2.3353 -4.7567
  811MOL0     H 9483   4.989   2.857   8.647 -0.5006 -0.6534 -0.8035
  811MOL0     H 9484   5.012   2.361   8.996  1.8634  0.4489 -4.5327
  811MOL0     H 9485   5.099   2.439   9.222 -0.7435  1.2920 -0.3721
  812MOL0     O 9486   7.043   4.562   0.098 -0.1389 -0.4650  0.3737
  812MOL0     C 9487   7.130   4.601   0.025 -0.5481  0.4887  0.2685
  812MOL0     O 9488   7.234   4.690   0.056 -0.1702 -0.1926  0.2097
  812MOL0     C 9489   7.219   4.774   0.166 -0.3690 -0.6966 -0.1301
  812MOL0     C 9490   7.337   4.793   0.247  0.4076 -0.6602 -0.0492
  812MOL0     C 9491   7.324   4.847   0.379  0.0410  0.7265 -0.1403
  812MOL0     C 9492   7.201   4.891   0.427 -0.3791  0.2540 -0.1909
  812MOL0     O 9493   7.198   4.953   0.546 -0.3043  0.5222 -0.6004
  812MOL0     C 9494   7.098   5.052   0.574 -0.1454 -1.2370 -0.5675
  812MOL0     C 9495   7.146   5.176   0.494  0.0215  1.0249  0.1327
  812MOL0     C 9496   7.085   5.312   0.552 -0.0573 -0.3893 -0.3485
  812MOL0     C 9497   6.935   5.303   0.565  0.5239 -0.2640 -0.6207
  812MOL0     C 9498   6.870   5.420   0.623 -0.0239 -0.2129  0.2093
  812MOL0     C 9499   6.892   5.420   0.777 -0.7995  0.0783  0.0252
  812MOL0     C 9500   6.812   5.533   0.841 -0.7400 -0.4956  0.8823
  812MOL0     C 9501   6.904   5.665   0.845 -0.1330 -0.4480  0.2212
  812MOL0     N 9502   6.856   5.763   0.940  0.0823 -0.7244  0.1893
  812MOL0     C 9503   6.873   5.763   1.076 -0.1465  0.0403 -0.4952
  812MOL0     C 9504   6.854   5.892   1.127  0.9466  0.2808 -0.6965
  812MOL0     C 9505   6.862   5.942   1.266 -0.1370 -0.5271 -0.3612
  812MOL0     C 9506   6.992   5.954   1.328 -0.7197 -0.7639  0.3572
  812MOL0     C 9507   7.023   5.817   1.408  0.3152 -1.0848 -0.0110
  812MOL0     C 9508   7.166   5.833   1.467 -0.2019 -0.4707 -0.7641
  812MOL0     O 9509   7.264   5.850   1.365 -0.0801  0.0785  0.1836
  812MOL0     C 9510   7.346   5.750   1.330 -0.5800  0.4130  0.3643
  812MOL0     C 9511   7.334   5.605   1.337 -0.3929 -0.7166  0.1449
  812MOL0     C 9512   7.438   5.522   1.292 -0.3192  0.9906  0.0407
  812MOL0     C 9513   7.411   5.376   1.313 -0.3542 -0.1816  0.2242
  812MOL0     C 9514   7.553   5.572   1.235  0.9640  0.3010  1.0043
  812MOL0     C 9515   7.659   5.487   1.173 -0.4938 -0.6695  0.0240
  812MOL0     O 9516   7.775   5.555   1.156  0.1179 -0.3902 -0.2742
  812MOL0     C 9517   7.871   5.476   1.104 -0.7043  0.1930  0.9872
  812MOL0     C 9518   7.873   5.461   0.965 -0.4849 -0.0306  0.3329
  812MOL0     C 9519   7.971   5.392   0.895  0.3188  0.2303  0.3723
  812MOL0     C 9520   8.076   5.341   0.971 -0.7637  1.0741  0.1333
  812MOL0     O 9521   8.172   5.281   0.904 -0.1789 -0.0847 -0.3593
  812MOL0     C 9522   8.238   5.177   0.973 -0.0856 -0.4889 -0.6117
  812MOL0     C 9523   8.333   5.116   0.872 -0.3561  0.0005  0.2703
  812MOL0     C 9524   8.448   5.214   0.843 -0.2846 -0.2120  0.2724
  812MOL0     C 9525   8.514   5.170   0.711  0.1312 -0.0669  0.0286
  812MOL0     C 9526   8.620   5.279   0.671 -0.0953 -0.0686  0.3981
  812MOL0     C 9527   8.563   5.396   0.595  0.3039 -0.0311 -0.8552
  812MOL0     C 9528   8.487   5.364   0.465 -0.3323 -0.6925 -0.0814
  812MOL0     C 9529   8.569   5.344   0.336 -0.7209 -0.4879  0.2918
  812MOL0    Cl 9530   8.444   5.264   0.222  0.3990  0.1837 -0.0402
  812MOL0     C 9531   8.067   5.350   1.109 -0.2667 -0.7852  0.5430
  812MOL0     C 9532   7.967   5.420   1.180  0.5914 -0.4887 -0.0679
  812MOL0     O 9533   7.632   5.377   1.131 -0.3799 -0.9405 -1.0941
  812MOL0     C 9534   7.567   5.713   1.225  0.2234  0.7670 -0.6279
  812MOL0     C 9535   7.455   5.796   1.264 -0.0488  0.2223 -0.1253
  812MOL0     N 9536   6.819   5.976   1.021  0.0820  0.0316 -0.8825
  812MOL0     N 9537   6.818   5.895   0.913  0.6409  0.0636 -0.0521
  812MOL0     C 9538   7.089   4.868   0.345 -0.2589 -0.0184  0.2275
  812MOL0     C 9539   7.098   4.814   0.218  0.3015 -0.1064  0.2787
  812MOL0     C 9540   7.142   4.534  -0.112  1.3456  0.1931  0.9117
  812MOL0     C 9541   7.021   4.492  -0.183 -1.0953 -0.0550 -0.3537
  812MOL0     C 9542   7.032   4.427  -0.303 -0.5816  0.4486  0.5872
  812MOL0     C 9543   7.155   4.413  -0.368  0.0906  0.4394 -0.2463
  812MOL0     O 9544   7.187   4.349  -0.488 -0.2944 -0.8986 -0.1899
  812MOL0     C 9545   7.073   4.307  -0.559  1.0300 -0.1389  0.3926
  812MOL0     C 9546   7.135   4.248  -0.685 -0.7697 -0.8673  0.9009
  812MOL0     C 9547   7.043   4.160  -0.772 -0.4875 -0.4272 -0.4689
  812MOL0     C 9548   7.122   4.090  -0.880 -0.1383 -0.2282 -0.8125
  812MOL0     C 9549   7.151   4.181  -0.991 -0.0587 -0.5528  1.1092
  812MOL0     C 9550   7.170   4.251  -1.090 -0.3906  0.7932  0.1284
  812MOL0     C 9551   7.264   4.473  -0.308 -0.0943 -0.1603  0.1582
  812MOL0     C 9552   7.267   4.527  -0.181  0.1917  0.0124  0.5420
  812MOL0     H 9553   7.433   4.780   0.198  0.1779 -2.1942 -0.1523
  812MOL0     H 9554   7.408   4.854   0.448 -1.1529  2.7488  1.2439
  812MOL0     H 9555   6.991   5.037   0.553 -0.9921  3.4629 -0.8440
  812MOL0     H 9556   7.094   5.078   0.680 -3.9386 -0.9050 -0.6404
  812MOL0     H 9557   7.254   5.188   0.507  0.4838 -0.3355 -1.9035
  812MOL0     H 9558   7.128   5.156   0.388 -0.5399  1.8142  0.0631
  812MOL0     H 9559   7.132   5.325   0.650 -0.9710 -1.9525  0.3433
  812MOL0     H 9560   7.115   5.397   0.490  1.0277 -0.0410  0.6242
  812MOL0     H 9561   6.896   5.290   0.463 -1.1975 -0.2605 -0.0006
  812MOL0     H 9562   6.905   5.213   0.618 -0.7546  0.6685  0.3132
  812MOL0     H 9563   6.895   5.516   0.577  1.0145 -0.6295 -0.1454
  812MOL0     H 9564   6.763   5.410   0.604 -0.1699 -0.7130  1.2467
  812MOL0     H 9565   6.866   5.320   0.814 -1.0702  0.1099 -0.0790
  812MOL0     H 9566   6.995   5.436   0.810 -1.1684 -0.8911  1.8318
  812MOL0     H 9567   6.721   5.543   0.782 -0.0086 -0.4259 -0.2719
  812MOL0     H 9568   6.790   5.506   0.945 -2.0218 -0.3068  0.6736
  812MOL0     H 9569   6.924   5.713   0.749 -0.9280 -0.1476  0.2047
  812MOL0     H 9570   7.006   5.640   0.877  0.0901  1.6695  1.3947
  812MOL0     H 9571   6.899   5.672   1.130 -3.7290 -0.6378  0.3356
  812MOL0     H 9572   6.822   6.043   1.273  1.6251  0.4160 -2.6285
  812MOL0     H 9573   6.801   5.875   1.327  1.2342 -1.1136  0.4132
  812MOL0     H 9574   7.005   6.043   1.391  3.0091  1.9541 -3.7017
  812MOL0     H 9575   7.058   5.969   1.242  1.1371 -0.6745  1.7432
  812MOL0     H 9576   7.039   5.731   1.343 -0.1662 -3.3532  2.6871
  812MOL0     H 9577   6.958   5.797   1.493  1.3513  0.4352  1.2012
  812MOL0     H 9578   7.183   5.743   1.526 -0.4160  0.9124  1.5299
  812MOL0     H 9579   7.164   5.915   1.538 -1.2587  1.1836 -2.5979
  812MOL0     H 9580   7.245   5.556   1.378 -0.0105 -3.4104 -1.9690
  812MOL0     H 9581   7.504   5.328   1.344 -1.2526 -2.7175 -0.7236
  812MOL0     H 9582   7.337   5.359   1.392  0.4262  1.9953  1.5180
  812MOL0     H 9583   7.390   5.319   1.222 -1.3267  0.0126  0.3090
  812MOL0     H 9584   7.794   5.491   0.896  0.3280  0.7985 -0.2708
  812MOL0     H 9585   7.964   5.378   0.787  2.8762 -0.3044  0.2042
  812MOL0     H 9586   8.299   5.207   1.059  1.1582  4.1276 -2.7665
  812MOL0     H 9587   8.155   5.108   0.990 -2.0200  1.6962 -0.6777
  812MOL0     H 9588   8.361   5.020   0.915 -4.6971 -1.9450 -0.7255
  812MOL0     H 9589   8.274   5.092   0.784  1.0750 -1.2747 -0.3749
  812MOL0     H 9590   8.520   5.211   0.925  0.6795 -2.6491 -0.5681
  812MOL0     H 9591   8.399   5.311   0.846  0.3726  0.1114  0.9269
  812MOL0     H 9592   8.564   5.080   0.747  3.4758  2.1347  1.3828
  812MOL0     H 9593   8.450   5.141   0.627  0.5626  0.6342 -0.5587
  812MOL0     H 9594   8.709   5.235   0.624  1.3702 -1.6579  4.2204
  812MOL0     H 9595   8.670   5.307   0.765  3.7307  0.0230 -1.4573
  812MOL0     H 9596   8.504   5.442   0.676 -0.5237 -1.1495 -0.7938
  812MOL0     H 9597   8.644   5.464   0.568 -0.2150  2.7424  3.5794
  812MOL0     H 9598   8.429   5.453   0.438  2.0568  0.6921 -0.9505
  812MOL0     H 9599   8.434   5.269   0.474  1.4909 -1.8845 -1.1729
  812MOL0     H 9600   8.665   5.292   0.345 -0.5126  0.2081  2.9496
  812MOL0     H 9601   8.600   5.443   0.302 -3.1235  0.4473  0.6380
  812MOL0     H 9602   8.149   5.300   1.161  1.5069 -0.1908 -1.5377
  812MOL0     H 9603   7.962   5.442   1.287  0.1669 -0.4179 -0.1016
  812MOL0     H 9604   7.652   5.759   1.176 -1.2251  1.7913 -2.2829
  812MOL0     H 9605   7.481   5.902   1.264 -2.0913  0.7978 -2.0999
  812MOL0     H 9606   6.994   4.908   0.379  0.1368  0.8182  0.3898
  812MOL0     H 9607   7.004   4.784   0.173  0.3913  0.9558 -0.6545
  812MOL0     H 9608   6.926   4.496  -0.131  0.8626 -2.3436  3.9462
  812MOL0     H 9609   6.941   4.388  -0.346 -1.4578  0.5746  2.2443
  812MOL0     H 9610   7.015   4.235  -0.501  1.0370  0.8663  1.6860
  812MOL0     H 9611   7.004   4.390  -0.577  0.5288 -0.6246  0.0508
  812MOL0     H 9612   7.227   4.191  -0.668  1.0950  1.4537 -0.7305
  812MOL0     H 9613   7.167   4.327  -0.754  2.9372 -3.2589 -0.4110
  812MOL0     H 9614   6.972   4.229  -0.819 -0.2936  1.6157  2.0239
  812MOL0     H 9615   6.992   4.095  -0.700  1.4234  3.2526  4.7798
  812MOL0     H 9616   7.052   4.010  -0.907  1.2334 -1.1315 -1.7832
  812MOL0     H 9617   7.214   4.037  -0.855  0.0990  1.3189  2.0489
  812MOL0     H 9618   7.191   4.311  -1.175 -0.1595  0.1004 -0.3108
  812MOL0     H 9619   7.353   4.475  -0.370 -0.1324 -1.5190  0.0225
  812MOL0     H 9620   7.362   4.569  -0.151  1.6946  0.6302 -4.2128
  813MOL0     O 9621   1.269   3.530  10.496  0.1288 -0.1372  0.2891
  813MOL0     C 9622   1.390   3.521  10.509 -0.0937 -0.3767 -0.5883
  813MOL0     O 9623   1.489   3.587  10.428 -1.2637 -0.0182  0.1364
  813MOL0     C 9624   1.435   3.684  10.339  0.7264 -0.2165  0.0784
  813MOL0     C 9625   1.374   3.644  10.220 -0.2747  0.5455 -0.4027
  813MOL0     C 9626   1.333   3.740  10.129  0.2143 -0.6982 -0.5594
  813MOL0     C 9627   1.359   3.874  10.150 -1.0195 -0.3676  0.1210
  813MOL0     O 9628   1.335   3.970  10.055 -0.3986 -0.5212  0.2005
  813MOL0     C 9629   1.395   3.947   9.924  0.5046  0.2524  0.2733
  813MOL0     C 9630   1.361   4.064   9.835  0.2033 -0.2612  0.2563
  813MOL0     C 9631   1.390   4.027   9.688  0.1092 -0.1030  0.1500
  813MOL0     C 9632   1.257   4.008   9.600 -0.7862  0.1919  0.1877
  813MOL0     C 9633   1.294   3.907   9.492  0.2751 -0.4574  0.9666
  813MOL0     C 9634   1.176   3.905   9.387 -1.1739 -0.0674  0.0339
  813MOL0     C 9635   1.234   3.836   9.265  0.1917  0.9121  0.4554
  813MOL0     C 9636   1.263   3.681   9.275  1.3531  0.0725 -0.6554
  813MOL0     N 9637   1.152   3.594   9.227  0.9683 -0.3704 -0.7105
  813MOL0     C 9638   1.061   3.537   9.319  0.2692 -0.6407  0.3214
  813MOL0     C 9639   0.991   3.449   9.247  1.1174 -0.4755  0.5933
  813MOL0     C 9640   0.881   3.357   9.291  0.1398  0.2362 -0.4292
  813MOL0     C 9641   0.939   3.207   9.310  0.1317  0.1564  1.2667
  813MOL0     C 9642   1.082   3.190   9.353 -1.1428  0.3557  0.2071
  813MOL0     C 9643   1.143   3.060   9.288  0.1765 -0.6475  0.6243
  813MOL0     O 9644   1.079   2.941   9.322 -0.6501 -0.1422 -0.3898
  813MOL0     C 9645   1.080   2.898   9.450  0.0956 -0.1477  0.3007
  813MOL0     C 9646   0.976   2.820   9.510 -0.2734  0.3567  0.0372
  813MOL0     C 9647   0.979   2.777   9.651  0.1441  0.6603  0.8005
  813MOL0     C 9648   0.855   2.691   9.696 -0.5039  0.7372 -0.5376
  813MOL0     C 9649   1.092   2.823   9.724  0.6717  0.1500  0.9171
  813MOL0     C 9650   1.110   2.782   9.867  0.1168 -0.3090 -0.2642
  813MOL0     O 9651   1.221   2.841   9.924  0.1026  0.7076  0.5143
  813MOL0     C 9652   1.288   2.783  10.030 -0.3583  0.4761  0.0007
  813MOL0     C 9653   1.377   2.865  10.103 -0.0197  0.3606  0.2845
  813MOL0     C 9654   1.461   2.821  10.208  1.0355  0.3696 -0.2797
  813MOL0     C 9655   1.440   2.689  10.255 -0.8286  0.1517 -0.0590
  813MOL0     O 9656   1.511   2.649  10.366 -0.2024 -0.1356  0.6969
  813MOL0     C 9657   1.464   2.526  10.432  0.0772  0.8175 -0.6780
  813MOL0     C 9658   1.511   2.534  10.581 -0.3846 -0.0624 -0.6605
  813MOL0     C 9659   1.446   2.410  10.659  0.4024 -1.2008 -0.8156
  813MOL0     C 9660   1.474   2.414  10.817  0.1361  0.1146  0.2045
  813MOL0     C 9661   1.429   2.292  10.896  0.6736 -0.1073  0.0244
  813MOL0     C 9662   1.450   2.313  11.048 -0.4726 -0.1828 -0.1281
  813MOL0     C 9663   1.338   2.396  11.109  0.1154 -0.1610 -0.0139
  813MOL0     C 9664   1.332   2.369  11.251 -0.4568  1.2605 -0.0696
  813MOL0    Cl 9665   1.196   2.457  11.322 -0.2723 -0.0826  0.2076
  813MOL0     C 9666   1.346   2.612  10.187 -0.2727  0.1570 -0.1109
  813MOL0     C 9667   1.277   2.656  10.081  0.3335  0.6227  0.4017
  813MOL0     O 9668   1.035   2.709   9.927 -0.5034  0.0605  0.3413
  813MOL0     C 9669   1.186   2.904   9.662 -0.4957 -0.1258 -0.6586
  813MOL0     C 9670   1.181   2.945   9.531  0.2944 -0.3136 -0.0335
  813MOL0     N 9671   1.032   3.464   9.117  0.7499 -0.0785  0.1495
  813MOL0     N 9672   1.127   3.555   9.103 -0.1551 -0.7205  0.5749
  813MOL0     C 9673   1.427   3.911  10.267 -0.3548  0.5212 -0.4157
  813MOL0     C 9674   1.467   3.815  10.362 -0.1867 -0.0246  1.1192
  813MOL0     C 9675   1.442   3.432  10.609  0.3175 -0.6697  0.1994
  813MOL0     C 9676   1.374   3.401  10.726  0.1486  0.2466  0.1650
  813MOL0     C 9677   1.432   3.314  10.818  0.7060  0.2957  0.8686
  813MOL0     C 9678   1.559   3.262  10.797  0.6450 -0.5158 -0.2089
  813MOL0     O 9679   1.619   3.205  10.907  0.8873 -0.4318 -0.1766
  813MOL0     C 9680   1.727   3.113  10.877 -0.2702  0.7244  0.5231
  813MOL0     C 9681   1.783   3.037  10.999 -0.1018 -0.4889  0.5644
  813MOL0     C 9682   1.686   2.928  11.054 -0.7533 -0.2442 -1.1359
  813MOL0     C 9683   1.581   2.989  11.138 -0.0578  0.0135 -0.7710
  813MOL0     C 9684   1.518   2.895  11.231  0.2345  0.6349  1.2192
  813MOL0     C 9685   1.473   2.804  11.302 -0.0878  0.2695 -0.0458
  813MOL0     C 9686   1.626   3.293  10.670 -0.6645 -0.5779  0.5879
  813MOL0     C 9687   1.555   3.369  10.573  0.0615 -0.2010  1.1450
  813MOL0     H 9688   1.367   3.536  10.215  3.7201  0.2104 -3.4045
  813MOL0     H 9689   1.282   3.708  10.039  1.4263 -3.1411 -0.4761
  813MOL0     H 9690   1.500   3.916   9.927  0.2836 -0.4287  2.4553
  813MOL0     H 9691   1.345   3.858   9.884  1.3640 -0.1684  0.1087
  813MOL0     H 9692   1.257   4.095   9.846  0.2337 -0.8283  3.1360
  813MOL0     H 9693   1.431   4.142   9.869  1.1246 -0.6456 -0.6866
  813MOL0     H 9694   1.449   4.110   9.650 -0.8193  0.6054  0.2142
  813MOL0     H 9695   1.443   3.933   9.674 -0.3331 -0.3759  0.2840
  813MOL0     H 9696   1.178   3.965   9.663 -2.4954  0.7232 -1.5150
  813MOL0     H 9697   1.235   4.110   9.571 -1.3718  0.7644  2.4374
  813MOL0     H 9698   1.395   3.926   9.453  0.1949 -0.7710  0.5948
  813MOL0     H 9699   1.313   3.809   9.537 -0.0766  0.5150  3.3698
  813MOL0     H 9700   1.081   3.862   9.420  0.0875 -3.8124 -0.6876
  813MOL0     H 9701   1.147   4.009   9.372 -1.0411  0.6394  3.6628
  813MOL0     H 9702   1.173   3.841   9.174  0.7631 -1.5329 -0.1475
  813MOL0     H 9703   1.330   3.885   9.247 -0.7424  2.4891 -0.4723
  813MOL0     H 9704   1.283   3.658   9.380 -1.7477 -0.7297 -0.1353
  813MOL0     H 9705   1.355   3.655   9.222  2.2565 -2.7035  1.9444
  813MOL0     H 9706   1.041   3.557   9.423  2.7032 -0.8651  0.8781
  813MOL0     H 9707   0.820   3.395   9.374  2.5415  3.0622  0.2123
  813MOL0     H 9708   0.816   3.346   9.204  1.2215 -2.1626 -1.0109
  813MOL0     H 9709   0.922   3.160   9.212  0.5151  0.9930  0.7858
  813MOL0     H 9710   0.876   3.154   9.382  0.2136  0.9973  1.9742
  813MOL0     H 9711   1.075   3.180   9.462 -0.8762 -0.3926  0.1583
  813MOL0     H 9712   1.148   3.274   9.328 -0.0686  0.1944  2.2346
  813MOL0     H 9713   1.253   3.059   9.293  0.1681  0.5559  1.5153
  813MOL0     H 9714   1.110   3.061   9.184 -3.3955  2.5012  1.5506
  813MOL0     H 9715   0.892   2.786   9.450  1.1376 -1.0112 -1.2854
  813MOL0     H 9716   0.886   2.587   9.701  0.2322  0.9990  0.6562
  813MOL0     H 9717   0.813   2.731   9.789 -0.0627 -1.3364  0.5933
  813MOL0     H 9718   0.779   2.703   9.617  0.3114  1.9653 -1.1784
  813MOL0     H 9719   1.391   2.965  10.064  0.1134 -0.1921 -1.1919
  813MOL0     H 9720   1.529   2.896  10.246  0.4032  1.6951 -1.6448
  813MOL0     H 9721   1.356   2.510  10.433  0.0041  1.1184 -1.7799
  813MOL0     H 9722   1.504   2.435  10.385 -1.2353 -1.2393  1.9048
  813MOL0     H 9723   1.618   2.510  10.580 -0.5221 -1.1203  1.8672
  813MOL0     H 9724   1.500   2.628  10.636  0.6953  0.1984 -0.8653
  813MOL0     H 9725   1.476   2.313  10.617  0.7612 -1.6015  0.3083
  813MOL0     H 9726   1.337   2.408  10.645  0.0589 -3.8736  1.2838
  813MOL0     H 9727   1.581   2.434  10.832  0.5491  0.6625 -2.9238
  813MOL0     H 9728   1.431   2.505  10.860 -2.1224  0.9600 -3.3998
  813MOL0     H 9729   1.482   2.207  10.853  0.3705  0.0479 -0.6765
  813MOL0     H 9730   1.321   2.283  10.879  0.6976  1.3864 -1.1485
  813MOL0     H 9731   1.447   2.219  11.103 -1.0833  0.9142  1.8149
  813MOL0     H 9732   1.546   2.366  11.057  0.6646 -2.0666 -0.5488
  813MOL0     H 9733   1.240   2.369  11.066 -1.3333 -2.0931  3.9798
  813MOL0     H 9734   1.350   2.504  11.099 -3.5535  0.5082  1.0998
  813MOL0     H 9735   1.418   2.402  11.310 -0.8644 -1.1864  2.0713
  813MOL0     H 9736   1.322   2.262  11.270  4.1716  0.1930 -2.1190
  813MOL0     H 9737   1.324   2.506  10.202  0.1743 -0.3508 -2.6616
  813MOL0     H 9738   1.219   2.573  10.040  2.1556 -0.2337 -0.5642
  813MOL0     H 9739   1.278   2.936   9.709 -0.4926  0.3199 -0.9567
  813MOL0     H 9740   1.259   3.012   9.496 -3.7262  3.5392 -2.6217
  813MOL0     H 9741   1.455   4.015  10.276  0.5126  0.1988  0.9980
  813MOL0     H 9742   1.519   3.834  10.455  0.4752 -0.6544  0.8867
  813MOL0     H 9743   1.285   3.450  10.764 -1.0154 -2.1667  0.7085
  813MOL0     H 9744   1.376   3.304  10.910  3.4290 -2.2780  2.4587
  813MOL0     H 9745   1.682   3.050  10.799 -1.2904  1.4351  0.5156
  813MOL0     H 9746   1.812   3.166  10.834 -0.6586  0.6162 -0.4209
  813MOL0     H 9747   1.808   3.105  11.081  0.2256 -1.1356  1.0137
  813MOL0     H 9748   1.878   3.002  10.959  0.3203 -0.2903  1.3625
  813MOL0     H 9749   1.743   2.861  11.117 -1.0816 -1.0500 -1.6838
  813MOL0     H 9750   1.658   2.861  10.973 -0.9658 -1.5341 -0.0259
  813MOL0     H 9751   1.501   3.032  11.077 -0.3141  0.9027  0.1608
  813MOL0     H 9752   1.615   3.072  11.201 -0.6725  1.4510 -2.2533
  813MOL0     H 9753   1.419   2.742  11.370  1.9885 -2.4541 -0.7158
  813MOL0     H 9754   1.726   3.260  10.643 -0.3743  0.1911  0.6950
  813MOL0     H 9755   1.592   3.394  10.474  3.0440 -3.9213  1.0963
  814MOL0     O 9756  11.455   9.805   3.881  0.2557 -0.2195  0.3653
  814MOL0     C 9757  11.366   9.869   3.942 -1.7572 -0.6123  0.3802
  814MOL0     O 9758  11.302   9.975   3.887 -0.1102 -0.8721  0.9092
  814MOL0     C 9759  11.337  10.011   3.759 -0.8326  0.3137  0.5042
  814MOL0     C 9760  11.253   9.988   3.646 -0.4368  1.0106 -0.1920
  814MOL0     C 9761  11.288  10.045   3.530 -0.2715 -0.1838  0.1818
  814MOL0     C 9762  11.399  10.136   3.526  0.4814 -0.3048  0.0497
  814MOL0     O 9763  11.439  10.190   3.410 -0.4136  0.2986  0.0435
  814MOL0     C 9764  11.371  10.188   3.280  0.4447 -0.3695  0.5540
  814MOL0     C 9765  11.241  10.278   3.283 -0.1138  0.1080  0.1838
  814MOL0     C 9766  11.265  10.434   3.263  0.3607 -0.0713 -0.6163
  814MOL0     C 9767  11.365  10.487   3.376  0.1556 -0.1349 -1.9436
  814MOL0     C 9768  11.304  10.495   3.530 -0.3499 -0.3483  0.2115
  814MOL0     C 9769  11.209  10.606   3.540  0.5203 -0.4451 -0.5033
  814MOL0     C 9770  11.158  10.628   3.677  0.1096 -0.0670 -0.0196
  814MOL0     C 9771  11.013  10.574   3.686 -0.5178  0.3863 -0.4035
  814MOL0     N 9772  10.910  10.664   3.638 -0.9887  0.6348  0.6266
  814MOL0     C 9773  10.873  10.686   3.509  0.5537  0.7315  0.1536
  814MOL0     C 9774  10.770  10.771   3.515  0.3215  0.9250 -0.3414
  814MOL0     C 9775  10.691  10.834   3.412  0.4551  0.5388 -0.0391
  814MOL0     C 9776  10.556  10.763   3.387  0.3281 -0.5512  0.3311
  814MOL0     C 9777  10.466  10.850   3.297  0.5986  0.4331 -0.0255
  814MOL0     C 9778  10.335  10.792   3.262 -0.3126  0.4116  0.3135
  814MOL0     O 9779  10.340  10.680   3.177 -0.2182  0.3549  1.0004
  814MOL0     C 9780  10.222  10.611   3.141 -0.2715 -1.5525 -0.7085
  814MOL0     C 9781  10.094  10.634   3.187  0.3819  0.1051 -0.3164
  814MOL0     C 9782   9.979  10.555   3.156 -0.1048 -0.2298  0.6870
  814MOL0     C 9783   9.848  10.601   3.212  0.4654 -0.0587 -0.2559
  814MOL0     C 9784   9.994  10.449   3.059 -0.4319 -0.5753 -0.1809
  814MOL0     C 9785   9.892  10.354   3.003  0.3648 -1.7942 -0.0124
  814MOL0     O 9786   9.768  10.387   3.029 -0.2160 -1.0652  0.8005
  814MOL0     C 9787   9.653  10.323   2.981 -0.3784 -1.0244 -0.1797
  814MOL0     C 9788   9.536  10.366   3.044 -0.1057  0.3329  0.8131
  814MOL0     C 9789   9.413  10.315   2.998  0.2470  0.4481 -0.3181
  814MOL0     C 9790   9.405  10.222   2.892  0.6202 -0.4522 -1.0813
  814MOL0     O 9791   9.282  10.177   2.857  0.2306  0.4091  0.1509
  814MOL0     C 9792   9.271  10.138   2.717 -0.3928 -0.2082 -0.3117
  814MOL0     C 9793   9.127  10.112   2.663 -0.6345  1.0539 -0.2207
  814MOL0     C 9794   9.017  10.185   2.731 -0.5868  0.1711  0.1244
  814MOL0     C 9795   8.905  10.225   2.635  0.6047 -0.3853  0.9128
  814MOL0     C 9796   8.806  10.326   2.695 -0.2893  0.3826 -0.8718
  814MOL0     C 9797   8.778  10.290   2.842 -0.4982 -0.9611 -0.2899
  814MOL0     C 9798   8.667  10.378   2.907 -0.8755  0.3766  0.5108
  814MOL0     C 9799   8.654  10.375   3.065  0.2534  0.4580 -0.5976
  814MOL0    Cl 9800   8.771  10.487   3.145 -0.3841  0.2251  0.2417
  814MOL0     C 9801   9.523  10.181   2.839  0.7623  0.6046  0.7077
  814MOL0     C 9802   9.642  10.233   2.880 -0.1670 -0.5921 -0.3474
  814MOL0     O 9803   9.931  10.271   2.930  0.2259 -0.6008  0.0106
  814MOL0     C 9804  10.123  10.445   2.999  0.0440  0.1578  0.0276
  814MOL0     C 9805  10.234  10.521   3.037  0.4418  0.2117 -0.0774
  814MOL0     N 9806  10.772  10.816   3.641 -0.3569 -0.1338 -0.4518
  814MOL0     N 9807  10.850  10.744   3.725  0.5304  0.1126 -0.4607
  814MOL0     C 9808  11.462  10.171   3.640  0.8360 -0.3048  0.2827
  814MOL0     C 9809  11.442  10.104   3.752  0.4456  0.5075  0.1331
  814MOL0     C 9810  11.333   9.832   4.079 -0.0214 -0.3343 -1.1095
  814MOL0     C 9811  11.345   9.708   4.132  1.1361  0.5159  0.2543
  814MOL0     C 9812  11.307   9.685   4.266  0.3062  0.4116  1.1280
  814MOL0     C 9813  11.261   9.794   4.344 -0.2144  0.1968  0.4489
  814MOL0     O 9814  11.243   9.777   4.477  0.5311  0.3452  0.2024
  814MOL0     C 9815  11.320   9.701   4.570 -0.0278  0.0179  0.3189
  814MOL0     C 9816  11.437   9.770   4.636 -1.0370  0.5506 -0.2872
  814MOL0     C 9817  11.385   9.862   4.751  0.0053  0.6760 -0.0690
  814MOL0     C 9818  11.410   9.814   4.894 -0.2533  0.7366 -0.2372
  814MOL0     C 9819  11.554   9.805   4.938  0.6340  1.3765 -0.2968
  814MOL0     C 9820  11.676   9.796   4.961  0.9262 -0.4227 -0.9149
  814MOL0     C 9821  11.250   9.916   4.293  0.0207  0.0548  0.7107
  814MOL0     C 9822  11.288   9.944   4.158  0.0313  1.3104  0.1433
  814MOL0     H 9823  11.167   9.921   3.646  1.6349 -2.0023 -3.1699
  814MOL0     H 9824  11.231  10.012   3.444  2.1376 -2.5520 -0.6517
  814MOL0     H 9825  11.439  10.236   3.209 -0.5620  1.7352  0.9326
  814MOL0     H 9826  11.353  10.088   3.240 -1.8301  0.3746 -0.4371
  814MOL0     H 9827  11.171  10.244   3.206 -1.0129 -0.9219  1.3993
  814MOL0     H 9828  11.185  10.264   3.376  0.7724 -0.1729  0.6901
  814MOL0     H 9829  11.313  10.450   3.166  0.4124 -1.5925 -0.8602
  814MOL0     H 9830  11.169  10.485   3.275  1.1311  1.2640  0.1459
  814MOL0     H 9831  11.459  10.432   3.383  0.5380  0.7351  1.3435
  814MOL0     H 9832  11.401  10.586   3.349 -2.0845  0.7558 -1.9102
  814MOL0     H 9833  11.250  10.403   3.550 -0.9250 -0.2644 -0.8768
  814MOL0     H 9834  11.375  10.504   3.613  1.9843 -0.0545 -1.6861
  814MOL0     H 9835  11.267  10.698   3.529  1.5288 -0.8782  0.9861
  814MOL0     H 9836  11.123  10.592   3.474  1.4502 -0.4151 -1.7597
  814MOL0     H 9837  11.221  10.589   3.758  1.8861  0.5766 -1.0544
  814MOL0     H 9838  11.153  10.736   3.695  0.8085  0.5610 -3.1208
  814MOL0     H 9839  10.990  10.549   3.790 -0.6464  1.9654 -0.0385
  814MOL0     H 9840  11.009  10.483   3.625  0.9982  1.2488 -1.8884
  814MOL0     H 9841  10.907  10.632   3.421  1.9395 -1.6457  2.0282
  814MOL0     H 9842  10.678  10.939   3.437  2.3397  1.6884 -3.3038
  814MOL0     H 9843  10.750  10.830   3.320 -0.8692  2.0261 -0.9997
  814MOL0     H 9844  10.502  10.755   3.481 -1.7564 -1.3863 -0.8699
  814MOL0     H 9845  10.570  10.669   3.332  1.6008  0.9138 -2.0000
  814MOL0     H 9846  10.519  10.867   3.202 -1.6714  2.7013 -1.0017
  814MOL0     H 9847  10.451  10.946   3.346 -2.9244  0.4873 -0.9243
  814MOL0     H 9848  10.271  10.871   3.220  0.1854  2.5540  3.2735
  814MOL0     H 9849  10.292  10.769   3.360  4.2808  1.8313  2.9739
  814MOL0     H 9850  10.085  10.709   3.266 -0.5030 -1.6747  1.3561
  814MOL0     H 9851   9.840  10.575   3.318  0.3327 -0.1189 -0.2798
  814MOL0     H 9852   9.837  10.710   3.210 -0.7554 -0.1629 -0.4490
  814MOL0     H 9853   9.759  10.560   3.162 -0.3194  1.9415 -0.5881
  814MOL0     H 9854   9.546  10.433   3.129  1.9839  2.1496 -0.7143
  814MOL0     H 9855   9.321  10.337   3.051  1.1183 -2.5543  2.7889
  814MOL0     H 9856   9.305  10.216   2.648  0.6105  0.2353  0.6451
  814MOL0     H 9857   9.329  10.048   2.696  0.1567  0.7002 -3.0457
  814MOL0     H 9858   9.129  10.137   2.557  2.2641  1.9600 -0.0377
  814MOL0     H 9859   9.110  10.005   2.676 -1.6157  1.1852 -0.3634
  814MOL0     H 9860   9.072  10.276   2.759  0.9812 -0.3952 -0.9998
  814MOL0     H 9861   8.972  10.139   2.819 -0.7948  2.6238  1.4063
  814MOL0     H 9862   8.944  10.262   2.540  1.1446 -1.5284  0.6755
  814MOL0     H 9863   8.853  10.131   2.618  1.6807 -1.0807  1.3621
  814MOL0     H 9864   8.713  10.329   2.637 -0.6779  4.3658 -0.3105
  814MOL0     H 9865   8.849  10.426   2.684  2.7557 -0.7712 -0.4762
  814MOL0     H 9866   8.740  10.188   2.854 -4.5872  0.1928 -1.7685
  814MOL0     H 9867   8.873  10.310   2.893  0.4800 -2.0833 -1.6135
  814MOL0     H 9868   8.572  10.346   2.865 -1.4153  0.1436  1.8756
  814MOL0     H 9869   8.670  10.481   2.871 -2.6789 -0.1268 -1.2797
  814MOL0     H 9870   8.671  10.280   3.116 -0.3087  0.4527 -0.4101
  814MOL0     H 9871   8.550  10.407   3.075  0.9229  2.4734  0.4049
  814MOL0     H 9872   9.518  10.112   2.755 -1.8940  3.2102 -1.5087
  814MOL0     H 9873   9.726  10.219   2.813  2.4367 -1.1005  2.7781
  814MOL0     H 9874  10.150  10.386   2.912 -1.1285  0.9391 -0.8947
  814MOL0     H 9875  10.325  10.502   2.981 -0.2799  0.8422 -1.5168
  814MOL0     H 9876  11.529  10.256   3.628 -3.0467  3.3784  2.0294
  814MOL0     H 9877  11.512  10.132   3.831  0.1715 -1.2735  1.0733
  814MOL0     H 9878  11.388   9.633   4.065 -0.4465 -1.5219  1.4105
  814MOL0     H 9879  11.315   9.585   4.307  3.1581  0.0087 -0.2003
  814MOL0     H 9880  11.249   9.661   4.643  0.1059  1.3335  1.2041
  814MOL0     H 9881  11.367   9.617   4.517 -1.2229 -1.1851  1.1027
  814MOL0     H 9882  11.499   9.828   4.566  0.6665 -0.6174  0.1904
  814MOL0     H 9883  11.503   9.701   4.689 -0.2562  3.1794  2.5027
  814MOL0     H 9884  11.278   9.871   4.731  0.3630  0.9255 -2.0845
  814MOL0     H 9885  11.423   9.963   4.734 -0.2068  1.5883  3.8692
  814MOL0     H 9886  11.365   9.716   4.912  0.0889  0.6884  0.4110
  814MOL0     H 9887  11.368   9.889   4.962 -0.8364  2.9208 -2.8496
  814MOL0     H 9888  11.783   9.791   4.960  1.2563  3.4679 -2.3486
  814MOL0     H 9889  11.214   9.989   4.365  0.9110  0.2369  0.9823
  814MOL0     H 9890  11.281  10.046   4.121 -0.3576  0.7676 -1.3423
  815MOL0     O 9891   5.625   5.048   6.743 -0.2747 -0.1537  0.1790
  815MOL0     C 9892   5.589   5.099   6.849 -0.8708  0.8486 -0.7731
  815MOL0     O 9893   5.461   5.063   6.902  0.0943  0.0642  0.7999
  815MOL0     C 9894   5.387   4.967   6.835  0.0157 -0.3957 -0.6836
  815MOL0     C 9895   5.252   5.000   6.821  0.5961 -0.7225 -0.1685
  815MOL0     C 9896   5.157   4.904   6.795  0.2207  0.5124 -0.2496
  815MOL0     C 9897   5.186   4.772   6.782 -0.4762 -0.3040 -1.1138
  815MOL0     O 9898   5.082   4.676   6.773 -0.4619 -0.6731 -0.2212
  815MOL0     C 9899   5.022   4.640   6.900 -0.0381  0.2175  0.3281
  815MOL0     C 9900   5.084   4.523   6.980  0.2371 -0.0694  0.3690
  815MOL0     C 9901   5.045   4.392   6.899  0.0390 -0.1379 -0.7673
  815MOL0     C 9902   4.903   4.357   6.902  1.0295 -0.4070 -0.0357
  815MOL0     C 9903   4.859   4.215   6.862 -0.3855 -0.7595  0.2510
  815MOL0     C 9904   4.714   4.195   6.821 -0.0808 -0.3017  1.0712
  815MOL0     C 9905   4.696   4.054   6.761  0.9192  0.4384  0.5760
  815MOL0     C 9906   4.737   4.057   6.616  0.5929 -0.4812  0.1814
  815MOL0     N 9907   4.784   3.928   6.574 -1.1745  0.1878 -0.0246
  815MOL0     C 9908   4.713   3.820   6.522 -0.2317 -0.6711  0.6489
  815MOL0     C 9909   4.805   3.723   6.505 -0.2831  0.2979 -0.5482
  815MOL0     C 9910   4.791   3.581   6.457 -0.1582  0.7476 -0.3712
  815MOL0     C 9911   4.737   3.490   6.573 -0.0372  0.5423 -0.2120
  815MOL0     C 9912   4.726   3.338   6.522 -0.1436 -0.8884 -0.6914
  815MOL0     C 9913   4.623   3.310   6.409  0.1276  0.3640  0.0791
  815MOL0     O 9914   4.684   3.336   6.281 -0.0610 -0.4419 -0.7206
  815MOL0     C 9915   4.601   3.348   6.177  0.5019  0.0259 -0.7733
  815MOL0     C 9916   4.664   3.398   6.078 -0.2020  0.5626  0.4891
  815MOL0     C 9917   4.608   3.421   5.951  0.1352 -0.1867 -0.1602
  815MOL0     C 9918   4.703   3.492   5.855 -0.3033 -0.4427  0.7794
  815MOL0     C 9919   4.469   3.401   5.924 -0.3793 -0.4000  0.5534
  815MOL0     C 9920   4.400   3.440   5.794 -0.7075  0.7259 -1.0814
  815MOL0     O 9921   4.272   3.491   5.813 -0.4865 -0.1342  0.6865
  815MOL0     C 9922   4.211   3.569   5.714  0.8497  0.1013  0.1320
  815MOL0     C 9923   4.201   3.535   5.575  1.0318 -0.2680 -0.0714
  815MOL0     C 9924   4.129   3.613   5.485  0.5981 -0.5093  0.9256
  815MOL0     C 9925   4.055   3.724   5.528  0.1175 -0.1400  0.4678
  815MOL0     O 9926   3.973   3.796   5.445  0.1777 -0.3447 -0.7103
  815MOL0     C 9927   3.992   3.797   5.306 -0.3903 -0.4327  0.9398
  815MOL0     C 9928   3.902   3.901   5.241 -1.5440  0.0858  1.0531
  815MOL0     C 9929   3.755   3.865   5.271  0.9381  0.6890  0.3722
  815MOL0     C 9930   3.661   3.946   5.181 -0.1049 -0.2202 -0.2508
  815MOL0     C 9931   3.521   3.888   5.182 -0.0894 -0.1698  0.1766
  815MOL0     C 9932   3.506   3.769   5.085  0.7534 -0.3148 -0.4319
  815MOL0     C 9933   3.399   3.676   5.143  0.7000 -0.9006  0.9982
  815MOL0     C 9934   3.254   3.713   5.109 -0.3523 -0.5078  0.1841
  815MOL0    Cl 9935   3.143   3.583   5.154  0.6730 -0.3198 -0.0175
  815MOL0     C 9936   4.047   3.753   5.663 -0.1490  0.4608 -0.9250
  815MOL0     C 9937   4.128   3.674   5.759  0.0499 -1.4306  0.8071
  815MOL0     O 9938   4.450   3.415   5.687  0.8638  0.1445 -0.0957
  815MOL0     C 9939   4.403   3.353   6.041 -0.9202 -0.5048  1.2757
  815MOL0     C 9940   4.463   3.315   6.163 -0.5246  0.2444  0.1346
  815MOL0     N 9941   4.923   3.764   6.555  0.3553  0.3806  0.8178
  815MOL0     N 9942   4.910   3.880   6.604  0.3419 -0.4524 -1.0017
  815MOL0     C 9943   5.323   4.738   6.796  0.6316  0.7393  0.2127
  815MOL0     C 9944   5.426   4.833   6.819 -0.1646 -0.2183  0.0862
  815MOL0     C 9945   5.653   5.219   6.892  0.0358 -0.0778  0.3230
  815MOL0     C 9946   5.609   5.274   7.009 -1.3485  0.5129 -0.6253
  815MOL0     C 9947   5.657   5.397   7.053 -0.4754  0.3253  0.4010
  815MOL0     C 9948   5.762   5.465   6.983  0.4294  0.2574  0.7177
  815MOL0     O 9949   5.819   5.576   7.044 -0.7285  1.5174 -0.1747
  815MOL0     C 9950   5.899   5.667   6.965  0.0561 -0.4351 -0.8841
  815MOL0     C 9951   5.821   5.756   6.863  0.3972 -0.5355  0.5830
  815MOL0     C 9952   5.708   5.848   6.923 -0.6068  0.0961 -0.5177
  815MOL0     C 9953   5.661   5.958   6.825 -0.7263  0.1383  0.5440
  815MOL0     C 9954   5.608   6.077   6.891 -0.4235  0.0720  0.4783
  815MOL0     C 9955   5.577   6.165   6.967  0.6698 -0.1424 -0.4700
  815MOL0     C 9956   5.809   5.408   6.855 -0.4785  0.5720  0.4292
  815MOL0     C 9957   5.751   5.287   6.812 -0.5641  0.0773 -0.7719
  815MOL0     H 9958   5.218   5.099   6.850  3.5206 -0.1115  1.5954
  815MOL0     H 9959   5.053   4.933   6.788 -0.5398 -1.1073  2.6463
  815MOL0     H 9960   5.027   4.728   6.964  0.2393  0.7227 -0.3681
  815MOL0     H 9961   4.920   4.608   6.876  0.5257 -1.1303 -0.4225
  815MOL0     H 9962   5.184   4.532   7.022 -1.0061  1.5268  3.2045
  815MOL0     H 9963   5.020   4.516   7.068 -2.5634 -1.6274 -1.6003
  815MOL0     H 9964   5.070   4.406   6.793  0.3706 -2.9671 -1.1334
  815MOL0     H 9965   5.112   4.312   6.931  3.5473  2.0664 -1.9844
  815MOL0     H 9966   4.862   4.383   7.000 -0.1086 -1.3370 -0.2440
  815MOL0     H 9967   4.846   4.422   6.834 -1.2804 -3.1134 -0.9174
  815MOL0     H 9968   4.931   4.178   6.788 -0.5076 -2.4773  0.9509
  815MOL0     H 9969   4.867   4.148   6.948  1.1580 -1.4971 -0.4316
  815MOL0     H 9970   4.649   4.211   6.907  0.5656  0.8080  1.3782
  815MOL0     H 9971   4.683   4.271   6.748  0.0317 -1.6318 -0.4062
  815MOL0     H 9972   4.744   3.972   6.816  0.3212 -1.4538 -1.5597
  815MOL0     H 9973   4.589   4.030   6.757  1.3618 -1.7317  0.4285
  815MOL0     H 9974   4.813   4.133   6.599 -0.9725  1.0997 -0.0243
  815MOL0     H 9975   4.646   4.089   6.563 -0.6553 -1.0294  1.8945
  815MOL0     H 9976   4.610   3.813   6.488 -0.0533 -0.2267  0.0051
  815MOL0     H 9977   4.742   3.564   6.361  2.0217  0.5887 -1.5078
  815MOL0     H 9978   4.892   3.548   6.434 -0.7716 -0.3619 -1.6324
  815MOL0     H 9979   4.642   3.537   6.600 -0.3311 -1.4528  2.7229
  815MOL0     H 9980   4.807   3.494   6.657 -3.8958  0.6003  3.3338
  815MOL0     H 9981   4.715   3.278   6.612  0.0692 -0.6686 -0.5184
  815MOL0     H 9982   4.822   3.299   6.485 -0.3823  0.1653 -2.5622
  815MOL0     H 9983   4.530   3.367   6.422  0.9212  1.3680  1.7600
  815MOL0     H 9984   4.603   3.203   6.400 -2.4774  0.8726 -0.8769
  815MOL0     H 9985   4.763   3.436   6.099  0.3130 -0.1375 -0.6310
  815MOL0     H 9986   4.681   3.598   5.846  0.5331 -0.0474  2.8343
  815MOL0     H 9987   4.809   3.480   5.879 -0.2711 -1.7293  0.1182
  815MOL0     H 9988   4.693   3.456   5.752  3.8657  5.4156 -2.2427
  815MOL0     H 9989   4.266   3.457   5.537 -0.0766 -0.8301 -0.8942
  815MOL0     H 9990   4.121   3.595   5.379  1.4307  0.7825  0.6281
  815MOL0     H 9991   4.099   3.807   5.285 -0.4152 -0.2403  0.9055
  815MOL0     H 9992   3.976   3.704   5.251  2.4681 -0.5466  0.1049
  815MOL0     H 9993   3.918   4.003   5.278 -4.5170  1.6776 -1.5726
  815MOL0     H 9994   3.920   3.913   5.134  3.0941  1.2634  1.7334
  815MOL0     H 9995   3.731   3.872   5.377 -1.5483  0.1437 -0.0864
  815MOL0     H 9996   3.744   3.758   5.247 -3.1672  0.8409  0.8275
  815MOL0     H 9997   3.655   4.053   5.206 -3.4001  0.3881 -2.9486
  815MOL0     H 9998   3.702   3.937   5.080 -0.2759  0.5056 -0.3919
  815MOL0     H 9999   3.460   3.968   5.140  0.1769  0.2278  0.5271
  815MOL0     H10000   3.490   3.868   5.285 -1.7495  0.6387 -0.1442
  815MOL0     H10001   3.476   3.800   4.985 -1.1223 -0.5780  0.0126
  815MOL0     H10002   3.601   3.720   5.058  0.5518  1.0215 -4.1242
  815MOL0     H10003   3.412   3.659   5.250 -2.4847 -2.1974  1.2948
  815MOL0     H10004   3.421   3.581   5.094 -0.1364 -0.8592  0.5311
  815MOL0     H10005   3.247   3.748   5.005 -0.5576  0.8118  0.6258
  815MOL0     H10006   3.241   3.801   5.173  0.7211 -0.2579  0.0781
  815MOL0     H10007   3.991   3.837   5.701  0.6117  0.7890 -0.4902
  815MOL0     H10008   4.121   3.684   5.866  0.0913  0.3858  0.6557
  815MOL0     H10009   4.296   3.351   6.024 -1.1901  0.9312  2.5981
  815MOL0     H10010   4.405   3.268   6.242 -0.2951  0.9907  0.7608
  815MOL0     H10011   5.359   4.636   6.791 -2.8928 -0.6509 -4.2590
  815MOL0     H10012   5.529   4.800   6.827  0.4478  1.5884  0.1501
  815MOL0     H10013   5.537   5.219   7.069 -1.1435  1.2638  0.3342
  815MOL0     H10014   5.626   5.439   7.148 -0.0276 -0.1237  0.7546
  815MOL0     H10015   5.949   5.732   7.039 -1.9771 -1.0506  1.1342
  815MOL0     H10016   5.982   5.617   6.914  1.0837 -0.4909  0.7523
  815MOL0     H10017   5.780   5.692   6.784 -0.5870 -3.0665  2.9711
  815MOL0     H10018   5.896   5.819   6.815  1.3417 -1.8487  0.2589
  815MOL0     H10019   5.756   5.904   7.003  0.5336 -0.2043 -0.9749
  815MOL0     H10020   5.620   5.796   6.963 -1.0606  1.4879  0.3397
  815MOL0     H10021   5.584   5.916   6.759  1.3461 -0.9948 -1.2976
  815MOL0     H10022   5.744   5.973   6.755 -0.9139 -1.7680 -0.1293
  815MOL0     H10023   5.562   6.260   7.014  1.2908 -0.3654  0.1965
  815MOL0     H10024   5.877   5.464   6.792 -0.5820  0.4940  0.2457
  815MOL0     H10025   5.771   5.250   6.712  1.4406 -0.6576 -0.1529
  816MOL0     O10026   0.809   9.536   7.376  0.2622 -0.6029 -0.0785
  816MOL0     C10027   0.792   9.462   7.474  0.3897  0.5577  0.2496
  816MOL0     O10028   0.806   9.497   7.605  0.4332  0.7796  0.6543
  816MOL0     C10029   0.838   9.627   7.628 -0.3273  0.0610 -0.7671
  816MOL0     C10030   0.963   9.659   7.672  0.3766  0.1611 -0.3400
  816MOL0     C10031   1.000   9.787   7.702  0.1915  0.7526  1.0128
  816MOL0     C10032   0.914   9.895   7.696  0.8053  0.2658  0.9100
  816MOL0     O10033   0.951  10.029   7.736 -0.2309  0.4534 -0.5678
  816MOL0     C10034   0.874  10.139   7.686  0.5004  0.2859 -0.7595
  816MOL0     C10035   0.970  10.257   7.690  0.6734  0.8208 -0.8681
  816MOL0     C10036   0.930  10.364   7.592  0.0819  0.4799  0.3635
  816MOL0     C10037   1.044  10.462   7.558  0.2893  0.0483  0.7887
  816MOL0     C10038   1.077  10.566   7.656  0.0603 -0.0144  0.6664
  816MOL0     C10039   1.207  10.634   7.616 -0.0685 -0.1631  1.3557
  816MOL0     C10040   1.214  10.715   7.485  0.6963  0.3402  0.2561
  816MOL0     C10041   1.344  10.784   7.469 -0.2561  0.2490  0.2160
  816MOL0     N10042   1.448  10.685   7.441 -0.2767 -0.0674 -0.4590
  816MOL0     C10043   1.464  10.613   7.325 -0.2765 -0.6352 -0.5499
  816MOL0     C10044   1.588  10.555   7.336 -0.0159 -0.1314 -0.4790
  816MOL0     C10045   1.652  10.474   7.226 -0.5655  0.0160  0.4083
  816MOL0     C10046   1.675  10.335   7.264  0.3462  0.1214  0.3565
  816MOL0     C10047   1.551  10.257   7.264  0.5053 -0.6781 -0.5447
  816MOL0     C10048   1.581  10.113   7.270  0.3873  0.0059 -0.0986
  816MOL0     O10049   1.648  10.075   7.393  0.1417 -0.4503 -0.2111
  816MOL0     C10050   1.638   9.949   7.437 -0.0507 -0.6242  0.6581
  816MOL0     C10051   1.655   9.840   7.353 -0.3082 -0.1999  0.5325
  816MOL0     C10052   1.670   9.706   7.386 -0.2138 -0.4194 -0.0760
  816MOL0     C10053   1.668   9.602   7.277 -0.4860 -0.3493  0.7065
  816MOL0     C10054   1.663   9.688   7.531  0.0554  1.0509 -0.5202
  816MOL0     C10055   1.697   9.557   7.599 -0.0531 -0.3856 -0.1661
  816MOL0     O10056   1.725   9.552   7.739  1.0585  0.5241  1.0164
  816MOL0     C10057   1.732   9.421   7.782 -0.1196 -0.3794 -0.1886
  816MOL0     C10058   1.848   9.338   7.775 -0.1235  1.0099  0.3082
  816MOL0     C10059   1.843   9.213   7.821  0.3335  1.2116  1.0433
  816MOL0     C10060   1.734   9.164   7.895 -1.1200  0.2656  0.2648
  816MOL0     O10061   1.714   9.041   7.939 -0.9023  0.8898  0.2210
  816MOL0     C10062   1.812   8.939   7.941 -0.4248  0.2477  1.1338
  816MOL0     C10063   1.753   8.819   8.020 -0.8431 -0.0927 -0.5655
  816MOL0     C10064   1.727   8.853   8.165 -0.2848  1.3065  0.1658
  816MOL0     C10065   1.733   8.721   8.237 -0.6172 -0.0749 -0.9717
  816MOL0     C10066   1.650   8.729   8.370 -0.3530  0.2333 -0.3100
  816MOL0     C10067   1.579   8.599   8.405  0.4395 -0.3635 -0.7020
  816MOL0     C10068   1.508   8.624   8.542 -0.6479  0.7193 -0.6263
  816MOL0     C10069   1.383   8.708   8.526  0.1139  0.2690  0.4710
  816MOL0    Cl10070   1.338   8.730   8.701 -0.2559 -0.3091 -0.6904
  816MOL0     C10071   1.617   9.239   7.910 -0.3605  0.1782 -0.7575
  816MOL0     C10072   1.623   9.368   7.854  0.3131 -0.2562 -0.4903
  816MOL0     O10073   1.693   9.458   7.523 -0.4486  0.1082 -0.1081
  816MOL0     C10074   1.645   9.802   7.612 -0.6284  0.0031  0.1982
  816MOL0     C10075   1.629   9.924   7.568  0.5425 -0.1242  0.2531
  816MOL0     N10076   1.631  10.574   7.467  0.3564 -0.3879 -0.3797
  816MOL0     N10077   1.552  10.662   7.522  0.1052  0.1087  0.1054
  816MOL0     C10078   0.775   9.867   7.647 -0.5150  0.2150  0.4107
  816MOL0     C10079   0.744   9.726   7.615  0.1014 -0.8066 -0.0874
  816MOL0     C10080   0.755   9.328   7.444  0.2870 -0.4485 -0.3067
  816MOL0     C10081   0.726   9.241   7.552  0.4609  0.3266 -0.6029
  816MOL0     C10082   0.661   9.124   7.533  0.4036 -0.2856 -0.4818
  816MOL0     C10083   0.626   9.074   7.411  0.0954 -0.2943  0.7953
  816MOL0     O10084   0.571   8.952   7.405  0.1419 -0.2397  0.6537
  816MOL0     C10085   0.442   8.949   7.469  0.5212  0.3750  0.0774
  816MOL0     C10086   0.348   8.845   7.399 -0.2123  0.8291  0.0256
  816MOL0     C10087   0.216   8.826   7.474  0.0033 -0.3650  0.1548
  816MOL0     C10088   0.133   8.720   7.410  0.9886  0.3760  0.4797
  816MOL0     C10089  -0.010   8.741   7.443 -0.1904 -0.8503 -1.4865
  816MOL0     C10090  -0.122   8.773   7.460  0.9896 -0.2433  0.4327
  816MOL0     C10091   0.654   9.155   7.302 -0.3101  1.1955  0.0795
  816MOL0     C10092   0.725   9.273   7.318 -0.4155  0.5946 -0.6740
  816MOL0     H10093   1.025   9.572   7.691 -0.6041 -0.4152  0.3111
  816MOL0     H10094   1.102   9.796   7.739  1.1179 -1.4999 -0.7842
  816MOL0     H10095   0.858  10.124   7.579  0.8778  1.6136 -1.0211
  816MOL0     H10096   0.784  10.175   7.738  0.4923  2.1932 -1.9826
  816MOL0     H10097   0.965  10.301   7.790 -1.1943 -3.4007  1.1642
  816MOL0     H10098   1.072  10.221   7.673  1.6449  3.1830 -0.3856
  816MOL0     H10099   0.910  10.315   7.496  6.0480 -1.4398 -0.3121
  816MOL0     H10100   0.842  10.414   7.633 -1.0683 -0.8184 -0.4072
  816MOL0     H10101   1.137  10.412   7.533  0.2434 -0.2085  1.1327
  816MOL0     H10102   1.001  10.509   7.468 -0.0446 -2.8834 -0.7093
  816MOL0     H10103   1.010  10.651   7.662  3.4220  2.7658  3.9011
  816MOL0     H10104   1.085  10.530   7.759 -0.6752 -3.9548 -0.4763
  816MOL0     H10105   1.246  10.701   7.693 -0.7839  2.4471 -0.3864
  816MOL0     H10106   1.276  10.550   7.608  1.0493  0.8229 -0.0720
  816MOL0     H10107   1.200  10.652   7.397  0.5895  2.8273 -1.6241
  816MOL0     H10108   1.149  10.803   7.477 -2.1026 -1.7377 -2.2849
  816MOL0     H10109   1.374  10.835   7.561  0.1786  1.0753 -0.3738
  816MOL0     H10110   1.334  10.852   7.385 -3.5946  0.1734  0.4218
  816MOL0     H10111   1.404  10.611   7.235  0.7052 -0.6181 -1.2267
  816MOL0     H10112   1.593  10.483   7.134 -0.1577  0.4768  0.1885
  816MOL0     H10113   1.751  10.518   7.215  1.0293 -2.9491  1.6257
  816MOL0     H10114   1.722  10.328   7.362 -3.0676 -0.0804  2.1229
  816MOL0     H10115   1.748  10.291   7.195 -0.3622 -1.6960  0.7188
  816MOL0     H10116   1.498  10.276   7.170  2.1938  0.5671 -1.2921
  816MOL0     H10117   1.479  10.286   7.341 -2.0664 -0.9992 -2.6455
  816MOL0     H10118   1.639  10.073   7.186 -2.6590  1.1247 -2.9643
  816MOL0     H10119   1.484  10.063   7.265  0.0533  0.3578  1.9406
  816MOL0     H10120   1.657   9.867   7.248 -1.7725 -2.4929 -0.1572
  816MOL0     H10121   1.669   9.655   7.181 -0.3185  0.7145  1.2733
  816MOL0     H10122   1.766   9.554   7.268 -0.5233 -0.2143 -0.5831
  816MOL0     H10123   1.592   9.525   7.289  0.2061 -1.1324  0.2087
  816MOL0     H10124   1.929   9.374   7.712  1.1539 -1.0099  0.7066
  816MOL0     H10125   1.936   9.156   7.818 -0.0845  0.3899  2.5831
  816MOL0     H10126   1.840   8.888   7.848  2.4687  1.2454  1.3543
  816MOL0     H10127   1.897   8.990   7.986  0.5721  0.1728 -0.5501
  816MOL0     H10128   1.663   8.777   7.976 -0.1036 -1.6635 -0.6531
  816MOL0     H10129   1.824   8.736   8.018 -2.0115 -1.1250 -0.2474
  816MOL0     H10130   1.629   8.902   8.165 -1.3901 -0.7276 -1.5638
  816MOL0     H10131   1.807   8.916   8.206  0.8280 -1.0604  1.8386
  816MOL0     H10132   1.690   8.639   8.178  0.7673 -0.1439 -1.9224
  816MOL0     H10133   1.828   8.673   8.261 -1.0061 -0.1341  0.5218
  816MOL0     H10134   1.567   8.800   8.379  0.9056  1.6613  0.4217
  816MOL0     H10135   1.715   8.759   8.453 -0.4310 -0.2831 -0.0609
  816MOL0     H10136   1.490   8.581   8.344 -2.2523  0.0429  2.7426
  816MOL0     H10137   1.634   8.505   8.399 -1.5571 -1.6495 -0.1016
  816MOL0     H10138   1.580   8.671   8.610  0.1503  0.1913 -1.0869
  816MOL0     H10139   1.480   8.533   8.595 -1.2060  0.0506 -2.0188
  816MOL0     H10140   1.309   8.651   8.471  0.1416  0.9828 -0.3251
  816MOL0     H10141   1.397   8.810   8.488  0.7044  0.3661  0.9167
  816MOL0     H10142   1.534   9.226   7.979  1.4423 -0.0251  1.5288
  816MOL0     H10143   1.532   9.424   7.873  0.6306  0.3514 -0.7209
  816MOL0     H10144   1.659   9.793   7.719  2.2351  5.2604  0.6497
  816MOL0     H10145   1.602  10.000   7.641 -2.1767  0.6906 -1.4778
  816MOL0     H10146   0.702   9.939   7.611 -1.2511 -0.7740 -0.0939
  816MOL0     H10147   0.643   9.710   7.578 -0.0024 -1.2931  0.3848
  816MOL0     H10148   0.754   9.263   7.654 -3.2498  0.2037  0.5931
  816MOL0     H10149   0.655   9.046   7.608  5.4422  1.9095  2.7598
  816MOL0     H10150   0.456   8.929   7.576 -2.0836  3.4573  1.1418
  816MOL0     H10151   0.392   9.046   7.468  1.2343  0.7945  1.9063
  816MOL0     H10152   0.394   8.748   7.381 -2.0947 -0.1360  0.2111
  816MOL0     H10153   0.319   8.879   7.300  1.6461  0.1182 -0.8055
  816MOL0     H10154   0.158   8.918   7.476 -0.9519 -0.9415  1.9742
  816MOL0     H10155   0.233   8.807   7.581 -2.9468 -4.5495  0.1131
  816MOL0     H10156   0.164   8.620   7.443  0.8322 -0.6892 -2.3303
  816MOL0     H10157   0.136   8.734   7.302  1.2330 -2.6162  0.0194
  816MOL0     H10158  -0.228   8.789   7.468  0.2944 -2.8656 -1.7767
  816MOL0     H10159   0.639   9.115   7.202  3.4991  0.2099 -0.2867
  816MOL0     H10160   0.758   9.328   7.230 -0.2244 -1.4625 -1.9434
  817MOL0     O10161   4.437   5.594   9.269  1.2833  0.1999  0.7931
  817MOL0     C10162   4.351   5.513   9.241  0.1815 -0.3943 -0.5643
  817MOL0     O10163   4.347   5.441   9.126  0.8487  0.1007 -0.5263
  817MOL0     C10164   4.440   5.445   9.028 -0.7645  0.0762 -0.3083
  817MOL0     C10165   4.389   5.423   8.903 -0.1253  0.3493 -0.5324
  817MOL0     C10166   4.475   5.426   8.790  0.4515 -0.2705 -0.3518
  817MOL0     C10167   4.611   5.441   8.802 -0.0835  1.0186  0.1984
  817MOL0     O10168   4.691   5.405   8.695 -0.3144  0.4504 -0.5230
  817MOL0     C10169   4.835   5.431   8.698 -0.3077  0.8728 -0.1677
  817MOL0     C10170   4.880   5.429   8.561  0.5259  0.9437  0.1956
  817MOL0     C10171   4.882   5.284   8.508 -0.7927  0.9222 -0.2756
  817MOL0     C10172   4.987   5.252   8.399 -0.2607 -0.3879 -0.9286
  817MOL0     C10173   4.973   5.336   8.278 -0.3010 -0.0678  0.1492
  817MOL0     C10174   5.106   5.376   8.223 -0.9010 -0.9110  0.7730
  817MOL0     C10175   5.209   5.259   8.203  0.5729  0.4419 -0.0751
  817MOL0     C10176   5.342   5.311   8.161  0.4336  0.0016 -0.0799
  817MOL0     N10177   5.354   5.381   8.039 -0.8863 -0.5396  0.4044
  817MOL0     C10178   5.361   5.521   8.009 -0.0201  0.2468  0.9662
  817MOL0     C10179   5.387   5.534   7.877 -0.0358 -0.0743 -0.6658
  817MOL0     C10180   5.408   5.667   7.801  0.5846 -0.0162 -0.9920
  817MOL0     C10181   5.332   5.785   7.878  1.1086 -0.6918 -0.2179
  817MOL0     C10182   5.341   5.927   7.811 -0.1273 -0.6128  0.3335
  817MOL0     C10183   5.251   6.040   7.859  0.1465 -0.2443  0.4599
  817MOL0     O10184   5.127   5.984   7.821  0.3382  0.1534  0.1821
  817MOL0     C10185   5.013   6.055   7.858 -0.5137 -0.5291  0.2808
  817MOL0     C10186   5.001   6.166   7.947 -0.5597  0.1725 -0.1672
  817MOL0     C10187   4.874   6.236   7.952 -1.0739  0.4715  0.4580
  817MOL0     C10188   4.881   6.373   8.006  0.8023 -0.1067 -0.5561
  817MOL0     C10189   4.763   6.180   7.886 -0.2700  0.2050 -0.0584
  817MOL0     C10190   4.633   6.224   7.910 -0.3143 -0.0537  0.2895
  817MOL0     O10191   4.536   6.223   7.813 -0.9005  0.0964  0.3431
  817MOL0     C10192   4.403   6.241   7.832 -1.0320 -0.6960  0.3515
  817MOL0     C10193   4.303   6.159   7.788  0.7413  1.1436  0.0888
  817MOL0     C10194   4.163   6.186   7.822 -0.9528  0.0741  0.9002
  817MOL0     C10195   4.121   6.310   7.880  0.3051 -0.4208  0.0261
  817MOL0     O10196   3.987   6.342   7.911  0.2590  0.5715  0.3461
  817MOL0     C10197   3.964   6.465   7.995 -0.0353 -0.1416  0.8551
  817MOL0     C10198   3.807   6.480   8.035 -0.2208  0.8094 -0.1256
  817MOL0     C10199   3.797   6.605   8.124 -0.8771 -0.2893 -0.6790
  817MOL0     C10200   3.680   6.601   8.222  0.5618  0.4007 -0.1716
  817MOL0     C10201   3.707   6.664   8.359  0.9458  0.0446  0.7633
  817MOL0     C10202   3.697   6.815   8.340  0.2779  0.9856  0.3540
  817MOL0     C10203   3.752   6.891   8.468 -0.2316  0.0409  0.4308
  817MOL0     C10204   3.674   7.016   8.495  0.5057  0.3804 -0.1190
  817MOL0    Cl10205   3.670   7.123   8.352 -0.0948  0.3971 -0.1372
  817MOL0     C10206   4.230   6.399   7.909 -0.6864  0.0461 -0.3752
  817MOL0     C10207   4.366   6.369   7.882  0.7480 -0.4380  0.6019
  817MOL0     O10208   4.618   6.264   8.022  0.4421 -0.6391 -0.1673
  817MOL0     C10209   4.780   6.066   7.808  0.3125 -0.0272 -0.5454
  817MOL0     C10210   4.903   6.001   7.798 -0.8997  0.1914  1.1036
  817MOL0     N10211   5.412   5.405   7.831  0.5310  0.3914  0.0540
  817MOL0     N10212   5.386   5.316   7.924 -0.1876 -0.6094 -0.4008
  817MOL0     C10213   4.664   5.461   8.929 -0.3483  0.2158 -0.6447
  817MOL0     C10214   4.578   5.457   9.042 -0.5635  1.4530  0.0316
  817MOL0     C10215   4.239   5.481   9.332  0.8213 -0.1846  0.6749
  817MOL0     C10216   4.213   5.557   9.440  0.4569  0.4822 -0.3644
  817MOL0     C10217   4.096   5.535   9.527 -0.4349  0.4116 -0.4375
  817MOL0     C10218   3.998   5.446   9.482  0.2391 -0.0761 -0.1986
  817MOL0     O10219   3.884   5.417   9.559 -0.1021  0.1870  0.8213
  817MOL0     C10220   3.817   5.533   9.604 -0.2115  0.1929  0.2002
  817MOL0     C10221   3.669   5.504   9.584 -0.7118 -0.3232  0.7671
  817MOL0     C10222   3.613   5.412   9.694 -0.1749 -1.2784  0.8239
  817MOL0     C10223   3.469   5.456   9.733 -0.5557 -0.3051 -0.3038
  817MOL0     C10224   3.370   5.424   9.632  0.1909  0.3641 -0.2319
  817MOL0     C10225   3.297   5.403   9.541  0.9711 -0.4351  0.3306
  817MOL0     C10226   4.018   5.374   9.364  0.8179 -0.5436 -0.6093
  817MOL0     C10227   4.143   5.390   9.293  0.9085  0.6466 -0.9647
  817MOL0     H10228   4.282   5.408   8.891 -0.3826  1.5560  0.0751
  817MOL0     H10229   4.435   5.399   8.692 -2.3572  2.5821 -0.1211
  817MOL0     H10230   4.852   5.530   8.742  1.0732  0.8039 -0.5032
  817MOL0     H10231   4.895   5.368   8.764 -0.4415  1.2495  0.3146
  817MOL0     H10232   4.814   5.495   8.503 -0.1210  0.5487  0.4698
  817MOL0     H10233   4.977   5.479   8.558 -0.3306  2.7544  1.0968
  817MOL0     H10234   4.912   5.216   8.588 -2.0856 -2.2806 -2.3268
  817MOL0     H10235   4.782   5.245   8.486  0.2809 -1.4237 -1.4197
  817MOL0     H10236   5.078   5.284   8.452 -1.4012 -0.0626  0.9341
  817MOL0     H10237   4.990   5.143   8.387  2.5425 -0.3957 -0.7924
  817MOL0     H10238   4.913   5.287   8.201  2.1543  2.0733 -3.4175
  817MOL0     H10239   4.922   5.429   8.303  0.0166 -0.0137  0.6140
  817MOL0     H10240   5.100   5.415   8.121 -2.9876 -0.9281  0.8384
  817MOL0     H10241   5.153   5.452   8.286  1.6100  1.9645 -4.0163
  817MOL0     H10242   5.236   5.208   8.296  3.0869  1.5809 -0.0961
  817MOL0     H10243   5.166   5.181   8.139 -0.8002  2.8170 -2.2355
  817MOL0     H10244   5.405   5.222   8.168 -0.8406 -0.7934  2.5451
  817MOL0     H10245   5.377   5.375   8.243 -1.3213  0.3182  0.4602
  817MOL0     H10246   5.342   5.598   8.083  4.0030  1.2357  1.2068
  817MOL0     H10247   5.515   5.689   7.797  0.7161 -0.8075 -2.4995
  817MOL0     H10248   5.376   5.650   7.698  0.6891 -0.9292 -0.8848
  817MOL0     H10249   5.377   5.805   7.976  0.5966  0.7840 -0.2643
  817MOL0     H10250   5.229   5.749   7.884  1.5109 -1.7738  0.6391
  817MOL0     H10251   5.312   5.909   7.707 -0.1790  0.9210  0.0574
  817MOL0     H10252   5.440   5.973   7.823 -1.3982  1.8457  2.4084
  817MOL0     H10253   5.275   6.133   7.806 -1.9895 -0.2033 -0.5486
  817MOL0     H10254   5.250   6.055   7.967 -1.2447  0.9181  0.3149
  817MOL0     H10255   5.084   6.224   7.985  0.6386 -1.3716 -0.3202
  817MOL0     H10256   4.969   6.435   7.985 -0.7938  2.4402 -0.1450
  817MOL0     H10257   4.790   6.419   7.965  2.2168  2.0186 -1.5014
  817MOL0     H10258   4.861   6.368   8.113  0.3887 -0.9509 -0.6666
  817MOL0     H10259   4.335   6.063   7.748  0.2207 -0.5532  3.3761
  817MOL0     H10260   4.092   6.105   7.803 -0.5878 -0.8203  3.1060
  817MOL0     H10261   4.026   6.492   8.081 -2.5739  3.1095  1.8523
  817MOL0     H10262   3.977   6.547   7.924 -4.0187  0.4180  0.5194
  817MOL0     H10263   3.736   6.470   7.952  1.1150  1.0326 -1.3407
  817MOL0     H10264   3.773   6.391   8.087  3.5505 -0.3757  0.6239
  817MOL0     H10265   3.782   6.697   8.067 -0.3529  0.6462  0.6247
  817MOL0     H10266   3.890   6.617   8.181 -0.9539 -1.1239 -0.3661
  817MOL0     H10267   3.591   6.645   8.177  0.7349  0.0774 -0.8352
  817MOL0     H10268   3.649   6.497   8.235 -2.8069  0.9683 -2.4279
  817MOL0     H10269   3.800   6.616   8.391 -1.2193 -2.4460  3.8598
  817MOL0     H10270   3.635   6.644   8.438  2.8506  1.4767  3.0110
  817MOL0     H10271   3.762   6.846   8.258  2.5656  3.5134  2.8952
  817MOL0     H10272   3.593   6.846   8.325 -0.5995 -0.7602  2.3060
  817MOL0     H10273   3.857   6.920   8.462 -0.3449  0.2068 -0.9183
  817MOL0     H10274   3.757   6.821   8.552  1.3106 -1.8039 -1.0960
  817MOL0     H10275   3.719   7.071   8.578  0.1152 -3.3331  2.7982
  817MOL0     H10276   3.569   6.995   8.518 -0.6939  0.7348 -4.3436
  817MOL0     H10277   4.214   6.500   7.945  0.4485 -0.5879  2.1295
  817MOL0     H10278   4.438   6.447   7.907  2.3216 -1.5782 -0.2594
  817MOL0     H10279   4.698   6.028   7.749 -0.3164  2.0418 -1.0651
  817MOL0     H10280   4.909   5.906   7.747 -2.7210  0.5024  0.2379
  817MOL0     H10281   4.769   5.448   8.952 -0.5670 -3.6874 -1.1026
  817MOL0     H10282   4.620   5.472   9.141 -2.0674  1.5831  0.6711
  817MOL0     H10283   4.284   5.633   9.472  2.1002 -0.1238 -2.3445
  817MOL0     H10284   4.081   5.585   9.622  3.7875 -1.3617  1.3872
  817MOL0     H10285   3.831   5.557   9.710  0.8098  0.4501  0.0161
  817MOL0     H10286   3.842   5.619   9.541  3.9632 -2.1860 -1.8287
  817MOL0     H10287   3.671   5.468   9.481  3.5343  2.0822 -0.1983
  817MOL0     H10288   3.616   5.599   9.578  3.3474  2.1266  0.6393
  817MOL0     H10289   3.680   5.396   9.779 -1.2562 -1.2361  1.7080
  817MOL0     H10290   3.612   5.315   9.643  0.1150 -0.7827 -0.1685
  817MOL0     H10291   3.473   5.564   9.754  0.5105 -0.5936  1.1805
  817MOL0     H10292   3.442   5.411   9.829  1.3258 -1.7968 -0.4055
  817MOL0     H10293   3.238   5.374   9.456  0.1704  0.4247  0.5766
  817MOL0     H10294   3.941   5.303   9.337  3.9449 -4.1535 -0.8410
  817MOL0     H10295   4.165   5.321   9.212 -2.2291 -1.9735  0.1773
  818MOL0     O10296   5.235  11.100  11.468 -0.3559  0.0032 -0.3477
  818MOL0     C10297   5.180  11.138  11.370  0.4104  0.4453  1.1895
  818MOL0     O10298   5.238  11.162  11.244  0.0412 -0.0522 -0.1251
  818MOL0     C10299   5.368  11.130  11.223  0.5843  0.4104 -0.3728
  818MOL0     C10300   5.460  11.228  11.221 -0.1172  0.7725  1.2415
  818MOL0     C10301   5.596  11.193  11.196  0.7119 -0.4231  0.1667
  818MOL0     C10302   5.633  11.059  11.174 -0.4007  0.1163 -0.3330
  818MOL0     O10303   5.752  10.999  11.129  0.7764  0.3898  0.0603
  818MOL0     C10304   5.875  11.063  11.134 -0.0576 -0.1043  0.0323
  818MOL0     C10305   5.939  11.079  11.267  0.9200 -0.1665  0.2804
  818MOL0     C10306   6.069  11.157  11.251  0.1387 -0.2329 -0.5825
  818MOL0     C10307   6.174  11.128  11.358 -0.1725  1.2257  0.5146
  818MOL0     C10308   6.265  11.241  11.386  0.2569  0.2472  0.7656
  818MOL0     C10309   6.199  11.351  11.477 -0.2821 -0.0538  0.0636
  818MOL0     C10310   6.235  11.491  11.423 -0.4289  0.6270 -1.1738
  818MOL0     C10311   6.172  11.525  11.288  0.2048 -0.4836  0.4846
  818MOL0     N10312   6.019  11.516  11.277 -0.3311  0.8170 -0.5627
  818MOL0     C10313   5.933  11.538  11.379  0.6518  0.1729  0.3860
  818MOL0     C10314   5.811  11.550  11.316 -0.4918 -0.5303  0.0137
  818MOL0     C10315   5.694  11.575  11.404  0.3571  0.4149 -0.3282
  818MOL0     C10316   5.652  11.718  11.390  0.3375  0.4597  0.4747
  818MOL0     C10317   5.766  11.821  11.425  0.0137  0.6867 -0.1713
  818MOL0     C10318   5.701  11.960  11.455 -0.6003 -0.1870  0.9617
  818MOL0     O10319   5.625  11.959  11.571 -0.1708 -0.5193  0.5536
  818MOL0     C10320   5.647  12.040  11.674  0.0314  0.8207 -0.8335
  818MOL0     C10321   5.711  12.163  11.686  0.1842  0.3701  0.5043
  818MOL0     C10322   5.747  12.224  11.795 -0.1221  0.3246 -0.9932
  818MOL0     C10323   5.824  12.351  11.789 -0.2545 -0.1781  0.1124
  818MOL0     C10324   5.703  12.171  11.922  0.3171  0.7225 -0.3473
  818MOL0     C10325   5.713  12.244  12.054 -0.7259  0.6632 -0.3836
  818MOL0     O10326   5.633  12.191  12.154  0.1293 -0.7058 -0.4023
  818MOL0     C10327   5.621  12.258  12.274 -0.2267 -0.3313 -0.8283
  818MOL0     C10328   5.712  12.231  12.378  1.3957  0.0292  0.9721
  818MOL0     C10329   5.706  12.310  12.496  0.3657  1.0585 -0.4823
  818MOL0     C10330   5.613  12.410  12.505  0.3544  0.5751  0.8109
  818MOL0     O10331   5.610  12.468  12.627  0.1906 -0.1547 -0.0020
  818MOL0     C10332   5.483  12.511  12.690 -0.1215  0.6636  0.1518
  818MOL0     C10333   5.507  12.590  12.824 -0.1156 -0.9216 -0.3647
  818MOL0     C10334   5.593  12.516  12.918 -0.0199 -0.3098 -0.2785
  818MOL0     C10335   5.578  12.568  13.066  0.7814 -0.7162  0.3273
  818MOL0     C10336   5.501  12.461  13.145  0.7638 -0.4962  0.9015
  818MOL0     C10337   5.575  12.338  13.179  0.2736  0.4687 -0.5452
  818MOL0     C10338   5.533  12.257  13.309  0.3855 -0.2065  0.1193
  818MOL0     C10339   5.389  12.216  13.337  0.5983 -0.1423 -0.8814
  818MOL0    Cl10340   5.375  12.042  13.350 -0.0221  0.1700 -0.0273
  818MOL0     C10341   5.516  12.429  12.401  0.9801 -0.2857 -0.4654
  818MOL0     C10342   5.516  12.358  12.283 -0.9694  0.4951  0.2887
  818MOL0     O10343   5.790  12.341  12.060 -0.4127  0.6407 -0.2893
  818MOL0     C10344   5.636  12.048  11.922 -0.6692  0.1109 -0.4512
  818MOL0     C10345   5.612  11.979  11.799 -0.5808  0.3166 -0.1301
  818MOL0     N10346   5.822  11.528  11.181  0.0850  0.2897 -0.7822
  818MOL0     N10347   5.951  11.511  11.162  0.4538 -0.5062  0.3372
  818MOL0     C10348   5.534  10.964  11.192 -0.2575  0.1346 -0.0892
  818MOL0     C10349   5.401  10.993  11.211  0.2764  0.3465  0.5714
  818MOL0     C10350   5.032  11.165  11.397 -0.2232 -0.3090  0.0721
  818MOL0     C10351   4.974  11.167  11.528 -0.2231  0.7681 -0.6284
  818MOL0     C10352   4.835  11.194  11.549 -0.7183  0.5827  0.0353
  818MOL0     C10353   4.750  11.210  11.443 -0.3211  0.4213  0.7596
  818MOL0     O10354   4.611  11.228  11.457  0.2220  0.0406 -0.1303
  818MOL0     C10355   4.551  11.254  11.583  0.8378  0.3389  0.7435
  818MOL0     C10356   4.400  11.271  11.558  0.2030  0.6138 -0.5447
  818MOL0     C10357   4.358  11.389  11.462  0.4306 -0.5782  0.1581
  818MOL0     C10358   4.208  11.359  11.425 -0.1938 -0.0242  0.4431
  818MOL0     C10359   4.201  11.271  11.312  0.6766  0.9747 -1.1223
  818MOL0     C10360   4.199  11.210  11.214  0.0343  0.2716 -0.2342
  818MOL0     C10361   4.809  11.217  11.310 -0.8559 -0.0114 -0.6196
  818MOL0     C10362   4.945  11.196  11.288 -0.0746  0.7366  0.3562
  818MOL0     H10363   5.433  11.333  11.215  2.0514  1.2986 -1.4508
  818MOL0     H10364   5.666  11.276  11.199 -0.8540  0.9102  1.0601
  818MOL0     H10365   5.947  11.018  11.065  1.6024 -1.9451  2.7513
  818MOL0     H10366   5.856  11.157  11.080 -0.3212 -1.0112 -1.4957
  818MOL0     H10367   5.869  11.130  11.333 -1.3463  0.7105 -2.5691
  818MOL0     H10368   5.958  10.976  11.299 -1.0172 -1.1120 -1.3696
  818MOL0     H10369   6.108  11.130  11.153  1.4210 -1.4435  0.2090
  818MOL0     H10370   6.042  11.262  11.259  0.0188 -0.1018 -2.4473
  818MOL0     H10371   6.132  11.090  11.451  1.3108 -0.2599  0.6251
  818MOL0     H10372   6.234  11.051  11.309 -0.5356  0.3712  1.3943
  818MOL0     H10373   6.347  11.207  11.450  0.1870  1.1661  1.3665
  818MOL0     H10374   6.300  11.282  11.291 -2.2409  0.3739 -0.1584
  818MOL0     H10375   6.091  11.336  11.482 -0.2410 -0.2679  0.3073
  818MOL0     H10376   6.242  11.335  11.577  1.5741  0.9253 -0.5373
  818MOL0     H10377   6.219  11.556  11.510  1.3681 -2.2142  1.5030
  818MOL0     H10378   6.343  11.488  11.409 -0.3183  0.5864 -0.3712
  818MOL0     H10379   6.208  11.458  11.209  2.6756 -0.1289  1.2522
  818MOL0     H10380   6.185  11.630  11.258  1.2304 -0.0080  2.4593
  818MOL0     H10381   5.945  11.551  11.486  1.3822 -1.2159  0.4882
  818MOL0     H10382   5.609  11.515  11.371  0.0904  0.4235  0.3276
  818MOL0     H10383   5.702  11.542  11.508  2.0643 -1.2305 -0.9023
  818MOL0     H10384   5.568  11.737  11.458  1.7677  2.0340  1.9296
  818MOL0     H10385   5.615  11.735  11.289 -1.5106  0.4245  1.1014
  818MOL0     H10386   5.841  11.821  11.346  0.0399 -0.0818 -0.1499
  818MOL0     H10387   5.805  11.780  11.518 -1.8589 -0.7090  0.0516
  818MOL0     H10388   5.647  12.000  11.369  0.9474  1.9133  0.8786
  818MOL0     H10389   5.783  12.033  11.457  1.1360 -1.8741 -1.5199
  818MOL0     H10390   5.753  12.202  11.594  3.1917 -2.1362  0.6493
  818MOL0     H10391   5.774  12.443  11.819  3.1651  1.3148  1.7744
  818MOL0     H10392   5.923  12.343  11.835  0.0678 -2.1009 -0.7908
  818MOL0     H10393   5.841  12.383  11.686  0.1930  1.5878  0.7079
  818MOL0     H10394   5.780  12.147  12.363  0.9232 -0.0408 -1.2023
  818MOL0     H10395   5.775  12.306  12.579  4.3421  1.4717 -3.4902
  818MOL0     H10396   5.426  12.575  12.622 -3.0898 -2.7758 -0.9224
  818MOL0     H10397   5.416  12.426  12.703 -0.8179  0.9612 -1.2561
  818MOL0     H10398   5.561  12.682  12.801  1.3910 -2.5138 -3.8347
  818MOL0     H10399   5.415  12.614  12.878  0.3827 -2.1228  1.0822
  818MOL0     H10400   5.695  12.540  12.887 -1.2710  4.6229 -1.3881
  818MOL0     H10401   5.568  12.410  12.912  0.5499 -0.5926  1.7040
  818MOL0     H10402   5.676  12.587  13.110  0.3282  0.4091  0.8837
  818MOL0     H10403   5.526  12.664  13.055  0.1674 -0.8630  1.7638
  818MOL0     H10404   5.412  12.429  13.089  1.7021 -0.3284 -0.7366
  818MOL0     H10405   5.473  12.508  13.240  1.2967  3.8204 -0.8601
  818MOL0     H10406   5.562  12.263  13.100  2.0332 -1.1528  0.6294
  818MOL0     H10407   5.679  12.371  13.186  0.8052 -1.2517  0.0677
  818MOL0     H10408   5.580  12.286  13.404  1.3527  0.0394 -0.4222
  818MOL0     H10409   5.589  12.166  13.286  0.5875  0.3134 -1.5779
  818MOL0     H10410   5.339  12.259  13.250  2.5160  2.6267 -0.7663
  818MOL0     H10411   5.343  12.270  13.420  0.8453 -0.4131 -0.5631
  818MOL0     H10412   5.432  12.497  12.411  1.9305  1.1611 -1.8224
  818MOL0     H10413   5.446  12.379  12.202 -1.0603  0.4283  0.3494
  818MOL0     H10414   5.595  12.002  12.011  3.1387 -0.0424  1.4418
  818MOL0     H10415   5.546  11.893  11.798 -3.8634  2.5087  2.9916
  818MOL0     H10416   5.563  10.859  11.189 -1.4445 -0.1910 -0.9126
  818MOL0     H10417   5.328  10.913  11.217  0.9180 -0.5285 -1.9160
  818MOL0     H10418   5.032  11.153  11.619 -0.5317  0.4445 -0.4814
  818MOL0     H10419   4.801  11.214  11.651 -1.3413  2.0895 -0.4331
  818MOL0     H10420   4.573  11.173  11.654  4.3136 -1.1935 -1.7671
  818MOL0     H10421   4.585  11.353  11.616  1.7294  0.8731 -1.5652
  818MOL0     H10422   4.352  11.296  11.653  1.7116 -2.1676  1.1013
  818MOL0     H10423   4.349  11.182  11.521 -1.4578  1.0422  0.5867
  818MOL0     H10424   4.430  11.396  11.380 -1.0543 -1.1902 -1.2472
  818MOL0     H10425   4.365  11.486  11.511  0.9936 -0.2743 -0.4993
  818MOL0     H10426   4.170  11.456  11.393 -2.9953 -1.9055 -2.4966
  818MOL0     H10427   4.154  11.327  11.514 -0.8219  1.5933  0.6743
  818MOL0     H10428   4.191  11.157  11.121  1.0204 -0.5606  0.1299
  818MOL0     H10429   4.738  11.241  11.231 -2.6905  1.2183  1.2919
  818MOL0     H10430   4.978  11.181  11.186  0.1705 -2.4521  0.8196
  819MOL0     O10431   2.335   7.545   9.645 -0.2710 -0.0480 -0.5619
  819MOL0     C10432   2.304   7.601   9.757  0.4929  0.7468 -0.1074
  819MOL0     O10433   2.279   7.731   9.777 -0.7683  0.0486  0.0555
  819MOL0     C10434   2.271   7.813   9.665  0.1010 -0.2374 -0.3373
  819MOL0     C10435   2.376   7.896   9.626  0.3377 -0.0778  0.1655
  819MOL0     C10436   2.373   7.995   9.527 -0.4519 -0.2366 -0.7460
  819MOL0     C10437   2.249   7.995   9.449  0.3175  0.4374  0.4918
  819MOL0     O10438   2.217   8.080   9.341 -0.8383 -0.2845  0.4278
  819MOL0     C10439   2.306   8.074   9.231 -0.3556  1.3757  0.5306
  819MOL0     C10440   2.247   7.974   9.129 -1.4444 -0.8116 -0.4218
  819MOL0     C10441   2.330   7.969   9.011 -0.0148 -0.4450  0.4972
  819MOL0     C10442   2.484   7.927   9.035  0.0417 -0.0230 -0.2174
  819MOL0     C10443   2.572   7.915   8.907  0.3563  1.5892  1.0503
  819MOL0     C10444   2.634   8.056   8.867 -0.6950 -0.4983 -0.5606
  819MOL0     C10445   2.713   8.050   8.735 -0.4880 -0.0480  0.4412
  819MOL0     C10446   2.842   7.962   8.718  0.4973  0.5640  0.6436
  819MOL0     N10447   2.923   7.954   8.839  0.0896 -0.9154 -0.3983
  819MOL0     C10448   2.921   7.863   8.942 -0.8500 -0.7394  0.3599
  819MOL0     C10449   3.010   7.909   9.036  0.8423 -0.2555 -0.0379
  819MOL0     C10450   3.036   7.850   9.174 -0.0092 -0.3673  0.5211
  819MOL0     C10451   3.136   7.944   9.252  0.5849  0.4326 -0.5879
  819MOL0     C10452   3.061   8.072   9.307  0.1785 -0.6795  0.1885
  819MOL0     C10453   3.125   8.148   9.423 -0.1457 -0.4000 -1.0736
  819MOL0     O10454   3.024   8.250   9.457  0.2403 -0.3707 -0.0980
  819MOL0     C10455   3.069   8.343   9.549 -0.2230  0.1219  0.3752
  819MOL0     C10456   3.182   8.334   9.634 -0.1643 -0.1914 -0.5367
  819MOL0     C10457   3.221   8.439   9.717 -0.2392 -1.1063 -0.0824
  819MOL0     C10458   3.340   8.421   9.802  0.5105  0.9468  0.3383
  819MOL0     C10459   3.145   8.560   9.719  0.2010  0.2137 -1.1576
  819MOL0     C10460   3.162   8.676   9.810 -0.2126  0.0102 -0.0890
  819MOL0     O10461   3.055   8.770   9.807  0.5095  0.0354 -1.3959
  819MOL0     C10462   3.046   8.888   9.876  0.3852 -0.5867 -0.6356
  819MOL0     C10463   2.986   8.993   9.802  0.4892 -0.4272  0.0332
  819MOL0     C10464   2.985   9.127   9.851 -0.6922  0.5175  0.1920
  819MOL0     C10465   3.050   9.151   9.967 -0.9130 -0.1089 -0.1920
  819MOL0     O10466   3.085   9.275  10.005  0.1895 -0.6459 -0.7051
  819MOL0     C10467   3.124   9.376   9.917  0.2095 -0.2440 -0.5247
  819MOL0     C10468   3.109   9.515   9.972  0.3772  0.2563 -0.4918
  819MOL0     C10469   2.969   9.551  10.033  1.0310 -0.1360 -1.1363
  819MOL0     C10470   2.930   9.468  10.168 -1.1038  0.0416  0.3593
  819MOL0     C10471   2.811   9.554  10.234  0.0254  0.2233 -0.1356
  819MOL0     C10472   2.798   9.508  10.380  0.0367 -0.1713 -0.0013
  819MOL0     C10473   2.698   9.578  10.454  0.5996  0.4285 -0.3706
  819MOL0     C10474   2.592   9.469  10.499 -0.2352 -0.1067 -0.3869
  819MOL0    Cl10475   2.457   9.544  10.587  0.2569  0.2188  0.1339
  819MOL0     C10476   3.095   9.041  10.044 -0.2520 -1.2440 -0.3726
  819MOL0     C10477   3.097   8.915  10.002  0.3268  0.0017  0.4161
  819MOL0     O10478   3.258   8.683   9.876  0.8866  0.0664 -0.4648
  819MOL0     C10479   3.039   8.569   9.631  0.1171  0.6178  0.0264
  819MOL0     C10480   3.003   8.462   9.549 -0.0757 -0.0821  0.4025
  819MOL0     N10481   3.067   8.024   8.983  0.5595  0.2734  0.2040
  819MOL0     N10482   3.015   8.052   8.866  0.5455  0.7667 -0.1479
  819MOL0     C10483   2.145   7.900   9.476 -0.4682  0.4565 -0.0589
  819MOL0     C10484   2.151   7.820   9.589  0.7215  1.0525  0.5026
  819MOL0     C10485   2.314   7.513   9.879 -0.5577  0.4362 -0.3036
  819MOL0     C10486   2.340   7.368   9.881 -0.3530  0.6361  0.3111
  819MOL0     C10487   2.356   7.300  10.006  0.1973 -0.2403  0.2440
  819MOL0     C10488   2.328   7.363  10.133  0.1443  0.9992 -1.0019
  819MOL0     O10489   2.337   7.278  10.240 -0.0034  0.1386  0.0015
  819MOL0     C10490   2.299   7.328  10.374  0.3019  0.0713 -0.4819
  819MOL0     C10491   2.369   7.252  10.484  0.7741 -0.0641 -0.2411
  819MOL0     C10492   2.354   7.101  10.472 -0.9706 -0.2115  0.2313
  819MOL0     C10493   2.456   7.028  10.564  0.0606  0.3999  0.0531
  819MOL0     C10494   2.440   7.058  10.704  0.0992  0.3848  0.3242
  819MOL0     C10495   2.413   7.085  10.819  0.4456 -0.1278 -1.0201
  819MOL0     C10496   2.298   7.500  10.130 -0.4857 -0.0518  0.5323
  819MOL0     C10497   2.303   7.570  10.005  0.4269  0.9264 -0.1879
  819MOL0     H10498   2.461   7.901   9.694  0.8888 -0.2998 -0.4981
  819MOL0     H10499   2.448   8.065   9.492 -0.4545  1.1826  1.8882
  819MOL0     H10500   2.322   8.171   9.184  0.4650  2.5027  2.9905
  819MOL0     H10501   2.405   8.035   9.257 -0.0997  0.1051 -1.9751
  819MOL0     H10502   2.233   7.876   9.176  0.8897 -1.0651 -0.1454
  819MOL0     H10503   2.152   8.011   9.090 -1.3876  2.3263  2.0304
  819MOL0     H10504   2.286   7.907   8.933 -0.2968  2.8908 -2.2292
  819MOL0     H10505   2.335   8.066   8.962  1.0618 -1.1127 -0.7799
  819MOL0     H10506   2.543   7.983   9.108  0.8299 -0.9367 -0.1410
  819MOL0     H10507   2.486   7.823   9.070 -2.3681 -0.5027 -1.3083
  819MOL0     H10508   2.647   7.837   8.927 -1.7450 -1.2092 -1.1945
  819MOL0     H10509   2.515   7.888   8.818  0.9220 -3.0009  1.8375
  819MOL0     H10510   2.549   8.125   8.860 -0.9873 -0.5752  1.4827
  819MOL0     H10511   2.693   8.103   8.946 -0.3107 -1.3178 -0.3469
  819MOL0     H10512   2.639   8.016   8.663  0.5955  0.0027 -0.7269
  819MOL0     H10513   2.746   8.150   8.706 -3.7484  0.7315 -0.9926
  819MOL0     H10514   2.903   7.998   8.635  1.8034 -2.2684  0.2627
  819MOL0     H10515   2.812   7.861   8.690  0.9190  0.7614 -0.5608
  819MOL0     H10516   2.854   7.778   8.945 -0.5739 -1.0200 -0.6897
  819MOL0     H10517   2.937   7.847   9.222 -2.2824  0.5788 -3.6413
  819MOL0     H10518   3.082   7.751   9.165  1.1276  0.1368  0.6208
  819MOL0     H10519   3.228   7.971   9.199  1.2664 -1.5922 -0.5106
  819MOL0     H10520   3.165   7.889   9.341 -4.8245 -3.2732 -0.6500
  819MOL0     H10521   2.966   8.035   9.347  0.1855 -1.2514 -0.3117
  819MOL0     H10522   3.040   8.146   9.229 -2.4028  0.0944  1.5234
  819MOL0     H10523   3.222   8.194   9.402  0.8583 -2.2733 -0.7267
  819MOL0     H10524   3.143   8.079   9.506  1.0707  0.1379 -0.8697
  819MOL0     H10525   3.235   8.243   9.659 -0.5051  0.3607  2.6670
  819MOL0     H10526   3.411   8.360   9.745  0.3527  0.6835  0.4247
  819MOL0     H10527   3.391   8.508   9.844 -1.5449  2.1010  0.5315
  819MOL0     H10528   3.324   8.355   9.887 -3.0086 -1.1799 -1.7450
  819MOL0     H10529   2.917   8.968   9.723 -0.8158  0.4611  0.8524
  819MOL0     H10530   2.938   9.208   9.797  0.0314  0.2692 -0.8373
  819MOL0     H10531   3.229   9.353   9.897  1.0171  0.0172  2.7559
  819MOL0     H10532   3.061   9.376   9.828  0.7357  0.1397 -0.8992
  819MOL0     H10533   3.179   9.538  10.052 -1.5420  0.1456  1.3048
  819MOL0     H10534   3.135   9.576   9.885 -0.6371 -3.7797 -3.9654
  819MOL0     H10535   2.884   9.546   9.964 -0.9442 -0.7655  1.1720
  819MOL0     H10536   2.979   9.655  10.064 -1.4694 -0.3809  0.8579
  819MOL0     H10537   2.898   9.368  10.139  0.5260  0.3615 -2.9393
  819MOL0     H10538   3.015   9.467  10.236 -1.2978  0.0808  0.6044
  819MOL0     H10539   2.715   9.527  10.189  0.8956  2.5724 -3.9519
  819MOL0     H10540   2.831   9.660  10.212 -0.1051 -0.3011 -3.2115
  819MOL0     H10541   2.800   9.399  10.385  2.9235 -0.1687  4.5403
  819MOL0     H10542   2.895   9.526  10.427 -0.1607 -0.9762  0.7343
  819MOL0     H10543   2.638   9.648  10.394  0.0904  0.6520  0.3877
  819MOL0     H10544   2.746   9.625  10.540  1.4390  0.5803 -0.9116
  819MOL0     H10545   2.634   9.387  10.557  0.4457  1.0308  0.7790
  819MOL0     H10546   2.553   9.414  10.413 -0.7617  0.1796 -0.3378
  819MOL0     H10547   3.149   9.073  10.133  0.8309 -1.1903 -1.0350
  819MOL0     H10548   3.157   8.841  10.053  1.3191 -1.4229 -2.5862
  819MOL0     H10549   2.960   8.642   9.639 -0.1796  0.3750 -0.6520
  819MOL0     H10550   2.918   8.467   9.481 -0.4489 -0.7169  0.8074
  819MOL0     H10551   2.056   7.898   9.413  0.2670  1.6602 -1.1840
  819MOL0     H10552   2.069   7.753   9.612  0.4546  1.3427  0.4033
  819MOL0     H10553   2.337   7.322   9.783  0.6908 -0.5675  0.8103
  819MOL0     H10554   2.396   7.199  10.004 -1.7676 -1.0809 -2.2372
  819MOL0     H10555   2.325   7.434  10.382  0.4055 -0.0507  1.1870
  819MOL0     H10556   2.190   7.320  10.380  0.1497  0.8447 -1.8294
  819MOL0     H10557   2.337   7.277  10.586 -1.8048 -2.0427 -0.4658
  819MOL0     H10558   2.476   7.277  10.482  0.4288  1.4896 -1.2937
  819MOL0     H10559   2.375   7.080  10.367  5.5505  0.1907  1.0583
  819MOL0     H10560   2.258   7.062  10.507 -1.2394 -0.7629 -1.0665
  819MOL0     H10561   2.558   7.054  10.532  1.0522 -2.6676  0.3214
  819MOL0     H10562   2.448   6.919  10.562  1.2321  0.2361  1.7349
  819MOL0     H10563   2.372   7.101  10.917 -2.8094 -0.5969 -2.1813
  819MOL0     H10564   2.272   7.556  10.219 -1.1808 -0.9657  0.9190
  819MOL0     H10565   2.273   7.674  10.007  3.5245  1.9226  0.7657
  820MOL0     O10566   3.624   1.168  10.443 -0.5536 -0.2942  0.3646
  820MOL0     C10567   3.545   1.131  10.529 -0.7804 -0.2577 -0.6259
  820MOL0     O10568   3.474   1.206  10.617  0.4432  0.8765 -0.3471
  820MOL0     C10569   3.445   1.338  10.590 -0.4638 -0.3194 -0.1362
  820MOL0     C10570   3.322   1.394  10.595  0.1068 -0.0579 -0.9452
  820MOL0     C10571   3.298   1.531  10.570  0.3254 -0.8799 -1.4962
  820MOL0     C10572   3.406   1.621  10.542 -0.6840 -0.4761  0.7938
  820MOL0     O10573   3.400   1.756  10.530  0.0855 -0.7429 -0.1129
  820MOL0     C10574   3.301   1.826  10.609 -0.5437 -0.2858 -0.4022
  820MOL0     C10575   3.332   1.971  10.608  0.2178  0.5389 -0.2372
  820MOL0     C10576   3.375   2.030  10.468  0.3809  0.5025  0.1017
  820MOL0     C10577   3.266   2.033  10.360  0.0193 -1.4311 -0.1058
  820MOL0     C10578   3.191   2.166  10.365 -0.2652  0.0686  0.4217
  820MOL0     C10579   3.071   2.171  10.276 -0.0144 -0.0240 -0.2677
  820MOL0     C10580   3.093   2.169  10.129 -0.5331  1.1322 -0.8941
  820MOL0     C10581   2.979   2.192  10.037 -0.3773  0.3314  0.2469
  820MOL0     N10582   2.862   2.121  10.090  0.2633  0.6619  0.6861
  820MOL0     C10583   2.834   1.996  10.052 -0.3649  0.1524 -0.6438
  820MOL0     C10584   2.735   1.973  10.129  0.0684  1.4405  0.1931
  820MOL0     C10585   2.665   1.830  10.141 -0.1395  0.0403  1.0389
  820MOL0     C10586   2.781   1.741  10.199 -0.3725  0.0689 -0.5293
  820MOL0     C10587   2.852   1.793  10.331 -0.6546  0.8916  0.4537
  820MOL0     C10588   2.981   1.715  10.372  0.9155  0.3931 -0.1251
  820MOL0     O10589   2.961   1.576  10.342  0.1105 -0.1979  0.0637
  820MOL0     C10590   2.898   1.483  10.426  1.2768  0.1801  0.6029
  820MOL0     C10591   2.898   1.492  10.564  0.1486  0.6453 -0.0223
  820MOL0     C10592   2.808   1.420  10.639  0.9886 -0.3858  0.2245
  820MOL0     C10593   2.825   1.443  10.794  0.1742  0.2850  0.7817
  820MOL0     C10594   2.721   1.329  10.583  0.5631  0.0051 -0.0956
  820MOL0     C10595   2.613   1.255  10.666 -0.8351 -0.0592 -0.1983
  820MOL0     O10596   2.563   1.142  10.602 -0.1244 -0.6458 -0.6168
  820MOL0     C10597   2.472   1.063  10.661  1.8350  0.2384  0.2746
  820MOL0     C10598   2.350   1.043  10.600 -0.1208 -0.4212 -0.2038
  820MOL0     C10599   2.250   0.963  10.654 -0.9340 -1.1608 -0.0844
  820MOL0     C10600   2.266   0.893  10.782  0.0565  0.5127 -0.7883
  820MOL0     O10601   2.184   0.789  10.831  0.9891 -0.8174  0.9094
  820MOL0     C10602   2.055   0.778  10.777 -0.8031 -0.6270  0.2818
  820MOL0     C10603   1.964   0.907  10.799  0.3097  0.6519 -0.4238
  820MOL0     C10604   1.934   0.958  10.945 -0.4397  0.1429 -0.0840
  820MOL0     C10605   2.042   1.056  10.990  0.7476 -0.1437 -0.6890
  820MOL0     C10606   1.990   1.156  11.106  0.2054  0.0601  0.9886
  820MOL0     C10607   1.926   1.090  11.231  0.5433 -0.2187  0.4891
  820MOL0     C10608   1.916   1.181  11.362  0.2556  0.2035  0.3381
  820MOL0     C10609   1.868   1.320  11.325 -0.4786  0.4694  0.2801
  820MOL0    Cl10610   1.815   1.402  11.488 -0.6926  0.0103  0.2510
  820MOL0     C10611   2.392   0.912  10.842  0.6954 -0.2421  0.0585
  820MOL0     C10612   2.489   0.996  10.785 -0.0601 -0.0288 -0.6148
  820MOL0     O10613   2.584   1.287  10.781  0.4002  0.1951  0.6917
  820MOL0     C10614   2.724   1.317  10.443 -0.0491 -0.2188 -0.1948
  820MOL0     C10615   2.804   1.406  10.365  0.4672  0.3983  0.7913
  820MOL0     N10616   2.696   2.081  10.208  0.3100 -0.4190 -0.3404
  820MOL0     N10617   2.782   2.168  10.184 -0.9055 -0.1597 -0.0469
  820MOL0     C10618   3.538   1.565  10.538 -0.4132  0.9521  0.9252
  820MOL0     C10619   3.559   1.426  10.562 -0.2996 -0.5259 -0.3112
  820MOL0     C10620   3.503   0.991  10.535  0.2103  0.7400 -0.1270
  820MOL0     C10621   3.555   0.887  10.441  0.3748 -0.0621  1.4482
  820MOL0     C10622   3.506   0.750  10.443 -0.0896 -0.1492 -0.5764
  820MOL0     C10623   3.406   0.708  10.534 -0.8746  0.0374  0.2690
  820MOL0     O10624   3.369   0.573  10.538  0.7963  0.0303 -0.8601
  820MOL0     C10625   3.236   0.542  10.593 -0.7528  0.0058 -0.3611
  820MOL0     C10626   3.231   0.490  10.735 -0.2188  0.1895  0.4021
  820MOL0     C10627   3.101   0.414  10.760 -0.0967 -0.2254  0.1836
  820MOL0     C10628   3.109   0.367  10.915 -0.5261  0.5573  0.4482
  820MOL0     C10629   3.008   0.263  10.934  0.0525  0.6148 -0.7318
  820MOL0     C10630   2.934   0.173  10.972 -0.8155  0.0246 -0.0963
  820MOL0     C10631   3.351   0.809  10.620  0.8894 -1.1159 -0.8887
  820MOL0     C10632   3.392   0.940  10.620 -0.3344  0.3142 -0.6747
  820MOL0     H10633   3.250   1.320  10.627 -1.1730  0.3839 -2.6743
  820MOL0     H10634   3.197   1.571  10.571  0.4947 -0.4576 -0.7880
  820MOL0     H10635   3.199   1.819  10.569 -2.0194 -0.3641  3.0160
  820MOL0     H10636   3.291   1.791  10.713 -0.0065 -0.3866 -0.3852
  820MOL0     H10637   3.240   2.026  10.629 -0.6716 -0.8247 -0.4197
  820MOL0     H10638   3.399   1.998  10.690  2.1314  0.6560 -1.7572
  820MOL0     H10639   3.426   2.124  10.491  1.9613 -0.9116  2.9654
  820MOL0     H10640   3.452   1.963  10.430 -0.9384 -1.1318  0.2213
  820MOL0     H10641   3.325   2.022  10.268  3.0909  0.7953  1.3988
  820MOL0     H10642   3.195   1.953  10.379  0.6382 -1.8923  0.3071
  820MOL0     H10643   3.163   2.184  10.470 -0.0819  0.0057  0.4816
  820MOL0     H10644   3.257   2.241  10.321 -2.5814  2.0464  0.1564
  820MOL0     H10645   2.998   2.098  10.312 -1.7930  0.7448 -2.1153
  820MOL0     H10646   3.035   2.274  10.288  2.6725  0.9659  0.0239
  820MOL0     H10647   3.168   2.245  10.105 -3.6729  3.7159 -3.2261
  820MOL0     H10648   3.127   2.067  10.106 -1.4636  0.3698  0.8922
  820MOL0     H10649   3.013   2.163   9.937  2.7051 -1.7932  1.7608
  820MOL0     H10650   2.945   2.296  10.046 -2.6133 -0.4194  1.4401
  820MOL0     H10651   2.885   1.920   9.995  5.1689  2.0972  1.0321
  820MOL0     H10652   2.592   1.844  10.221 -1.4057  0.2493 -0.1221
  820MOL0     H10653   2.614   1.808  10.047 -1.6503 -0.0736  1.8503
  820MOL0     H10654   2.855   1.729  10.119 -1.1503  0.3114 -1.2991
  820MOL0     H10655   2.741   1.642  10.224  0.4466  0.0274  0.7353
  820MOL0     H10656   2.781   1.782  10.413  0.6653 -1.3762  1.3909
  820MOL0     H10657   2.879   1.898  10.325  0.7168  0.5176 -0.5605
  820MOL0     H10658   2.984   1.736  10.479 -1.8114  1.2816 -0.1359
  820MOL0     H10659   3.070   1.756  10.323  0.6754  4.4874  2.3773
  820MOL0     H10660   2.974   1.545  10.621 -3.3290  1.9229  3.9655
  820MOL0     H10661   2.725   1.453  10.837 -1.1153  1.1344 -2.1178
  820MOL0     H10662   2.867   1.354  10.841 -0.3105 -0.7895 -0.7456
  820MOL0     H10663   2.887   1.530  10.819  3.2966  0.0663 -4.6428
  820MOL0     H10664   2.320   1.098  10.512  2.4122  3.3425  1.0385
  820MOL0     H10665   2.158   0.936  10.604 -1.3009  0.7681 -0.5195
  820MOL0     H10666   2.069   0.751  10.672 -2.7077  0.3952 -0.2743
  820MOL0     H10667   2.000   0.696  10.824 -0.5461 -3.5463 -3.9593
  820MOL0     H10668   2.006   0.997  10.753  0.3563  0.3095 -1.0605
  820MOL0     H10669   1.868   0.883  10.753  1.4277 -2.2932 -1.4561
  820MOL0     H10670   1.925   0.888  11.029  3.2419  3.4135  3.4591
  820MOL0     H10671   1.842   1.015  10.955 -0.7408 -0.5052  1.0331
  820MOL0     H10672   2.129   1.007  11.034  1.6599  2.4492  0.5936
  820MOL0     H10673   2.094   1.116  10.915  3.4668  0.1408  1.2680
  820MOL0     H10674   1.911   1.224  11.072  0.4795 -0.1034  0.0063
  820MOL0     H10675   2.074   1.220  11.134  0.7891 -1.0861  1.9629
  820MOL0     H10676   1.824   1.064  11.203 -0.7168  3.3694  1.3333
  820MOL0     H10677   1.983   1.001  11.261 -0.6615 -0.7126  1.3827
  820MOL0     H10678   2.015   1.177  11.407 -0.1756 -0.9730  1.2291
  820MOL0     H10679   1.847   1.134  11.433  0.9767 -0.8176  0.3824
  820MOL0     H10680   1.787   1.313  11.252  1.1523 -4.0824 -1.3991
  820MOL0     H10681   1.956   1.367  11.278  2.3341 -2.1475  2.4950
  820MOL0     H10682   2.399   0.846  10.927  4.0622 -3.1981 -2.2207
  820MOL0     H10683   2.588   1.013  10.826 -0.1509  2.5681 -1.2731
  820MOL0     H10684   2.664   1.245  10.388  0.2882 -1.2864  0.8158
  820MOL0     H10685   2.784   1.406  10.258  4.0034 -0.4125  0.0158
  820MOL0     H10686   3.621   1.629  10.512 -1.6381  2.7595  1.2512
  820MOL0     H10687   3.659   1.386  10.554 -0.6715 -1.4939 -0.2940
  820MOL0     H10688   3.638   0.913  10.376 -1.0283 -0.4970 -0.6255
  820MOL0     H10689   3.555   0.671  10.387 -1.3530 -0.6543 -1.0022
  820MOL0     H10690   3.174   0.631  10.581  1.2668  1.3963 -1.0236
  820MOL0     H10691   3.197   0.467  10.524  2.8900  0.4425 -3.1544
  820MOL0     H10692   3.246   0.578  10.798  1.0938  1.0355 -1.0308
  820MOL0     H10693   3.312   0.419  10.753 -1.3997 -1.1221  0.7355
  820MOL0     H10694   3.088   0.337  10.683 -1.3052  1.0450 -0.9290
  820MOL0     H10695   3.014   0.479  10.750 -0.0982 -0.2500  0.0232
  820MOL0     H10696   3.084   0.454  10.977  0.2482  0.0203  1.5439
  820MOL0     H10697   3.210   0.333  10.939 -0.0552  0.7794 -1.1117
  820MOL0     H10698   2.874   0.090  11.004  0.8554 -1.6652 -1.1251
  820MOL0     H10699   3.260   0.796  10.679 -0.0816  1.8796 -1.5770
  820MOL0     H10700   3.348   1.005  10.694 -1.6767 -0.0116 -1.1674
  821MOL0     O10701   7.860   0.600   6.551 -0.1283 -0.3374 -0.2354
  821MOL0     C10702   7.948   0.580   6.471  0.4295 -0.0218 -0.3444
  821MOL0     O10703   7.988   0.656   6.367  0.0071 -0.2846 -0.4031
  821MOL0     C10704   7.975   0.789   6.360 -0.1469 -0.6804 -0.7322
  821MOL0     C10705   8.067   0.862   6.280  0.1329 -0.2420  0.2065
  821MOL0     C10706   8.060   1.007   6.279 -0.0265  0.2529  0.8271
  821MOL0     C10707   7.955   1.077   6.339  0.2958 -0.3811 -0.2744
  821MOL0     O10708   7.960   1.214   6.333 -0.5273  0.4428  0.2096
  821MOL0     C10709   7.920   1.283   6.464 -0.0726  0.0209  0.7579
  821MOL0     C10710   7.985   1.420   6.487  0.5996  0.0378 -0.0682
  821MOL0     C10711   7.951   1.517   6.368  0.1703  0.4085 -0.5175
  821MOL0     C10712   7.805   1.570   6.382 -1.1982 -0.0858  0.0864
  821MOL0     C10713   7.786   1.692   6.293  0.3110  0.0522 -0.1425
  821MOL0     C10714   7.833   1.824   6.360 -0.9395  0.7996  1.0317
  821MOL0     C10715   7.979   1.859   6.366 -0.3400 -0.2799 -1.3159
  821MOL0     C10716   8.009   1.997   6.415 -0.1048  0.7996 -0.8363
  821MOL0     N10717   7.965   2.022   6.552 -0.7884  0.0336  0.0165
  821MOL0     C10718   7.847   2.080   6.580 -0.0454 -0.6108  0.3023
  821MOL0     C10719   7.858   2.122   6.706  0.5187 -0.3318  0.4980
  821MOL0     C10720   7.762   2.200   6.782  0.5424 -0.4935 -0.4890
  821MOL0     C10721   7.748   2.340   6.717  0.7143 -0.3070  1.0742
  821MOL0     C10722   7.630   2.419   6.778 -0.3606 -0.0810 -0.0497
  821MOL0     C10723   7.614   2.561   6.726 -0.2405  0.3305  0.4935
  821MOL0     O10724   7.555   2.537   6.598  0.4593 -0.0845 -1.0421
  821MOL0     C10725   7.546   2.643   6.519  0.6871 -0.2963  1.0647
  821MOL0     C10726   7.515   2.612   6.383 -0.5687 -0.3148 -0.5566
  821MOL0     C10727   7.527   2.705   6.278 -0.2417 -1.0161 -0.3804
  821MOL0     C10728   7.503   2.654   6.145 -0.4703  0.3538 -0.1060
  821MOL0     C10729   7.564   2.843   6.311 -0.7265  0.7454  0.0239
  821MOL0     C10730   7.567   2.962   6.220  0.5737 -0.7708  1.0157
  821MOL0     O10731   7.649   3.069   6.248  0.0168  0.3464 -0.3317
  821MOL0     C10732   7.640   3.186   6.173  0.4097  0.0059  0.9507
  821MOL0     C10733   7.755   3.260   6.130  0.0064  0.2432  0.0226
  821MOL0     C10734   7.733   3.375   6.059  0.7917 -0.5791  0.3942
  821MOL0     C10735   7.612   3.442   6.041  0.3924 -0.1102 -0.9366
  821MOL0     O10736   7.592   3.565   5.989 -1.0020 -0.3837  0.4387
  821MOL0     C10737   7.696   3.657   5.974 -0.6750 -0.7935  0.2569
  821MOL0     C10738   7.675   3.786   5.881  0.2932  0.5516 -0.0400
  821MOL0     C10739   7.614   3.896   5.967 -0.9078  0.5291  0.0618
  821MOL0     C10740   7.588   4.018   5.881  0.5369 -0.5245 -0.9255
  821MOL0     C10741   7.586   4.150   5.968  0.5395  0.0871  0.4501
  821MOL0     C10742   7.537   4.278   5.894  0.8386  0.3892  0.1155
  821MOL0     C10743   7.596   4.310   5.756  1.1210 -0.4557 -0.2756
  821MOL0     C10744   7.745   4.358   5.749 -0.1152 -0.8083 -0.1948
  821MOL0    Cl10745   7.761   4.391   5.577 -0.1602  0.3561 -0.8891
  821MOL0     C10746   7.496   3.374   6.093 -0.0353 -0.8433  0.3915
  821MOL0     C10747   7.508   3.253   6.157 -0.1105  0.2625  0.2356
  821MOL0     O10748   7.511   2.956   6.109 -0.4215 -0.5630 -0.2996
  821MOL0     C10749   7.590   2.867   6.454 -0.4225  0.5922  0.8339
  821MOL0     C10750   7.579   2.773   6.551  0.8398 -0.6402  0.3712
  821MOL0     N10751   7.981   2.079   6.754  0.7976  0.5313 -0.1785
  821MOL0     N10752   8.046   2.017   6.663  0.5443 -0.0090  0.7196
  821MOL0     C10753   7.867   1.001   6.415 -0.8204 -0.6683  0.2818
  821MOL0     C10754   7.873   0.860   6.424  0.9122  0.5348 -0.0256
  821MOL0     C10755   8.030   0.463   6.509 -0.3163 -0.2800  0.5737
  821MOL0     C10756   8.143   0.448   6.438 -0.6138 -1.2651 -0.4018
  821MOL0     C10757   8.235   0.356   6.482  0.1368  0.4462  0.5185
  821MOL0     C10758   8.195   0.246   6.568  0.0677  0.5280  0.8988
  821MOL0     O10759   8.267   0.134   6.619 -0.6147 -0.4726  0.4024
  821MOL0     C10760   8.385   0.107   6.543  0.0649 -0.4406 -0.1345
  821MOL0     C10761   8.357   0.052   6.408 -0.6541 -0.2066  0.0500
  821MOL0     C10762   8.281  -0.081   6.407 -0.2189 -1.0368 -0.0570
  821MOL0     C10763   8.306  -0.146   6.277  0.1503 -1.4289 -0.4921
  821MOL0     C10764   8.229  -0.278   6.267  1.3502 -0.6286  0.1355
  821MOL0     C10765   8.160  -0.382   6.282 -0.0151  0.0935  0.0503
  821MOL0     C10766   8.072   0.255   6.613 -0.3895 -0.3956  0.0633
  821MOL0     C10767   7.987   0.364   6.589 -1.2583  0.8378  0.2606
  821MOL0     H10768   8.145   0.805   6.231  2.4628  0.0598  3.2331
  821MOL0     H10769   8.134   1.059   6.219  0.7586 -0.4354  1.1662
  821MOL0     H10770   7.813   1.288   6.440 -0.8110 -2.9837  2.8935
  821MOL0     H10771   7.933   1.221   6.553  0.6945 -0.7001  0.1646
  821MOL0     H10772   7.950   1.448   6.586  0.8502 -1.2956  0.4192
  821MOL0     H10773   8.095   1.417   6.489  0.7232  2.6034  0.2497
  821MOL0     H10774   8.030   1.592   6.359  0.2847  0.5647  1.3524
  821MOL0     H10775   7.968   1.461   6.275  3.0805  0.0894  0.1227
  821MOL0     H10776   7.734   1.490   6.361 -1.7150 -0.3948  2.6639
  821MOL0     H10777   7.787   1.603   6.485 -1.1302 -2.9063  1.0825
  821MOL0     H10778   7.832   1.666   6.197  1.9874 -1.5440  1.0217
  821MOL0     H10779   7.681   1.703   6.264  0.1407  0.4409  0.6038
  821MOL0     H10780   7.765   1.895   6.313  0.2109  1.0314 -0.3288
  821MOL0     H10781   7.800   1.814   6.464 -1.3053 -5.5397  0.7136
  821MOL0     H10782   8.036   1.783   6.420  1.1907  0.2788 -2.0939
  821MOL0     H10783   8.017   1.860   6.263  1.0471  1.5139 -0.8333
  821MOL0     H10784   7.969   2.060   6.335 -0.8511  0.9965 -0.3174
  821MOL0     H10785   8.115   2.016   6.431  0.3518 -2.1306  0.2643
  821MOL0     H10786   7.772   2.083   6.502  0.8437 -2.2064 -0.6742
  821MOL0     H10787   7.665   2.150   6.779  0.1714  0.2441 -1.7583
  821MOL0     H10788   7.803   2.204   6.883  1.8381  0.8510 -1.0221
  821MOL0     H10789   7.742   2.336   6.608 -0.6084 -1.9757  1.1690
  821MOL0     H10790   7.840   2.394   6.741  1.9522 -0.9463 -1.8909
  821MOL0     H10791   7.636   2.417   6.888 -3.0583  1.1070  0.2018
  821MOL0     H10792   7.538   2.364   6.757  0.2587 -1.0979 -0.1553
  821MOL0     H10793   7.716   2.600   6.713  0.8099 -2.6651 -1.1664
  821MOL0     H10794   7.543   2.611   6.793 -2.9710  1.3086 -2.8326
  821MOL0     H10795   7.490   2.508   6.363  0.8576 -0.5932 -1.0291
  821MOL0     H10796   7.582   2.664   6.070 -1.9283  0.5319 -1.6613
  821MOL0     H10797   7.489   2.545   6.148 -0.9674  0.4235  1.9897
  821MOL0     H10798   7.422   2.704   6.092 -0.4004  0.1188 -0.4352
  821MOL0     H10799   7.850   3.218   6.159  0.3319  0.9360 -0.0321
  821MOL0     H10800   7.820   3.426   6.018 -0.5548  2.3261  0.8872
  821MOL0     H10801   7.742   3.685   6.069  0.0224  0.8193 -0.5239
  821MOL0     H10802   7.781   3.610   5.924 -0.3118 -0.7983  0.8641
  821MOL0     H10803   7.772   3.804   5.834  0.6247  1.7658  1.0738
  821MOL0     H10804   7.607   3.760   5.799  0.6152  0.7590 -0.3782
  821MOL0     H10805   7.686   3.930   6.042 -2.1972 -0.9671  2.0995
  821MOL0     H10806   7.528   3.868   6.029  1.4022 -1.1516  2.7425
  821MOL0     H10807   7.658   4.027   5.798  0.3893  1.2822 -0.9051
  821MOL0     H10808   7.486   3.999   5.845  0.6634 -1.8185 -0.6549
  821MOL0     H10809   7.685   4.166   6.012 -0.2108  0.2945  2.1467
  821MOL0     H10810   7.521   4.132   6.054  0.5728 -0.7685  0.3007
  821MOL0     H10811   7.428   4.267   5.895  0.8656 -0.2373 -1.3176
  821MOL0     H10812   7.559   4.367   5.954  0.7025 -0.6662  1.7965
  821MOL0     H10813   7.532   4.388   5.714  2.2166  0.9046  0.4912
  821MOL0     H10814   7.569   4.220   5.700 -0.0479  0.5561 -1.3989
  821MOL0     H10815   7.809   4.278   5.789  0.7868  0.3128  0.6633
  821MOL0     H10816   7.756   4.451   5.804 -2.5170 -0.7639  0.3292
  821MOL0     H10817   7.402   3.429   6.088 -0.7234 -2.0090  0.2056
  821MOL0     H10818   7.420   3.206   6.200 -1.1688 -2.0659 -3.9140
  821MOL0     H10819   7.605   2.970   6.481  0.4623  0.4035  1.0836
  821MOL0     H10820   7.582   2.808   6.654 -2.7764  0.6083  0.1914
  821MOL0     H10821   7.786   1.056   6.462 -1.3345 -0.9752 -0.2289
  821MOL0     H10822   7.796   0.810   6.482  1.0426  1.6771  1.2073
  821MOL0     H10823   8.169   0.526   6.366 -0.9990 -0.0837  0.7081
  821MOL0     H10824   8.332   0.346   6.434 -0.2259  2.6416 -0.7744
  821MOL0     H10825   8.450   0.195   6.547 -1.5022  0.7403  1.5753
  821MOL0     H10826   8.428   0.031   6.609 -1.2060 -0.3652  0.8240
  821MOL0     H10827   8.455   0.035   6.362 -0.4966 -4.8499  1.5937
  821MOL0     H10828   8.302   0.129   6.353 -2.5085 -0.9679  0.7672
  821MOL0     H10829   8.175  -0.059   6.415  0.3313  2.8520 -1.1825
  821MOL0     H10830   8.298  -0.145   6.493  1.6575  0.6226  0.9158
  821MOL0     H10831   8.408  -0.186   6.270  0.2044 -1.2566 -0.6872
  821MOL0     H10832   8.289  -0.082   6.190 -1.1685  3.4988  2.9815
  821MOL0     H10833   8.096  -0.467   6.296  1.6348 -1.3742 -0.8257
  821MOL0     H10834   8.026   0.173   6.668  3.4187 -1.5865  1.8331
  821MOL0     H10835   7.886   0.374   6.627 -2.3083 -0.2862 -2.0757
  822MOL0     O10836  10.861   4.718   9.530 -0.0561 -0.2488  0.0625
  822MOL0     C10837  10.921   4.807   9.478 -0.1545 -0.5803  0.1363
  822MOL0     O10838  10.912   4.939   9.522  0.3309 -0.8730  0.2651
  822MOL0     C10839  10.849   4.971   9.645 -0.1254  0.9423  1.0730
  822MOL0     C10840  10.848   4.879   9.756  1.3254 -0.7251 -1.2321
  822MOL0     C10841  10.776   4.914   9.875 -0.2772 -1.1856  0.0156
  822MOL0     C10842  10.721   5.041   9.880  0.0382 -0.1832  0.2894
  822MOL0     O10843  10.638   5.061   9.981 -0.2723 -0.6484 -0.5052
  822MOL0     C10844  10.705   5.118  10.092 -0.2438 -0.2365  0.4042
  822MOL0     C10845  10.610   5.144  10.205  0.3271 -0.4592 -0.2745
  822MOL0     C10846  10.690   5.241  10.305  1.3387 -0.6221  0.3364
  822MOL0     C10847  10.596   5.298  10.415 -0.0606 -0.3810  0.2791
  822MOL0     C10848  10.670   5.392  10.504 -0.3505 -0.0897 -0.2047
  822MOL0     C10849  10.582   5.488  10.581 -0.1070  0.6170  0.4523
  822MOL0     C10850  10.638   5.541  10.709  0.4497 -0.8340 -0.2911
  822MOL0     C10851  10.756   5.633  10.689 -0.0459  0.1328  0.8298
  822MOL0     N10852  10.784   5.705  10.813 -0.2152  0.2224  0.2369
  822MOL0     C10853  10.851   5.664  10.922 -0.8686 -0.4266  0.7562
  822MOL0     C10854  10.866   5.765  11.004  0.1510  0.0180 -0.1107
  822MOL0     C10855  10.943   5.753  11.139  0.8342 -0.1956 -0.2701
  822MOL0     C10856  10.851   5.684  11.238  0.2364  0.0883  0.9367
  822MOL0     C10857  10.928   5.632  11.355 -0.1875  0.5186 -0.5384
  822MOL0     C10858  10.838   5.556  11.453  0.3043 -0.4797 -0.5846
  822MOL0     O10859  10.851   5.605  11.592  0.2500 -0.4034 -0.3403
  822MOL0     C10860  10.773   5.553  11.691  0.6668  0.3638 -0.2870
  822MOL0     C10861  10.805   5.615  11.814 -0.1664  0.3628  1.0857
  822MOL0     C10862  10.740   5.589  11.931 -0.2589  0.8816 -0.3829
  822MOL0     C10863  10.797   5.672  12.047 -0.6242  0.1495  0.6041
  822MOL0     C10864  10.632   5.502  11.926  0.2078 -0.6629  0.3537
  822MOL0     C10865  10.547   5.482  12.051  0.3088  0.4502 -0.3083
  822MOL0     O10866  10.454   5.383  12.048  0.2043  0.5590 -0.1753
  822MOL0     C10867  10.386   5.352  12.162 -0.2468  0.2153  0.1720
  822MOL0     C10868  10.457   5.270  12.252 -1.0117  0.7804 -0.4666
  822MOL0     C10869  10.395   5.203  12.353  0.3680  0.1756  0.1053
  822MOL0     C10870  10.264   5.233  12.378  0.9583 -0.0922 -1.1268
  822MOL0     O10871  10.202   5.174  12.487 -0.0720  0.0865 -1.0311
  822MOL0     C10872  10.103   5.080  12.458 -0.2729  0.0806  0.1992
  822MOL0     C10873   9.958   5.140  12.467  0.0076 -0.2526 -0.6661
  822MOL0     C10874   9.931   5.208  12.603  0.8714 -1.5046 -0.0073
  822MOL0     C10875   9.789   5.278  12.600 -0.1081 -0.4133 -0.4433
  822MOL0     C10876   9.735   5.324  12.742 -0.7032 -0.7312 -1.0125
  822MOL0     C10877   9.605   5.409  12.720  0.5533 -0.4401 -0.6096
  822MOL0     C10878   9.572   5.463  12.853  0.9569 -0.9669  0.5212
  822MOL0     C10879   9.434   5.526  12.834  0.8816 -0.4767  0.9952
  822MOL0    Cl10880   9.303   5.417  12.787  0.3435 -0.0664 -0.7037
  822MOL0     C10881  10.188   5.334  12.301  0.7257  1.2919  0.0967
  822MOL0     C10882  10.257   5.389  12.192  1.0349 -0.2411  0.6061
  822MOL0     O10883  10.554   5.564  12.142 -0.1325 -0.9303  0.3068
  822MOL0     C10884  10.597   5.432  11.802 -0.3689 -0.5706 -0.4424
  822MOL0     C10885  10.669   5.459  11.689 -0.4097 -0.4792  0.9428
  822MOL0     N10886  10.787   5.864  10.957  0.5102  0.0560  0.6723
  822MOL0     N10887  10.750   5.829  10.840 -0.5316  0.2801 -0.2131
  822MOL0     C10888  10.718   5.124   9.771  0.2324  0.6683  0.1962
  822MOL0     C10889  10.782   5.098   9.653 -0.9211  0.9494  0.2844
  822MOL0     C10890  11.020   4.777   9.367 -0.2811 -0.3900  0.4751
  822MOL0     C10891  11.066   4.642   9.355 -0.1330  0.5749 -0.7861
  822MOL0     C10892  11.134   4.603   9.238 -0.3100 -0.2487 -0.2171
  822MOL0     C10893  11.129   4.684   9.130 -0.1373 -0.3701  0.5076
  822MOL0     O10894  11.168   4.632   9.008  0.2602  0.1016  0.6589
  822MOL0     C10895  11.068   4.635   8.908  0.7439  0.8062 -0.3701
  822MOL0     C10896  10.979   4.513   8.916 -0.1199 -0.3430 -0.7930
  822MOL0     C10897  10.828   4.541   8.895 -0.5118  0.3404  0.3389
  822MOL0     C10898  10.794   4.588   8.755 -0.3058  0.3822 -0.2540
  822MOL0     C10899  10.857   4.522   8.639  0.5186 -0.0920  0.7634
  822MOL0     C10900  10.907   4.457   8.546  0.4263 -0.2034  0.1032
  822MOL0     C10901  11.096   4.821   9.139  0.7908  0.1307 -0.2676
  822MOL0     C10902  11.039   4.866   9.262  0.1205 -0.2774  0.8470
  822MOL0     H10903  10.899   4.784   9.761 -0.7532 -2.0530 -3.3262
  822MOL0     H10904  10.778   4.857   9.966 -1.2896 -1.7419 -0.2950
  822MOL0     H10905  10.764   5.033  10.127  0.8281  0.2667 -0.1620
  822MOL0     H10906  10.768   5.203  10.067 -0.6079  1.1363  3.6877
  822MOL0     H10907  10.528   5.199  10.158  2.2056  3.5717  0.7742
  822MOL0     H10908  10.578   5.058  10.265  1.2206 -0.8465 -0.3403
  822MOL0     H10909  10.761   5.174  10.354  2.6720  0.0162 -0.6638
  822MOL0     H10910  10.760   5.304  10.250  0.4167 -1.4693 -1.9501
  822MOL0     H10911  10.520   5.348  10.354  1.3230 -0.1309 -1.3016
  822MOL0     H10912  10.556   5.216  10.475  3.4665 -2.5586 -0.0397
  822MOL0     H10913  10.730   5.332  10.574  2.1047  2.3801  0.0291
  822MOL0     H10914  10.745   5.444  10.443  1.3069 -2.5223 -0.3589
  822MOL0     H10915  10.560   5.579  10.524  1.4931  0.4418 -0.5200
  822MOL0     H10916  10.498   5.425  10.611  1.9040 -2.2406  0.5575
  822MOL0     H10917  10.559   5.600  10.756  1.6429 -0.5890  1.4939
  822MOL0     H10918  10.669   5.464  10.780  0.1282  1.7007  2.7817
  822MOL0     H10919  10.730   5.710  10.616 -1.3665 -0.1500  0.9713
  822MOL0     H10920  10.842   5.575  10.652 -0.0826 -0.4535  1.6446
  822MOL0     H10921  10.891   5.565  10.941 -1.9676 -0.4819  3.0940
  822MOL0     H10922  11.034   5.694  11.130  2.4535  2.0861  0.1897
  822MOL0     H10923  10.972   5.855  11.167 -2.2639  0.4273  1.1487
  822MOL0     H10924  10.817   5.596  11.182  1.0463 -0.7314  1.7031
  822MOL0     H10925  10.760   5.737  11.268 -0.9956 -0.6467 -1.2545
  822MOL0     H10926  10.968   5.711  11.419 -0.2898 -1.8422  2.6148
  822MOL0     H10927  11.007   5.574  11.306  0.3139  1.4110 -0.8158
  822MOL0     H10928  10.860   5.450  11.442 -0.1085 -0.4803 -1.5829
  822MOL0     H10929  10.736   5.566  11.414  0.1722  3.7055  0.3338
  822MOL0     H10930  10.895   5.676  11.815  0.2967 -0.2306  3.5968
  822MOL0     H10931  10.725   5.750  12.073  0.9393  1.7716  0.2494
  822MOL0     H10932  10.807   5.606  12.133 -2.2545 -0.9060  0.0445
  822MOL0     H10933  10.891   5.721  12.018 -0.6088 -0.4421 -0.4022
  822MOL0     H10934  10.560   5.238  12.240 -1.1005 -0.6441  1.8835
  822MOL0     H10935  10.439   5.122  12.410  1.3288  0.4015 -0.2972
  822MOL0     H10936  10.126   5.040  12.359  1.7293  2.7719 -0.5448
  822MOL0     H10937  10.121   5.006  12.537 -0.6054  0.0967  0.2887
  822MOL0     H10938   9.928   5.205  12.384 -2.6576 -3.0968 -2.1236
  822MOL0     H10939   9.883   5.061  12.451 -2.5829  2.1006 -0.8757
  822MOL0     H10940  10.004   5.287  12.621 -1.0662  0.7396 -1.3052
  822MOL0     H10941   9.928   5.136  12.685 -1.5940 -0.8189  0.5954
  822MOL0     H10942   9.790   5.364  12.534 -2.6854  0.3936  0.4357
  822MOL0     H10943   9.726   5.201  12.553  3.9442 -1.9552 -3.9379
  822MOL0     H10944   9.803   5.388  12.799 -2.2648 -0.3446  0.5256
  822MOL0     H10945   9.702   5.242  12.806 -0.4837  0.0979  0.1920
  822MOL0     H10946   9.636   5.501  12.668 -0.7727 -1.0758 -2.6655
  822MOL0     H10947   9.530   5.354  12.663 -0.0509 -2.4839  1.9477
  822MOL0     H10948   9.646   5.542  12.870 -2.2465  2.7778 -1.4798
  822MOL0     H10949   9.572   5.389  12.934 -0.0766 -0.9371  0.5552
  822MOL0     H10950   9.440   5.608  12.762  0.1949 -1.3712 -0.1111
  822MOL0     H10951   9.404   5.573  12.928 -0.5627 -0.2361  0.4332
  822MOL0     H10952  10.089   5.368  12.330 -0.9036 -2.4023 -0.5405
  822MOL0     H10953  10.202   5.433  12.110  0.7467 -4.4155 -1.7103
  822MOL0     H10954  10.512   5.365  11.800 -0.0591 -0.9997  0.1860
  822MOL0     H10955  10.649   5.408  11.595 -1.3401  1.5058 -0.0080
  822MOL0     H10956  10.661   5.217   9.775  0.2064  0.6604  0.0263
  822MOL0     H10957  10.779   5.168   9.569 -1.2942  1.7948  0.9850
  822MOL0     H10958  11.039   4.568   9.429  3.9704  2.1790  2.7122
  822MOL0     H10959  11.172   4.503   9.217  0.7159  0.6901 -3.3201
  822MOL0     H10960  11.011   4.728   8.923  0.8072  1.2514 -2.5676
  822MOL0     H10961  11.115   4.653   8.811  4.7207  3.6882  1.7998
  822MOL0     H10962  10.993   4.459   9.010  2.1578 -1.9215 -1.9450
  822MOL0     H10963  11.017   4.441   8.843  1.2716 -4.0457  3.1959
  822MOL0     H10964  10.799   4.625   8.958  1.9889  0.9536  0.8068
  822MOL0     H10965  10.767   4.452   8.910  1.4610 -1.2525 -0.6134
  822MOL0     H10966  10.842   4.687   8.754  1.3765 -0.4044  0.0649
  822MOL0     H10967  10.685   4.582   8.747 -0.1262 -0.7333 -2.8816
  822MOL0     H10968  10.953   4.412   8.461 -2.3187  1.9455 -2.7608
  822MOL0     H10969  11.092   4.888   9.054 -2.5799  1.7678  0.9979
  822MOL0     H10970  11.008   4.970   9.254 -1.2766 -0.8264 -3.8400
  823MOL0     O10971   5.353   2.890  10.527  0.1202  0.3713 -0.2798
  823MOL0     C10972   5.446   2.878  10.448 -0.5625 -0.0019  0.2273
  823MOL0     O10973   5.574   2.830  10.473  0.9013 -0.2103 -0.1110
  823MOL0     C10974   5.587   2.819  10.608 -1.3659 -0.4154 -0.8559
  823MOL0     C10975   5.627   2.691  10.648 -0.1052  0.4508  0.2813
  823MOL0     C10976   5.669   2.676  10.779 -0.1563  0.6867 -0.3804
  823MOL0     C10977   5.674   2.784  10.868 -1.1796  0.0555 -0.2937
  823MOL0     O10978   5.716   2.745  10.994 -0.7517 -0.3258  0.4642
  823MOL0     C10979   5.712   2.837  11.102 -0.5611 -0.0834  0.3652
  823MOL0     C10980   5.778   2.780  11.220 -0.7069 -0.5824  0.6832
  823MOL0     C10981   5.834   2.890  11.319  0.3101 -0.0600  0.6395
  823MOL0     C10982   5.973   2.862  11.374  0.8925 -0.0370  0.1780
  823MOL0     C10983   6.083   2.918  11.289  0.0375 -0.2766  0.2305
  823MOL0     C10984   6.122   3.059  11.308 -0.6910 -1.1399  0.5682
  823MOL0     C10985   6.252   3.091  11.233 -0.3309 -0.2190  0.2839
  823MOL0     C10986   6.307   3.241  11.231 -0.1817 -0.7426  0.0117
  823MOL0     N10987   6.429   3.252  11.146 -0.1790 -0.1436  0.4817
  823MOL0     C10988   6.474   3.370  11.102  1.0344 -0.1700 -0.0254
  823MOL0     C10989   6.572   3.344  11.017 -0.6094 -0.2196 -0.0433
  823MOL0     C10990   6.668   3.449  10.957 -1.4826 -0.2793 -0.7957
  823MOL0     C10991   6.598   3.566  10.887 -0.4708  0.0512  0.2399
  823MOL0     C10992   6.529   3.537  10.755 -1.0974 -0.7104  0.3763
  823MOL0     C10993   6.398   3.458  10.744  0.1358 -0.4777  0.1302
  823MOL0     O10994   6.308   3.535  10.828  0.4744  0.0311  0.0920
  823MOL0     C10995   6.202   3.457  10.875 -0.2150 -1.2011  0.0792
  823MOL0     C10996   6.152   3.336  10.827  0.6585 -0.7291 -0.5246
  823MOL0     C10997   6.056   3.269  10.894  0.3143 -0.0318  0.2088
  823MOL0     C10998   6.019   3.130  10.849 -0.2069  0.0421  0.8959
  823MOL0     C10999   5.982   3.333  11.006 -0.2622  0.4190 -0.7028
  823MOL0     C11000   5.891   3.271  11.095 -0.5635 -0.5237  0.0175
  823MOL0     O11001   5.806   3.357  11.160  0.7830 -0.2622  0.0863
  823MOL0     C11002   5.684   3.311  11.188 -0.4179  0.1178  0.4753
  823MOL0     C11003   5.629   3.330  11.315 -0.0160 -0.3816 -1.1626
  823MOL0     C11004   5.506   3.277  11.349 -0.9422  0.7226 -0.5332
  823MOL0     C11005   5.433   3.195  11.263  0.0111 -0.3776  0.3604
  823MOL0     O11006   5.314   3.131  11.301  0.3367 -0.1404 -0.2620
  823MOL0     C11007   5.276   3.012  11.232 -0.5743 -0.2633  0.0682
  823MOL0     C11008   5.173   2.919  11.298  0.2925 -1.2461  0.3285
  823MOL0     C11009   5.025   2.965  11.310 -0.1810 -0.5570  0.1120
  823MOL0     C11010   5.012   3.118  11.325  0.5988  0.1079  0.4550
  823MOL0     C11011   4.869   3.165  11.373 -0.6331 -0.4105 -0.1933
  823MOL0     C11012   4.854   3.322  11.402  0.1468  1.2360 -0.0080
  823MOL0     C11013   4.719   3.376  11.459  1.3245  0.5714 -0.8279
  823MOL0     C11014   4.675   3.312  11.597  0.3819  0.2409  0.5110
  823MOL0    Cl11015   4.536   3.420  11.673  0.1088  0.5967  0.1467
  823MOL0     C11016   5.493   3.185  11.130 -0.1308  1.2771 -0.7065
  823MOL0     C11017   5.614   3.240  11.090  0.1848  0.1402 -0.0898
  823MOL0     O11018   5.895   3.151  11.108 -0.7960  0.2190  0.5386
  823MOL0     C11019   6.023   3.464  11.033  0.1148  0.7948 -0.9613
  823MOL0     C11020   6.140   3.513  10.977 -0.1865 -1.3833  0.0092
  823MOL0     N11021   6.589   3.209  10.999  0.1379  0.1825  0.2296
  823MOL0     N11022   6.494   3.156  11.077  0.2514  0.1666  0.3721
  823MOL0     C11023   5.642   2.913  10.829  0.0911 -0.2731 -0.2000
  823MOL0     C11024   5.593   2.931  10.700  0.6514  0.0584 -0.9475
  823MOL0     C11025   5.409   2.912  10.302 -0.0789  0.1787 -0.6466
  823MOL0     C11026   5.489   2.853  10.203 -0.4796  0.0389  0.5784
  823MOL0     C11027   5.475   2.895  10.070  0.5637  0.1795  1.0053
  823MOL0     C11028   5.386   3.003  10.039 -0.2245 -0.6272 -0.2271
  823MOL0     O11029   5.380   3.053   9.910 -0.4819  0.4613 -0.0035
  823MOL0     C11030   5.499   3.037   9.826 -0.4562  0.8997 -0.5008
  823MOL0     C11031   5.491   3.139   9.724 -0.1872  0.2873  0.4012
  823MOL0     C11032   5.630   3.174   9.662  0.2793 -0.2867  0.8951
  823MOL0     C11033   5.629   3.277   9.550 -0.3395  0.4531 -1.1393
  823MOL0     C11034   5.615   3.416   9.602  0.1026 -0.2364 -0.5117
  823MOL0     C11035   5.594   3.521   9.657 -0.1676  1.1484  0.2129
  823MOL0     C11036   5.298   3.052  10.140  0.8862  0.8238 -0.0996
  823MOL0     C11037   5.316   3.001  10.271  0.2147 -0.9212  0.6641
  823MOL0     H11038   5.622   2.605  10.582 -0.4673  1.0711 -0.5184
  823MOL0     H11039   5.702   2.580  10.816 -2.4157  0.9181  2.7227
  823MOL0     H11040   5.779   2.920  11.077  0.1319 -0.7296  0.0471
  823MOL0     H11041   5.611   2.869  11.127 -1.1486 -2.2768  0.9777
  823MOL0     H11042   5.709   2.714  11.273 -1.6655  1.0092  1.4953
  823MOL0     H11043   5.860   2.716  11.186 -0.4589 -0.0181  0.1998
  823MOL0     H11044   5.848   2.985  11.267  0.0351 -0.6216 -0.5079
  823MOL0     H11045   5.773   2.910  11.407 -0.6147 -0.1309  0.0265
  823MOL0     H11046   5.979   2.904  11.475  0.4787  0.8273 -0.1503
  823MOL0     H11047   5.990   2.754  11.377  1.7992  0.1153  0.5894
  823MOL0     H11048   6.170   2.856  11.317  1.5410  0.6040 -2.1584
  823MOL0     H11049   6.063   2.893  11.184  5.4576 -0.8807 -0.9689
  823MOL0     H11050   6.049   3.136  11.282  0.6048  0.5665  1.8088
  823MOL0     H11051   6.130   3.064  11.417  1.5040  0.4108  0.3949
  823MOL0     H11052   6.328   3.028  11.280 -1.8260 -3.7322 -1.6622
  823MOL0     H11053   6.238   3.067  11.128  0.3586  2.3944 -0.4826
  823MOL0     H11054   6.335   3.258  11.335 -0.1651 -1.2920  0.0997
  823MOL0     H11055   6.235   3.321  11.210  1.3594  0.6631 -0.1079
  823MOL0     H11056   6.443   3.469  11.135 -1.8796 -1.1585  0.5212
  823MOL0     H11057   6.742   3.487  11.028 -1.8001 -2.4955  0.8246
  823MOL0     H11058   6.733   3.395  10.888  1.5100  0.0255  1.5562
  823MOL0     H11059   6.679   3.638  10.876 -0.5687  0.5072  2.2123
  823MOL0     H11060   6.525   3.607  10.958  1.8098  1.0281  2.1203
  823MOL0     H11061   6.595   3.486  10.684 -0.8472 -0.1381  0.1908
  823MOL0     H11062   6.506   3.632  10.705  3.5605  0.4431 -0.0679
  823MOL0     H11063   6.408   3.354  10.779 -1.3932 -1.1835 -1.3712
  823MOL0     H11064   6.367   3.462  10.639  3.6434  2.0841 -0.9932
  823MOL0     H11065   6.214   3.274  10.763 -1.8190 -2.8206 -1.0632
  823MOL0     H11066   5.913   3.109  10.865 -0.3007  0.3314  0.6667
  823MOL0     H11067   6.033   3.125  10.741  0.3148  3.3781  0.7059
  823MOL0     H11068   6.082   3.057  10.901  0.7455  0.8732  0.9425
  823MOL0     H11069   5.690   3.381  11.389  0.9386 -1.6884 -1.0236
  823MOL0     H11070   5.479   3.279  11.454 -2.9557 -0.4825 -0.9737
  823MOL0     H11071   5.255   3.026  11.125 -0.1127  1.4616  0.1628
  823MOL0     H11072   5.367   2.951  11.228 -0.3585  0.0975 -1.6414
  823MOL0     H11073   5.168   2.819  11.254 -1.9564 -0.5326 -1.2270
  823MOL0     H11074   5.208   2.906  11.401 -0.8480  0.2039  0.9408
  823MOL0     H11075   4.972   2.910  11.389 -0.8434 -0.5870 -0.3514
  823MOL0     H11076   4.982   2.929  11.216  3.5057 -2.7932 -0.9582
  823MOL0     H11077   5.081   3.145  11.405  1.7783 -0.8935 -0.1872
  823MOL0     H11078   5.045   3.176  11.239  3.2235 -2.6131 -0.5706
  823MOL0     H11079   4.840   3.106  11.460  0.8842  0.3981  0.8965
  823MOL0     H11080   4.797   3.137  11.295 -2.5331  1.7769  0.6680
  823MOL0     H11081   4.921   3.342  11.487  0.0384  3.2505 -0.3372
  823MOL0     H11082   4.885   3.378  11.313  1.1429  0.2766 -0.2763
  823MOL0     H11083   4.637   3.375  11.387 -1.5535 -1.6739  2.2111
  823MOL0     H11084   4.732   3.483  11.478  1.3971  0.8003 -2.0678
  823MOL0     H11085   4.766   3.316  11.656  3.0034 -3.5829 -2.7010
  823MOL0     H11086   4.642   3.207  11.597 -2.0655  0.9423  0.7471
  823MOL0     H11087   5.432   3.119  11.069  1.5269  1.6665 -2.9174
  823MOL0     H11088   5.647   3.231  10.987  0.0433  0.5053 -0.1687
  823MOL0     H11089   5.974   3.522  11.111 -1.0577  1.0958 -1.8866
  823MOL0     H11090   6.168   3.605  11.028 -1.3886 -1.3048  0.5418
  823MOL0     H11091   5.648   3.000  10.894  0.5114 -0.2921 -0.2103
  823MOL0     H11092   5.566   3.027  10.658 -0.9976  0.5064  0.9955
  823MOL0     H11093   5.558   2.780  10.243 -0.6108  0.8096  2.2998
  823MOL0     H11094   5.543   2.837  10.008  2.7164  2.6784  0.8974
  823MOL0     H11095   5.584   3.047   9.894 -2.2145 -1.7377  2.3730
  823MOL0     H11096   5.520   2.938   9.784  0.2036  0.6817  0.3262
  823MOL0     H11097   5.444   3.228   9.766 -3.7749 -0.7926 -0.9551
  823MOL0     H11098   5.437   3.097   9.639  0.4065 -0.3772  0.3465
  823MOL0     H11099   5.675   3.087   9.612  0.0374 -1.0235  1.9256
  823MOL0     H11100   5.696   3.203   9.745  1.6240 -1.6473  0.3541
  823MOL0     H11101   5.558   3.249   9.472  1.2790  0.3265 -2.6369
  823MOL0     H11102   5.722   3.264   9.494 -1.3251 -3.8871 -2.1887
  823MOL0     H11103   5.601   3.612   9.713 -1.1124 -0.6146  3.4026
  823MOL0     H11104   5.220   3.121  10.111 -0.5920 -0.9565 -0.5614
  823MOL0     H11105   5.251   3.036  10.349 -0.6429 -0.3711 -0.2712
  824MOL0     O11106   8.385   6.716   2.409  0.9795  1.1048 -0.6106
  824MOL0     C11107   8.489   6.671   2.444 -0.2438 -0.7006  0.8568
  824MOL0     O11108   8.589   6.633   2.362  0.2048  0.7111  0.9702
  824MOL0     C11109   8.566   6.671   2.230 -1.1997 -0.5922  0.1659
  824MOL0     C11110   8.510   6.585   2.141  0.2583  0.1214  1.7095
  824MOL0     C11111   8.487   6.638   2.006 -0.4614  0.7265 -0.3981
  824MOL0     C11112   8.516   6.770   1.970 -0.2263 -0.0180 -0.4273
  824MOL0     O11113   8.485   6.799   1.838 -0.3108 -0.7502 -0.0226
  824MOL0     C11114   8.571   6.890   1.773  0.3465  0.4855  0.5943
  824MOL0     C11115   8.624   6.798   1.656 -0.0657  0.9536  0.3449
  824MOL0     C11116   8.706   6.861   1.550 -1.1490  0.1783 -0.4546
  824MOL0     C11117   8.815   6.954   1.596 -0.7244 -0.3594  0.3979
  824MOL0     C11118   8.897   6.967   1.467  0.0151  0.2032 -0.5945
  824MOL0     C11119   9.015   7.060   1.489  0.0549  0.2763 -0.9400
  824MOL0     C11120   9.093   7.088   1.358  1.0570 -0.3595 -0.0849
  824MOL0     C11121   9.240   7.131   1.385 -0.3113 -0.8980 -0.0163
  824MOL0     N11122   9.255   7.259   1.447  0.0809 -0.5769 -0.1635
  824MOL0     C11123   9.284   7.382   1.391 -0.0245  0.5366  1.2165
  824MOL0     C11124   9.299   7.460   1.500  0.0965  1.0984  0.3390
  824MOL0     C11125   9.318   7.604   1.474  1.0726  0.3665  0.0629
  824MOL0     C11126   9.407   7.656   1.587  0.8393 -0.4103  0.3035
  824MOL0     C11127   9.451   7.801   1.570  0.2888  0.2548  0.5166
  824MOL0     C11128   9.528   7.859   1.693  0.7949 -0.6647 -0.0731
  824MOL0     O11129   9.579   7.984   1.642 -0.3641  1.0816 -0.1667
  824MOL0     C11130   9.712   8.012   1.675  0.8819 -0.0154  0.7932
  824MOL0     C11131   9.772   8.105   1.588 -0.0958  0.4112  0.6518
  824MOL0     C11132   9.899   8.158   1.589  0.1447  0.1932 -0.8298
  824MOL0     C11133   9.940   8.240   1.460 -0.2002  0.5637 -0.1900
  824MOL0     C11134   9.977   8.123   1.708 -0.5849 -0.5893  1.1736
  824MOL0     C11135  10.119   8.163   1.726  0.0384 -0.3238  0.6033
  824MOL0     O11136  10.186   8.118   1.841 -0.4495  0.2581 -0.7383
  824MOL0     C11137  10.311   8.177   1.855 -0.3576  1.6949 -0.3566
  824MOL0     C11138  10.416   8.139   1.766  0.4541  0.4000  0.4644
  824MOL0     C11139  10.539   8.198   1.786  0.0471 -0.1215  0.2398
  824MOL0     C11140  10.564   8.279   1.900 -0.3179  0.3241 -0.4932
  824MOL0     O11141  10.686   8.350   1.912 -0.5457 -0.3331 -0.2313
  824MOL0     C11142  10.814   8.281   1.878  0.9741 -0.6038 -0.3103
  824MOL0     C11143  10.824   8.143   1.954  0.4129  1.4961  0.9967
  824MOL0     C11144  10.830   8.158   2.112 -0.9021  0.0981  0.5381
  824MOL0     C11145  10.836   8.011   2.178 -0.6461  0.1275  0.0621
  824MOL0     C11146  10.711   7.981   2.268  0.3161  0.1147 -0.8205
  824MOL0     C11147  10.598   7.978   2.174 -0.3505  0.1310 -0.2405
  824MOL0     C11148  10.461   7.929   2.241  0.7941  0.2657 -0.5311
  824MOL0     C11149  10.346   7.950   2.138  0.1431  0.8803  0.6590
  824MOL0    Cl11150  10.233   7.811   2.139 -0.1660 -0.2143  0.1085
  824MOL0     C11151  10.462   8.310   1.986  0.4991  0.3139  0.3258
  824MOL0     C11152  10.331   8.260   1.966  0.7069 -1.1078  1.0571
  824MOL0     O11153  10.167   8.240   1.646 -0.0606  0.3504 -0.3386
  824MOL0     C11154   9.917   8.041   1.802 -0.2095  0.3793 -0.1041
  824MOL0     C11155   9.790   7.987   1.788 -0.5770  1.1906 -0.1838
  824MOL0     N11156   9.289   7.392   1.614  0.0360 -0.1640 -0.1287
  824MOL0     N11157   9.273   7.269   1.583  0.3025 -0.0620 -0.0551
  824MOL0     C11158   8.582   6.843   2.065  0.8512  0.4446 -0.8834
  824MOL0     C11159   8.602   6.802   2.202 -0.1526  0.8775  1.1402
  824MOL0     C11160   8.499   6.630   2.589 -0.7950 -0.5574 -0.0585
  824MOL0     C11161   8.389   6.640   2.676 -0.2616  1.2176  0.0796
  824MOL0     C11162   8.397   6.600   2.808  0.9022 -0.0336 -0.8075
  824MOL0     C11163   8.504   6.529   2.849  0.0205  0.2664 -0.5752
  824MOL0     O11164   8.509   6.469   2.970  0.2271  0.2793 -0.4789
  824MOL0     C11165   8.401   6.488   3.067 -0.7943 -0.4213 -0.2725
  824MOL0     C11166   8.452   6.432   3.199  0.8324 -0.5880  0.9153
  824MOL0     C11167   8.341   6.428   3.302  0.3604 -0.2258  0.6864
  824MOL0     C11168   8.393   6.373   3.442 -1.4294 -0.3065  0.2322
  824MOL0     C11169   8.277   6.377   3.535 -0.0781  0.2093 -0.3611
  824MOL0     C11170   8.189   6.386   3.622 -0.3572 -0.3789 -0.3671
  824MOL0     C11171   8.613   6.523   2.775 -0.7190 -0.3788 -0.1142
  824MOL0     C11172   8.621   6.588   2.642 -0.6421 -0.1767 -0.3708
  824MOL0     H11173   8.485   6.482   2.164 -2.8113  0.9346  2.5788
  824MOL0     H11174   8.457   6.576   1.922 -3.2935 -0.2037  1.1371
  824MOL0     H11175   8.507   6.971   1.735 -1.1600 -0.9210  0.0111
  824MOL0     H11176   8.655   6.929   1.832  1.2319  0.2088 -0.4527
  824MOL0     H11177   8.683   6.717   1.702 -1.8949  0.2696  1.6007
  824MOL0     H11178   8.544   6.744   1.605  1.6796 -0.5428 -0.9556
  824MOL0     H11179   8.758   6.775   1.505  1.4512  1.0581  0.6663
  824MOL0     H11180   8.644   6.924   1.486 -2.2160 -0.0569  0.3116
  824MOL0     H11181   8.771   7.052   1.616 -4.1514 -1.9697  1.6070
  824MOL0     H11182   8.879   6.912   1.674 -0.0571 -0.7451 -0.3418
  824MOL0     H11183   8.931   6.868   1.435 -1.9066 -0.2908 -1.2401
  824MOL0     H11184   8.836   7.021   1.394 -1.0118  2.5385  1.8419
  824MOL0     H11185   8.976   7.157   1.522  0.0764  0.1836 -0.6401
  824MOL0     H11186   9.088   7.020   1.559 -2.1272 -1.3896  0.4901
  824MOL0     H11187   9.092   6.995   1.300  2.9338 -0.6901  0.3452
  824MOL0     H11188   9.042   7.168   1.304  2.4060  1.0277  0.6415
  824MOL0     H11189   9.279   7.144   1.283 -1.5099 -0.3503 -0.4230
  824MOL0     H11190   9.288   7.057   1.450 -2.6313 -2.1349  0.3826
  824MOL0     H11191   9.284   7.406   1.285 -1.6227 -0.6740  0.8968
  824MOL0     H11192   9.376   7.620   1.383  1.9006  1.0158  0.6808
  824MOL0     H11193   9.218   7.650   1.467  0.1544 -1.6619 -0.8003
  824MOL0     H11194   9.487   7.588   1.618  0.7500  0.3968  2.5497
  824MOL0     H11195   9.352   7.655   1.682  0.2402  3.3586  0.1833
  824MOL0     H11196   9.366   7.869   1.559  2.2883  2.7747 -0.6008
  824MOL0     H11197   9.512   7.807   1.479 -1.3715 -3.2354 -1.0386
  824MOL0     H11198   9.609   7.791   1.719  1.6477 -0.1610 -1.3038
  824MOL0     H11199   9.462   7.867   1.780  1.3859 -0.4097  0.3560
  824MOL0     H11200   9.724   8.156   1.505  1.6775  0.5914 -0.3272
  824MOL0     H11201  10.010   8.178   1.403  0.4392  0.9996  0.1071
  824MOL0     H11202   9.852   8.284   1.413  0.1247  1.3319 -0.0942
  824MOL0     H11203   9.995   8.329   1.490  0.6177 -0.6413  2.2146
  824MOL0     H11204  10.397   8.084   1.674  3.7950  1.4492 -0.9869
  824MOL0     H11205  10.620   8.177   1.716  0.1045 -0.9810  0.5511
  824MOL0     H11206  10.834   8.274   1.771 -0.4316 -1.6948 -0.5405
  824MOL0     H11207  10.893   8.336   1.929 -0.1308 -1.5045  2.5729
  824MOL0     H11208  10.756   8.060   1.932  1.5409  0.6114  0.7459
  824MOL0     H11209  10.914   8.088   1.924  0.0561  0.4743  1.7456
  824MOL0     H11210  10.752   8.221   2.156  0.8446  2.9286 -0.1214
  824MOL0     H11211  10.923   8.214   2.130 -0.3686 -0.0590 -1.4793
  824MOL0     H11212  10.860   7.931   2.107  2.6552  1.1737 -0.1742
  824MOL0     H11213  10.915   8.017   2.252 -0.7095  1.8817  0.0367
  824MOL0     H11214  10.697   8.057   2.346 -1.2948  0.3361 -1.2863
  824MOL0     H11215  10.721   7.879   2.305  2.1681  0.6397  0.2863
  824MOL0     H11216  10.574   8.083   2.154 -2.1033  0.8147  4.2460
  824MOL0     H11217  10.620   7.924   2.082  2.2647  2.3228 -1.0231
  824MOL0     H11218  10.443   7.999   2.323 -2.2103 -0.3357 -0.5580
  824MOL0     H11219  10.467   7.828   2.283  2.8547  1.2639  1.8211
  824MOL0     H11220  10.386   7.956   2.036 -0.4095  0.6704  0.4300
  824MOL0     H11221  10.297   8.048   2.141 -1.1355  0.2920 -0.1433
  824MOL0     H11222  10.480   8.376   2.070 -1.0160 -0.1214  1.0259
  824MOL0     H11223  10.249   8.272   2.036 -0.0601 -1.0743  0.1674
  824MOL0     H11224   9.971   8.019   1.894  1.5472 -0.2195 -1.2131
  824MOL0     H11225   9.756   7.927   1.872 -0.3156 -1.8419 -2.1104
  824MOL0     H11226   8.612   6.943   2.034 -0.4814  0.6966 -1.4199
  824MOL0     H11227   8.659   6.859   2.275  2.6192  0.6631 -0.6992
  824MOL0     H11228   8.297   6.684   2.639  0.6958  0.7921 -3.0818
  824MOL0     H11229   8.308   6.606   2.869  0.8240 -0.5062 -0.8695
  824MOL0     H11230   8.385   6.596   3.071  1.1636 -0.1090  0.4635
  824MOL0     H11231   8.309   6.435   3.042 -1.3986  1.3923 -2.1368
  824MOL0     H11232   8.534   6.492   3.240 -0.0457  2.7453 -1.7712
  824MOL0     H11233   8.499   6.333   3.190  2.0403  0.0785 -0.6641
  824MOL0     H11234   8.264   6.355   3.271  1.8298 -0.9156 -1.5702
  824MOL0     H11235   8.313   6.532   3.322  1.1675 -0.0980  1.1954
  824MOL0     H11236   8.463   6.444   3.487 -1.7196  0.0324  0.1510
  824MOL0     H11237   8.437   6.275   3.421 -0.3797  0.5392 -1.8076
  824MOL0     H11238   8.126   6.397   3.708 -0.0341 -0.5993 -0.0990
  824MOL0     H11239   8.691   6.458   2.813 -0.6762  0.3644  1.1214
  824MOL0     H11240   8.704   6.599   2.573 -0.0357  1.1080  0.5185
  825MOL0     O11241   6.668  10.493   5.969  0.4795  0.1540  1.0202
  825MOL0     C11242   6.619  10.414   5.895  0.2788  0.7777 -0.5298
  825MOL0     O11243   6.486  10.414   5.864 -0.0302  0.0403  0.3656
  825MOL0     C11244   6.398  10.490   5.934  0.8224  0.5286  0.5104
  825MOL0     C11245   6.419  10.533   6.073  0.3708  0.5344  0.3671
  825MOL0     C11246   6.325  10.607   6.138 -0.2988 -1.2922  0.2600
  825MOL0     C11247   6.210  10.652   6.075  0.6494  0.2649 -0.9328
  825MOL0     O11248   6.122  10.712   6.160  0.9573 -0.1863  0.5933
  825MOL0     C11249   5.992  10.764   6.116 -0.3035 -0.2236 -0.1058
  825MOL0     C11250   5.888  10.661   6.156 -0.6502  0.2080 -0.7460
  825MOL0     C11251   5.883  10.619   6.302 -0.7774  0.3511 -0.5107
  825MOL0     C11252   5.774  10.514   6.311 -0.8625  0.2718 -0.3702
  825MOL0     C11253   5.780  10.450   6.456 -0.2607 -0.3503  0.5567
  825MOL0     C11254   5.674  10.346   6.472  0.7878 -1.4614  0.3610
  825MOL0     C11255   5.667  10.284   6.610 -0.4888  1.0617 -0.4434
  825MOL0     C11256   5.779  10.174   6.645  0.4290 -0.2138 -0.0778
  825MOL0     N11257   5.736  10.108   6.773  0.1282  0.7098 -0.8372
  825MOL0     C11258   5.618  10.042   6.801 -0.5341  0.5901 -0.7234
  825MOL0     C11259   5.646   9.966   6.911 -0.2682  0.8243 -0.0815
  825MOL0     C11260   5.556   9.883   6.994  0.3450 -0.0249 -0.0514
  825MOL0     C11261   5.557   9.906   7.143  0.9276  0.6446 -1.4756
  825MOL0     C11262   5.438   9.864   7.226 -0.0874  0.6873 -0.2635
  825MOL0     C11263   5.432   9.906   7.371  0.5009  0.0722  0.0770
  825MOL0     O11264   5.304   9.873   7.419  1.2406  0.6980  0.1649
  825MOL0     C11265   5.233   9.948   7.509  1.6323 -0.4988 -0.4295
  825MOL0     C11266   5.097   9.956   7.492  0.2037 -1.1181  0.1152
  825MOL0     C11267   5.017  10.025   7.582  0.4215  0.2976 -0.4093
  825MOL0     C11268   4.870  10.021   7.556  0.1787 -0.2310  0.1378
  825MOL0     C11269   5.075  10.089   7.701 -0.6590  0.1155  0.6863
  825MOL0     C11270   4.996  10.161   7.809  0.5476  0.3304 -0.8745
  825MOL0     O11271   5.069  10.230   7.913 -1.0849 -0.5052  0.4586
  825MOL0     C11272   5.025  10.323   7.999 -1.0929  0.9505 -0.4549
  825MOL0     C11273   5.122  10.367   8.092  0.4660 -0.7621  1.2992
  825MOL0     C11274   5.076  10.448   8.202 -1.1436  0.3483 -0.2895
  825MOL0     C11275   4.951  10.502   8.219 -0.7919  0.3039  0.3576
  825MOL0     O11276   4.938  10.578   8.327  0.3270 -0.6360 -0.2039
  825MOL0     C11277   4.811  10.628   8.368 -0.8940  0.2953  0.0442
  825MOL0     C11278   4.726  10.522   8.429  0.0201  0.3747 -0.0012
  825MOL0     C11279   4.788  10.444   8.546 -0.5729 -1.3049  0.8513
  825MOL0     C11280   4.695  10.371   8.644 -0.0801 -0.6842  1.3691
  825MOL0     C11281   4.643  10.242   8.572  0.2299 -0.3557  0.4262
  825MOL0     C11282   4.543  10.174   8.675  0.1482 -0.4253 -0.0150
  825MOL0     C11283   4.511  10.034   8.628  0.6937 -0.4839 -0.0738
  825MOL0     C11284   4.402   9.968   8.722 -0.8476 -0.4113 -0.2268
  825MOL0    Cl11285   4.257  10.053   8.702 -0.3575  0.1071 -0.3854
  825MOL0     C11286   4.858  10.469   8.118  0.0463 -0.7671 -0.2312
  825MOL0     C11287   4.897  10.378   8.014 -0.6545 -0.0459  0.2994
  825MOL0     O11288   4.880  10.134   7.819 -0.4025  0.0123 -0.0806
  825MOL0     C11289   5.220  10.088   7.712  0.3778  1.4986  0.5879
  825MOL0     C11290   5.294  10.022   7.617  0.5133 -0.3109 -0.4339
  825MOL0     N11291   5.770  10.003   6.963 -0.1728  0.4694 -0.4425
  825MOL0     N11292   5.827  10.077   6.872 -0.3335  0.3005 -0.2735
  825MOL0     C11293   6.185  10.611   5.939  0.2771 -0.4782  0.9949
  825MOL0     C11294   6.281  10.531   5.873 -0.3855  0.4776 -0.0230
  825MOL0     C11295   6.705  10.312   5.852  0.4962 -0.4263  0.4955
  825MOL0     C11296   6.841  10.301   5.883  0.3095 -0.2794 -0.4868
  825MOL0     C11297   6.929  10.216   5.826 -0.7290 -0.3106  0.4479
  825MOL0     C11298   6.887  10.118   5.732 -0.5674  0.5744  0.7417
  825MOL0     O11299   6.979  10.035   5.677 -0.2128 -0.3131  0.1174
  825MOL0     C11300   6.947   9.915   5.607 -0.0719  0.7754 -0.3535
  825MOL0     C11301   7.022   9.930   5.469 -0.7929  0.0479  0.2539
  825MOL0     C11302   7.165   9.982   5.482  0.1736  1.7470 -0.9110
  825MOL0     C11303   7.249   9.930   5.354 -1.1401 -0.6172  0.1508
  825MOL0     C11304   7.214   9.997   5.232  0.1869 -0.4758  0.9972
  825MOL0     C11305   7.181  10.066   5.134  0.4540 -0.0069 -0.7435
  825MOL0     C11306   6.752  10.116   5.707 -0.8065  0.2757  0.2918
  825MOL0     C11307   6.663  10.217   5.759  0.5055  0.6032 -0.3207
  825MOL0     H11308   6.503  10.511   6.139  0.5504 -0.2351 -0.1119
  825MOL0     H11309   6.340  10.630   6.243  1.5110 -1.3042  0.0400
  825MOL0     H11310   5.984  10.867   6.150  2.0156  0.7065 -2.0713
  825MOL0     H11311   5.993  10.781   6.008 -0.3730  1.3789  0.1331
  825MOL0     H11312   5.792  10.704   6.125 -1.1113 -0.5142 -0.3328
  825MOL0     H11313   5.889  10.569   6.097 -2.9191  1.4312 -2.8814
  825MOL0     H11314   5.986  10.591   6.326 -0.0405  3.2574  0.1614
  825MOL0     H11315   5.865  10.706   6.367  0.2900  1.6845 -1.9185
  825MOL0     H11316   5.672  10.548   6.290 -1.6081 -1.6442 -0.0875
  825MOL0     H11317   5.794  10.432   6.241  0.7026  0.0690  0.2726
  825MOL0     H11318   5.879  10.408   6.474 -1.3970 -3.2894  0.4291
  825MOL0     H11319   5.766  10.515   6.543 -3.5224 -1.8445  1.3101
  825MOL0     H11320   5.585  10.403   6.447 -0.0473 -3.9405 -3.0107
  825MOL0     H11321   5.691  10.274   6.392  0.4429 -2.9582  1.5708
  825MOL0     H11322   5.684  10.363   6.684  2.1848  0.8344 -0.7325
  825MOL0     H11323   5.568  10.237   6.613  0.3372 -0.7175  1.5714
  825MOL0     H11324   5.876  10.225   6.652  0.8634 -0.6919 -1.9951
  825MOL0     H11325   5.777  10.106   6.560  0.1215 -1.4349  0.8902
  825MOL0     H11326   5.523  10.052   6.750  0.1804 -0.4959 -2.3653
  825MOL0     H11327   5.451   9.880   6.960  0.1434 -2.2910  0.6271
  825MOL0     H11328   5.595   9.784   6.971 -0.9648 -0.0462 -2.5923
  825MOL0     H11329   5.564  10.015   7.154 -1.9628  0.7939 -0.2789
  825MOL0     H11330   5.647   9.855   7.179  1.2512  2.3544  0.2886
  825MOL0     H11331   5.415   9.757   7.224 -1.7977  0.9390  1.6388
  825MOL0     H11332   5.352   9.912   7.179  0.0848  1.0389 -0.2241
  825MOL0     H11333   5.454  10.012   7.381 -3.3332  0.9989 -0.0156
  825MOL0     H11334   5.501   9.845   7.431  0.9394  0.5083  0.0135
  825MOL0     H11335   5.044   9.896   7.419 -2.3489  0.6726  0.3602
  825MOL0     H11336   4.816   9.969   7.636  0.3306  1.4350  1.3702
  825MOL0     H11337   4.841  10.126   7.555  2.5376  0.6122  3.0708
  825MOL0     H11338   4.847   9.965   7.465 -0.3519 -0.1158  0.1999
  825MOL0     H11339   5.223  10.335   8.071 -0.2071 -4.8571  3.1893
  825MOL0     H11340   5.162  10.483   8.258 -1.0385 -2.2074  1.2566
  825MOL0     H11341   4.827  10.704   8.445 -0.6543  0.6873 -0.3914
  825MOL0     H11342   4.756  10.669   8.283 -0.5178  2.3143  0.7283
  825MOL0     H11343   4.634  10.573   8.461  0.0429  0.6170 -0.3171
  825MOL0     H11344   4.688  10.449   8.358 -2.2621  2.7065 -1.3735
  825MOL0     H11345   4.830  10.524   8.608  0.5953  0.7774 -2.3694
  825MOL0     H11346   4.866  10.387   8.494 -2.3368 -2.0998 -1.0764
  825MOL0     H11347   4.761  10.342   8.726  3.4566  0.1850 -0.9222
  825MOL0     H11348   4.622  10.450   8.663 -0.1426  0.0959 -1.5320
  825MOL0     H11349   4.719  10.163   8.568  0.2856 -0.3200  0.6936
  825MOL0     H11350   4.599  10.260   8.474 -0.1259  1.5033  0.9050
  825MOL0     H11351   4.585  10.159   8.775  1.1392 -1.9952 -0.6210
  825MOL0     H11352   4.450  10.231   8.687  0.0432 -0.4430 -0.6610
  825MOL0     H11353   4.598   9.968   8.624  0.8426 -0.3029  0.1131
  825MOL0     H11354   4.465  10.049   8.530  1.1754  0.1109 -0.2146
  825MOL0     H11355   4.424   9.984   8.828  2.1361 -2.9964 -0.2993
  825MOL0     H11356   4.391   9.865   8.686  0.3148  0.2362 -2.6701
  825MOL0     H11357   4.754  10.498   8.127 -0.1601  0.2014 -3.9671
  825MOL0     H11358   4.822  10.352   7.940 -0.6141  1.6612 -0.3811
  825MOL0     H11359   5.271  10.136   7.795  4.5070 -0.1060 -0.7502
  825MOL0     H11360   5.402  10.018   7.628  0.7547  2.9289 -0.7365
  825MOL0     H11361   6.099  10.645   5.883 -0.6185 -0.0676  2.5546
  825MOL0     H11362   6.275  10.505   5.768  0.8987 -1.9008  0.4162
  825MOL0     H11363   6.874  10.377   5.953 -1.2850 -0.8716  0.9584
  825MOL0     H11364   7.036  10.215   5.849 -0.9937 -3.1702  2.0898
  825MOL0     H11365   6.993   9.832   5.662 -1.0056  0.5166  0.0587
  825MOL0     H11366   6.841   9.891   5.595 -0.2334  1.2988  0.0050
  825MOL0     H11367   6.977  10.016   5.417  1.9788  0.9591 -0.8065
  825MOL0     H11368   7.019   9.844   5.402 -0.2218  0.1839  0.0480
  825MOL0     H11369   7.204   9.942   5.576  0.7737 -0.2743 -1.9771
  825MOL0     H11370   7.162  10.092   5.482  1.9595  1.8769  1.2415
  825MOL0     H11371   7.253   9.820   5.353  0.4527 -0.8912 -6.2399
  825MOL0     H11372   7.350   9.960   5.385 -1.7440  2.5072 -0.5936
  825MOL0     H11373   7.142  10.123   5.052  0.1126  2.4780  1.0362
  825MOL0     H11374   6.699  10.040   5.652 -1.8537  1.7665 -0.8565
  825MOL0     H11375   6.560  10.225   5.725 -0.4546  3.1016  2.6889
  826MOL0     O11376  10.039   2.821   7.576 -0.4971 -0.7704 -0.1005
  826MOL0     C11377  10.092   2.768   7.481 -0.5160 -0.1925  0.0155
  826MOL0     O11378  10.060   2.789   7.355  0.6036  0.2702  0.1608
  826MOL0     C11379   9.969   2.883   7.309 -0.3593 -0.2806  0.0836
  826MOL0     C11380   9.936   2.875   7.176  0.8010 -1.0493  0.7111
  826MOL0     C11381   9.856   2.976   7.118  1.2500 -0.9189  0.0692
  826MOL0     C11382   9.825   3.089   7.193  0.9661  0.0440 -0.2646
  826MOL0     O11383   9.729   3.179   7.142 -0.1006  0.7148  0.0836
  826MOL0     C11384   9.603   3.166   7.199  0.0990  0.0107 -0.7512
  826MOL0     C11385   9.517   3.093   7.106  0.2688  0.2110  0.3541
  826MOL0     C11386   9.406   3.162   7.014  0.3119 -0.5703  0.4302
  826MOL0     C11387   9.473   3.275   6.936 -0.4688  0.6976 -0.2718
  826MOL0     C11388   9.377   3.334   6.832 -0.8377  0.3920 -0.3767
  826MOL0     C11389   9.273   3.431   6.887 -0.0517 -0.6328  0.0708
  826MOL0     C11390   9.227   3.545   6.796  0.7543 -0.2533  0.0918
  826MOL0     C11391   9.172   3.497   6.666  0.9138  0.3515  0.2147
  826MOL0     N11392   9.072   3.592   6.608 -0.3495  0.2214  1.0049
  826MOL0     C11393   9.104   3.707   6.545  0.1992  0.2615 -0.7059
  826MOL0     C11394   8.983   3.761   6.503 -0.7451 -0.0317  0.5108
  826MOL0     C11395   8.964   3.884   6.418  0.3551 -0.1901 -0.0088
  826MOL0     C11396   9.092   3.931   6.351 -0.0099  0.0191 -0.1519
  826MOL0     C11397   9.071   4.070   6.295 -0.0618 -0.9362  0.1612
  826MOL0     C11398   9.186   4.140   6.231 -0.0445 -0.9202  0.3472
  826MOL0     O11399   9.235   4.062   6.113 -0.3063  0.5313 -0.0769
  826MOL0     C11400   9.231   4.114   5.985  0.6138 -0.3820 -0.3136
  826MOL0     C11401   9.276   4.019   5.888  0.6495 -0.4663  0.1196
  826MOL0     C11402   9.271   4.042   5.754 -0.4328 -0.5023  0.1448
  826MOL0     C11403   9.337   3.943   5.664 -0.1293 -0.6295 -0.0808
  826MOL0     C11404   9.223   4.169   5.709  0.1303 -0.1088  0.3428
  826MOL0     C11405   9.197   4.195   5.560  0.0445  0.4012 -0.9418
  826MOL0     O11406   9.220   4.099   5.462 -0.1562  0.1704 -0.7107
  826MOL0     C11407   9.223   4.141   5.331 -0.4217 -0.4573  0.6242
  826MOL0     C11408   9.336   4.103   5.264  0.6111  0.7262 -0.1545
  826MOL0     C11409   9.361   4.132   5.134 -0.2540  0.4582  0.1108
  826MOL0     C11410   9.276   4.200   5.058 -0.2197 -0.6280  0.2390
  826MOL0     O11411   9.318   4.226   4.934  0.0299 -0.4710  0.2307
  826MOL0     C11412   9.229   4.291   4.852  0.3035  0.2282 -0.6650
  826MOL0     C11413   9.276   4.316   4.712 -0.5401 -1.0142  0.6188
  826MOL0     C11414   9.408   4.400   4.696  0.6130 -0.0469  0.9304
  826MOL0     C11415   9.422   4.530   4.773 -0.2781 -0.8104 -0.3808
  826MOL0     C11416   9.540   4.619   4.732  0.6223 -0.2881  0.0817
  826MOL0     C11417   9.683   4.549   4.713  0.3112  0.3218  0.1384
  826MOL0     C11418   9.787   4.661   4.676 -0.0248 -0.8368 -0.2926
  826MOL0     C11419   9.794   4.693   4.523  0.4226 -0.3174  0.7611
  826MOL0    Cl11420   9.908   4.833   4.513 -0.0727  0.8768  0.1217
  826MOL0     C11421   9.153   4.242   5.123  0.8052  1.0037  0.6986
  826MOL0     C11422   9.131   4.213   5.260 -0.4365 -0.7632  0.2867
  826MOL0     O11423   9.160   4.310   5.532 -0.0321 -0.6725 -0.9788
  826MOL0     C11424   9.181   4.264   5.805  0.2991 -0.5588 -0.3064
  826MOL0     C11425   9.183   4.241   5.939 -0.6225 -0.3203  0.1897
  826MOL0     N11426   8.884   3.667   6.549 -0.3389  0.0054 -0.1727
  826MOL0     N11427   8.941   3.579   6.617  0.5829  0.0296 -0.8204
  826MOL0     C11428   9.876   3.108   7.321  0.9063  0.3574 -0.2388
  826MOL0     C11429   9.931   2.997   7.382 -0.0466 -0.1352  0.3651
  826MOL0     C11430  10.204   2.665   7.503  0.3368 -0.8937  0.0991
  826MOL0     C11431  10.259   2.629   7.626 -0.2697  0.1797 -0.0313
  826MOL0     C11432  10.339   2.517   7.643 -0.3604 -1.2791 -0.0116
  826MOL0     C11433  10.402   2.459   7.528  0.5064  0.3181 -0.2856
  826MOL0     O11434  10.491   2.365   7.566  0.3917 -0.7866 -0.0598
  826MOL0     C11435  10.553   2.288   7.458 -0.4507 -0.1759 -0.0819
  826MOL0     C11436  10.703   2.238   7.489  0.0517  0.0681  0.1624
  826MOL0     C11437  10.713   2.132   7.598  0.1212 -0.1882 -0.5334
  826MOL0     C11438  10.832   2.039   7.588  0.3118 -0.5518 -0.7541
  826MOL0     C11439  10.959   2.102   7.576  0.3679 -0.3357 -0.0418
  826MOL0     C11440  11.057   2.164   7.564 -0.3845  0.6606  0.2760
  826MOL0     C11441  10.368   2.500   7.404 -0.1388 -0.6405  0.5180
  826MOL0     C11442  10.260   2.601   7.389  0.3080  0.3854 -0.1783
  826MOL0     H11443   9.956   2.787   7.115 -0.1904 -0.5284 -0.3936
  826MOL0     H11444   9.811   2.956   7.021 -0.0432 -0.6325  0.5829
  826MOL0     H11445   9.602   3.116   7.296 -0.9105  0.9308 -0.2631
  826MOL0     H11446   9.560   3.265   7.217  3.2398  1.0948  1.4630
  826MOL0     H11447   9.582   3.036   7.039  1.3519  3.8296 -1.9192
  826MOL0     H11448   9.461   3.015   7.159  3.1681 -1.0095  1.8569
  826MOL0     H11449   9.369   3.076   6.956 -1.5055  0.6833 -0.3593
  826MOL0     H11450   9.320   3.201   7.069 -1.2694 -2.5660 -0.4904
  826MOL0     H11451   9.501   3.357   7.003  2.2508  1.7539 -2.4644
  826MOL0     H11452   9.572   3.245   6.899  0.0033  3.0317 -1.1303
  826MOL0     H11453   9.440   3.383   6.758 -2.7321  1.5340 -1.3032
  826MOL0     H11454   9.322   3.253   6.783 -0.2421  0.0903 -0.5584
  826MOL0     H11455   9.188   3.373   6.925 -0.1325  0.9707  2.5316
  826MOL0     H11456   9.318   3.482   6.972 -1.1488  3.3850 -1.5522
  826MOL0     H11457   9.162   3.617   6.847  0.2927  2.2671 -3.6459
  826MOL0     H11458   9.303   3.620   6.770  0.6798  0.1752  1.0641
  826MOL0     H11459   9.107   3.409   6.676  1.1115 -0.5459 -4.2530
  826MOL0     H11460   9.244   3.467   6.590  1.4808  0.0061  0.8706
  826MOL0     H11461   9.204   3.746   6.531  0.2470 -0.1817 -1.6680
  826MOL0     H11462   8.896   3.856   6.336  0.2976  0.9836 -0.3763
  826MOL0     H11463   8.910   3.957   6.479 -0.7125 -2.9220  2.6055
  826MOL0     H11464   9.128   3.850   6.287 -1.5988 -2.9165  2.3639
  826MOL0     H11465   9.164   3.936   6.434 -0.9644  0.4834  0.6716
  826MOL0     H11466   9.042   4.142   6.372  1.7547  0.3415 -0.2693
  826MOL0     H11467   8.981   4.066   6.233 -0.2767 -1.2293  0.4870
  826MOL0     H11468   9.267   4.145   6.303  0.4587 -1.5734 -0.1648
  826MOL0     H11469   9.151   4.239   6.200  4.3123  0.1213 -2.1027
  826MOL0     H11470   9.316   3.924   5.922 -0.0279 -0.6020  0.5449
  826MOL0     H11471   9.416   3.989   5.603 -0.1234 -0.7419 -0.1584
  826MOL0     H11472   9.383   3.865   5.725  1.4265 -0.5394 -1.0706
  826MOL0     H11473   9.259   3.900   5.600 -0.9617  4.2851 -2.8805
  826MOL0     H11474   9.414   4.060   5.327  2.3557  1.6458 -1.5984
  826MOL0     H11475   9.458   4.120   5.086 -0.3980  0.5942 -0.2136
  826MOL0     H11476   9.148   4.219   4.838  1.0558 -0.6648 -0.5187
  826MOL0     H11477   9.196   4.386   4.895  2.1185  2.2075 -3.3471
  826MOL0     H11478   9.287   4.230   4.646 -1.5789  1.8025 -3.7002
  826MOL0     H11479   9.202   4.371   4.653  0.7299 -1.5822 -1.5982
  826MOL0     H11480   9.451   4.409   4.596 -0.2257  2.4055  0.7214
  826MOL0     H11481   9.477   4.327   4.740 -0.2685 -1.2653  0.3650
  826MOL0     H11482   9.338   4.599   4.757 -0.6101 -0.4423  2.3766
  826MOL0     H11483   9.435   4.526   4.882 -0.2694  2.1769 -0.1765
  826MOL0     H11484   9.545   4.699   4.807  1.7365 -3.0507  3.1992
  826MOL0     H11485   9.504   4.661   4.638  0.1461 -0.2815  0.2631
  826MOL0     H11486   9.704   4.497   4.807  2.6544 -0.8609 -0.9403
  826MOL0     H11487   9.664   4.473   4.636 -2.2789  1.0320 -0.0123
  826MOL0     H11488   9.888   4.631   4.704 -0.3035 -0.1240  1.5865
  826MOL0     H11489   9.771   4.757   4.726  3.7311 -0.3800  0.2954
  826MOL0     H11490   9.693   4.724   4.495  0.5092 -1.6948 -1.2829
  826MOL0     H11491   9.825   4.599   4.476 -0.3217 -0.2563  0.1445
  826MOL0     H11492   9.083   4.303   5.067 -2.5151 -2.4307  0.7859
  826MOL0     H11493   9.042   4.241   5.317  0.2577  0.0600  0.9987
  826MOL0     H11494   9.140   4.361   5.780 -2.5763 -1.1966  1.4465
  826MOL0     H11495   9.153   4.322   6.006 -0.8956  0.1633 -0.4999
  826MOL0     H11496   9.853   3.201   7.373  0.2434  0.0789 -0.0133
  826MOL0     H11497   9.960   3.020   7.484  0.2191 -1.2242  0.5532
  826MOL0     H11498  10.217   2.680   7.711  1.8370  0.5731  0.8382
  826MOL0     H11499  10.371   2.490   7.743 -3.6717 -0.2292  1.4590
  826MOL0     H11500  10.489   2.201   7.443  1.9057 -1.9822 -0.2922
  826MOL0     H11501  10.561   2.335   7.360  0.9246  0.9348  0.5188
  826MOL0     H11502  10.756   2.329   7.518 -0.3454 -0.0772  1.4313
  826MOL0     H11503  10.741   2.198   7.395  0.0937 -1.6615  0.8777
  826MOL0     H11504  10.624   2.068   7.600  1.8599 -2.7658  0.3840
  826MOL0     H11505  10.717   2.177   7.698  2.7903 -2.3631  0.4761
  826MOL0     H11506  10.815   1.972   7.503 -1.0347 -0.5187 -0.5268
  826MOL0     H11507  10.837   1.968   7.671 -0.3273 -0.5347 -0.6977
  826MOL0     H11508  11.162   2.178   7.573 -0.3662  0.5261  0.2723
  826MOL0     H11509  10.400   2.450   7.313 -1.9055  0.0438 -0.5233
  826MOL0     H11510  10.229   2.610   7.285  2.2462 -0.4097 -0.8762
  827MOL0     O11511   3.785   4.132  10.808 -0.2101  0.0927  0.3262
  827MOL0     C11512   3.731   4.225  10.868  0.0578  0.4811  0.3173
  827MOL0     O11513   3.706   4.227  10.999 -0.5574 -0.7014  0.2728
  827MOL0     C11514   3.713   4.114  11.069 -0.2361  0.1764 -0.9299
  827MOL0     C11515   3.830   4.038  11.081 -0.3884  0.1165  0.9670
  827MOL0     C11516   3.838   3.917  11.155 -0.3250 -1.0517  0.6981
  827MOL0     C11517   3.721   3.867  11.217  0.9576  0.3263 -1.0898
  827MOL0     O11518   3.729   3.756  11.303  0.1975 -0.1837  0.1115
  827MOL0     C11519   3.834   3.652  11.288 -0.7242  0.5732 -0.6718
  827MOL0     C11520   3.831   3.566  11.411 -0.2356  0.2121 -0.0525
  827MOL0     C11521   3.918   3.620  11.532  0.4874 -0.5450 -0.0692
  827MOL0     C11522   3.958   3.503  11.619  0.8550  0.6501  0.2516
  827MOL0     C11523   4.076   3.539  11.716 -0.3931  0.2442 -0.4442
  827MOL0     C11524   4.048   3.655  11.814 -0.4675 -0.0464  0.2052
  827MOL0     C11525   3.944   3.634  11.916 -0.1664  0.0502  0.5226
  827MOL0     C11526   3.905   3.759  12.002 -0.4966 -0.4106 -0.0624
  827MOL0     N11527   4.004   3.795  12.107 -0.6883  0.2093 -0.2713
  827MOL0     C11528   4.084   3.709  12.177  0.3572  0.2292  0.1429
  827MOL0     C11529   4.166   3.783  12.249  0.8889  0.3823  0.3837
  827MOL0     C11530   4.274   3.722  12.334 -1.0166 -0.4022  1.3889
  827MOL0     C11531   4.281   3.785  12.473  0.8886 -0.4365  0.3603
  827MOL0     C11532   4.261   3.684  12.585  0.3092 -0.4111 -0.0142
  827MOL0     C11533   4.225   3.761  12.713  0.2365 -0.0961  0.2998
  827MOL0     O11534   4.086   3.775  12.725  0.4497 -0.1278  0.1099
  827MOL0     C11535   4.007   3.663  12.762 -0.9906 -0.1940  0.0301
  827MOL0     C11536   4.057   3.554  12.836 -0.5794 -0.2079 -0.3114
  827MOL0     C11537   3.973   3.449  12.861  0.1337 -0.0876  0.7581
  827MOL0     C11538   4.018   3.328  12.955  0.0466 -0.4027  0.1779
  827MOL0     C11539   3.845   3.438  12.804 -0.0613 -0.4198 -0.4340
  827MOL0     C11540   3.750   3.326  12.834  0.0463  0.5263 -0.3901
  827MOL0     O11541   3.720   3.300  12.965 -0.1457  0.1689  0.4410
  827MOL0     C11542   3.641   3.190  13.002  0.5230 -0.0155 -0.1760
  827MOL0     C11543   3.520   3.227  13.052  0.4399  0.2421 -1.1095
  827MOL0     C11544   3.436   3.135  13.107 -0.0017  0.6699  0.5960
  827MOL0     C11545   3.470   2.997  13.109 -0.9007  0.0855  0.6416
  827MOL0     O11546   3.375   2.913  13.152  0.1743  1.0454 -0.7319
  827MOL0     C11547   3.410   2.777  13.195 -0.5394 -0.0646 -0.2309
  827MOL0     C11548   3.400   2.689  13.063 -0.1692  0.2720  0.3746
  827MOL0     C11549   3.411   2.545  13.093 -0.0318  0.8605  0.3488
  827MOL0     C11550   3.388   2.447  12.967 -1.1951 -0.7686 -0.2491
  827MOL0     C11551   3.479   2.448  12.851 -0.4697  0.2834 -0.4605
  827MOL0     C11552   3.616   2.395  12.892  0.2565  0.6088 -0.4677
  827MOL0     C11553   3.714   2.397  12.773  0.6199  0.2947 -0.2037
  827MOL0     C11554   3.798   2.515  12.776  0.4589 -0.5316  0.1322
  827MOL0    Cl11555   3.915   2.500  12.639 -0.6060  0.1620  0.3187
  827MOL0     C11556   3.592   2.954  13.056 -0.2255  0.4215  0.0879
  827MOL0     C11557   3.680   3.051  13.005  0.2994 -0.3777 -1.2521
  827MOL0     O11558   3.691   3.274  12.736  0.8741  0.4516 -0.3337
  827MOL0     C11559   3.798   3.550  12.732  0.7316  0.3989 -0.3616
  827MOL0     C11560   3.876   3.662  12.717  0.0694 -0.7435 -0.0479
  827MOL0     N11561   4.137   3.919  12.221  0.5152 -0.4193  0.0142
  827MOL0     N11562   4.054   3.917  12.124  0.1997 -0.4480 -0.4218
  827MOL0     C11563   3.601   3.938  11.202 -0.0719 -0.5704  0.0980
  827MOL0     C11564   3.592   4.060  11.135 -0.9365 -0.3083  0.7005
  827MOL0     C11565   3.708   4.340  10.787 -0.5076 -0.5098  0.8951
  827MOL0     C11566   3.714   4.472  10.833 -0.5202  0.5567 -0.4689
  827MOL0     C11567   3.674   4.575  10.760  0.3310 -0.6685  0.0463
  827MOL0     C11568   3.623   4.577  10.631 -0.3934  0.7381 -0.2976
  827MOL0     O11569   3.589   4.689  10.554 -0.1971  0.8494 -0.3248
  827MOL0     C11570   3.456   4.730  10.564  0.3569 -1.2847 -0.0597
  827MOL0     C11571   3.432   4.864  10.481 -0.5756 -0.1011  0.6341
  827MOL0     C11572   3.492   4.861  10.332  0.6267 -0.3075  0.8810
  827MOL0     C11573   3.436   4.755  10.244  0.4242  0.0154 -0.3443
  827MOL0     C11574   3.285   4.762  10.236 -0.2214 -0.1384 -0.4049
  827MOL0     C11575   3.167   4.780  10.219  0.5598  1.4633  0.1958
  827MOL0     C11576   3.620   4.447  10.573 -0.4323  0.4244  0.1567
  827MOL0     C11577   3.663   4.327  10.653 -0.3717 -0.4750  0.1436
  827MOL0     H11578   3.912   4.073  11.019 -0.2994 -0.3804  0.7925
  827MOL0     H11579   3.936   3.871  11.163  0.1673  0.1353  1.8691
  827MOL0     H11580   3.803   3.590  11.203 -0.4145  1.0385 -1.1263
  827MOL0     H11581   3.935   3.692  11.285  0.4894 -1.8960  2.1030
  827MOL0     H11582   3.736   3.531  11.451  0.6043 -1.3942  0.6148
  827MOL0     H11583   3.872   3.468  11.384 -2.8104 -2.1589  3.7566
  827MOL0     H11584   4.003   3.663  11.479  1.1837 -4.9299 -3.0133
  827MOL0     H11585   3.850   3.685  11.589 -2.0655 -1.7372 -1.5704
  827MOL0     H11586   3.870   3.469  11.675  0.4008 -0.0189 -0.8343
  827MOL0     H11587   3.996   3.418  11.562  0.0162  0.7695 -0.5153
  827MOL0     H11588   4.109   3.447  11.765 -2.5209  0.2498  1.1162
  827MOL0     H11589   4.155   3.586  11.657 -1.6327  4.2361  0.7790
  827MOL0     H11590   4.138   3.689  11.867 -0.0801 -0.6440 -0.0513
  827MOL0     H11591   4.037   3.738  11.743  3.2771  0.5046  0.0424
  827MOL0     H11592   3.849   3.612  11.868 -1.9767  2.1871  2.8527
  827MOL0     H11593   3.974   3.557  11.987 -1.8280  0.7339  2.0316
  827MOL0     H11594   3.802   3.750  12.038 -1.6901  1.2292 -2.7878
  827MOL0     H11595   3.903   3.841  11.930  0.8796  0.3424  0.7110
  827MOL0     H11596   4.092   3.602  12.166  0.7544  0.0801  1.6297
  827MOL0     H11597   4.265   3.613  12.345  2.9927 -0.8300  1.6492
  827MOL0     H11598   4.371   3.726  12.285 -1.1476  0.1020  1.1693
  827MOL0     H11599   4.204   3.862  12.487  2.2913  1.7505 -2.7589
  827MOL0     H11600   4.381   3.829  12.473  0.3178  1.0234  2.5446
  827MOL0     H11601   4.357   3.632  12.597 -0.8290 -2.3938  0.9271
  827MOL0     H11602   4.183   3.611  12.561 -1.1527  1.8222 -2.5312
  827MOL0     H11603   4.270   3.861  12.712 -0.7045  0.4823  3.4317
  827MOL0     H11604   4.264   3.698  12.794 -0.9774 -2.2100 -0.6887
  827MOL0     H11605   4.156   3.545  12.880 -1.0204  0.8836  0.9948
  827MOL0     H11606   3.977   3.339  13.056  0.5821  2.6206  0.1695
  827MOL0     H11607   3.979   3.238  12.908 -0.6917  0.0264 -0.0431
  827MOL0     H11608   4.127   3.322  12.960  0.2011  2.0097  0.9937
  827MOL0     H11609   3.471   3.323  13.045  0.2776  0.1370 -1.4486
  827MOL0     H11610   3.339   3.176  13.132 -0.6818 -1.1987  1.1432
  827MOL0     H11611   3.512   2.762  13.233 -1.0536 -3.6597  0.1374
  827MOL0     H11612   3.341   2.738  13.271 -0.7512 -0.9872 -0.8705
  827MOL0     H11613   3.303   2.709  13.018 -0.0825 -1.4092 -0.6544
  827MOL0     H11614   3.472   2.716  12.986 -0.7409  0.1267 -0.2143
  827MOL0     H11615   3.334   2.510  13.161 -1.1596 -0.6377 -1.6183
  827MOL0     H11616   3.509   2.519  13.134  0.2325 -2.6895 -2.1584
  827MOL0     H11617   3.394   2.343  13.000 -1.4340 -0.6465  0.1825
  827MOL0     H11618   3.291   2.464  12.919 -0.4912 -4.1793 -3.3636
  827MOL0     H11619   3.502   2.547  12.812 -0.1466  0.0750 -0.8043
  827MOL0     H11620   3.438   2.383  12.774  1.0151 -0.2513 -0.8339
  827MOL0     H11621   3.665   2.453  12.970  0.5418 -0.2738  0.0256
  827MOL0     H11622   3.600   2.296  12.937 -0.9314  1.8796  2.0851
  827MOL0     H11623   3.655   2.401  12.681  1.6830  0.5512 -0.8915
  827MOL0     H11624   3.768   2.302  12.769 -0.1272 -0.0998 -2.6173
  827MOL0     H11625   3.870   2.528  12.857  0.2554 -1.4765  0.4825
  827MOL0     H11626   3.742   2.602  12.742 -2.0604 -2.0721  0.0452
  827MOL0     H11627   3.618   2.850  13.072 -2.5688 -0.8529 -3.3466
  827MOL0     H11628   3.780   3.019  12.978  1.2163  1.8886 -0.7587
  827MOL0     H11629   3.694   3.556  12.703  0.8088  2.2851 -0.3930
  827MOL0     H11630   3.837   3.747  12.661  1.4835 -0.5395 -0.7750
  827MOL0     H11631   3.507   3.897  11.238  0.0438  0.8556  2.1373
  827MOL0     H11632   3.504   4.124  11.135  1.3787  3.1661 -0.1442
  827MOL0     H11633   3.750   4.478  10.935  0.5412  0.9088 -0.8464
  827MOL0     H11634   3.690   4.669  10.812  1.9856 -0.3490 -0.9811
  827MOL0     H11635   3.402   4.649  10.513  0.1769 -0.6757 -0.8532
  827MOL0     H11636   3.417   4.746  10.665 -0.8763 -1.7066 -0.4488
  827MOL0     H11637   3.466   4.947  10.544 -0.3773 -0.2241  0.6905
  827MOL0     H11638   3.328   4.897  10.471 -0.4191  0.1861 -0.1228
  827MOL0     H11639   3.601   4.871  10.335  0.6111  1.1297 -0.9386
  827MOL0     H11640   3.453   4.953  10.286  1.2330 -0.9543 -1.0438
  827MOL0     H11641   3.474   4.657  10.272  0.4476  0.4731  1.2996
  827MOL0     H11642   3.469   4.790  10.145  4.8029  3.2459  1.9192
  827MOL0     H11643   3.061   4.790  10.206 -0.6383 -2.1768  4.2612
  827MOL0     H11644   3.592   4.434  10.470 -0.5715  4.9782 -0.5624
  827MOL0     H11645   3.663   4.226  10.613 -0.4024 -0.7069  0.7317
  828MOL0     O11646   7.249   3.326   2.165  0.3003 -0.0608 -0.0756
  828MOL0     C11647   7.345   3.252   2.147 -0.1709  0.1494  0.3020
  828MOL0     O11648   7.461   3.257   2.217  0.4120  0.6455  0.4696
  828MOL0     C11649   7.478   3.343   2.325 -0.3270  0.3839 -0.0209
  828MOL0     C11650   7.597   3.416   2.322 -0.3945 -0.0065  0.9293
  828MOL0     C11651   7.612   3.517   2.418  1.0250  0.1301  1.0340
  828MOL0     C11652   7.519   3.540   2.504 -0.7262 -0.6746 -0.5697
  828MOL0     O11653   7.551   3.647   2.589 -0.0437 -0.9305 -0.7486
  828MOL0     C11654   7.440   3.695   2.659  0.3276  0.7343  0.2501
  828MOL0     C11655   7.460   3.834   2.713 -0.5085 -0.3684  0.4812
  828MOL0     C11656   7.507   3.844   2.856 -0.2611 -0.1796  0.2136
  828MOL0     C11657   7.518   3.986   2.911 -0.9400 -0.2144  0.0215
  828MOL0     C11658   7.568   4.003   3.051 -0.6111 -0.1606 -0.9225
  828MOL0     C11659   7.704   3.963   3.090  0.0869  0.0591  0.3871
  828MOL0     C11660   7.712   3.910   3.239 -0.7532  0.2916  0.1333
  828MOL0     C11661   7.702   4.013   3.350 -0.5754  0.2162  0.3050
  828MOL0     N11662   7.735   3.932   3.472 -0.4442 -0.6951 -0.2850
  828MOL0     C11663   7.663   3.831   3.536 -0.5232  0.0690 -0.2257
  828MOL0     C11664   7.742   3.785   3.639 -0.2150  0.2594  0.4308
  828MOL0     C11665   7.707   3.698   3.759  0.4790  0.6536 -0.6085
  828MOL0     C11666   7.637   3.773   3.881  0.1134 -0.6354  0.6977
  828MOL0     C11667   7.609   3.676   3.991 -0.6000 -0.5028  0.1761
  828MOL0     C11668   7.526   3.751   4.104  0.2158 -0.3026  0.9482
  828MOL0     O11669   7.499   3.665   4.210 -0.0371 -0.1772  0.3403
  828MOL0     C11670   7.412   3.723   4.298 -0.3879 -1.0248  0.2706
  828MOL0     C11671   7.414   3.656   4.424  0.0556 -0.1031 -0.1800
  828MOL0     C11672   7.320   3.684   4.530 -0.7802  0.8165 -0.3541
  828MOL0     C11673   7.312   3.594   4.646  0.7689  0.6506 -0.5083
  828MOL0     C11674   7.238   3.797   4.508  0.5172  0.5125  0.3136
  828MOL0     C11675   7.132   3.821   4.605  0.3698  0.8132  0.6597
  828MOL0     O11676   7.106   3.949   4.640 -0.7625  0.0202  0.6274
  828MOL0     C11677   7.012   3.979   4.734  0.2691 -1.2792  0.2137
  828MOL0     C11678   6.892   4.058   4.712 -0.7740  0.2950  0.4912
  828MOL0     C11679   6.812   4.092   4.816 -0.1402  0.5502 -0.2488
  828MOL0     C11680   6.847   4.072   4.951 -1.2306  0.9298  0.2736
  828MOL0     O11681   6.781   4.093   5.067 -0.0504 -0.2243 -0.6642
  828MOL0     C11682   6.639   4.073   5.067  0.9906 -0.3647 -0.6504
  828MOL0     C11683   6.577   4.106   5.208  0.7490 -0.4885  0.7792
  828MOL0     C11684   6.559   4.250   5.250  0.0519 -1.0224 -0.0801
  828MOL0     C11685   6.521   4.284   5.396  0.3147  1.2980 -0.1573
  828MOL0     C11686   6.515   4.430   5.425 -0.0024  0.0992  0.5953
  828MOL0     C11687   6.458   4.470   5.561  0.1557  0.9005 -0.3382
  828MOL0     C11688   6.543   4.409   5.672 -0.7198 -0.1513 -0.1748
  828MOL0     C11689   6.506   4.440   5.809  0.0189  0.1301  0.3058
  828MOL0    Cl11690   6.493   4.621   5.821 -0.1756  0.2056 -0.0611
  828MOL0     C11691   6.974   4.022   4.981  0.4375  0.4620  0.7769
  828MOL0     C11692   7.050   3.971   4.870  0.3938  0.7564 -0.6323
  828MOL0     O11693   7.053   3.736   4.629 -0.5160  0.3013 -0.3474
  828MOL0     C11694   7.247   3.871   4.386 -0.6516  0.4350 -0.3603
  828MOL0     C11695   7.330   3.837   4.280  0.0041  0.0334 -0.7498
  828MOL0     N11696   7.863   3.833   3.615  0.1664  0.0853 -1.6012
  828MOL0     N11697   7.860   3.916   3.522  0.7658 -0.1657 -0.4980
  828MOL0     C11698   7.405   3.468   2.516 -0.5268 -0.0717  0.6764
  828MOL0     C11699   7.386   3.367   2.425  0.1956  0.1803 -0.5250
  828MOL0     C11700   7.338   3.135   2.065  0.1807  1.1346  0.0652
  828MOL0     C11701   7.450   3.053   2.027 -0.0304 -0.2337 -0.2501
  828MOL0     C11702   7.437   2.931   1.959 -0.1602  0.0610  0.0955
  828MOL0     C11703   7.306   2.875   1.935 -0.0954  0.0523 -0.1847
  828MOL0     O11704   7.302   2.751   1.872  0.0023  0.4533  0.9089
  828MOL0     C11705   7.182   2.669   1.855  1.2581  1.0908  0.1686
  828MOL0     C11706   7.105   2.711   1.731  0.1959 -0.5938  0.4652
  828MOL0     C11707   7.183   2.706   1.597 -0.7822 -1.0887  0.3056
  828MOL0     C11708   7.104   2.773   1.491  0.4552  0.8415 -0.4520
  828MOL0     C11709   7.105   2.914   1.520  0.1868 -0.4981  0.1006
  828MOL0     C11710   7.113   3.029   1.570 -0.5507 -0.1475  0.5674
  828MOL0     C11711   7.193   2.947   1.979 -1.0458  0.3684  1.0182
  828MOL0     C11712   7.211   3.075   2.036 -0.5365  0.2943  0.5565
  828MOL0     H11713   7.666   3.398   2.240 -0.9624 -0.5142  0.5575
  828MOL0     H11714   7.704   3.575   2.424  0.7263  0.5987  1.1617
  828MOL0     H11715   7.361   3.698   2.583  1.7510 -2.0038 -1.5058
  828MOL0     H11716   7.431   3.629   2.746  1.4719 -0.4228 -0.4699
  828MOL0     H11717   7.529   3.876   2.638 -0.1642 -0.4770  0.7352
  828MOL0     H11718   7.363   3.879   2.689 -1.6840 -2.8805  0.2011
  828MOL0     H11719   7.437   3.778   2.909  0.4510  0.1362  1.5827
  828MOL0     H11720   7.606   3.801   2.875 -1.5231 -2.9030  1.2099
  828MOL0     H11721   7.586   4.030   2.837  0.7743 -3.9841 -0.9531
  828MOL0     H11722   7.427   4.042   2.892 -0.3055  0.7971 -0.0905
  828MOL0     H11723   7.553   4.105   3.088  1.5399 -0.7005  1.7225
  828MOL0     H11724   7.498   3.950   3.117  0.0485  0.9791  0.7612
  828MOL0     H11725   7.743   3.896   3.013  1.2149  2.6083 -1.3991
  828MOL0     H11726   7.760   4.056   3.089 -1.0629  0.9427  4.0945
  828MOL0     H11727   7.657   3.819   3.262  2.8180 -2.0664  0.0428
  828MOL0     H11728   7.807   3.858   3.235  1.2629  3.4391  2.2886
  828MOL0     H11729   7.603   4.060   3.347  0.1861  1.8642 -1.2004
  828MOL0     H11730   7.775   4.094   3.350  0.6910 -0.8499 -1.5154
  828MOL0     H11731   7.560   3.806   3.511 -0.7593 -0.6248  1.2939
  828MOL0     H11732   7.643   3.623   3.711  2.5390 -0.0220 -2.4669
  828MOL0     H11733   7.794   3.638   3.786  2.0328  3.2238  0.4931
  828MOL0     H11734   7.541   3.816   3.850  0.6204 -0.0084 -0.0599
  828MOL0     H11735   7.709   3.844   3.923  1.5727 -0.5057 -1.7647
  828MOL0     H11736   7.704   3.643   4.034  0.0397  0.4580 -0.4792
  828MOL0     H11737   7.560   3.582   3.964  0.6806 -2.3995  3.8465
  828MOL0     H11738   7.435   3.790   4.058  1.0093 -0.8449 -1.1751
  828MOL0     H11739   7.595   3.829   4.138  2.2318 -1.3086 -0.6015
  828MOL0     H11740   7.478   3.571   4.445 -1.1922 -1.1524 -0.5032
  828MOL0     H11741   7.268   3.648   4.731 -0.9205 -1.4226  0.0018
  828MOL0     H11742   7.251   3.508   4.617 -0.5997  1.6445 -0.6858
  828MOL0     H11743   7.412   3.572   4.684  0.6369  2.4401  1.0800
  828MOL0     H11744   6.874   4.074   4.606 -0.6639 -3.5246 -0.2441
  828MOL0     H11745   6.714   4.139   4.810 -0.1016  1.2919  3.2235
  828MOL0     H11746   6.593   4.128   4.985  0.8234 -3.0990 -2.5161
  828MOL0     H11747   6.615   3.967   5.054 -2.8808 -0.1935  2.8860
  828MOL0     H11748   6.481   4.055   5.215 -0.3122  1.5724  2.1743
  828MOL0     H11749   6.641   4.056   5.281  0.2161 -2.5274 -0.0815
  828MOL0     H11750   6.476   4.289   5.189 -1.6087 -3.4153  0.4964
  828MOL0     H11751   6.651   4.306   5.240  0.2447 -1.0132  1.5582
  828MOL0     H11752   6.425   4.237   5.417  0.4903  1.5009  1.1845
  828MOL0     H11753   6.590   4.232   5.463  0.4420  3.3028  1.3821
  828MOL0     H11754   6.447   4.481   5.356  0.4394 -0.8432 -0.5566
  828MOL0     H11755   6.612   4.479   5.419  0.0656  0.0868  1.4833
  828MOL0     H11756   6.452   4.578   5.575  0.2484  0.5871  2.8090
  828MOL0     H11757   6.358   4.430   5.543  1.2570 -1.0127 -3.0553
  828MOL0     H11758   6.641   4.452   5.649 -0.9557 -0.1563 -1.2637
  828MOL0     H11759   6.564   4.302   5.667  1.7033  0.2957 -1.4239
  828MOL0     H11760   6.579   4.411   5.885 -0.7519  0.5972  1.2584
  828MOL0     H11761   6.411   4.392   5.832  0.3327 -1.6657 -1.8329
  828MOL0     H11762   7.013   4.028   5.082  1.5936  0.0360  0.3780
  828MOL0     H11763   7.151   3.935   4.886  0.0165 -0.8110 -1.6244
  828MOL0     H11764   7.179   3.955   4.376 -0.0063  0.8533 -1.3393
  828MOL0     H11765   7.316   3.898   4.191 -1.4258  0.0475 -0.5444
  828MOL0     H11766   7.336   3.482   2.597  1.6230  1.8321  2.3028
  828MOL0     H11767   7.300   3.302   2.435 -0.1520  1.0039  4.1129
  828MOL0     H11768   7.557   3.067   2.037  0.8902 -3.4769 -3.4900
  828MOL0     H11769   7.519   2.864   1.932 -0.2887  0.2212 -0.7208
  828MOL0     H11770   7.224   2.571   1.834 -0.3083  0.6685 -1.1165
  828MOL0     H11771   7.121   2.663   1.946  4.7812 -2.7058  2.6331
  828MOL0     H11772   7.080   2.812   1.764 -1.2371  0.2430 -2.7621
  828MOL0     H11773   7.007   2.662   1.723 -1.1192  1.3809  2.9418
  828MOL0     H11774   7.218   2.607   1.569  0.0955 -0.7378  0.1306
  828MOL0     H11775   7.280   2.748   1.623 -0.3099 -2.7683  1.3718
  828MOL0     H11776   7.004   2.729   1.485  1.3009 -0.9982 -2.0630
  828MOL0     H11777   7.155   2.749   1.398 -0.1785  0.3721 -0.6885
  828MOL0     H11778   7.133   3.128   1.606  0.1113  0.2526 -0.8477
  828MOL0     H11779   7.094   2.907   1.959 -0.6372 -0.1715  0.0017
  828MOL0     H11780   7.118   3.122   2.066 -0.9097 -1.8749  3.1374
  829MOL0     O11781   4.732   2.710   0.424 -0.4565  0.3036  0.1853
  829MOL0     C11782   4.661   2.614   0.392  1.2674  0.1774  0.4241
  829MOL0     O11783   4.521   2.603   0.390  0.8480 -0.0309  0.9992
  829MOL0     C11784   4.454   2.716   0.418 -0.2190  0.1950  0.1632
  829MOL0     C11785   4.370   2.733   0.539 -0.3794  0.1422 -0.2121
  829MOL0     C11786   4.294   2.845   0.557  0.1327  0.0171 -0.9345
  829MOL0     C11787   4.305   2.956   0.470 -0.8676 -1.3266  1.1560
  829MOL0     O11788   4.234   3.077   0.477 -0.0846 -1.1875  0.9828
  829MOL0     C11789   4.227   3.148   0.598  0.2837 -0.5445 -0.1075
  829MOL0     C11790   4.363   3.210   0.621  0.0026  0.0482  0.0573
  829MOL0     C11791   4.393   3.349   0.561  0.5336 -0.3783  0.5041
  829MOL0     C11792   4.523   3.407   0.613  0.0707 -0.0199 -0.5946
  829MOL0     C11793   4.521   3.445   0.761  0.3717 -0.1068  0.1108
  829MOL0     C11794   4.656   3.514   0.811  0.5891 -1.0770  0.2619
  829MOL0     C11795   4.640   3.545   0.956  0.1587 -0.6295  0.0665
  829MOL0     C11796   4.685   3.424   1.041  0.3789  0.2041  0.6987
  829MOL0     N11797   4.662   3.467   1.181 -0.3511  1.0614  1.4574
  829MOL0     C11798   4.758   3.458   1.269 -0.5608  0.1333 -0.6839
  829MOL0     C11799   4.696   3.478   1.386  0.0528  1.0952 -0.2550
  829MOL0     C11800   4.771   3.457   1.515  0.6904  0.3301 -0.0180
  829MOL0     C11801   4.672   3.411   1.627  0.4819  0.3183 -0.6817
  829MOL0     C11802   4.749   3.412   1.758 -0.7234 -0.0927  0.0644
  829MOL0     C11803   4.736   3.549   1.836  0.9102  0.3754  0.4763
  829MOL0     O11804   4.630   3.549   1.936  1.0311 -0.8131  0.2848
  829MOL0     C11805   4.630   3.660   2.024  0.1293 -0.8041 -0.0590
  829MOL0     C11806   4.663   3.790   1.982  0.2081  0.1375 -0.0500
  829MOL0     C11807   4.705   3.879   2.087  0.1641 -0.4774  0.9189
  829MOL0     C11808   4.735   4.025   2.044  0.7173 -0.3838 -0.9713
  829MOL0     C11809   4.699   3.848   2.221 -0.0517 -0.3821 -0.2776
  829MOL0     C11810   4.749   3.937   2.330  0.6735 -0.2394 -0.1734
  829MOL0     O11811   4.655   3.969   2.427  0.6764  0.3364 -0.0722
  829MOL0     C11812   4.675   3.938   2.561 -0.9680  0.6347 -0.5782
  829MOL0     C11813   4.764   3.837   2.609 -0.2505 -0.1952 -0.3782
  829MOL0     C11814   4.764   3.805   2.746 -0.1383 -0.2143 -0.1068
  829MOL0     C11815   4.684   3.869   2.842 -0.2728 -0.5314  0.3961
  829MOL0     O11816   4.681   3.824   2.972 -0.4114 -0.0183  0.0210
  829MOL0     C11817   4.782   3.732   3.012  0.0701 -0.3965  0.2675
  829MOL0     C11818   4.750   3.692   3.159 -0.5619  0.1456 -0.9581
  829MOL0     C11819   4.836   3.777   3.245 -0.9189 -0.4730 -0.2835
  829MOL0     C11820   4.886   3.696   3.370 -0.0027  0.1668 -0.2469
  829MOL0     C11821   4.972   3.784   3.463 -0.7646  0.4407  0.2201
  829MOL0     C11822   4.889   3.878   3.555 -0.5352 -0.5436 -0.8925
  829MOL0     C11823   4.971   3.943   3.664  0.8168  0.2783 -0.7084
  829MOL0     C11824   5.076   4.042   3.613 -0.6298 -0.4181  0.3199
  829MOL0    Cl11825   5.001   4.202   3.552  0.3007 -0.3291  0.0642
  829MOL0     C11826   4.597   3.959   2.791  0.2731 -0.8779  0.0265
  829MOL0     C11827   4.600   4.005   2.654 -0.1432  0.6362  0.4177
  829MOL0     O11828   4.864   3.951   2.351  0.2614  0.3912 -0.4646
  829MOL0     C11829   4.658   3.725   2.257 -1.5349 -0.1046  0.0048
  829MOL0     C11830   4.619   3.632   2.160  0.5305 -0.4761  0.0083
  829MOL0     N11831   4.559   3.489   1.360  0.1328 -0.2976 -0.1523
  829MOL0     N11832   4.538   3.466   1.240  0.9099  0.2426 -0.8670
  829MOL0     C11833   4.384   2.943   0.360 -1.3781 -0.4284 -0.4711
  829MOL0     C11834   4.465   2.824   0.332  0.2074 -0.7999 -0.6065
  829MOL0     C11835   4.713   2.517   0.299  0.4863  0.3912 -0.5969
  829MOL0     C11836   4.660   2.385   0.288  0.0125 -0.1762 -0.4861
  829MOL0     C11837   4.696   2.294   0.187 -0.4304 -0.1555 -0.4498
  829MOL0     C11838   4.783   2.337   0.084  0.5630  0.6505  0.4846
  829MOL0     O11839   4.809   2.269  -0.035 -0.4234  0.2707  0.5102
  829MOL0     C11840   4.789   2.128  -0.048 -0.0052  1.5833  0.0062
  829MOL0     C11841   4.883   2.027   0.019 -1.3021 -0.4506 -0.0974
  829MOL0     C11842   5.002   1.987  -0.080  0.5331  0.1130 -0.6894
  829MOL0     C11843   5.127   1.910  -0.016  0.6314 -0.2625 -0.1680
  829MOL0     C11844   5.195   1.844  -0.119 -0.7798 -0.0915  0.3921
  829MOL0     C11845   5.250   1.767  -0.197 -0.2787 -0.5004  0.7843
  829MOL0     C11846   4.830   2.462   0.090 -0.7494  0.2435 -1.3457
  829MOL0     C11847   4.803   2.556   0.196 -0.2629  0.0088 -0.1776
  829MOL0     H11848   4.377   2.656   0.615 -1.6953  0.5006  0.2939
  829MOL0     H11849   4.247   2.867   0.652 -1.2127 -0.1444 -1.5366
  829MOL0     H11850   4.141   3.215   0.595  0.9865  0.5603  2.0575
  829MOL0     H11851   4.202   3.086   0.685  0.7907  0.8486  1.0837
  829MOL0     H11852   4.360   3.227   0.729  0.9970  1.8289 -0.1482
  829MOL0     H11853   4.438   3.141   0.582  0.6449  0.8210 -0.1168
  829MOL0     H11854   4.391   3.342   0.452 -0.2729  2.9789  0.1922
  829MOL0     H11855   4.309   3.416   0.585 -0.0435 -0.7036 -0.5122
  829MOL0     H11856   4.608   3.338   0.608 -0.9498 -1.2657 -1.4162
  829MOL0     H11857   4.554   3.494   0.555  1.0129 -0.9692 -1.5687
  829MOL0     H11858   4.440   3.514   0.784  1.1277  2.0629 -3.0873
  829MOL0     H11859   4.503   3.359   0.826  1.2854 -0.3815  0.0214
  829MOL0     H11860   4.744   3.450   0.796  0.1985 -1.3034 -1.2302
  829MOL0     H11861   4.685   3.605   0.758  1.2361 -0.0985  2.1947
  829MOL0     H11862   4.702   3.633   0.979 -1.5753  0.2945  1.4757
  829MOL0     H11863   4.537   3.570   0.982  0.8874  0.6026  1.9694
  829MOL0     H11864   4.792   3.410   1.022  0.0875  0.2470 -1.0970
  829MOL0     H11865   4.640   3.325   1.026  1.5897 -0.3093  0.3237
  829MOL0     H11866   4.864   3.439   1.258 -0.7429 -1.0825 -0.5612
  829MOL0     H11867   4.850   3.383   1.500  1.1980  0.4941  1.6298
  829MOL0     H11868   4.821   3.551   1.542 -0.1879  1.6532 -2.6904
  829MOL0     H11869   4.644   3.308   1.603 -0.6999  0.6219 -0.6565
  829MOL0     H11870   4.580   3.469   1.636  1.1696  1.2906  0.4566
  829MOL0     H11871   4.851   3.380   1.734 -0.9668 -0.7755 -0.0784
  829MOL0     H11872   4.709   3.336   1.825  0.6028  0.5882  1.7221
  829MOL0     H11873   4.690   3.611   1.759 -0.5742 -0.3115  0.7674
  829MOL0     H11874   4.828   3.588   1.880 -0.7803  3.1854  1.7791
  829MOL0     H11875   4.667   3.805   1.875  1.7963  0.6558  0.0537
  829MOL0     H11876   4.661   4.098   2.079  2.4847  1.1988 -0.4084
  829MOL0     H11877   4.825   4.061   2.094  1.2114 -3.1837  0.3391
  829MOL0     H11878   4.729   4.030   1.935 -2.9093 -0.7676 -0.9098
  829MOL0     H11879   4.825   3.779   2.540  0.9758  0.8158 -0.1926
  829MOL0     H11880   4.838   3.730   2.770  0.6396  0.3118 -0.7813
  829MOL0     H11881   4.749   3.649   2.949 -1.3195 -0.9258  1.6360
  829MOL0     H11882   4.886   3.749   2.981  1.0798 -1.6937  2.7208
  829MOL0     H11883   4.644   3.711   3.179 -0.3082  2.2460 -1.4387
  829MOL0     H11884   4.770   3.584   3.165 -2.4496 -0.1579  1.3812
  829MOL0     H11885   4.785   3.870   3.274  1.6718  0.7935  0.5113
  829MOL0     H11886   4.929   3.805   3.195 -1.6179  0.0418 -1.3349
  829MOL0     H11887   4.807   3.665   3.439 -0.4181 -1.2067 -1.3071
  829MOL0     H11888   4.943   3.608   3.338  1.1555  0.3475  1.2039
  829MOL0     H11889   5.046   3.836   3.401 -3.1220 -0.1350 -3.3375
  829MOL0     H11890   5.022   3.720   3.536 -0.5707  0.4967  0.1380
  829MOL0     H11891   4.834   3.958   3.504  0.7393  2.4570  2.0696
  829MOL0     H11892   4.814   3.812   3.601 -5.1721  3.3391 -2.0316
  829MOL0     H11893   5.021   3.859   3.713  0.4874  0.8567  0.6920
  829MOL0     H11894   4.901   3.997   3.728  1.0770 -0.5527  0.3145
  829MOL0     H11895   5.126   3.993   3.529 -3.1757 -1.0318 -0.9515
  829MOL0     H11896   5.153   4.066   3.686  0.4166 -0.2763 -0.7886
  829MOL0     H11897   4.522   4.010   2.849 -1.5642 -0.1883 -2.7432
  829MOL0     H11898   4.539   4.084   2.611  2.0491  1.0121 -2.2497
  829MOL0     H11899   4.660   3.705   2.363  0.2765  1.7210  0.3832
  829MOL0     H11900   4.571   3.540   2.190 -2.1067  1.3769  1.9702
  829MOL0     H11901   4.375   3.034   0.302 -1.9761  0.1632  0.5187
  829MOL0     H11902   4.536   2.820   0.250  1.3626 -2.1412  0.3969
  829MOL0     H11903   4.589   2.345   0.360  0.4341  1.9312  1.2024
  829MOL0     H11904   4.649   2.197   0.190  0.5191 -0.8595 -3.7096
  829MOL0     H11905   4.693   2.093  -0.009 -0.8995 -4.7280 -5.9773
  829MOL0     H11906   4.786   2.111  -0.156 -3.6991  1.7506 -0.0577
  829MOL0     H11907   4.818   1.944   0.048 -3.3158  0.8959 -0.5086
  829MOL0     H11908   4.926   2.072   0.109 -0.6671 -4.5195  1.8842
  829MOL0     H11909   5.034   2.081  -0.125 -2.1221  1.4387  0.0158
  829MOL0     H11910   4.962   1.935  -0.168  1.3722  1.0560 -1.6586
  829MOL0     H11911   5.093   1.833   0.054  4.3698 -2.5787 -0.6767
  829MOL0     H11912   5.184   1.988   0.037 -1.0480  0.7176  0.3073
  829MOL0     H11913   5.304   1.698  -0.259  0.9876  1.3364 -0.2345
  829MOL0     H11914   4.893   2.498   0.009 -0.0715 -2.2734 -2.0246
  829MOL0     H11915   4.818   2.662   0.177 -0.3860 -0.2333 -1.7107
  830MOL0     O11916   7.257  10.142   9.984 -0.2312 -0.6280  0.2115
  830MOL0     C11917   7.332  10.065  10.046  0.5466 -0.0133 -0.4127
  830MOL0     O11918   7.329  10.048  10.177 -0.6067 -0.0856 -0.0691
  830MOL0     C11919   7.212  10.089  10.232  0.3336  0.4886 -1.2479
  830MOL0     C11920   7.096  10.013  10.240 -0.1364  0.0827  0.2962
  830MOL0     C11921   6.985  10.047  10.316 -0.2856 -1.2079 -0.5464
  830MOL0     C11922   6.991  10.160  10.397  0.8550 -0.0520  0.5297
  830MOL0     O11923   6.893  10.186  10.490 -0.4802 -0.2158  1.1446
  830MOL0     C11924   6.853  10.076  10.566  0.3750  0.0224  0.4833
  830MOL0     C11925   6.775  10.132  10.684 -0.2634 -0.5758  0.1049
  830MOL0     C11926   6.678  10.030  10.735 -0.8502 -0.1563 -0.8007
  830MOL0     C11927   6.607  10.086  10.863 -0.2059  0.9068  0.0809
  830MOL0     C11928   6.492  10.003  10.918  0.1898 -0.4989  0.1032
  830MOL0     C11929   6.516   9.868  10.972  0.1245 -0.7709  0.4818
  830MOL0     C11930   6.416   9.830  11.078 -1.0301 -0.2094  0.5099
  830MOL0     C11931   6.455   9.867  11.220  0.1244 -0.7388  0.7877
  830MOL0     N11932   6.570   9.800  11.270  0.1945  0.6197 -0.4922
  830MOL0     C11933   6.574   9.672  11.301 -0.1279 -0.2363 -0.0910
  830MOL0     C11934   6.698   9.644  11.319 -0.5145 -0.1128  1.1262
  830MOL0     C11935   6.754   9.508  11.351  0.1324 -0.8261 -0.0170
  830MOL0     C11936   6.881   9.513  11.427  0.0411  0.0568  0.0209
  830MOL0     C11937   6.856   9.539  11.577  0.8648  0.1444  0.2444
  830MOL0     C11938   6.817   9.692  11.604  0.1280  0.2702 -0.2810
  830MOL0     O11939   6.807   9.721  11.749  0.0265  0.4428 -0.5956
  830MOL0     C11940   6.929   9.744  11.813 -0.1540 -0.8019 -0.1679
  830MOL0     C11941   7.063   9.737  11.763 -0.0529 -0.5446  0.3319
  830MOL0     C11942   7.176   9.764  11.838  0.2026 -0.3297  0.5373
  830MOL0     C11943   7.305   9.737  11.767 -0.5376 -0.8645 -0.4082
  830MOL0     C11944   7.162   9.801  11.969  0.4356  0.6804 -0.2907
  830MOL0     C11945   7.271   9.829  12.062  0.6807 -0.0095 -0.1531
  830MOL0     O11946   7.242   9.914  12.156 -0.2096 -0.5696 -0.4746
  830MOL0     C11947   7.311   9.947  12.271  0.1197  0.0202 -0.1135
  830MOL0     C11948   7.261  10.048  12.339  0.7990  0.1402 -0.2465
  830MOL0     C11949   7.320  10.092  12.457 -0.1042 -0.5193 -0.1452
  830MOL0     C11950   7.435  10.020  12.509  0.7833  0.1142 -0.4181
  830MOL0     O11951   7.487  10.067  12.628  0.0629  0.3542 -0.5300
  830MOL0     C11952   7.631  10.082  12.652 -0.5070 -1.1069  0.1151
  830MOL0     C11953   7.676  10.142  12.781 -0.4716 -0.5932 -0.9782
  830MOL0     C11954   7.610  10.053  12.900 -0.6232 -0.2657  0.1046
  830MOL0     C11955   7.662  10.074  13.047  1.0771 -0.3647 -0.6130
  830MOL0     C11956   7.784   9.985  13.052  0.5801  0.4243  0.6348
  830MOL0     C11957   7.859  10.001  13.184  0.5029 -0.0991  0.7931
  830MOL0     C11958   7.964   9.883  13.205  0.8960 -0.0996 -0.1963
  830MOL0     C11959   8.075   9.900  13.303  0.7781 -1.0288 -0.1084
  830MOL0    Cl11960   8.214   9.779  13.305 -0.0030 -0.3514  0.0473
  830MOL0     C11961   7.493   9.923  12.429  0.7143  0.1191  0.6915
  830MOL0     C11962   7.424   9.881  12.317 -0.5060  0.7387  0.0150
  830MOL0     O11963   7.379   9.773  12.040  1.0281  0.5310  0.6198
  830MOL0     C11964   7.032   9.799  12.017 -0.4227 -0.4057 -0.2780
  830MOL0     C11965   6.915   9.774  11.946 -0.3867  0.1969  0.0931
  830MOL0     N11966   6.772   9.758  11.304  0.7031  0.2978 -0.6321
  830MOL0     N11967   6.691   9.855  11.280  0.4908 -0.7211 -0.4567
  830MOL0     C11968   7.108  10.234  10.389 -0.0556 -1.1646 -0.9989
  830MOL0     C11969   7.212  10.206  10.307  0.1550 -0.2888 -0.4385
  830MOL0     C11970   7.420   9.981   9.967  0.8401  0.2436  0.0378
  830MOL0     C11971   7.491   9.880  10.026 -0.3974  0.0862  1.1860
  830MOL0     C11972   7.567   9.787   9.943 -0.6623 -0.7287 -0.7311
  830MOL0     C11973   7.583   9.801   9.807  0.3706  0.3351  0.7940
  830MOL0     O11974   7.690   9.736   9.754 -0.5724  0.2939 -0.0127
  830MOL0     C11975   7.694   9.716   9.617  0.8752 -0.1632  0.5068
  830MOL0     C11976   7.818   9.625   9.572  0.0356 -0.1186  0.2932
  830MOL0     C11977   7.848   9.610   9.427 -0.2285 -0.1992 -0.2350
  830MOL0     C11978   7.716   9.585   9.343 -0.4520 -0.3151 -0.5422
  830MOL0     C11979   7.743   9.544   9.207 -0.0920 -0.6283 -1.0443
  830MOL0     C11980   7.748   9.526   9.087 -0.0174 -0.1723 -0.8605
  830MOL0     C11981   7.522   9.907   9.744 -0.1814  0.0100  0.9655
  830MOL0     C11982   7.431   9.991   9.824  0.3936  0.1738 -1.0125
  830MOL0     H11983   7.097   9.923  10.179  3.9189 -0.2912  0.5875
  830MOL0     H11984   6.904   9.977  10.298 -2.3741  1.5357 -2.8166
  830MOL0     H11985   6.787  10.027  10.495 -3.7879  5.4141 -0.0684
  830MOL0     H11986   6.940  10.019  10.598  0.4043 -0.7620 -0.9439
  830MOL0     H11987   6.851  10.153  10.760 -1.4198 -1.2114  1.4915
  830MOL0     H11988   6.732  10.227  10.649 -1.0757 -1.6825 -2.0740
  830MOL0     H11989   6.600  10.015  10.660  0.3803  0.0671 -2.1771
  830MOL0     H11990   6.731   9.938  10.760 -0.7041 -0.0540 -0.7298
  830MOL0     H11991   6.681  10.102  10.942  0.5324  3.8484 -1.0321
  830MOL0     H11992   6.554  10.180  10.841 -1.2199 -0.1005 -2.0652
  830MOL0     H11993   6.448  10.066  10.996  1.5985  4.2153 -2.5753
  830MOL0     H11994   6.418  10.000  10.837 -1.0296 -0.5708  1.1850
  830MOL0     H11995   6.504   9.812  10.879 -0.6411  1.1736 -0.6496
  830MOL0     H11996   6.618   9.860  11.011  1.0838  1.2294 -1.4081
  830MOL0     H11997   6.320   9.878  11.059 -0.9346  0.5995  1.9280
  830MOL0     H11998   6.402   9.723  11.063 -1.9062  0.0790 -0.8908
  830MOL0     H11999   6.375   9.840  11.289 -0.3862 -3.2992 -0.6916
  830MOL0     H12000   6.475   9.975  11.220  0.8142 -0.8408  2.4045
  830MOL0     H12001   6.498   9.595  11.292 -1.2757  0.6833  1.1782
  830MOL0     H12002   6.674   9.452  11.400 -1.1307  1.1301  0.2420
  830MOL0     H12003   6.767   9.463  11.252  0.7435 -3.2711  1.0984
  830MOL0     H12004   6.956   9.582  11.387 -0.5767 -0.7575 -2.7215
  830MOL0     H12005   6.926   9.414  11.421 -0.5971 -0.3565  1.4769
  830MOL0     H12006   6.950   9.521  11.630  1.0629 -3.1069 -0.9917
  830MOL0     H12007   6.789   9.467  11.623  1.3523 -2.3989 -2.6638
  830MOL0     H12008   6.724   9.716  11.552 -0.5313 -1.7691 -0.1331
  830MOL0     H12009   6.901   9.744  11.557  1.1577  0.7955  2.0155
  830MOL0     H12010   7.075   9.703  11.660  0.3108 -2.5050  0.9854
  830MOL0     H12011   7.368   9.826  11.771 -3.0790  1.0161  2.1249
  830MOL0     H12012   7.366   9.665  11.823  0.2084 -1.1642 -1.5732
  830MOL0     H12013   7.302   9.697  11.666  2.2489 -0.2836 -0.7933
  830MOL0     H12014   7.172  10.095  12.298 -0.9708 -1.6505  1.3153
  830MOL0     H12015   7.268  10.175  12.504 -1.4852  0.1911 -2.7383
  830MOL0     H12016   7.692   9.994  12.628 -1.1749 -1.5247 -0.1028
  830MOL0     H12017   7.656  10.151  12.571  1.5103  0.8568  2.2588
  830MOL0     H12018   7.785  10.141  12.792 -0.7175 -1.5806  2.4923
  830MOL0     H12019   7.649  10.248  12.794 -1.1469 -1.1459  3.3118
  830MOL0     H12020   7.629   9.947  12.880  2.7405  0.2360 -0.0342
  830MOL0     H12021   7.504  10.076  12.889 -0.6276  0.0778  0.8161
  830MOL0     H12022   7.692  10.176  13.073 -0.2918  0.5904 -2.4345
  830MOL0     H12023   7.586  10.038  13.117  1.4470  1.7743  0.9999
  830MOL0     H12024   7.851  10.010  12.970  0.1118 -3.6359 -1.2043
  830MOL0     H12025   7.765   9.878  13.036  0.7753  0.6799 -1.5001
  830MOL0     H12026   7.916  10.093  13.200 -1.1275  0.7169  2.2834
  830MOL0     H12027   7.778   9.996  13.257  0.5241  0.2973  0.8451
  830MOL0     H12028   7.999   9.855  13.105  0.1287 -0.7050 -0.3018
  830MOL0     H12029   7.911   9.790  13.226  2.1805 -0.9471 -0.5439
  830MOL0     H12030   8.028   9.888  13.401 -2.1160  3.0124 -0.7690
  830MOL0     H12031   8.106  10.004  13.294 -1.1685 -0.4031 -0.0397
  830MOL0     H12032   7.582   9.874  12.468  1.1328  1.4843  1.5142
  830MOL0     H12033   7.446   9.785  12.271  0.2132  0.3029  1.2157
  830MOL0     H12034   7.012   9.843  12.114 -1.0835 -1.7597  0.2382
  830MOL0     H12035   6.810   9.792  11.970 -0.8498 -0.1319 -1.5546
  830MOL0     H12036   7.094  10.325  10.448  3.8819 -0.3711 -1.0512
  830MOL0     H12037   7.301  10.267  10.301  1.3445 -1.7283  1.5006
  830MOL0     H12038   7.492   9.858  10.132 -1.2737 -0.4572  1.0932
  830MOL0     H12039   7.619   9.707   9.994  0.9552 -0.0670 -1.2922
  830MOL0     H12040   7.608   9.656   9.584  1.8751 -1.4292  0.0947
  830MOL0     H12041   7.706   9.810   9.563  1.6561 -0.7744 -0.4144
  830MOL0     H12042   7.824   9.525   9.617  1.1513 -0.4211 -0.4772
  830MOL0     H12043   7.903   9.682   9.610 -0.3982 -1.4344  3.5259
  830MOL0     H12044   7.915   9.526   9.410 -1.8718 -1.7766  0.7356
  830MOL0     H12045   7.894   9.704   9.394  1.8555 -0.9300  0.4013
  830MOL0     H12046   7.659   9.678   9.331 -1.3706 -0.5401  1.6117
  830MOL0     H12047   7.641   9.516   9.381 -0.4221 -1.6705 -2.7504
  830MOL0     H12048   7.738   9.499   8.983 -0.6651 -3.0420 -0.1337
  830MOL0     H12049   7.524   9.911   9.636  1.9388 -2.1355  0.8343
  830MOL0     H12050   7.377  10.069   9.770 -0.5640  0.0079 -0.3205
  831MOL0     O12051   9.963   5.759   6.301  0.1552 -0.1058  0.5592
  831MOL0     C12052   9.988   5.641   6.272  0.7950 -1.0110  0.2811
  831MOL0     O12053   9.988   5.539   6.355  0.5279 -0.1612 -0.1798
  831MOL0     C12054   9.982   5.559   6.495 -0.5136 -0.4930  0.2123
  831MOL0     C12055  10.059   5.657   6.570 -0.9937 -0.4982 -0.3124
  831MOL0     C12056  10.046   5.672   6.710  0.5055  0.5607 -0.5680
  831MOL0     C12057   9.957   5.591   6.783 -0.3152  0.0535 -1.0949
  831MOL0     O12058   9.954   5.608   6.915 -0.8507 -0.9010 -0.3497
  831MOL0     C12059   9.857   5.535   6.995 -0.4598 -0.1970  0.6566
  831MOL0     C12060   9.915   5.399   7.041  0.5627 -1.0577  0.4903
  831MOL0     C12061  10.059   5.406   7.098  0.4681  0.0507  0.3407
  831MOL0     C12062  10.095   5.262   7.130 -0.5443 -0.1738 -0.9488
  831MOL0     C12063  10.241   5.238   7.120  0.9714  0.5402  0.2906
  831MOL0     C12064  10.289   5.101   7.182 -1.2600 -0.6426 -0.0307
  831MOL0     C12065  10.428   5.056   7.145  0.4060 -0.1667 -0.4526
  831MOL0     C12066  10.454   4.905   7.152  0.3819  0.0452 -0.3734
  831MOL0     N12067  10.420   4.855   7.284 -0.0035 -0.3169 -0.8888
  831MOL0     C12068  10.495   4.882   7.395  0.1964 -0.0883  0.5359
  831MOL0     C12069  10.419   4.834   7.496 -0.3799  0.1964 -0.5483
  831MOL0     C12070  10.471   4.837   7.642 -1.0416  0.6935  0.6516
  831MOL0     C12071  10.545   4.969   7.681  0.3017  0.3059 -0.4263
  831MOL0     C12072  10.470   5.098   7.641 -0.2717  0.1182  0.4379
  831MOL0     C12073  10.541   5.233   7.695  0.5503 -0.2700 -0.2542
  831MOL0     O12074  10.482   5.347   7.643 -0.0709 -0.4409  0.0927
  831MOL0     C12075  10.476   5.379   7.509  0.1792 -0.3500  0.0355
  831MOL0     C12076  10.395   5.485   7.466  1.0362  0.0104 -1.1352
  831MOL0     C12077  10.397   5.542   7.339  0.3826 -0.9354 -0.7694
  831MOL0     C12078  10.294   5.646   7.308 -0.0088  0.0166  0.4968
  831MOL0     C12079  10.486   5.483   7.244  0.7235 -0.0766  0.4622
  831MOL0     C12080  10.506   5.530   7.094 -0.2423 -0.4542  0.7399
  831MOL0     O12081  10.584   5.466   7.005  0.0569 -0.7380  0.4424
  831MOL0     C12082  10.539   5.469   6.873  0.5683 -0.5767  1.0226
  831MOL0     C12083  10.640   5.456   6.768  0.4683 -0.1304  0.2617
  831MOL0     C12084  10.606   5.458   6.632 -0.7481 -1.0781  0.6655
  831MOL0     C12085  10.471   5.461   6.595 -0.9753  0.3748 -1.2585
  831MOL0     O12086  10.445   5.442   6.462  0.1207  0.7230 -0.2633
  831MOL0     C12087  10.377   5.547   6.390 -0.2979  0.2587 -0.1553
  831MOL0     C12088  10.380   5.529   6.236  0.0232  0.1364 -0.0015
  831MOL0     C12089  10.530   5.518   6.197 -0.1264  0.2032 -0.7028
  831MOL0     C12090  10.566   5.524   6.051  0.2162  1.1685 -0.5331
  831MOL0     C12091  10.514   5.398   5.982  1.0211 -0.8453  0.6739
  831MOL0     C12092  10.513   5.394   5.826 -0.0322 -0.6679 -0.3827
  831MOL0     C12093  10.657   5.348   5.781  0.3031 -0.2385 -0.2045
  831MOL0     C12094  10.691   5.417   5.655  0.4191  1.0380 -0.1541
  831MOL0    Cl12095  10.719   5.591   5.685 -0.0301  0.3427  0.5536
  831MOL0     C12096  10.371   5.482   6.697  0.6906 -0.0630  0.7145
  831MOL0     C12097  10.403   5.483   6.836  0.9134 -0.0596  0.3360
  831MOL0     O12098  10.452   5.636   7.071 -0.0902  0.5215  0.0540
  831MOL0     C12099  10.569   5.369   7.284  0.4421 -0.1631  0.4786
  831MOL0     C12100  10.575   5.335   7.425 -0.6641  0.5324 -0.0086
  831MOL0     N12101  10.305   4.778   7.455 -0.4058 -0.3704 -0.1126
  831MOL0     N12102  10.299   4.811   7.328  0.7540 -1.0208  0.7967
  831MOL0     C12103   9.899   5.485   6.716 -0.6084  0.0061  0.1793
  831MOL0     C12104   9.906   5.471   6.579 -0.2804 -0.0536 -0.3297
  831MOL0     C12105   9.992   5.616   6.125  0.9030  0.5294 -0.1402
  831MOL0     C12106  10.094   5.663   6.035  0.5891  1.0119 -0.1109
  831MOL0     C12107  10.077   5.644   5.895 -1.1084 -0.3575  0.0683
  831MOL0     C12108   9.978   5.564   5.840  0.2578 -1.1148 -0.6262
  831MOL0     O12109   9.977   5.518   5.718 -0.3468  0.3703  0.0979
  831MOL0     C12110   9.860   5.546   5.638  0.6657  0.5759 -0.7666
  831MOL0     C12111   9.904   5.550   5.490 -0.2832 -0.1282  0.5127
  831MOL0     C12112   9.816   5.642   5.401 -0.2371  0.1037 -0.4269
  831MOL0     C12113   9.844   5.639   5.250  0.6795 -0.0873  0.4907
  831MOL0     C12114   9.936   5.746   5.211  0.6359  0.0967  0.8047
  831MOL0     C12115  10.000   5.846   5.187  0.9804 -0.0133  0.7345
  831MOL0     C12116   9.879   5.529   5.931 -0.5314  0.8644 -0.6971
  831MOL0     C12117   9.881   5.548   6.071 -0.5306 -0.0252  0.3491
  831MOL0     H12118  10.138   5.720   6.529  0.8478  0.3811  4.0446
  831MOL0     H12119  10.106   5.744   6.764  0.0791  2.4181 -2.4471
  831MOL0     H12120   9.837   5.596   7.083 -1.6985  0.6012 -0.1432
  831MOL0     H12121   9.760   5.547   6.945  1.2168  0.9006 -2.6433
  831MOL0     H12122   9.846   5.358   7.116 -2.0233 -0.2122 -1.2848
  831MOL0     H12123   9.904   5.329   6.958 -1.3669  0.5677 -0.7019
  831MOL0     H12124  10.128   5.454   7.027  1.0510  0.9183  1.4684
  831MOL0     H12125  10.060   5.469   7.187 -0.7941  2.3375 -1.1569
  831MOL0     H12126  10.039   5.232   7.219 -3.9040  3.0992 -1.6906
  831MOL0     H12127  10.054   5.188   7.060  2.2616 -1.3301 -1.4685
  831MOL0     H12128  10.273   5.245   7.015  2.6995  1.4262  0.8330
  831MOL0     H12129  10.301   5.319   7.162  1.7690  1.9792 -3.2796
  831MOL0     H12130  10.276   5.091   7.291 -0.9213  2.4994  0.3788
  831MOL0     H12131  10.211   5.033   7.146 -0.4903 -1.7862  0.4052
  831MOL0     H12132  10.450   5.088   7.042  0.2334 -0.1403 -0.4805
  831MOL0     H12133  10.509   5.105   7.199 -0.5503  2.5107 -1.3014
  831MOL0     H12134  10.562   4.904   7.135  0.3815 -1.7388 -0.4336
  831MOL0     H12135  10.400   4.848   7.076  0.9963 -2.0174  0.6567
  831MOL0     H12136  10.590   4.934   7.389  1.9657 -2.5641  3.6355
  831MOL0     H12137  10.386   4.821   7.709 -1.9715  0.9908 -0.4138
  831MOL0     H12138  10.545   4.758   7.659  0.9116  1.9787 -1.2669
  831MOL0     H12139  10.650   4.974   7.652  0.9546 -0.5125  1.6028
  831MOL0     H12140  10.546   4.967   7.790  0.2652 -0.6111 -0.4326
  831MOL0     H12141  10.368   5.092   7.682 -0.1597  1.7028  1.0082
  831MOL0     H12142  10.471   5.094   7.531 -1.4816  0.3534  0.3964
  831MOL0     H12143  10.648   5.225   7.677  0.7908  1.2476  0.3791
  831MOL0     H12144  10.524   5.241   7.803 -0.6391  0.2875 -0.4663
  831MOL0     H12145  10.343   5.549   7.536 -1.4180 -0.7674 -2.1373
  831MOL0     H12146  10.348   5.739   7.291  0.8270 -0.3055  1.3091
  831MOL0     H12147  10.228   5.623   7.224  0.9129 -2.6587  0.3999
  831MOL0     H12148  10.227   5.672   7.390 -0.9088  2.6080 -0.9436
  831MOL0     H12149  10.746   5.450   6.791  0.1518 -0.6319  1.6313
  831MOL0     H12150  10.671   5.421   6.554 -1.3868 -2.0843  0.5899
  831MOL0     H12151  10.272   5.561   6.421  0.7851  2.4496  3.0835
  831MOL0     H12152  10.417   5.647   6.407 -2.1261  0.6648  2.3424
  831MOL0     H12153  10.321   5.439   6.214 -0.0253 -0.5057  2.4168
  831MOL0     H12154  10.342   5.619   6.186 -0.1311  0.6464  1.0062
  831MOL0     H12155  10.578   5.428   6.237  0.2878 -0.0871 -1.8306
  831MOL0     H12156  10.580   5.598   6.253 -2.7564  0.2956  1.7314
  831MOL0     H12157  10.515   5.612   6.009 -0.1318 -0.0852 -2.9208
  831MOL0     H12158  10.675   5.535   6.046  0.6362 -1.0358  1.8102
  831MOL0     H12159  10.407   5.403   6.006  1.2459  2.6188  1.4739
  831MOL0     H12160  10.560   5.305   6.017  1.5901 -1.2291 -0.9637
  831MOL0     H12161  10.442   5.328   5.775 -0.5073 -0.1914 -0.3454
  831MOL0     H12162  10.488   5.495   5.793 -0.8619 -1.0585 -0.9836
  831MOL0     H12163  10.664   5.239   5.776  3.7005 -0.3805  2.9859
  831MOL0     H12164  10.723   5.393   5.856 -1.6215  1.8496  0.3536
  831MOL0     H12165  10.615   5.396   5.579 -2.5363 -2.0921  3.2535
  831MOL0     H12166  10.788   5.389   5.612 -0.5065 -3.2372  0.1247
  831MOL0     H12167  10.266   5.488   6.670 -0.5890 -3.3555  4.0276
  831MOL0     H12168  10.316   5.484   6.902  1.0883 -3.5795  0.8152
  831MOL0     H12169  10.614   5.308   7.206 -1.4261 -1.6947  0.5369
  831MOL0     H12170  10.650   5.264   7.460 -0.2793  1.9920  2.3618
  831MOL0     H12171   9.829   5.425   6.773 -2.2787  0.9996 -0.7524
  831MOL0     H12172   9.837   5.401   6.534 -0.1904  1.3748 -2.8639
  831MOL0     H12173  10.164   5.737   6.074  2.2289 -0.5308  0.0203
  831MOL0     H12174  10.157   5.672   5.827  1.7711 -0.1239  3.2714
  831MOL0     H12175   9.790   5.462   5.640  0.0517  1.0887  1.2135
  831MOL0     H12176   9.809   5.638   5.669 -2.3655 -0.0910 -3.2475
  831MOL0     H12177   9.910   5.445   5.459  1.3004  0.6762 -2.2740
  831MOL0     H12178  10.007   5.584   5.488 -0.0357 -0.8494 -1.7894
  831MOL0     H12179   9.826   5.744   5.437 -0.9255 -0.0461  0.1940
  831MOL0     H12180   9.710   5.621   5.417  0.0269 -0.4841  0.5989
  831MOL0     H12181   9.751   5.636   5.193  0.7890 -1.0938  0.3436
  831MOL0     H12182   9.896   5.545   5.229  3.1742  0.7081  2.6578
  831MOL0     H12183  10.071   5.926   5.177  1.9047 -0.9247 -0.2019
  831MOL0     H12184   9.783   5.491   5.898 -1.2771  0.5269  1.7273
  831MOL0     H12185   9.786   5.519   6.116 -0.1613 -4.1602 -1.1848
  832MOL0     O12186   6.471   8.601   7.857 -0.1451  0.2312 -0.6494
  832MOL0     C12187   6.453   8.667   7.956 -0.4744  1.2598 -0.3611
  832MOL0     O12188   6.391   8.788   7.964  0.4447  1.1764 -0.0680
  832MOL0     C12189   6.342   8.851   7.844  0.9078 -0.2830 -0.2735
  832MOL0     C12190   6.373   8.990   7.834  0.1329 -0.4417  0.3598
  832MOL0     C12191   6.347   9.064   7.713  0.1557  0.2614 -0.3290
  832MOL0     C12192   6.271   8.995   7.614 -0.0604 -1.4272 -0.4294
  832MOL0     O12193   6.223   9.062   7.508  0.2706 -0.7190 -0.6751
  832MOL0     C12194   6.098   9.134   7.535  0.4132  0.4197  1.0085
  832MOL0     C12195   6.046   9.165   7.395 -0.2215 -0.3719 -0.1507
  832MOL0     C12196   5.993   9.049   7.311  0.1291  0.0755  0.2141
  832MOL0     C12197   5.986   9.097   7.173  0.4786  0.3077  1.1154
  832MOL0     C12198   5.905   8.995   7.090 -0.1122  0.6413  0.5943
  832MOL0     C12199   5.749   9.005   7.111  0.4871  0.0552  0.4428
  832MOL0     C12200   5.666   8.971   6.993  0.6209 -0.1533  0.2585
  832MOL0     C12201   5.670   9.079   6.890 -0.8311 -0.9999  0.3662
  832MOL0     N12202   5.635   9.218   6.920  0.3653 -0.1284 -0.3017
  832MOL0     C12203   5.514   9.266   6.894 -0.2636 -0.7580 -0.3083
  832MOL0     C12204   5.535   9.393   6.846  0.1283  0.8830 -0.9484
  832MOL0     C12205   5.423   9.497   6.820  0.7983 -0.1443  0.4893
  832MOL0     C12206   5.389   9.541   6.948 -0.8670 -0.0326  0.9054
  832MOL0     C12207   5.259   9.625   6.953 -0.4331 -0.3108  0.0413
  832MOL0     C12208   5.223   9.699   6.821 -0.6050  0.9040  0.1130
  832MOL0     O12209   5.105   9.782   6.839  0.2344  0.8092 -0.1098
  832MOL0     C12210   5.127   9.894   6.903 -0.5539 -0.4858  0.2152
  832MOL0     C12211   5.211   9.997   6.852  0.9683  1.0430  0.5923
  832MOL0     C12212   5.250  10.114   6.923 -0.6492  0.4705  1.1088
  832MOL0     C12213   5.337  10.221   6.854  0.7777  0.1335 -0.0466
  832MOL0     C12214   5.202  10.122   7.054 -0.8132  0.1391 -0.9489
  832MOL0     C12215   5.233  10.230   7.147 -0.0101  0.1210  0.3664
  832MOL0     O12216   5.313  10.212   7.259 -0.1167 -0.8586  0.1036
  832MOL0     C12217   5.298  10.296   7.363  0.4618 -0.3006 -0.2737
  832MOL0     C12218   5.186  10.298   7.436  0.2371 -0.5495 -0.7200
  832MOL0     C12219   5.174  10.382   7.542 -0.3160 -0.8997  0.0441
  832MOL0     C12220   5.268  10.480   7.579  0.1112  0.0133 -0.1839
  832MOL0     O12221   5.250  10.584   7.664  0.1353  0.4459  0.2465
  832MOL0     C12222   5.133  10.605   7.739 -0.1842 -0.0932  0.1289
  832MOL0     C12223   5.151  10.721   7.841 -0.2669  0.3701 -0.0037
  832MOL0     C12224   5.022  10.779   7.901  0.9034  0.2174  0.4613
  832MOL0     C12225   5.051  10.814   8.050  0.0420  0.3254  0.7003
  832MOL0     C12226   4.926  10.881   8.114 -1.0323 -0.5765 -0.2767
  832MOL0     C12227   4.904  11.026   8.067 -0.0032  0.4828  0.8283
  832MOL0     C12228   5.021  11.111   8.118  0.2378  0.4937  0.8472
  832MOL0     C12229   4.965  11.243   8.181  0.5091 -0.1498  0.4818
  832MOL0    Cl12230   5.099  11.344   8.221 -0.0239 -0.1577 -0.3972
  832MOL0     C12231   5.383  10.480   7.505 -0.3155 -0.1840 -0.1704
  832MOL0     C12232   5.405  10.383   7.400 -0.7159  0.2897 -0.2115
  832MOL0     O12233   5.184  10.335   7.109  0.1141 -0.3122 -0.0598
  832MOL0     C12234   5.117  10.025   7.106 -0.5368 -0.0581  0.1168
  832MOL0     C12235   5.083   9.907   7.035 -0.3858 -0.3259 -0.9975
  832MOL0     N12236   5.661   9.431   6.860 -1.1408  0.8735 -0.0848
  832MOL0     N12237   5.725   9.328   6.911  0.6445  0.4643  0.4330
  832MOL0     C12238   6.232   8.869   7.627  0.4261  0.8557  0.3449
  832MOL0     C12239   6.268   8.796   7.738 -0.1064  0.0462  0.0712
  832MOL0     C12240   6.515   8.626   8.084  0.8973 -0.7653  0.4973
  832MOL0     C12241   6.620   8.536   8.079  1.1841  0.8384 -0.4552
  832MOL0     C12242   6.667   8.476   8.205  0.2320 -0.7921  0.4128
  832MOL0     C12243   6.626   8.529   8.326  0.8602 -0.3205 -0.8401
  832MOL0     O12244   6.666   8.470   8.443 -1.0566 -0.0406 -0.4242
  832MOL0     C12245   6.652   8.526   8.566 -0.9051 -0.2649 -1.5498
  832MOL0     C12246   6.739   8.645   8.592 -0.4741 -0.3889 -0.0764
  832MOL0     C12247   6.722   8.722   8.731 -1.3347 -0.3435 -0.6624
  832MOL0     C12248   6.746   8.869   8.700  0.0271  0.4037  0.2860
  832MOL0     C12249   6.893   8.905   8.698  0.6265  0.5903 -0.1692
  832MOL0     C12250   7.018   8.908   8.682 -0.2136 -0.0862  0.5085
  832MOL0     C12251   6.524   8.629   8.329  0.7113 -1.0104 -0.1725
  832MOL0     C12252   6.469   8.682   8.214 -0.0225 -0.0870  0.6947
  832MOL0     H12253   6.427   9.040   7.914  3.2168 -4.0830  0.8530
  832MOL0     H12254   6.373   9.169   7.706  3.0679 -0.0732  2.8817
  832MOL0     H12255   6.019   9.071   7.577 -0.3827  0.2106 -0.7061
  832MOL0     H12256   6.107   9.227   7.591 -1.8163  1.4037 -0.1358
  832MOL0     H12257   5.965   9.238   7.406  0.8308  0.9783 -1.0021
  832MOL0     H12258   6.125   9.218   7.340 -1.5546  3.2078  1.0915
  832MOL0     H12259   6.061   8.963   7.314  1.1618  0.8603 -0.2583
  832MOL0     H12260   5.892   9.020   7.341 -0.8740 -0.2462 -3.0642
  832MOL0     H12261   5.934   9.192   7.157  1.5623  0.9479  1.3500
  832MOL0     H12262   6.086   9.110   7.133 -0.0761 -0.1973 -0.5245
  832MOL0     H12263   5.933   9.022   6.988  2.9911 -0.7599  0.9523
  832MOL0     H12264   5.940   8.893   7.111 -2.8457 -0.2291  1.3043
  832MOL0     H12265   5.732   8.932   7.190 -3.3922  1.6700  1.3394
  832MOL0     H12266   5.731   9.107   7.146 -1.0713 -0.1495  0.3213
  832MOL0     H12267   5.704   8.875   6.957  5.6471  0.4357  3.0576
  832MOL0     H12268   5.565   8.958   7.034  1.2302 -2.2722  1.2294
  832MOL0     H12269   5.599   9.038   6.818 -3.2205 -0.5123  2.3031
  832MOL0     H12270   5.769   9.081   6.842 -1.8171 -2.7749 -1.9447
  832MOL0     H12271   5.416   9.220   6.905 -0.8342  0.0038 -1.8679
  832MOL0     H12272   5.459   9.585   6.767 -3.6208  1.4270 -0.3241
  832MOL0     H12273   5.346   9.448   6.759 -1.2034  2.1047  1.0677
  832MOL0     H12274   5.470   9.609   6.976 -2.9503  3.4705 -0.8102
  832MOL0     H12275   5.397   9.466   7.027  0.5310  2.4458  3.3166
  832MOL0     H12276   5.285   9.709   7.017  0.4736  1.1519 -2.1405
  832MOL0     H12277   5.171   9.568   6.987 -1.9070 -0.1570 -3.1306
  832MOL0     H12278   5.193   9.633   6.739  0.6210 -0.4544  0.7129
  832MOL0     H12279   5.310   9.756   6.788 -0.0100  2.3384  3.6692
  832MOL0     H12280   5.242   9.994   6.748  0.5533 -0.4541  0.4833
  832MOL0     H12281   5.347  10.197   6.748  1.8728  1.7200 -0.3348
  832MOL0     H12282   5.292  10.321   6.854  2.3246  0.8746 -1.4721
  832MOL0     H12283   5.433  10.212   6.905  1.3780 -1.9674 -1.4113
  832MOL0     H12284   5.097  10.237   7.420 -1.2098  1.0686  0.6670
  832MOL0     H12285   5.083  10.380   7.602  0.4775  1.0993  1.4273
  832MOL0     H12286   5.037  10.609   7.687 -0.9562 -5.6440  0.5072
  832MOL0     H12287   5.119  10.511   7.792  1.0057 -1.9685 -2.6553
  832MOL0     H12288   5.202  10.673   7.926  0.3175  1.4364  0.2580
  832MOL0     H12289   5.226  10.790   7.801  3.2211 -2.9623  0.1144
  832MOL0     H12290   4.938  10.710   7.893 -0.4000  1.6403  1.1971
  832MOL0     H12291   4.987  10.864   7.841  0.4490 -0.8665 -0.8635
  832MOL0     H12292   5.067  10.723   8.109 -1.4022  1.8273  3.6536
  832MOL0     H12293   5.133  10.887   8.046  0.0335  0.2980 -0.2878
  832MOL0     H12294   4.938  10.879   8.223  1.0598 -1.7293 -0.4746
  832MOL0     H12295   4.838  10.822   8.087  1.0757 -2.7815 -2.8797
  832MOL0     H12296   4.896  11.035   7.959  0.3748  0.8850  0.8305
  832MOL0     H12297   4.806  11.049   8.111 -0.8460 -0.1071 -0.6616
  832MOL0     H12298   5.095  11.132   8.040 -1.6888  0.4070 -1.0915
  832MOL0     H12299   5.074  11.061   8.199 -1.1202 -2.0355  0.2760
  832MOL0     H12300   4.903  11.228   8.270 -0.1517  1.1850  0.2750
  832MOL0     H12301   4.904  11.305   8.114  4.0181  0.2842 -2.6574
  832MOL0     H12302   5.471  10.537   7.532 -0.2729 -1.1413  1.9594
  832MOL0     H12303   5.500  10.345   7.363 -3.0197 -3.4462 -3.0120
  832MOL0     H12304   5.073  10.034   7.205 -1.9325 -0.6292 -0.4257
  832MOL0     H12305   5.020   9.832   7.081 -2.4365  2.0992  0.4351
  832MOL0     H12306   6.168   8.816   7.557  1.8262 -1.4995  0.7242
  832MOL0     H12307   6.240   8.692   7.749 -1.1363 -0.2124 -3.7580
  832MOL0     H12308   6.655   8.515   7.979 -1.3076  1.6430 -1.5680
  832MOL0     H12309   6.736   8.394   8.224 -0.7071 -1.1068  2.8130
  832MOL0     H12310   6.549   8.557   8.584 -0.5213  1.6838 -2.4924
  832MOL0     H12311   6.676   8.458   8.648 -1.5210  2.5673  1.1506
  832MOL0     H12312   6.711   8.722   8.519 -0.5741  3.2522  3.4291
  832MOL0     H12313   6.838   8.601   8.586 -1.3486 -2.5228  0.1822
  832MOL0     H12314   6.789   8.682   8.808 -1.8430  1.3924  0.7464
  832MOL0     H12315   6.626   8.694   8.775 -2.1114  1.2716 -1.2366
  832MOL0     H12316   6.701   8.934   8.775  0.2128  0.9398 -0.0613
  832MOL0     H12317   6.689   8.907   8.615  0.0273  2.1604  1.0215
  832MOL0     H12318   7.124   8.919   8.690 -0.0335 -0.5175 -0.9019
  832MOL0     H12319   6.496   8.680   8.420  0.2064  0.9409 -1.3511
  832MOL0     H12320   6.399   8.765   8.209 -0.0970  0.0299  2.9488
  833MOL0     O12321   9.782   4.723   6.832  0.2117  0.0537  0.2603
  833MOL0     C12322   9.695   4.754   6.752 -0.1809 -0.2797  0.2968
  833MOL0     O12323   9.578   4.811   6.785  0.0737 -0.0235 -0.6618
  833MOL0     C12324   9.518   4.822   6.911  0.3524  0.1446  0.5358
  833MOL0     C12325   9.536   4.746   7.029 -0.6625  0.0811 -0.2459
  833MOL0     C12326   9.463   4.767   7.142  0.2569  0.0241 -0.2269
  833MOL0     C12327   9.362   4.865   7.142  0.5085  0.3430 -0.4263
  833MOL0     O12328   9.291   4.897   7.252  0.3038  0.2161  0.3508
  833MOL0     C12329   9.257   4.788   7.340  0.7194  1.2734  0.6391
  833MOL0     C12330   9.133   4.811   7.419  1.0065  0.2016  0.4477
  833MOL0     C12331   9.019   4.870   7.344  0.3619  0.1877  0.1736
  833MOL0     C12332   8.982   4.799   7.216  1.0198  0.5392 -0.6056
  833MOL0     C12333   8.836   4.838   7.179  0.5855  0.0907  0.4125
  833MOL0     C12334   8.789   4.788   7.037  0.7967  0.6354  0.3069
  833MOL0     C12335   8.645   4.841   7.004 -0.2430  0.1289 -0.4874
  833MOL0     C12336   8.598   4.798   6.861 -0.2663  0.4173 -0.0473
  833MOL0     N12337   8.683   4.868   6.757 -0.1587  0.2551  0.8757
  833MOL0     C12338   8.674   4.998   6.703  0.5924  0.4918 -1.0091
  833MOL0     C12339   8.742   4.987   6.585 -0.8564  0.2636 -0.2400
  833MOL0     C12340   8.765   5.093   6.487  0.2101  0.3867  0.8357
  833MOL0     C12341   8.632   5.163   6.462  0.1103 -0.0078  0.1808
  833MOL0     C12342   8.520   5.063   6.406 -0.0327  0.3359  0.5243
  833MOL0     C12343   8.386   5.137   6.386  0.0785  0.4697 -0.4414
  833MOL0     O12344   8.405   5.233   6.275  0.2443  0.0407  0.2542
  833MOL0     C12345   8.312   5.329   6.249  1.1033 -0.0421 -0.3328
  833MOL0     C12346   8.183   5.334   6.306 -0.0252 -0.6509  0.1084
  833MOL0     C12347   8.098   5.440   6.270 -0.2690  0.5629 -0.0443
  833MOL0     C12348   7.953   5.418   6.309  0.0947  0.0352  0.1169
  833MOL0     C12349   8.142   5.548   6.190 -0.2468 -0.6123 -0.6307
  833MOL0     C12350   8.049   5.637   6.147 -0.5298 -0.3290  0.7757
  833MOL0     O12351   7.944   5.593   6.071 -0.7513 -0.3195 -0.1716
  833MOL0     C12352   7.851   5.680   6.034  0.2524 -0.1596  0.0737
  833MOL0     C12353   7.884   5.786   5.950 -0.3875 -0.1733 -0.0833
  833MOL0     C12354   7.797   5.882   5.907  0.4328  0.1659 -0.4529
  833MOL0     C12355   7.657   5.870   5.941 -0.6258  0.2428 -0.5322
  833MOL0     O12356   7.568   5.975   5.904 -0.3085 -0.0135 -0.3513
  833MOL0     C12357   7.434   5.973   5.963 -0.3683  0.0657  0.4049
  833MOL0     C12358   7.360   6.106   5.942 -0.8169  0.7716 -0.6362
  833MOL0     C12359   7.335   6.130   5.794  0.3304 -1.1410  0.1338
  833MOL0     C12360   7.244   6.256   5.770  0.6107 -0.2856 -0.3158
  833MOL0     C12361   7.181   6.271   5.631  0.8309 -0.0934  0.8414
  833MOL0     C12362   7.117   6.418   5.612 -0.4632 -0.9476  1.1046
  833MOL0     C12363   7.073   6.447   5.468  0.6308 -0.2368  0.1143
  833MOL0     C12364   7.190   6.514   5.388  0.7329  1.2157 -0.6215
  833MOL0    Cl12365   7.161   6.502   5.208 -0.3276  0.1165  0.1375
  833MOL0     C12366   7.619   5.756   6.015  1.0465  0.3069  0.1245
  833MOL0     C12367   7.712   5.667   6.074 -0.0304  0.7515  0.4503
  833MOL0     O12368   8.080   5.760   6.167  0.0587 -0.3301 -0.2675
  833MOL0     C12369   8.272   5.547   6.132  0.7054 -0.9068 -0.4033
  833MOL0     C12370   8.355   5.433   6.165  0.4572  0.2364  0.6686
  833MOL0     N12371   8.781   4.855   6.574  0.1696 -0.0004  0.5230
  833MOL0     N12372   8.763   4.793   6.682  1.0088  0.2833 -0.6971
  833MOL0     C12373   9.348   4.955   7.034 -0.0494  0.5032  0.2305
  833MOL0     C12374   9.421   4.923   6.918 -0.5751  0.0996  0.1283
  833MOL0     C12375   9.727   4.751   6.606  0.0544 -0.9009  0.9074
  833MOL0     C12376   9.623   4.747   6.507 -1.2607 -0.4948 -0.2759
  833MOL0     C12377   9.650   4.740   6.365  0.3515  0.4104 -0.9274
  833MOL0     C12378   9.773   4.736   6.327 -0.2279  0.0526  0.0556
  833MOL0     O12379   9.789   4.738   6.196 -0.6879  0.3421  0.0929
  833MOL0     C12380   9.896   4.655   6.147  0.5340 -0.5730  0.6432
  833MOL0     C12381   9.910   4.652   5.990  0.4511  0.6026 -0.8515
  833MOL0     C12382   9.886   4.783   5.908 -0.0694 -0.2804 -0.3988
  833MOL0     C12383   9.925   4.785   5.759  0.9118  0.3923  0.0747
  833MOL0     C12384   9.828   4.684   5.695  0.4157  0.3874 -1.0820
  833MOL0     C12385   9.757   4.602   5.631 -0.3701  0.7110  0.3113
  833MOL0     C12386   9.884   4.738   6.421 -0.3125  0.0821 -0.1035
  833MOL0     C12387   9.865   4.754   6.561  0.5508  0.4604  0.1263
  833MOL0     H12388   9.617   4.673   7.028 -0.4424  0.2145 -3.2084
  833MOL0     H12389   9.485   4.714   7.235  1.4132 -1.3138 -1.2207
  833MOL0     H12390   9.241   4.693   7.288  0.2904  1.2792  0.7596
  833MOL0     H12391   9.337   4.767   7.412  1.3633 -0.2123 -0.4536
  833MOL0     H12392   9.095   4.720   7.467  2.5201 -1.3452 -1.1106
  833MOL0     H12393   9.166   4.873   7.504 -0.1034  2.6277 -0.8063
  833MOL0     H12394   8.932   4.880   7.409 -0.3615  0.6728 -0.8553
  833MOL0     H12395   9.052   4.972   7.322  1.1915 -0.2783 -0.8648
  833MOL0     H12396   9.042   4.835   7.132 -0.3790  0.2612 -1.7539
  833MOL0     H12397   8.984   4.690   7.223  1.0172  0.4948 -1.2513
  833MOL0     H12398   8.770   4.800   7.258  1.1156 -0.1616  0.7383
  833MOL0     H12399   8.830   4.947   7.174 -2.0430  0.0214  0.4525
  833MOL0     H12400   8.850   4.814   6.950 -0.3085 -0.7448 -0.9325
  833MOL0     H12401   8.786   4.679   7.038 -0.8543  0.6596  1.7514
  833MOL0     H12402   8.577   4.792   7.075  0.9584 -2.0299 -0.7325
  833MOL0     H12403   8.650   4.948   7.025  5.9997 -0.1588  1.6643
  833MOL0     H12404   8.491   4.813   6.844 -0.4775 -1.9998 -1.2818
  833MOL0     H12405   8.629   4.693   6.853  2.3726  1.2601 -4.6161
  833MOL0     H12406   8.634   5.091   6.741 -1.3815 -0.3454 -0.9256
  833MOL0     H12407   8.837   5.162   6.533  1.7863  0.3658 -1.4027
  833MOL0     H12408   8.821   5.065   6.397 -0.4381 -1.8140  1.0769
  833MOL0     H12409   8.626   5.240   6.385 -4.5370  1.1097  1.3740
  833MOL0     H12410   8.588   5.218   6.546 -4.4070 -0.3131 -1.6892
  833MOL0     H12411   8.509   4.974   6.469 -2.0868  2.3407  3.2580
  833MOL0     H12412   8.559   5.029   6.310  0.7458  1.0722  0.5700
  833MOL0     H12413   8.370   5.186   6.483  0.6524  0.0207 -0.1167
  833MOL0     H12414   8.303   5.066   6.381 -0.0137  0.1962  2.8577
  833MOL0     H12415   8.155   5.260   6.381  0.0907 -0.9650 -0.1567
  833MOL0     H12416   7.887   5.503   6.290  1.5799  0.8562 -1.6753
  833MOL0     H12417   7.904   5.344   6.245 -1.9787  0.6017  0.9784
  833MOL0     H12418   7.949   5.370   6.407  0.2839 -2.8099 -1.1505
  833MOL0     H12419   7.985   5.792   5.910 -1.6710 -1.9697 -4.0922
  833MOL0     H12420   7.833   5.964   5.846 -0.3571 -0.0124 -1.1743
  833MOL0     H12421   7.366   5.892   5.934 -0.5667  0.4765 -0.3031
  833MOL0     H12422   7.447   5.957   6.071 -0.0553  0.8665  0.4928
  833MOL0     H12423   7.264   6.096   5.993 -0.0240 -2.3886  0.4667
  833MOL0     H12424   7.424   6.187   5.977 -0.6099  0.9038 -1.2999
  833MOL0     H12425   7.281   6.045   5.751 -0.6984  0.7082 -2.5100
  833MOL0     H12426   7.434   6.132   5.747  0.5594 -1.5001  0.5953
  833MOL0     H12427   7.151   6.248   5.829  1.5125 -3.2879  0.8820
  833MOL0     H12428   7.275   6.352   5.811 -2.7686 -0.1858  2.5993
  833MOL0     H12429   7.105   6.199   5.598  0.7017 -0.7089  2.4206
  833MOL0     H12430   7.259   6.253   5.555  0.1250 -1.0196  0.3192
  833MOL0     H12431   7.027   6.450   5.666 -1.5243 -2.7644  0.4592
  833MOL0     H12432   7.201   6.487   5.627 -0.9598  0.3593 -1.5313
  833MOL0     H12433   6.974   6.492   5.456 -0.1522 -1.8741  0.1038
  833MOL0     H12434   7.064   6.344   5.433  0.2169 -0.8128  1.8234
  833MOL0     H12435   7.286   6.471   5.418 -0.0877 -0.5619 -0.4254
  833MOL0     H12436   7.189   6.620   5.416 -2.3820  0.8135  1.2346
  833MOL0     H12437   7.516   5.736   6.041  1.0327  0.4126  0.1487
  833MOL0     H12438   7.674   5.583   6.130 -1.9217 -0.1458 -1.9892
  833MOL0     H12439   8.297   5.625   6.061 -2.5060 -0.3263 -1.0598
  833MOL0     H12440   8.452   5.428   6.118 -1.2259 -1.6717 -2.9810
  833MOL0     H12441   9.272   5.033   7.034 -1.3603 -0.6768  2.8528
  833MOL0     H12442   9.412   4.981   6.827  1.4169  0.9425  0.4083
  833MOL0     H12443   9.522   4.742   6.545 -0.3920 -0.1612  2.2889
  833MOL0     H12444   9.578   4.754   6.285 -0.0373 -0.7942 -0.8095
  833MOL0     H12445   9.994   4.692   6.179  1.0818 -0.5146 -0.9980
  833MOL0     H12446   9.870   4.552   6.173 -1.2983  0.0104  1.2450
  833MOL0     H12447   9.835   4.579   5.958  1.9078 -0.3407 -2.2356
  833MOL0     H12448  10.008   4.613   5.962  0.5377  0.2634 -0.0756
  833MOL0     H12449   9.945   4.863   5.953 -1.0498 -0.1738  0.7426
  833MOL0     H12450   9.782   4.811   5.925  0.0228  1.3062 -2.0393
  833MOL0     H12451  10.025   4.754   5.728  0.4495 -0.5407 -0.5261
  833MOL0     H12452   9.899   4.886   5.726  1.1353  0.8865  1.3574
  833MOL0     H12453   9.689   4.536   5.581 -0.9386  0.4053  1.4449
  833MOL0     H12454   9.985   4.734   6.382 -0.6841  1.3983 -1.3062
  833MOL0     H12455   9.948   4.747   6.631 -2.3043 -1.8583  3.6433
  834MOL0     O12456   6.211   3.184   0.232  0.3389 -0.0848  0.0556
  834MOL0     C12457   6.265   3.076   0.235 -0.0532 -0.0864  0.4499
  834MOL0     O12458   6.372   3.037   0.160 -0.0598 -0.5443  0.1080
  834MOL0     C12459   6.449   3.135   0.100  0.3991  0.2514 -0.0256
  834MOL0     C12460   6.538   3.085   0.009  0.2817  0.3263  0.0547
  834MOL0     C12461   6.622   3.181  -0.046  0.5320  0.1995 -0.2123
  834MOL0     C12462   6.618   3.319  -0.021  0.1406 -0.0572 -0.5210
  834MOL0     O12463   6.690   3.408  -0.102  0.6416 -0.2211  0.2701
  834MOL0     C12464   6.722   3.520  -0.029 -1.2760 -0.6393 -1.1689
  834MOL0     C12465   6.813   3.604  -0.122 -0.2310  0.3154 -0.5397
  834MOL0     C12466   6.844   3.746  -0.080  0.5676  0.1779  0.4377
  834MOL0     C12467   6.928   3.812  -0.187  0.2305 -0.7759 -0.4065
  834MOL0     C12468   6.991   3.946  -0.145 -0.3950 -0.3220 -0.8766
  834MOL0     C12469   7.027   4.032  -0.264 -0.4252 -0.6323 -1.0198
  834MOL0     C12470   7.112   3.972  -0.370 -0.4456  0.4699  1.1135
  834MOL0     C12471   7.222   3.878  -0.331  0.0613  0.2619  0.1879
  834MOL0     N12472   7.335   3.879  -0.423  0.0805  0.6389  0.2672
  834MOL0     C12473   7.347   3.926  -0.553  0.7535 -0.1770 -0.6451
  834MOL0     C12474   7.480   3.920  -0.590  0.5701 -0.2727  0.2704
  834MOL0     C12475   7.533   3.975  -0.715 -0.3476 -0.1096  0.3848
  834MOL0     C12476   7.678   4.009  -0.707  0.3295  0.9474 -0.1917
  834MOL0     C12477   7.708   4.129  -0.624 -0.2372 -0.1864 -0.9517
  834MOL0     C12478   7.618   4.251  -0.637  0.1364  0.1021  0.3712
  834MOL0     O12479   7.612   4.307  -0.769 -0.9189  0.4810 -0.0619
  834MOL0     C12480   7.513   4.394  -0.817  0.3933  0.2137 -0.1682
  834MOL0     C12481   7.430   4.459  -0.735 -0.8970  0.0269 -0.3524
  834MOL0     C12482   7.320   4.543  -0.776 -0.8989  0.9231  0.4250
  834MOL0     C12483   7.244   4.618  -0.677  1.2118 -0.1997  0.3713
  834MOL0     C12484   7.297   4.550  -0.915 -0.4811 -0.5177 -0.7352
  834MOL0     C12485   7.170   4.605  -0.975  0.6736  0.1528 -0.2882
  834MOL0     O12486   7.093   4.700  -0.900  0.0373 -1.2567  0.5443
  834MOL0     C12487   6.977   4.762  -0.948  0.5990  0.2176 -0.2727
  834MOL0     C12488   6.891   4.692  -1.034  0.0695  0.8914 -0.6955
  834MOL0     C12489   6.787   4.760  -1.092 -0.0293 -0.2148  0.3206
  834MOL0     C12490   6.768   4.900  -1.082 -0.3099  0.5918 -0.5415
  834MOL0     O12491   6.682   4.979  -1.152  0.0312 -0.4457  0.0748
  834MOL0     C12492   6.576   4.911  -1.229  0.2590  1.3624 -0.6058
  834MOL0     C12493   6.498   5.020  -1.319 -0.0627 -0.3368  1.1712
  834MOL0     C12494   6.550   5.046  -1.460 -0.1635 -0.1177  0.0856
  834MOL0     C12495   6.685   5.109  -1.468  0.9922 -0.5342 -0.0665
  834MOL0     C12496   6.680   5.254  -1.407  0.8262 -1.1159  0.5630
  834MOL0     C12497   6.786   5.346  -1.464  0.2319  0.6677 -0.0294
  834MOL0     C12498   6.928   5.303  -1.435  0.1421  0.7127 -0.6436
  834MOL0     C12499   7.020   5.431  -1.433 -0.1379 -0.0581 -0.3147
  834MOL0    Cl12500   7.036   5.498  -1.261 -0.4758  0.5586 -0.1360
  834MOL0     C12501   6.851   4.962  -0.986  0.1429 -0.2188  0.0147
  834MOL0     C12502   6.958   4.895  -0.918  0.4469 -0.1117  0.3127
  834MOL0     O12503   7.143   4.572  -1.093 -0.7130 -0.5252 -0.4949
  834MOL0     C12504   7.385   4.488  -0.999  0.5300  0.0008 -0.1048
  834MOL0     C12505   7.489   4.412  -0.953 -0.4581 -0.1900  0.1466
  834MOL0     N12506   7.540   3.851  -0.490 -0.4339  0.1338 -0.0584
  834MOL0     N12507   7.459   3.840  -0.387  0.3519 -0.3510 -0.5662
  834MOL0     C12508   6.536   3.362   0.087  0.3102 -0.3573 -1.1826
  834MOL0     C12509   6.452   3.266   0.150 -1.0225 -0.3927  0.0154
  834MOL0     C12510   6.201   2.956   0.305 -0.5375  0.0893 -0.3683
  834MOL0     C12511   6.231   2.827   0.255  0.8123 -0.1700 -0.0129
  834MOL0     C12512   6.167   2.716   0.320 -0.2601 -0.3673 -0.4236
  834MOL0     C12513   6.079   2.735   0.427  0.1105  0.5911  0.2443
  834MOL0     O12514   6.012   2.631   0.485 -0.0855  0.4586 -1.2529
  834MOL0     C12515   5.942   2.642   0.615  0.1716  0.3763  0.9689
  834MOL0     C12516   6.048   2.660   0.731 -0.8465  0.1076  1.0400
  834MOL0     C12517   5.989   2.636   0.865  0.3851 -0.0410 -1.2123
  834MOL0     C12518   5.872   2.728   0.895  0.1380  0.4767 -0.2711
  834MOL0     C12519   5.826   2.697   1.034  0.8764 -0.3945  0.6683
  834MOL0     C12520   5.793   2.677   1.142 -0.1871 -0.3493  0.4831
  834MOL0     C12521   6.047   2.864   0.468 -0.4894  0.5894  0.5518
  834MOL0     C12522   6.113   2.969   0.410 -1.0687  0.5265 -0.2301
  834MOL0     H12523   6.538   2.980  -0.018 -1.4325  0.7494 -1.9153
  834MOL0     H12524   6.689   3.141  -0.122 -0.8547 -3.9956  0.5183
  834MOL0     H12525   6.635   3.580  -0.000 -1.3488 -0.3317 -2.0044
  834MOL0     H12526   6.794   3.484   0.046  0.8349  1.3137 -2.1075
  834MOL0     H12527   6.904   3.544  -0.123 -1.6043 -1.8810 -0.7923
  834MOL0     H12528   6.768   3.606  -0.222  1.9956 -1.0328 -1.6417
  834MOL0     H12529   6.748   3.797  -0.065  0.7095  1.2455 -1.8214
  834MOL0     H12530   6.906   3.742   0.010  2.1923  0.6635 -0.6047
  834MOL0     H12531   7.014   3.749  -0.213 -0.1326 -1.7568  0.6850
  834MOL0     H12532   6.859   3.830  -0.270  1.2604  1.4018 -0.8759
  834MOL0     H12533   6.917   3.999  -0.084 -1.3881 -2.9459  0.3427
  834MOL0     H12534   7.078   3.920  -0.084 -0.2759  0.0294 -0.8936
  834MOL0     H12535   6.928   4.064  -0.300 -0.1885 -0.9220 -1.9290
  834MOL0     H12536   7.075   4.123  -0.227  1.2541 -1.5014 -0.9940
  834MOL0     H12537   7.041   3.908  -0.423 -1.2018  0.0435  2.5905
  834MOL0     H12538   7.144   4.054  -0.436 -1.5253  2.1256  2.5446
  834MOL0     H12539   7.187   3.775  -0.343 -1.6701  0.7360  0.9120
  834MOL0     H12540   7.259   3.900  -0.230  1.9420  1.7692 -0.7770
  834MOL0     H12541   7.261   3.967  -0.605  0.1139 -0.2585  0.3305
  834MOL0     H12542   7.514   3.886  -0.776 -0.0270  1.1073 -1.5751
  834MOL0     H12543   7.466   4.057  -0.742 -1.7411 -1.4525 -0.4530
  834MOL0     H12544   7.727   4.013  -0.805  3.3543  0.5238  1.1835
  834MOL0     H12545   7.728   3.924  -0.661 -2.0502 -1.3938 -1.6948
  834MOL0     H12546   7.801   4.164  -0.669 -1.8302  3.2144 -1.9362
  834MOL0     H12547   7.733   4.094  -0.524  2.1477  0.4996 -1.2618
  834MOL0     H12548   7.658   4.334  -0.577 -0.0576 -1.8194  3.3736
  834MOL0     H12549   7.519   4.221  -0.603 -0.1281  1.4212  0.8462
  834MOL0     H12550   7.448   4.461  -0.628  5.0986 -0.0222 -0.9945
  834MOL0     H12551   7.294   4.623  -0.579 -0.1784  1.6043  1.0655
  834MOL0     H12552   7.237   4.725  -0.698  0.0716 -0.6277 -1.7038
  834MOL0     H12553   7.149   4.568  -0.655  1.8365 -0.6937  2.1420
  834MOL0     H12554   6.899   4.586  -1.054 -0.7685  1.0197 -1.8120
  834MOL0     H12555   6.720   4.705  -1.157  1.6888 -3.3234  1.0148
  834MOL0     H12556   6.620   4.830  -1.288 -4.3970 -0.4733 -2.0433
  834MOL0     H12557   6.498   4.865  -1.167  1.7332 -2.2143 -1.1252
  834MOL0     H12558   6.392   4.993  -1.327 -0.4639  1.5402 -0.6015
  834MOL0     H12559   6.509   5.115  -1.265  5.6351  0.5063 -0.8103
  834MOL0     H12560   6.482   5.114  -1.513 -1.3145 -2.2636 -1.3545
  834MOL0     H12561   6.555   4.950  -1.513  0.1469 -2.2349  3.6467
  834MOL0     H12562   6.755   5.042  -1.417  0.2340  0.0156  1.7700
  834MOL0     H12563   6.711   5.115  -1.574  0.0149  0.7002 -0.2691
  834MOL0     H12564   6.686   5.257  -1.298 -5.7235  0.6199  1.2942
  834MOL0     H12565   6.584   5.306  -1.412 -0.4188 -3.2557  0.6547
  834MOL0     H12566   6.765   5.350  -1.571 -0.8366 -1.8636  0.0166
  834MOL0     H12567   6.771   5.443  -1.414 -0.9627  0.5129 -0.0602
  834MOL0     H12568   6.971   5.226  -1.499  3.5225  1.4413  0.5147
  834MOL0     H12569   6.942   5.257  -1.337  1.3153  0.3696 -0.9530
  834MOL0     H12570   6.980   5.493  -1.514 -2.1925  1.0092  1.4403
  834MOL0     H12571   7.124   5.411  -1.463  0.2880 -1.1051  1.6659
  834MOL0     H12572   6.830   5.069  -0.987  0.5136 -0.0223  3.1329
  834MOL0     H12573   7.016   4.953  -0.847 -0.1183  2.5441 -1.2728
  834MOL0     H12574   7.368   4.501  -1.105 -0.8305 -0.7127 -0.0029
  834MOL0     H12575   7.552   4.363  -1.027 -0.3141  0.9551 -0.5149
  834MOL0     H12576   6.541   3.465   0.121  1.6370 -0.9130  0.3829
  834MOL0     H12577   6.405   3.307   0.240  1.5484 -1.9721  2.2333
  834MOL0     H12578   6.293   2.801   0.170  1.3726 -0.0170  0.3440
  834MOL0     H12579   6.189   2.612   0.297 -3.1667 -0.8503 -1.4539
  834MOL0     H12580   5.872   2.725   0.605  0.9863  1.0581  0.8569
  834MOL0     H12581   5.883   2.550   0.616 -1.4962  1.3350 -1.3230
  834MOL0     H12582   6.085   2.764   0.736  4.6957 -1.5299  1.1339
  834MOL0     H12583   6.141   2.602   0.723 -0.4693  0.3208  3.1566
  834MOL0     H12584   6.064   2.655   0.942  2.7444 -0.4976 -3.2505
  834MOL0     H12585   5.946   2.535   0.870 -2.2927  1.0022 -1.5368
  834MOL0     H12586   5.793   2.729   0.819 -0.5933  0.9586  0.4696
  834MOL0     H12587   5.908   2.831   0.897 -0.4944  0.7286 -1.2689
  834MOL0     H12588   5.765   2.669   1.246 -3.4881 -1.5189 -0.3813
  834MOL0     H12589   5.981   2.882   0.553 -0.8306  0.2955  0.3519
  834MOL0     H12590   6.095   3.066   0.456  1.8186  1.1720 -0.2549
  835MOL0     O12591   1.739   7.653   8.305  0.2176  0.2254  0.2014
  835MOL0     C12592   1.838   7.721   8.301 -0.3179 -0.0848 -0.8553
  835MOL0     O12593   1.947   7.705   8.215 -0.9678 -0.5431  0.0667
  835MOL0     C12594   1.950   7.594   8.138  0.1684  0.1493  0.5395
  835MOL0     C12595   1.955   7.466   8.201  0.0414 -0.1630 -0.3412
  835MOL0     C12596   1.973   7.351   8.119  0.4214 -0.1903 -0.6610
  835MOL0     C12597   1.978   7.358   7.977  0.3097  1.1355  0.6319
  835MOL0     O12598   1.991   7.248   7.895  0.3667  0.4057  0.3699
  835MOL0     C12599   1.936   7.127   7.945  0.6073 -0.1468 -0.3761
  835MOL0     C12600   1.944   7.016   7.841 -0.3090  0.6710 -0.6794
  835MOL0     C12601   1.836   6.901   7.860 -0.1447  0.1376  0.5574
  835MOL0     C12602   1.892   6.776   7.803  1.1782  0.3975 -0.4401
  835MOL0     C12603   1.789   6.658   7.781  0.4613  0.3166 -0.3413
  835MOL0     C12604   1.695   6.641   7.900  1.0703  0.5000 -0.2976
  835MOL0     C12605   1.622   6.521   7.863  0.8319  0.6954  0.4496
  835MOL0     C12606   1.497   6.507   7.957 -0.3325  0.3112  0.3043
  835MOL0     N12607   1.544   6.477   8.093  0.6225 -0.7744 -0.6566
  835MOL0     C12608   1.562   6.581   8.189 -0.3609  0.7617  0.1282
  835MOL0     C12609   1.604   6.512   8.302  0.3272 -0.4650  0.0123
  835MOL0     C12610   1.668   6.584   8.414  0.3089 -0.6696  1.0776
  835MOL0     C12611   1.598   6.718   8.470 -0.2120 -0.3706  1.3358
  835MOL0     C12612   1.691   6.766   8.574 -0.1796 -0.1612 -0.4868
  835MOL0     C12613   1.611   6.839   8.683 -0.5935 -0.2456 -0.9387
  835MOL0     O12614   1.712   6.878   8.785 -0.2536  0.0256  0.0962
  835MOL0     C12615   1.688   6.968   8.881 -0.7022 -0.3293  0.2431
  835MOL0     C12616   1.797   7.024   8.954  0.6302  0.0801 -0.8811
  835MOL0     C12617   1.770   7.122   9.056 -0.5759 -0.5131 -0.8921
  835MOL0     C12618   1.903   7.168   9.125 -0.3687  0.5440  0.0515
  835MOL0     C12619   1.636   7.157   9.087 -0.4990  0.4033  0.2339
  835MOL0     C12620   1.603   7.241   9.203 -0.1358  0.3896 -0.4752
  835MOL0     O12621   1.475   7.264   9.206  0.3846  0.3959  0.5577
  835MOL0     C12622   1.437   7.363   9.289 -0.2147  0.3721  0.0464
  835MOL0     C12623   1.358   7.328   9.398  0.3826  0.1475  0.2618
  835MOL0     C12624   1.289   7.418   9.470  0.2565  0.5518  0.1907
  835MOL0     C12625   1.291   7.554   9.437  0.2641  0.2046 -0.0776
  835MOL0     O12626   1.215   7.638   9.514 -0.6234 -0.7160  0.0124
  835MOL0     C12627   1.192   7.769   9.467 -0.4769 -0.8636  1.4236
  835MOL0     C12628   1.084   7.838   9.546  0.0839 -0.7803  0.1912
  835MOL0     C12629   1.046   7.973   9.490  0.4492 -0.1528 -0.5809
  835MOL0     C12630   1.147   8.084   9.551 -0.3305  0.3596 -0.8404
  835MOL0     C12631   1.125   8.220   9.486  0.8056  0.5143 -0.1880
  835MOL0     C12632   1.000   8.286   9.540  0.0984 -0.1093  0.7135
  835MOL0     C12633   0.972   8.423   9.470  0.3709  0.9342  0.4147
  835MOL0     C12634   0.971   8.406   9.327  0.2146 -0.5483  0.2392
  835MOL0    Cl12635   0.856   8.512   9.246  0.0576 -0.1868  0.4324
  835MOL0     C12636   1.373   7.590   9.331  0.1718 -0.4973 -0.4589
  835MOL0     C12637   1.443   7.496   9.257 -0.3777 -0.4851 -0.0414
  835MOL0     O12638   1.689   7.269   9.291  0.6136  0.0746 -0.6892
  835MOL0     C12639   1.533   7.096   9.014  0.2376  0.0797 -0.3093
  835MOL0     C12640   1.565   7.010   8.911  0.0842  0.1234 -0.3316
  835MOL0     N12641   1.599   6.376   8.280 -0.5734  0.1798 -0.2871
  835MOL0     N12642   1.552   6.359   8.162  0.7628 -0.6015  1.1592
  835MOL0     C12643   1.975   7.483   7.915 -0.7480 -0.6421 -0.0130
  835MOL0     C12644   1.960   7.600   7.993  0.3292 -0.8328 -0.2263
  835MOL0     C12645   1.856   7.818   8.411 -0.2581  0.3797  0.0905
  835MOL0     C12646   1.744   7.854   8.490  0.1347  0.5268  0.5853
  835MOL0     C12647   1.757   7.928   8.601  0.0159  0.1498 -0.5880
  835MOL0     C12648   1.878   7.967   8.644 -0.1527 -0.3216  0.3128
  835MOL0     O12649   1.886   8.010   8.771  0.4322 -0.2011  0.4364
  835MOL0     C12650   1.949   8.146   8.785 -0.0243  0.4292 -0.1802
  835MOL0     C12651   1.868   8.246   8.875 -0.0170  0.6458  0.0694
  835MOL0     C12652   1.733   8.267   8.822  1.2869 -0.6076  0.5655
  835MOL0     C12653   1.633   8.319   8.916 -0.1110 -0.6472 -0.0427
  835MOL0     C12654   1.666   8.449   8.972 -0.7773 -0.1876  0.2604
  835MOL0     C12655   1.694   8.565   8.998 -0.1397 -0.0050 -0.1243
  835MOL0     C12656   1.990   7.939   8.564  1.0330  0.4733  0.1108
  835MOL0     C12657   1.972   7.869   8.444 -0.5806  0.0414 -0.7203
  835MOL0     H12658   1.950   7.444   8.307 -0.6753 -0.0039 -0.3407
  835MOL0     H12659   1.963   7.254   8.166 -2.1656  0.4632  0.3253
  835MOL0     H12660   1.978   7.103   8.043  1.1937  2.7322  0.1727
  835MOL0     H12661   1.829   7.138   7.967  0.7662 -1.2898  1.1163
  835MOL0     H12662   1.941   7.063   7.742  2.0792  3.6358  0.4845
  835MOL0     H12663   2.047   6.980   7.836 -0.8607 -0.9911 -0.6139
  835MOL0     H12664   1.826   6.894   7.968  2.0682 -3.8438  0.7164
  835MOL0     H12665   1.737   6.913   7.815  0.6955  4.1150 -0.5426
  835MOL0     H12666   1.939   6.791   7.706  2.2018 -0.9458 -0.1853
  835MOL0     H12667   1.971   6.732   7.865  1.7205  2.2889  0.2719
  835MOL0     H12668   1.734   6.697   7.695  0.2494  3.8202  1.2145
  835MOL0     H12669   1.846   6.565   7.769  0.8484  0.3655  0.9179
  835MOL0     H12670   1.749   6.622   7.993 -1.2902  0.1654  1.0953
  835MOL0     H12671   1.628   6.727   7.908  0.5202 -0.0955  2.4188
  835MOL0     H12672   1.567   6.522   7.768 -3.4145  0.8891  2.6777
  835MOL0     H12673   1.692   6.437   7.870 -1.6817 -1.4024  2.9766
  835MOL0     H12674   1.438   6.416   7.941  2.6977 -2.2058  2.2658
  835MOL0     H12675   1.435   6.597   7.949 -0.8128  0.2291  2.4297
  835MOL0     H12676   1.529   6.684   8.182  0.9102  1.2361  0.8187
  835MOL0     H12677   1.694   6.520   8.499 -0.2943  1.9619  3.3698
  835MOL0     H12678   1.759   6.624   8.368 -1.8854  1.2870 -1.9558
  835MOL0     H12679   1.495   6.698   8.502 -0.9024 -0.5795 -0.8539
  835MOL0     H12680   1.587   6.793   8.391  0.7492 -0.1199  1.4235
  835MOL0     H12681   1.772   6.831   8.540  0.6036  0.8996  2.9302
  835MOL0     H12682   1.744   6.685   8.625  0.4567  0.0035 -0.8645
  835MOL0     H12683   1.543   6.769   8.732 -0.1322 -0.4585 -0.5892
  835MOL0     H12684   1.553   6.926   8.652  0.3201  0.5021 -0.6087
  835MOL0     H12685   1.898   6.991   8.933  1.0810  1.0118 -0.2410
  835MOL0     H12686   1.905   7.277   9.130 -1.0782  0.6191 -0.9184
  835MOL0     H12687   1.912   7.104   9.213 -1.2448 -0.3617 -0.5005
  835MOL0     H12688   1.996   7.141   9.073 -0.7255  0.2665 -0.4433
  835MOL0     H12689   1.355   7.220   9.411  2.0187  0.3931  3.8633
  835MOL0     H12690   1.233   7.380   9.556  0.7454 -0.6204  0.0127
  835MOL0     H12691   1.287   7.823   9.474  0.4430 -2.1776 -0.2281
  835MOL0     H12692   1.168   7.789   9.363  1.4192  3.0657  1.5345
  835MOL0     H12693   0.998   7.773   9.565 -0.9251  0.2043 -0.8458
  835MOL0     H12694   1.134   7.846   9.642  0.5016 -3.3017  0.2753
  835MOL0     H12695   0.948   8.000   9.531  1.1533  1.5332  0.0532
  835MOL0     H12696   1.032   7.977   9.381 -2.9995 -2.9679 -0.4298
  835MOL0     H12697   1.140   8.085   9.660 -0.1687 -0.0507 -0.8264
  835MOL0     H12698   1.250   8.051   9.533  1.3681  3.4118  2.1113
  835MOL0     H12699   1.143   8.218   9.378 -1.4415  3.5802 -0.7554
  835MOL0     H12700   1.198   8.291   9.525  0.1007  0.1950  1.8259
  835MOL0     H12701   0.913   8.223   9.518 -0.4462  1.3094 -1.6013
  835MOL0     H12702   1.004   8.306   9.647  0.6649 -1.3373  0.9380
  835MOL0     H12703   1.050   8.495   9.494  0.5550  1.8742 -2.6256
  835MOL0     H12704   0.876   8.455   9.510 -0.0242 -0.2171  0.4307
  835MOL0     H12705   0.952   8.306   9.285  2.3928 -0.1274 -2.0166
  835MOL0     H12706   1.067   8.433   9.282  0.9743 -0.3916  1.8883
  835MOL0     H12707   1.381   7.692   9.293  0.6583  0.1213  1.2285
  835MOL0     H12708   1.498   7.521   9.166  1.3899  0.6898  1.2690
  835MOL0     H12709   1.431   7.112   9.048  0.6725  1.4581  0.3991
  835MOL0     H12710   1.486   6.948   8.869  0.1476  0.0092 -0.2814
  835MOL0     H12711   1.972   7.499   7.808 -0.2750  1.0638  0.1853
  835MOL0     H12712   1.967   7.693   7.937 -0.5401 -1.6492 -1.7775
  835MOL0     H12713   1.639   7.831   8.470  0.3509 -3.8632  3.0572
  835MOL0     H12714   1.679   7.947   8.674 -0.1896 -1.2652 -0.4008
  835MOL0     H12715   2.054   8.137   8.815  0.5912  1.0040 -2.0230
  835MOL0     H12716   1.959   8.199   8.690  0.1143 -0.4428 -0.6616
  835MOL0     H12717   1.923   8.341   8.884 -2.8120  2.3602  0.1397
  835MOL0     H12718   1.873   8.194   8.971  0.5147 -0.1533 -0.3753
  835MOL0     H12719   1.692   8.175   8.778  0.8492 -0.5672  0.8796
  835MOL0     H12720   1.730   8.341   8.741 -3.0076 -1.4415 -0.3367
  835MOL0     H12721   1.606   8.254   9.000  1.1864 -2.6984 -1.1336
  835MOL0     H12722   1.537   8.336   8.866 -0.2571 -1.2023  0.0393
  835MOL0     H12723   1.701   8.671   9.011 -2.8885  0.2209  0.2077
  835MOL0     H12724   2.094   7.959   8.588  2.2901 -1.2220 -3.2832
  835MOL0     H12725   2.050   7.839   8.375 -1.3429 -1.1651 -1.0844
  836MOL0     O12726   5.997   4.157   8.325  0.1825 -0.2612  0.1418
  836MOL0     C12727   6.032   4.232   8.410 -0.6404  0.7317 -0.5762
  836MOL0     O12728   6.036   4.202   8.542 -0.8723  0.3305  0.6658
  836MOL0     C12729   5.966   4.093   8.604  0.2580  0.1815 -0.3740
  836MOL0     C12730   5.925   4.097   8.739 -0.1337  0.0083  0.0409
  836MOL0     C12731   5.896   3.984   8.804  0.5712  0.2488 -0.2606
  836MOL0     C12732   5.897   3.857   8.740 -0.3628 -0.7447 -1.0397
  836MOL0     O12733   5.888   3.751   8.828 -0.3403 -0.3831 -0.8177
  836MOL0     C12734   5.900   3.623   8.778 -0.8157 -0.1801 -0.9279
  836MOL0     C12735   6.046   3.583   8.807 -0.0313  0.1276 -0.5433
  836MOL0     C12736   6.043   3.429   8.790 -0.1704  0.0858  0.7820
  836MOL0     C12737   6.137   3.363   8.899  0.4795 -1.3580 -0.5940
  836MOL0     C12738   6.286   3.392   8.883 -0.4704 -0.1117  0.9804
  836MOL0     C12739   6.357   3.283   8.794 -0.2476 -0.7664 -0.1368
  836MOL0     C12740   6.506   3.309   8.780 -0.6399 -0.8268 -0.2579
  836MOL0     C12741   6.570   3.204   8.693  0.1258  0.0595 -0.6467
  836MOL0     N12742   6.718   3.218   8.680 -0.0047 -0.0639  1.2102
  836MOL0     C12743   6.818   3.132   8.731 -0.1409  0.7690  0.3872
  836MOL0     C12744   6.937   3.185   8.701 -0.6405 -0.3252 -0.1524
  836MOL0     C12745   7.079   3.141   8.722  0.1818 -1.1404 -0.5475
  836MOL0     C12746   7.123   3.023   8.630  0.0521  0.3821  0.6798
  836MOL0     C12747   7.163   3.072   8.493  0.2362  0.2090  0.4353
  836MOL0     C12748   7.243   2.974   8.412  0.0813  0.3217  0.3611
  836MOL0     O12749   7.168   2.849   8.406 -0.0664  0.2158 -0.0517
  836MOL0     C12750   7.244   2.753   8.347  0.7731  1.0212  0.2394
  836MOL0     C12751   7.339   2.687   8.419  0.6705 -0.3938  0.4249
  836MOL0     C12752   7.417   2.578   8.357 -0.2725 -0.8014 -0.7605
  836MOL0     C12753   7.503   2.499   8.460 -0.2862 -0.1554  0.9666
  836MOL0     C12754   7.389   2.546   8.218 -0.0014  0.2382  0.9770
  836MOL0     C12755   7.469   2.448   8.141  0.2879 -0.1905  0.0121
  836MOL0     O12756   7.443   2.424   8.012  0.4828 -0.6370  0.0198
  836MOL0     C12757   7.541   2.352   7.935  0.6382  0.0247 -0.3558
  836MOL0     C12758   7.587   2.222   7.965  0.5235 -0.3679 -0.4224
  836MOL0     C12759   7.674   2.153   7.886 -0.6270  0.1643  0.3229
  836MOL0     C12760   7.721   2.209   7.771  0.3947 -0.7447 -0.0461
  836MOL0     O12761   7.815   2.151   7.685 -0.0176  0.2061  1.0723
  836MOL0     C12762   7.835   2.012   7.696  0.5715 -0.3330 -0.4025
  836MOL0     C12763   7.850   1.954   7.564  0.3103  0.0139  0.0543
  836MOL0     C12764   7.986   1.973   7.495  0.6498  1.4351 -0.3309
  836MOL0     C12765   7.982   1.922   7.348 -0.0432 -0.1253  0.6069
  836MOL0     C12766   8.124   1.898   7.285 -0.0969 -0.4543 -0.2111
  836MOL0     C12767   8.111   1.873   7.139  0.8648  0.0146  0.0727
  836MOL0     C12768   8.245   1.820   7.079 -0.3492 -0.7619  0.1776
  836MOL0     C12769   8.220   1.767   6.936  1.0262 -0.6472 -0.5667
  836MOL0    Cl12770   8.364   1.675   6.875 -0.0578  0.1087  0.1038
  836MOL0     C12771   7.668   2.338   7.724 -0.2223 -0.2121 -0.4018
  836MOL0     C12772   7.582   2.407   7.815 -0.7596  0.2333 -0.1993
  836MOL0     O12773   7.570   2.406   8.200  0.7321 -0.0821  0.7283
  836MOL0     C12774   7.298   2.625   8.148 -0.6711 -0.6243  0.0940
  836MOL0     C12775   7.226   2.722   8.211 -1.3301  0.3623  1.0864
  836MOL0     N12776   6.900   3.291   8.616  0.8683 -0.5413  0.6352
  836MOL0     N12777   6.773   3.317   8.609 -0.0836  0.2599 -0.3945
  836MOL0     C12778   5.931   3.851   8.605 -0.4262  0.1745 -0.5243
  836MOL0     C12779   5.970   3.969   8.540  0.4425  0.4809  0.0203
  836MOL0     C12780   6.087   4.365   8.386  0.3996 -0.9617  0.0994
  836MOL0     C12781   6.147   4.439   8.487 -0.4950 -0.4925  0.1497
  836MOL0     C12782   6.189   4.568   8.461  0.7452  0.2871 -0.6927
  836MOL0     C12783   6.187   4.636   8.344  0.7153  0.5936  1.0792
  836MOL0     O12784   6.241   4.758   8.339  0.1815  0.4136  0.3986
  836MOL0     C12785   6.193   4.842   8.238 -0.2399  0.0886  0.7563
  836MOL0     C12786   6.239   4.988   8.266 -1.0922  0.6003  0.6117
  836MOL0     C12787   6.395   5.005   8.248  0.2377 -0.2759  0.6228
  836MOL0     C12788   6.433   5.152   8.267  0.2845  0.4729  0.3614
  836MOL0     C12789   6.447   5.189   8.407 -0.5177 -0.6485 -0.7934
  836MOL0     C12790   6.454   5.224   8.519 -0.5624 -0.8457  0.9243
  836MOL0     C12791   6.138   4.558   8.240 -0.6100 -0.2924 -0.0387
  836MOL0     C12792   6.080   4.431   8.254 -1.5339 -0.8210 -0.6948
  836MOL0     H12793   5.919   4.190   8.795 -0.5690  0.7979 -1.2496
  836MOL0     H12794   5.864   3.990   8.907 -0.0061  3.2864 -0.5327
  836MOL0     H12795   5.835   3.550   8.827 -1.3481  0.2836 -0.9271
  836MOL0     H12796   5.868   3.607   8.675  2.3561 -0.7913 -1.9078
  836MOL0     H12797   6.121   3.608   8.731  2.4031  0.2850  1.7532
  836MOL0     H12798   6.080   3.630   8.900 -2.7875  1.3177 -0.0210
  836MOL0     H12799   5.948   3.376   8.793  1.3945 -3.1358 -1.2132
  836MOL0     H12800   6.083   3.413   8.689 -1.0268 -0.9737  0.6030
  836MOL0     H12801   6.100   3.408   8.991 -2.8169  1.8004 -3.1623
  836MOL0     H12802   6.116   3.256   8.907 -1.6821 -1.0735 -1.6019
  836MOL0     H12803   6.297   3.487   8.832  1.1801  0.1747  1.8163
  836MOL0     H12804   6.326   3.400   8.985 -1.1311 -1.2697  1.3598
  836MOL0     H12805   6.326   3.186   8.833  0.5309  0.3663  3.7175
  836MOL0     H12806   6.314   3.288   8.693  0.0277  0.9412 -0.2003
  836MOL0     H12807   6.524   3.409   8.741 -2.4315  0.3488  1.7276
  836MOL0     H12808   6.549   3.305   8.880 -4.6574 -1.6950  1.6393
  836MOL0     H12809   6.524   3.210   8.594 -2.4307 -0.3815  0.4290
  836MOL0     H12810   6.551   3.107   8.739 -3.7687  0.8363 -0.2627
  836MOL0     H12811   6.820   3.038   8.785  1.6686  0.1312 -0.7199
  836MOL0     H12812   7.145   3.227   8.704  0.5047 -0.7571  2.0684
  836MOL0     H12813   7.109   3.126   8.827  2.8055  0.1507 -1.0166
  836MOL0     H12814   7.055   2.938   8.628 -0.6181  0.9194  0.0534
  836MOL0     H12815   7.217   2.978   8.663  0.2787 -0.5394 -1.0954
  836MOL0     H12816   7.226   3.162   8.496 -0.3288  0.5993  0.7569
  836MOL0     H12817   7.063   3.083   8.450 -2.3418 -1.4338  5.2199
  836MOL0     H12818   7.341   2.961   8.459  0.5653  0.2234 -0.6603
  836MOL0     H12819   7.253   3.018   8.312 -1.4373 -2.5053 -1.1492
  836MOL0     H12820   7.361   2.723   8.519 -0.3924 -0.8434  0.8298
  836MOL0     H12821   7.481   2.392   8.472  4.3020 -1.5185 -0.5691
  836MOL0     H12822   7.599   2.485   8.409  0.4929  3.6882  1.1147
  836MOL0     H12823   7.522   2.543   8.558  3.2645 -4.0923  2.3633
  836MOL0     H12824   7.552   2.175   8.057 -0.0425  1.6616  0.4679
  836MOL0     H12825   7.715   2.059   7.922 -2.6706 -1.4169 -1.2425
  836MOL0     H12826   7.927   1.987   7.749  0.3053 -0.3658  0.0471
  836MOL0     H12827   7.759   1.953   7.748  1.4875  1.4449  3.3046
  836MOL0     H12828   7.840   1.845   7.559  0.3249  0.0555 -1.3692
  836MOL0     H12829   7.780   1.998   7.492  2.9852  3.8360 -0.5159
  836MOL0     H12830   8.060   1.910   7.544 -1.6977 -0.6900  0.6607
  836MOL0     H12831   8.023   2.076   7.497  0.6092  1.4372  0.7729
  836MOL0     H12832   7.935   1.824   7.332 -0.2460 -0.0816  0.9116
  836MOL0     H12833   7.927   1.997   7.290  1.6799  0.8012  0.1222
  836MOL0     H12834   8.184   1.822   7.336  0.4785  0.0444 -0.1273
  836MOL0     H12835   8.174   1.995   7.286  1.9163 -1.4343  0.3161
  836MOL0     H12836   8.034   1.797   7.121 -0.1420  0.2631  2.8117
  836MOL0     H12837   8.071   1.960   7.088 -2.1879  0.4618  2.8748
  836MOL0     H12838   8.265   1.726   7.132 -1.3589 -0.8025  0.5179
  836MOL0     H12839   8.328   1.891   7.087 -0.3654 -0.6484 -0.5922
  836MOL0     H12840   8.196   1.852   6.872 -0.1534  1.1998  2.1339
  836MOL0     H12841   8.135   1.698   6.935  0.3349  0.1794 -1.4430
  836MOL0     H12842   7.689   2.379   7.625  1.9392 -0.6888 -0.1871
  836MOL0     H12843   7.547   2.509   7.798  0.5696  0.7155 -0.1840
  836MOL0     H12844   7.269   2.609   8.045  0.6373 -1.4708 -0.1712
  836MOL0     H12845   7.154   2.770   8.145 -1.1885 -0.8570 -0.0136
  836MOL0     H12846   5.956   3.755   8.561  1.0007 -0.2476  1.1016
  836MOL0     H12847   6.022   3.953   8.446  1.7898 -1.0745  0.9746
  836MOL0     H12848   6.169   4.396   8.584  1.9143 -0.4353 -0.3271
  836MOL0     H12849   6.226   4.613   8.553  1.4625  0.0733 -0.8722
  836MOL0     H12850   6.234   4.802   8.145  2.2973 -1.3767  2.3888
  836MOL0     H12851   6.084   4.851   8.232 -0.2701  2.5775  3.0143
  836MOL0     H12852   6.222   5.011   8.372  0.4461  1.5844  0.6847
  836MOL0     H12853   6.181   5.064   8.214 -3.4871 -1.0435  0.7440
  836MOL0     H12854   6.424   4.969   8.149 -0.0650  0.2337  0.3409
  836MOL0     H12855   6.443   4.941   8.322 -1.3361 -0.3849  1.6026
  836MOL0     H12856   6.365   5.223   8.218  1.1592  1.3005  0.3267
  836MOL0     H12857   6.522   5.175   8.209  0.4865 -0.3438  0.3469
  836MOL0     H12858   6.469   5.275   8.611  2.8572 -3.7995  2.2607
  836MOL0     H12859   6.147   4.581   8.134  4.9425  0.0040  0.1959
  836MOL0     H12860   6.026   4.385   8.172 -0.1993 -2.8151 -0.5202
  837MOL0     O12861   3.546   3.794   7.567  0.1718  0.3294  0.4741
  837MOL0     C12862   3.495   3.819   7.462 -0.9691 -0.3676  0.5766
  837MOL0     O12863   3.453   3.729   7.361 -0.0398  0.1443  0.3693
  837MOL0     C12864   3.430   3.599   7.396  0.0956  0.3397  0.8609
  837MOL0     C12865   3.315   3.539   7.349 -0.2748  0.6349  0.6696
  837MOL0     C12866   3.278   3.398   7.382 -0.2952 -0.6811  0.8763
  837MOL0     C12867   3.371   3.320   7.446 -0.0815 -0.6988 -0.7495
  837MOL0     O12868   3.338   3.190   7.471 -0.3716  0.8559 -0.3699
  837MOL0     C12869   3.429   3.086   7.517  0.1887 -0.0149 -0.0255
  837MOL0     C12870   3.426   3.070   7.676  0.7217 -0.1916 -0.8723
  837MOL0     C12871   3.288   3.025   7.723  0.0357  0.1181 -0.7751
  837MOL0     C12872   3.247   2.876   7.678  0.2600  0.0335 -0.6388
  837MOL0     C12873   3.136   2.839   7.781  0.5074 -0.0660 -0.3879
  837MOL0     C12874   3.086   2.692   7.754  0.4033  0.9653  0.6413
  837MOL0     C12875   3.193   2.584   7.749 -0.9047  0.1422 -0.8430
  837MOL0     C12876   3.272   2.563   7.879  0.3056  0.5728  1.2198
  837MOL0     N12877   3.402   2.493   7.855 -0.2245 -0.0787 -0.4375
  837MOL0     C12878   3.524   2.531   7.920 -0.7166  0.6445 -0.6817
  837MOL0     C12879   3.613   2.437   7.877  0.8224 -0.0530 -0.0206
  837MOL0     C12880   3.760   2.439   7.897 -0.3848  0.5170  0.2050
  837MOL0     C12881   3.828   2.482   7.773 -0.8528 -0.3491 -0.3821
  837MOL0     C12882   3.755   2.595   7.692  0.3468  0.9244  0.3623
  837MOL0     C12883   3.848   2.643   7.588  0.0302 -1.1086 -0.2895
  837MOL0     O12884   3.779   2.729   7.503  0.0115 -0.2524 -0.6767
  837MOL0     C12885   3.837   2.786   7.393  0.5719  0.1626 -0.2131
  837MOL0     C12886   3.962   2.746   7.342 -0.9787  0.9063  0.7981
  837MOL0     C12887   4.001   2.801   7.218 -0.5648  0.3336  0.0160
  837MOL0     C12888   4.142   2.755   7.169 -0.7118  0.5469  0.1677
  837MOL0     C12889   3.917   2.886   7.149  0.5909 -0.4920  0.5246
  837MOL0     C12890   3.933   2.932   7.006  0.8005 -0.5416 -0.1092
  837MOL0     O12891   3.823   2.997   6.954 -0.5200 -0.0362 -0.0411
  837MOL0     C12892   3.839   3.065   6.833  1.0132  1.0328 -0.3526
  837MOL0     C12893   3.769   3.011   6.721 -0.1891  0.6579  0.1584
  837MOL0     C12894   3.784   3.071   6.592  0.5073 -0.2469 -0.3515
  837MOL0     C12895   3.855   3.191   6.577 -1.0631  0.3533 -0.2879
  837MOL0     O12896   3.873   3.233   6.441 -0.1044 -0.0358  0.2587
  837MOL0     C12897   3.969   3.335   6.407 -0.8655  0.1649  0.1507
  837MOL0     C12898   4.118   3.277   6.415  0.1031 -0.6037  0.4735
  837MOL0     C12899   4.142   3.140   6.352  0.1658 -0.6748  1.1170
  837MOL0     C12900   4.063   3.101   6.225  0.3727  0.0518 -1.1254
  837MOL0     C12901   4.045   2.948   6.205  0.1522  0.7279 -0.1724
  837MOL0     C12902   3.974   2.868   6.318  0.2256 -0.1287 -0.6005
  837MOL0     C12903   3.959   2.723   6.278 -0.6148 -0.5525  0.0271
  837MOL0     C12904   3.921   2.635   6.399  0.8601 -0.4178  0.1407
  837MOL0    Cl12905   3.781   2.707   6.489 -0.4502 -0.8160 -0.0381
  837MOL0     C12906   3.917   3.249   6.689 -0.0716  0.0537  0.3037
  837MOL0     C12907   3.913   3.187   6.821  0.0747 -0.0301 -0.0078
  837MOL0     O12908   4.045   2.922   6.952 -0.1843  0.8466  0.0840
  837MOL0     C12909   3.800   2.935   7.217 -0.0895 -0.0707 -0.4261
  837MOL0     C12910   3.757   2.880   7.337 -0.4257 -0.0795  0.2826
  837MOL0     N12911   3.539   2.341   7.803  0.6484 -0.6214  0.4033
  837MOL0     N12912   3.416   2.382   7.792 -0.4878 -0.0754 -0.7885
  837MOL0     C12913   3.492   3.379   7.486 -0.1462 -0.5121 -0.6238
  837MOL0     C12914   3.521   3.510   7.460 -0.4769 -0.3467  0.3095
  837MOL0     C12915   3.460   3.962   7.443  0.0737  0.5242 -0.5140
  837MOL0     C12916   3.349   4.000   7.361 -1.2845 -0.4399  0.2172
  837MOL0     C12917   3.303   4.139   7.361 -0.7749 -0.5703  1.0928
  837MOL0     C12918   3.386   4.235   7.424  1.0579 -0.7138 -0.4364
  837MOL0     O12919   3.344   4.360   7.455 -0.0242 -0.9111 -0.4359
  837MOL0     C12920   3.245   4.414   7.366 -0.5403  0.1601  0.1538
  837MOL0     C12921   3.243   4.560   7.378 -0.2692 -0.1284  1.9174
  837MOL0     C12922   3.208   4.619   7.518 -0.1661  0.1412  0.0157
  837MOL0     C12923   3.066   4.613   7.574  0.4517  0.1279  1.0477
  837MOL0     C12924   3.048   4.483   7.621  0.5238 -0.3971  0.2877
  837MOL0     C12925   3.014   4.366   7.656  0.0194 -0.4439  0.2611
  837MOL0     C12926   3.502   4.200   7.494 -0.4319 -0.4954  0.3953
  837MOL0     C12927   3.532   4.063   7.501  0.5059 -0.0747 -0.3139
  837MOL0     H12928   3.255   3.612   7.295  0.8461  1.9611  1.1247
  837MOL0     H12929   3.189   3.352   7.340 -1.5470  3.0342 -1.0547
  837MOL0     H12930   3.407   2.994   7.461  2.2390 -0.9329  0.5718
  837MOL0     H12931   3.531   3.111   7.485  2.1489 -4.4970  1.8271
  837MOL0     H12932   3.505   3.008   7.721  2.1194  3.3202  1.9477
  837MOL0     H12933   3.456   3.162   7.727  1.9215 -1.9855  1.9261
  837MOL0     H12934   3.286   3.043   7.831  3.5605  1.8469 -0.8328
  837MOL0     H12935   3.215   3.084   7.667 -0.1406  1.4272  0.7884
  837MOL0     H12936   3.200   2.879   7.580 -0.8923  0.7905 -0.0876
  837MOL0     H12937   3.334   2.810   7.689  0.5794  0.7314  1.4024
  837MOL0     H12938   3.171   2.853   7.884 -1.1565  2.2866 -0.0413
  837MOL0     H12939   3.055   2.913   7.774 -1.8937 -2.0062  3.2717
  837MOL0     H12940   3.007   2.655   7.820  1.6019 -0.7102  1.1996
  837MOL0     H12941   3.053   2.670   7.652 -3.6255 -2.2005  2.4015
  837MOL0     H12942   3.149   2.492   7.709 -0.6837 -0.0691 -0.6049
  837MOL0     H12943   3.266   2.603   7.669 -0.1264 -1.2908 -0.5054
  837MOL0     H12944   3.219   2.488   7.939 -2.1518 -0.5188 -1.9961
  837MOL0     H12945   3.280   2.659   7.932 -2.6234  4.3009 -4.0602
  837MOL0     H12946   3.534   2.621   7.980 -0.1405  0.1624 -0.0372
  837MOL0     H12947   3.784   2.514   7.973  3.1307 -1.4169  1.1952
  837MOL0     H12948   3.805   2.344   7.928  0.6552  0.8297 -0.3073
  837MOL0     H12949   3.858   2.395   7.713 -1.9625 -0.0620 -1.3929
  837MOL0     H12950   3.923   2.527   7.803 -0.9356 -0.4084 -0.0291
  837MOL0     H12951   3.725   2.676   7.759 -0.1245  0.1501  1.1113
  837MOL0     H12952   3.669   2.555   7.636  0.8318 -0.8367  0.8115
  837MOL0     H12953   3.911   2.564   7.545  4.3133  0.8071  1.8849
  837MOL0     H12954   3.913   2.712   7.641 -2.8484  1.4002  0.2327
  837MOL0     H12955   4.032   2.683   7.397  1.8030  2.8783 -0.2634
  837MOL0     H12956   4.217   2.834   7.178 -0.0130 -0.2956  2.0278
  837MOL0     H12957   4.164   2.669   7.232 -3.8149 -0.0068  0.6927
  837MOL0     H12958   4.146   2.735   7.061  2.2892  0.6835  0.1778
  837MOL0     H12959   3.708   2.922   6.732 -1.2071  1.2972 -0.1622
  837MOL0     H12960   3.731   3.028   6.508  0.0601  1.5642 -1.0536
  837MOL0     H12961   3.941   3.378   6.310 -2.7241 -2.7253 -0.7044
  837MOL0     H12962   3.950   3.421   6.472  0.1682  1.3906 -1.0724
  837MOL0     H12963   4.179   3.359   6.375 -1.3880  0.5216  0.4403
  837MOL0     H12964   4.154   3.267   6.519 -0.9620 -2.4937  0.7108
  837MOL0     H12965   4.137   3.068   6.435 -0.2132 -2.0799 -0.0886
  837MOL0     H12966   4.245   3.143   6.316 -0.5449 -2.3022 -1.3185
  837MOL0     H12967   3.961   3.138   6.211 -1.8577 -5.0044 -0.2579
  837MOL0     H12968   4.111   3.144   6.136 -0.5603  2.3564 -0.6026
  837MOL0     H12969   4.142   2.898   6.207 -1.4875 -2.8588  2.4485
  837MOL0     H12970   3.998   2.930   6.108 -3.4069 -2.1891  1.8294
  837MOL0     H12971   4.033   2.873   6.410 -0.2148  0.1224 -0.3314
  837MOL0     H12972   3.871   2.900   6.334  0.2820 -1.5571  3.6742
  837MOL0     H12973   4.054   2.680   6.245 -0.3386 -1.1610  1.5647
  837MOL0     H12974   3.886   2.706   6.198 -0.0311 -0.9202 -0.4376
  837MOL0     H12975   4.004   2.639   6.470  3.9257 -0.9063 -3.1096
  837MOL0     H12976   3.914   2.531   6.367  2.6912 -0.3640 -0.5542
  837MOL0     H12977   3.985   3.333   6.693  1.8064 -1.4341  0.6008
  837MOL0     H12978   3.955   3.228   6.912 -0.1063  2.1962 -0.8792
  837MOL0     H12979   3.732   3.009   7.175  0.5022  1.1345  0.6548
  837MOL0     H12980   3.655   2.892   7.372 -1.4262  1.2119 -2.7456
  837MOL0     H12981   3.568   3.318   7.532  0.2696  0.4533  0.0030
  837MOL0     H12982   3.609   3.557   7.503 -0.1670 -0.4274 -0.2293
  837MOL0     H12983   3.283   3.928   7.314 -0.0885 -1.0605 -0.5524
  837MOL0     H12984   3.207   4.167   7.319  0.6077  1.5111 -0.8900
  837MOL0     H12985   3.267   4.387   7.262  2.8101 -1.1666  1.0536
  837MOL0     H12986   3.148   4.370   7.390  1.6857 -5.3797  0.5401
  837MOL0     H12987   3.165   4.591   7.306  0.3681  0.5590  1.5058
  837MOL0     H12988   3.335   4.614   7.354 -2.0375  2.2059 -0.1042
  837MOL0     H12989   3.239   4.724   7.512  0.6545 -0.1098 -0.4728
  837MOL0     H12990   3.270   4.571   7.595  0.0258 -0.2692 -0.3880
  837MOL0     H12991   2.995   4.618   7.491  0.9213  0.1784  0.6478
  837MOL0     H12992   3.035   4.692   7.643 -4.8433 -0.8141  0.1670
  837MOL0     H12993   3.000   4.269   7.699  3.9033 -0.3794  2.1678
  837MOL0     H12994   3.552   4.285   7.539  0.3403 -0.9987  0.5157
  837MOL0     H12995   3.615   4.027   7.560  1.5835  0.4430 -1.4876
  838MOL0     O12996   6.442   0.105   0.584 -0.0910 -0.2025  0.6524
  838MOL0     C12997   6.321   0.142   0.590 -0.4959  1.0876 -0.7535
  838MOL0     O12998   6.221   0.072   0.647 -0.4366 -0.5463  0.0325
  838MOL0     C12999   6.251  -0.060   0.675  0.8821 -0.5418  1.2150
  838MOL0     C13000   6.275  -0.159   0.581 -0.7637 -0.0659 -0.1499
  838MOL0     C13001   6.325  -0.283   0.618 -0.6290  0.1094  0.5026
  838MOL0     C13002   6.346  -0.314   0.748  0.6747 -0.1986  0.2788
  838MOL0     O13003   6.385  -0.444   0.784 -0.4557  0.5715  0.4638
  838MOL0     C13004   6.517  -0.483   0.755  0.2750 -0.3625  0.4548
  838MOL0     C13005   6.551  -0.610   0.819  0.1180 -0.3877 -0.2889
  838MOL0     C13006   6.448  -0.721   0.776 -1.0938  1.0074  0.1186
  838MOL0     C13007   6.505  -0.861   0.815 -0.2004  0.4649 -0.2750
  838MOL0     C13008   6.388  -0.961   0.810 -0.1801 -0.1791  0.4977
  838MOL0     C13009   6.424  -1.112   0.807  0.1180 -0.4403 -0.3879
  838MOL0     C13010   6.417  -1.176   0.678 -0.2494  0.4114 -0.5518
  838MOL0     C13011   6.510  -1.129   0.569  0.6275 -1.0068  0.5161
  838MOL0     N13012   6.650  -1.143   0.600 -0.1716 -0.2719 -0.1514
  838MOL0     C13013   6.706  -1.260   0.629 -0.9028  0.0228 -0.0005
  838MOL0     C13014   6.831  -1.234   0.682 -0.0032 -0.0210  0.6765
  838MOL0     C13015   6.917  -1.337   0.732 -0.2362  0.0496  0.8850
  838MOL0     C13016   6.851  -1.443   0.830 -1.5879 -0.6692  0.6110
  838MOL0     C13017   6.781  -1.379   0.947 -1.0047 -0.1872  0.0383
  838MOL0     C13018   6.728  -1.499   1.028 -0.6055 -0.2367  0.2334
  838MOL0     O13019   6.715  -1.460   1.166 -0.4694  0.4625 -0.5046
  838MOL0     C13020   6.807  -1.428   1.255 -0.6347  0.6596 -0.0962
  838MOL0     C13021   6.932  -1.478   1.242 -0.0183  0.3205 -0.3037
  838MOL0     C13022   7.030  -1.455   1.349 -0.5916  1.5973 -0.4076
  838MOL0     C13023   7.162  -1.533   1.332  0.6915  0.2789  0.7934
  838MOL0     C13024   7.006  -1.371   1.465  0.0361 -0.3619 -0.4811
  838MOL0     C13025   7.107  -1.353   1.579  0.5593  0.4755 -0.3014
  838MOL0     O13026   7.228  -1.422   1.591  0.6127 -0.5970 -0.4527
  838MOL0     C13027   7.308  -1.397   1.692  0.1712  0.0415  0.6452
  838MOL0     C13028   7.343  -1.263   1.727 -0.7377 -0.1383  0.1289
  838MOL0     C13029   7.421  -1.240   1.840  0.1246  0.1968 -0.5478
  838MOL0     C13030   7.467  -1.344   1.919  0.0509  0.4435  0.1733
  838MOL0     O13031   7.536  -1.310   2.030  0.3377 -0.0121  0.2084
  838MOL0     C13032   7.651  -1.385   2.058 -0.3482 -0.2126  0.1210
  838MOL0     C13033   7.743  -1.320   2.160 -0.2762 -0.0997  0.3215
  838MOL0     C13034   7.838  -1.429   2.205  0.3595  0.4256 -0.5504
  838MOL0     C13035   7.905  -1.402   2.339  0.0560  0.2284 -0.4652
  838MOL0     C13036   8.028  -1.490   2.360 -0.0398  0.5361  0.1543
  838MOL0     C13037   8.095  -1.463   2.495 -0.2200  0.0399 -0.5424
  838MOL0     C13038   8.146  -1.578   2.569  0.4791  0.3102 -0.5185
  838MOL0     C13039   8.221  -1.547   2.697  0.3869  0.1622 -0.6217
  838MOL0    Cl13040   8.334  -1.429   2.663 -0.1186  0.0972  0.1869
  838MOL0     C13041   7.451  -1.473   1.878  0.8070  0.1209 -0.2520
  838MOL0     C13042   7.366  -1.497   1.771  0.3471 -0.8012  0.5657
  838MOL0     O13043   7.067  -1.276   1.666  0.0244 -0.0430 -0.7348
  838MOL0     C13044   6.874  -1.312   1.464 -0.3788 -0.6639  0.4190
  838MOL0     C13045   6.780  -1.346   1.366  0.6305 -0.9001  0.4488
  838MOL0     N13046   6.860  -1.104   0.663 -0.2544 -1.2527  0.1619
  838MOL0     N13047   6.749  -1.049   0.606  0.3790 -0.7826 -0.5526
  838MOL0     C13048   6.317  -0.221   0.842 -0.0923 -0.5571  0.0726
  838MOL0     C13049   6.282  -0.096   0.808 -0.3032  0.6618  0.0738
  838MOL0     C13050   6.291   0.280   0.550  0.9062  0.1868  0.0584
  838MOL0     C13051   6.152   0.327   0.564 -0.6122 -0.3194  0.4127
  838MOL0     C13052   6.136   0.460   0.553 -0.2390  0.1925  0.2782
  838MOL0     C13053   6.237   0.556   0.536 -0.4721  0.7634 -0.2801
  838MOL0     O13054   6.207   0.684   0.535  0.1670 -0.2182 -0.1349
  838MOL0     C13055   6.149   0.746   0.648  0.0338  0.4145 -1.0082
  838MOL0     C13056   6.113   0.888   0.609  0.6099 -0.1491  0.2301
  838MOL0     C13057   6.035   0.962   0.722  0.0677  0.5148 -0.2630
  838MOL0     C13058   5.993   1.098   0.694 -0.0857 -0.7372  0.6501
  838MOL0     C13059   6.094   1.204   0.706 -0.1603  0.6978 -0.5776
  838MOL0     C13060   6.183   1.288   0.703  0.1400  0.3257  0.2559
  838MOL0     C13061   6.364   0.513   0.519  0.2979 -0.1384 -0.3425
  838MOL0     C13062   6.393   0.380   0.522  0.6190  0.5464  1.1200
  838MOL0     H13063   6.265  -0.135   0.475  5.3938 -0.8729 -1.3108
  838MOL0     H13064   6.358  -0.350   0.539 -2.2830  0.6916 -0.7444
  838MOL0     H13065   6.528  -0.517   0.651  3.8617  0.0894  0.5767
  838MOL0     H13066   6.592  -0.412   0.790  1.0809  0.3271 -2.4068
  838MOL0     H13067   6.647  -0.646   0.781 -1.2199 -2.8933 -1.5520
  838MOL0     H13068   6.561  -0.594   0.926  0.8843 -0.8210 -0.2876
  838MOL0     H13069   6.346  -0.710   0.814 -1.3439 -0.5796 -0.0122
  838MOL0     H13070   6.438  -0.727   0.667  2.3452  0.6676 -0.3002
  838MOL0     H13071   6.583  -0.883   0.742  0.3436  0.4537  0.2972
  838MOL0     H13072   6.546  -0.854   0.917 -0.8746 -1.1474  0.1476
  838MOL0     H13073   6.321  -0.951   0.896 -1.0096 -0.0019 -0.1491
  838MOL0     H13074   6.324  -0.936   0.724 -0.5019  1.1016  1.0770
  838MOL0     H13075   6.530  -1.125   0.834  0.4393 -0.8981 -1.7858
  838MOL0     H13076   6.370  -1.158   0.890 -0.6670 -0.7282 -1.0482
  838MOL0     H13077   6.428  -1.284   0.690  2.6937  0.5318 -1.4685
  838MOL0     H13078   6.317  -1.157   0.637 -0.6991  0.0865  0.3745
  838MOL0     H13079   6.490  -1.025   0.538  2.0348 -1.2742 -1.4594
  838MOL0     H13080   6.503  -1.187   0.476  2.0905 -0.7408  0.2147
  838MOL0     H13081   6.659  -1.358   0.623  0.1691 -0.4141 -2.5667
  838MOL0     H13082   6.956  -1.402   0.653 -0.9380 -1.2849  1.6074
  838MOL0     H13083   6.990  -1.282   0.793 -2.5895  3.6986  0.7306
  838MOL0     H13084   6.932  -1.512   0.857  0.8413  0.8986 -2.0107
  838MOL0     H13085   6.775  -1.493   0.770 -2.2344  0.8571  0.1180
  838MOL0     H13086   6.699  -1.319   0.907 -0.1874  1.4703  0.7753
  838MOL0     H13087   6.846  -1.311   1.002 -2.0079 -1.3417  2.8404
  838MOL0     H13088   6.797  -1.582   1.010 -0.1964  0.1143  0.1759
  838MOL0     H13089   6.627  -1.525   0.993 -0.3596 -0.9853  0.0592
  838MOL0     H13090   6.951  -1.546   1.160  3.3970  1.5638 -0.6931
  838MOL0     H13091   7.166  -1.541   1.223 -0.3415  3.5416  0.4125
  838MOL0     H13092   7.257  -1.491   1.368 -0.9237  2.6279  2.6612
  838MOL0     H13093   7.148  -1.631   1.379 -2.3874 -0.5125 -1.4163
  838MOL0     H13094   7.316  -1.174   1.671 -2.0840 -1.0326 -0.7012
  838MOL0     H13095   7.441  -1.139   1.874  1.8234 -0.4596  0.5384
  838MOL0     H13096   7.626  -1.487   2.089  0.3756 -0.8483 -1.3046
  838MOL0     H13097   7.707  -1.397   1.965 -0.0531  1.8094  0.0019
  838MOL0     H13098   7.807  -1.243   2.115  0.3059  0.1911  1.6112
  838MOL0     H13099   7.688  -1.296   2.251  0.1056 -2.8955  1.3718
  838MOL0     H13100   7.911  -1.448   2.126  0.5432  0.1713 -0.3173
  838MOL0     H13101   7.778  -1.519   2.218 -0.5388  1.2917  1.9702
  838MOL0     H13102   7.938  -1.299   2.355 -0.8372  0.2356  1.5750
  838MOL0     H13103   7.836  -1.426   2.420  0.0964  0.3105 -0.4062
  838MOL0     H13104   8.091  -1.479   2.271 -1.9448 -1.9289 -1.6572
  838MOL0     H13105   8.007  -1.597   2.352 -1.9168  0.9421 -1.2676
  838MOL0     H13106   8.174  -1.395   2.463  0.3223 -0.4890 -0.3467
  838MOL0     H13107   8.031  -1.395   2.552  2.2054  1.8637  0.1634
  838MOL0     H13108   8.219  -1.616   2.497 -0.9394  0.5379 -2.1322
  838MOL0     H13109   8.071  -1.653   2.595  2.2226 -1.3711 -0.0016
  838MOL0     H13110   8.274  -1.640   2.724 -1.9198 -0.8695  0.6263
  838MOL0     H13111   8.167  -1.513   2.786  0.0734 -1.6589 -0.0678
  838MOL0     H13112   7.485  -1.560   1.932 -1.8143  0.6906  2.6520
  838MOL0     H13113   7.335  -1.600   1.752 -2.9571  0.4377 -1.6905
  838MOL0     H13114   6.827  -1.262   1.548  1.2333 -3.0029  2.8745
  838MOL0     H13115   6.675  -1.321   1.376 -0.4594 -4.4150 -0.8388
  838MOL0     H13116   6.326  -0.247   0.947  0.9998  0.9551  0.3812
  838MOL0     H13117   6.285  -0.025   0.890 -0.8284 -0.9097  1.4880
  838MOL0     H13118   6.065   0.265   0.540 -1.6141  1.4230 -0.7089
  838MOL0     H13119   6.036   0.500   0.564 -0.5901 -0.1353 -1.4342
  838MOL0     H13120   6.061   0.697   0.690  2.2216 -1.6626  1.5683
  838MOL0     H13121   6.222   0.751   0.730  1.1981 -1.6837 -1.8437
  838MOL0     H13122   6.045   0.880   0.524 -1.9378 -0.2437  2.1567
  838MOL0     H13123   6.202   0.944   0.578 -0.6246  1.0018 -1.4060
  838MOL0     H13124   6.093   0.965   0.815 -2.5025 -0.9349  1.5132
  838MOL0     H13125   5.950   0.894   0.735  1.2123 -1.2538 -1.5683
  838MOL0     H13126   5.908   1.129   0.755  0.9306  0.4017  1.5436
  838MOL0     H13127   5.962   1.101   0.590 -4.0108  0.5986  1.6996
  838MOL0     H13128   6.257   1.366   0.701  0.9934 -0.4661 -1.5745
  838MOL0     H13129   6.433   0.595   0.502 -0.8121  1.3796  1.9075
  838MOL0     H13130   6.496   0.348   0.509  0.8042  1.0462  1.3523
  839MOL0     O13131   7.995  10.325   5.736  0.6232 -0.6280 -0.0503
  839MOL0     C13132   7.879  10.367   5.729  0.4190 -0.6276  0.4959
  839MOL0     O13133   7.791  10.374   5.833  0.1107  0.2422 -0.1942
  839MOL0     C13134   7.800  10.261   5.922  0.9183  0.2015  0.0063
  839MOL0     C13135   7.769  10.133   5.884  0.6753  0.1945 -0.3316
  839MOL0     C13136   7.783  10.025   5.966 -0.5492  0.2196 -0.1083
  839MOL0     C13137   7.832  10.041   6.097  0.6968  0.8789  0.0181
  839MOL0     O13138   7.850   9.939   6.184  0.1537  1.0582  0.5410
  839MOL0     C13139   7.760   9.831   6.176  0.0829 -0.1037  0.3565
  839MOL0     C13140   7.624   9.875   6.242 -0.3254 -0.5676 -0.0975
  839MOL0     C13141   7.517   9.762   6.259 -0.0047  0.1148  0.8151
  839MOL0     C13142   7.397   9.817   6.335  0.2899 -0.5623  0.2716
  839MOL0     C13143   7.268   9.726   6.349  0.2559 -0.1812  0.9410
  839MOL0     C13144   7.278   9.603   6.434 -0.2801  0.1306  0.5153
  839MOL0     C13145   7.141   9.531   6.438 -1.3459  0.4133 -0.4762
  839MOL0     C13146   7.130   9.422   6.549  0.5602 -0.9411  0.0746
  839MOL0     N13147   7.136   9.286   6.490  0.0186  0.0317  0.5417
  839MOL0     C13148   7.195   9.181   6.559  0.2635 -0.8187 -0.2816
  839MOL0     C13149   7.156   9.060   6.511 -0.0345 -0.4045  0.2858
  839MOL0     C13150   7.206   8.921   6.543 -0.5315  0.3961 -0.5901
  839MOL0     C13151   7.345   8.899   6.495 -0.7430 -0.4681 -0.1827
  839MOL0     C13152   7.369   8.767   6.424  0.0768  0.3134 -0.2042
  839MOL0     C13153   7.529   8.747   6.414  0.2205  0.9183 -0.5727
  839MOL0     O13154   7.602   8.864   6.391  0.6193  0.5812 -0.3765
  839MOL0     C13155   7.736   8.838   6.379  0.5231 -0.7025 -0.0431
  839MOL0     C13156   7.812   8.716   6.374 -1.0296 -0.1049  0.5008
  839MOL0     C13157   7.953   8.713   6.385 -0.2706  0.1389  0.4844
  839MOL0     C13158   8.025   8.582   6.405 -0.2825  1.3671  0.9545
  839MOL0     C13159   8.026   8.835   6.375  1.3728  0.4670 -0.3229
  839MOL0     C13160   8.172   8.840   6.371  0.9932 -1.3022  0.3879
  839MOL0     O13161   8.218   8.941   6.445 -0.5556 -0.0902  0.2256
  839MOL0     C13162   8.352   8.961   6.454 -0.1535  0.7605 -1.4361
  839MOL0     C13163   8.444   8.861   6.460 -0.1540 -1.4105 -0.3077
  839MOL0     C13164   8.579   8.900   6.460 -0.2825  0.3065 -0.8335
  839MOL0     C13165   8.616   9.032   6.438 -0.0904  0.0306 -0.0219
  839MOL0     O13166   8.744   9.080   6.424  0.5650 -0.2899 -0.5072
  839MOL0     C13167   8.855   8.990   6.433 -0.3441  0.6192  0.6583
  839MOL0     C13168   8.985   9.073   6.419  0.0138  0.4409  0.2873
  839MOL0     C13169   9.105   8.989   6.383 -0.5500  0.0728  0.9730
  839MOL0     C13170   9.236   9.069   6.365 -0.5614  0.1913 -0.3256
  839MOL0     C13171   9.307   9.086   6.496 -0.0755 -0.3270  0.0587
  839MOL0     C13172   9.344   8.952   6.570  0.2426 -0.3261  0.9248
  839MOL0     C13173   9.465   8.985   6.675  0.3689  0.2459  0.0820
  839MOL0     C13174   9.599   8.989   6.601  0.0912  0.2576 -0.5681
  839MOL0    Cl13175   9.722   9.070   6.714  0.0489 -0.0060  0.3042
  839MOL0     C13176   8.527   9.132   6.433  0.6837 -0.2268 -0.7927
  839MOL0     C13177   8.390   9.097   6.447  0.4650 -0.3336 -0.2602
  839MOL0     O13178   8.232   8.766   6.294  0.3782 -1.0096 -0.7143
  839MOL0     C13179   7.955   8.953   6.377  0.4221  0.9665 -0.1072
  839MOL0     C13180   7.813   8.958   6.372  0.5751 -0.1192 -0.3874
  839MOL0     N13181   7.056   9.097   6.419 -0.4492 -0.2999 -0.6337
  839MOL0     N13182   7.042   9.225   6.406  0.7635 -0.7895  0.4759
  839MOL0     C13183   7.856  10.176   6.137  0.6937  0.6974 -0.7119
  839MOL0     C13184   7.838  10.282   6.062 -0.8767 -1.0675  0.1871
  839MOL0     C13185   7.834  10.425   5.598  0.9229 -0.1143  0.5199
  839MOL0     C13186   7.920  10.443   5.486 -0.0769  0.3014  0.7791
  839MOL0     C13187   7.869  10.496   5.366 -0.1401  0.7455 -0.9612
  839MOL0     C13188   7.741  10.529   5.348  0.4472  0.5992 -0.4929
  839MOL0     O13189   7.709  10.595   5.236 -0.1935 -0.8987 -0.0442
  839MOL0     C13190   7.576  10.637   5.214 -0.6466 -0.2318 -0.2099
  839MOL0     C13191   7.559  10.723   5.082  0.2422 -0.1678 -0.2550
  839MOL0     C13192   7.416  10.779   5.076  0.6294  0.1517 -0.5897
  839MOL0     C13193   7.379  10.884   4.973  0.2806  0.8584 -0.0787
  839MOL0     C13194   7.369  10.805   4.848 -0.6443 -0.1142 -0.7690
  839MOL0     C13195   7.399  10.759   4.740  0.6313 -0.3739  0.6419
  839MOL0     C13196   7.659  10.494   5.455  0.2040 -0.7560  0.6069
  839MOL0     C13197   7.699  10.442   5.573 -0.1818 -0.6387 -0.9958
  839MOL0     H13198   7.738  10.106   5.784  4.3959 -2.0691 -1.0592
  839MOL0     H13199   7.769   9.928   5.919  1.3955  1.1605 -2.8515
  839MOL0     H13200   7.760   9.777   6.081 -2.4045 -2.3515  1.5137
  839MOL0     H13201   7.806   9.756   6.240  0.4051  0.4557  0.7891
  839MOL0     H13202   7.641   9.919   6.340  4.2489 -0.8824 -0.5173
  839MOL0     H13203   7.576   9.950   6.179 -1.7357  0.6040  2.2792
  839MOL0     H13204   7.496   9.733   6.156  3.1029  1.0498 -0.1830
  839MOL0     H13205   7.559   9.677   6.312  1.7570  0.1792 -0.4038
  839MOL0     H13206   7.424   9.856   6.433  0.3462 -1.0254  0.4431
  839MOL0     H13207   7.359   9.905   6.283 -3.7308  0.1904  3.9520
  839MOL0     H13208   7.202   9.800   6.396  2.3126  1.1912  1.8443
  839MOL0     H13209   7.239   9.706   6.245  1.3610 -0.3401  0.6496
  839MOL0     H13210   7.349   9.537   6.384 -1.6759  0.2847 -1.7757
  839MOL0     H13211   7.316   9.631   6.533  0.4743 -3.8155  1.5065
  839MOL0     H13212   7.062   9.597   6.475 -0.6135  0.4942  0.9847
  839MOL0     H13213   7.116   9.477   6.346  0.3400 -0.8969 -0.1994
  839MOL0     H13214   7.039   9.435   6.607  0.9891  5.5022  0.0740
  839MOL0     H13215   7.211   9.451   6.617 -0.5098 -1.4571  1.5953
  839MOL0     H13216   7.269   9.196   6.637 -2.5160 -0.2919  2.4345
  839MOL0     H13217   7.207   8.902   6.651  3.8931 -3.7127 -1.0055
  839MOL0     H13218   7.149   8.846   6.487  1.9294  0.3910 -3.3532
  839MOL0     H13219   7.410   8.909   6.583 -0.0280  0.8053 -0.8297
  839MOL0     H13220   7.371   8.978   6.424 -1.0872  0.5718  0.8184
  839MOL0     H13221   7.334   8.780   6.321 -0.3654  1.1692  0.0434
  839MOL0     H13222   7.331   8.694   6.496  0.8140  1.4727  1.4251
  839MOL0     H13223   7.540   8.686   6.324  0.6038 -1.1235  0.7997
  839MOL0     H13224   7.560   8.695   6.505 -0.4971  3.9970  1.5838
  839MOL0     H13225   7.762   8.620   6.385 -0.4294 -0.9144 -2.6012
  839MOL0     H13226   8.082   8.543   6.320  0.1417  0.1171  1.7792
  839MOL0     H13227   8.104   8.596   6.480  3.9236  3.2164 -3.2800
  839MOL0     H13228   7.948   8.508   6.429 -1.3576  1.1778 -2.5488
  839MOL0     H13229   8.417   8.756   6.452 -1.2431 -1.2458  0.9349
  839MOL0     H13230   8.659   8.827   6.468  0.6837  1.5108  1.4799
  839MOL0     H13231   8.850   8.939   6.529  1.4169 -1.1004 -0.0845
  839MOL0     H13232   8.838   8.908   6.362 -2.7170  0.0309  1.8165
  839MOL0     H13233   8.970   9.139   6.333 -2.6804 -0.9911 -0.4667
  839MOL0     H13234   8.977   9.126   6.514  0.4108 -1.3249  1.3663
  839MOL0     H13235   9.084   8.943   6.286 -0.1227 -1.0931  1.4241
  839MOL0     H13236   9.129   8.901   6.443  2.3968 -0.7542 -1.1672
  839MOL0     H13237   9.296   9.008   6.297 -1.3075 -0.9695  0.0149
  839MOL0     H13238   9.218   9.166   6.319  0.0636  0.3083 -0.3269
  839MOL0     H13239   9.247   9.140   6.570 -1.3180 -1.7778  0.1470
  839MOL0     H13240   9.397   9.140   6.465 -1.3380  0.9034 -1.6961
  839MOL0     H13241   9.259   8.924   6.633 -1.5941 -2.1998 -2.1114
  839MOL0     H13242   9.365   8.878   6.492  0.7154  4.1512 -3.6828
  839MOL0     H13243   9.474   8.899   6.742  1.0917 -0.5011 -0.9334
  839MOL0     H13244   9.441   9.079   6.726 -3.5012 -0.0373 -0.8964
  839MOL0     H13245   9.580   9.038   6.505  1.4933 -2.2057 -2.2277
  839MOL0     H13246   9.618   8.885   6.574 -2.6628 -0.5560  0.3610
  839MOL0     H13247   8.571   9.230   6.420  0.6291 -0.0853  0.0683
  839MOL0     H13248   8.316   9.176   6.453  0.2110 -0.6503  1.2602
  839MOL0     H13249   8.005   9.049   6.388 -1.3230  1.9410 -0.2854
  839MOL0     H13250   7.761   9.053   6.360  0.4691 -0.2081 -0.6273
  839MOL0     H13251   7.891  10.189   6.239 -2.2992 -2.0407  0.8191
  839MOL0     H13252   7.886  10.372   6.101  2.4930 -2.1548 -1.1063
  839MOL0     H13253   8.027  10.435   5.501  0.6899  1.2704 -2.9874
  839MOL0     H13254   7.935  10.528   5.286 -1.1363  3.2010 -0.8876
  839MOL0     H13255   7.510  10.550   5.209 -2.3032  0.8986  0.8123
  839MOL0     H13256   7.543  10.708   5.291  2.4445 -1.3645  2.3670
  839MOL0     H13257   7.580  10.646   5.007 -0.6669  0.2986 -1.0079
  839MOL0     H13258   7.623  10.812   5.090 -1.1305  0.7746  0.8326
  839MOL0     H13259   7.397  10.807   5.180  3.1047 -1.6452  0.4494
  839MOL0     H13260   7.353  10.692   5.054  1.3417 -0.4866 -0.1752
  839MOL0     H13261   7.453  10.964   4.967 -1.4268  2.5394  0.1511
  839MOL0     H13262   7.279  10.921   4.997 -0.9656 -2.0168 -0.3134
  839MOL0     H13263   7.416  10.695   4.656 -1.2782 -1.6472  1.1862
  839MOL0     H13264   7.552  10.512   5.454 -0.1868 -2.7900 -1.2064
  839MOL0     H13265   7.629  10.406   5.648  2.0098 -1.4388  0.7722
  840MOL0     O13266   5.942   9.975   2.216  0.8638  1.1408 -0.2890
  840MOL0     C13267   6.054   9.948   2.195 -1.2617 -0.3928  0.2447
  840MOL0     O13268   6.153  10.027   2.141 -0.0988  0.0193 -0.1898
  840MOL0     C13269   6.137  10.161   2.118  0.1922  0.2702  1.0115
  840MOL0     C13270   6.221  10.199   2.016  0.4039 -0.3749 -0.2040
  840MOL0     C13271   6.213  10.337   1.964 -0.4848  0.1674  0.3206
  840MOL0     C13272   6.132  10.429   2.025  0.0337  0.3763 -0.0236
  840MOL0     O13273   6.132  10.561   1.965  0.9910  0.4636 -0.6005
  840MOL0     C13274   6.059  10.667   2.032  0.2106 -0.8098  1.0022
  840MOL0     C13275   6.071  10.795   1.944  0.1263  0.6233 -0.7776
  840MOL0     C13276   6.049  10.773   1.794  0.8397  0.8283  0.3142
  840MOL0     C13277   6.047  10.914   1.728  0.9758 -0.4279  0.0006
  840MOL0     C13278   6.052  10.915   1.569 -0.1169 -0.4814  0.0161
  840MOL0     C13279   5.910  10.870   1.519  0.3345 -0.0624  0.1169
  840MOL0     C13280   5.919  10.879   1.363 -0.0356 -0.1766  0.0868
  840MOL0     C13281   5.777  10.866   1.317  0.8314  0.0342  0.2391
  840MOL0     N13282   5.777  10.881   1.171  0.5622 -0.7469  0.0665
  840MOL0     C13283   5.734  10.995   1.097 -0.0968 -0.3205 -0.8829
  840MOL0     C13284   5.745  10.956   0.966 -1.0476  0.0705  0.6324
  840MOL0     C13285   5.716  11.057   0.853 -0.5250 -0.2276  0.5786
  840MOL0     C13286   5.599  11.004   0.767 -0.7509  0.6233 -0.0704
  840MOL0     C13287   5.580  11.099   0.649 -0.6200 -0.1005  0.1383
  840MOL0     C13288   5.455  11.052   0.576 -0.1067  0.8280  0.1264
  840MOL0     O13289   5.419  11.122   0.449 -0.2545  0.0632 -0.3783
  840MOL0     C13290   5.342  11.241   0.460 -1.1087 -0.0779 -0.2292
  840MOL0     C13291   5.321  11.325   0.571 -0.0081 -0.0753  1.0169
  840MOL0     C13292   5.227  11.425   0.563 -0.5085 -0.0615  0.9042
  840MOL0     C13293   5.198  11.513   0.687  0.0371  0.8581  1.0948
  840MOL0     C13294   5.148  11.446   0.441  0.3587  0.3272 -0.6948
  840MOL0     C13295   5.031  11.544   0.429  0.2652 -0.6856 -0.0267
  840MOL0     O13296   4.946  11.534   0.319  0.0985  0.4274 -0.0897
  840MOL0     C13297   4.833  11.612   0.310 -0.1300 -0.9290  0.4636
  840MOL0     C13298   4.846  11.753   0.300 -0.8589 -0.7083 -0.7767
  840MOL0     C13299   4.736  11.829   0.271 -0.4430  0.2673  0.2266
  840MOL0     C13300   4.608  11.773   0.245  0.4786  0.0425 -0.7851
  840MOL0     O13301   4.500  11.854   0.216  0.9596 -0.0360 -0.3574
  840MOL0     C13302   4.518  11.935   0.105 -0.5890 -0.7726  0.2644
  840MOL0     C13303   4.388  11.999   0.042 -0.2594 -0.1876 -1.0975
  840MOL0     C13304   4.296  11.889   0.004 -0.2759 -0.1424  0.6935
  840MOL0     C13305   4.349  11.803  -0.112 -0.4372 -0.2574 -0.0971
  840MOL0     C13306   4.225  11.750  -0.187  0.3936 -1.1833  1.5267
  840MOL0     C13307   4.271  11.664  -0.306 -0.0670 -0.7925  0.3313
  840MOL0     C13308   4.144  11.624  -0.374 -0.3639  0.5959 -1.1380
  840MOL0     C13309   4.169  11.548  -0.501 -0.0756 -0.6484 -0.2692
  840MOL0    Cl13310   4.317  11.435  -0.508  0.2012  0.0438  0.1943
  840MOL0     C13311   4.595  11.631   0.247 -0.3032 -0.1021  0.2304
  840MOL0     C13312   4.714  11.553   0.278 -0.0655 -0.1386 -0.2727
  840MOL0     O13313   5.020  11.634   0.514 -0.2945 -0.3234 -0.3645
  840MOL0     C13314   5.175  11.361   0.333  0.0615 -0.7837  1.2840
  840MOL0     C13315   5.272  11.268   0.341 -0.5154 -0.4657  0.2164
  840MOL0     N13316   5.796  10.822   0.965 -0.1139 -0.4808  0.0481
  840MOL0     N13317   5.802  10.783   1.087  0.7788  0.2243 -0.0937
  840MOL0     C13318   6.049  10.379   2.129 -0.1832 -0.5568  0.3912
  840MOL0     C13319   6.045  10.249   2.179  0.0106 -0.2232  0.0794
  840MOL0     C13320   6.095   9.807   2.217 -0.8459  0.9712  0.3555
  840MOL0     C13321   6.010   9.724   2.287  0.1615 -0.7245  0.9412
  840MOL0     C13322   6.047   9.585   2.314  0.6181 -0.3519 -0.3966
  840MOL0     C13323   6.161   9.523   2.249  1.1557 -0.1660  0.0245
  840MOL0     O13324   6.200   9.388   2.266  0.0654 -0.6889  0.5213
  840MOL0     C13325   6.101   9.295   2.319 -0.0063  0.4950  0.4138
  840MOL0     C13326   5.992   9.268   2.206  0.3083 -0.6573 -0.0901
  840MOL0     C13327   6.053   9.189   2.095 -0.1880 -0.4111  1.3709
  840MOL0     C13328   5.947   9.120   2.010 -0.3751 -0.8104 -0.0987
  840MOL0     C13329   5.870   9.004   2.073 -0.7247 -1.5577  0.1495
  840MOL0     C13330   5.794   8.921   2.126  1.2155  0.4251  0.2121
  840MOL0     C13331   6.241   9.617   2.175  0.3467  0.3082  0.2651
  840MOL0     C13332   6.218   9.753   2.163  0.2528 -0.1581  0.5380
  840MOL0     H13333   6.279  10.131   1.955 -0.8993 -1.1210 -0.6405
  840MOL0     H13334   6.265  10.355   1.870 -0.5470 -0.8140  0.0892
  840MOL0     H13335   5.960  10.637   2.068 -1.1755 -1.7931 -3.1179
  840MOL0     H13336   6.116  10.693   2.122  1.3480  0.0721  0.0661
  840MOL0     H13337   6.001  10.869   1.984 -0.8011 -0.8671  0.4523
  840MOL0     H13338   6.176  10.827   1.953  0.0107  1.5895 -2.3435
  840MOL0     H13339   6.132  10.718   1.751 -1.4810 -1.8029 -1.1640
  840MOL0     H13340   5.952  10.725   1.773  0.4408  1.2277  1.1865
  840MOL0     H13341   5.954  10.961   1.763 -0.4184 -0.3199 -3.4547
  840MOL0     H13342   6.126  10.977   1.769  0.7283  2.0717 -3.0451
  840MOL0     H13343   6.076  11.014   1.530  1.7366 -0.5722  0.8331
  840MOL0     H13344   6.120  10.843   1.523 -0.2827 -1.1157  0.7312
  840MOL0     H13345   5.897  10.764   1.545  1.8385 -0.1553  0.5799
  840MOL0     H13346   5.831  10.931   1.564  1.3623 -0.7156  3.0563
  840MOL0     H13347   5.954  10.979   1.337 -0.2370  0.5001  2.1868
  840MOL0     H13348   5.987  10.807   1.317  3.3165  1.9817  1.2955
  840MOL0     H13349   5.717  10.947   1.360 -1.4980 -1.3786 -0.2114
  840MOL0     H13350   5.740  10.765   1.337 -1.0740  0.0993 -2.4590
  840MOL0     H13351   5.707  11.091   1.141  1.7237  1.1674 -2.7954
  840MOL0     H13352   5.702  11.160   0.887  1.9519  1.0029 -1.6486
  840MOL0     H13353   5.805  11.071   0.789  0.1730  1.4266  1.8146
  840MOL0     H13354   5.512  10.968   0.822  1.2988 -3.2411  1.0573
  840MOL0     H13355   5.636  10.915   0.715 -1.1794  1.6055 -2.1401
  840MOL0     H13356   5.668  11.083   0.586  1.2057 -0.0586  2.5274
  840MOL0     H13357   5.567  11.206   0.670 -2.8361 -0.0039 -1.3199
  840MOL0     H13358   5.376  11.055   0.651  2.2027 -2.0503  2.9310
  840MOL0     H13359   5.466  10.947   0.549 -0.4416  0.2717  2.0652
  840MOL0     H13360   5.372  11.317   0.667 -1.4763 -2.9217  1.6657
  840MOL0     H13361   5.186  11.622   0.678  1.4336  0.8947 -1.2318
  840MOL0     H13362   5.118  11.459   0.739  0.5208 -1.8325 -0.7472
  840MOL0     H13363   5.288  11.517   0.749 -0.1441 -1.7343  1.6384
  840MOL0     H13364   4.938  11.809   0.314 -2.1791  1.0500  1.5127
  840MOL0     H13365   4.743  11.936   0.254  1.2504 -0.0075 -1.1040
  840MOL0     H13366   4.593  12.013   0.121  1.2631 -2.3384 -0.3321
  840MOL0     H13367   4.566  11.877   0.025  0.4765  1.7940 -1.0778
  840MOL0     H13368   4.348  12.070   0.115  0.3383 -2.0299  1.1516
  840MOL0     H13369   4.411  12.062  -0.044  0.7030  2.0419  0.6867
  840MOL0     H13370   4.203  11.939  -0.023  1.6231  2.7710 -0.8826
  840MOL0     H13371   4.269  11.818   0.083 -2.4049  0.2498  0.3801
  840MOL0     H13372   4.421  11.858  -0.173 -0.2936 -0.2238  0.1017
  840MOL0     H13373   4.409  11.717  -0.080  1.4033  1.3815  1.0423
  840MOL0     H13374   4.156  11.830  -0.216  0.8459 -1.0658  0.7451
  840MOL0     H13375   4.175  11.680  -0.119 -0.9478 -1.3330  0.4166
  840MOL0     H13376   4.335  11.724  -0.372 -0.6934 -1.6405 -1.0899
  840MOL0     H13377   4.335  11.586  -0.265  0.4368 -0.8623 -0.5725
  840MOL0     H13378   4.106  11.720  -0.409  0.4789  0.5967 -2.1212
  840MOL0     H13379   4.073  11.573  -0.309 -3.0918  2.8382 -2.1536
  840MOL0     H13380   4.169  11.610  -0.591 -0.0475  0.4324  0.4600
  840MOL0     H13381   4.087  11.479  -0.521  1.0834 -2.4484  0.7855
  840MOL0     H13382   4.497  11.596   0.218 -0.0005 -0.5119 -0.3219
  840MOL0     H13383   4.726  11.447   0.258 -0.0637 -1.3036  4.6395
  840MOL0     H13384   5.113  11.368   0.244 -1.0188 -0.4677  2.0316
  840MOL0     H13385   5.304  11.205   0.259 -1.3297 -0.5562 -0.0495
  840MOL0     H13386   5.991  10.452   2.184  2.7598  1.4700  1.0746
  840MOL0     H13387   5.986  10.225   2.267 -1.5569  0.7912 -0.6729
  840MOL0     H13388   5.913   9.763   2.317  0.9147  1.7823  0.2912
  840MOL0     H13389   5.987   9.523   2.380  1.9706 -0.9518  0.3243
  840MOL0     H13390   6.159   9.205   2.343  0.9705  1.5616  2.2637
  840MOL0     H13391   6.050   9.320   2.412 -1.0325  0.5873 -0.1586
  840MOL0     H13392   5.953   9.362   2.167  2.4543 -0.0956 -1.0194
  840MOL0     H13393   5.912   9.205   2.247  0.9773 -1.1868  0.4460
  840MOL0     H13394   6.111   9.100   2.123  1.0614  0.9294  3.3374
  840MOL0     H13395   6.115   9.250   2.030 -0.6853  0.6120  1.8392
  840MOL0     H13396   6.003   9.071   1.930 -1.7189 -2.9497  0.2069
  840MOL0     H13397   5.882   9.195   1.963 -0.8083 -1.6289 -0.8229
  840MOL0     H13398   5.723   8.862   2.179 -2.1705  3.7662 -0.1885
  840MOL0     H13399   6.337   9.581   2.139 -0.8133 -1.4981 -1.1872
  840MOL0     H13400   6.291   9.827   2.130  2.4243 -2.2724  0.3746
  841MOL0     O13401   0.209   2.148   3.135 -0.2021  0.5154  0.7455
  841MOL0     C13402   0.183   2.027   3.142 -0.5623 -0.7782  0.4713
  841MOL0     O13403   0.191   1.950   3.034  0.1156 -1.0423 -0.7517
  841MOL0     C13404   0.249   2.012   2.928  0.6595 -0.0732  0.6382
  841MOL0     C13405   0.178   2.066   2.826 -0.6703 -0.4225  0.3703
  841MOL0     C13406   0.247   2.115   2.710  0.9069 -0.7110  0.6902
  841MOL0     C13407   0.380   2.099   2.693  0.7182 -0.0679  0.1843
  841MOL0     O13408   0.424   2.148   2.574  0.1460  0.1609 -0.0103
  841MOL0     C13409   0.561   2.214   2.579  0.2414 -0.0514  0.0080
  841MOL0     C13410   0.580   2.333   2.493 -0.0361 -0.2993  0.0900
  841MOL0     C13411   0.516   2.321   2.360 -0.7756 -0.3849  1.0050
  841MOL0     C13412   0.582   2.441   2.276  0.6243  0.7211 -0.7601
  841MOL0     C13413   0.570   2.415   2.130  0.7208  0.6953  0.3218
  841MOL0     C13414   0.622   2.534   2.047  1.3226  0.0056 -0.3868
  841MOL0     C13415   0.775   2.533   2.036  0.0612  0.4777 -0.0581
  841MOL0     C13416   0.823   2.417   1.952 -0.7885  0.6137  0.7596
  841MOL0     N13417   0.968   2.432   1.903 -0.1932 -0.3748  0.3278
  841MOL0     C13418   1.016   2.391   1.777  0.6463  0.8220 -1.6007
  841MOL0     C13419   1.145   2.416   1.784  0.6271  0.9269 -0.8062
  841MOL0     C13420   1.238   2.375   1.677  0.8004 -0.6613  0.0329
  841MOL0     C13421   1.210   2.467   1.552  0.3254  0.5621  0.2140
  841MOL0     C13422   1.273   2.611   1.579  0.7968 -0.4666 -0.2104
  841MOL0     C13423   1.407   2.640   1.508  0.5721 -0.0953  0.0859
  841MOL0     O13424   1.518   2.565   1.564 -0.4030  0.5779 -0.5878
  841MOL0     C13425   1.579   2.596   1.681  0.1872 -0.5263  0.6934
  841MOL0     C13426   1.692   2.527   1.704  0.1511  0.3515  0.7722
  841MOL0     C13427   1.772   2.546   1.821  0.1088  0.0525  0.0770
  841MOL0     C13428   1.896   2.450   1.839 -0.1819 -0.0642 -0.4256
  841MOL0     C13429   1.743   2.655   1.910 -0.3452  0.0191  0.3231
  841MOL0     C13430   1.836   2.693   2.034  1.0530 -0.0498  0.1513
  841MOL0     O13431   1.835   2.829   2.068  0.1900  0.5408  0.0768
  841MOL0     C13432   1.939   2.880   2.138 -0.1971 -0.3581 -0.1138
  841MOL0     C13433   2.073   2.848   2.105 -0.4363  1.2068 -1.4686
  841MOL0     C13434   2.178   2.907   2.175  0.3622  0.0566 -0.6411
  841MOL0     C13435   2.150   3.006   2.269 -1.0289 -0.3698 -1.1463
  841MOL0     O13436   2.259   3.043   2.332 -0.1192 -0.1578 -0.0108
  841MOL0     C13437   2.262   3.067   2.475  0.4087  0.0980 -1.1189
  841MOL0     C13438   2.393   3.131   2.522 -0.2785  0.1573 -0.5335
  841MOL0     C13439   2.385   3.227   2.643  0.1569 -0.0450  0.5500
  841MOL0     C13440   2.470   3.175   2.753  0.8772  0.4962 -0.3088
  841MOL0     C13441   2.469   3.257   2.881 -0.1278 -0.0885 -0.4019
  841MOL0     C13442   2.571   3.184   2.981 -0.2184  0.4012  0.7452
  841MOL0     C13443   2.585   3.254   3.121  0.5193  0.0352  0.4878
  841MOL0     C13444   2.456   3.303   3.195  0.0874  0.4947  0.4839
  841MOL0    Cl13445   2.483   3.428   3.302  0.5521  0.3770 -0.5707
  841MOL0     C13446   2.020   3.041   2.302 -0.3297 -0.1578  0.7405
  841MOL0     C13447   1.916   2.979   2.237  0.0955  0.2171 -0.5331
  841MOL0     O13448   1.901   2.610   2.090  0.0710  0.1293 -0.5851
  841MOL0     C13449   1.622   2.736   1.877  0.3591 -0.8424 -0.6704
  841MOL0     C13450   1.543   2.701   1.760  0.4860 -0.9978 -0.9846
  841MOL0     N13451   1.169   2.497   1.893 -0.0453  0.7021  0.6375
  841MOL0     N13452   1.063   2.497   1.966 -0.3130 -0.0906 -0.6574
  841MOL0     C13453   0.450   2.057   2.802 -0.2066  0.3696  1.0824
  841MOL0     C13454   0.385   2.014   2.921  0.4075 -0.1517  0.5048
  841MOL0     C13455   0.141   1.966   3.272 -0.1981 -0.2294  0.0182
  841MOL0     C13456   0.130   2.041   3.384 -0.4918 -0.0036 -0.1265
  841MOL0     C13457   0.094   1.989   3.506  1.1452  0.2261  0.3730
  841MOL0     C13458   0.051   1.855   3.520  0.3512 -0.5204 -0.1081
  841MOL0     O13459   0.008   1.792   3.634  0.1459 -0.7551  0.6342
  841MOL0     C13460   0.039   1.853   3.761  0.2057  0.0374 -0.1395
  841MOL0     C13461  -0.074   1.952   3.798  0.1576 -0.3726  0.8840
  841MOL0     C13462  -0.053   2.032   3.930  0.7644 -0.0611  0.0178
  841MOL0     C13463  -0.138   2.164   3.914 -0.0428 -0.1352 -1.0443
  841MOL0     C13464  -0.098   2.275   3.820 -0.4657 -0.6197 -0.4530
  841MOL0     C13465  -0.066   2.376   3.756 -0.7097  0.1448  0.3898
  841MOL0     C13466   0.040   1.778   3.404 -0.8362  0.5325 -0.4035
  841MOL0     C13467   0.084   1.828   3.278  0.3598 -0.8206 -0.8723
  841MOL0     H13468   0.071   2.061   2.812 -1.2098  3.2985  2.0479
  841MOL0     H13469   0.187   2.164   2.635 -0.4353 -1.9029  0.9399
  841MOL0     H13470   0.569   2.249   2.682  0.9645 -1.4420  0.4452
  841MOL0     H13471   0.641   2.141   2.564  1.2312  0.6800  1.5234
  841MOL0     H13472   0.540   2.419   2.547  2.2244  0.8062  0.1118
  841MOL0     H13473   0.687   2.351   2.482  0.1983 -2.2037 -1.4186
  841MOL0     H13474   0.557   2.234   2.308  1.3798  1.3383 -0.3694
  841MOL0     H13475   0.407   2.309   2.364 -0.7351 -0.7657  0.9921
  841MOL0     H13476   0.529   2.532   2.304 -3.8187 -1.4666 -1.0483
  841MOL0     H13477   0.687   2.462   2.297  1.0702 -1.1418 -0.9362
  841MOL0     H13478   0.603   2.312   2.113  0.9154  0.6077  1.2268
  841MOL0     H13479   0.463   2.405   2.109  0.5478  2.4733  0.2364
  841MOL0     H13480   0.584   2.524   1.945  2.7321 -3.4403 -0.7384
  841MOL0     H13481   0.592   2.628   2.092  1.7937  0.5491 -1.1890
  841MOL0     H13482   0.796   2.627   1.985 -5.1007  1.4957 -0.8058
  841MOL0     H13483   0.833   2.529   2.129  3.4955 -0.8284 -2.0510
  841MOL0     H13484   0.745   2.406   1.877  0.8038  0.5087 -0.9505
  841MOL0     H13485   0.824   2.321   2.005  1.5693  0.0954 -0.1064
  841MOL0     H13486   0.954   2.337   1.707 -2.8511  1.1850  0.9762
  841MOL0     H13487   1.335   2.388   1.726  0.3425 -2.9278  1.6958
  841MOL0     H13488   1.206   2.272   1.659 -1.5379 -0.0165  0.1653
  841MOL0     H13489   1.103   2.469   1.529  0.6223 -0.1055 -1.2993
  841MOL0     H13490   1.260   2.424   1.465 -2.5776 -0.9169 -0.8505
  841MOL0     H13491   1.276   2.635   1.686  1.2954  0.8581 -0.5039
  841MOL0     H13492   1.204   2.684   1.537  0.1318  0.3426  2.1301
  841MOL0     H13493   1.427   2.748   1.504  1.7622 -0.2081  1.9659
  841MOL0     H13494   1.373   2.602   1.411 -2.5010 -2.6542  1.9545
  841MOL0     H13495   1.718   2.450   1.632  2.9646  0.8513  1.1378
  841MOL0     H13496   1.869   2.373   1.911  1.5044 -2.5381 -2.2510
  841MOL0     H13497   1.931   2.405   1.746 -3.3322 -4.0978  0.0854
  841MOL0     H13498   1.970   2.521   1.878 -2.2283  1.0983  1.5943
  841MOL0     H13499   2.107   2.780   2.028  0.4327 -0.4768  0.3085
  841MOL0     H13500   2.280   2.870   2.169  1.1438  1.3978  2.3783
  841MOL0     H13501   2.181   3.132   2.511 -0.8264 -1.9966  0.0364
  841MOL0     H13502   2.246   2.969   2.520 -3.9847 -1.2120 -4.8632
  841MOL0     H13503   2.461   3.051   2.551 -1.4783 -0.3880  0.9307
  841MOL0     H13504   2.448   3.177   2.440 -0.9657  0.9174 -0.5887
  841MOL0     H13505   2.283   3.215   2.680  0.3154 -1.8325  0.5306
  841MOL0     H13506   2.404   3.331   2.618  0.0190 -0.9021 -3.9162
  841MOL0     H13507   2.421   3.078   2.769 -1.6534  1.4801 -1.5122
  841MOL0     H13508   2.574   3.170   2.719  0.9789 -0.9700  0.1355
  841MOL0     H13509   2.371   3.243   2.927  0.7464 -3.0542  0.7858
  841MOL0     H13510   2.481   3.364   2.862 -0.9784  0.3251  1.1710
  841MOL0     H13511   2.539   3.082   3.004 -1.2835  0.5985  0.1817
  841MOL0     H13512   2.667   3.190   2.928 -0.4511 -1.9191 -0.0744
  841MOL0     H13513   2.639   3.347   3.103 -4.5065  3.0330 -1.0548
  841MOL0     H13514   2.646   3.179   3.171  1.1378  0.2169  0.0179
  841MOL0     H13515   2.420   3.221   3.258 -1.8569 -0.4899 -1.7526
  841MOL0     H13516   2.372   3.330   3.131 -1.9716  1.2175  3.3341
  841MOL0     H13517   1.996   3.102   2.388  0.9575 -0.6895  1.5253
  841MOL0     H13518   1.817   2.989   2.279 -0.6280 -3.1064 -1.2157
  841MOL0     H13519   1.584   2.814   1.942 -1.1691  0.4584 -2.9666
  841MOL0     H13520   1.453   2.758   1.742  0.6159 -0.5820 -0.3725
  841MOL0     H13521   0.556   2.034   2.803 -0.8276 -3.2463 -0.7689
  841MOL0     H13522   0.438   1.990   3.012  0.8641 -0.9877  0.0381
  841MOL0     H13523   0.147   2.148   3.376 -1.1367  0.2160  1.1877
  841MOL0     H13524   0.101   2.072   3.575  0.7980  1.3836 -0.9166
  841MOL0     H13525   0.055   1.783   3.843  1.2114  0.2090 -0.1808
  841MOL0     H13526   0.129   1.915   3.764  1.8695 -2.2750  1.0156
  841MOL0     H13527  -0.165   1.891   3.803  0.5361 -1.1490 -0.8146
  841MOL0     H13528  -0.090   2.016   3.711 -0.3594 -1.0842  0.4378
  841MOL0     H13529   0.053   2.058   3.940  0.6809  1.1379 -1.7845
  841MOL0     H13530  -0.094   1.978   4.015  1.0507  2.2010  1.6708
  841MOL0     H13531  -0.152   2.194   4.019 -1.2163  2.9393 -1.9675
  841MOL0     H13532  -0.235   2.129   3.879 -0.4436 -1.0524  0.7977
  841MOL0     H13533  -0.038   2.461   3.697  0.2848  0.8123  1.7651
  841MOL0     H13534   0.008   1.675   3.395  0.0760  0.2595 -0.5905
  841MOL0     H13535   0.065   1.783   3.181 -0.1520 -0.3997 -0.9795
  842MOL0     O13536  11.466   8.295   3.511 -0.9737 -0.1610 -1.0795
  842MOL0     C13537  11.487   8.370   3.612 -1.6978 -0.5013 -0.2507
  842MOL0     O13538  11.555   8.495   3.602 -0.2883 -0.2336 -0.1621
  842MOL0     C13539  11.599   8.533   3.480 -0.4355  0.1989 -0.4731
  842MOL0     C13540  11.729   8.476   3.447  1.0522 -0.3253 -0.1379
  842MOL0     C13541  11.770   8.503   3.314  0.6194 -0.4541 -0.7212
  842MOL0     C13542  11.693   8.579   3.224  0.5767 -1.3577 -0.0654
  842MOL0     O13543  11.732   8.575   3.092 -0.0239 -0.2429 -0.1498
  842MOL0     C13544  11.628   8.579   2.988  0.4620  0.0423  0.3465
  842MOL0     C13545  11.570   8.443   2.965 -0.1177 -0.5311 -0.6940
  842MOL0     C13546  11.489   8.430   2.820 -0.1486 -0.3937  0.5676
  842MOL0     C13547  11.418   8.296   2.813 -0.3393 -0.1567  0.2189
  842MOL0     C13548  11.327   8.289   2.694 -1.3319 -0.0067 -0.4817
  842MOL0     C13549  11.265   8.154   2.692 -0.1882  0.3286  0.1421
  842MOL0     C13550  11.200   8.136   2.550  0.8494  0.5219 -0.6166
  842MOL0     C13551  11.078   8.232   2.519 -0.9217 -0.4329  1.4494
  842MOL0     N13552  10.964   8.206   2.600 -0.1827  0.4815 -0.8366
  842MOL0     C13553  10.932   8.246   2.726 -0.0652 -0.2405 -0.6460
  842MOL0     C13554  10.822   8.181   2.754  0.0400 -0.2228 -0.6632
  842MOL0     C13555  10.761   8.189   2.894  0.0685  0.7316  0.8008
  842MOL0     C13556  10.666   8.305   2.921 -0.4913 -0.3549  0.0422
  842MOL0     C13557  10.697   8.394   3.038  0.0536 -0.0496  0.1921
  842MOL0     C13558  10.692   8.320   3.171  0.1668  0.5418  0.4206
  842MOL0     O13559  10.710   8.424   3.273  0.2898 -0.0431 -1.0459
  842MOL0     C13560  10.667   8.414   3.401 -0.0985 -0.1411 -0.3498
  842MOL0     C13561  10.651   8.293   3.463 -0.1206  0.2532 -0.5552
  842MOL0     C13562  10.586   8.280   3.589 -0.2409  0.1271  0.1521
  842MOL0     C13563  10.573   8.143   3.641  0.6245 -0.3866 -0.2159
  842MOL0     C13564  10.564   8.397   3.663  0.5163 -0.6442 -0.5316
  842MOL0     C13565  10.479   8.383   3.782 -0.1250 -0.5785 -0.0237
  842MOL0     O13566  10.356   8.345   3.745 -0.3701  0.3225  0.1323
  842MOL0     C13567  10.274   8.322   3.849  0.5749 -0.0890 -0.0985
  842MOL0     C13568  10.190   8.204   3.856 -0.4448 -0.3450 -0.5472
  842MOL0     C13569  10.111   8.173   3.964 -1.4664  0.2459 -0.3085
  842MOL0     C13570  10.101   8.271   4.069  0.0673 -0.0010 -0.7061
  842MOL0     O13571  10.013   8.232   4.163  0.1173  0.3750 -0.9425
  842MOL0     C13572   9.964   8.335   4.245  0.7298 -1.6277  0.3791
  842MOL0     C13573   9.874   8.284   4.364  0.7255 -0.1922 -0.5480
  842MOL0     C13574   9.734   8.263   4.310 -0.2830 -1.4650 -0.4162
  842MOL0     C13575   9.640   8.188   4.401 -0.6612  0.7516  0.0732
  842MOL0     C13576   9.643   8.257   4.534  0.9466  0.2330 -0.6465
  842MOL0     C13577   9.510   8.252   4.611 -0.2300 -0.0223  0.3884
  842MOL0     C13578   9.464   8.105   4.643  0.0837  0.3630 -0.7425
  842MOL0     C13579   9.318   8.076   4.592  0.2656 -0.3425 -0.3750
  842MOL0    Cl13580   9.323   8.067   4.418  0.0809  0.0658  0.2543
  842MOL0     C13581  10.180   8.390   4.069 -0.1157 -1.0492  0.9577
  842MOL0     C13582  10.254   8.415   3.955  0.2553 -0.1221 -0.5674
  842MOL0     O13583  10.529   8.402   3.893  0.2007 -0.5939  0.1859
  842MOL0     C13584  10.610   8.523   3.609 -0.0412 -0.1803 -1.7327
  842MOL0     C13585  10.651   8.537   3.475  0.4554  0.5819 -0.4367
  842MOL0     N13586  10.785   8.093   2.652  0.0113 -0.2291 -0.3204
  842MOL0     N13587  10.876   8.114   2.560 -0.3028  0.2088  0.5362
  842MOL0     C13588  11.569   8.633   3.272  0.2219 -0.2897 -0.2842
  842MOL0     C13589  11.527   8.618   3.404 -0.0169  0.7353  0.5685
  842MOL0     C13590  11.424   8.338   3.742  0.5719 -0.4899  0.7541
  842MOL0     C13591  11.369   8.212   3.757  0.4251  0.0901 -0.0353
  842MOL0     C13592  11.297   8.187   3.876  0.9460  0.7598  0.5544
  842MOL0     C13593  11.280   8.273   3.982 -0.5448  0.1466 -0.3368
  842MOL0     O13594  11.228   8.248   4.105  1.0637  0.8216 -0.5343
  842MOL0     C13595  11.154   8.116   4.122 -0.4354 -0.0632 -1.1815
  842MOL0     C13596  11.066   8.134   4.249  0.0536  0.0215  0.3735
  842MOL0     C13597  10.936   8.182   4.212 -0.4199  0.2940  0.7676
  842MOL0     C13598  10.913   8.322   4.247  0.5119 -0.7774 -0.6976
  842MOL0     C13599  10.877   8.338   4.387  0.3137 -0.0735 -0.3483
  842MOL0     C13600  10.854   8.368   4.503  0.0407 -0.6331  0.3395
  842MOL0     C13601  11.349   8.395   3.967 -0.2742  0.2569 -0.3571
  842MOL0     C13602  11.410   8.435   3.843 -0.6213 -0.5361  0.4022
  842MOL0     H13603  11.777   8.400   3.508 -1.9423 -3.4197 -1.2938
  842MOL0     H13604  11.860   8.460   3.273  1.2730 -0.3592  0.5452
  842MOL0     H13605  11.542   8.647   2.999 -1.6180 -2.4974  0.7708
  842MOL0     H13606  11.688   8.608   2.902 -1.9139  1.8442 -0.8194
  842MOL0     H13607  11.651   8.370   2.971 -0.9931 -1.4220  2.1389
  842MOL0     H13608  11.504   8.418   3.048  0.7267 -0.0383  0.1559
  842MOL0     H13609  11.416   8.511   2.808  0.5286  0.1248 -0.1225
  842MOL0     H13610  11.565   8.446   2.744 -0.1781  2.5319  1.0278
  842MOL0     H13611  11.493   8.218   2.799 -2.0219 -2.1940  1.7766
  842MOL0     H13612  11.368   8.258   2.903 -0.6909 -2.1651 -0.7798
  842MOL0     H13613  11.256   8.372   2.701  2.4292  3.4594  0.0890
  842MOL0     H13614  11.386   8.306   2.604  0.7378  3.7360  1.3452
  842MOL0     H13615  11.337   8.073   2.705 -1.2681 -0.7220 -0.2460
  842MOL0     H13616  11.188   8.161   2.769 -1.2678  0.0245 -0.8789
  842MOL0     H13617  11.277   8.141   2.473  1.6200  1.9947  0.2130
  842MOL0     H13618  11.142   8.043   2.545 -3.0286  2.6105  0.9513
  842MOL0     H13619  11.048   8.210   2.416  2.9678 -1.8462  0.4109
  842MOL0     H13620  11.109   8.337   2.512 -2.5243 -0.0586 -2.6406
  842MOL0     H13621  10.980   8.313   2.797  1.1608  0.2899 -1.9320
  842MOL0     H13622  10.697   8.101   2.906 -0.6510  1.0978 -0.1966
  842MOL0     H13623  10.836   8.186   2.973 -1.7721  0.9828  2.6172
  842MOL0     H13624  10.562   8.272   2.923 -0.6865  0.2352 -0.0748
  842MOL0     H13625  10.673   8.375   2.836  1.2459  1.9011  1.9116
  842MOL0     H13626  10.628   8.478   3.051  1.4016  0.6844  3.7961
  842MOL0     H13627  10.796   8.436   3.023  1.2224 -2.7057 -0.0997
  842MOL0     H13628  10.773   8.246   3.176  2.0207  2.4324 -0.3075
  842MOL0     H13629  10.593   8.275   3.181  0.4099 -0.0191  0.3495
  842MOL0     H13630  10.688   8.201   3.420  3.2166  1.1223  0.2368
  842MOL0     H13631  10.609   8.064   3.575 -2.4051 -1.0151 -1.2599
  842MOL0     H13632  10.635   8.144   3.731  0.3181  1.3672  0.0209
  842MOL0     H13633  10.467   8.130   3.666  0.9489 -1.9701  0.4566
  842MOL0     H13634  10.194   8.126   3.780  0.7635  0.3464 -1.2146
  842MOL0     H13635  10.053   8.082   3.957  2.6496 -2.5945 -1.3387
  842MOL0     H13636  10.057   8.367   4.293  0.6452 -2.6827  1.2951
  842MOL0     H13637   9.918   8.416   4.187  2.6741 -0.9963 -0.3604
  842MOL0     H13638   9.930   8.202   4.410  2.7892  0.6277 -1.4866
  842MOL0     H13639   9.866   8.362   4.441  1.7340  2.6907 -3.1500
  842MOL0     H13640   9.729   8.223   4.208 -2.0390  3.3665 -2.5081
  842MOL0     H13641   9.695   8.361   4.283  1.8679 -0.6125 -0.6068
  842MOL0     H13642   9.537   8.192   4.365 -0.9079  3.4694  0.8579
  842MOL0     H13643   9.679   8.088   4.424  2.5124  1.6489 -0.9078
  842MOL0     H13644   9.681   8.360   4.536  2.6453 -0.3641 -0.5427
  842MOL0     H13645   9.712   8.201   4.597 -1.0146 -2.2143 -0.5205
  842MOL0     H13646   9.530   8.310   4.701 -2.2345  0.7390  0.3786
  842MOL0     H13647   9.433   8.296   4.547 -0.2243 -0.3276  0.1673
  842MOL0     H13648   9.478   8.093   4.751  1.8504 -1.0835 -1.0891
  842MOL0     H13649   9.534   8.033   4.601  1.3214  1.4869 -0.6984
  842MOL0     H13650   9.244   8.145   4.635 -0.6745 -0.8803 -1.0997
  842MOL0     H13651   9.295   7.976   4.631 -0.4859  0.0469  0.2120
  842MOL0     H13652  10.177   8.463   4.148  0.2428 -0.8938  0.8257
  842MOL0     H13653  10.304   8.512   3.948 -0.0736  0.4276  2.7571
  842MOL0     H13654  10.582   8.611   3.666 -4.0316 -2.5775  0.4484
  842MOL0     H13655  10.654   8.636   3.431  1.2372  0.2658 -1.1075
  842MOL0     H13656  11.514   8.693   3.200 -0.3032  0.6860  0.9002
  842MOL0     H13657  11.432   8.651   3.447  0.0910 -0.4727  1.8170
  842MOL0     H13658  11.372   8.139   3.676 -1.0974 -2.1934  1.8258
  842MOL0     H13659  11.241   8.093   3.874  0.3532  1.1025 -1.1346
  842MOL0     H13660  11.099   8.083   4.034  1.6766 -0.9089 -2.2636
  842MOL0     H13661  11.226   8.034   4.131  0.5517  0.7063 -1.8238
  842MOL0     H13662  11.116   8.201   4.319  0.4973  2.7620 -2.3787
  842MOL0     H13663  11.061   8.042   4.309  4.0102  0.2807  1.3139
  842MOL0     H13664  10.863   8.118   4.260  0.4113  0.0210  1.7064
  842MOL0     H13665  10.921   8.167   4.105 -0.5513  1.8059  0.5567
  842MOL0     H13666  10.827   8.360   4.192 -0.3688  0.0268  1.1690
  842MOL0     H13667  10.998   8.388   4.228 -0.1627  0.9677  1.8780
  842MOL0     H13668  10.842   8.401   4.604 -3.2500 -1.2001  0.2441
  842MOL0     H13669  11.352   8.468   4.047 -2.2965  1.7396 -1.5524
  842MOL0     H13670  11.457   8.533   3.835 -0.5708 -0.4366  1.6407
  843MOL0     O13671   8.787   3.181   8.695 -0.0744  0.5170 -0.3201
  843MOL0     C13672   8.720   3.230   8.792 -0.5137 -0.1790  0.0656
  843MOL0     O13673   8.674   3.360   8.813 -0.0412  0.6313 -0.3759
  843MOL0     C13674   8.699   3.442   8.713 -0.6294  0.3339 -0.5411
  843MOL0     C13675   8.692   3.417   8.572 -0.4514  0.7926 -0.9936
  843MOL0     C13676   8.748   3.506   8.481 -0.3508 -1.1928 -0.0908
  843MOL0     C13677   8.787   3.637   8.515 -0.6770  0.2673 -0.5133
  843MOL0     O13678   8.836   3.722   8.420 -0.1787  0.1781  0.1477
  843MOL0     C13679   8.776   3.858   8.417 -0.3865 -0.9134 -0.0838
  843MOL0     C13680   8.788   3.925   8.275 -0.2098  0.2207  0.4463
  843MOL0     C13681   8.715   3.832   8.175 -0.1444 -0.5914 -0.0587
  843MOL0     C13682   8.699   3.915   8.052 -0.7065 -0.2598 -0.3262
  843MOL0     C13683   8.611   3.834   7.954  0.4486  0.4469 -0.2112
  843MOL0     C13684   8.610   3.907   7.823  0.0537  0.5362 -0.3346
  843MOL0     C13685   8.526   3.836   7.716 -0.1558 -0.5230 -0.1074
  843MOL0     C13686   8.546   3.882   7.572  0.4536  0.3995  0.8728
  843MOL0     N13687   8.479   3.785   7.480 -0.3094  0.3491 -0.4333
  843MOL0     C13688   8.382   3.819   7.393  0.2996 -0.6963  0.2710
  843MOL0     C13689   8.352   3.711   7.326  0.0543  1.0887 -0.8930
  843MOL0     C13690   8.248   3.700   7.223  0.1304 -0.4432 -0.9234
  843MOL0     C13691   8.244   3.798   7.109 -0.1757  0.0906  0.3918
  843MOL0     C13692   8.182   3.730   6.984  0.0346 -0.0071  0.0339
  843MOL0     C13693   8.267   3.627   6.908  0.1432  0.1026 -0.3796
  843MOL0     O13694   8.382   3.664   6.833 -0.7326 -0.5414 -0.0704
  843MOL0     C13695   8.369   3.730   6.706  0.1825 -0.2909 -0.3415
  843MOL0     C13696   8.491   3.774   6.643  0.4859 -0.9182 -0.3481
  843MOL0     C13697   8.483   3.859   6.530 -0.1818 -0.6254  0.3346
  843MOL0     C13698   8.615   3.912   6.478  0.7717  0.3995 -0.2903
  843MOL0     C13699   8.357   3.885   6.468  0.0035 -0.2691  0.4314
  843MOL0     C13700   8.345   3.983   6.353  0.1113  0.1532  0.0412
  843MOL0     O13701   8.340   4.118   6.377 -0.4259  0.0980  0.3482
  843MOL0     C13702   8.343   4.200   6.265 -0.5132 -0.3125 -0.2141
  843MOL0     C13703   8.261   4.318   6.263 -0.7927 -0.6098  0.3874
  843MOL0     C13704   8.272   4.418   6.168 -0.1809 -0.2161 -0.4742
  843MOL0     C13705   8.365   4.403   6.065  0.1758 -0.4318 -0.1662
  843MOL0     O13706   8.385   4.503   5.978  0.1068  0.2046  0.0223
  843MOL0     C13707   8.477   4.498   5.862  0.2155  0.4994 -0.3296
  843MOL0     C13708   8.501   4.634   5.798  0.7120  0.6329 -0.5021
  843MOL0     C13709   8.590   4.623   5.681  0.3143  0.1754 -0.1576
  843MOL0     C13710   8.619   4.758   5.625  0.3016  0.3084  0.5591
  843MOL0     C13711   8.733   4.747   5.525 -0.1816 -0.1020  0.0318
  843MOL0     C13712   8.704   4.658   5.407  0.3991  0.1351 -0.4428
  843MOL0     C13713   8.785   4.534   5.391  0.7163 -0.7519  0.0322
  843MOL0     C13714   8.929   4.552   5.350  0.0153  0.6690  0.0437
  843MOL0    Cl13715   8.955   4.593   5.179 -0.9404  0.1314 -0.0152
  843MOL0     C13716   8.445   4.283   6.057  0.1200  0.4141 -0.5422
  843MOL0     C13717   8.436   4.183   6.160 -0.5470  0.5256 -0.4236
  843MOL0     O13718   8.327   3.931   6.245  0.5043  0.4557 -0.1361
  843MOL0     C13719   8.245   3.834   6.529 -0.1906  0.5903 -0.0305
  843MOL0     C13720   8.249   3.754   6.642  0.6038 -0.6089  0.3261
  843MOL0     N13721   8.416   3.609   7.393 -0.5264  0.8523  1.2159
  843MOL0     N13722   8.507   3.652   7.461 -0.3690  0.0483 -0.1162
  843MOL0     C13723   8.773   3.670   8.652 -0.8665  0.0213  0.0541
  843MOL0     C13724   8.742   3.565   8.745 -0.5654  0.1633 -0.3597
  843MOL0     C13725   8.699   3.149   8.914 -0.6721 -0.4987 -0.4948
  843MOL0     C13726   8.587   3.161   8.997  0.2198 -0.0982 -1.5543
  843MOL0     C13727   8.565   3.058   9.090  0.3819  0.3886 -0.1003
  843MOL0     C13728   8.647   2.947   9.108  0.1184 -0.5636 -0.8985
  843MOL0     O13729   8.599   2.846   9.191 -0.0016  0.2218  0.3062
  843MOL0     C13730   8.649   2.710   9.171  0.4027  0.6477 -0.0513
  843MOL0     C13731   8.517   2.623   9.165  0.2806  0.5300  0.2598
  843MOL0     C13732   8.453   2.599   9.304 -0.3607 -0.6017 -0.2471
  843MOL0     C13733   8.347   2.487   9.326  0.5181  0.2613  1.4343
  843MOL0     C13734   8.268   2.512   9.444  0.8825  0.6267  0.7494
  843MOL0     C13735   8.200   2.525   9.547 -0.3513 -0.4296  0.6318
  843MOL0     C13736   8.765   2.943   9.034 -0.9039 -0.3983  0.1222
  843MOL0     C13737   8.783   3.037   8.936 -0.8576 -0.3595  0.8931
  843MOL0     H13738   8.662   3.318   8.540  2.3684 -0.3014 -0.5796
  843MOL0     H13739   8.770   3.481   8.378  2.5326  0.0543  0.1288
  843MOL0     H13740   8.670   3.850   8.445  0.5753  0.2603  4.9773
  843MOL0     H13741   8.832   3.920   8.488 -1.7421 -1.5242  1.6122
  843MOL0     H13742   8.741   4.023   8.268 -1.5577 -0.4396 -0.2620
  843MOL0     H13743   8.894   3.928   8.249 -0.6804 -1.5796 -2.0487
  843MOL0     H13744   8.760   3.733   8.167 -1.0111 -1.2039  2.1227
  843MOL0     H13745   8.618   3.817   8.222  0.6610  0.2430  2.0002
  843MOL0     H13746   8.639   4.006   8.066 -2.1735 -0.3899 -4.3588
  843MOL0     H13747   8.797   3.941   8.011 -0.6239  0.2500  0.1860
  843MOL0     H13748   8.656   3.740   7.923  2.0765  0.8007  0.9253
  843MOL0     H13749   8.513   3.817   8.000 -0.3506 -2.2140 -2.6457
  843MOL0     H13750   8.565   4.007   7.823 -0.4165  0.3395 -1.3018
  843MOL0     H13751   8.713   3.914   7.786  1.1097 -0.6420  2.1823
  843MOL0     H13752   8.554   3.731   7.718  0.1299 -0.4351  1.1935
  843MOL0     H13753   8.421   3.853   7.741 -0.2265  3.4935 -2.2241
  843MOL0     H13754   8.652   3.890   7.551  1.0619  0.2961  3.5230
  843MOL0     H13755   8.508   3.985   7.569  4.0342  1.8368  0.7061
  843MOL0     H13756   8.328   3.909   7.367 -2.1966 -2.0074  0.6134
  843MOL0     H13757   8.240   3.595   7.196  0.6091 -0.2962 -1.6669
  843MOL0     H13758   8.153   3.723   7.273  0.2637 -0.0027 -0.8634
  843MOL0     H13759   8.347   3.833   7.095 -0.7881  1.4404 -0.8996
  843MOL0     H13760   8.173   3.880   7.124 -1.9983 -1.3837  0.1852
  843MOL0     H13761   8.156   3.804   6.908  1.0906  1.0999  0.7143
  843MOL0     H13762   8.088   3.677   7.003 -1.0729  2.0889  0.7061
  843MOL0     H13763   8.191   3.589   6.838  0.0916  0.8715 -0.7438
  843MOL0     H13764   8.301   3.549   6.977 -2.8098 -1.1340 -0.1592
  843MOL0     H13765   8.582   3.752   6.697 -0.8109  3.2536  4.3048
  843MOL0     H13766   8.686   3.941   6.556 -2.3306  2.1556  2.1562
  843MOL0     H13767   8.665   3.831   6.424 -0.3244 -1.3188  1.1611
  843MOL0     H13768   8.598   3.990   6.404 -3.2459 -0.2616 -0.3066
  843MOL0     H13769   8.176   4.326   6.330 -2.2618  2.5400 -1.6270
  843MOL0     H13770   8.198   4.497   6.171  0.0492  0.0457 -1.4311
  843MOL0     H13771   8.575   4.473   5.904 -0.5739 -0.4071  1.0416
  843MOL0     H13772   8.459   4.414   5.795  0.7018 -0.1037  0.2771
  843MOL0     H13773   8.404   4.674   5.767  0.1893  0.1935  0.5231
  843MOL0     H13774   8.541   4.692   5.882  0.8861  2.6536 -1.9049
  843MOL0     H13775   8.540   4.558   5.608  2.1452 -0.2930 -1.0547
  843MOL0     H13776   8.682   4.573   5.712 -0.7533 -2.7799 -1.3720
  843MOL0     H13777   8.523   4.795   5.589 -0.2632 -3.0818 -1.9105
  843MOL0     H13778   8.663   4.813   5.709  2.6976 -0.3622 -0.1602
  843MOL0     H13779   8.826   4.720   5.577  0.6570 -1.5077 -2.0551
  843MOL0     H13780   8.757   4.841   5.475  0.8789 -0.7734 -0.7625
  843MOL0     H13781   8.601   4.621   5.412  0.7295 -0.9101 -1.0623
  843MOL0     H13782   8.700   4.714   5.313  2.0583 -1.7050 -1.7054
  843MOL0     H13783   8.735   4.473   5.316 -2.5788  3.5215 -1.6943
  843MOL0     H13784   8.781   4.482   5.487  0.4359 -0.4948  0.1648
  843MOL0     H13785   8.974   4.454   5.371 -0.5781 -1.0148 -5.0448
  843MOL0     H13786   8.978   4.621   5.419 -3.3894  2.1741  1.1442
  843MOL0     H13787   8.512   4.262   5.974  1.1169 -0.7916  0.5328
  843MOL0     H13788   8.494   4.092   6.149 -1.1705  0.2722 -1.7936
  843MOL0     H13789   8.148   3.864   6.490  0.0745 -1.9243 -3.0293
  843MOL0     H13790   8.151   3.717   6.669  0.4063 -3.3004 -3.4305
  843MOL0     H13791   8.782   3.775   8.674  1.3223 -0.3740  1.3033
  843MOL0     H13792   8.756   3.589   8.850 -3.3273 -1.3587  0.4371
  843MOL0     H13793   8.510   3.237   9.001  0.2399 -0.0361  2.6893
  843MOL0     H13794   8.482   3.065   9.160 -1.0499  0.5367 -1.7429
  843MOL0     H13795   8.703   2.697   9.077  0.0522  0.8351 -0.2796
  843MOL0     H13796   8.710   2.684   9.258 -1.2021 -0.3844  0.8070
  843MOL0     H13797   8.554   2.524   9.136  2.3776  1.0794  0.8972
  843MOL0     H13798   8.463   2.665   9.080 -2.4600 -0.2390  1.4854
  843MOL0     H13799   8.412   2.697   9.330  1.5488  0.0160  0.5811
  843MOL0     H13800   8.533   2.575   9.375  0.4438 -2.6847 -1.7642
  843MOL0     H13801   8.392   2.387   9.322 -2.1850 -1.0079 -1.2433
  843MOL0     H13802   8.276   2.495   9.243  0.3669  2.7782  1.7379
  843MOL0     H13803   8.145   2.522   9.638  0.6499 -0.3993  1.2490
  843MOL0     H13804   8.844   2.870   9.046 -0.9965 -0.3931  0.8168
  843MOL0     H13805   8.870   3.021   8.873 -0.8275  2.2543  0.1643
  844MOL0     O13806   1.999   3.653   8.990 -0.2155  0.5858 -0.0383
  844MOL0     C13807   2.005   3.604   9.107 -0.6466 -0.5242 -0.7647
  844MOL0     O13808   1.909   3.608   9.205 -0.3380  0.5939  0.1588
  844MOL0     C13809   1.793   3.663   9.159 -0.4272  1.1647 -0.2965
  844MOL0     C13810   1.732   3.761   9.235  0.1409  0.2932  1.2253
  844MOL0     C13811   1.613   3.819   9.183 -0.1518  0.0433 -0.1685
  844MOL0     C13812   1.547   3.769   9.066  0.1400 -0.4355  0.3956
  844MOL0     O13813   1.432   3.830   9.023 -0.7212 -0.1700  0.0074
  844MOL0     C13814   1.413   3.844   8.882  0.3213 -0.3507 -0.1596
  844MOL0     C13815   1.293   3.936   8.853  0.1382  0.6166 -0.2087
  844MOL0     C13816   1.153   3.855   8.861  0.3190  0.3774 -1.0725
  844MOL0     C13817   1.134   3.759   8.745  0.2619 -0.9132  0.2725
  844MOL0     C13818   1.001   3.686   8.750  0.4692 -0.7822  0.1491
  844MOL0     C13819   0.886   3.792   8.731 -0.3716 -0.4658 -0.9809
  844MOL0     C13820   0.754   3.733   8.689 -0.1383 -0.2999 -0.0782
  844MOL0     C13821   0.631   3.841   8.702  0.2868  0.4844 -0.0669
  844MOL0     N13822   0.627   3.938   8.602  0.1499  0.2005 -0.6946
  844MOL0     C13823   0.626   3.911   8.473  0.3398  0.3546 -0.6607
  844MOL0     C13824   0.657   4.025   8.409  1.3573  0.3599 -0.9850
  844MOL0     C13825   0.665   4.039   8.252  0.4651  0.2116  0.0810
  844MOL0     C13826   0.544   4.112   8.204 -0.2307  0.3769 -0.5182
  844MOL0     C13827   0.548   4.258   8.220  0.2003  0.1521  0.1115
  844MOL0     C13828   0.412   4.313   8.165 -0.0664 -0.0686 -0.9224
  844MOL0     O13829   0.304   4.296   8.261  0.4102 -0.6253  0.2735
  844MOL0     C13830   0.262   4.403   8.340  0.2285  0.2057  0.4315
  844MOL0     C13831   0.164   4.370   8.433 -1.4862  0.0776 -0.2958
  844MOL0     C13832   0.110   4.464   8.523  0.2795 -0.1363 -0.5968
  844MOL0     C13833   0.012   4.419   8.630 -0.3390 -0.7456 -0.4431
  844MOL0     C13834   0.172   4.599   8.528  0.2398  0.2805  0.0371
  844MOL0     C13835   0.150   4.702   8.636  0.1120  0.4472  0.0878
  844MOL0     O13836   0.150   4.665   8.766 -0.2118 -0.4413  0.5079
  844MOL0     C13837   0.120   4.762   8.860 -0.6171  0.6155  0.2740
  844MOL0     C13838   0.025   4.728   8.964  0.0767  0.1454  0.1006
  844MOL0     C13839  -0.003   4.820   9.063  0.0587  0.6828 -0.7492
  844MOL0     C13840   0.078   4.932   9.080  0.2754  0.1687  0.9597
  844MOL0     O13841   0.070   5.020   9.191  0.0480  0.5853  0.6281
  844MOL0     C13842   0.015   4.977   9.315  0.9146  0.3870 -0.8148
  844MOL0     C13843  -0.133   5.023   9.311 -0.7697 -0.4774 -0.4448
  844MOL0     C13844  -0.147   5.149   9.386  0.3996  0.0248 -0.3379
  844MOL0     C13845  -0.292   5.199   9.399 -0.1685 -0.0656  0.3267
  844MOL0     C13846  -0.298   5.320   9.494  1.0817  0.2400  0.2990
  844MOL0     C13847  -0.448   5.353   9.515  0.6774 -1.3287  0.8400
  844MOL0     C13848  -0.467   5.481   9.595 -0.4205 -0.5907 -0.0963
  844MOL0     C13849  -0.608   5.480   9.654 -0.4672 -0.3337 -0.2409
  844MOL0    Cl13850  -0.743   5.451   9.540  0.3832  0.4392  0.1152
  844MOL0     C13851   0.174   4.967   8.977 -0.5573 -0.0774  0.9365
  844MOL0     C13852   0.194   4.885   8.865 -1.0526  0.1970 -0.2938
  844MOL0     O13853   0.131   4.820   8.589  0.3464  0.1431  0.2843
  844MOL0     C13854   0.261   4.628   8.427  0.3334  0.0845  0.1279
  844MOL0     C13855   0.289   4.533   8.323 -0.2722 -0.1081  0.3019
  844MOL0     N13856   0.681   4.129   8.504 -0.4474 -0.6272 -0.5267
  844MOL0     N13857   0.662   4.068   8.617  0.6104  0.1616  0.2265
  844MOL0     C13858   1.602   3.652   9.006  0.2456  0.5931  0.0628
  844MOL0     C13859   1.718   3.596   9.063  0.3227  0.3652  0.2273
  844MOL0     C13860   2.124   3.525   9.157  1.2510  0.2129 -0.4324
  844MOL0     C13861   2.236   3.509   9.082 -0.0065  0.2138  0.2350
  844MOL0     C13862   2.341   3.426   9.123 -0.3811 -0.3121  0.1574
  844MOL0     C13863   2.341   3.369   9.253 -0.0315 -1.8396  0.3995
  844MOL0     O13864   2.450   3.322   9.323  0.5069 -0.1770  0.1853
  844MOL0     C13865   2.572   3.282   9.264  0.4845 -0.0834  0.0616
  844MOL0     C13866   2.677   3.338   9.367 -0.1694  1.5066 -0.8250
  844MOL0     C13867   2.649   3.296   9.516  1.1505 -0.0417  0.0561
  844MOL0     C13868   2.752   3.206   9.568 -0.2321 -0.5078 -0.5983
  844MOL0     C13869   2.892   3.255   9.568 -0.0257 -0.5695 -0.7756
  844MOL0     C13870   3.007   3.291   9.543  0.1847 -0.6161 -0.3260
  844MOL0     C13871   2.224   3.390   9.322 -0.1749 -1.1192 -1.4532
  844MOL0     C13872   2.112   3.449   9.279  0.0391 -0.4479  0.5939
  844MOL0     H13873   1.769   3.802   9.328  0.8234  1.2064  0.5688
  844MOL0     H13874   1.568   3.892   9.250  1.2340  3.3998 -2.6393
  844MOL0     H13875   1.508   3.882   8.844  0.1208 -1.6627 -2.1425
  844MOL0     H13876   1.394   3.748   8.833 -1.8043 -0.2283  0.3195
  844MOL0     H13877   1.268   4.018   8.922  1.3812  1.8955 -1.2270
  844MOL0     H13878   1.302   3.968   8.749  0.4665  0.0429 -0.3596
  844MOL0     H13879   1.148   3.806   8.959 -1.6486  2.9779  0.2426
  844MOL0     H13880   1.076   3.933   8.857  0.7482  1.8042  5.6028
  844MOL0     H13881   1.149   3.820   8.656  2.3079 -3.3089 -1.1515
  844MOL0     H13882   1.213   3.684   8.752  2.7412  1.5970  1.3642
  844MOL0     H13883   0.994   3.612   8.670 -0.7578  1.0510 -1.5463
  844MOL0     H13884   0.977   3.636   8.844  1.6047 -1.6238  0.0114
  844MOL0     H13885   0.872   3.852   8.821  0.4831 -2.3070  0.4387
  844MOL0     H13886   0.908   3.850   8.640 -1.2827  1.4614 -0.0181
  844MOL0     H13887   0.759   3.697   8.586 -0.6804 -0.3042 -0.1049
  844MOL0     H13888   0.730   3.644   8.749 -1.0635 -1.5880 -2.2433
  844MOL0     H13889   0.627   3.892   8.798 -2.4513 -2.2126  1.4134
  844MOL0     H13890   0.533   3.794   8.688  1.7758 -3.1518  0.4946
  844MOL0     H13891   0.603   3.819   8.418  1.4097 -0.2562 -0.1094
  844MOL0     H13892   0.759   4.082   8.216  1.0335  1.2691  2.6083
  844MOL0     H13893   0.645   3.939   8.214  1.8928 -0.2456  0.4689
  844MOL0     H13894   0.449   4.078   8.246 -0.8555 -0.6935 -2.6366
  844MOL0     H13895   0.545   4.092   8.096  1.8745  0.6540 -0.6017
  844MOL0     H13896   0.637   4.288   8.164  3.9682 -2.6256  3.9833
  844MOL0     H13897   0.559   4.290   8.324  3.0073 -2.1142  0.6358
  844MOL0     H13898   0.366   4.270   8.075  0.8372  0.1048 -1.4687
  844MOL0     H13899   0.438   4.416   8.139  1.7793  0.3174  2.0573
  844MOL0     H13900   0.119   4.273   8.415 -0.1681 -0.5213 -0.4451
  844MOL0     H13901   0.064   4.392   8.723  2.3192  1.9629 -0.9844
  844MOL0     H13902  -0.068   4.490   8.650  1.4935  0.8470  1.7012
  844MOL0     H13903  -0.042   4.329   8.598  2.6359 -2.6535 -0.5027
  844MOL0     H13904  -0.026   4.632   8.970  0.7093 -0.0881  3.7573
  844MOL0     H13905  -0.070   4.791   9.144  0.2423 -1.6992 -1.3613
  844MOL0     H13906   0.005   4.868   9.322  0.1200  0.5789  2.6995
  844MOL0     H13907   0.077   5.016   9.396  0.6153  1.5203 -1.1108
  844MOL0     H13908  -0.172   5.036   9.209  3.1863 -0.6815 -2.1905
  844MOL0     H13909  -0.177   4.947   9.376  2.0364 -2.3433 -0.5386
  844MOL0     H13910  -0.083   5.228   9.347  1.1633 -0.7207 -0.6423
  844MOL0     H13911  -0.108   5.132   9.487 -1.9311  2.0908  0.9973
  844MOL0     H13912  -0.324   5.238   9.302  2.0226 -2.6483 -1.6111
  844MOL0     H13913  -0.353   5.121   9.445  0.4381 -2.0479 -1.9909
  844MOL0     H13914  -0.243   5.402   9.446  0.5623  0.7760  0.6052
  844MOL0     H13915  -0.258   5.301   9.593  0.8962  1.6380  0.6709
  844MOL0     H13916  -0.488   5.365   9.414  1.2313  1.1222  0.8496
  844MOL0     H13917  -0.497   5.275   9.574  1.3228 -1.9885  0.5125
  844MOL0     H13918  -0.457   5.567   9.529 -0.5505 -1.1377 -0.8384
  844MOL0     H13919  -0.400   5.494   9.681 -1.8077  1.3255  0.7775
  844MOL0     H13920  -0.617   5.577   9.703 -1.4433 -0.2710 -0.5238
  844MOL0     H13921  -0.605   5.395   9.723  0.8661 -0.0046  0.1297
  844MOL0     H13922   0.222   5.064   8.977  2.8657 -1.6031 -0.2987
  844MOL0     H13923   0.258   4.917   8.783 -1.1638 -1.2453 -0.9626
  844MOL0     H13924   0.296   4.729   8.415  0.6874 -0.1697 -1.0806
  844MOL0     H13925   0.349   4.574   8.242 -1.4901  0.2921 -0.4255
  844MOL0     H13926   1.551   3.597   8.927  0.9088 -1.7694  1.1944
  844MOL0     H13927   1.757   3.499   9.033  0.4793  0.5651 -0.2175
  844MOL0     H13928   2.242   3.568   8.992  0.9528  0.3449  0.3644
  844MOL0     H13929   2.429   3.413   9.061 -1.3102  0.4544 -1.3852
  844MOL0     H13930   2.574   3.173   9.264 -0.3630 -0.1094  0.3874
  844MOL0     H13931   2.591   3.318   9.162  0.8335 -0.2356  0.0744
  844MOL0     H13932   2.685   3.446   9.354 -1.1077  1.9526  1.7634
  844MOL0     H13933   2.771   3.289   9.342 -0.0635  0.7934  0.8146
  844MOL0     H13934   2.550   3.249   9.518 -0.0114  2.1599 -1.1616
  844MOL0     H13935   2.641   3.389   9.574 -0.8179  0.7257 -1.3239
  844MOL0     H13936   2.736   3.108   9.522 -2.2678  0.4201 -2.0520
  844MOL0     H13937   2.734   3.197   9.675  2.3657  2.6649  0.2559
  844MOL0     H13938   3.111   3.314   9.533  0.1075 -0.2087 -0.1758
  844MOL0     H13939   2.223   3.362   9.427 -0.9675  2.2231 -0.4538
  844MOL0     H13940   2.023   3.452   9.340  0.9051 -0.2866  1.8843
  845MOL0     O13941  10.436  10.954   7.652  0.3787 -0.4923 -0.6633
  845MOL0     C13942  10.483  10.870   7.735 -0.1266 -0.5039  0.0365
  845MOL0     O13943  10.406  10.771   7.809 -0.1079 -0.1100  0.8688
  845MOL0     C13944  10.274  10.802   7.796 -0.5575  1.2075  0.2412
  845MOL0     C13945  10.225  10.913   7.876  0.1417 -0.2759 -0.1354
  845MOL0     C13946  10.091  10.942   7.865 -0.0348 -0.0513 -0.4051
  845MOL0     C13947  10.001  10.876   7.787 -0.1963  0.3396 -0.6422
  845MOL0     O13948   9.868  10.913   7.796  0.0992 -0.4803  0.7209
  845MOL0     C13949   9.769  10.815   7.766 -0.2089 -0.7346  0.0252
  845MOL0     C13950   9.671  10.885   7.682 -0.0517 -0.6002  0.0185
  845MOL0     C13951   9.562  10.799   7.624  0.4830 -0.5498  0.0986
  845MOL0     C13952   9.597  10.716   7.500  0.6866 -0.4869 -0.7175
  845MOL0     C13953   9.642  10.812   7.391  0.0890  0.3978 -0.9386
  845MOL0     C13954   9.660  10.748   7.251  0.4563 -0.0254  0.5501
  845MOL0     C13955   9.633  10.855   7.143 -0.1988  0.4564 -0.4540
  845MOL0     C13956   9.634  10.799   6.999  0.0660 -0.0703  0.2698
  845MOL0     N13957   9.749  10.711   6.971 -0.1566  0.9972 -0.1692
  845MOL0     C13958   9.741  10.576   6.998  0.8424 -0.8586 -0.2825
  845MOL0     C13959   9.853  10.522   6.943  0.6569 -0.3882 -0.3385
  845MOL0     C13960   9.882  10.373   6.949  0.6114  0.3938  0.4245
  845MOL0     C13961  10.022  10.347   7.011 -0.2651 -0.0109 -0.7418
  845MOL0     C13962  10.133  10.408   6.933 -0.2569 -0.1092  0.2567
  845MOL0     C13963  10.259  10.368   7.013 -0.3412  0.4624 -0.1709
  845MOL0     O13964  10.370  10.392   6.919 -1.1707 -0.4104  0.1973
  845MOL0     C13965  10.494  10.372   6.972 -0.2747  0.4812  0.0614
  845MOL0     C13966  10.528  10.354   7.105  0.1028 -0.7164  0.9428
  845MOL0     C13967  10.643  10.293   7.151  0.8495  0.3895 -0.2311
  845MOL0     C13968  10.653  10.255   7.293  0.4352 -0.0575 -1.5298
  845MOL0     C13969  10.752  10.272   7.053 -0.8199 -0.1609 -0.5990
  845MOL0     C13970  10.889  10.222   7.087 -0.3324  0.9483  0.5349
  845MOL0     O13971  10.921  10.216   7.220 -0.7471 -0.2673  0.8413
  845MOL0     C13972  11.042  10.183   7.267 -0.2908 -0.0208  0.2308
  845MOL0     C13973  11.162  10.216   7.194  0.0318 -0.6914  0.0590
  845MOL0     C13974  11.281  10.190   7.256  0.4335  0.6839  0.5146
  845MOL0     C13975  11.289  10.120   7.379 -0.4883  0.1576  0.1828
  845MOL0     O13976  11.417  10.070   7.418  1.6508  0.5952  0.2346
  845MOL0     C13977  11.472   9.962   7.334  0.1047  0.6909 -0.1915
  845MOL0     C13978  11.544   9.859   7.418  0.2565  0.5592 -0.5176
  845MOL0     C13979  11.672   9.896   7.487 -0.3993 -0.4599 -0.9035
  845MOL0     C13980  11.730   9.782   7.570  0.3143 -0.3637  0.8014
  845MOL0     C13981  11.839   9.844   7.664 -0.4186  1.4101 -0.5682
  845MOL0     C13982  11.886   9.730   7.762 -0.2567 -0.3494  0.4267
  845MOL0     C13983  11.992   9.773   7.872  0.5524  0.1460  0.9093
  845MOL0     C13984  11.930   9.883   7.965 -0.1580  1.0408  1.0233
  845MOL0    Cl13985  12.054   9.899   8.100 -0.6399 -0.3670  0.0845
  845MOL0     C13986  11.180  10.073   7.438  0.0652 -0.5837 -1.0706
  845MOL0     C13987  11.059  10.116   7.391  0.8817  0.8115 -0.0887
  845MOL0     O13988  10.956  10.172   6.991  0.0410  0.8706  0.2555
  845MOL0     C13989  10.720  10.297   6.919  0.0580  0.1772 -0.4833
  845MOL0     C13990  10.597  10.345   6.880 -0.1704 -0.2133 -0.6418
  845MOL0     N13991   9.922  10.628   6.875  0.7290  0.2818 -0.8443
  845MOL0     N13992   9.862  10.737   6.901 -0.0251 -0.1003  0.9659
  845MOL0     C13993  10.053  10.772   7.708 -0.7779  0.1358  1.2256
  845MOL0     C13994  10.184  10.732   7.714 -0.4361 -0.1249  0.3465
  845MOL0     C13995  10.627  10.869   7.744 -0.6604  0.4139  0.1994
  845MOL0     C13996  10.702  10.968   7.675 -0.5066 -0.5820 -0.3468
  845MOL0     C13997  10.841  10.971   7.668 -0.6277  0.4444 -0.4085
  845MOL0     C13998  10.924  10.879   7.738 -0.2721 -0.3841  1.0623
  845MOL0     O13999  11.063  10.904   7.731  0.7161 -0.1277  0.3401
  845MOL0     C14000  11.145  10.877   7.847  0.6921 -1.1530  0.1834
  845MOL0     C14001  11.246  10.771   7.809  0.4156  0.1708  0.0127
  845MOL0     C14002  11.290  10.710   7.944  0.6576  1.1154  0.4279
  845MOL0     C14003  11.355  10.795   8.050  0.0443 -0.1063 -0.8483
  845MOL0     C14004  11.470  10.875   8.003 -0.8065 -1.1900  0.0293
  845MOL0     C14005  11.565  10.946   7.965  0.0262 -0.3753 -0.0522
  845MOL0     C14006  10.856  10.781   7.804  1.0964  0.7778 -0.1916
  845MOL0     C14007  10.717  10.777   7.804  0.6016 -0.8266 -1.0212
  845MOL0     H14008  10.283  10.975   7.943 -0.6017  0.8152 -0.4825
  845MOL0     H14009  10.048  11.023   7.924  0.5537  0.0318 -0.0835
  845MOL0     H14010   9.812  10.731   7.712 -0.2346 -2.2036  2.1502
  845MOL0     H14011   9.722  10.762   7.849 -2.1089 -2.8934 -2.2679
  845MOL0     H14012   9.623  10.966   7.738  0.2827 -1.6873  1.9947
  845MOL0     H14013   9.724  10.933   7.600 -2.7261  1.8546 -0.4018
  845MOL0     H14014   9.524  10.734   7.704 -1.0611 -1.4362 -1.2717
  845MOL0     H14015   9.480  10.863   7.590 -1.7797 -2.2424  1.9561
  845MOL0     H14016   9.674  10.644   7.530  1.9976  0.8567 -0.7670
  845MOL0     H14017   9.499  10.673   7.479  0.0865  0.4979 -0.0461
  845MOL0     H14018   9.575  10.896   7.371  0.8828  0.5114 -3.5607
  845MOL0     H14019   9.737  10.849   7.431 -0.9469 -0.4023  2.6446
  845MOL0     H14020   9.762  10.709   7.242  1.8656  3.2078  1.0662
  845MOL0     H14021   9.583  10.671   7.254  1.4399 -1.1176 -0.9432
  845MOL0     H14022   9.534  10.902   7.154  0.0892  1.1396 -0.7055
  845MOL0     H14023   9.706  10.934   7.163  0.4772 -0.5159  1.1376
  845MOL0     H14024   9.632  10.882   6.928  0.2295 -0.3859 -0.1136
  845MOL0     H14025   9.549  10.739   6.964 -0.4174  0.3454  0.7253
  845MOL0     H14026   9.654  10.524   7.038 -3.2891  4.1480 -1.7008
  845MOL0     H14027   9.807  10.318   7.008  2.5658 -2.9187  0.0470
  845MOL0     H14028   9.881  10.338   6.846 -0.5563  1.2732  0.1078
  845MOL0     H14029  10.039  10.240   7.022  1.5973 -0.6108 -6.2022
  845MOL0     H14030  10.024  10.400   7.107 -0.6641  3.4113 -2.4466
  845MOL0     H14031  10.135  10.516   6.917 -5.2594  0.2313  0.3177
  845MOL0     H14032  10.144  10.366   6.833  2.3451  3.9320 -1.3805
  845MOL0     H14033  10.263  10.262   7.038 -2.2943  0.3189 -0.3156
  845MOL0     H14034  10.254  10.429   7.104  1.4994 -2.6289  2.1980
  845MOL0     H14035  10.463  10.391   7.183  0.9029  0.1441  1.2253
  845MOL0     H14036  10.661  10.146   7.303 -0.8179  0.0631  2.1174
  845MOL0     H14037  10.734  10.308   7.344  0.6965 -3.5090  2.2410
  845MOL0     H14038  10.561  10.287   7.342  0.5874 -1.8808  0.0617
  845MOL0     H14039  11.144  10.266   7.100  0.0148  1.0235  0.9145
  845MOL0     H14040  11.377  10.216   7.213 -0.6450  0.1598 -2.4477
  845MOL0     H14041  11.397   9.903   7.281 -0.3609  1.4701 -0.4093
  845MOL0     H14042  11.538  10.003   7.257  3.4053 -4.1993 -0.4759
  845MOL0     H14043  11.469   9.821   7.488  2.0339  0.7421  1.6009
  845MOL0     H14044  11.571   9.770   7.361 -0.2587 -1.0273  1.5958
  845MOL0     H14045  11.636   9.983   7.543  2.3307  1.7599 -2.2743
  845MOL0     H14046  11.743   9.939   7.415 -1.3268  1.8103 -0.5424
  845MOL0     H14047  11.643   9.740   7.621 -2.4704 -1.9300 -4.4447
  845MOL0     H14048  11.770   9.695   7.517 -0.2170 -0.7082  0.9616
  845MOL0     H14049  11.799   9.927   7.722  0.8812  2.1564 -0.6971
  845MOL0     H14050  11.933   9.879   7.619  0.8887  0.8576  1.5808
  845MOL0     H14051  11.800   9.690   7.815 -1.1487  0.3541 -0.4427
  845MOL0     H14052  11.918   9.655   7.690 -3.1651 -3.2124  1.8477
  845MOL0     H14053  12.081   9.821   7.832 -2.1324  3.4418 -1.7833
  845MOL0     H14054  12.023   9.689   7.935 -1.8892 -0.3286  1.5877
  845MOL0     H14055  11.827   9.856   7.991 -1.2965 -0.4838 -3.9477
  845MOL0     H14056  11.925   9.974   7.905  2.4871 -0.4835 -1.7802
  845MOL0     H14057  11.180  10.012   7.527 -2.5916  2.9853  1.6795
  845MOL0     H14058  10.972  10.079   7.445 -0.4378  3.9290  0.1694
  845MOL0     H14059  10.798  10.262   6.852  3.0240  1.5303  1.9918
  845MOL0     H14060  10.580  10.334   6.774 -1.1487 -2.7650 -0.2958
  845MOL0     H14061   9.995  10.726   7.628  0.8290  0.0353  0.0615
  845MOL0     H14062  10.212  10.652   7.646 -0.3109 -0.0777  0.3423
  845MOL0     H14063  10.645  11.033   7.610  0.3015  0.1428 -0.3446
  845MOL0     H14064  10.898  11.045   7.612  2.3948 -0.3004  1.4712
  845MOL0     H14065  11.198  10.968   7.876 -3.4039  1.3991  0.3919
  845MOL0     H14066  11.089  10.853   7.939  2.2181 -0.2568  1.4004
  845MOL0     H14067  11.334  10.813   7.760 -0.7607  0.5877 -1.8401
  845MOL0     H14068  11.198  10.695   7.746  1.0311 -0.8156  0.6875
  845MOL0     H14069  11.358  10.625   7.939  0.0868  0.7245 -1.1091
  845MOL0     H14070  11.192  10.673   7.977  0.4580 -1.0429 -2.2524
  845MOL0     H14071  11.399  10.722   8.119  1.6658  0.1242 -1.5747
  845MOL0     H14072  11.290  10.856   8.112  1.7790  0.9101  0.0538
  845MOL0     H14073  11.645  11.009   7.932 -1.8933  2.9036  1.0964
  845MOL0     H14074  10.908  10.705   7.861  2.0788  2.4739  1.2740
  845MOL0     H14075  10.662  10.699   7.855  1.5522 -0.5720  0.4740
  846MOL0     O14076   7.295   1.541   6.355 -0.3197 -0.0426  0.1613
  846MOL0     C14077   7.363   1.645   6.339 -0.1472 -0.0502  0.1662
  846MOL0     O14078   7.430   1.689   6.229  0.4113 -0.2430 -0.2674
  846MOL0     C14079   7.424   1.619   6.103 -0.9962  0.5483 -0.5433
  846MOL0     C14080   7.528   1.660   6.014  0.0050  0.0372  0.4822
  846MOL0     C14081   7.526   1.598   5.888  0.7379  0.5904  0.8660
  846MOL0     C14082   7.421   1.503   5.846 -1.0498 -0.6524  0.5033
  846MOL0     O14083   7.424   1.463   5.711 -0.4057 -0.1485 -0.0125
  846MOL0     C14084   7.306   1.465   5.632 -0.5196  0.5404  1.2588
  846MOL0     C14085   7.344   1.454   5.487  0.9340  0.5763 -0.1249
  846MOL0     C14086   7.387   1.599   5.449 -0.5768  0.4323 -0.3378
  846MOL0     C14087   7.373   1.623   5.298  0.5393  0.1307  0.2984
  846MOL0     C14088   7.424   1.759   5.276 -0.1204 -0.0112 -0.4377
  846MOL0     C14089   7.420   1.789   5.127  0.3168  0.2859  0.5784
  846MOL0     C14090   7.491   1.918   5.098  0.8731 -0.5450  0.5714
  846MOL0     C14091   7.641   1.920   5.130 -0.7039 -0.2804 -0.2319
  846MOL0     N14092   7.729   1.827   5.057 -0.4509 -0.4687  0.7441
  846MOL0     C14093   7.777   1.847   4.931  0.3618  0.3330  0.3518
  846MOL0     C14094   7.849   1.742   4.901 -0.5641 -0.3751  0.4791
  846MOL0     C14095   7.926   1.725   4.768 -1.0236  1.2967 -0.2878
  846MOL0     C14096   7.846   1.734   4.637  0.1795  0.8711  0.3507
  846MOL0     C14097   7.730   1.636   4.630  0.1764  0.7221 -0.0483
  846MOL0     C14098   7.660   1.662   4.499 -0.1228  0.3690  0.1647
  846MOL0     O14099   7.614   1.798   4.485 -0.3383 -0.0306 -0.4216
  846MOL0     C14100   7.482   1.824   4.518 -0.1009  0.4330 -0.0362
  846MOL0     C14101   7.449   1.964   4.510  0.0227 -0.2460 -0.0546
  846MOL0     C14102   7.311   2.007   4.511  0.4640  0.0104 -0.4914
  846MOL0     C14103   7.280   2.156   4.493 -0.2292 -0.7225 -0.7111
  846MOL0     C14104   7.211   1.911   4.522 -0.6679  1.4890 -0.8328
  846MOL0     C14105   7.067   1.961   4.534  0.2216  0.1451  0.2697
  846MOL0     O14106   7.009   2.037   4.431 -0.1351  0.2002  0.4774
  846MOL0     C14107   6.879   2.092   4.438  0.1801  0.2173  0.6384
  846MOL0     C14108   6.852   2.190   4.528 -0.3618  0.2047 -0.7852
  846MOL0     C14109   6.723   2.251   4.534  0.1031  0.8324  1.4536
  846MOL0     C14110   6.616   2.207   4.450  0.9200  0.7295 -0.3874
  846MOL0     O14111   6.497   2.264   4.473 -0.1928  0.1314  0.0948
  846MOL0     C14112   6.460   2.365   4.380  0.3641 -0.3100  0.3306
  846MOL0     C14113   6.324   2.423   4.406 -0.0882 -0.7278  1.0602
  846MOL0     C14114   6.266   2.510   4.293  0.0320 -0.1361  0.0783
  846MOL0     C14115   6.140   2.566   4.327  0.8596 -1.0516 -0.3843
  846MOL0     C14116   6.075   2.674   4.226  0.0646  1.6370 -0.2206
  846MOL0     C14117   5.921   2.700   4.261  0.8375 -0.4874  1.6748
  846MOL0     C14118   5.863   2.794   4.152 -0.4773  0.6715 -0.9727
  846MOL0     C14119   5.864   2.950   4.188  0.3784 -0.4270 -0.4559
  846MOL0    Cl14120   5.732   2.990   4.302 -0.0799  0.1277 -0.4560
  846MOL0     C14121   6.642   2.101   4.368  0.1483  0.5055 -0.1993
  846MOL0     C14122   6.774   2.051   4.352  0.0336 -0.5926  0.0929
  846MOL0     O14123   7.007   1.939   4.638  0.0523 -0.2841 -0.0445
  846MOL0     C14124   7.246   1.777   4.555 -0.1610 -0.2896 -0.7050
  846MOL0     C14125   7.374   1.735   4.545 -0.9856 -0.8408  0.8599
  846MOL0     N14126   7.846   1.662   5.014  0.3501  0.1291 -0.2572
  846MOL0     N14127   7.777   1.713   5.104 -0.3699 -0.0519  0.3773
  846MOL0     C14128   7.323   1.470   5.937  0.1033  0.1242 -0.0622
  846MOL0     C14129   7.318   1.536   6.065 -0.4570  0.6530  0.1125
  846MOL0     C14130   7.359   1.742   6.448  0.4700  0.0726 -0.4878
  846MOL0     C14131   7.473   1.824   6.483  0.2686 -0.1601  0.3631
  846MOL0     C14132   7.466   1.926   6.578 -0.3541  0.1749  0.1166
  846MOL0     C14133   7.352   1.938   6.656  0.0331  0.7440  0.2039
  846MOL0     O14134   7.361   2.036   6.747  0.1526 -0.4018 -0.1984
  846MOL0     C14135   7.294   2.041   6.865  0.7393  0.0961 -0.9623
  846MOL0     C14136   7.362   2.148   6.956 -0.0698  0.6316 -0.2271
  846MOL0     C14137   7.304   2.288   6.924 -0.1163 -0.4049  0.2148
  846MOL0     C14138   7.355   2.405   7.013  0.0498  0.1077  0.4376
  846MOL0     C14139   7.296   2.537   6.963 -0.9532 -0.4148  0.3939
  846MOL0     C14140   7.251   2.646   6.931 -0.1549 -0.3601 -1.0869
  846MOL0     C14141   7.237   1.856   6.631 -0.3996 -0.3117 -1.1587
  846MOL0     C14142   7.245   1.763   6.524  0.1915  0.9224 -0.4919
  846MOL0     H14143   7.611   1.724   6.044  0.4514 -0.0754 -0.4771
  846MOL0     H14144   7.608   1.606   5.817  0.6169 -2.5259  0.2291
  846MOL0     H14145   7.246   1.376   5.656  1.2554  0.1251  4.8354
  846MOL0     H14146   7.248   1.553   5.660 -2.5140  0.0962 -1.0747
  846MOL0     H14147   7.430   1.388   5.486  2.9838  3.0515  1.0131
  846MOL0     H14148   7.254   1.417   5.437 -1.2849  0.9064  3.2848
  846MOL0     H14149   7.320   1.669   5.500 -0.8043  0.3844 -0.5711
  846MOL0     H14150   7.485   1.626   5.489 -0.8766  3.6857 -1.5371
  846MOL0     H14151   7.424   1.536   5.254  1.0553  1.2265 -1.3702
  846MOL0     H14152   7.272   1.616   5.257  1.7114 -2.2870 -2.6800
  846MOL0     H14153   7.361   1.839   5.314 -1.1388  0.0015 -2.0546
  846MOL0     H14154   7.524   1.759   5.320 -0.5383 -2.6428  0.7017
  846MOL0     H14155   7.462   1.703   5.074 -1.4645 -0.2863  0.0307
  846MOL0     H14156   7.314   1.788   5.102  0.1127 -2.9443  1.1304
  846MOL0     H14157   7.487   1.951   4.994 -3.5716  2.0400  1.2791
  846MOL0     H14158   7.457   1.993   5.171  1.6112 -0.6227  1.0099
  846MOL0     H14159   7.657   1.901   5.236  0.5800  1.3930 -0.0823
  846MOL0     H14160   7.674   2.024   5.124  1.6597 -0.9330  0.1299
  846MOL0     H14161   7.759   1.926   4.859  2.3826 -0.1450 -0.7526
  846MOL0     H14162   8.002   1.803   4.757  2.8970 -2.1693  0.0088
  846MOL0     H14163   7.960   1.622   4.767 -1.2503  1.2103  0.2988
  846MOL0     H14164   7.920   1.696   4.567 -0.3226 -0.9487  0.7511
  846MOL0     H14165   7.810   1.837   4.626 -3.0457  0.2628  3.1993
  846MOL0     H14166   7.664   1.641   4.717  3.3476 -0.4491  2.6132
  846MOL0     H14167   7.779   1.539   4.636 -0.8455  0.1401 -0.7009
  846MOL0     H14168   7.583   1.585   4.487 -1.5901  2.0060 -1.6762
  846MOL0     H14169   7.731   1.633   4.421  1.7631  0.4772  1.7730
  846MOL0     H14170   7.529   2.037   4.507 -1.8360  1.8557 -2.2500
  846MOL0     H14171   7.236   2.201   4.582 -0.3308 -1.2773 -0.4771
  846MOL0     H14172   7.375   2.202   4.464  2.5291 -3.0770  3.4469
  846MOL0     H14173   7.212   2.159   4.408  0.9286 -2.8233 -1.8035
  846MOL0     H14174   6.938   2.233   4.579  1.0885 -1.0572 -2.0775
  846MOL0     H14175   6.697   2.338   4.593 -0.4164 -0.8509  3.8305
  846MOL0     H14176   6.532   2.447   4.385  2.0287 -1.7678  2.9905
  846MOL0     H14177   6.450   2.332   4.277  0.6578 -1.7943  0.7529
  846MOL0     H14178   6.254   2.340   4.420  1.0370 -1.7834  0.6183
  846MOL0     H14179   6.334   2.489   4.492  1.2077  1.3983 -0.6169
  846MOL0     H14180   6.246   2.453   4.202 -2.8972  0.9840 -0.0708
  846MOL0     H14181   6.328   2.596   4.267 -1.7645  0.9328 -0.8588
  846MOL0     H14182   6.081   2.475   4.337 -0.5189  0.0233  2.2871
  846MOL0     H14183   6.148   2.624   4.420 -2.2529  0.0670 -0.6971
  846MOL0     H14184   6.085   2.641   4.122 -1.1776  1.0449 -0.1657
  846MOL0     H14185   6.135   2.765   4.231  3.3088 -0.4041  0.8243
  846MOL0     H14186   5.866   2.605   4.256 -1.5904  0.8973 -2.5080
  846MOL0     H14187   5.915   2.751   4.358 -0.3449  0.8983  0.9032
  846MOL0     H14188   5.760   2.759   4.140  0.3807 -2.2779 -0.5708
  846MOL0     H14189   5.920   2.789   4.058  3.0922  0.4699  1.0044
  846MOL0     H14190   5.838   3.022   4.110  0.4501  0.9705  0.7643
  846MOL0     H14191   5.960   2.981   4.231  0.0822 -2.3387  1.8121
  846MOL0     H14192   6.556   2.052   4.323 -2.1256  2.2215  1.9784
  846MOL0     H14193   6.783   1.971   4.278 -2.6846  2.3567 -3.8426
  846MOL0     H14194   7.157   1.716   4.570 -0.0027  0.1205  2.9675
  846MOL0     H14195   7.377   1.626   4.551  0.0280 -1.6063 -5.7213
  846MOL0     H14196   7.255   1.387   5.918  0.6824 -0.9510  2.1963
  846MOL0     H14197   7.228   1.528   6.125 -1.2677 -2.4934 -1.3144
  846MOL0     H14198   7.573   1.808   6.445  0.1134 -0.9145  0.2545
  846MOL0     H14199   7.557   1.974   6.611 -0.3422  0.1357  0.1407
  846MOL0     H14200   7.191   2.071   6.844 -0.2490 -2.9342 -0.8648
  846MOL0     H14201   7.287   1.942   6.911 -1.8235 -0.8015 -3.0503
  846MOL0     H14202   7.469   2.147   6.933 -0.2534 -0.5446 -1.1215
  846MOL0     H14203   7.342   2.124   7.061  2.9162 -1.8585 -0.0922
  846MOL0     H14204   7.197   2.287   6.903  0.2076 -0.9777 -1.5851
  846MOL0     H14205   7.342   2.320   6.827  1.9798 -2.3248  0.3148
  846MOL0     H14206   7.464   2.402   7.006  0.0300 -1.1758  0.4755
  846MOL0     H14207   7.316   2.401   7.115 -1.6608  3.2605  0.0508
  846MOL0     H14208   7.195   2.730   6.897  2.4307  2.1256  0.3553
  846MOL0     H14209   7.151   1.872   6.696  1.4682  0.0843  1.3912
  846MOL0     H14210   7.157   1.703   6.502 -1.8510  2.1546  3.2605
  847MOL0     O14211   7.368   3.107  10.773 -0.1054  0.1005 -0.1174
  847MOL0     C14212   7.267   3.174  10.749 -0.4292  0.0550  0.2004
  847MOL0     O14213   7.149   3.171  10.815  0.6176 -0.3595  0.5910
  847MOL0     C14214   7.115   3.068  10.902 -0.2461 -0.9439 -0.5323
  847MOL0     C14215   6.982   3.058  10.924 -1.2065 -0.8109 -0.0770
  847MOL0     C14216   6.938   2.982  11.024  0.1418  1.8556  0.5635
  847MOL0     C14217   7.023   2.908  11.106  0.2878  0.5533  0.3224
  847MOL0     O14218   6.980   2.836  11.217 -0.3436  0.2339 -0.0544
  847MOL0     C14219   7.047   2.835  11.349  0.2062  0.3823  0.9764
  847MOL0     C14220   6.967   2.776  11.471  0.8373  0.1676  0.1781
  847MOL0     C14221   6.943   2.624  11.438  0.4405 -0.6326 -0.3180
  847MOL0     C14222   7.074   2.532  11.450  0.5350 -0.0880  0.1695
  847MOL0     C14223   7.056   2.384  11.410  0.7130  0.5899  0.1823
  847MOL0     C14224   7.055   2.349  11.259  0.3906 -0.6448 -0.4584
  847MOL0     C14225   7.015   2.201  11.245 -0.2471 -0.8051 -0.2979
  847MOL0     C14226   6.966   2.166  11.106 -0.0617 -0.4589 -0.2937
  847MOL0     N14227   6.941   2.020  11.091  1.1701 -0.7033  0.7154
  847MOL0     C14228   6.811   1.964  11.090 -1.2139 -0.6311  0.5622
  847MOL0     C14229   6.832   1.831  11.086 -0.1843 -0.2945 -0.4050
  847MOL0     C14230   6.730   1.729  11.048 -0.4680 -0.4193  0.1146
  847MOL0     C14231   6.692   1.636  11.171 -0.0848  0.6414  0.1228
  847MOL0     C14232   6.798   1.527  11.210  0.0621 -0.1977  0.1354
  847MOL0     C14233   6.809   1.406  11.117  0.0322 -1.0666 -0.1136
  847MOL0     O14234   6.690   1.345  11.083  0.9309 -0.3104  0.1452
  847MOL0     C14235   6.710   1.233  11.000 -0.9164  0.7210  0.3919
  847MOL0     C14236   6.599   1.182  10.927 -0.6689  0.2644 -0.4668
  847MOL0     C14237   6.607   1.080  10.827 -0.2166 -0.1350  0.0320
  847MOL0     C14238   6.478   1.047  10.762  0.9664  0.0240 -0.6868
  847MOL0     C14239   6.731   1.022  10.793  0.1669 -0.0579  0.7662
  847MOL0     C14240   6.755   0.904  10.709 -0.0301  1.1306  0.3144
  847MOL0     O14241   6.882   0.879  10.659  0.6185 -0.4724 -0.0599
  847MOL0     C14242   6.917   0.747  10.661  0.4299  0.5775 -0.4219
  847MOL0     C14243   6.884   0.649  10.760  0.0557 -0.4830 -0.2108
  847MOL0     C14244   6.930   0.516  10.748 -0.4183  0.0940  0.0612
  847MOL0     C14245   7.018   0.480  10.646 -1.0137 -0.2865 -0.3628
  847MOL0     O14246   7.082   0.351  10.630 -0.6247 -0.4801  0.4660
  847MOL0     C14247   6.997   0.253  10.586  0.6675 -0.5999 -0.9334
  847MOL0     C14248   7.041   0.108  10.613 -0.1177 -0.3392 -0.8660
  847MOL0     C14249   7.173   0.073  10.546  0.2129  0.1582  0.1745
  847MOL0     C14250   7.175   0.011  10.410 -0.1420  0.2432  0.1248
  847MOL0     C14251   7.313  -0.010  10.342 -1.1443  0.4132  0.1729
  847MOL0     C14252   7.383   0.115  10.288 -0.1144  0.6595  0.7940
  847MOL0     C14253   7.324   0.167  10.153  0.5911 -0.0193  0.3744
  847MOL0     C14254   7.415   0.278  10.102  0.3006 -1.2916  0.4994
  847MOL0    Cl14255   7.549   0.208  10.015 -0.5959 -0.0268 -0.0113
  847MOL0     C14256   7.055   0.579  10.555  0.8079 -0.2424  0.8470
  847MOL0     C14257   7.005   0.711  10.563 -0.3346 -1.2137 -0.1845
  847MOL0     O14258   6.652   0.830  10.685  0.6434 -0.9079 -0.2920
  847MOL0     C14259   6.847   1.078  10.862 -0.2840 -0.7053 -0.1119
  847MOL0     C14260   6.831   1.172  10.964  1.2213  0.3274 -0.6073
  847MOL0     N14261   6.962   1.807  11.125  0.1744 -0.0753  0.3483
  847MOL0     N14262   7.023   1.917  11.123 -0.0638  0.4553 -0.0975
  847MOL0     C14263   7.161   2.919  11.088 -0.4222 -0.2208 -0.3072
  847MOL0     C14264   7.206   3.002  10.984 -1.0184 -0.1190  0.1501
  847MOL0     C14265   7.282   3.273  10.636  0.2543 -0.1013  0.6663
  847MOL0     C14266   7.188   3.359  10.587  0.8266  0.0211 -0.2730
  847MOL0     C14267   7.206   3.443  10.473  1.5642  0.6023  0.1100
  847MOL0     C14268   7.329   3.438  10.409 -0.5109 -0.1195  1.5734
  847MOL0     O14269   7.326   3.529  10.302 -0.1803  0.7886 -0.0417
  847MOL0     C14270   7.461   3.588  10.278  0.7442 -0.5049 -0.0013
  847MOL0     C14271   7.475   3.704  10.377 -0.1588  1.2842  0.8818
  847MOL0     C14272   7.372   3.820  10.362 -0.8892 -0.2207 -0.4097
  847MOL0     C14273   7.432   3.959  10.413 -0.2243  0.2657 -0.2847
  847MOL0     C14274   7.544   4.020  10.334  0.5780 -0.3716  0.1338
  847MOL0     C14275   7.627   4.091  10.284  0.5053 -0.8074  0.0754
  847MOL0     C14276   7.431   3.345  10.454 -0.1822 -0.0734 -0.3899
  847MOL0     C14277   7.407   3.267  10.566  0.4617 -0.9602 -0.9838
  847MOL0     H14278   6.922   3.131  10.869  1.2541  0.6374 -1.0001
  847MOL0     H14279   6.834   2.991  11.051 -0.3124 -2.1406  0.7548
  847MOL0     H14280   7.141   2.783  11.332 -1.2383 -1.6114 -1.6156
  847MOL0     H14281   7.068   2.941  11.368  1.9469  0.1404  0.4889
  847MOL0     H14282   7.031   2.790  11.558 -0.6500  0.6547  1.2461
  847MOL0     H14283   6.883   2.842  11.498  1.8632  0.2113  3.7246
  847MOL0     H14284   6.882   2.575  11.515 -1.7091 -1.4104 -2.3714
  847MOL0     H14285   6.887   2.606  11.346  2.0496 -0.3586 -1.3839
  847MOL0     H14286   7.162   2.573  11.400  1.0906  2.8952  3.2148
  847MOL0     H14287   7.110   2.534  11.553  2.9307  0.5554 -0.6243
  847MOL0     H14288   7.127   2.324  11.467 -0.0582 -1.7354 -1.1682
  847MOL0     H14289   6.961   2.347  11.449  2.6279 -4.5940  0.7455
  847MOL0     H14290   6.987   2.409  11.198  1.3570  0.1959 -0.7257
  847MOL0     H14291   7.152   2.363  11.211  0.1623  0.3540 -0.6480
  847MOL0     H14292   7.103   2.138  11.260  0.7614  0.0365 -2.2434
  847MOL0     H14293   6.931   2.173  11.309 -0.8525  1.9905  0.2745
  847MOL0     H14294   7.042   2.198  11.034  0.6476  1.7420  1.3463
  847MOL0     H14295   6.869   2.215  11.090  0.2836 -0.2331 -1.8878
  847MOL0     H14296   6.716   2.012  11.066 -0.9753 -0.1440  0.5760
  847MOL0     H14297   6.633   1.764  11.012 -0.2433 -0.4188 -0.4969
  847MOL0     H14298   6.779   1.673  10.967  1.5033 -0.2028  1.1031
  847MOL0     H14299   6.594   1.592  11.148 -0.0552  0.9571 -0.6439
  847MOL0     H14300   6.675   1.701  11.258 -0.9246 -0.7481  1.0218
  847MOL0     H14301   6.752   1.484  11.300 -0.2918 -2.6580 -1.1335
  847MOL0     H14302   6.897   1.572  11.225 -0.1551  0.6621 -0.9273
  847MOL0     H14303   6.872   1.335  11.172  0.5400 -0.6080 -0.0866
  847MOL0     H14304   6.873   1.445  11.038 -2.7852  1.4003 -1.3539
  847MOL0     H14305   6.503   1.226  10.953  0.4438  1.2362  2.4413
  847MOL0     H14306   6.418   1.138  10.754 -0.5857 -0.6249  2.2782
  847MOL0     H14307   6.506   0.999  10.668  0.4508  0.8750 -1.2837
  847MOL0     H14308   6.427   0.976  10.827  1.5456  0.0186 -0.2315
  847MOL0     H14309   6.814   0.678  10.837 -2.2404  0.0240 -2.3566
  847MOL0     H14310   6.902   0.450  10.829 -0.2061 -0.1808 -0.0853
  847MOL0     H14311   6.892   0.271  10.610  0.6369 -1.0237 -0.7427
  847MOL0     H14312   7.000   0.270  10.478  1.0524  0.1619 -0.8146
  847MOL0     H14313   7.064   0.090  10.719  2.1752 -2.1804 -1.5817
  847MOL0     H14314   6.963   0.043  10.574 -0.6221  1.0055 -2.1752
  847MOL0     H14315   7.217   0.003  10.617  0.5113  0.8706  0.7024
  847MOL0     H14316   7.242   0.158  10.546  0.2568  0.1339  1.0924
  847MOL0     H14317   7.136  -0.089  10.430 -0.8945  0.3732 -0.6612
  847MOL0     H14318   7.108   0.059  10.338 -2.0527  0.8069  2.1499
  847MOL0     H14319   7.306  -0.082  10.260  0.9598 -0.1514  0.4497
  847MOL0     H14320   7.373  -0.047  10.425 -0.9405  0.2457 -0.0479
  847MOL0     H14321   7.383   0.202  10.355 -0.4372  2.2703 -1.2100
  847MOL0     H14322   7.488   0.094  10.270 -0.7646 -0.2461 -2.5211
  847MOL0     H14323   7.230   0.215  10.181  0.4635  0.7183 -1.2576
  847MOL0     H14324   7.308   0.083  10.085  1.4882 -3.1884  3.7472
  847MOL0     H14325   7.449   0.355  10.173  2.2875 -1.0522 -0.6215
  847MOL0     H14326   7.352   0.332  10.031 -1.3422 -4.1710 -0.3689
  847MOL0     H14327   7.120   0.555  10.472 -0.2818 -0.8214  0.1465
  847MOL0     H14328   7.033   0.784  10.488  3.1271  0.7656  2.6904
  847MOL0     H14329   6.942   1.035  10.834 -2.2413 -2.3202 -5.4019
  847MOL0     H14330   6.926   1.207  11.004 -0.1132  2.4756  0.8974
  847MOL0     H14331   7.231   2.879  11.160 -0.7158  1.0100  0.6988
  847MOL0     H14332   7.309   3.033  10.975 -0.5233 -1.4439  0.9967
  847MOL0     H14333   7.086   3.349  10.623  1.3988  0.2966  1.5460
  847MOL0     H14334   7.126   3.507  10.437 -0.4511 -2.1563 -0.6600
  847MOL0     H14335   7.552   3.529  10.271  2.1299  1.4335  0.6464
  847MOL0     H14336   7.449   3.644  10.184 -1.0673  1.8549  1.5010
  847MOL0     H14337   7.579   3.735  10.368  0.2544  0.0495  1.2786
  847MOL0     H14338   7.462   3.667  10.479  1.3728  0.2208  0.7219
  847MOL0     H14339   7.284   3.792  10.422 -0.4816  0.0398  0.3270
  847MOL0     H14340   7.331   3.827  10.261 -1.1802  0.9809 -0.2308
  847MOL0     H14341   7.467   3.945  10.516  0.0755  0.1737 -0.3996
  847MOL0     H14342   7.347   4.027  10.403 -4.1447 -4.0483  0.2210
  847MOL0     H14343   7.701   4.146  10.231 -1.4789  0.0027 -1.9932
  847MOL0     H14344   7.525   3.324  10.404  1.1694  1.0386  1.5513
  847MOL0     H14345   7.489   3.202  10.597 -1.0142 -1.0596  3.4138
  848MOL0     O14346   0.770   5.808   7.629 -1.0192 -0.1716  0.1715
  848MOL0     C14347   0.860   5.734   7.656 -0.4668 -1.1753 -0.2636
  848MOL0     O14348   0.967   5.762   7.734  0.3452  0.1517 -1.3752
  848MOL0     C14349   0.968   5.880   7.806  0.0761  0.6851 -0.0255
  848MOL0     C14350   0.975   5.875   7.944 -0.0985 -0.2997  0.5775
  848MOL0     C14351   0.995   5.984   8.023  0.7540 -0.1707 -0.8993
  848MOL0     C14352   1.004   6.109   7.960 -0.5093  0.4575  0.5045
  848MOL0     O14353   1.035   6.206   8.039  0.4007 -0.4920 -0.6803
  848MOL0     C14354   1.135   6.307   7.993  0.4233 -0.0926  0.9502
  848MOL0     C14355   1.158   6.403   8.114  0.3054 -0.0356 -0.1677
  848MOL0     C14356   1.200   6.330   8.245 -0.4436 -0.4451 -0.8873
  848MOL0     C14357   1.178   6.433   8.360 -0.1692 -0.1852  0.2791
  848MOL0     C14358   1.246   6.383   8.481 -0.6204 -0.4537 -0.0049
  848MOL0     C14359   1.202   6.456   8.606  0.2374  0.6000 -0.4122
  848MOL0     C14360   1.289   6.581   8.638 -1.0310 -0.3017  0.2828
  848MOL0     C14361   1.254   6.634   8.768  0.2749  0.9209 -0.2307
  848MOL0     N14362   1.107   6.649   8.787  0.1937  0.3321 -0.0475
  848MOL0     C14363   1.014   6.569   8.854 -0.7133  0.4661  0.6765
  848MOL0     C14364   0.894   6.635   8.845 -0.6375  0.7955  1.0942
  848MOL0     C14365   0.757   6.612   8.915  0.9302  1.1466  0.1920
  848MOL0     C14366   0.729   6.731   9.005  0.3061 -0.4736 -0.6173
  848MOL0     C14367   0.599   6.715   9.088 -0.8565  0.9888 -0.4010
  848MOL0     C14368   0.610   6.774   9.231 -0.0804 -0.6010  0.3857
  848MOL0     O14369   0.493   6.755   9.310  0.1140  0.3680  0.4018
  848MOL0     C14370   0.488   6.799   9.442 -0.1549 -1.0972 -0.4957
  848MOL0     C14371   0.603   6.846   9.509 -0.3696  0.1324 -0.2949
  848MOL0     C14372   0.606   6.868   9.647  0.8113  1.0224  0.4935
  848MOL0     C14373   0.732   6.906   9.726  0.6945  0.5457  0.3388
  848MOL0     C14374   0.481   6.843   9.714 -0.0591 -0.3350 -0.4103
  848MOL0     C14375   0.471   6.862   9.864  0.1402  1.0666  0.0260
  848MOL0     O14376   0.344   6.884   9.914 -0.6323 -0.3534 -0.2912
  848MOL0     C14377   0.319   6.921  10.045  0.4618  0.1987 -0.2210
  848MOL0     C14378   0.193   6.879  10.093 -0.4996 -0.8974 -0.6769
  848MOL0     C14379   0.158   6.908  10.228  0.7223  0.1057 -0.0404
  848MOL0     C14380   0.234   6.989  10.307  0.4733 -0.1275  0.5646
  848MOL0     O14381   0.195   7.021  10.434 -0.1438  0.3300  0.0401
  848MOL0     C14382   0.268   7.110  10.513 -1.2485  0.3876  0.2351
  848MOL0     C14383   0.177   7.161  10.628 -0.2109  0.6661  0.3529
  848MOL0     C14384   0.166   7.050  10.727  0.4453 -0.4126  0.4634
  848MOL0     C14385   0.052   7.053  10.839 -0.2072 -0.1937  0.0575
  848MOL0     C14386   0.042   7.187  10.913 -0.4154  0.2044 -0.1903
  848MOL0     C14387  -0.047   7.190  11.038 -0.1148 -0.3909  0.3908
  848MOL0     C14388  -0.187   7.123  11.016  0.0975  0.4383  1.2413
  848MOL0     C14389  -0.290   7.137  11.120  0.9699 -0.2221 -0.5447
  848MOL0    Cl14390  -0.307   7.298  11.197  0.3043 -0.3176 -0.4923
  848MOL0     C14391   0.358   7.030  10.256 -0.8525 -0.0075  0.2908
  848MOL0     C14392   0.400   6.993  10.130 -0.7912  0.7903 -0.0172
  848MOL0     O14393   0.571   6.855   9.933 -0.0490 -0.1024 -0.2949
  848MOL0     C14394   0.378   6.793   9.644  0.5808 -1.2163 -0.7226
  848MOL0     C14395   0.374   6.776   9.513  0.2431  0.4570  0.8969
  848MOL0     N14396   0.905   6.748   8.766 -0.1309 -0.0060  0.1734
  848MOL0     N14397   1.032   6.758   8.744 -0.0692  0.3610 -0.2963
  848MOL0     C14398   1.003   6.129   7.817 -0.0186  0.7074  0.3456
  848MOL0     C14399   0.986   6.011   7.740 -0.2478 -0.0383  0.5498
  848MOL0     C14400   0.866   5.597   7.582 -0.6372 -0.2805  0.3182
  848MOL0     C14401   0.969   5.503   7.614  0.1382 -0.0753 -0.1081
  848MOL0     C14402   0.984   5.381   7.546  0.6020  0.0560 -0.2885
  848MOL0     C14403   0.871   5.340   7.470 -1.0845  0.9684  0.4512
  848MOL0     O14404   0.872   5.228   7.387  0.5995 -0.3803  0.7611
  848MOL0     C14405   0.985   5.209   7.298  0.1095 -0.6837 -0.5584
  848MOL0     C14406   1.009   5.323   7.202 -0.5527  0.1959  0.6953
  848MOL0     C14407   1.130   5.292   7.106 -0.1898 -0.2905 -0.6066
  848MOL0     C14408   1.107   5.181   7.003  0.3525  0.6150  0.0928
  848MOL0     C14409   1.016   5.232   6.892 -0.6065  0.6714 -0.0546
  848MOL0     C14410   0.950   5.285   6.807 -0.8303  1.1726  0.6600
  848MOL0     C14411   0.763   5.424   7.445 -0.4955 -1.2484  0.9093
  848MOL0     C14412   0.760   5.557   7.494  0.0903  0.3832  0.4868
  848MOL0     H14413   0.974   5.777   7.991 -0.2238 -0.3300  0.5117
  848MOL0     H14414   1.013   5.977   8.130  2.0448 -2.0624 -1.1794
  848MOL0     H14415   1.231   6.261   7.970  0.2558 -1.7855  3.3180
  848MOL0     H14416   1.095   6.362   7.907  1.6319  1.8174  1.5445
  848MOL0     H14417   1.235   6.479   8.099 -0.7782  1.2195  0.4528
  848MOL0     H14418   1.069   6.461   8.137 -0.0365 -0.9086  0.7910
  848MOL0     H14419   1.148   6.236   8.262 -0.9836  0.2859  2.0394
  848MOL0     H14420   1.305   6.299   8.233 -0.5420 -0.3913 -1.9723
  848MOL0     H14421   1.228   6.526   8.332  0.7653 -1.0886 -1.2017
  848MOL0     H14422   1.071   6.441   8.381 -0.7837 -1.7289 -1.8461
  848MOL0     H14423   1.228   6.276   8.496  1.9041 -1.2090 -1.7694
  848MOL0     H14424   1.349   6.405   8.454 -0.9024  1.9376  0.6424
  848MOL0     H14425   1.098   6.484   8.586  0.2468  0.6998 -0.3216
  848MOL0     H14426   1.221   6.397   8.696 -0.2228  1.7927  0.4987
  848MOL0     H14427   1.395   6.555   8.638 -0.7680  0.1543  4.2271
  848MOL0     H14428   1.288   6.658   8.560 -1.1275  1.8283  2.2971
  848MOL0     H14429   1.293   6.736   8.776 -1.3975  1.6701 -1.1342
  848MOL0     H14430   1.303   6.562   8.834 -3.5075 -0.5777  1.2236
  848MOL0     H14431   1.033   6.475   8.905 -0.5125 -0.9554 -1.8823
  848MOL0     H14432   0.672   6.598   8.849  1.0272  0.1923  0.2464
  848MOL0     H14433   0.758   6.521   8.976 -1.1623  0.8689 -0.1341
  848MOL0     H14434   0.706   6.819   8.944  0.5006  1.1820  1.5636
  848MOL0     H14435   0.822   6.744   9.060  2.6405 -0.7456 -4.1824
  848MOL0     H14436   0.588   6.608   9.106  1.5904  0.4820 -1.5641
  848MOL0     H14437   0.506   6.745   9.040 -3.4621  0.1205  3.5658
  848MOL0     H14438   0.627   6.881   9.221 -1.6997 -0.5058 -2.1974
  848MOL0     H14439   0.701   6.735   9.279  0.7106  0.6008 -0.0963
  848MOL0     H14440   0.697   6.877   9.465 -0.2595  0.8047  0.3723
  848MOL0     H14441   0.759   6.818   9.784 -2.6554 -1.0182 -0.2399
  848MOL0     H14442   0.819   6.927   9.664 -1.9911  2.4419 -3.1940
  848MOL0     H14443   0.712   6.999   9.781 -2.2134  0.3277 -0.1549
  848MOL0     H14444   0.130   6.818  10.029 -1.7146 -1.2037  0.7415
  848MOL0     H14445   0.057   6.885  10.262  0.1968  0.0780 -1.5353
  848MOL0     H14446   0.347   7.044  10.551 -2.8725 -1.2941  0.8813
  848MOL0     H14447   0.308   7.189  10.449  0.9470 -0.4723  0.4596
  848MOL0     H14448   0.225   7.245  10.680 -0.4872  0.8709  0.2804
  848MOL0     H14449   0.081   7.188  10.584 -0.1426  0.8233  0.2989
  848MOL0     H14450   0.261   7.029  10.776  1.3275  0.1091 -0.9709
  848MOL0     H14451   0.151   6.955  10.674 -1.3396  1.1414 -2.0463
  848MOL0     H14452  -0.042   7.022  10.793 -0.7655 -0.0788  1.0898
  848MOL0     H14453   0.079   6.978  10.914 -1.0053  0.8275  1.4070
  848MOL0     H14454   0.023   7.257  10.831  1.3830 -0.8342 -1.5677
  848MOL0     H14455   0.143   7.220  10.935 -0.9989  2.2567 -0.4022
  848MOL0     H14456   0.014   7.156  11.122  1.5803  0.6262 -0.3744
  848MOL0     H14457  -0.051   7.298  11.054  6.4982  0.5276 -1.3887
  848MOL0     H14458  -0.178   7.016  10.999  1.6200  0.5675  1.1100
  848MOL0     H14459  -0.229   7.175  10.929 -2.0934  0.9859  2.5511
  848MOL0     H14460  -0.272   7.076  11.209  1.2420  0.1001 -0.3751
  848MOL0     H14461  -0.381   7.098  11.074  1.6942 -1.3882 -1.0390
  848MOL0     H14462   0.439   7.090  10.297  1.2277 -0.2647 -3.0843
  848MOL0     H14463   0.499   7.026  10.100 -1.1306  2.0945  0.2522
  848MOL0     H14464   0.285   6.768   9.693 -1.1428  3.6143 -1.0041
  848MOL0     H14465   0.279   6.757   9.463  1.3355 -1.1879 -0.6725
  848MOL0     H14466   1.019   6.227   7.773  1.7702  0.4150  0.2755
  848MOL0     H14467   0.984   6.013   7.632  1.8906  2.7229  0.4442
  848MOL0     H14468   1.042   5.533   7.689  0.4434  0.7439 -0.7134
  848MOL0     H14469   1.070   5.315   7.554  0.7192 -0.3665 -3.5515
  848MOL0     H14470   1.076   5.192   7.357  2.0060  0.8148 -2.8978
  848MOL0     H14471   0.963   5.126   7.231  1.8248 -1.7313  0.0965
  848MOL0     H14472   1.033   5.407   7.267 -1.6369 -0.0995  1.5065
  848MOL0     H14473   0.913   5.343   7.153 -1.0522  0.8363  1.9008
  848MOL0     H14474   1.214   5.255   7.166  0.2144 -0.0647 -1.0283
  848MOL0     H14475   1.166   5.383   7.057 -0.8473  0.4247  0.2013
  848MOL0     H14476   1.056   5.099   7.054  0.6405  1.5100  1.8629
  848MOL0     H14477   1.198   5.154   6.948  0.3889 -1.2324  0.9728
  848MOL0     H14478   0.879   5.342   6.750 -0.2805  0.7907 -0.4430
  848MOL0     H14479   0.681   5.390   7.383 -0.9488  2.2041 -0.6257
  848MOL0     H14480   0.677   5.623   7.471  0.1837  0.9487  1.7006
  849MOL0     O14481  10.954   1.829   2.443 -0.3173  0.3557  0.0983
  849MOL0     C14482  10.886   1.796   2.544 -0.4177 -0.2247  0.1251
  849MOL0     O14483  10.934   1.713   2.643  0.3788 -0.1945  0.0533
  849MOL0     C14484  11.039   1.635   2.619 -0.2025 -0.6219  0.2929
  849MOL0     C14485  11.173   1.674   2.637 -1.2632  0.4765  0.1894
  849MOL0     C14486  11.281   1.589   2.625 -1.0508  0.4884 -0.6672
  849MOL0     C14487  11.257   1.454   2.596  1.7525 -0.3825 -0.2390
  849MOL0     O14488  11.355   1.361   2.573  0.4085 -0.5617 -0.4815
  849MOL0     C14489  11.485   1.374   2.631  0.9889 -0.1666  0.1050
  849MOL0     C14490  11.585   1.275   2.578  0.4063 -0.1297 -0.1384
  849MOL0     C14491  11.544   1.131   2.587  0.2362  0.2990 -0.1778
  849MOL0     C14492  11.621   1.063   2.467  0.3370 -0.9610 -0.8449
  849MOL0     C14493  11.604   0.919   2.454 -0.5898  0.9337 -0.2965
  849MOL0     C14494  11.696   0.848   2.560 -0.5646  1.1175  0.4597
  849MOL0     C14495  11.685   0.703   2.550  0.3027  0.3724 -0.4310
  849MOL0     C14496  11.811   0.635   2.618 -0.1096 -0.2342  0.4587
  849MOL0     N14497  11.775   0.494   2.628  1.6917  0.9711  0.1883
  849MOL0     C14498  11.738   0.443   2.744  0.0995 -0.6767  0.0089
  849MOL0     C14499  11.700   0.323   2.715 -0.1857 -0.4709  0.1960
  849MOL0     C14500  11.622   0.220   2.802 -0.9616  0.3049 -0.1947
  849MOL0     C14501  11.699   0.163   2.924 -0.6753  0.2969  0.3073
  849MOL0     C14502  11.607   0.096   3.030  0.3106  0.8449  0.2676
  849MOL0     C14503  11.478   0.160   3.086 -0.2781 -0.0320  0.2423
  849MOL0     O14504  11.482   0.299   3.105 -0.1482  0.4437  0.0556
  849MOL0     C14505  11.367   0.376   3.139 -0.4297 -0.1137  0.3345
  849MOL0     C14506  11.248   0.316   3.153 -0.0964 -0.6999  0.1162
  849MOL0     C14507  11.131   0.388   3.181  0.6567 -0.6766 -0.0616
  849MOL0     C14508  11.004   0.308   3.208  1.1146 -1.4013 -0.4514
  849MOL0     C14509  11.136   0.530   3.178  0.0915 -0.2179 -0.0318
  849MOL0     C14510  11.021   0.624   3.197 -0.5746 -0.3120  0.5915
  849MOL0     O14511  11.047   0.746   3.254  0.1217  0.3210 -0.1327
  849MOL0     C14512  10.944   0.835   3.268  0.2085 -0.6511  0.0491
  849MOL0     C14513  10.821   0.809   3.327  0.0805  0.2536  0.8691
  849MOL0     C14514  10.741   0.914   3.351  0.1406 -0.5195  0.0306
  849MOL0     C14515  10.767   1.043   3.311 -0.0228  0.2026 -0.7757
  849MOL0     O14516  10.684   1.148   3.330  0.1252  0.5206  0.3539
  849MOL0     C14517  10.549   1.117   3.387  0.3258 -0.9511  0.8949
  849MOL0     C14518  10.461   1.242   3.396  0.4156 -0.3788 -0.2667
  849MOL0     C14519  10.322   1.207   3.425 -0.8644  0.1046 -0.2954
  849MOL0     C14520  10.247   1.345   3.436 -0.4927  0.2424 -0.3393
  849MOL0     C14521  10.106   1.328   3.482  0.8711 -0.4290 -0.4306
  849MOL0     C14522  10.010   1.273   3.386  0.2347  0.6903  1.3365
  849MOL0     C14523   9.870   1.289   3.440  0.1212 -0.7102 -0.2350
  849MOL0     C14524   9.755   1.245   3.334  0.3807 -0.2328 -0.7587
  849MOL0    Cl14525   9.720   1.069   3.323  0.0861 -0.0087  0.1779
  849MOL0     C14526  10.883   1.071   3.252  0.5256 -0.4740  0.6981
  849MOL0     C14527  10.974   0.968   3.234 -0.0044  0.6976 -0.5357
  849MOL0     O14528  10.912   0.595   3.149  0.1968  0.4793 -0.2611
  849MOL0     C14529  11.260   0.589   3.170  0.1157 -0.5453  0.0688
  849MOL0     C14530  11.371   0.512   3.151 -0.4315 -0.3108 -0.2522
  849MOL0     N14531  11.714   0.294   2.577  0.2200 -1.1948 -0.1048
  849MOL0     N14532  11.766   0.400   2.527  0.1960  0.0992 -0.3089
  849MOL0     C14533  11.124   1.406   2.591  0.2146 -0.2853 -0.1742
  849MOL0     C14534  11.021   1.501   2.606  0.1202  0.6727  0.2135
  849MOL0     C14535  10.749   1.863   2.571 -0.0621  0.5429  0.7202
  849MOL0     C14536  10.708   1.977   2.495 -0.1902  0.6689 -0.2711
  849MOL0     C14537  10.600   2.052   2.520  0.5504 -0.7975 -0.3279
  849MOL0     C14538  10.510   2.005   2.619 -0.1668 -1.0881  0.5270
  849MOL0     O14539  10.384   2.066   2.625 -1.4819  0.2158  0.1595
  849MOL0     C14540  10.293   2.035   2.739 -0.5773 -0.1126  0.3505
  849MOL0     C14541  10.166   2.103   2.711  0.3114  1.3491  0.2550
  849MOL0     C14542  10.044   2.053   2.789  0.1185 -0.1455  0.0514
  849MOL0     C14543   9.982   1.910   2.744 -0.2975  0.3298  0.5954
  849MOL0     C14544  10.054   1.796   2.813  0.8300 -0.1755  0.6385
  849MOL0     C14545  10.105   1.711   2.887  0.1246  0.0270 -0.4923
  849MOL0     C14546  10.548   1.892   2.689  0.9732 -0.3545  0.3413
  849MOL0     C14547  10.667   1.819   2.672  0.9661 -1.0106 -0.6590
  849MOL0     H14548  11.185   1.780   2.661  0.1698 -0.2404  3.0928
  849MOL0     H14549  11.379   1.633   2.639 -1.3481  0.5624  1.4837
  849MOL0     H14550  11.529   1.474   2.626  0.3717  0.0607 -2.1631
  849MOL0     H14551  11.466   1.336   2.731 -2.6492  0.9919 -0.0024
  849MOL0     H14552  11.592   1.312   2.475 -1.3229  0.9287  0.0730
  849MOL0     H14553  11.676   1.291   2.637 -1.3789  0.6627  2.6415
  849MOL0     H14554  11.575   1.084   2.680  0.0078  0.7567  0.1329
  849MOL0     H14555  11.439   1.120   2.556 -0.5539  4.9291  0.1975
  849MOL0     H14556  11.586   1.113   2.377 -1.4639  1.5850  1.1409
  849MOL0     H14557  11.727   1.089   2.479  0.1633 -1.1013  1.5807
  849MOL0     H14558  11.507   0.885   2.490 -0.7329  0.8911 -0.7139
  849MOL0     H14559  11.629   0.879   2.355  2.2313 -2.8941  1.7099
  849MOL0     H14560  11.801   0.872   2.544 -0.0378 -2.0705 -1.7204
  849MOL0     H14561  11.663   0.880   2.659 -0.4434  1.9536  0.2375
  849MOL0     H14562  11.591   0.671   2.594  0.9662 -0.6096  0.3210
  849MOL0     H14563  11.674   0.670   2.446  2.5368 -3.6313  0.3830
  849MOL0     H14564  11.824   0.691   2.711  2.0117  5.5998 -2.8315
  849MOL0     H14565  11.897   0.662   2.556  0.7580  4.9688  3.3765
  849MOL0     H14566  11.735   0.501   2.835 -1.2658 -2.2762  1.0350
  849MOL0     H14567  11.539   0.281   2.838  1.4906  2.6348  1.9873
  849MOL0     H14568  11.580   0.147   2.732 -1.1851 -0.3302  0.5944
  849MOL0     H14569  11.740   0.253   2.970 -2.2301  1.0304  0.3136
  849MOL0     H14570  11.776   0.091   2.894 -0.7340 -0.2015  1.3001
  849MOL0     H14571  11.682   0.081   3.108  1.8296  2.0319 -0.9008
  849MOL0     H14572  11.586   0.001   2.981 -1.0415  0.6870  1.1243
  849MOL0     H14573  11.453   0.115   3.183 -1.5728  0.1105  0.0002
  849MOL0     H14574  11.402   0.144   3.009  2.7036  3.8633 -4.0378
  849MOL0     H14575  11.240   0.208   3.161 -2.0689 -0.4508  5.2166
  849MOL0     H14576  11.012   0.260   3.307 -1.3881 -0.5346  0.2428
  849MOL0     H14577  10.909   0.361   3.219  2.7870  2.3090 -2.1447
  849MOL0     H14578  10.994   0.237   3.126 -0.8685 -0.8700 -0.7114
  849MOL0     H14579  10.795   0.709   3.360  1.5557 -0.8441 -1.1184
  849MOL0     H14580  10.644   0.899   3.398 -0.0911  2.3741  0.6586
  849MOL0     H14581  10.502   1.039   3.327  0.2812 -1.3358  1.4177
  849MOL0     H14582  10.552   1.069   3.486  1.0435 -1.4804  0.6344
  849MOL0     H14583  10.494   1.324   3.460 -4.3093  0.5921  1.3515
  849MOL0     H14584  10.470   1.290   3.298 -0.2568 -3.0847 -1.7770
  849MOL0     H14585  10.311   1.159   3.523  0.7785 -1.2081 -0.6991
  849MOL0     H14586  10.284   1.152   3.338  3.5745  1.7789 -3.6803
  849MOL0     H14587  10.295   1.407   3.513 -1.5036  0.7924 -0.1243
  849MOL0     H14588  10.247   1.395   3.339  0.8007 -0.0166 -0.4774
  849MOL0     H14589  10.068   1.428   3.504 -1.4923 -1.6100  1.3564
  849MOL0     H14590  10.099   1.256   3.564  2.2150 -3.4984 -2.8206
  849MOL0     H14591  10.005   1.338   3.298 -0.2319 -1.5828 -0.3923
  849MOL0     H14592  10.039   1.175   3.348 -0.3673  1.1601 -0.4210
  849MOL0     H14593   9.862   1.397   3.459  1.3235 -0.9114  1.6314
  849MOL0     H14594   9.847   1.230   3.529 -1.4641  0.7802  0.3881
  849MOL0     H14595   9.782   1.272   3.231  2.6677 -2.9878 -1.0264
  849MOL0     H14596   9.657   1.290   3.348  1.9004  2.4166  3.2529
  849MOL0     H14597  10.904   1.173   3.222  0.7879  0.4387  3.6720
  849MOL0     H14598  11.066   0.982   3.179 -0.5702  1.6372 -1.2757
  849MOL0     H14599  11.285   0.694   3.156 -0.0230 -0.5863 -0.5142
  849MOL0     H14600  11.466   0.563   3.145  0.0127 -1.0550  0.3047
  849MOL0     H14601  11.104   1.302   2.565  0.3307 -0.0073 -1.4380
  849MOL0     H14602  10.922   1.458   2.617 -0.1834  1.4341  0.5295
  849MOL0     H14603  10.769   2.026   2.420 -1.0969  0.0801 -1.4217
  849MOL0     H14604  10.580   2.143   2.465  0.8361  0.2525  1.2205
  849MOL0     H14605  10.275   1.928   2.757 -1.0357 -0.4152 -1.6568
  849MOL0     H14606  10.337   2.062   2.836 -0.3678 -0.6361  0.4071
  849MOL0     H14607  10.154   2.095   2.602 -0.4802 -0.8232  0.4495
  849MOL0     H14608  10.197   2.205   2.735  1.3534  1.0939  0.0490
  849MOL0     H14609   9.976   2.139   2.782  4.0489  3.6345  2.5230
  849MOL0     H14610  10.087   2.041   2.889  1.8527 -1.2301 -0.7846
  849MOL0     H14611   9.979   1.913   2.634  0.8970  0.3270  0.5471
  849MOL0     H14612   9.880   1.904   2.782 -0.2817 -1.5272  0.4245
  849MOL0     H14613  10.136   1.624   2.941  1.2031  0.9195  0.3762
  849MOL0     H14614  10.490   1.851   2.770 -1.0714  3.4163  1.0045
  849MOL0     H14615  10.687   1.736   2.740 -1.3378  2.0925  4.4709
  850MOL0     O14616   8.307   5.043   5.763 -0.1673  0.3475 -0.1932
  850MOL0     C14617   8.270   5.090   5.877 -0.1602  0.1797  0.0445
  850MOL0     O14618   8.196   5.207   5.892 -0.3181 -0.2921  0.4110
  850MOL0     C14619   8.162   5.289   5.785 -0.9530  0.8411 -1.1257
  850MOL0     C14620   8.154   5.432   5.805 -0.9084  0.0662 -1.2230
  850MOL0     C14621   8.110   5.514   5.700 -0.7753 -0.0508 -1.2906
  850MOL0     C14622   8.067   5.464   5.578 -0.5380  0.3554 -0.1124
  850MOL0     O14623   8.028   5.549   5.478  0.0401 -0.9096  0.5637
  850MOL0     C14624   8.040   5.510   5.342 -1.0816  0.0073  0.1051
  850MOL0     C14625   7.902   5.489   5.286 -0.7189 -0.3456  0.5270
  850MOL0     C14626   7.913   5.429   5.149  0.0789 -0.4745 -0.7451
  850MOL0     C14627   7.771   5.388   5.097 -0.6082 -0.1026  0.1187
  850MOL0     C14628   7.687   5.503   5.043  0.4084 -0.1685  1.4241
  850MOL0     C14629   7.744   5.554   4.907 -0.9916  0.4044 -0.2626
  850MOL0     C14630   7.652   5.669   4.850 -0.4699  0.4052 -1.2145
  850MOL0     C14631   7.734   5.746   4.748 -1.1041  0.3503  0.1332
  850MOL0     N14632   7.670   5.849   4.673 -0.3023 -0.1995  0.1166
  850MOL0     C14633   7.535   5.844   4.645 -0.1056 -0.5594  0.4522
  850MOL0     C14634   7.506   5.963   4.588 -0.5522 -0.4044  0.6551
  850MOL0     C14635   7.369   5.999   4.529 -1.1852  0.1539 -0.1526
  850MOL0     C14636   7.346   5.915   4.404 -0.7748 -0.9316 -0.3801
  850MOL0     C14637   7.243   5.945   4.301 -0.1505 -0.1535 -0.4187
  850MOL0     C14638   7.099   5.936   4.361 -0.2670 -0.6592  0.2669
  850MOL0     O14639   7.002   5.991   4.278 -0.3783  0.0378  0.0903
  850MOL0     C14640   6.970   5.954   4.148 -0.2358 -0.7011  0.9456
  850MOL0     C14641   6.905   6.044   4.061  0.6852  0.4972 -0.8495
  850MOL0     C14642   6.891   6.006   3.928  0.5112 -0.0690  0.4684
  850MOL0     C14643   6.808   6.107   3.849 -0.3736 -0.9180 -0.2813
  850MOL0     C14644   6.943   5.887   3.873 -0.1864  0.0382  0.4485
  850MOL0     C14645   6.926   5.842   3.729 -0.3497  0.6123  0.1074
  850MOL0     O14646   6.920   5.934   3.636 -0.7898  0.0034 -0.3512
  850MOL0     C14647   6.908   5.904   3.505 -0.4199  0.5628 -0.4288
  850MOL0     C14648   6.957   5.997   3.413 -0.1040  1.1095  0.1712
  850MOL0     C14649   6.947   5.981   3.270 -0.3312  0.1241 -0.0217
  850MOL0     C14650   6.869   5.876   3.219 -0.0167  0.3444  0.8066
  850MOL0     O14651   6.831   5.859   3.083  0.7347 -0.0886 -0.6249
  850MOL0     C14652   6.905   5.943   2.991  0.5238  0.9090 -0.5445
  850MOL0     C14653   6.865   5.922   2.846 -0.9231 -0.0776  0.4172
  850MOL0     C14654   6.718   5.956   2.817  0.5460 -0.8458  1.0128
  850MOL0     C14655   6.660   5.924   2.675  1.0671 -0.1424 -0.0251
  850MOL0     C14656   6.537   6.006   2.645  0.7196 -0.2264  0.0885
  850MOL0     C14657   6.454   5.956   2.530  0.0602 -0.0791  0.4347
  850MOL0     C14658   6.322   6.026   2.521  0.1191  0.0834  0.1909
  850MOL0     C14659   6.208   5.958   2.607  0.0636 -1.7194 -0.4220
  850MOL0    Cl14660   6.053   6.066   2.600 -0.0628 -0.2906  0.1538
  850MOL0     C14661   6.815   5.781   3.308 -0.3638  0.2523  0.6872
  850MOL0     C14662   6.835   5.799   3.444 -0.0076  0.6274  0.5406
  850MOL0     O14663   6.922   5.719   3.717  0.2365  0.0323  0.1600
  850MOL0     C14664   7.011   5.802   3.966 -0.5861 -0.1445 -0.5530
  850MOL0     C14665   7.032   5.835   4.099  0.3139  0.9270  1.5201
  850MOL0     N14666   7.629   6.039   4.589 -0.0868  0.0277 -0.1562
  850MOL0     N14667   7.722   5.977   4.656 -0.3232  0.3341 -0.1880
  850MOL0     C14668   8.070   5.325   5.558  0.1289  0.3376 -0.1923
  850MOL0     C14669   8.108   5.241   5.662 -0.1016  0.1981  0.6659
  850MOL0     C14670   8.305   5.006   6.000  0.2447 -0.0071  0.7375
  850MOL0     C14671   8.422   4.931   5.999 -0.2129  0.2677  0.3102
  850MOL0     C14672   8.444   4.851   6.115 -0.6872  0.2660  1.0088
  850MOL0     C14673   8.360   4.844   6.227  0.8186 -0.3428  0.5451
  850MOL0     O14674   8.391   4.771   6.338  0.0654 -0.1646  0.3818
  850MOL0     C14675   8.299   4.776   6.447 -1.1963  0.1559  0.8028
  850MOL0     C14676   8.361   4.713   6.567 -0.7843  0.5584 -0.2658
  850MOL0     C14677   8.372   4.559   6.556 -1.1652  0.3405  0.2326
  850MOL0     C14678   8.449   4.504   6.668  0.0572  0.1798 -0.4185
  850MOL0     C14679   8.445   4.355   6.657 -1.3369  0.0268 -0.4888
  850MOL0     C14680   8.431   4.235   6.659  0.1459 -0.1332  0.2547
  850MOL0     C14681   8.231   4.906   6.213 -0.0640 -0.0719 -0.6105
  850MOL0     C14682   8.217   4.990   6.100  1.2274 -0.1817 -0.8524
  850MOL0     H14683   8.180   5.466   5.905  0.1161 -2.7704 -0.4385
  850MOL0     H14684   8.098   5.621   5.715 -1.2300 -0.3642  0.8519
  850MOL0     H14685   8.086   5.589   5.281 -1.3428 -1.8617 -2.7445
  850MOL0     H14686   8.096   5.418   5.323 -0.9228 -0.0357  0.7842
  850MOL0     H14687   7.871   5.423   5.366  1.2925  0.4769  2.0707
  850MOL0     H14688   7.847   5.583   5.294  0.6861  0.5529  0.1445
  850MOL0     H14689   7.964   5.503   5.087  2.6311 -0.4457  1.2599
  850MOL0     H14690   7.971   5.336   5.154  0.8567  0.0614  0.3938
  850MOL0     H14691   7.790   5.329   5.007  1.9798  1.9044 -0.7705
  850MOL0     H14692   7.721   5.327   5.173 -0.5514 -0.4888 -0.1529
  850MOL0     H14693   7.584   5.468   5.031  0.7113 -0.2600 -1.6688
  850MOL0     H14694   7.687   5.596   5.100 -1.4580 -0.4180  1.9093
  850MOL0     H14695   7.846   5.585   4.932 -1.5929  1.0832  1.4762
  850MOL0     H14696   7.742   5.465   4.843  1.2254 -0.5836  0.9434
  850MOL0     H14697   7.562   5.622   4.810 -1.0760  0.4092  0.0888
  850MOL0     H14698   7.605   5.727   4.931 -0.9650 -0.5140 -0.8345
  850MOL0     H14699   7.779   5.671   4.681  3.1887  1.0349  1.9598
  850MOL0     H14700   7.819   5.792   4.799 -0.6069  0.5389 -0.8358
  850MOL0     H14701   7.457   5.769   4.657 -1.2757  0.5017 -0.4116
  850MOL0     H14702   7.291   5.974   4.602 -3.1392  0.0304 -2.1626
  850MOL0     H14703   7.358   6.106   4.505 -1.9183 -0.3119 -2.1396
  850MOL0     H14704   7.333   5.811   4.434  0.2052 -0.9560 -0.0125
  850MOL0     H14705   7.431   5.931   4.337 -0.3728  1.1049  0.5193
  850MOL0     H14706   7.255   5.877   4.216 -4.0562 -0.6364 -0.7594
  850MOL0     H14707   7.261   6.047   4.268 -0.2456 -0.2402 -0.7474
  850MOL0     H14708   7.101   5.987   4.457  1.7447 -0.2028  0.0174
  850MOL0     H14709   7.081   5.829   4.380  1.8920 -0.8923  1.3143
  850MOL0     H14710   6.866   6.131   4.114  0.0907 -1.4233  2.0538
  850MOL0     H14711   6.866   6.196   3.822 -2.8387  1.7713  2.4849
  850MOL0     H14712   6.777   6.053   3.759  0.0815  1.3116 -1.8542
  850MOL0     H14713   6.720   6.144   3.902  1.0482  1.2189  0.7269
  850MOL0     H14714   7.022   6.077   3.448  0.8707  0.8986 -1.1319
  850MOL0     H14715   7.020   6.032   3.208  1.5350  0.4959  2.3529
  850MOL0     H14716   6.891   6.049   3.014 -1.0780  0.6953 -0.4040
  850MOL0     H14717   7.012   5.921   2.998  0.2346 -2.0772 -3.1627
  850MOL0     H14718   6.933   5.971   2.776  1.3521 -2.0968  1.0670
  850MOL0     H14719   6.879   5.815   2.827  0.5495 -0.2513  2.1336
  850MOL0     H14720   6.717   6.065   2.825 -1.5235 -0.8737  1.9203
  850MOL0     H14721   6.648   5.912   2.889 -1.0761 -2.0444 -1.1314
  850MOL0     H14722   6.739   5.953   2.606  0.3520 -0.7755 -1.1307
  850MOL0     H14723   6.642   5.817   2.660  2.1315 -0.0667 -2.1955
  850MOL0     H14724   6.568   6.107   2.616  3.4919 -1.3035 -1.0970
  850MOL0     H14725   6.472   6.023   2.731  1.6199  5.7726  0.0775
  850MOL0     H14726   6.493   5.966   2.428  1.3579  0.1121  0.9418
  850MOL0     H14727   6.441   5.847   2.533 -0.7370 -0.0322 -0.7191
  850MOL0     H14728   6.285   6.026   2.418  0.5481 -2.1975 -0.0197
  850MOL0     H14729   6.335   6.134   2.538 -2.3207  1.2718 -4.1538
  850MOL0     H14730   6.236   5.965   2.713  0.3539  3.7634 -0.5797
  850MOL0     H14731   6.189   5.858   2.566  0.0117 -1.1649 -1.7811
  850MOL0     H14732   6.756   5.697   3.274  2.6634 -1.3139 -1.0930
  850MOL0     H14733   6.790   5.720   3.503  0.5305 -0.6680 -0.7296
  850MOL0     H14734   7.060   5.712   3.930 -0.4438 -1.2168  2.0956
  850MOL0     H14735   7.095   5.763   4.150 -0.6311 -0.6268  0.5975
  850MOL0     H14736   8.037   5.274   5.468 -1.7746 -3.1630  2.2340
  850MOL0     H14737   8.093   5.135   5.641 -0.1405  0.3996 -0.3625
  850MOL0     H14738   8.494   4.929   5.919  2.5082 -1.4378  2.5917
  850MOL0     H14739   8.537   4.796   6.112 -1.4242 -1.0700 -2.8569
  850MOL0     H14740   8.268   4.879   6.470 -1.9466 -0.3514  2.1664
  850MOL0     H14741   8.219   4.717   6.402 -0.9113  0.5506 -0.2467
  850MOL0     H14742   8.304   4.739   6.657  0.3623  0.7826  0.4195
  850MOL0     H14743   8.457   4.761   6.587 -0.8300  1.0156 -1.0885
  850MOL0     H14744   8.426   4.527   6.466  1.1316  2.5323  0.7191
  850MOL0     H14745   8.277   4.505   6.567 -1.6303  1.1766  0.3992
  850MOL0     H14746   8.399   4.527   6.762 -1.4236 -4.1631  0.0822
  850MOL0     H14747   8.549   4.544   6.683  0.2854 -0.8176  0.8778
  850MOL0     H14748   8.392   4.135   6.656  0.3726 -0.2239 -3.2430
  850MOL0     H14749   8.148   4.876   6.276  2.1566  0.6924  2.9387
  850MOL0     H14750   8.126   5.048   6.091  0.7378 -0.8205 -0.0844
  851MOL0     O14751   1.960   3.525   1.776  0.2143  1.3809  0.7069
  851MOL0     C14752   1.970   3.419   1.839 -0.2738  0.0436  0.1185
  851MOL0     O14753   1.880   3.322   1.853  0.9359 -0.8301  0.1488
  851MOL0     C14754   1.759   3.326   1.788 -0.0113  0.6769 -0.4576
  851MOL0     C14755   1.722   3.407   1.683 -0.2805 -0.5477  0.8602
  851MOL0     C14756   1.607   3.389   1.614  0.5615  0.0047 -0.0593
  851MOL0     C14757   1.514   3.285   1.654 -0.3874 -0.4620 -0.4209
  851MOL0     O14758   1.389   3.276   1.593  0.7695 -0.1008 -0.0210
  851MOL0     C14759   1.355   3.144   1.545  0.4157  0.2902  1.3008
  851MOL0     C14760   1.201   3.144   1.509 -0.1043  0.6628  0.5646
  851MOL0     C14761   1.151   3.042   1.409 -0.1808 -0.5518  0.6442
  851MOL0     C14762   1.000   3.059   1.371  0.2340  0.7213 -1.0217
  851MOL0     C14763   0.961   2.976   1.249 -0.3665  0.0383 -0.0578
  851MOL0     C14764   0.812   2.936   1.248  0.5189  0.3175 -0.1701
  851MOL0     C14765   0.783   2.866   1.118  0.5931 -0.0262 -0.1001
  851MOL0     C14766   0.636   2.860   1.085  0.1665  0.0917 -0.4830
  851MOL0     N14767   0.567   2.966   1.011 -0.5365 -0.5926 -1.7060
  851MOL0     C14768   0.546   3.091   1.062 -0.1735  0.3897 -0.0927
  851MOL0     C14769   0.476   3.160   0.974  0.3786 -0.4631 -0.2410
  851MOL0     C14770   0.419   3.302   0.994 -1.1096 -0.1730  0.4029
  851MOL0     C14771   0.502   3.414   0.925  0.7810  0.6241  0.5069
  851MOL0     C14772   0.505   3.413   0.772 -0.5901 -0.1718  0.3731
  851MOL0     C14773   0.560   3.543   0.707 -0.4143  0.7265 -0.4962
  851MOL0     O14774   0.592   3.512   0.571  0.1066 -0.6334 -0.2839
  851MOL0     C14775   0.659   3.612   0.509  1.2884  0.3548  0.7420
  851MOL0     C14776   0.674   3.596   0.371 -0.3229 -0.8318 -0.0243
  851MOL0     C14777   0.745   3.678   0.287  0.5532 -0.3556  0.9398
  851MOL0     C14778   0.752   3.635   0.136 -0.7092  0.0008  0.0483
  851MOL0     C14779   0.799   3.803   0.341 -0.5488 -0.3681 -0.1526
  851MOL0     C14780   0.887   3.907   0.268  0.8745  0.5425 -0.1999
  851MOL0     O14781   0.945   3.991   0.350 -0.5428  0.2839 -1.3297
  851MOL0     C14782   1.008   4.098   0.293 -0.4367  0.5315 -0.2364
  851MOL0     C14783   0.947   4.217   0.296  1.0660  0.6008  0.0861
  851MOL0     C14784   1.004   4.340   0.265  0.3366  0.2542  0.7644
  851MOL0     C14785   1.129   4.345   0.209 -0.4244 -0.7221  0.2700
  851MOL0     O14786   1.168   4.463   0.158  0.3657 -0.4413  0.9054
  851MOL0     C14787   1.250   4.475   0.042 -0.5067  0.9072 -0.3609
  851MOL0     C14788   1.227   4.621  -0.003  0.3478  0.6798 -0.1316
  851MOL0     C14789   1.085   4.625  -0.084 -1.4710 -0.1005 -0.5558
  851MOL0     C14790   1.115   4.583  -0.235 -0.1035  0.1344 -0.0931
  851MOL0     C14791   0.974   4.577  -0.303 -1.1550 -0.2779 -0.2560
  851MOL0     C14792   0.962   4.564  -0.455 -0.3041  0.3141 -0.6302
  851MOL0     C14793   0.819   4.541  -0.494  0.4101 -0.0274  0.6826
  851MOL0     C14794   0.783   4.596  -0.631 -0.3611 -0.3353  0.2640
  851MOL0    Cl14795   0.600   4.551  -0.650 -0.2891  0.2720 -0.2066
  851MOL0     C14796   1.191   4.222   0.198  0.0453  0.2945  0.4856
  851MOL0     C14797   1.141   4.100   0.253  0.5155  0.2919  0.2440
  851MOL0     O14798   0.899   3.904   0.146 -0.4809 -0.5769  0.4988
  851MOL0     C14799   0.780   3.823   0.479 -0.1017  0.2755  0.2304
  851MOL0     C14800   0.715   3.728   0.560  0.4824  0.1514  0.1683
  851MOL0     N14801   0.470   3.076   0.865 -0.3919 -0.0936 -0.4509
  851MOL0     N14802   0.531   2.964   0.887  0.2545  0.5433 -0.2482
  851MOL0     C14803   1.545   3.211   1.764 -0.8431 -0.2510 -0.4375
  851MOL0     C14804   1.671   3.224   1.830 -0.0487 -0.0656  0.5902
  851MOL0     C14805   2.097   3.400   1.911  0.1642  0.3959  0.7632
  851MOL0     C14806   2.122   3.287   1.995 -0.1440 -1.2042  0.0882
  851MOL0     C14807   2.236   3.274   2.076  0.2632  0.4289 -0.7379
  851MOL0     C14808   2.333   3.368   2.080  0.5215  0.3541  0.2178
  851MOL0     O14809   2.438   3.353   2.157 -0.2775  0.4075 -0.6235
  851MOL0     C14810   2.429   3.419   2.285  0.2721 -0.3944  0.1881
  851MOL0     C14811   2.575   3.427   2.320  0.2807  0.7045  0.1016
  851MOL0     C14812   2.610   3.565   2.390  0.4374 -0.0538  0.2785
  851MOL0     C14813   2.562   3.574   2.536 -1.1282  0.4674  0.4697
  851MOL0     C14814   2.654   3.493   2.620  0.1451  0.5245  0.4401
  851MOL0     C14815   2.731   3.442   2.693 -0.2361 -0.4804  0.0964
  851MOL0     C14816   2.323   3.474   1.988  0.0371  0.6216 -0.0787
  851MOL0     C14817   2.204   3.491   1.913 -0.5908  0.0454  0.8479
  851MOL0     H14818   1.785   3.475   1.628  0.2241 -2.0730 -0.5453
  851MOL0     H14819   1.589   3.441   1.520 -3.6512 -0.0018  0.5213
  851MOL0     H14820   1.412   3.126   1.454 -2.7463 -4.3361 -0.1022
  851MOL0     H14821   1.372   3.066   1.620  2.9206  1.1556  1.7014
  851MOL0     H14822   1.156   3.139   1.608  1.1568 -0.1843  1.1264
  851MOL0     H14823   1.169   3.243   1.476  3.7154  2.3860  1.3571
  851MOL0     H14824   1.205   3.053   1.315  0.4470 -1.2358  0.9227
  851MOL0     H14825   1.169   2.939   1.439  2.3477 -0.2624  0.3272
  851MOL0     H14826   0.945   3.011   1.453 -1.2558 -1.1438 -3.0175
  851MOL0     H14827   0.968   3.159   1.341 -1.6167 -0.0383 -1.6870
  851MOL0     H14828   0.990   3.038   1.164 -3.5067  3.0661  0.8377
  851MOL0     H14829   1.027   2.889   1.253  4.2716  3.1871  2.7773
  851MOL0     H14830   0.796   2.858   1.322 -0.2685 -0.4882 -1.1652
  851MOL0     H14831   0.739   3.017   1.263 -3.5831 -2.8850 -1.0661
  851MOL0     H14832   0.824   2.925   1.036  0.4883  2.5777  1.6210
  851MOL0     H14833   0.831   2.767   1.125  0.9073  0.0666 -0.8106
  851MOL0     H14834   0.580   2.838   1.176 -2.3143 -0.4961 -2.0386
  851MOL0     H14835   0.613   2.783   1.010 -0.4567  1.3819 -1.6679
  851MOL0     H14836   0.575   3.127   1.160 -1.9138  2.8349 -0.4021
  851MOL0     H14837   0.316   3.303   0.956 -0.4001 -1.3387 -1.6821
  851MOL0     H14838   0.409   3.330   1.099 -1.2334  1.1284  0.0728
  851MOL0     H14839   0.606   3.397   0.953  0.8386  0.8000  0.3951
  851MOL0     H14840   0.473   3.515   0.954 -1.1499  0.3757 -0.4023
  851MOL0     H14841   0.401   3.409   0.737 -0.1761  0.6469 -1.0530
  851MOL0     H14842   0.565   3.331   0.732  0.7057  1.0340 -0.2530
  851MOL0     H14843   0.642   3.562   0.777 -2.4380  1.7472  1.7620
  851MOL0     H14844   0.486   3.623   0.711 -2.1210 -0.7843 -0.6147
  851MOL0     H14845   0.640   3.503   0.326  2.7364 -2.3270  0.4775
  851MOL0     H14846   0.668   3.672   0.076  0.9569  6.7149  1.0681
  851MOL0     H14847   0.840   3.675   0.085  0.3974 -1.4119  0.7810
  851MOL0     H14848   0.755   3.526   0.145 -2.0219  0.0876  2.1350
  851MOL0     H14849   0.856   4.228   0.355 -0.1021 -1.9680 -1.0765
  851MOL0     H14850   0.949   4.433   0.278  0.0308  0.0070  1.2550
  851MOL0     H14851   1.355   4.459   0.071 -0.9885 -3.9788 -0.5741
  851MOL0     H14852   1.223   4.403  -0.036  1.7471 -0.0797 -0.3202
  851MOL0     H14853   1.234   4.686   0.085  1.3246 -0.0881  0.3796
  851MOL0     H14854   1.315   4.645  -0.063  0.9723  0.2748  0.6088
  851MOL0     H14855   1.054   4.729  -0.092 -1.2619  0.1081  1.0078
  851MOL0     H14856   1.016   4.561  -0.029  1.2984 -1.5173  1.5651
  851MOL0     H14857   1.189   4.649  -0.282 -1.3148  1.9438  0.4255
  851MOL0     H14858   1.171   4.490  -0.244  1.4005  0.9473  0.4881
  851MOL0     H14859   0.928   4.671  -0.272 -1.9676 -0.7731  0.0770
  851MOL0     H14860   0.923   4.505  -0.239  1.7692  1.0945  4.0177
  851MOL0     H14861   0.996   4.658  -0.502 -3.4220 -0.3483 -4.8060
  851MOL0     H14862   1.023   4.482  -0.494 -1.0154 -1.2200  1.3331
  851MOL0     H14863   0.744   4.582  -0.426 -1.7049 -2.3707 -0.0589
  851MOL0     H14864   0.806   4.432  -0.499  0.1452  0.0448 -0.8402
  851MOL0     H14865   0.850   4.544  -0.701  1.0359 -1.0950  2.0889
  851MOL0     H14866   0.802   4.703  -0.645 -0.4863 -0.5823 -2.2610
  851MOL0     H14867   1.289   4.221   0.152  0.0111  0.2841  0.4125
  851MOL0     H14868   1.202   4.011   0.248 -0.4115 -0.3830  0.6689
  851MOL0     H14869   0.813   3.913   0.531 -1.3586  1.5264 -1.0207
  851MOL0     H14870   0.705   3.754   0.665 -1.9939  2.1537 -0.4615
  851MOL0     H14871   1.469   3.139   1.789 -2.0491  0.4626 -1.8903
  851MOL0     H14872   1.689   3.161   1.916  2.7242  1.6635  1.4111
  851MOL0     H14873   2.049   3.207   1.985 -1.5456 -0.0297  0.5055
  851MOL0     H14874   2.246   3.186   2.138  2.0503  0.8053 -0.4411
  851MOL0     H14875   2.386   3.518   2.270  0.9262 -0.1796 -0.2746
  851MOL0     H14876   2.374   3.362   2.361 -1.1768  1.1106  0.3217
  851MOL0     H14877   2.632   3.415   2.228 -0.4779 -0.4342 -0.2397
  851MOL0     H14878   2.592   3.342   2.386  1.7845  1.0610  0.2092
  851MOL0     H14879   2.581   3.660   2.345 -0.2213 -0.5484 -0.3857
  851MOL0     H14880   2.718   3.577   2.388  0.7275 -2.3053 -0.7019
  851MOL0     H14881   2.461   3.536   2.551 -1.4755  1.7123  1.4583
  851MOL0     H14882   2.588   3.674   2.573  0.5709  0.3769 -0.3736
  851MOL0     H14883   2.804   3.389   2.751 -0.5430 -2.2450 -1.0342
  851MOL0     H14884   2.414   3.530   1.969 -0.4351  0.7323 -2.3782
  851MOL0     H14885   2.206   3.574   1.843  2.0296 -0.0779  0.6764
  852MOL0     O14886   8.391   1.664   5.668 -0.0846 -0.5472  0.3529
  852MOL0     C14887   8.484   1.661   5.594 -0.0716 -0.2906  0.3517
  852MOL0     O14888   8.608   1.719   5.621 -0.4459  0.5082  0.1547
  852MOL0     C14889   8.631   1.781   5.743  0.4715 -0.5639  0.2033
  852MOL0     C14890   8.626   1.708   5.859  0.7505  0.4124 -0.0379
  852MOL0     C14891   8.648   1.766   5.990 -0.4631 -0.4858  0.2886
  852MOL0     C14892   8.688   1.894   6.003 -0.3096 -0.3475 -0.3035
  852MOL0     O14893   8.727   1.938   6.136  0.0746  0.1877  0.0450
  852MOL0     C14894   8.748   2.083   6.143 -0.1792 -0.1199  0.1667
  852MOL0     C14895   8.786   2.124   6.285 -0.0005  0.3962  1.3583
  852MOL0     C14896   8.923   2.084   6.325 -0.6619 -0.2925 -0.4044
  852MOL0     C14897   8.936   2.108   6.479 -0.7360 -0.7294 -0.3378
  852MOL0     C14898   9.055   2.033   6.541  0.9427  0.2755  1.0075
  852MOL0     C14899   9.045   1.883   6.573 -0.6897 -0.3294 -0.4459
  852MOL0     C14900   8.951   1.840   6.676  0.2297 -0.3210  0.0777
  852MOL0     C14901   8.998   1.875   6.820 -0.0590  0.0953  0.3430
  852MOL0     N14902   8.897   1.943   6.906  0.1523 -0.3826  0.6678
  852MOL0     C14903   8.856   1.901   7.032  0.6713  0.5099  1.0288
  852MOL0     C14904   8.749   1.980   7.070 -0.9043 -0.3971  0.2912
  852MOL0     C14905   8.671   1.960   7.197  0.0305  0.2497  0.3807
  852MOL0     C14906   8.753   2.002   7.313 -0.5548 -1.3905  0.0909
  852MOL0     C14907   8.775   2.160   7.317  0.2675 -0.0542  0.3350
  852MOL0     C14908   8.842   2.199   7.444 -0.1318 -0.6576 -0.0564
  852MOL0     O14909   8.756   2.184   7.560  0.0077  1.1055 -0.0179
  852MOL0     C14910   8.667   2.280   7.594  0.2918 -0.2269 -0.0685
  852MOL0     C14911   8.635   2.396   7.530  0.2387 -0.4397  1.5771
  852MOL0     C14912   8.536   2.483   7.579  0.1472  0.6090 -0.4343
  852MOL0     C14913   8.504   2.598   7.483 -0.1658 -0.5177 -0.2039
  852MOL0     C14914   8.468   2.453   7.701 -0.4787  0.3625 -0.3383
  852MOL0     C14915   8.368   2.541   7.761  0.3908  0.4620 -0.9759
  852MOL0     O14916   8.275   2.484   7.851  0.2864  0.0935 -0.2889
  852MOL0     C14917   8.166   2.560   7.886  0.7229  0.1499 -0.0253
  852MOL0     C14918   8.087   2.628   7.798 -0.7143 -0.6239 -1.6461
  852MOL0     C14919   7.984   2.703   7.850  0.4567  0.6518  0.3516
  852MOL0     C14920   7.954   2.706   7.988  1.3733 -0.4908  0.3254
  852MOL0     O14921   7.844   2.781   8.026 -0.2471 -0.0426  0.1763
  852MOL0     C14922   7.733   2.712   8.092  0.8711  1.0623  0.4933
  852MOL0     C14923   7.642   2.822   8.158  1.2355 -0.9446 -0.6040
  852MOL0     C14924   7.596   2.945   8.073  0.0958  0.6440  0.2021
  852MOL0     C14925   7.483   3.012   8.149 -0.2347  0.9214  0.2938
  852MOL0     C14926   7.428   3.131   8.071 -0.4091  0.3426 -0.3164
  852MOL0     C14927   7.520   3.245   8.102  0.3418  0.2020 -0.3951
  852MOL0     C14928   7.519   3.370   8.022  0.2003  0.7315  0.2805
  852MOL0     C14929   7.394   3.454   8.022 -0.0908 -0.1404 -0.4036
  852MOL0    Cl14930   7.443   3.625   8.011  0.1006  0.2619  0.4066
  852MOL0     C14931   8.040   2.652   8.076  0.2762  0.2454  0.6072
  852MOL0     C14932   8.144   2.570   8.025 -0.3598 -0.5548  0.2707
  852MOL0     O14933   8.363   2.655   7.725 -1.4616 -0.0333 -0.0372
  852MOL0     C14934   8.492   2.327   7.756 -0.0807 -0.8092 -0.3172
  852MOL0     C14935   8.590   2.245   7.700  0.7179  0.5983  0.2074
  852MOL0     N14936   8.733   2.076   6.962  0.1220 -0.1265 -0.4335
  852MOL0     N14937   8.811   2.039   6.869 -0.1233 -0.1585  1.2305
  852MOL0     C14938   8.702   1.967   5.886 -0.1680 -1.2929 -0.1910
  852MOL0     C14939   8.673   1.912   5.758  0.1783 -0.5133 -0.0307
  852MOL0     C14940   8.481   1.572   5.474 -0.3501  0.5412  0.5389
  852MOL0     C14941   8.580   1.573   5.369  0.4501 -0.4378 -0.3283
  852MOL0     C14942   8.576   1.475   5.273  0.0998 -1.0424 -0.2035
  852MOL0     C14943   8.472   1.381   5.261  0.4055 -0.1606  0.6057
  852MOL0     O14944   8.472   1.290   5.157 -0.4929  0.8400  1.0119
  852MOL0     C14945   8.559   1.177   5.181  0.1439  0.1535  0.4602
  852MOL0     C14946   8.481   1.063   5.242  0.0705 -0.8580 -0.7922
  852MOL0     C14947   8.383   1.002   5.139  0.9334 -0.9349 -0.1080
  852MOL0     C14948   8.312   0.880   5.196  0.3985 -0.0222 -0.1960
  852MOL0     C14949   8.190   0.853   5.114 -0.0531 -0.6656  0.1239
  852MOL0     C14950   8.102   0.832   5.035  0.2297 -0.0818 -1.4815
  852MOL0     C14951   8.372   1.382   5.360 -0.7399 -0.3746  0.4984
  852MOL0     C14952   8.377   1.479   5.465 -0.8977 -0.2938  0.5061
  852MOL0     H14953   8.607   1.602   5.845  3.4915  0.0539 -1.7911
  852MOL0     H14954   8.657   1.715   6.085 -0.7110 -1.5704 -0.2568
  852MOL0     H14955   8.824   2.113   6.070 -1.0260  2.7208  0.3343
  852MOL0     H14956   8.652   2.131   6.126 -0.2584  1.4015  3.9242
  852MOL0     H14957   8.773   2.232   6.291 -1.2783  0.1854  3.6613
  852MOL0     H14958   8.714   2.076   6.353 -1.7721 -0.1395 -0.7916
  852MOL0     H14959   8.944   1.982   6.293 -2.1252  0.1258 -3.0165
  852MOL0     H14960   9.003   2.140   6.274 -2.7020  0.1545 -3.3423
  852MOL0     H14961   8.940   2.216   6.498 -3.8976 -0.3017 -1.4612
  852MOL0     H14962   8.839   2.103   6.530  0.0149 -2.9848  1.0141
  852MOL0     H14963   9.132   2.038   6.463  1.0653  0.2618  1.1281
  852MOL0     H14964   9.104   2.084   6.624  2.2740 -1.1776  1.1711
  852MOL0     H14965   9.031   1.830   6.478 -0.8764 -0.2263 -0.4760
  852MOL0     H14966   9.147   1.851   6.596 -0.2138  1.4587  0.0495
  852MOL0     H14967   8.846   1.861   6.654  0.8653  0.3852 -2.6411
  852MOL0     H14968   8.959   1.731   6.672  0.3615 -0.4752  2.7844
  852MOL0     H14969   9.082   1.945   6.821 -0.6563  0.8460  1.9283
  852MOL0     H14970   9.024   1.784   6.875 -2.1929 -1.4069 -0.9950
  852MOL0     H14971   8.912   1.827   7.088  0.5984  0.1959  0.6940
  852MOL0     H14972   8.569   1.998   7.197 -0.2941 -0.5138  2.6739
  852MOL0     H14973   8.659   1.852   7.212  1.7700 -0.0594 -0.1459
  852MOL0     H14974   8.854   1.961   7.305 -0.9394 -2.2173 -0.7884
  852MOL0     H14975   8.702   1.981   7.407 -2.1528  2.1300  0.1841
  852MOL0     H14976   8.689   2.213   7.275 -0.1871 -0.4955  0.6999
  852MOL0     H14977   8.848   2.182   7.238  0.5907 -0.3228  0.5575
  852MOL0     H14978   8.871   2.305   7.437  3.1443 -1.4549  0.0813
  852MOL0     H14979   8.939   2.159   7.473 -0.4672 -2.1836 -0.9555
  852MOL0     H14980   8.694   2.418   7.441  1.5349 -0.1818  2.4739
  852MOL0     H14981   8.408   2.646   7.502  0.7947  0.9285  1.3191
  852MOL0     H14982   8.590   2.666   7.477  1.5038 -2.5905 -1.3131
  852MOL0     H14983   8.488   2.554   7.384  1.4235 -2.0237  0.1505
  852MOL0     H14984   8.105   2.628   7.690 -2.4836  2.3257 -2.0400
  852MOL0     H14985   7.921   2.756   7.779 -2.3829 -2.3858  0.3719
  852MOL0     H14986   7.673   2.651   8.024 -0.9951  0.5411  2.5084
  852MOL0     H14987   7.765   2.644   8.172 -1.0665  0.3460  0.7144
  852MOL0     H14988   7.549   2.771   8.183  0.4139 -0.9481 -3.3263
  852MOL0     H14989   7.689   2.843   8.254  1.1291 -2.6660 -0.1447
  852MOL0     H14990   7.577   2.911   7.971  0.6657 -1.7805  0.8480
  852MOL0     H14991   7.672   3.023   8.063  0.7963 -0.1714 -1.1505
  852MOL0     H14992   7.398   2.948   8.177  0.8018  0.2212  2.0390
  852MOL0     H14993   7.521   3.045   8.246  2.5917 -0.2167 -0.3453
  852MOL0     H14994   7.322   3.158   8.076 -0.8409 -1.3824  0.5662
  852MOL0     H14995   7.455   3.114   7.967  4.2212 -0.3751  0.7712
  852MOL0     H14996   7.490   3.276   8.203  2.6102  1.5676 -0.0760
  852MOL0     H14997   7.621   3.206   8.122  0.6402  2.5507  4.1310
  852MOL0     H14998   7.562   3.364   7.921 -1.1859 -0.3993 -0.2721
  852MOL0     H14999   7.600   3.425   8.071  1.5413 -1.4149  0.5859
  852MOL0     H15000   7.339   3.448   8.116 -0.0027 -0.6034 -0.3781
  852MOL0     H15001   7.323   3.433   7.941 -1.0103  0.7155  0.1589
  852MOL0     H15002   8.021   2.665   8.182 -0.3835  0.3144  0.4839
  852MOL0     H15003   8.212   2.521   8.093 -0.9039 -2.3325 -0.4032
  852MOL0     H15004   8.444   2.291   7.847  2.0667  0.8276  1.6036
  852MOL0     H15005   8.607   2.150   7.750  2.3642  0.5075 -0.4637
  852MOL0     H15006   8.723   2.073   5.887  0.8301 -1.4522  2.4824
  852MOL0     H15007   8.671   1.960   5.660  0.3619 -0.3172  0.0621
  852MOL0     H15008   8.648   1.657   5.374 -0.4194  0.2285  2.4046
  852MOL0     H15009   8.659   1.487   5.204  2.5700 -0.7221  2.6219
  852MOL0     H15010   8.604   1.138   5.089  0.4593  3.7239 -1.0733
  852MOL0     H15011   8.643   1.204   5.246  1.6123 -2.0963 -0.3994
  852MOL0     H15012   8.428   1.104   5.328  1.4459 -1.4091  0.3620
  852MOL0     H15013   8.555   0.994   5.284 -0.7622 -0.2112  1.9058
  852MOL0     H15014   8.427   0.977   5.042  0.0346  2.7752 -1.6227
  852MOL0     H15015   8.313   1.079   5.108 -1.6136 -2.8180  0.6787
  852MOL0     H15016   8.268   0.900   5.294  0.8281 -0.2126  0.0353
  852MOL0     H15017   8.378   0.794   5.185 -0.1715 -0.2516 -2.3407
  852MOL0     H15018   8.017   0.797   4.979 -0.0582  1.0015 -1.7449
  852MOL0     H15019   8.291   1.310   5.355 -3.0954  2.1591  0.4869
  852MOL0     H15020   8.294   1.482   5.535 -2.1666 -1.9295 -0.8602
  853MOL0     O15021   2.479   1.160   8.974 -0.4769  0.0052  0.2483
  853MOL0     C15022   2.453   1.084   8.880  0.0421 -0.1724 -1.0340
  853MOL0     O15023   2.332   1.071   8.819  0.5531 -0.3374  0.0421
  853MOL0     C15024   2.222   1.151   8.840  0.0895 -0.2849  0.8648
  853MOL0     C15025   2.197   1.264   8.766  0.6929 -0.1536  0.8118
  853MOL0     C15026   2.085   1.349   8.792 -0.4868 -0.1858  0.5132
  853MOL0     C15027   2.005   1.333   8.904 -0.4787  0.2725 -0.4594
  853MOL0     O15028   1.907   1.413   8.953 -0.3862  0.3707 -0.1393
  853MOL0     C15029   1.883   1.544   8.910  0.2184 -0.0385  0.1763
  853MOL0     C15030   1.823   1.625   9.022  1.0146  0.4689  0.5986
  853MOL0     C15031   1.919   1.655   9.134  0.7124  0.5344  0.7297
  853MOL0     C15032   1.845   1.704   9.252  0.5801 -1.2918  0.6384
  853MOL0     C15033   1.926   1.737   9.375  0.1975 -0.8263  0.1834
  853MOL0     C15034   1.830   1.798   9.477 -0.8625  0.9031 -0.7120
  853MOL0     C15035   1.910   1.789   9.602 -0.3867 -0.2195  0.2555
  853MOL0     C15036   1.817   1.791   9.736 -0.4725  0.1492  0.3574
  853MOL0     N15037   1.891   1.779   9.862 -0.2370 -0.7089  1.1340
  853MOL0     C15038   2.025   1.784   9.878  0.5326  0.3878 -0.2452
  853MOL0     C15039   2.046   1.766  10.011  0.3895  0.4551  0.6218
  853MOL0     C15040   2.177   1.733  10.064  1.0040 -0.6140 -0.4909
  853MOL0     C15041   2.209   1.596  10.022 -0.2978  0.9185 -0.2116
  853MOL0     C15042   2.357   1.578  10.066 -0.8380  0.2343 -0.2825
  853MOL0     C15043   2.403   1.434  10.062 -0.3558 -0.4124  0.2390
  853MOL0     O15044   2.422   1.393   9.927 -0.0188 -0.1360  0.1027
  853MOL0     C15045   2.533   1.444   9.867 -0.2947  0.6316  0.0795
  853MOL0     C15046   2.660   1.410   9.904 -0.0073  0.7733  0.0907
  853MOL0     C15047   2.774   1.461   9.853  0.0049 -0.6195 -0.2140
  853MOL0     C15048   2.904   1.409   9.908  0.1813 -0.3983  0.1168
  853MOL0     C15049   2.767   1.568   9.758 -0.0759 -0.1818 -0.6183
  853MOL0     C15050   2.882   1.650   9.723  1.1816  0.2898  0.4355
  853MOL0     O15051   2.868   1.707   9.598  0.3504  0.0930 -0.8967
  853MOL0     C15052   2.971   1.734   9.516 -0.1680  0.8760  0.2962
  853MOL0     C15053   2.968   1.847   9.436  0.1265 -1.0616  1.0994
  853MOL0     C15054   3.066   1.868   9.341 -0.3214  1.8883 -0.0507
  853MOL0     C15055   3.180   1.782   9.340 -2.1066  0.0848 -0.4504
  853MOL0     O15056   3.273   1.796   9.244 -0.5654 -0.4144 -0.1681
  853MOL0     C15057   3.389   1.882   9.270 -0.1719 -0.3466  0.3431
  853MOL0     C15058   3.508   1.828   9.196  0.4169 -0.0740 -0.0203
  853MOL0     C15059   3.628   1.929   9.175  0.3640  0.0861  0.0780
  853MOL0     C15060   3.750   1.855   9.126 -0.0954 -0.6977 -0.1335
  853MOL0     C15061   3.855   1.956   9.075  0.7591 -0.6793 -0.9993
  853MOL0     C15062   3.987   1.877   9.046 -0.0734 -0.0660 -0.1564
  853MOL0     C15063   4.097   1.969   8.979  0.7292 -0.0468 -0.4055
  853MOL0     C15064   4.220   1.893   8.948 -0.0327  0.6764  0.1475
  853MOL0    Cl15065   4.313   1.968   8.809  0.2080  0.6303 -0.2769
  853MOL0     C15066   3.197   1.680   9.441 -0.2842  0.1534  0.8080
  853MOL0     C15067   3.096   1.669   9.528  0.6035 -0.0487 -0.7045
  853MOL0     O15068   2.967   1.671   9.807  0.2831 -0.3099  0.4197
  853MOL0     C15069   2.637   1.603   9.709 -0.0530 -0.5105  0.2499
  853MOL0     C15070   2.524   1.535   9.763  0.1601 -0.2518 -0.5660
  853MOL0     N15071   1.924   1.767  10.074  0.5147 -0.2506  0.5736
  853MOL0     N15072   1.829   1.787   9.984  0.3824 -0.0269  0.0627
  853MOL0     C15073   2.024   1.207   8.970  0.3573  0.2340  0.6206
  853MOL0     C15074   2.121   1.117   8.934  0.1424  0.4115  0.1709
  853MOL0     C15075   2.567   1.006   8.812  1.1347  0.2578  0.5443
  853MOL0     C15076   2.536   0.897   8.720  0.0924 -0.1405  0.4205
  853MOL0     C15077   2.644   0.827   8.661 -0.1303 -0.2266  0.1930
  853MOL0     C15078   2.781   0.861   8.695  0.5535  0.3974 -0.4649
  853MOL0     O15079   2.898   0.807   8.651  0.0258  0.7302 -0.1402
  853MOL0     C15080   2.887   0.687   8.572  0.2556 -0.2023  0.0835
  853MOL0     C15081   3.033   0.632   8.564 -0.7555 -0.8786 -0.0399
  853MOL0     C15082   3.096   0.578   8.697 -1.0133 -0.1790 -0.0378
  853MOL0     C15083   3.179   0.677   8.776  0.7345  0.1617 -0.4556
  853MOL0     C15084   3.212   0.610   8.902 -0.1659 -1.0288  0.5831
  853MOL0     C15085   3.249   0.542   8.997 -1.3078 -0.5085  0.7634
  853MOL0     C15086   2.794   0.971   8.777  0.9080  1.0322 -0.4231
  853MOL0     C15087   2.695   1.040   8.837 -0.3322 -0.4230  0.7081
  853MOL0     H15088   2.263   1.290   8.683 -0.9367  2.7456  0.2828
  853MOL0     H15089   2.068   1.447   8.748 -1.0250  1.7170  4.5329
  853MOL0     H15090   1.975   1.594   8.880 -0.0105 -0.4754 -1.3317
  853MOL0     H15091   1.812   1.540   8.827  1.5006  0.8424 -1.0079
  853MOL0     H15092   1.785   1.721   8.985  0.4997 -0.9027 -2.7637
  853MOL0     H15093   1.738   1.575   9.069 -0.4061 -1.3195 -3.4449
  853MOL0     H15094   1.959   1.558   9.167 -0.7932  0.1559  1.5223
  853MOL0     H15095   2.001   1.721   9.104  1.2395 -0.4638 -0.1292
  853MOL0     H15096   1.796   1.797   9.222  2.8593  0.0707  0.9099
  853MOL0     H15097   1.772   1.626   9.273 -4.6673  1.9053 -3.2419
  853MOL0     H15098   1.964   1.640   9.407  0.3695 -0.8715 -0.1551
  853MOL0     H15099   1.997   1.820   9.366  0.8817 -1.4823 -0.6644
  853MOL0     H15100   1.807   1.900   9.443 -4.5536  0.4838  0.0429
  853MOL0     H15101   1.735   1.745   9.485  0.3764 -1.1716  1.2010
  853MOL0     H15102   1.958   1.691   9.609  1.4502  0.7249  1.8227
  853MOL0     H15103   1.980   1.873   9.606  0.6520 -0.9480 -1.4356
  853MOL0     H15104   1.747   1.707   9.733 -1.4996  0.9742 -2.3021
  853MOL0     H15105   1.771   1.890   9.734  1.0706  1.1684  4.6928
  853MOL0     H15106   2.104   1.787   9.804  1.5043  0.7030  0.7794
  853MOL0     H15107   2.251   1.803  10.023  2.5736 -1.2578  1.1024
  853MOL0     H15108   2.181   1.743  10.173 -2.3963  1.3223 -0.4187
  853MOL0     H15109   2.194   1.587   9.914  0.4517  2.1509 -0.4413
  853MOL0     H15110   2.144   1.517  10.061  0.6709 -0.9479 -2.1786
  853MOL0     H15111   2.357   1.618  10.168 -2.7256  3.5296 -1.4313
  853MOL0     H15112   2.431   1.645  10.020  0.0205  1.0549  2.1374
  853MOL0     H15113   2.333   1.367  10.112 -1.5577  0.2274 -0.5274
  853MOL0     H15114   2.487   1.419  10.131 -1.7580 -0.1570  2.0647
  853MOL0     H15115   2.670   1.330   9.978  0.3071 -0.8019 -1.5833
  853MOL0     H15116   2.929   1.460  10.001 -1.6473 -1.0544  1.0250
  853MOL0     H15117   2.883   1.310   9.951 -0.1833  0.8355  3.0436
  853MOL0     H15118   2.980   1.411   9.830 -0.1934 -1.0780 -0.2819
  853MOL0     H15119   2.879   1.908   9.445 -0.2127 -1.4165  0.2788
  853MOL0     H15120   3.058   1.951   9.273  0.1200  2.2617  0.3478
  853MOL0     H15121   3.375   1.978   9.220 -0.2734 -0.9413 -0.8071
  853MOL0     H15122   3.390   1.890   9.379 -2.8294  0.3499  0.3885
  853MOL0     H15123   3.543   1.742   9.254  2.0349 -0.8970 -2.0717
  853MOL0     H15124   3.468   1.780   9.107 -2.2373 -1.4331  1.7630
  853MOL0     H15125   3.660   1.983   9.265  1.4094 -2.4808  1.3308
  853MOL0     H15126   3.591   1.997   9.097 -1.6404 -0.8181  0.1906
  853MOL0     H15127   3.790   1.799   9.211 -0.1183 -1.2140 -0.4576
  853MOL0     H15128   3.726   1.777   9.053 -0.3179  1.6240 -2.7311
  853MOL0     H15129   3.867   2.034   9.152  2.0118 -1.0464 -0.8021
  853MOL0     H15130   3.814   2.008   8.988  0.1131 -1.1709 -1.0024
  853MOL0     H15131   4.030   1.827   9.134 -0.5280 -0.9386 -0.4263
  853MOL0     H15132   3.974   1.800   8.970  1.4449  1.7894 -2.4478
  853MOL0     H15133   4.118   2.053   9.046 -4.1565  0.0126  1.4694
  853MOL0     H15134   4.054   2.005   8.885 -1.6641 -0.8017  0.3319
  853MOL0     H15135   4.199   1.786   8.938  0.1980  0.7300 -1.1508
  853MOL0     H15136   4.297   1.904   9.025  3.5145 -1.3458 -2.7830
  853MOL0     H15137   3.284   1.616   9.453 -0.3193 -0.6096 -2.1447
  853MOL0     H15138   3.115   1.586   9.596  2.3870 -0.1181 -1.2311
  853MOL0     H15139   2.617   1.678   9.634  0.3148 -0.3453  0.3164
  853MOL0     H15140   2.422   1.558   9.734 -0.2043 -0.7820  0.2513
  853MOL0     H15141   1.958   1.177   9.051 -1.3059  0.2900 -0.6659
  853MOL0     H15142   2.122   1.023   8.987 -0.3012  0.5708  0.4735
  853MOL0     H15143   2.439   0.857   8.694  0.1091  1.0187 -1.6205
  853MOL0     H15144   2.609   0.743   8.601 -1.6220 -0.3937  1.2585
  853MOL0     H15145   2.826   0.611   8.622  2.9918 -2.7068 -0.0900
  853MOL0     H15146   2.856   0.707   8.470  0.8786 -2.0918 -0.5337
  853MOL0     H15147   3.101   0.696   8.508  0.1221 -3.1962 -1.8129
  853MOL0     H15148   3.020   0.541   8.505  1.5592 -0.9231 -0.5612
  853MOL0     H15149   3.151   0.488   8.668  4.1281  3.0420 -1.5281
  853MOL0     H15150   3.013   0.540   8.757 -1.5117  1.1065  0.1098
  853MOL0     H15151   3.121   0.769   8.789  1.1627  0.7311 -2.3084
  853MOL0     H15152   3.271   0.704   8.724  0.8209  2.5199  0.8087
  853MOL0     H15153   3.293   0.471   9.063  3.2795 -0.9361 -2.2968
  853MOL0     H15154   2.898   0.995   8.793  0.5116  1.1093  2.5878
  853MOL0     H15155   2.717   1.138   8.877  0.1540 -1.0547  2.0462
  854MOL0     O15156   0.982   0.984   0.964  0.3210 -0.4607  0.3905
  854MOL0     C15157   0.963   1.015   0.842 -0.7151  0.9760 -0.5009
  854MOL0     O15158   0.845   0.997   0.767  0.3756 -0.7890  0.0756
  854MOL0     C15159   0.727   0.980   0.837  0.4768  0.1535  0.5326
  854MOL0     C15160   0.699   0.919   0.971  0.0545 -0.1638  0.8949
  854MOL0     C15161   0.570   0.912   1.012 -0.4314 -0.4427  0.1034
  854MOL0     C15162   0.463   0.953   0.925  0.4976 -0.4882  0.2833
  854MOL0     O15163   0.331   0.938   0.972 -0.1683  0.2517  0.6901
  854MOL0     C15164   0.303   0.988   1.105 -0.1021 -0.2828  0.7686
  854MOL0     C15165   0.158   1.036   1.100 -0.2723  0.4462 -0.4672
  854MOL0     C15166   0.160   1.184   1.045  0.1016 -0.1568 -0.5764
  854MOL0     C15167   0.143   1.198   0.903 -0.0654 -0.9900 -0.0942
  854MOL0     C15168   0.204   1.325   0.847 -0.5213 -0.3168  0.0044
  854MOL0     C15169   0.143   1.377   0.725 -0.7861 -0.1946 -1.0768
  854MOL0     C15170   0.111   1.268   0.613  0.5708 -0.4946  0.2603
  854MOL0     C15171   0.052   1.324   0.489  0.0979 -0.1024 -0.1680
  854MOL0     N15172  -0.001   1.222   0.398 -0.2377 -0.2008 -0.3323
  854MOL0     C15173  -0.131   1.213   0.363 -0.2496 -1.0544 -0.4874
  854MOL0     C15174  -0.147   1.116   0.270 -0.1286 -0.8950 -0.3343
  854MOL0     C15175  -0.277   1.089   0.199 -0.2216  0.0099  0.5896
  854MOL0     C15176  -0.275   0.958   0.129  0.2180 -0.2411 -1.3715
  854MOL0     C15177  -0.390   0.915   0.038  0.0697  0.0125 -0.9517
  854MOL0     C15178  -0.385   0.765   0.007  0.4571 -0.1403 -1.1128
  854MOL0     O15179  -0.357   0.680   0.123 -0.1482 -0.4115 -0.0520
  854MOL0     C15180  -0.416   0.554   0.132  0.6451 -0.4203  0.5799
  854MOL0     C15181  -0.498   0.484   0.037 -0.6938  0.3970 -0.9197
  854MOL0     C15182  -0.567   0.368   0.063 -0.6218  0.6538 -0.6635
  854MOL0     C15183  -0.657   0.325  -0.048 -0.0331  0.4435 -0.0451
  854MOL0     C15184  -0.561   0.317   0.195 -0.4415  0.5547 -0.3252
  854MOL0     C15185  -0.637   0.193   0.233 -0.8791 -0.4649 -0.1266
  854MOL0     O15186  -0.581   0.089   0.297  0.2344  0.4022  0.2135
  854MOL0     C15187  -0.451   0.050   0.284 -1.1555 -0.8871 -0.0526
  854MOL0     C15188  -0.379   0.054   0.405 -0.3119 -0.5215  0.4316
  854MOL0     C15189  -0.238   0.026   0.396  0.1585 -0.7394  0.4023
  854MOL0     C15190  -0.186  -0.018   0.275 -0.0095 -1.1835  0.7972
  854MOL0     O15191  -0.056  -0.055   0.275 -0.2205  0.2753  0.4251
  854MOL0     C15192  -0.003  -0.154   0.186 -0.5881 -0.9813  0.5199
  854MOL0     C15193   0.126  -0.199   0.255 -0.3510  0.2043 -0.2901
  854MOL0     C15194   0.187  -0.306   0.175  0.0521  0.8776 -0.0925
  854MOL0     C15195   0.313  -0.344   0.257 -0.6789 -0.4934 -0.2452
  854MOL0     C15196   0.386  -0.459   0.183  0.0887 -0.7287 -0.6542
  854MOL0     C15197   0.539  -0.434   0.188  0.1534 -0.1755  0.2824
  854MOL0     C15198   0.630  -0.555   0.137 -0.1821 -0.8018 -0.1700
  854MOL0     C15199   0.616  -0.680   0.228 -0.2592 -0.7131 -0.6803
  854MOL0    Cl15200   0.744  -0.799   0.207 -0.0569 -0.5483 -0.5474
  854MOL0     C15201  -0.268  -0.023   0.158 -0.9414  0.1136  0.2411
  854MOL0     C15202  -0.395   0.021   0.160 -0.0801 -0.5700 -0.7726
  854MOL0     O15203  -0.753   0.191   0.218  0.4195  0.9793  0.0110
  854MOL0     C15204  -0.474   0.376   0.285  0.8390  0.5103 -0.7486
  854MOL0     C15205  -0.389   0.490   0.254  1.8178 -0.0643  0.8986
  854MOL0     N15206  -0.025   1.067   0.246 -0.0935  1.1198 -0.3503
  854MOL0     N15207   0.065   1.135   0.320  0.3112  0.7408 -0.2469
  854MOL0     C15208   0.491   1.016   0.802 -0.8380  0.6059  0.8164
  854MOL0     C15209   0.623   1.024   0.755 -1.4677 -0.2230 -0.6407
  854MOL0     C15210   1.084   1.046   0.760  1.6366 -0.5161 -0.4131
  854MOL0     C15211   1.216   1.027   0.807  0.6394  0.0615  0.0334
  854MOL0     C15212   1.319   1.058   0.720  0.2829  0.1701 -0.0663
  854MOL0     C15213   1.294   1.097   0.587  0.6686  0.1104  0.2982
  854MOL0     O15214   1.410   1.124   0.513  0.1288  0.7958 -0.0892
  854MOL0     C15215   1.412   1.195   0.390  1.1558  0.8018  1.2974
  854MOL0     C15216   1.397   1.113   0.257 -0.0503 -0.2966 -0.0226
  854MOL0     C15217   1.503   1.004   0.239  0.1639  0.4449 -0.1860
  854MOL0     C15218   1.498   0.930   0.101  0.2581 -0.5503 -0.4087
  854MOL0     C15219   1.525   1.024  -0.013  0.4405  0.3480 -0.5763
  854MOL0     C15220   1.555   1.080  -0.118 -0.0476 -0.7412  0.2034
  854MOL0     C15221   1.165   1.100   0.538 -0.1384  0.3054  0.0146
  854MOL0     C15222   1.056   1.084   0.625 -0.7315  0.3592  0.4031
  854MOL0     H15223   0.780   0.882   1.034  1.0160  1.8118  0.8943
  854MOL0     H15224   0.540   0.855   1.100 -5.0139 -3.6428 -3.0163
  854MOL0     H15225   0.333   0.903   1.166  2.7388 -0.8878 -1.2681
  854MOL0     H15226   0.380   1.062   1.133  0.0894 -0.5297  0.9056
  854MOL0     H15227   0.086   0.986   1.034 -1.2760  1.2496 -0.0001
  854MOL0     H15228   0.110   1.027   1.198  1.5266  0.2047  0.4337
  854MOL0     H15229   0.084   1.240   1.100 -2.9133 -2.6991 -1.8351
  854MOL0     H15230   0.257   1.230   1.068  0.1202 -0.1994 -0.5691
  854MOL0     H15231   0.200   1.114   0.861  1.1067  0.3596 -1.2953
  854MOL0     H15232   0.036   1.189   0.878 -0.7768  0.9345  1.9983
  854MOL0     H15233   0.202   1.410   0.915  0.8368 -0.6539  0.5092
  854MOL0     H15234   0.309   1.299   0.827 -0.3471  0.6456 -0.4190
  854MOL0     H15235   0.048   1.428   0.743  0.6025  2.4210 -0.7437
  854MOL0     H15236   0.207   1.454   0.683 -1.0963  1.0732  0.6293
  854MOL0     H15237   0.201   1.212   0.588 -0.8533 -1.4778 -3.2286
  854MOL0     H15238   0.045   1.192   0.657  2.3067 -2.4408 -0.3398
  854MOL0     H15239   0.130   1.385   0.441 -1.6993  2.6168  0.1596
  854MOL0     H15240  -0.025   1.400   0.506 -1.0189 -1.5186  1.3440
  854MOL0     H15241  -0.212   1.274   0.401 -0.2226 -0.3845 -1.4461
  854MOL0     H15242  -0.364   1.091   0.265 -1.4887 -1.7731 -0.9204
  854MOL0     H15243  -0.288   1.156   0.113 -2.9928 -3.2365 -1.8425
  854MOL0     H15244  -0.260   0.890   0.214  1.4973  2.7162  0.9354
  854MOL0     H15245  -0.182   0.956   0.071  1.2388 -0.3188  0.1957
  854MOL0     H15246  -0.401   0.969  -0.057 -1.1248  0.3998 -0.6048
  854MOL0     H15247  -0.485   0.937   0.086  1.2617 -0.4116  1.8107
  854MOL0     H15248  -0.290   0.762  -0.048  0.1911 -3.2142 -1.5558
  854MOL0     H15249  -0.456   0.723  -0.064  2.3389 -4.4173 -0.7370
  854MOL0     H15250  -0.521   0.528  -0.060 -1.6791 -1.5952 -1.6354
  854MOL0     H15251  -0.618   0.374  -0.138 -0.1014  1.2263  0.3404
  854MOL0     H15252  -0.653   0.216  -0.057 -2.5981 -0.0610  3.2148
  854MOL0     H15253  -0.759   0.360  -0.031  0.9293  2.3593  2.4179
  854MOL0     H15254  -0.434   0.080   0.495  2.3357  1.6257  1.5977
  854MOL0     H15255  -0.168   0.036   0.479  0.7767 -0.7907 -0.1074
  854MOL0     H15256  -0.071  -0.238   0.174  0.3447 -1.4598 -1.7839
  854MOL0     H15257   0.030  -0.110   0.092  1.4779 -3.0765  0.1691
  854MOL0     H15258   0.196  -0.117   0.272 -1.9067  1.8281 -1.3271
  854MOL0     H15259   0.106  -0.240   0.354 -2.3844 -0.8993 -1.0753
  854MOL0     H15260   0.205  -0.282   0.070 -1.1073 -2.3389 -1.1578
  854MOL0     H15261   0.111  -0.382   0.195  0.8343  0.9957  4.3418
  854MOL0     H15262   0.376  -0.255   0.268  0.6640 -1.0764 -2.5898
  854MOL0     H15263   0.284  -0.379   0.357  0.4927 -1.9547 -0.3902
  854MOL0     H15264   0.349  -0.463   0.079  0.8428  3.7869 -1.2864
  854MOL0     H15265   0.364  -0.554   0.234  3.2817 -1.0145  0.3729
  854MOL0     H15266   0.569  -0.343   0.136  2.0242 -1.4018 -0.9019
  854MOL0     H15267   0.553  -0.419   0.296  0.5046 -0.0747  0.2224
  854MOL0     H15268   0.729  -0.509   0.127 -1.9489  3.2889 -1.3966
  854MOL0     H15269   0.601  -0.589   0.037 -1.3646 -0.7575  0.1435
  854MOL0     H15270   0.519  -0.728   0.212 -0.1726 -0.6854 -1.3190
  854MOL0     H15271   0.610  -0.650   0.333 -2.3544  1.1964 -1.2721
  854MOL0     H15272  -0.225  -0.070   0.070  0.5590  0.4759  0.7563
  854MOL0     H15273  -0.452   0.020   0.068 -0.5814  1.1162 -0.5142
  854MOL0     H15274  -0.455   0.334   0.383  1.1080 -0.5352 -1.2357
  854MOL0     H15275  -0.319   0.546   0.314  1.0266  1.3477  0.5640
  854MOL0     H15276   0.406   1.043   0.740 -0.3110  0.2205 -0.0838
  854MOL0     H15277   0.648   1.062   0.656 -0.8990 -0.5249 -0.6172
  854MOL0     H15278   1.233   1.008   0.913 -1.8994  2.5634  0.9973
  854MOL0     H15279   1.421   1.069   0.753  0.1251 -0.6035  0.7347
  854MOL0     H15280   1.348   1.282   0.409 -0.4546  0.5849 -2.4023
  854MOL0     H15281   1.509   1.246   0.389  0.2678  2.5773  0.9256
  854MOL0     H15282   1.398   1.191   0.180  1.6446 -0.0894  0.1754
  854MOL0     H15283   1.298   1.068   0.247 -0.3603  0.5502 -0.8845
  854MOL0     H15284   1.474   0.934   0.318 -3.3577  2.7283  0.7493
  854MOL0     H15285   1.604   1.039   0.265 -0.6746  2.9868 -0.1733
  854MOL0     H15286   1.395   0.896   0.087 -0.9256  3.5305 -3.0423
  854MOL0     H15287   1.580   0.858   0.097  3.0289  2.3182  0.4427
  854MOL0     H15288   1.584   1.124  -0.211 -0.7770  0.0164  0.3312
  854MOL0     H15289   1.139   1.121   0.434  2.6435 -4.2684 -1.9243
  854MOL0     H15290   0.958   1.098   0.581  0.5221  0.2759 -2.6905
  855MOL0     O15291   2.739   7.575   2.232 -0.8621 -0.6170 -0.0700
  855MOL0     C15292   2.784   7.533   2.339  0.7477 -0.0615 -0.5856
  855MOL0     O15293   2.881   7.443   2.349  0.3948 -0.1041 -0.8664
  855MOL0     C15294   2.949   7.408   2.230  0.6432 -0.2582 -0.5694
  855MOL0     C15295   2.878   7.354   2.115 -1.0255 -0.4378  0.1951
  855MOL0     C15296   2.947   7.341   1.989 -1.1036  0.2021 -0.0595
  855MOL0     C15297   3.090   7.355   1.978  0.5924 -0.0701  0.0237
  855MOL0     O15298   3.166   7.331   1.854 -0.0136 -0.2558 -0.6153
  855MOL0     C15299   3.114   7.232   1.774 -0.2773  0.2804 -0.5756
  855MOL0     C15300   3.215   7.176   1.673 -0.3123  0.8477  0.5201
  855MOL0     C15301   3.209   7.019   1.639  0.2951  0.9666  0.5242
  855MOL0     C15302   3.098   6.980   1.553  0.1972 -0.2439 -0.5084
  855MOL0     C15303   3.092   6.829   1.522  0.7241 -0.5775  0.2578
  855MOL0     C15304   2.972   6.797   1.436 -0.3010 -0.6005  0.2386
  855MOL0     C15305   2.979   6.660   1.366 -0.1614  0.1083  0.5544
  855MOL0     C15306   2.840   6.621   1.318 -0.8935 -0.1543  0.9500
  855MOL0     N15307   2.851   6.513   1.223  0.0708  0.3700 -0.6689
  855MOL0     C15308   2.902   6.515   1.099 -0.2978 -0.7554 -0.0707
  855MOL0     C15309   2.866   6.397   1.043  0.1634 -0.4533 -0.5688
  855MOL0     C15310   2.910   6.343   0.905  0.2341  0.2950  0.4360
  855MOL0     C15311   2.811   6.396   0.798 -0.3872 -0.5630 -0.1384
  855MOL0     C15312   2.813   6.548   0.780 -0.4661  0.3118 -0.0485
  855MOL0     C15313   2.693   6.603   0.702 -0.0702  0.9793 -0.7745
  855MOL0     O15314   2.682   6.549   0.568  0.2471  0.0513 -0.3017
  855MOL0     C15315   2.556   6.574   0.520 -0.4065 -0.6025 -0.9701
  855MOL0     C15316   2.468   6.468   0.528  0.3215  0.0335 -0.9372
  855MOL0     C15317   2.337   6.478   0.478 -0.3067 -0.3600 -0.6700
  855MOL0     C15318   2.254   6.355   0.467  0.0859 -0.0464  0.7150
  855MOL0     C15319   2.288   6.606   0.425 -0.3903 -1.0150  0.0050
  855MOL0     C15320   2.150   6.625   0.363  0.2429  0.3794  0.8000
  855MOL0     O15321   2.054   6.642   0.459 -0.6201  0.1024  0.4275
  855MOL0     C15322   1.920   6.626   0.431  1.1047  0.7901 -0.2512
  855MOL0     C15323   1.862   6.533   0.348  0.7227 -0.3378 -0.2388
  855MOL0     C15324   1.720   6.509   0.349  0.0427  0.7005  0.5649
  855MOL0     C15325   1.628   6.575   0.428  0.2610  0.0489 -0.1896
  855MOL0     O15326   1.502   6.537   0.400 -0.0647  0.6499  1.1501
  855MOL0     C15327   1.400   6.601   0.467  0.6490 -0.3188  0.2241
  855MOL0     C15328   1.280   6.598   0.382  0.3605 -0.1443  0.2910
  855MOL0     C15329   1.158   6.673   0.437 -0.3781  0.1337 -0.0456
  855MOL0     C15330   1.067   6.712   0.324 -0.5297  0.1588 -0.4285
  855MOL0     C15331   0.949   6.794   0.364  0.7564 -0.3722  1.4130
  855MOL0     C15332   0.876   6.841   0.235  0.8337 -0.0354  0.5807
  855MOL0     C15333   0.768   6.942   0.255 -0.9917  0.0839  0.4629
  855MOL0     C15334   0.640   6.873   0.293 -0.4736  0.9685 -0.0972
  855MOL0    Cl15335   0.564   6.856   0.135  0.0061  0.4248  0.1911
  855MOL0     C15336   1.678   6.685   0.505  0.4448 -0.0838 -0.2477
  855MOL0     C15337   1.826   6.704   0.502  0.0134 -0.1876  0.3431
  855MOL0     O15338   2.128   6.590   0.251 -0.0117 -0.3515 -0.0933
  855MOL0     C15339   2.374   6.718   0.429 -0.3811  0.1520 -0.0595
  855MOL0     C15340   2.501   6.698   0.479  0.2470  0.1959  0.0612
  855MOL0     N15341   2.793   6.322   1.128 -0.8217 -0.5042 -0.4688
  855MOL0     N15342   2.792   6.391   1.240  0.7347 -0.1245 -0.3153
  855MOL0     C15343   3.156   7.389   2.097  0.0648 -0.0705  0.5982
  855MOL0     C15344   3.087   7.415   2.216 -0.0607 -0.0496 -0.2917
  855MOL0     C15345   2.715   7.579   2.468  0.1513 -1.3305  0.0245
  855MOL0     C15346   2.742   7.523   2.599 -0.1920  0.0214 -1.1375
  855MOL0     C15347   2.654   7.551   2.705 -0.8223  0.2488  0.8713
  855MOL0     C15348   2.542   7.633   2.682  0.7441 -0.3636 -0.3948
  855MOL0     O15349   2.458   7.662   2.783 -0.8879 -0.5125 -0.2081
  855MOL0     C15350   2.395   7.548   2.841 -0.2527  0.0742 -0.5634
  855MOL0     C15351   2.268   7.569   2.929 -0.0397 -0.4352  0.6196
  855MOL0     C15352   2.204   7.441   2.978  0.4531  0.2155  0.3759
  855MOL0     C15353   2.116   7.449   3.097 -0.4579 -0.2522 -0.5036
  855MOL0     C15354   1.989   7.522   3.060  0.0989 -0.3727 -0.2926
  855MOL0     C15355   1.895   7.579   3.015 -0.7636  0.8505  0.7826
  855MOL0     C15356   2.527   7.695   2.560  0.3975  0.1615 -0.5696
  855MOL0     C15357   2.606   7.661   2.451 -0.0855 -0.2762  0.5110
  855MOL0     H15358   2.770   7.344   2.112 -0.9484 -0.9794 -1.5870
  855MOL0     H15359   2.890   7.323   1.898  0.0063  2.7259 -1.3736
  855MOL0     H15360   3.076   7.146   1.831  4.4468 -1.7990 -0.0467
  855MOL0     H15361   3.033   7.281   1.720 -1.5190 -0.9266  0.1330
  855MOL0     H15362   3.210   7.240   1.585  2.9344 -1.0508 -1.2298
  855MOL0     H15363   3.321   7.190   1.696  0.1899  1.3782 -1.8877
  855MOL0     H15364   3.295   6.994   1.576 -0.7342 -1.7359  0.0745
  855MOL0     H15365   3.209   6.950   1.724 -0.0664 -0.2645 -0.4344
  855MOL0     H15366   3.003   7.010   1.598  1.2175  0.4989  1.2830
  855MOL0     H15367   3.102   7.045   1.466  1.5254  0.5598  0.1116
  855MOL0     H15368   3.177   6.793   1.463  0.1667 -1.5267  0.0240
  855MOL0     H15369   3.083   6.770   1.614 -0.6672 -4.0671 -1.9412
  855MOL0     H15370   2.887   6.813   1.503  0.0462  0.9478  0.3396
  855MOL0     H15371   2.968   6.869   1.354  1.7399 -0.6103  0.0667
  855MOL0     H15372   3.046   6.663   1.280 -1.5134  2.6707 -0.5144
  855MOL0     H15373   3.021   6.592   1.441  4.5787 -1.0329 -2.7052
  855MOL0     H15374   2.794   6.705   1.265 -1.8276 -1.1591  0.1177
  855MOL0     H15375   2.777   6.587   1.400  1.2739 -2.7917  1.6704
  855MOL0     H15376   2.962   6.598   1.062  1.2312 -1.9791 -0.4252
  855MOL0     H15377   3.010   6.380   0.881  1.2416 -3.5594 -2.1985
  855MOL0     H15378   2.902   6.234   0.908 -4.4019  0.4258  0.2913
  855MOL0     H15379   2.711   6.355   0.817 -0.4621 -0.9212 -1.2094
  855MOL0     H15380   2.841   6.361   0.699  1.1878  2.1153 -0.7103
  855MOL0     H15381   2.899   6.594   0.730  1.4385 -2.4481  0.4762
  855MOL0     H15382   2.810   6.591   0.880  1.0277  1.9298 -0.6402
  855MOL0     H15383   2.709   6.710   0.684  1.1460  0.3803 -3.8798
  855MOL0     H15384   2.602   6.583   0.760 -0.5404 -0.0629 -1.8491
  855MOL0     H15385   2.500   6.370   0.561 -1.6979 -0.2241  0.4188
  855MOL0     H15386   2.198   6.359   0.373 -2.9257  0.8689  2.3931
  855MOL0     H15387   2.312   6.262   0.462 -1.0299 -0.8228  1.4427
  855MOL0     H15388   2.182   6.344   0.549 -0.3322 -1.5474  0.1830
  855MOL0     H15389   1.919   6.472   0.279  0.6991  0.1322 -0.6773
  855MOL0     H15390   1.673   6.434   0.286  1.9628  0.6561 -0.9161
  855MOL0     H15391   1.381   6.553   0.563 -1.4004  0.4738  0.2695
  855MOL0     H15392   1.426   6.704   0.490  0.2929 -0.9264  3.9425
  855MOL0     H15393   1.306   6.637   0.283  2.6868  0.6006  1.1047
  855MOL0     H15394   1.262   6.491   0.375  0.7231 -0.1937  0.0634
  855MOL0     H15395   1.194   6.764   0.485 -2.4668  0.6521  0.6138
  855MOL0     H15396   1.111   6.609   0.512  2.1800  0.4721  1.9672
  855MOL0     H15397   1.131   6.773   0.260  0.1204 -1.1015 -1.0256
  855MOL0     H15398   1.037   6.623   0.268  1.5756  0.3794 -2.0346
  855MOL0     H15399   0.977   6.882   0.424 -1.2108  2.1363 -1.0795
  855MOL0     H15400   0.883   6.730   0.424 -1.1583 -0.2194 -0.4001
  855MOL0     H15401   0.952   6.893   0.176  0.1117  2.2726  1.6008
  855MOL0     H15402   0.846   6.755   0.174  2.1637  0.1729 -0.4109
  855MOL0     H15403   0.757   7.002   0.164  0.8293  2.8034  1.8896
  855MOL0     H15404   0.793   7.019   0.329 -0.6406  1.7053 -1.2533
  855MOL0     H15405   0.581   6.939   0.358 -2.2068 -0.9476  0.3642
  855MOL0     H15406   0.657   6.777   0.342 -0.0458  0.5712 -1.0153
  855MOL0     H15407   1.616   6.744   0.572  0.7384 -0.6081  0.5105
  855MOL0     H15408   1.874   6.781   0.562  1.8243  0.3626 -1.6937
  855MOL0     H15409   2.338   6.812   0.389 -1.9624  0.5085  2.0494
  855MOL0     H15410   2.559   6.789   0.484  0.3993  0.0494  1.2676
  855MOL0     H15411   3.263   7.390   2.113  0.7023  2.2301 -2.7149
  855MOL0     H15412   3.156   7.433   2.297 -1.7957  1.8907  0.8507
  855MOL0     H15413   2.826   7.456   2.611  1.8564  2.7896  1.8246
  855MOL0     H15414   2.664   7.507   2.804  1.4661 -2.6981 -0.4832
  855MOL0     H15415   2.342   7.498   2.760  2.5221 -0.9947 -1.8442
  855MOL0     H15416   2.461   7.475   2.890  0.2782  1.3088  0.6354
  855MOL0     H15417   2.191   7.622   2.872 -1.3667 -2.8598  0.0320
  855MOL0     H15418   2.300   7.633   3.012 -0.2614 -1.6301  1.6535
  855MOL0     H15419   2.286   7.377   3.011  1.4912  1.5102  0.3976
  855MOL0     H15420   2.153   7.389   2.896 -1.0391 -0.8407  1.8927
  855MOL0     H15421   2.165   7.498   3.182  0.3620 -1.1084 -0.4709
  855MOL0     H15422   2.090   7.352   3.141  3.5105 -0.0551  2.9334
  855MOL0     H15423   1.812   7.637   2.978 -1.4256 -1.6293 -2.0184
  855MOL0     H15424   2.449   7.770   2.555 -0.5973 -0.8686 -1.2098
  855MOL0     H15425   2.578   7.699   2.353  1.2391 -1.5229 -0.3781
  856MOL0     O15426   2.486   8.468   1.417  0.2222 -0.2883 -0.1863
  856MOL0     C15427   2.513   8.386   1.330  0.9909 -0.2018  0.0318
  856MOL0     O15428   2.635   8.361   1.273  0.1568 -0.0896 -0.1886
  856MOL0     C15429   2.736   8.443   1.311 -0.6835  0.3829  0.8201
  856MOL0     C15430   2.803   8.531   1.223  0.2540  0.1973  0.3338
  856MOL0     C15431   2.924   8.592   1.257 -0.1827 -1.1291 -0.5558
  856MOL0     C15432   2.981   8.569   1.382 -0.2065  0.7367  0.1313
  856MOL0     O15433   3.097   8.639   1.409  0.2616 -1.0786 -0.7141
  856MOL0     C15434   3.141   8.667   1.549 -0.5964  0.6775 -0.1363
  856MOL0     C15435   3.125   8.817   1.593  0.6393  0.7720  0.0269
  856MOL0     C15436   2.978   8.849   1.629 -0.3441  0.1723 -0.0881
  856MOL0     C15437   2.958   8.944   1.754  0.4844  0.0219  0.9520
  856MOL0     C15438   2.837   9.036   1.725 -0.6519  0.5242  0.0512
  856MOL0     C15439   2.794   9.091   1.862 -1.0313 -0.6091  0.9729
  856MOL0     C15440   2.700   9.218   1.842 -0.0913  0.8839 -0.1913
  856MOL0     C15441   2.760   9.332   1.766  0.0609 -0.0562 -0.1334
  856MOL0     N15442   2.652   9.441   1.767  0.2479 -0.1818 -0.1302
  856MOL0     C15443   2.597   9.496   1.880  0.9174  0.8464  0.4410
  856MOL0     C15444   2.478   9.542   1.841 -1.4945  0.8262  0.8301
  856MOL0     C15445   2.369   9.596   1.926 -0.5147  0.4061 -0.1591
  856MOL0     C15446   2.360   9.749   1.952 -0.5271 -0.2547 -0.5335
  856MOL0     C15447   2.457   9.765   2.076  1.0935 -0.3836  0.3248
  856MOL0     C15448   2.464   9.908   2.128  0.3024 -0.1622 -0.8782
  856MOL0     O15449   2.485   9.904   2.265 -0.1560  0.1992  0.4540
  856MOL0     C15450   2.371   9.942   2.335  0.8870  0.3444 -0.5197
  856MOL0     C15451   2.242   9.897   2.310  0.1178  0.1166 -0.2923
  856MOL0     C15452   2.129   9.925   2.382  0.3078  0.9440  1.6049
  856MOL0     C15453   2.001   9.864   2.325 -0.4280 -0.1559 -0.4883
  856MOL0     C15454   2.133  10.008   2.493 -0.2738  0.4228 -0.4311
  856MOL0     C15455   2.017  10.073   2.555  0.1094  0.5596 -0.5149
  856MOL0     O15456   2.027  10.114   2.685 -0.2644 -0.4067 -1.2025
  856MOL0     C15457   1.928  10.158   2.762  0.3680 -0.3842  0.3468
  856MOL0     C15458   1.897  10.092   2.874  0.7847 -0.2318 -0.9315
  856MOL0     C15459   1.795  10.140   2.959  0.1705  0.1365 -0.2237
  856MOL0     C15460   1.720  10.259   2.924  0.5226  0.1203  0.3275
  856MOL0     O15461   1.633  10.306   3.019 -0.8984  0.1446  0.6025
  856MOL0     C15462   1.579  10.442   3.010  0.0847 -0.7353 -0.1807
  856MOL0     C15463   1.522  10.473   3.147  0.9413  0.2623 -0.7571
  856MOL0     C15464   1.447  10.605   3.151 -0.4395 -1.5832 -0.8420
  856MOL0     C15465   1.351  10.614   3.266  0.0079 -0.1638 -0.1352
  856MOL0     C15466   1.228  10.711   3.260  0.8636  0.2550  0.4051
  856MOL0     C15467   1.110  10.669   3.161  0.0225 -0.3248  0.1226
  856MOL0     C15468   1.031  10.797   3.130 -0.0903 -0.3814 -0.1125
  856MOL0     C15469   0.929  10.821   3.246  0.1767 -0.4391 -0.6424
  856MOL0    Cl15470   0.798  10.926   3.195 -0.1444  0.0436 -0.2613
  856MOL0     C15471   1.750  10.318   2.803  0.1908 -0.2674 -0.6206
  856MOL0     C15472   1.853  10.272   2.729 -0.3800 -0.6353  0.6427
  856MOL0     O15473   1.906  10.080   2.494 -0.6839  0.5337  0.3079
  856MOL0     C15474   2.269  10.061   2.528  0.6120  0.3474  0.7530
  856MOL0     C15475   2.385  10.026   2.446  0.1409  0.6600  0.2988
  856MOL0     N15476   2.473   9.523   1.698  0.3380  0.0292  0.1901
  856MOL0     N15477   2.577   9.460   1.650  0.7303 -0.3469 -0.5020
  856MOL0     C15478   2.928   8.472   1.464 -0.1128  0.4800  0.0629
  856MOL0     C15479   2.804   8.413   1.428  0.7519  0.0656 -1.4683
  856MOL0     C15480   2.401   8.305   1.290 -0.4709 -0.6595  0.0209
  856MOL0     C15481   2.418   8.217   1.174  0.3527  0.1002  0.2914
  856MOL0     C15482   2.311   8.124   1.157 -0.9836 -0.3421 -0.5684
  856MOL0     C15483   2.200   8.108   1.237 -0.1448 -0.4468 -0.2006
  856MOL0     O15484   2.117   8.000   1.201 -0.1881 -0.5939 -0.7823
  856MOL0     C15485   1.987   8.005   1.258 -0.4531 -0.1944  0.3226
  856MOL0     C15486   1.921   7.879   1.218  1.1117  0.2817 -0.9333
  856MOL0     C15487   1.769   7.885   1.263 -0.0455 -0.2557 -0.2830
  856MOL0     C15488   1.749   7.863   1.421  0.2856 -0.5209 -0.2761
  856MOL0     C15489   1.604   7.855   1.442  0.5963  0.3859  0.0004
  856MOL0     C15490   1.488   7.832   1.478 -0.4880  0.6936 -0.9175
  856MOL0     C15491   2.184   8.196   1.338 -0.2997 -0.1398  0.4604
  856MOL0     C15492   2.287   8.288   1.365 -0.3147 -0.6657 -0.0817
  856MOL0     H15493   2.744   8.564   1.138 -1.3153  0.8802  1.6256
  856MOL0     H15494   2.973   8.674   1.207 -0.1528 -0.6338  0.2691
  856MOL0     H15495   3.099   8.601   1.625  3.1918 -0.0889  1.5178
  856MOL0     H15496   3.246   8.637   1.559 -0.8487  0.3287  1.7677
  856MOL0     H15497   3.192   8.833   1.678  1.7259 -2.5444 -0.0524
  856MOL0     H15498   3.156   8.881   1.511 -1.7733 -0.1033 -1.6944
  856MOL0     H15499   2.932   8.882   1.535 -1.9190  0.1234  0.6450
  856MOL0     H15500   2.929   8.757   1.662 -0.6592  0.7612  1.1167
  856MOL0     H15501   2.943   8.874   1.837 -1.6182  0.7450  1.2281
  856MOL0     H15502   3.049   9.001   1.771  0.3238  1.5188 -2.5014
  856MOL0     H15503   2.868   9.111   1.652  0.6227  0.1767  0.2067
  856MOL0     H15504   2.749   8.985   1.686  2.1730 -2.7594 -2.7946
  856MOL0     H15505   2.756   9.015   1.931  0.6089  1.1207  4.0311
  856MOL0     H15506   2.882   9.131   1.915 -0.3351  0.1302 -0.6768
  856MOL0     H15507   2.608   9.182   1.795 -2.0905  3.8143  1.2249
  856MOL0     H15508   2.680   9.251   1.945  0.9035 -0.1110  0.3458
  856MOL0     H15509   2.792   9.298   1.668 -2.2656  2.9364 -2.1303
  856MOL0     H15510   2.845   9.359   1.829 -1.8703 -0.4960  2.9263
  856MOL0     H15511   2.633   9.492   1.982 -0.2963  1.3610  0.9063
  856MOL0     H15512   2.280   9.573   1.865  0.5592 -1.1084 -1.2387
  856MOL0     H15513   2.365   9.551   2.025  0.9190  0.3711 -0.0976
  856MOL0     H15514   2.253   9.770   1.964 -0.6373  0.5758 -2.4950
  856MOL0     H15515   2.403   9.794   1.862  0.0220 -0.7916 -0.5500
  856MOL0     H15516   2.556   9.723   2.053  1.1885  0.6811 -1.4115
  856MOL0     H15517   2.416   9.705   2.157 -1.2885  1.0296  0.2491
  856MOL0     H15518   2.377   9.968   2.099 -0.1299 -0.0995  0.5153
  856MOL0     H15519   2.551   9.956   2.083 -1.3138  1.9359 -1.9250
  856MOL0     H15520   2.237   9.833   2.223  2.6884  1.3730 -1.4851
  856MOL0     H15521   1.940   9.838   2.412 -0.5839  0.4658 -0.4114
  856MOL0     H15522   1.942   9.938   2.272 -0.8713  0.2875  0.6030
  856MOL0     H15523   2.009   9.773   2.265  0.0154 -0.1275 -0.4750
  856MOL0     H15524   1.966  10.013   2.901 -1.2190 -1.0019  2.4964
  856MOL0     H15525   1.794  10.083   3.052 -0.3024 -0.3091 -0.4941
  856MOL0     H15526   1.647  10.523   2.982 -1.7378 -0.4065 -4.4565
  856MOL0     H15527   1.493  10.444   2.943 -0.8238 -0.3001  0.9724
  856MOL0     H15528   1.448  10.393   3.157  0.0059  1.1424 -0.4529
  856MOL0     H15529   1.600  10.464   3.222  0.7398  1.3140 -0.4052
  856MOL0     H15530   1.402  10.632   3.056 -0.2301  1.4020 -0.1962
  856MOL0     H15531   1.527  10.678   3.170 -1.7248 -0.1226 -0.8392
  856MOL0     H15532   1.315  10.511   3.276 -0.9764 -0.6362 -5.5088
  856MOL0     H15533   1.404  10.640   3.359  0.4116  0.9219 -0.6570
  856MOL0     H15534   1.270  10.806   3.225  1.5238  0.0268  0.5553
  856MOL0     H15535   1.186  10.737   3.358 -0.1035 -0.4143  0.1745
  856MOL0     H15536   1.154  10.645   3.064  1.8290  0.8694  0.6003
  856MOL0     H15537   1.050  10.588   3.204  0.1179 -0.9038 -0.8130
  856MOL0     H15538   0.981  10.773   3.036  3.8089  1.1548 -2.8494
  856MOL0     H15539   1.098  10.881   3.106 -1.1250 -0.1310 -2.3416
  856MOL0     H15540   0.978  10.866   3.333  0.8476  2.0623 -2.1983
  856MOL0     H15541   0.888  10.728   3.287 -0.9009  0.6397  0.8205
  856MOL0     H15542   1.705  10.412   2.773 -1.5809 -1.6345 -2.5651
  856MOL0     H15543   1.868  10.321   2.633 -3.4275  2.7200  1.6709
  856MOL0     H15544   2.290  10.117   2.618 -0.5864  0.8380  0.7414
  856MOL0     H15545   2.482  10.067   2.472  1.3099 -0.6022 -1.8073
  856MOL0     H15546   2.985   8.457   1.555 -2.2948 -0.6066  1.3378
  856MOL0     H15547   2.767   8.335   1.494 -0.7826  1.6565 -0.3496
  856MOL0     H15548   2.494   8.215   1.097 -0.4869  1.6743 -0.6329
  856MOL0     H15549   2.336   8.057   1.076  0.7062 -2.5354  1.6132
  856MOL0     H15550   1.980   8.029   1.364  1.7719  3.1187 -0.1376
  856MOL0     H15551   1.948   8.086   1.196 -2.3659 -0.3657  1.2332
  856MOL0     H15552   1.952   7.789   1.272 -1.9897  0.4933  1.4990
  856MOL0     H15553   1.936   7.864   1.111 -0.1296 -0.9489 -0.9633
  856MOL0     H15554   1.712   7.814   1.203  1.1768 -1.6457  0.1288
  856MOL0     H15555   1.736   7.986   1.239  0.9805  0.0925 -0.2719
  856MOL0     H15556   1.800   7.945   1.471 -0.2842 -0.1336 -0.3279
  856MOL0     H15557   1.794   7.769   1.455 -3.3713 -2.1937  0.4156
  856MOL0     H15558   1.401   7.797   1.531  1.4604 -0.5695  1.6388
  856MOL0     H15559   2.097   8.186   1.403  0.6450 -2.1648  1.5070
  856MOL0     H15560   2.290   8.344   1.457 -2.8528  0.0198 -0.3366
  857MOL0     O15561   4.335   2.338   0.218  0.9678 -0.0111  0.3457
  857MOL0     C15562   4.240   2.394   0.159  0.6754  0.2459  0.0010
  857MOL0     O15563   4.222   2.384   0.024  0.3951  0.2640 -0.0452
  857MOL0     C15564   4.323   2.314  -0.058 -0.2170  0.3416  0.3856
  857MOL0     C15565   4.294   2.189  -0.105  0.1174  0.3386 -0.1520
  857MOL0     C15566   4.389   2.119  -0.182 -0.9764  0.1791  0.3864
  857MOL0     C15567   4.506   2.180  -0.229 -0.6464 -0.3822 -0.0186
  857MOL0     O15568   4.597   2.101  -0.303 -0.1969 -0.5328  0.6348
  857MOL0     C15569   4.639   2.165  -0.430 -0.4956  0.7530 -1.2411
  857MOL0     C15570   4.539   2.157  -0.542  0.7380 -0.1018  0.3892
  857MOL0     C15571   4.469   2.294  -0.554 -0.1918  0.5792  0.4668
  857MOL0     C15572   4.357   2.282  -0.649 -0.4931  0.8032  0.4869
  857MOL0     C15573   4.259   2.402  -0.657 -0.0622  0.1049 -0.4080
  857MOL0     C15574   4.197   2.453  -0.520  0.1818  0.0984 -0.4155
  857MOL0     C15575   4.130   2.344  -0.440 -0.4691  0.0305 -0.1599
  857MOL0     C15576   4.090   2.400  -0.303 -0.5878  0.4033 -0.8955
  857MOL0     N15577   3.990   2.318  -0.236 -0.1614  0.8069 -0.5186
  857MOL0     C15578   3.949   2.340  -0.112  0.7998  0.1413 -1.3232
  857MOL0     C15579   3.865   2.237  -0.076  0.8438  0.8495 -0.6914
  857MOL0     C15580   3.787   2.222   0.049  0.3630  0.6256  0.3797
  857MOL0     C15581   3.890   2.194   0.159 -1.0907 -0.5283 -0.4088
  857MOL0     C15582   3.844   2.092   0.271 -0.3187 -0.3711  0.5162
  857MOL0     C15583   3.798   1.948   0.230 -0.5761  0.5513  0.4753
  857MOL0     O15584   3.781   1.861   0.347  0.2655 -0.6191 -0.1783
  857MOL0     C15585   3.887   1.796   0.410  0.0998 -0.0197 -0.7479
  857MOL0     C15586   3.887   1.743   0.544 -0.8062 -0.7055  0.2250
  857MOL0     C15587   3.982   1.676   0.606  0.5773  0.1505  1.3011
  857MOL0     C15588   3.955   1.619   0.741  0.3336 -0.2154 -1.3562
  857MOL0     C15589   4.095   1.645   0.532 -0.2469  0.2801  0.4146
  857MOL0     C15590   4.221   1.584   0.585 -0.4011 -0.3578  0.2100
  857MOL0     O15591   4.296   1.505   0.494 -0.0966  0.1896 -0.0275
  857MOL0     C15592   4.420   1.457   0.514 -0.4346  0.5362  0.0196
  857MOL0     C15593   4.521   1.537   0.584 -0.1969  0.6872 -0.2514
  857MOL0     C15594   4.639   1.476   0.622 -0.1772 -0.4080  0.1290
  857MOL0     C15595   4.664   1.344   0.589 -0.5756  0.1135 -0.3110
  857MOL0     O15596   4.769   1.270   0.628  0.6756  0.1639  0.9535
  857MOL0     C15597   4.903   1.326   0.609 -0.5063 -1.0374  0.3061
  857MOL0     C15598   4.968   1.269   0.479 -0.0226  0.2933  0.3274
  857MOL0     C15599   4.956   1.117   0.456  0.5662  0.1475 -0.3166
  857MOL0     C15600   5.004   1.038   0.582  0.2234 -0.3761 -1.1517
  857MOL0     C15601   5.156   1.060   0.614  1.0184  0.2122  0.7940
  857MOL0     C15602   5.248   1.012   0.506 -0.0854  0.3821  0.0897
  857MOL0     C15603   5.203   0.877   0.434 -0.4469  0.2712 -0.7428
  857MOL0     C15604   5.313   0.835   0.336  0.6492 -0.1039 -1.4988
  857MOL0    Cl15605   5.324   0.952   0.189  0.1497 -0.2952 -0.3824
  857MOL0     C15606   4.569   1.279   0.506  1.0240  0.2690 -0.7564
  857MOL0     C15607   4.449   1.332   0.476  0.2794  0.2208  0.2846
  857MOL0     O15608   4.258   1.608   0.695 -0.0854 -0.2790 -0.1006
  857MOL0     C15609   4.101   1.679   0.391 -0.0494 -0.4840  0.0402
  857MOL0     C15610   3.993   1.747   0.329  0.8673 -0.4538 -0.4590
  857MOL0     N15611   3.851   2.155  -0.183 -0.3181  0.2068 -0.2335
  857MOL0     N15612   3.933   2.200  -0.274  0.0386 -0.9304  0.1575
  857MOL0     C15613   4.536   2.307  -0.165 -0.5947 -0.4306 -0.5039
  857MOL0     C15614   4.443   2.375  -0.088 -0.7227  0.3447 -0.0861
  857MOL0     C15615   4.149   2.484   0.241 -0.4389 -0.0078 -0.3288
  857MOL0     C15616   4.068   2.586   0.190  0.5303  0.7328 -0.1082
  857MOL0     C15617   4.002   2.676   0.269  0.3703  0.1725  0.6571
  857MOL0     C15618   3.993   2.664   0.403  0.5618  0.5944  0.1836
  857MOL0     O15619   3.931   2.761   0.476  0.2684  0.2417 -0.2212
  857MOL0     C15620   3.922   2.746   0.622  1.0064  0.0199  0.1181
  857MOL0     C15621   3.840   2.860   0.697  0.4490 -0.9438  0.9028
  857MOL0     C15622   3.804   2.837   0.850  1.4066 -0.0309 -0.2242
  857MOL0     C15623   3.919   2.811   0.955  0.4208 -0.6120  0.3313
  857MOL0     C15624   3.912   2.910   1.071 -0.3576  1.1184  0.6629
  857MOL0     C15625   3.907   2.975   1.170 -0.2012 -0.4734  0.5802
  857MOL0     C15626   4.060   2.552   0.463  0.7205  0.4934  0.6368
  857MOL0     C15627   4.135   2.462   0.377  0.0565 -0.3672 -0.3141
  857MOL0     H15628   4.211   2.139  -0.058 -0.5262  0.6780 -0.9096
  857MOL0     H15629   4.371   2.018  -0.216  0.1040  0.4358 -1.0259
  857MOL0     H15630   4.687   2.262  -0.417 -0.5532  0.4731  1.5430
  857MOL0     H15631   4.720   2.098  -0.461 -3.3138 -4.7886  1.9456
  857MOL0     H15632   4.586   2.128  -0.636 -0.4597  1.1715 -0.6353
  857MOL0     H15633   4.464   2.086  -0.506  0.7875  0.2192  1.1342
  857MOL0     H15634   4.438   2.334  -0.458  0.0816  2.0565 -0.0416
  857MOL0     H15635   4.543   2.358  -0.603 -0.7682  0.6339 -0.3586
  857MOL0     H15636   4.398   2.257  -0.748 -2.0998 -2.0503  0.4364
  857MOL0     H15637   4.305   2.192  -0.615  2.8289 -0.7470  1.9568
  857MOL0     H15638   4.312   2.489  -0.697 -1.2432  0.7813 -0.5652
  857MOL0     H15639   4.179   2.372  -0.726 -3.6345 -0.1963  3.4701
  857MOL0     H15640   4.271   2.498  -0.454 -1.0999 -1.3767  2.2095
  857MOL0     H15641   4.123   2.529  -0.547 -0.5634 -0.9245 -1.3682
  857MOL0     H15642   4.042   2.299  -0.486  0.8714 -1.2110 -1.6186
  857MOL0     H15643   4.201   2.261  -0.438  0.8465  1.1103 -0.3561
  857MOL0     H15644   4.048   2.501  -0.304  0.8123  1.0432  0.7538
  857MOL0     H15645   4.176   2.402  -0.236 -0.7049 -3.3164 -0.4009
  857MOL0     H15646   3.988   2.413  -0.042  3.4910 -0.7371 -1.7900
  857MOL0     H15647   3.725   2.309   0.071  0.5406  0.5733  1.1322
  857MOL0     H15648   3.717   2.139   0.035 -2.3167  3.0471 -1.7587
  857MOL0     H15649   3.903   2.289   0.210 -0.4753 -0.7137 -0.2175
  857MOL0     H15650   3.982   2.154   0.117  2.0485  2.3682  3.0306
  857MOL0     H15651   3.769   2.137   0.337 -0.0415  2.1691 -0.7731
  857MOL0     H15652   3.924   2.076   0.344 -0.5606 -3.4914  0.2423
  857MOL0     H15653   3.868   1.895   0.165  0.6311 -2.5408  3.9728
  857MOL0     H15654   3.709   1.958   0.168  1.7787  0.0501 -3.2906
  857MOL0     H15655   3.790   1.759   0.590 -0.9844  1.5293 -0.8073
  857MOL0     H15656   3.874   1.668   0.796 -2.1575 -2.8964 -2.4147
  857MOL0     H15657   3.925   1.516   0.722 -2.2213  0.0508  0.6820
  857MOL0     H15658   4.048   1.618   0.799 -0.2509  0.3139 -0.3863
  857MOL0     H15659   4.509   1.637   0.623 -3.1911  0.0176  0.8315
  857MOL0     H15660   4.708   1.516   0.695 -0.1373  1.4162 -0.8573
  857MOL0     H15661   4.899   1.434   0.593  2.1916 -1.2988 -3.6530
  857MOL0     H15662   4.969   1.323   0.695  1.7298  4.3952 -0.7894
  857MOL0     H15663   4.912   1.314   0.396 -2.5869 -2.9789  0.0523
  857MOL0     H15664   5.068   1.307   0.497  0.9728 -2.9639  2.5362
  857MOL0     H15665   5.016   1.093   0.368 -0.9846 -0.0759 -1.3485
  857MOL0     H15666   4.849   1.094   0.448  0.2029  0.3435  2.6895
  857MOL0     H15667   4.944   1.062   0.671  2.1627  0.1755  0.0607
  857MOL0     H15668   4.977   0.932   0.576  1.3231 -0.9578  2.0808
  857MOL0     H15669   5.171   1.004   0.707 -0.7814 -0.8353  0.5064
  857MOL0     H15670   5.182   1.165   0.627 -1.4665  1.3573 -2.1977
  857MOL0     H15671   5.236   1.090   0.430 -3.8667  0.5419  0.6926
  857MOL0     H15672   5.351   1.009   0.543  0.6865  2.6676 -1.6164
  857MOL0     H15673   5.109   0.887   0.379 -1.2012 -1.5056  0.1288
  857MOL0     H15674   5.204   0.799   0.511  2.2500 -0.4432 -1.3878
  857MOL0     H15675   5.314   0.728   0.312 -2.8437 -0.6237  0.1422
  857MOL0     H15676   5.405   0.850   0.394  0.4843 -0.0709 -1.2454
  857MOL0     H15677   4.596   1.175   0.491  0.9821  0.3122 -1.1327
  857MOL0     H15678   4.371   1.270   0.433 -0.9106 -0.8813  3.6759
  857MOL0     H15679   4.193   1.664   0.335  0.9751  1.5167  1.0691
  857MOL0     H15680   3.971   1.745   0.223 -3.4089  0.2216  0.2190
  857MOL0     H15681   4.634   2.349  -0.188 -0.0213 -0.7887  1.1558
  857MOL0     H15682   4.448   2.476  -0.047 -0.1095  0.0628  0.5421
  857MOL0     H15683   4.071   2.613   0.085  2.8408 -0.3799 -0.3855
  857MOL0     H15684   3.953   2.760   0.221 -0.8072 -0.7736  0.1585
  857MOL0     H15685   3.875   2.648   0.635  1.4682 -0.6981 -2.8334
  857MOL0     H15686   4.024   2.730   0.657 -0.4985 -1.7982  4.2383
  857MOL0     H15687   3.742   2.869   0.650  0.3436 -0.6127  1.1824
  857MOL0     H15688   3.897   2.951   0.677 -1.2380  0.3846  1.8293
  857MOL0     H15689   3.743   2.746   0.858  0.7069  0.1833 -2.4889
  857MOL0     H15690   3.733   2.915   0.882  1.3102 -1.1779  2.7490
  857MOL0     H15691   4.015   2.823   0.905  0.3551 -0.9148  0.1255
  857MOL0     H15692   3.919   2.709   0.993 -0.2856 -0.3505  1.0587
  857MOL0     H15693   3.918   3.031   1.261 -0.4131 -1.1821  1.0472
  857MOL0     H15694   4.046   2.526   0.567 -2.1083  0.4308  0.3154
  857MOL0     H15695   4.182   2.377   0.425 -0.9248  0.9855  3.3710
  858MOL0     O15696  10.214   9.473   7.268  0.4088  0.6486  0.5266
  858MOL0     C15697  10.301   9.461   7.181  0.5671 -0.4001  0.0664
  858MOL0     O15698  10.301   9.502   7.051  0.4371 -0.6514 -0.2512
  858MOL0     C15699  10.194   9.579   7.011  0.2980 -0.0217  0.1275
  858MOL0     C15700  10.182   9.576   6.871 -0.2919  0.8847 -0.3482
  858MOL0     C15701  10.070   9.623   6.804  0.2491  0.4017  0.2507
  858MOL0     C15702   9.970   9.696   6.874 -0.5444 -0.1411  0.8231
  858MOL0     O15703   9.857   9.757   6.817  0.2040  0.0724  0.5369
  858MOL0     C15704   9.812   9.719   6.682  0.3203  0.5073 -0.1747
  858MOL0     C15705   9.684   9.782   6.643 -0.2754 -0.6755  0.0162
  858MOL0     C15706   9.714   9.937   6.615  0.9984 -0.5639 -0.2312
  858MOL0     C15707   9.581   9.999   6.557  0.1084  0.6325 -0.6592
  858MOL0     C15708   9.616  10.091   6.444 -0.0651  0.3704  0.5411
  858MOL0     C15709   9.507  10.190   6.405  0.1791  0.2102  0.2900
  858MOL0     C15710   9.565  10.302   6.328 -0.3527 -0.5737  0.3642
  858MOL0     C15711   9.457  10.381   6.250 -0.6242  0.4864 -0.0514
  858MOL0     N15712   9.497  10.518   6.222  0.1984 -0.7896 -0.7405
  858MOL0     C15713   9.456  10.630   6.292 -0.4143  0.2015 -0.1644
  858MOL0     C15714   9.547  10.723   6.256 -0.6774  0.7654  0.4626
  858MOL0     C15715   9.568  10.860   6.323 -0.3926  0.1093 -0.2497
  858MOL0     C15716   9.553  10.987   6.250 -0.0759  0.0150 -1.1590
  858MOL0     C15717   9.655  11.087   6.295 -0.6184 -0.0541 -0.0294
  858MOL0     C15718   9.637  11.162   6.420  0.2828 -0.1925  0.3978
  858MOL0     O15719   9.658  11.076   6.535  0.0823 -0.4849  0.4664
  858MOL0     C15720   9.696  11.143   6.652  1.3501 -0.0369  0.5662
  858MOL0     C15721   9.794  11.097   6.743  0.5755  0.7972  0.0754
  858MOL0     C15722   9.816  11.145   6.878  0.0061 -0.2970  1.3182
  858MOL0     C15723   9.927  11.079   6.957 -0.5524  0.0720 -1.1058
  858MOL0     C15724   9.724  11.238   6.926  0.9510 -0.3901 -0.2025
  858MOL0     C15725   9.723  11.287   7.064  0.2561 -0.3836  0.1156
  858MOL0     O15726   9.604  11.344   7.112 -0.0547  0.0349 -1.0116
  858MOL0     C15727   9.589  11.349   7.248 -0.0829  0.3504 -0.5247
  858MOL0     C15728   9.617  11.237   7.337 -0.6843  0.3671 -0.1560
  858MOL0     C15729   9.575  11.234   7.466  0.5241 -0.2718  0.5396
  858MOL0     C15730   9.510  11.344   7.517  0.4667  0.5408  1.4536
  858MOL0     O15731   9.482  11.324   7.651 -0.0017  0.3720 -0.6641
  858MOL0     C15732   9.363  11.373   7.710 -0.5303 -0.1015  0.3891
  858MOL0     C15733   9.287  11.260   7.765  0.5725 -0.4020  0.4474
  858MOL0     C15734   9.352  11.224   7.899 -0.4236  0.5305  0.1355
  858MOL0     C15735   9.314  11.086   7.967  0.7731  0.5164 -0.4735
  858MOL0     C15736   9.165  11.059   8.008  0.2896 -0.2761  0.4070
  858MOL0     C15737   9.112  11.170   8.098  0.0245 -0.0385 -0.2962
  858MOL0     C15738   8.984  11.146   8.183  0.7468 -0.1256 -0.2239
  858MOL0     C15739   8.970  11.278   8.257  0.8853 -0.1618  0.2431
  858MOL0    Cl15740   8.827  11.291   8.366 -0.1292  0.1339  0.0579
  858MOL0     C15741   9.469  11.449   7.439  0.1191 -0.3586  1.3136
  858MOL0     C15742   9.505  11.457   7.302  0.0597  0.1716  0.1655
  858MOL0     O15743   9.826  11.278   7.128  0.1638 -0.6601 -0.7614
  858MOL0     C15744   9.615  11.280   6.839 -0.3900  0.1958  0.3371
  858MOL0     C15745   9.602  11.241   6.697 -0.5582 -0.2536 -0.3774
  858MOL0     N15746   9.639  10.663   6.165  0.1883  0.2727 -0.1168
  858MOL0     N15747   9.606  10.544   6.139 -0.1278  0.7737  0.5015
  858MOL0     C15748   9.993   9.727   7.007 -0.7603  0.1062 -0.3313
  858MOL0     C15749  10.102   9.666   7.073  1.3105  0.4487 -0.6822
  858MOL0     C15750  10.405   9.359   7.210  1.0045  0.4990 -0.1528
  858MOL0     C15751  10.524   9.355   7.136  0.0468  0.5332  0.2003
  858MOL0     C15752  10.608   9.250   7.154 -0.5441 -0.0825  0.1076
  858MOL0     C15753  10.593   9.145   7.250 -0.3458 -0.1406 -0.4268
  858MOL0     O15754  10.659   9.030   7.257 -0.0938  0.0098 -0.0685
  858MOL0     C15755  10.767   9.016   7.159 -0.1415  0.0883  0.2900
  858MOL0     C15756  10.879   8.909   7.188 -0.3276  0.9392  1.0710
  858MOL0     C15757  10.826   8.760   7.158  0.5727 -0.5243  0.5149
  858MOL0     C15758  10.927   8.654   7.140 -0.0401  0.5663 -0.2704
  858MOL0     C15759  10.865   8.532   7.073  0.2024 -0.4956  0.5442
  858MOL0     C15760  10.797   8.426   7.031  0.1801 -0.0124  0.8898
  858MOL0     C15761  10.482   9.166   7.343 -0.8987  0.1466 -0.5928
  858MOL0     C15762  10.390   9.268   7.328 -0.3959 -0.0855  0.0423
  858MOL0     H15763  10.249   9.502   6.828 -0.8375 -1.5048  2.5695
  858MOL0     H15764  10.074   9.610   6.696  0.1622  0.7298  0.2057
  858MOL0     H15765   9.892   9.737   6.609 -0.7038 -1.4499 -1.9203
  858MOL0     H15766   9.796   9.611   6.676 -1.5084  0.7728 -0.7441
  858MOL0     H15767   9.631   9.726   6.565 -4.8633 -0.3406  2.4878
  858MOL0     H15768   9.609   9.764   6.721 -2.0036 -1.6891 -1.7664
  858MOL0     H15769   9.741   9.999   6.701  1.0591 -1.9469  0.7874
  858MOL0     H15770   9.782   9.936   6.530  0.5675 -0.6035 -0.5802
  858MOL0     H15771   9.523   9.915   6.519  0.3637 -1.1665  2.4986
  858MOL0     H15772   9.522  10.058   6.628  0.2076  0.7407 -0.6652
  858MOL0     H15773   9.703  10.149   6.476  0.2021  1.1705 -1.4899
  858MOL0     H15774   9.650  10.039   6.354 -0.3128  0.0473  0.6342
  858MOL0     H15775   9.429  10.144   6.343  0.2313 -3.4616  2.6643
  858MOL0     H15776   9.455  10.224   6.494 -1.9357 -0.7145 -0.5311
  858MOL0     H15777   9.631  10.375   6.376 -2.1263 -0.1780  2.3877
  858MOL0     H15778   9.629  10.248   6.257 -0.3363  1.8729 -1.6290
  858MOL0     H15779   9.363  10.385   6.306 -0.0272 -0.4872  1.0646
  858MOL0     H15780   9.443  10.327   6.156  1.1568 -0.5634  0.2438
  858MOL0     H15781   9.395  10.637   6.382 -1.4958  1.2412 -0.9442
  858MOL0     H15782   9.502  10.880   6.408 -0.5521 -1.2144 -0.0418
  858MOL0     H15783   9.662  10.852   6.380 -1.6071  2.2779  2.2574
  858MOL0     H15784   9.458  11.032   6.280  0.8461 -0.2672  2.7637
  858MOL0     H15785   9.562  10.964   6.144  1.4257  1.9957 -1.5332
  858MOL0     H15786   9.646  11.152   6.207 -1.4091 -0.1143  0.0003
  858MOL0     H15787   9.747  11.029   6.294  0.2946  1.3433  0.8158
  858MOL0     H15788   9.538  11.208   6.424 -1.0295 -2.6189 -1.5116
  858MOL0     H15789   9.711  11.241   6.405 -0.6969  1.0237  1.6862
  858MOL0     H15790   9.853  11.011   6.711  0.3609  0.7373 -0.1565
  858MOL0     H15791   9.895  11.049   7.058 -1.6649  0.2615 -1.3805
  858MOL0     H15792   9.971  10.991   6.910 -0.0089  0.1059 -0.6643
  858MOL0     H15793  10.001  11.154   6.984  0.1048 -1.1031  0.5450
  858MOL0     H15794   9.676  11.156   7.294 -1.3441  1.9008 -4.4498
  858MOL0     H15795   9.608  11.149   7.526  3.3557  0.2660 -0.0885
  858MOL0     H15796   9.387  11.453   7.782  0.0015  1.0109 -0.9839
  858MOL0     H15797   9.300  11.433   7.644 -1.3424 -0.9182  0.4003
  858MOL0     H15798   9.179  11.278   7.772 -0.2149 -2.4813 -3.5328
  858MOL0     H15799   9.305  11.172   7.702  1.0934 -2.4270  3.2135
  858MOL0     H15800   9.342  11.306   7.971  0.7010 -1.6354  2.9840
  858MOL0     H15801   9.460  11.215   7.882 -0.6688  0.3332 -1.3888
  858MOL0     H15802   9.342  11.003   7.901  1.7911  1.7853 -1.7007
  858MOL0     H15803   9.376  11.082   8.057 -2.0707 -0.4993  1.5966
  858MOL0     H15804   9.151  10.963   8.058  0.8162 -0.3780  0.3586
  858MOL0     H15805   9.093  11.064   7.926  0.0114  1.3217  0.7174
  858MOL0     H15806   9.196  11.195   8.164 -1.4365  1.4586  1.0749
  858MOL0     H15807   9.109  11.251   8.025  1.7921  0.6041  0.2786
  858MOL0     H15808   8.996  11.063   8.253  0.5652  0.3658  0.3935
  858MOL0     H15809   8.902  11.122   8.115 -1.5915  0.7686  2.1083
  858MOL0     H15810   8.978  11.359   8.184  0.5869 -0.0687  0.3102
  858MOL0     H15811   9.050  11.292   8.330 -0.4832  1.4077  1.5191
  858MOL0     H15812   9.422  11.534   7.489  3.1828  0.6908  2.6440
  858MOL0     H15813   9.499  11.546   7.240  3.3644 -1.0096 -2.1428
  858MOL0     H15814   9.546  11.358   6.868  1.7760  2.2619  0.2089
  858MOL0     H15815   9.513  11.262   6.639 -1.2233 -1.2341  0.2524
  858MOL0     H15816   9.914   9.778   7.062 -2.0005 -2.2395  0.2019
  858MOL0     H15817  10.103   9.689   7.180 -0.0367 -0.0869 -0.5350
  858MOL0     H15818  10.555   9.439   7.075  3.0894  0.5835  1.6608
  858MOL0     H15819  10.696   9.252   7.090 -1.4479 -0.0775 -1.1729
  858MOL0     H15820  10.724   9.001   7.059 -0.8966  2.2749  0.2198
  858MOL0     H15821  10.831   9.105   7.160  2.7902 -1.8963  0.0815
  858MOL0     H15822  10.928   8.912   7.285 -1.3427 -2.8855  1.8644
  858MOL0     H15823  10.960   8.927   7.117  0.8549 -1.2795  1.7746
  858MOL0     H15824  10.776   8.772   7.062  0.6300  0.7474  0.6238
  858MOL0     H15825  10.758   8.727   7.236 -0.6652 -2.3320 -1.2400
  858MOL0     H15826  10.972   8.628   7.236  3.0390 -2.3263 -2.2598
  858MOL0     H15827  11.014   8.677   7.078  0.9689 -1.3845  0.3443
  858MOL0     H15828  10.748   8.339   6.993  0.7780  0.0746 -0.1332
  858MOL0     H15829  10.476   9.098   7.427  0.8865  1.0902  0.3747
  858MOL0     H15830  10.304   9.272   7.393 -0.5139  1.0078 -0.1487
  859MOL0     O15831  10.433   2.857   5.532  0.2781  0.0262  0.3077
  859MOL0     C15832  10.484   2.840   5.424 -0.6079 -0.2964  0.1782
  859MOL0     O15833  10.418   2.821   5.301 -0.1769 -0.4521 -1.1614
  859MOL0     C15834  10.280   2.830   5.295  0.3177  0.2157  0.7160
  859MOL0     C15835  10.188   2.909   5.369  1.1379 -0.3417  0.6426
  859MOL0     C15836  10.058   2.925   5.332  0.6306 -0.2855  0.5575
  859MOL0     C15837  10.008   2.866   5.218 -0.7905  0.7521  0.8889
  859MOL0     O15838   9.878   2.875   5.170  0.0498 -0.0695 -0.5331
  859MOL0     C15839   9.787   2.959   5.244  0.8726 -0.5050  0.6937
  859MOL0     C15840   9.678   3.012   5.155 -0.2076 -0.1188 -0.7002
  859MOL0     C15841   9.727   3.102   5.050 -1.0892  0.2984  0.1413
  859MOL0     C15842   9.624   3.160   4.959  0.9320  0.2040  0.5880
  859MOL0     C15843   9.537   3.275   5.011 -0.9428 -0.0945  0.6055
  859MOL0     C15844   9.400   3.297   4.932  0.2924  0.1474  1.0343
  859MOL0     C15845   9.427   3.316   4.777  0.0977 -0.1713  0.6418
  859MOL0     C15846   9.322   3.409   4.717  0.1337 -0.3024 -0.1366
  859MOL0     N15847   9.185   3.341   4.715 -0.2605  0.4064 -0.3648
  859MOL0     C15848   9.071   3.377   4.784  0.2266  0.0287 -0.4771
  859MOL0     C15849   8.974   3.275   4.751  0.2211 -0.4902  0.6081
  859MOL0     C15850   8.826   3.288   4.784  0.3775 -0.3664 -0.2261
  859MOL0     C15851   8.723   3.232   4.682  0.8070  0.6760  1.2224
  859MOL0     C15852   8.721   3.075   4.674 -0.2119 -0.6264 -0.6641
  859MOL0     C15853   8.601   3.009   4.612  0.2763  0.2123 -0.5976
  859MOL0     O15854   8.497   3.046   4.699  0.2215 -0.2201  0.3111
  859MOL0     C15855   8.373   3.035   4.647  0.7834 -0.8598 -0.5787
  859MOL0     C15856   8.303   3.152   4.623  0.3959  0.2454  0.4138
  859MOL0     C15857   8.171   3.146   4.588 -0.1790  0.1061 -0.1258
  859MOL0     C15858   8.102   3.277   4.581  0.5184  0.1897  0.0076
  859MOL0     C15859   8.105   3.024   4.553  0.2558 -0.0111 -0.1414
  859MOL0     C15860   7.969   3.007   4.500  0.7889 -0.4781  0.1018
  859MOL0     O15861   7.910   2.877   4.494 -0.7094 -0.3301  0.4674
  859MOL0     C15862   7.778   2.869   4.456  0.7273 -0.6232  0.1046
  859MOL0     C15863   7.750   2.861   4.319  0.2976  0.7952 -0.5419
  859MOL0     C15864   7.616   2.850   4.277  0.1149 -1.0047  0.2826
  859MOL0     C15865   7.515   2.855   4.373  1.3672 -0.3630 -0.0429
  859MOL0     O15866   7.381   2.836   4.343 -0.0531  0.2031 -0.4258
  859MOL0     C15867   7.326   2.935   4.256  0.4519  0.1888  0.0479
  859MOL0     C15868   7.195   2.859   4.226  0.2644  0.3240 -0.3563
  859MOL0     C15869   7.081   2.929   4.155 -0.5585 -0.5798  0.1800
  859MOL0     C15870   6.956   2.847   4.148 -0.4357  0.1547  0.2626
  859MOL0     C15871   6.890   2.819   4.281 -1.1920  0.5754 -0.0843
  859MOL0     C15872   6.753   2.756   4.272 -0.7187  0.2397 -0.1998
  859MOL0     C15873   6.747   2.634   4.181  0.3650  0.4456 -0.4313
  859MOL0     C15874   6.815   2.514   4.253  0.0288  0.2385  0.2496
  859MOL0    Cl15875   6.799   2.365   4.169  0.5903  0.1097  0.1691
  859MOL0     C15876   7.540   2.866   4.507 -0.4462 -0.2844 -0.0794
  859MOL0     C15877   7.671   2.878   4.547  0.6781  0.3166 -0.0754
  859MOL0     O15878   7.904   3.108   4.486  0.3226 -0.7550  1.4459
  859MOL0     C15879   8.178   2.908   4.575 -0.5011  0.5318 -0.6072
  859MOL0     C15880   8.308   2.911   4.616 -0.0561 -1.4313 -0.6829
  859MOL0     N15881   9.045   3.168   4.682  0.3028 -1.3341 -0.6465
  859MOL0     N15882   9.161   3.217   4.655 -0.1963 -0.1844  0.8323
  859MOL0     C15883  10.092   2.788   5.136 -0.4656 -0.5215 -0.2051
  859MOL0     C15884  10.226   2.774   5.175 -0.8327 -1.0209 -0.0273
  859MOL0     C15885  10.635   2.819   5.437 -0.2782 -0.7366  0.1271
  859MOL0     C15886  10.702   2.767   5.330 -0.6234  0.3819  0.4224
  859MOL0     C15887  10.839   2.758   5.335 -0.9880 -0.3204 -0.1892
  859MOL0     C15888  10.911   2.792   5.446 -0.5528  0.5176  0.0820
  859MOL0     O15889  11.047   2.789   5.438  0.0084  0.0972 -0.3851
  859MOL0     C15890  11.117   2.786   5.561 -1.1984  0.7156  0.2409
  859MOL0     C15891  11.262   2.747   5.523  0.3598  0.8600 -0.1256
  859MOL0     C15892  11.352   2.740   5.637  0.0326  0.3807 -0.0208
  859MOL0     C15893  11.479   2.819   5.599  0.4812  0.6520  0.1765
  859MOL0     C15894  11.442   2.957   5.616 -0.0954  0.4353 -0.5522
  859MOL0     C15895  11.414   3.074   5.635 -0.1457 -0.4471 -0.7872
  859MOL0     C15896  10.840   2.848   5.556  0.2473 -0.1375 -0.9695
  859MOL0     C15897  10.704   2.869   5.552 -0.0816 -1.1266  1.1670
  859MOL0     H15898  10.236   2.968   5.447  0.9088  2.3543 -1.1038
  859MOL0     H15899  10.007   2.996   5.397  1.2378  0.8198 -0.1369
  859MOL0     H15900   9.755   2.901   5.331 -0.2548  0.2794  0.8165
  859MOL0     H15901   9.830   3.050   5.287 -1.1497 -0.2759  2.4196
  859MOL0     H15902   9.626   2.923   5.116 -0.1867 -2.3145  3.7102
  859MOL0     H15903   9.609   3.060   5.224 -3.3941 -1.2788 -2.8589
  859MOL0     H15904   9.786   3.184   5.091  0.6602 -0.8729  0.0542
  859MOL0     H15905   9.799   3.049   4.987 -0.7600  2.3046 -1.2516
  859MOL0     H15906   9.682   3.191   4.871  1.2198 -3.1583 -0.5175
  859MOL0     H15907   9.545   3.093   4.925 -1.7321  3.5908 -0.4653
  859MOL0     H15908   9.509   3.276   5.116  2.0133  2.7692  1.5227
  859MOL0     H15909   9.601   3.363   4.998  2.8062 -2.9421 -3.5890
  859MOL0     H15910   9.332   3.213   4.952 -0.1758  0.4296  0.6534
  859MOL0     H15911   9.348   3.389   4.958 -3.9497 -0.5645 -3.3335
  859MOL0     H15912   9.523   3.366   4.763 -0.1484  0.4497  1.1127
  859MOL0     H15913   9.427   3.227   4.714 -0.8417  1.5171 -1.9219
  859MOL0     H15914   9.361   3.424   4.616  4.1070 -0.8731  1.1169
  859MOL0     H15915   9.322   3.503   4.773  2.2420  0.4040 -1.1900
  859MOL0     H15916   9.051   3.471   4.833  1.1516 -0.4444  0.8361
  859MOL0     H15917   8.806   3.243   4.882  0.2404 -1.2091 -0.6362
  859MOL0     H15918   8.814   3.397   4.791  3.9172  0.4020 -3.0706
  859MOL0     H15919   8.731   3.276   4.582 -2.1091 -1.3347 -0.0619
  859MOL0     H15920   8.626   3.260   4.725  0.8018 -0.0472  1.7123
  859MOL0     H15921   8.735   3.051   4.779 -0.2107  2.7989  0.2438
  859MOL0     H15922   8.808   3.042   4.618  0.4874 -1.8736  1.0845
  859MOL0     H15923   8.629   2.906   4.637  0.9748  0.8846  1.6701
  859MOL0     H15924   8.596   3.033   4.506 -0.8951 -0.0536 -0.6175
  859MOL0     H15925   8.355   3.246   4.636  0.0271  0.6661 -0.9528
  859MOL0     H15926   8.004   3.259   4.627 -0.1405  0.7046 -1.1541
  859MOL0     H15927   8.151   3.357   4.638 -2.0748  0.7976  1.5490
  859MOL0     H15928   8.097   3.309   4.477 -0.4749 -0.8000 -0.2693
  859MOL0     H15929   7.835   2.857   4.252 -0.0229 -2.0533 -0.8831
  859MOL0     H15930   7.588   2.846   4.172  0.5066 -1.1260  0.1805
  859MOL0     H15931   7.306   3.019   4.323  3.1353  1.2405 -0.3660
  859MOL0     H15932   7.380   2.958   4.164  0.4445 -0.5012 -0.1334
  859MOL0     H15933   7.226   2.772   4.168  1.2572 -1.1611  2.2365
  859MOL0     H15934   7.160   2.828   4.325 -1.6929 -0.3002 -1.1768
  859MOL0     H15935   7.108   2.945   4.050 -1.3341  0.6439  0.1388
  859MOL0     H15936   7.053   3.026   4.197 -0.2893 -0.2662 -0.3597
  859MOL0     H15937   6.878   2.905   4.098 -1.2001  0.3595  1.6258
  859MOL0     H15938   6.977   2.754   4.094  0.7267  1.0268 -0.8443
  859MOL0     H15939   6.880   2.910   4.341  2.6963  1.3452 -0.3442
  859MOL0     H15940   6.957   2.750   4.333 -0.2995  1.7403  0.3679
  859MOL0     H15941   6.726   2.740   4.377  2.3692 -2.6879  0.3240
  859MOL0     H15942   6.688   2.826   4.218  0.8384 -0.9952 -3.9818
  859MOL0     H15943   6.793   2.653   4.083 -0.4070  0.8626 -0.7207
  859MOL0     H15944   6.641   2.615   4.164  0.8664  0.1566 -3.9461
  859MOL0     H15945   6.765   2.498   4.349  2.3050  0.2983  1.5145
  859MOL0     H15946   6.922   2.524   4.276  0.7279 -2.3852 -1.5543
  859MOL0     H15947   7.453   2.862   4.573 -0.8139 -1.3148 -0.5932
  859MOL0     H15948   7.703   2.893   4.650  2.9084 -0.4023 -0.5969
  859MOL0     H15949   8.134   2.810   4.556  1.8844 -0.8132  0.4000
  859MOL0     H15950   8.357   2.817   4.640 -1.9907 -1.5161  3.7607
  859MOL0     H15951  10.070   2.748   5.038  1.7868  0.7762 -1.3166
  859MOL0     H15952  10.294   2.718   5.110  0.3341 -0.3384  0.5708
  859MOL0     H15953  10.658   2.749   5.232  1.3972  0.4577 -0.5522
  859MOL0     H15954  10.885   2.714   5.247  3.3748 -1.7217  2.4939
  859MOL0     H15955  11.117   2.883   5.612 -0.3123  1.9945 -2.0312
  859MOL0     H15956  11.075   2.711   5.628  0.7115 -0.1695  0.4870
  859MOL0     H15957  11.281   2.827   5.452  0.0545  1.8491  0.8772
  859MOL0     H15958  11.271   2.652   5.469  1.9800  2.4883 -2.9197
  859MOL0     H15959  11.383   2.637   5.657  2.5032  1.5521  2.9496
  859MOL0     H15960  11.304   2.775   5.729 -0.1145  0.1641 -0.0126
  859MOL0     H15961  11.502   2.797   5.494  1.2523 -2.7554  0.9158
  859MOL0     H15962  11.570   2.801   5.658  1.0792 -0.8716 -1.1290
  859MOL0     H15963  11.397   3.180   5.638  0.3342 -0.3782  0.5733
  859MOL0     H15964  10.898   2.886   5.639  0.2881  1.1649 -1.5738
  859MOL0     H15965  10.642   2.922   5.625  0.3165 -0.7416  1.2262
  860MOL0     O15966   5.341   9.000   0.262  0.0858 -1.0267  0.2258
  860MOL0     C15967   5.318   9.081   0.174  0.2981  0.1324  0.2966
  860MOL0     O15968   5.410   9.123   0.084 -0.1585  0.4270 -0.7667
  860MOL0     C15969   5.531   9.061   0.063  0.9505 -0.1903  0.5844
  860MOL0     C15970   5.648   9.113   0.118 -0.9704 -0.4477  0.8458
  860MOL0     C15971   5.762   9.048   0.092 -0.6137  0.6715  0.0988
  860MOL0     C15972   5.771   8.944   0.004 -0.2589  0.7560  0.2349
  860MOL0     O15973   5.890   8.872  -0.018  0.0484  0.2403  1.6042
  860MOL0     C15974   6.014   8.919   0.044  0.1305 -0.0001  0.3798
  860MOL0     C15975   6.127   8.807   0.026  0.5199  0.0492  1.1638
  860MOL0     C15976   6.128   8.746  -0.116 -0.2595 -0.2554 -0.0499
  860MOL0     C15977   6.127   8.843  -0.235 -0.3001 -0.0321  0.6574
  860MOL0     C15978   6.105   8.764  -0.368 -1.0384 -0.4037 -0.6862
  860MOL0     C15979   6.126   8.836  -0.501  0.3405 -0.0046 -0.1767
  860MOL0     C15980   6.037   8.957  -0.522 -0.4943 -0.7906  0.0782
  860MOL0     C15981   5.896   8.918  -0.547  0.2747 -0.3798 -0.8009
  860MOL0     N15982   5.831   9.023  -0.626 -1.4124  0.0981  0.4566
  860MOL0     C15983   5.861   9.156  -0.642  0.4414 -0.6671 -0.5081
  860MOL0     C15984   5.774   9.206  -0.736 -0.6370  0.1701 -0.8057
  860MOL0     C15985   5.767   9.349  -0.791  0.4598  0.3597 -0.2013
  860MOL0     C15986   5.727   9.447  -0.683  0.1939 -0.0416 -0.4193
  860MOL0     C15987   5.713   9.590  -0.742 -0.6508  0.4078 -0.3024
  860MOL0     C15988   5.594   9.616  -0.836  0.2480 -0.3495 -0.5575
  860MOL0     O15989   5.489   9.654  -0.756  0.0420 -0.1358  0.2784
  860MOL0     C15990   5.363   9.618  -0.793  0.1009  0.3164 -0.0226
  860MOL0     C15991   5.325   9.594  -0.928 -0.0667  1.0766  0.1746
  860MOL0     C15992   5.200   9.528  -0.961 -0.0188  0.2712 -0.2652
  860MOL0     C15993   5.178   9.490  -1.106 -0.4020  0.4010 -0.2868
  860MOL0     C15994   5.106   9.489  -0.859 -1.6049  0.2418 -0.9643
  860MOL0     C15995   4.966   9.437  -0.877  1.0965  0.4835 -0.5251
  860MOL0     O15996   4.879   9.464  -0.770  0.8882 -0.0494  0.4906
  860MOL0     C15997   4.740   9.447  -0.772 -0.2194 -0.4750 -0.0916
  860MOL0     C15998   4.684   9.406  -0.645  0.8232 -0.0333 -0.4434
  860MOL0     C15999   4.546   9.369  -0.650 -0.2651 -0.7677 -0.3474
  860MOL0     C16000   4.468   9.400  -0.758  0.6955  0.5398  0.0904
  860MOL0     O16001   4.332   9.388  -0.748 -0.1836  0.5150  0.1987
  860MOL0     C16002   4.258   9.428  -0.633  0.4342 -0.3563 -0.4944
  860MOL0     C16003   4.116   9.483  -0.667  0.4219 -0.1899 -0.1620
  860MOL0     C16004   4.101   9.626  -0.723 -0.1688  0.7210 -0.5843
  860MOL0     C16005   3.953   9.676  -0.725  0.4444  0.0399 -0.4121
  860MOL0     C16006   3.938   9.832  -0.741  0.2117 -0.5038  0.2488
  860MOL0     C16007   3.793   9.877  -0.709 -0.5125  0.0523 -0.7692
  860MOL0     C16008   3.766  10.034  -0.719  0.1868  0.3016 -0.5779
  860MOL0     C16009   3.683  10.085  -0.607 -0.2635 -0.3610 -0.3351
  860MOL0    Cl16010   3.793  10.135  -0.472 -0.1089 -0.5609 -0.2756
  860MOL0     C16011   4.520   9.437  -0.878 -0.3224  0.0978  0.1134
  860MOL0     C16012   4.657   9.458  -0.883 -0.0850  0.3011  0.5580
  860MOL0     O16013   4.929   9.392  -0.985 -0.2195 -1.0812  0.1641
  860MOL0     C16014   5.141   9.529  -0.722 -0.2804 -0.1464 -0.3997
  860MOL0     C16015   5.265   9.597  -0.694  0.0900 -0.4208  0.1023
  860MOL0     N16016   5.711   9.095  -0.786  0.3968 -0.1257  0.1283
  860MOL0     N16017   5.730   8.997  -0.709  0.4635  0.9597  0.7533
  860MOL0     C16018   5.659   8.896  -0.059 -0.0462 -0.1886 -0.1983
  860MOL0     C16019   5.538   8.949  -0.027  0.0122  0.4094 -0.0406
  860MOL0     C16020   5.181   9.136   0.152  0.7733 -0.7107  0.2282
  860MOL0     C16021   5.134   9.227   0.048  0.3687 -0.1816 -0.1986
  860MOL0     C16022   5.005   9.274   0.053  0.2201  0.9562  0.9981
  860MOL0     C16023   4.917   9.245   0.151  0.2350 -0.5511  0.4011
  860MOL0     O16024   4.787   9.295   0.145 -0.0792  0.0895  0.0059
  860MOL0     C16025   4.692   9.208   0.073 -0.8966 -0.9482 -0.2946
  860MOL0     C16026   4.624   9.122   0.175 -0.3000  0.2882 -0.4072
  860MOL0     C16027   4.520   9.045   0.089 -0.2862  0.8460 -0.5657
  860MOL0     C16028   4.451   8.933   0.161 -0.1003  1.4916 -0.2347
  860MOL0     C16029   4.388   8.844   0.072  0.5686 -0.0453 -0.7840
  860MOL0     C16030   4.324   8.758   0.005  0.3283 -0.5895  0.1134
  860MOL0     C16031   4.962   9.158   0.252  0.7599  0.0748 -0.4107
  860MOL0     C16032   5.091   9.107   0.248  0.3869 -0.6242  0.1787
  860MOL0     H16033   5.643   9.191   0.193 -3.5967  2.0592 -1.6997
  860MOL0     H16034   5.843   9.067   0.163  0.3843 -1.3125 -0.4402
  860MOL0     H16035   6.056   8.999  -0.018 -2.3141  1.0404 -0.0590
  860MOL0     H16036   6.009   8.945   0.150 -1.7285  2.2269 -0.1776
  860MOL0     H16037   6.221   8.855   0.054 -0.6587  1.3974  3.0452
  860MOL0     H16038   6.116   8.720   0.093  2.4995 -0.5894  0.7029
  860MOL0     H16039   6.204   8.667  -0.119 -0.2103 -0.1830 -2.1189
  860MOL0     H16040   6.046   8.677  -0.138  0.0655 -0.3456 -1.0187
  860MOL0     H16041   6.038   8.906  -0.223 -1.2009 -1.5092  2.2677
  860MOL0     H16042   6.223   8.896  -0.236 -1.4249  2.0952  0.1591
  860MOL0     H16043   6.161   8.670  -0.361  3.2375  1.9928  0.5288
  860MOL0     H16044   5.999   8.735  -0.360 -0.6798 -1.7693 -0.5733
  860MOL0     H16045   6.231   8.862  -0.513  0.5680 -0.3804  0.8784
  860MOL0     H16046   6.113   8.766  -0.584 -0.7242  0.1433 -0.1526
  860MOL0     H16047   6.055   9.019  -0.433 -0.0753  0.3954 -0.8020
  860MOL0     H16048   6.065   9.014  -0.611 -1.9152 -0.4661 -0.1883
  860MOL0     H16049   5.842   8.914  -0.453  4.8168  0.2064  2.1444
  860MOL0     H16050   5.879   8.818  -0.589  0.3163 -0.9630  0.5243
  860MOL0     H16051   5.927   9.211  -0.575  1.0318 -0.6417 -1.0962
  860MOL0     H16052   5.863   9.386  -0.828 -0.7697  4.5679  0.3490
  860MOL0     H16053   5.687   9.345  -0.865  1.2486  1.4636 -1.1449
  860MOL0     H16054   5.801   9.455  -0.603  1.0403 -1.9218 -0.9676
  860MOL0     H16055   5.630   9.421  -0.639  1.9815 -1.8660  2.8749
  860MOL0     H16056   5.804   9.613  -0.797 -1.5717 -1.4031 -2.7292
  860MOL0     H16057   5.708   9.657  -0.655 -0.6511  2.3146 -1.7054
  860MOL0     H16058   5.561   9.527  -0.890  2.9041 -2.9459  1.7736
  860MOL0     H16059   5.605   9.697  -0.909 -2.7709 -0.2939 -1.0919
  860MOL0     H16060   5.384   9.640  -1.007 -4.0282  0.1784 -3.6550
  860MOL0     H16061   5.270   9.498  -1.164  0.3422 -2.5425  0.3280
  860MOL0     H16062   5.149   9.385  -1.102  1.2695 -0.0476  1.0735
  860MOL0     H16063   5.100   9.547  -1.157  0.0079 -0.1882 -1.6332
  860MOL0     H16064   4.739   9.405  -0.552 -2.9523  1.0117  2.0314
  860MOL0     H16065   4.502   9.333  -0.557  0.2515  3.5133  1.8236
  860MOL0     H16066   4.244   9.356  -0.552  1.3280  0.1732  0.1508
  860MOL0     H16067   4.300   9.519  -0.589 -1.7172  0.3576  0.2058
  860MOL0     H16068   4.058   9.400  -0.710  0.0455  0.4785 -0.9626
  860MOL0     H16069   4.078   9.504  -0.566  2.7082  1.5948  0.4156
  860MOL0     H16070   4.141   9.617  -0.824  2.7284 -2.9527  0.6392
  860MOL0     H16071   4.150   9.702  -0.662 -0.6433 -0.0953  0.8670
  860MOL0     H16072   3.897   9.625  -0.804 -0.8514  0.9815 -0.1342
  860MOL0     H16073   3.915   9.640  -0.629  1.7508 -4.2537 -1.2758
  860MOL0     H16074   3.965   9.868  -0.840 -1.4195 -2.4136 -0.9682
  860MOL0     H16075   4.003   9.880  -0.667  1.4926 -1.1765 -0.4074
  860MOL0     H16076   3.720   9.827  -0.773 -1.1973 -1.8548  1.3679
  860MOL0     H16077   3.770   9.853  -0.605 -0.3727  0.0401 -0.7402
  860MOL0     H16078   3.718  10.052  -0.815 -3.6678  0.7691  1.2324
  860MOL0     H16079   3.862  10.086  -0.722  1.0797 -1.1971  0.6533
  860MOL0     H16080   3.602  10.022  -0.569  1.6396 -0.6871  3.6828
  860MOL0     H16081   3.641  10.183  -0.632 -0.6788 -0.5523 -0.3951
  860MOL0     H16082   4.475   9.475  -0.969  1.5541  2.3568  0.0523
  860MOL0     H16083   4.698   9.462  -0.984  2.6582 -1.0481  1.5211
  860MOL0     H16084   5.073   9.520  -0.638 -0.6359  1.6169 -0.4685
  860MOL0     H16085   5.282   9.633  -0.593  1.9919  1.8646 -0.9287
  860MOL0     H16086   5.660   8.806  -0.121 -0.4895  0.1117 -0.6515
  860MOL0     H16087   5.443   8.909  -0.060 -0.4820 -0.5292  2.2912
  860MOL0     H16088   5.202   9.266  -0.028  0.8159  4.4944  2.2380
  860MOL0     H16089   4.970   9.337  -0.029  0.4903 -0.9789 -0.6857
  860MOL0     H16090   4.622   9.262   0.009  2.1232  0.5919 -2.4952
  860MOL0     H16091   4.756   9.149   0.007  1.8410  1.9681 -0.4791
  860MOL0     H16092   4.584   9.183   0.256  0.8745 -2.2351  2.2337
  860MOL0     H16093   4.697   9.058   0.225  1.0346  1.4767 -0.7632
  860MOL0     H16094   4.558   9.008  -0.006 -0.9968 -1.4481 -0.0232
  860MOL0     H16095   4.427   9.104   0.088 -2.5818 -1.9046  5.1033
  860MOL0     H16096   4.379   8.981   0.229 -1.2519  2.2903 -1.9465
  860MOL0     H16097   4.526   8.877   0.218 -0.6619 -2.3275 -2.8981
  860MOL0     H16098   4.274   8.702  -0.072 -3.2173 -0.0732  1.8342
  860MOL0     H16099   4.887   9.139   0.328 -2.4753  2.0598 -2.7880
  860MOL0     H16100   5.113   9.030   0.322 -0.3539 -0.5757  0.4560
  861MOL0     O16101   3.712   8.844   5.126  0.9755 -0.4142  0.5021
  861MOL0     C16102   3.625   8.806   5.045  0.9839 -0.0201  0.9609
  861MOL0     O16103   3.500   8.858   5.026  0.4855  0.1168 -0.4005
  861MOL0     C16104   3.479   8.981   5.083  0.6537 -0.2409 -0.2076
  861MOL0     C16105   3.403   9.074   5.008 -0.8331  0.6414  0.7947
  861MOL0     C16106   3.342   9.184   5.066  0.9387  0.4150  0.0824
  861MOL0     C16107   3.381   9.226   5.188  0.7560  0.1818  1.0149
  861MOL0     O16108   3.325   9.338   5.243 -1.1251  0.6982 -0.2333
  861MOL0     C16109   3.253   9.304   5.365  0.2004  0.1621 -0.0248
  861MOL0     C16110   3.213   9.436   5.427  0.4251 -0.4573 -0.3954
  861MOL0     C16111   3.326   9.546   5.418 -0.0617  0.5360 -0.0281
  861MOL0     C16112   3.281   9.664   5.498  0.4417 -0.2212 -0.9645
  861MOL0     C16113   3.383   9.783   5.512  0.1612  0.4711 -0.6195
  861MOL0     C16114   3.522   9.729   5.540 -0.0692 -0.2698  0.0867
  861MOL0     C16115   3.634   9.839   5.576 -0.5510  0.2266 -0.0791
  861MOL0     C16116   3.654   9.857   5.723  0.5298  0.6861 -0.6485
  861MOL0     N16117   3.720   9.982   5.744 -0.0090  0.4333  0.5497
  861MOL0     C16118   3.663  10.104   5.775  0.1556  0.1435 -0.7736
  861MOL0     C16119   3.761  10.194   5.752 -0.1478  1.0372 -0.2829
  861MOL0     C16120   3.751  10.347   5.757 -0.1872 -0.1288 -0.2127
  861MOL0     C16121   3.840  10.399   5.879 -0.7612  0.0029 -0.1204
  861MOL0     C16122   3.821  10.546   5.921 -0.2652 -0.1828  0.0417
  861MOL0     C16123   3.918  10.582   6.041  0.2655  0.2380 -0.5270
  861MOL0     O16124   3.907  10.715   6.096 -0.6147  0.4588  0.3401
  861MOL0     C16125   3.928  10.826   6.012 -0.2483 -0.0564 -0.4717
  861MOL0     C16126   3.880  10.955   6.053  0.1653 -0.4584 -0.3405
  861MOL0     C16127   3.901  11.076   5.988  0.0492  0.7132  0.3201
  861MOL0     C16128   3.819  11.195   6.037 -0.6464  0.1321  0.9662
  861MOL0     C16129   3.980  11.075   5.871  0.2122 -0.3616  0.7728
  861MOL0     C16130   3.988  11.188   5.781  0.4393  0.3134 -0.0225
  861MOL0     O16131   4.064  11.164   5.669 -0.5740 -0.4133 -0.1617
  861MOL0     C16132   4.078  11.262   5.573 -0.5303 -0.0348 -0.6193
  861MOL0     C16133   4.045  11.394   5.572 -0.6450 -0.6012 -0.0480
  861MOL0     C16134   4.076  11.475   5.468  0.1912 -0.4705 -1.0391
  861MOL0     C16135   4.146  11.435   5.354  0.6456 -0.6093 -0.3326
  861MOL0     O16136   4.177  11.544   5.274  0.5749  0.2465 -0.0456
  861MOL0     C16137   4.241  11.504   5.148  0.3215 -1.1930 -0.2283
  861MOL0     C16138   4.263  11.633   5.062  0.0382  0.7624  0.2268
  861MOL0     C16139   4.354  11.614   4.954  1.6833 -0.3994  0.1468
  861MOL0     C16140   4.358  11.732   4.855  0.6621  0.2025  1.1593
  861MOL0     C16141   4.417  11.677   4.722  0.1591 -0.0489  0.1183
  861MOL0     C16142   4.407  11.767   4.606  0.7429  0.3080 -0.0939
  861MOL0     C16143   4.260  11.750   4.540 -0.5702  0.2608 -0.3687
  861MOL0     C16144   4.248  11.853   4.424 -0.6715 -0.8625 -0.4458
  861MOL0    Cl16145   4.091  11.828   4.362  0.4063 -0.1157  0.5722
  861MOL0     C16146   4.185  11.303   5.351 -0.2401  0.6550 -0.0902
  861MOL0     C16147   4.141  11.221   5.455 -0.2356  0.7531 -0.2917
  861MOL0     O16148   3.932  11.298   5.807 -0.6813  0.1892  0.1763
  861MOL0     C16149   4.024  10.955   5.828  0.2767  0.0361 -0.3440
  861MOL0     C16150   4.015  10.835   5.902 -0.8612  0.1304  0.4086
  861MOL0     N16151   3.874  10.122   5.716  0.2553  0.0072 -0.1699
  861MOL0     N16152   3.854   9.997   5.714  0.3226  0.0203  0.8105
  861MOL0     C16153   3.461   9.135   5.261 -0.2959  0.1590 -0.8314
  861MOL0     C16154   3.505   9.010   5.210  0.3529 -0.0867 -0.4205
  861MOL0     C16155   3.674   8.686   4.959 -0.1717 -0.5208 -0.0329
  861MOL0     C16156   3.802   8.624   4.976 -0.7060 -0.3384  0.7522
  861MOL0     C16157   3.836   8.501   4.904  0.9894 -0.2517 -0.0633
  861MOL0     C16158   3.745   8.442   4.824 -0.2888  0.2713  0.1664
  861MOL0     O16159   3.776   8.321   4.770  1.1018  0.6872 -0.8802
  861MOL0     C16160   3.678   8.238   4.707 -0.3130  0.7935  1.2336
  861MOL0     C16161   3.558   8.199   4.795 -0.7566  0.0892 -0.5078
  861MOL0     C16162   3.468   8.094   4.732 -0.9864  0.8128 -0.8735
  861MOL0     C16163   3.344   8.056   4.815  0.7577  0.1481  0.3068
  861MOL0     C16164   3.377   7.997   4.938 -0.9441  0.3909 -0.1803
  861MOL0     C16165   3.420   7.919   5.029  0.1561 -0.3191 -0.1695
  861MOL0     C16166   3.629   8.519   4.787 -0.3915 -0.5007 -0.4246
  861MOL0     C16167   3.597   8.639   4.852  0.5100 -0.0096 -0.1629
  861MOL0     H16168   3.391   9.047   4.903  0.9446  1.1922  0.4220
  861MOL0     H16169   3.270   9.243   5.010  2.3217  1.4370 -0.6541
  861MOL0     H16170   3.176   9.225   5.361  0.6782 -0.2832 -0.5733
  861MOL0     H16171   3.325   9.270   5.440 -0.1612  2.1123  1.2847
  861MOL0     H16172   3.129   9.477   5.370  0.1317  1.6574  1.4323
  861MOL0     H16173   3.167   9.423   5.526 -0.9016 -0.9739 -1.0468
  861MOL0     H16174   3.407   9.503   5.477  0.7623  0.3039 -1.2995
  861MOL0     H16175   3.354   9.579   5.318 -2.0645 -3.0306 -1.9513
  861MOL0     H16176   3.185   9.703   5.462  0.4494 -0.7059 -1.5286
  861MOL0     H16177   3.259   9.634   5.601 -3.2551 -1.2540 -1.8878
  861MOL0     H16178   3.392   9.845   5.422 -2.9090  4.1589  1.3368
  861MOL0     H16179   3.352   9.857   5.587  2.1294 -0.4515  1.2254
  861MOL0     H16180   3.510   9.650   5.615  1.4838 -2.3679 -1.7287
  861MOL0     H16181   3.552   9.684   5.444  1.7499  1.6682 -0.3186
  861MOL0     H16182   3.731   9.822   5.529  1.0972  0.2917  3.0674
  861MOL0     H16183   3.591   9.926   5.526 -0.0996 -2.0600 -5.0493
  861MOL0     H16184   3.705   9.767   5.759  0.9486 -0.2074 -3.2816
  861MOL0     H16185   3.561   9.859   5.780  1.8506 -4.4383  2.2934
  861MOL0     H16186   3.565  10.134   5.811  1.2744  3.3859 -0.1017
  861MOL0     H16187   3.804  10.399   5.676 -0.2788  0.3932  0.0580
  861MOL0     H16188   3.645  10.371   5.768 -0.1636 -0.4234  0.6696
  861MOL0     H16189   3.945  10.385   5.851 -1.3712  1.0093 -3.4047
  861MOL0     H16190   3.813  10.338   5.966 -1.4160  1.2410  0.5668
  861MOL0     H16191   3.719  10.575   5.949  0.3382  1.8090  0.3993
  861MOL0     H16192   3.828  10.616   5.836 -2.8122  1.7104  1.2502
  861MOL0     H16193   4.017  10.553   6.006 -0.2921  0.3038 -2.2457
  861MOL0     H16194   3.888  10.518   6.125  3.9485  1.1272  1.6948
  861MOL0     H16195   3.803  10.959   6.129 -0.1866 -0.7573 -0.6804
  861MOL0     H16196   3.738  11.217   5.968 -2.2799  0.8337  2.9900
  861MOL0     H16197   3.790  11.175   6.141 -1.1223 -1.8471  0.4914
  861MOL0     H16198   3.872  11.291   6.042  1.7680 -0.9972 -0.8872
  861MOL0     H16199   3.984  11.444   5.647 -2.7929  0.5282 -2.3669
  861MOL0     H16200   4.046  11.580   5.473  3.9116  0.6914  3.0829
  861MOL0     H16201   4.333  11.450   5.171  1.1115  0.1231 -0.1979
  861MOL0     H16202   4.185  11.431   5.090  0.8197 -1.5878 -0.2181
  861MOL0     H16203   4.167  11.660   5.017  0.7684  0.5541 -1.5561
  861MOL0     H16204   4.303  11.712   5.125  2.7170  1.5393 -2.2124
  861MOL0     H16205   4.313  11.529   4.898 -4.1402 -0.1906  3.3187
  861MOL0     H16206   4.455  11.603   4.995  1.0011  0.3893  2.1089
  861MOL0     H16207   4.259  11.777   4.841  1.7227  3.2237  2.4983
  861MOL0     H16208   4.415  11.812   4.903  2.5936 -1.1054  1.1597
  861MOL0     H16209   4.375  11.577   4.705  1.8308 -0.8917  0.6830
  861MOL0     H16210   4.522  11.657   4.748 -0.2844 -1.6042  0.8500
  861MOL0     H16211   4.436  11.868   4.638  0.9479  0.1100  0.3508
  861MOL0     H16212   4.480  11.737   4.530 -0.1154 -1.5029 -0.2461
  861MOL0     H16213   4.175  11.769   4.607 -2.3457 -0.9472 -2.1395
  861MOL0     H16214   4.253  11.649   4.499  0.7605  0.3896 -0.9472
  861MOL0     H16215   4.331  11.858   4.354  0.8628 -0.0464  1.3392
  861MOL0     H16216   4.252  11.950   4.474 -0.2516 -0.4002 -1.3743
  861MOL0     H16217   4.255  11.269   5.275  1.5598 -0.7442  2.0861
  861MOL0     H16218   4.155  11.114   5.440 -0.8859  0.2765  2.0815
  861MOL0     H16219   4.061  10.953   5.726  0.0443 -0.3448 -0.4245
  861MOL0     H16220   4.057  10.744   5.862 -0.9771 -0.9631  2.6032
  861MOL0     H16221   3.492   9.163   5.361  0.6459 -2.0867 -0.4363
  861MOL0     H16222   3.546   8.941   5.283  0.9636  1.6703  0.9811
  861MOL0     H16223   3.866   8.658   5.058  0.4707  1.3661 -0.7955
  861MOL0     H16224   3.933   8.458   4.928  1.2948  0.6917  0.4065
  861MOL0     H16225   3.629   8.284   4.620 -0.5889  3.1300  2.5590
  861MOL0     H16226   3.729   8.144   4.685 -2.8909 -0.2840 -0.7866
  861MOL0     H16227   3.499   8.288   4.817 -1.8614 -0.7503 -0.0122
  861MOL0     H16228   3.606   8.153   4.882  1.6938 -0.8790 -2.2522
  861MOL0     H16229   3.522   7.999   4.725 -0.4564  1.0046  0.4171
  861MOL0     H16230   3.432   8.138   4.639 -2.7997  1.7611  0.2098
  861MOL0     H16231   3.270   7.987   4.772 -0.5069 -0.2882  3.0222
  861MOL0     H16232   3.293   8.151   4.830 -0.4507 -0.3755 -0.3262
  861MOL0     H16233   3.432   7.836   5.096 -1.5151 -2.3048 -2.1817
  861MOL0     H16234   3.571   8.495   4.699 -1.2762  2.0814 -0.6337
  861MOL0     H16235   3.507   8.699   4.844 -0.7424 -1.1038  3.5343
  862MOL0     O16236   5.863   3.502   6.619  0.1823  0.3438  0.2334
  862MOL0     C16237   5.850   3.385   6.651 -0.3507  0.4862 -0.4125
  862MOL0     O16238   5.835   3.283   6.570  0.7941  0.1932  0.0516
  862MOL0     C16239   5.887   3.281   6.449  0.1988  0.4424  0.3436
  862MOL0     C16240   5.820   3.329   6.341  0.4089  0.6661  0.1455
  862MOL0     C16241   5.869   3.323   6.220  0.0414 -0.5165  0.7051
  862MOL0     C16242   6.005   3.278   6.206 -0.9125 -0.6951 -0.4102
  862MOL0     O16243   6.055   3.286   6.081 -0.3276  0.0847 -0.8159
  862MOL0     C16244   6.174   3.207   6.059  0.7475  0.6120  0.6515
  862MOL0     C16245   6.193   3.205   5.903  0.0027 -0.0091 -0.7844
  862MOL0     C16246   6.255   3.333   5.855 -0.0535 -1.0157  0.5990
  862MOL0     C16247   6.329   3.319   5.726  0.1505  1.1141 -0.3235
  862MOL0     C16248   6.378   3.465   5.694 -0.3006 -0.3971  0.9294
  862MOL0     C16249   6.518   3.504   5.749  0.5975 -0.2305  0.8791
  862MOL0     C16250   6.629   3.492   5.636 -0.6873 -0.3590 -0.4859
  862MOL0     C16251   6.689   3.352   5.627  0.3658  0.3144  0.5973
  862MOL0     N16252   6.795   3.332   5.528  1.2616  0.1580  0.0400
  862MOL0     C16253   6.924   3.311   5.551  0.3350  0.2826 -0.2454
  862MOL0     C16254   6.987   3.297   5.437 -0.2867 -0.1684  0.3506
  862MOL0     C16255   7.134   3.262   5.412  0.4922 -0.0658 -0.5502
  862MOL0     C16256   7.154   3.136   5.335  0.1742 -0.2737  0.4811
  862MOL0     C16257   7.142   3.011   5.425 -0.1060  0.1572  0.7155
  862MOL0     C16258   7.146   2.887   5.345 -0.1215  0.1546  0.2851
  862MOL0     O16259   7.238   2.884   5.235  0.2368 -1.1048 -0.4374
  862MOL0     C16260   7.351   2.817   5.264 -0.7639 -0.2829 -0.1287
  862MOL0     C16261   7.428   2.779   5.153  0.1064  0.9032 -0.9620
  862MOL0     C16262   7.551   2.707   5.165 -0.5286 -0.3816  0.4159
  862MOL0     C16263   7.648   2.709   5.041  0.8846  0.3558 -0.2360
  862MOL0     C16264   7.596   2.682   5.291  0.1241  1.2368  0.5640
  862MOL0     C16265   7.719   2.596   5.313 -0.2205 -0.3071 -0.3710
  862MOL0     O16266   7.751   2.492   5.229 -0.8111  0.2827 -1.1336
  862MOL0     C16267   7.855   2.408   5.257  0.3302  1.0279  1.1499
  862MOL0     C16268   7.964   2.402   5.178  0.1256  0.2046 -0.3887
  862MOL0     C16269   8.067   2.302   5.202  1.3515  0.4720  0.3692
  862MOL0     C16270   8.053   2.212   5.306 -0.5665  0.0578  0.1294
  862MOL0     O16271   8.155   2.131   5.337  0.4208 -0.5325 -1.5299
  862MOL0     C16272   8.112   2.008   5.389 -0.3672  0.1436  0.0858
  862MOL0     C16273   8.233   1.929   5.399  0.0641  0.2323 -0.0886
  862MOL0     C16274   8.305   1.907   5.265 -0.7395  0.0573  0.0819
  862MOL0     C16275   8.224   1.830   5.159  0.0887 -0.2921 -0.3660
  862MOL0     C16276   8.306   1.716   5.087 -0.4076  0.1139  0.0391
  862MOL0     C16277   8.237   1.647   4.963 -0.6828  0.2391  1.0562
  862MOL0     C16278   8.324   1.538   4.898 -0.1007  0.9127 -0.6639
  862MOL0     C16279   8.248   1.443   4.799 -0.2713  0.5566 -0.2106
  862MOL0    Cl16280   8.218   1.515   4.648 -0.0826  0.0098  0.4122
  862MOL0     C16281   7.937   2.230   5.391 -0.6794 -0.4601  0.0814
  862MOL0     C16282   7.839   2.321   5.367 -0.1850  0.9455 -0.5225
  862MOL0     O16283   7.790   2.618   5.416  0.1591 -0.7110  1.0124
  862MOL0     C16284   7.526   2.725   5.404 -0.4510  0.3751 -0.3515
  862MOL0     C16285   7.409   2.801   5.391  0.6342 -0.2650  0.4362
  862MOL0     N16286   6.884   3.311   5.342  0.5229  0.2914  0.2273
  862MOL0     N16287   6.770   3.320   5.402  0.0703  0.3879  0.4784
  862MOL0     C16288   6.078   3.225   6.313 -0.0170 -0.1202  0.8256
  862MOL0     C16289   6.020   3.228   6.438 -0.0588 -0.6649  0.6605
  862MOL0     C16290   5.808   3.359   6.787  0.2210  0.9229 -0.2832
  862MOL0     C16291   5.732   3.459   6.855 -0.9212 -0.8942  0.0071
  862MOL0     C16292   5.701   3.439   6.993 -0.3057  0.1433  0.7942
  862MOL0     C16293   5.755   3.320   7.063  0.1219 -0.1510  0.0166
  862MOL0     O16294   5.756   3.311   7.203 -0.0446  0.8777  0.9098
  862MOL0     C16295   5.653   3.395   7.265  0.2964  0.7708  0.2343
  862MOL0     C16296   5.505   3.348   7.239  0.5123  0.4031  0.2010
  862MOL0     C16297   5.441   3.247   7.335  1.8170 -0.3336  0.0553
  862MOL0     C16298   5.522   3.122   7.358 -0.2083  0.3377 -0.8270
  862MOL0     C16299   5.458   3.051   7.467  0.4406 -0.4090  0.2045
  862MOL0     C16300   5.426   2.981   7.559  0.6318 -0.6406  0.0503
  862MOL0     C16301   5.816   3.218   6.985 -0.0320  0.7550  0.1142
  862MOL0     C16302   5.846   3.236   6.850  0.1230  0.0665  0.0658
  862MOL0     H16303   5.727   3.373   6.376  0.7774  1.0036  0.7158
  862MOL0     H16304   5.817   3.332   6.125  2.7664 -4.0350 -1.3780
  862MOL0     H16305   6.262   3.250   6.109  0.7895  0.3841  0.7734
  862MOL0     H16306   6.159   3.101   6.082 -0.2934 -0.1717 -2.9725
  862MOL0     H16307   6.269   3.128   5.883  1.4241  1.3331 -0.8006
  862MOL0     H16308   6.101   3.179   5.851  0.6884  0.4927 -2.3012
  862MOL0     H16309   6.166   3.396   5.853  0.1994 -0.6016 -3.1902
  862MOL0     H16310   6.315   3.383   5.931  0.9215 -1.5568  0.2018
  862MOL0     H16311   6.409   3.245   5.728 -1.1030 -0.3561 -1.7706
  862MOL0     H16312   6.255   3.282   5.654 -0.6068  2.3692 -0.2183
  862MOL0     H16313   6.367   3.467   5.585 -1.5144  2.8250  1.0223
  862MOL0     H16314   6.310   3.541   5.732  0.6724  1.3000 -0.5607
  862MOL0     H16315   6.507   3.609   5.777  1.0614 -0.4630  1.9846
  862MOL0     H16316   6.554   3.457   5.841  0.4731  0.5188  1.3213
  862MOL0     H16317   6.593   3.528   5.539  1.3482  2.0223 -0.4514
  862MOL0     H16318   6.714   3.553   5.669 -1.9917  1.8955 -1.0559
  862MOL0     H16319   6.603   3.288   5.604 -0.9626  1.1997  2.7206
  862MOL0     H16320   6.731   3.327   5.725  1.5575  2.1368  0.5969
  862MOL0     H16321   6.965   3.308   5.651 -1.9569  2.8306  0.8940
  862MOL0     H16322   7.168   3.351   5.359 -1.2819 -0.2269 -2.0376
  862MOL0     H16323   7.183   3.257   5.510  1.4808 -0.7504 -1.0580
  862MOL0     H16324   7.253   3.146   5.289  0.0755 -0.9876  0.0953
  862MOL0     H16325   7.072   3.129   5.263 -1.3405  1.5148  1.9208
  862MOL0     H16326   7.049   3.023   5.481  0.6109 -0.6235  2.1061
  862MOL0     H16327   7.232   3.007   5.486  0.0166 -1.1272  0.4654
  862MOL0     H16328   7.054   2.897   5.286  0.8874  1.9763 -1.0932
  862MOL0     H16329   7.138   2.792   5.398 -6.1217  0.3108  0.3970
  862MOL0     H16330   7.387   2.814   5.058  0.6895 -0.4145 -1.7258
  862MOL0     H16331   7.734   2.776   5.050  0.5457  1.0580 -1.8835
  862MOL0     H16332   7.687   2.608   5.026  2.2478  0.9609 -0.9485
  862MOL0     H16333   7.585   2.730   4.953  1.8445 -0.9998 -1.2991
  862MOL0     H16334   7.976   2.480   5.103 -3.5809  1.9104  0.5546
  862MOL0     H16335   8.154   2.295   5.137  0.0694 -0.1721 -1.3512
  862MOL0     H16336   8.054   2.018   5.482  1.5926  1.7406  1.2218
  862MOL0     H16337   8.038   1.967   5.320  0.7333  2.0181 -2.3529
  862MOL0     H16338   8.304   1.980   5.465  0.0038  0.9194 -0.5432
  862MOL0     H16339   8.201   1.841   5.455 -2.1050  1.0071 -0.0172
  862MOL0     H16340   8.401   1.860   5.290  0.6267  2.6820  0.1182
  862MOL0     H16341   8.333   2.004   5.224  1.8618 -0.1097  1.2819
  862MOL0     H16342   8.148   1.773   5.213  1.7782 -0.6347  1.7535
  862MOL0     H16343   8.181   1.892   5.079  1.1937 -2.5935 -2.8902
  862MOL0     H16344   8.335   1.642   5.163  0.4455  0.9057  0.5019
  862MOL0     H16345   8.396   1.754   5.040 -1.4026  1.7754 -0.6228
  862MOL0     H16346   8.148   1.590   4.990 -1.8429 -1.1532 -4.4715
  862MOL0     H16347   8.211   1.739   4.909  0.0627  0.6346  1.3515
  862MOL0     H16348   8.361   1.479   4.982  2.1333  1.1776 -1.3928
  862MOL0     H16349   8.411   1.577   4.845 -1.0806  1.3294 -2.0425
  862MOL0     H16350   8.158   1.400   4.843  0.4213 -0.9410 -0.2096
  862MOL0     H16351   8.312   1.354   4.791  0.3084  0.5900  2.8380
  862MOL0     H16352   7.920   2.154   5.467  0.0074 -0.2625  0.4381
  862MOL0     H16353   7.759   2.309   5.440  1.4620  0.0701  1.2440
  862MOL0     H16354   7.563   2.709   5.505 -0.6515  0.1218 -0.3199
  862MOL0     H16355   7.354   2.839   5.476 -2.4281 -0.3190 -1.3627
  862MOL0     H16356   6.176   3.182   6.298  0.9366  2.2017  0.0669
  862MOL0     H16357   6.060   3.185   6.528 -0.8298 -1.6031  0.5739
  862MOL0     H16358   5.694   3.546   6.803 -1.6313 -1.4891 -0.4982
  862MOL0     H16359   5.652   3.521   7.045 -0.3027  0.7706 -0.1690
  862MOL0     H16360   5.668   3.384   7.373 -2.5437  0.7557  0.7082
  862MOL0     H16361   5.667   3.501   7.242  2.9607  0.4587  0.0413
  862MOL0     H16362   5.476   3.328   7.135 -1.0293  2.5589  0.1558
  862MOL0     H16363   5.447   3.439   7.253  0.3348  0.1649  1.0267
  862MOL0     H16364   5.339   3.230   7.298  1.8730 -0.4644 -0.0445
  862MOL0     H16365   5.421   3.298   7.429  0.0744  0.5344 -0.7311
  862MOL0     H16366   5.626   3.149   7.375 -0.5811  3.4202 -2.7997
  862MOL0     H16367   5.523   3.062   7.267  3.9679  1.4547 -1.6947
  862MOL0     H16368   5.397   2.924   7.645  0.7730  0.2755  0.7147
  862MOL0     H16369   5.846   3.131   7.043 -0.8151  0.3165 -0.1189
  862MOL0     H16370   5.890   3.157   6.790 -0.3382  1.3787 -2.0743
  863MOL0     O16371   5.659   9.863   5.828  0.0032 -0.4354 -0.0275
  863MOL0     C16372   5.730   9.901   5.733  0.3774 -0.2036 -1.4947
  863MOL0     O16373   5.861   9.860   5.713 -0.2289  0.2815  0.3553
  863MOL0     C16374   5.936   9.795   5.805 -1.2712  0.0133  0.8735
  863MOL0     C16375   6.071   9.818   5.809 -0.4004 -0.5091  0.2045
  863MOL0     C16376   6.164   9.751   5.895 -0.0070 -0.1137  0.8221
  863MOL0     C16377   6.112   9.658   5.984 -0.5761  0.2616 -0.4401
  863MOL0     O16378   6.187   9.595   6.073 -0.5159 -0.1664 -0.4913
  863MOL0     C16379   6.324   9.623   6.095  0.7456 -0.2251 -0.9296
  863MOL0     C16380   6.377   9.523   6.204 -0.3135 -0.8640 -0.1304
  863MOL0     C16381   6.532   9.526   6.213  0.0901  0.4504 -0.8986
  863MOL0     C16382   6.582   9.438   6.331 -0.5956 -0.3803  0.3895
  863MOL0     C16383   6.738   9.417   6.308  0.3778 -0.3366  0.3768
  863MOL0     C16384   6.762   9.306   6.202 -0.2291  0.6474 -0.0642
  863MOL0     C16385   6.716   9.166   6.249  0.6878  0.1551  0.2381
  863MOL0     C16386   6.694   9.083   6.130 -0.0087 -0.4028  0.7126
  863MOL0     N16387   6.814   9.077   6.039  1.3122 -0.3195  0.2432
  863MOL0     C16388   6.929   9.023   6.089 -0.6446  0.0374  0.0670
  863MOL0     C16389   7.012   9.005   5.981 -0.3212 -0.9827 -0.2980
  863MOL0     C16390   7.151   8.941   5.999 -0.3722  0.8490 -0.0299
  863MOL0     C16391   7.261   8.966   5.887  0.0907 -0.1254  0.3333
  863MOL0     C16392   7.282   9.114   5.834  0.3052 -0.3034  0.7520
  863MOL0     C16393   7.432   9.140   5.814 -0.6533 -0.2478  0.2977
  863MOL0     O16394   7.464   9.270   5.761  0.1086  1.1139 -0.0423
  863MOL0     C16395   7.408   9.288   5.641 -0.8830  0.1244  0.1623
  863MOL0     C16396   7.449   9.223   5.523  0.2394 -0.3574  0.0371
  863MOL0     C16397   7.390   9.254   5.394 -0.3596  0.3999 -0.1002
  863MOL0     C16398   7.436   9.166   5.273  0.3471 -0.6875 -0.4866
  863MOL0     C16399   7.300   9.363   5.393 -0.0298  0.2354 -0.3558
  863MOL0     C16400   7.238   9.399   5.262 -0.0383  1.1204  0.0737
  863MOL0     O16401   7.124   9.485   5.259 -0.6977 -0.4440 -0.7013
  863MOL0     C16402   7.063   9.514   5.148  0.5514  0.0399  0.0219
  863MOL0     C16403   6.991   9.421   5.068 -0.7327  1.4010 -0.0651
  863MOL0     C16404   6.930   9.476   4.952 -0.3173 -0.2011 -0.1225
  863MOL0     C16405   6.953   9.604   4.903  0.2119 -0.3102 -0.1376
  863MOL0     O16406   6.889   9.637   4.790  0.1165 -0.7472 -0.2233
  863MOL0     C16407   6.854   9.776   4.767  0.4331 -0.0700 -0.5966
  863MOL0     C16408   6.725   9.777   4.693 -0.8291  0.1523 -0.5458
  863MOL0     C16409   6.678   9.919   4.665 -0.7023  0.3961  0.4220
  863MOL0     C16410   6.515   9.915   4.633 -0.8108  0.0767 -0.2965
  863MOL0     C16411   6.493   9.989   4.505 -0.3516  0.3673  0.4597
  863MOL0     C16412   6.522  10.137   4.523  0.2108 -0.5024  0.3339
  863MOL0     C16413   6.473  10.214   4.396  0.3148 -0.2463  0.3152
  863MOL0     C16414   6.559  10.340   4.380  0.5144 -0.7630  0.0333
  863MOL0    Cl16415   6.492  10.411   4.244  0.3814  0.2908 -0.2813
  863MOL0     C16416   7.026   9.686   4.991  0.0836 -0.2649 -0.8405
  863MOL0     C16417   7.085   9.645   5.104 -0.0355  0.2299  0.0668
  863MOL0     O16418   7.293   9.362   5.159  0.1047 -0.3089 -0.0115
  863MOL0     C16419   7.271   9.433   5.505  0.3682  0.3082  0.6807
  863MOL0     C16420   7.320   9.392   5.628 -0.3875 -0.5536 -0.0917
  863MOL0     N16421   6.950   9.062   5.864 -0.3250 -0.7945  0.4216
  863MOL0     N16422   6.827   9.100   5.900 -0.1618  0.9351 -0.1146
  863MOL0     C16423   5.975   9.621   5.972 -0.2614 -0.0865  0.1520
  863MOL0     C16424   5.890   9.686   5.881  1.0226  0.0554 -0.2506
  863MOL0     C16425   5.685   9.994   5.633 -0.7668 -0.4003  0.1630
  863MOL0     C16426   5.764  10.025   5.515  0.8361 -0.9222 -0.3264
  863MOL0     C16427   5.722  10.102   5.412 -0.3316 -0.0502  0.4128
  863MOL0     C16428   5.594  10.169   5.419  0.2900  0.3865  0.2749
  863MOL0     O16429   5.532  10.239   5.318  0.2988  0.4443  0.5694
  863MOL0     C16430   5.570  10.195   5.182  0.1368  0.0970 -0.1578
  863MOL0     C16431   5.536  10.302   5.087 -0.3452  0.9901  0.9189
  863MOL0     C16432   5.626  10.426   5.113  0.8326  0.6636 -0.2737
  863MOL0     C16433   5.776  10.410   5.093 -0.1964 -0.0607 -0.6321
  863MOL0     C16434   5.822  10.422   4.954  1.1436  0.4920 -0.3423
  863MOL0     C16435   5.855  10.456   4.843 -0.4586  0.0221  0.0460
  863MOL0     C16436   5.520  10.135   5.540  0.6354  0.9286  0.3876
  863MOL0     C16437   5.557  10.051   5.642 -0.3106  0.0476  0.1017
  863MOL0     H16438   6.109   9.886   5.733 -2.3954  0.7222  0.2372
  863MOL0     H16439   6.271   9.772   5.896 -0.1223  0.8913 -1.4860
  863MOL0     H16440   6.380   9.609   6.002 -0.4897 -1.4678 -1.5178
  863MOL0     H16441   6.343   9.726   6.126 -2.9347  0.0331  1.0259
  863MOL0     H16442   6.347   9.557   6.304 -0.1258  0.5049 -0.5165
  863MOL0     H16443   6.337   9.422   6.192  1.5480 -2.1223  3.0537
  863MOL0     H16444   6.569   9.481   6.120  2.7608  3.1696 -1.3184
  863MOL0     H16445   6.570   9.629   6.215 -0.3429  0.6249  2.0345
  863MOL0     H16446   6.578   9.498   6.423  2.0897  0.6164 -0.0382
  863MOL0     H16447   6.527   9.344   6.335  0.5663 -1.6511 -5.2493
  863MOL0     H16448   6.780   9.511   6.271  0.7659 -0.8506 -0.5401
  863MOL0     H16449   6.786   9.394   6.404  1.3745  0.0861 -0.0013
  863MOL0     H16450   6.709   9.342   6.113 -1.7373  0.0553  0.5668
  863MOL0     H16451   6.867   9.302   6.173  0.1309 -0.1322  1.2751
  863MOL0     H16452   6.794   9.113   6.306 -0.9393 -2.1746  0.4079
  863MOL0     H16453   6.628   9.170   6.314 -0.0547 -0.4209 -0.7139
  863MOL0     H16454   6.607   9.113   6.071 -0.2317  1.0737  1.7225
  863MOL0     H16455   6.678   8.980   6.161 -1.1353 -0.1069  1.1796
  863MOL0     H16456   6.950   8.984   6.188  1.8069 -1.9556 -1.1151
  863MOL0     H16457   7.187   8.988   6.091 -0.8212  1.9112 -0.3758
  863MOL0     H16458   7.142   8.833   6.008 -0.5900  0.8977  0.3918
  863MOL0     H16459   7.233   8.917   5.793 -0.2756  0.4797  0.1142
  863MOL0     H16460   7.354   8.923   5.924 -0.8219 -3.8690 -1.2151
  863MOL0     H16461   7.252   9.195   5.901  0.2415  0.0996  0.2373
  863MOL0     H16462   7.231   9.128   5.739  1.2203  1.2184  0.4599
  863MOL0     H16463   7.459   9.070   5.734 -3.6492  0.6512 -1.6489
  863MOL0     H16464   7.492   9.121   5.903  0.6326 -2.8240 -0.9772
  863MOL0     H16465   7.537   9.159   5.521  2.1164  2.1086 -1.4299
  863MOL0     H16466   7.502   9.231   5.215  3.6135 -1.3620  2.1401
  863MOL0     H16467   7.498   9.079   5.300  2.8296  0.9558 -0.5633
  863MOL0     H16468   7.348   9.133   5.217 -0.6917  3.5905 -1.6990
  863MOL0     H16469   6.969   9.319   5.098 -1.6347  1.2740 -1.0804
  863MOL0     H16470   6.863   9.420   4.888  1.3596  0.3853 -2.5436
  863MOL0     H16471   6.838   9.834   4.858 -0.8325  0.9611 -1.4435
  863MOL0     H16472   6.935   9.822   4.710 -0.6011  0.7533 -1.4545
  863MOL0     H16473   6.738   9.719   4.601  1.5568 -0.7947  0.3036
  863MOL0     H16474   6.654   9.730   4.762 -0.0174  0.2831  0.3956
  863MOL0     H16475   6.741   9.948   4.581  2.3590  0.7179  2.6553
  863MOL0     H16476   6.704   9.985   4.749  0.1035  3.5806 -2.1195
  863MOL0     H16477   6.494   9.811   4.605  0.2431 -0.5038  0.9123
  863MOL0     H16478   6.467   9.961   4.720 -1.1564  1.7709 -1.3403
  863MOL0     H16479   6.385   9.986   4.486 -0.3449  0.4383  0.4099
  863MOL0     H16480   6.548   9.944   4.423  0.6125  2.6958 -0.2594
  863MOL0     H16481   6.471  10.175   4.612 -1.3513  2.2626 -1.5874
  863MOL0     H16482   6.628  10.164   4.534 -0.1248  1.2565 -0.4772
  863MOL0     H16483   6.365  10.232   4.402 -0.1368  0.9232 -5.4249
  863MOL0     H16484   6.485  10.146   4.311  0.8389 -0.2094  0.3595
  863MOL0     H16485   6.664  10.315   4.364  0.2717 -1.7850  0.0204
  863MOL0     H16486   6.549  10.416   4.458  1.9947  2.7122 -2.8639
  863MOL0     H16487   7.051   9.788   4.965 -1.9190  0.2108 -1.0369
  863MOL0     H16488   7.126   9.718   5.173  1.0822 -2.7339  2.7872
  863MOL0     H16489   7.205   9.519   5.498  1.4425  1.0471 -0.9563
  863MOL0     H16490   7.289   9.452   5.713 -1.7171 -1.5726  0.1690
  863MOL0     H16491   5.931   9.539   6.029 -0.6925  0.1163  0.1184
  863MOL0     H16492   5.785   9.658   5.874  0.8805 -0.9906  3.6196
  863MOL0     H16493   5.869   9.995   5.516  1.1800  0.2190  0.6779
  863MOL0     H16494   5.789  10.129   5.331  0.1924  1.3576  1.2737
  863MOL0     H16495   5.674  10.168   5.163  0.0527  0.8205 -1.7615
  863MOL0     H16496   5.511  10.109   5.151  1.3906 -1.1376  0.7851
  863MOL0     H16497   5.430  10.322   5.102 -0.4806  1.2440 -0.2871
  863MOL0     H16498   5.556  10.269   4.984 -1.3007  0.0391  1.0258
  863MOL0     H16499   5.608  10.453   5.217  1.4809  0.5111 -0.1160
  863MOL0     H16500   5.581  10.505   5.052 -2.6275 -1.2592 -0.4973
  863MOL0     H16501   5.815  10.316   5.133 -0.8311 -1.2853 -2.7447
  863MOL0     H16502   5.818  10.502   5.135 -1.4468  0.2928 -0.1168
  863MOL0     H16503   5.874  10.482   4.741  1.0362 -0.9775  0.0338
  863MOL0     H16504   5.424  10.183   5.557  0.4325 -0.2436  2.9686
  863MOL0     H16505   5.491  10.033   5.726  0.7708  2.8465  1.6784
  864MOL0     O16506   4.694  11.001   9.844  0.3144  0.2571  0.3254
  864MOL0     C16507   4.621  11.015   9.739  0.1002  0.2308 -0.3074
  864MOL0     O16508   4.485  10.991   9.725 -0.0261  0.3318  0.3627
  864MOL0     C16509   4.417  10.940   9.831 -0.2168 -0.0181 -0.6587
  864MOL0     C16510   4.461  10.855   9.931 -1.1097  0.6031  0.1036
  864MOL0     C16511   4.375  10.805  10.035  0.0400  0.0344  0.2986
  864MOL0     C16512   4.242  10.865  10.052  0.0548 -0.2557  0.0918
  864MOL0     O16513   4.160  10.845  10.162 -0.5973 -0.5151 -0.0544
  864MOL0     C16514   4.231  10.788  10.274  1.1200  0.5036  0.9695
  864MOL0     C16515   4.144  10.806  10.401 -0.5879  0.4268  0.0843
  864MOL0     C16516   4.221  10.765  10.533  0.3774 -0.5276  1.4009
  864MOL0     C16517   4.125  10.773  10.651  0.1483  0.4528 -0.6999
  864MOL0     C16518   4.188  10.725  10.779  0.3609 -0.1563 -0.5582
  864MOL0     C16519   4.106  10.783  10.899 -0.1252 -0.5613  0.3828
  864MOL0     C16520   4.144  10.703  11.024  0.3705  0.2390  0.1927
  864MOL0     C16521   4.094  10.767  11.150  0.3098  0.1172  0.4403
  864MOL0     N16522   3.959  10.717  11.182  0.4759  0.6128 -1.0061
  864MOL0     C16523   3.863  10.794  11.249 -0.1125  0.1484  0.0196
  864MOL0     C16524   3.765  10.700  11.269  0.2266 -0.8947 -0.5527
  864MOL0     C16525   3.649  10.722  11.363  0.2510  0.1287  0.8538
  864MOL0     C16526   3.656  10.667  11.509 -0.7050  0.5784  0.7660
  864MOL0     C16527   3.700  10.516  11.514 -0.0688 -0.5014 -0.3442
  864MOL0     C16528   3.653  10.468  11.647  0.0428 -0.2469  0.3212
  864MOL0     O16529   3.687  10.565  11.759 -0.2432  0.3560  0.4286
  864MOL0     C16530   3.590  10.576  11.862 -0.7758  0.8074  0.0467
  864MOL0     C16531   3.591  10.702  11.915  0.0789  1.8710  0.1034
  864MOL0     C16532   3.519  10.730  12.030  0.4563  0.0208  1.1853
  864MOL0     C16533   3.541  10.875  12.076  0.9017 -0.3979  0.0060
  864MOL0     C16534   3.440  10.638  12.083  0.3326  0.6175 -0.4814
  864MOL0     C16535   3.373  10.651  12.217  1.5793 -0.5940  1.1672
  864MOL0     O16536   3.248  10.579  12.224 -0.0888  0.5962 -0.5209
  864MOL0     C16537   3.156  10.628  12.320 -1.1972  1.1241  0.1955
  864MOL0     C16538   3.180  10.608  12.457 -0.1345 -0.0699 -0.1604
  864MOL0     C16539   3.088  10.657  12.544 -0.2625 -0.7922  0.2099
  864MOL0     C16540   2.972  10.724  12.512 -0.3844 -0.7757 -0.3943
  864MOL0     O16541   2.884  10.735  12.620 -0.8271 -0.0755 -0.0021
  864MOL0     C16542   2.782  10.833  12.603  0.8435  0.9857 -1.1084
  864MOL0     C16543   2.648  10.764  12.569 -0.1878  0.4652  0.8958
  864MOL0     C16544   2.609  10.649  12.659  0.2960  0.6558  0.4776
  864MOL0     C16545   2.454  10.627  12.640  0.0521 -0.2861  0.1980
  864MOL0     C16546   2.412  10.529  12.735  1.0738  0.4370  0.3466
  864MOL0     C16547   2.262  10.504  12.715  0.3396 -0.1137  0.6274
  864MOL0     C16548   2.206  10.388  12.791 -0.1474  0.4617  0.1971
  864MOL0     C16549   2.127  10.413  12.923  0.5914 -0.6473  0.2271
  864MOL0    Cl16550   1.951  10.387  12.902  0.2467 -0.0530  0.2940
  864MOL0     C16551   2.951  10.744  12.372  0.1595  0.2677 -0.9712
  864MOL0     C16552   3.053  10.705  12.289 -0.0156 -0.0428  0.2011
  864MOL0     O16553   3.411  10.735  12.300 -0.0068  0.0702  0.4438
  864MOL0     C16554   3.422  10.513  12.020  0.4290  0.0664 -0.4840
  864MOL0     C16555   3.501  10.481  11.912  0.0626 -0.5988  0.7315
  864MOL0     N16556   3.794  10.578  11.205  0.3333  0.0521  0.1314
  864MOL0     N16557   3.917  10.586  11.164  0.2642 -0.4835 -0.2960
  864MOL0     C16558   4.198  10.946   9.945 -0.7787 -0.3382  0.3169
  864MOL0     C16559   4.284  10.987   9.833  0.0217  0.4069  0.2454
  864MOL0     C16560   4.688  11.057   9.620 -0.5368  0.0973 -0.4170
  864MOL0     C16561   4.831  11.087   9.627 -0.2144  0.7646 -1.1295
  864MOL0     C16562   4.903  11.123   9.522 -0.7596  0.0605 -0.6532
  864MOL0     C16563   4.847  11.137   9.395 -0.2625 -0.0015 -0.9015
  864MOL0     O16564   4.929  11.175   9.291 -0.0760  0.0995 -0.3384
  864MOL0     C16565   4.870  11.168   9.164  0.2376  0.0241 -0.5866
  864MOL0     C16566   4.973  11.188   9.058 -0.1234  0.2218  0.5378
  864MOL0     C16567   5.090  11.081   9.074 -0.0705 -0.1187 -0.3252
  864MOL0     C16568   5.166  11.074   8.945  0.2080  0.3132 -0.2068
  864MOL0     C16569   5.230  11.209   8.918 -0.0345 -0.6748  0.3586
  864MOL0     C16570   5.285  11.312   8.910 -0.3435  0.2182  0.7950
  864MOL0     C16571   4.711  11.106   9.390  0.7579 -0.6489  0.1202
  864MOL0     C16572   4.625  11.077   9.497 -0.3781  0.4104 -0.3371
  864MOL0     H16573   4.563  10.818   9.942 -1.0842  0.6899  0.1635
  864MOL0     H16574   4.433  10.744  10.104  3.2780 -1.1945 -3.2157
  864MOL0     H16575   4.262  10.684  10.256  1.8728  0.8353  0.2442
  864MOL0     H16576   4.326  10.842  10.280  0.4672  1.5837  1.7218
  864MOL0     H16577   4.134  10.914  10.411  4.2258  1.0194  0.9544
  864MOL0     H16578   4.044  10.761  10.399 -1.4930  2.3722 -0.0447
  864MOL0     H16579   4.256  10.662  10.529  2.2268 -0.0300  3.2634
  864MOL0     H16580   4.306  10.834  10.537  0.3933 -0.1114 -2.1954
  864MOL0     H16581   4.085  10.873  10.672  0.5872  0.6438 -0.7454
  864MOL0     H16582   4.036  10.712  10.636  0.7491 -0.5822 -0.1693
  864MOL0     H16583   4.209  10.617  10.786  0.0619 -0.1104  2.2798
  864MOL0     H16584   4.291  10.763  10.786  0.3195 -0.1083 -0.2122
  864MOL0     H16585   4.126  10.888  10.924 -1.2638 -0.8144  2.6089
  864MOL0     H16586   3.998  10.777  10.885 -0.1178 -2.2414  0.8315
  864MOL0     H16587   4.133  10.594  11.013 -3.2355  0.5935 -0.8186
  864MOL0     H16588   4.253  10.704  11.024  0.5275 -3.4013  0.2873
  864MOL0     H16589   4.093  10.874  11.127 -3.0322 -0.2273 -1.9394
  864MOL0     H16590   4.152  10.745  11.239 -1.4240 -1.4637  1.2716
  864MOL0     H16591   3.872  10.893  11.293 -2.1827  0.1305  0.6087
  864MOL0     H16592   3.609  10.824  11.358 -0.0400  0.0068 -3.6660
  864MOL0     H16593   3.561  10.671  11.322  0.8728  0.9611 -1.6559
  864MOL0     H16594   3.556  10.671  11.552 -0.6017 -0.7094  1.1828
  864MOL0     H16595   3.723  10.732  11.567  1.4911  0.9276 -1.9778
  864MOL0     H16596   3.809  10.509  11.504  0.2061  0.4216  1.5718
  864MOL0     H16597   3.653  10.468  11.428  3.5425 -3.8841 -0.7295
  864MOL0     H16598   3.704  10.374  11.667  3.4523  1.6237  1.1320
  864MOL0     H16599   3.545  10.451  11.640 -0.2766  0.8743  2.0284
  864MOL0     H16600   3.652  10.775  11.862 -0.1741  3.4740  1.9283
  864MOL0     H16601   3.446  10.922  12.052  2.1995  1.6764 -1.3359
  864MOL0     H16602   3.569  10.890  12.181  0.8731  0.8202 -0.1501
  864MOL0     H16603   3.613  10.932  12.017  0.3991  1.9502  1.5307
  864MOL0     H16604   3.265  10.551  12.494 -2.1852 -2.3966  1.3464
  864MOL0     H16605   3.106  10.632  12.647  2.3435  4.3127  1.3276
  864MOL0     H16606   2.779  10.884  12.700 -1.1169  0.0005 -0.5777
  864MOL0     H16607   2.808  10.900  12.521  1.3773 -0.9874 -2.6180
  864MOL0     H16608   2.574  10.844  12.564  0.2572  0.9802  2.1638
  864MOL0     H16609   2.676  10.730  12.469  0.1827  3.8737 -0.2792
  864MOL0     H16610   2.635  10.675  12.762 -0.7311  2.4192  0.3426
  864MOL0     H16611   2.664  10.561  12.626  2.4579  1.8154  0.8331
  864MOL0     H16612   2.413  10.728  12.649  1.7344  0.2812  2.2422
  864MOL0     H16613   2.435  10.599  12.536 -3.2583 -2.1374  1.1350
  864MOL0     H16614   2.431  10.561  12.838 -0.1451 -1.0570  1.0859
  864MOL0     H16615   2.461  10.431  12.726  3.3308  1.7204 -3.2925
  864MOL0     H16616   2.216  10.595  12.754  0.1188 -0.2284  0.6390
  864MOL0     H16617   2.255  10.493  12.606 -2.0683  0.4876  0.6488
  864MOL0     H16618   2.287  10.317  12.809 -1.0065 -1.2370 -2.2169
  864MOL0     H16619   2.138  10.336  12.723 -1.2758  0.6997  1.0994
  864MOL0     H16620   2.149  10.516  12.955 -0.3506  0.9848 -3.7788
  864MOL0     H16621   2.171  10.344  12.996 -0.9975 -1.4744  0.4565
  864MOL0     H16622   2.862  10.801  12.348 -1.2915 -0.7563  1.6433
  864MOL0     H16623   3.048  10.739  12.185 -1.8231 -0.5571  0.0846
  864MOL0     H16624   3.386  10.427  12.076  1.6254  1.4415  2.6341
  864MOL0     H16625   3.512  10.384  11.865  1.3773 -0.0134 -0.2262
  864MOL0     H16626   4.096  10.981   9.941 -0.2962  0.9950 -1.1958
  864MOL0     H16627   4.250  11.045   9.748 -0.8096 -2.3317 -1.3948
  864MOL0     H16628   4.879  11.073   9.723  0.0309 -1.7681 -1.5485
  864MOL0     H16629   5.012  11.118   9.521 -0.5451 -0.1648  4.0511
  864MOL0     H16630   4.813  11.078   9.141 -2.3490  1.9059 -2.1434
  864MOL0     H16631   4.805  11.256   9.158 -0.4771 -0.4785 -0.3748
  864MOL0     H16632   5.010  11.291   9.066  0.8281 -0.2461  5.3988
  864MOL0     H16633   4.926  11.176   8.960  1.3601  1.9619 -0.4680
  864MOL0     H16634   5.046  10.981   9.086  2.4143 -1.1535  0.7529
  864MOL0     H16635   5.153  11.094   9.163 -0.6413  1.5035 -0.1180
  864MOL0     H16636   5.096  11.040   8.867 -2.4164 -1.3517  2.6628
  864MOL0     H16637   5.243  10.997   8.955  0.5107  0.6963  0.4353
  864MOL0     H16638   5.324  11.412   8.904  0.9744  0.0452  4.2850
  864MOL0     H16639   4.664  11.129   9.294  0.9313 -2.5115 -0.4612
  864MOL0     H16640   4.517  11.078   9.491 -0.5519 -3.2731 -0.1360
  865MOL0     O16641  10.119   8.399   5.359  0.1658 -0.1872 -0.0588
  865MOL0     C16642  10.144   8.326   5.456  1.2800  0.3471  0.3554
  865MOL0     O16643  10.187   8.200   5.439  0.1843  0.3605 -0.1782
  865MOL0     C16644  10.220   8.150   5.312 -0.4146  0.2753  1.0676
  865MOL0     C16645  10.351   8.130   5.281  0.1434 -0.8383 -1.0802
  865MOL0     C16646  10.386   8.088   5.150  0.1419 -1.1293 -0.5203
  865MOL0     C16647  10.287   8.080   5.047 -0.1349 -0.2953 -0.8468
  865MOL0     O16648  10.323   8.034   4.923 -0.4036 -0.8179  0.0802
  865MOL0     C16649  10.240   8.069   4.810  0.1712 -0.2627 -0.6802
  865MOL0     C16650  10.334   8.025   4.686  0.0686 -0.7867 -1.5129
  865MOL0     C16651  10.266   8.023   4.550  0.4392 -0.4430 -0.0104
  865MOL0     C16652  10.362   7.987   4.438  0.3009 -0.0159 -0.5905
  865MOL0     C16653  10.370   8.089   4.324  0.0567  0.2349 -0.6619
  865MOL0     C16654  10.376   8.240   4.363  0.1992  0.6446  0.2255
  865MOL0     C16655  10.493   8.276   4.443 -0.4967 -0.0908  0.3814
  865MOL0     C16656  10.518   8.433   4.443  0.0956  0.4879  0.4337
  865MOL0     N16657  10.387   8.514   4.429  1.0539  0.4718  0.2049
  865MOL0     C16658  10.295   8.534   4.529 -0.1701 -0.1520  0.1368
  865MOL0     C16659  10.202   8.617   4.480 -0.2549  0.0720 -0.4778
  865MOL0     C16660  10.089   8.685   4.547  0.5074  0.4377  0.2660
  865MOL0     C16661   9.965   8.662   4.457  0.4505  0.4639  0.4469
  865MOL0     C16662   9.877   8.788   4.427 -0.0571  1.1226  0.9171
  865MOL0     C16663   9.779   8.755   4.319 -0.3393 -0.1515 -0.5556
  865MOL0     O16664   9.668   8.674   4.359  0.2047 -0.0604  0.5279
  865MOL0     C16665   9.560   8.662   4.266 -0.3808 -0.1851  1.3414
  865MOL0     C16666   9.460   8.574   4.311  0.0589 -0.2694 -0.1173
  865MOL0     C16667   9.355   8.527   4.227  1.1188  0.7940 -1.0120
  865MOL0     C16668   9.240   8.450   4.290  0.1267 -0.0675 -0.1491
  865MOL0     C16669   9.331   8.582   4.099  0.8247  0.1096 -0.3483
  865MOL0     C16670   9.214   8.560   4.000 -0.3169 -0.1659 -1.1036
  865MOL0     O16671   9.138   8.450   4.018  0.5974  0.0242  0.2808
  865MOL0     C16672   9.039   8.424   3.914 -0.4436  1.7124  0.1392
  865MOL0     C16673   9.079   8.341   3.803  1.0487  0.0864  0.4646
  865MOL0     C16674   8.990   8.306   3.704  0.5145 -0.5147  0.5673
  865MOL0     C16675   8.864   8.366   3.701  0.0479  0.2316 -0.0441
  865MOL0     O16676   8.769   8.358   3.601  0.0573  0.2064  0.2517
  865MOL0     C16677   8.805   8.313   3.470 -0.9936 -0.3730 -0.4839
  865MOL0     C16678   8.673   8.270   3.399  0.4777 -0.1854 -0.8637
  865MOL0     C16679   8.704   8.220   3.265  1.2472  0.2786 -0.5448
  865MOL0     C16680   8.580   8.147   3.207  0.2083 -0.5027  0.4425
  865MOL0     C16681   8.609   8.088   3.074 -0.5940  0.3250  0.5121
  865MOL0     C16682   8.492   8.004   3.019 -0.1449 -0.2645  0.3149
  865MOL0     C16683   8.526   7.939   2.886  0.7230 -0.8013  1.1439
  865MOL0     C16684   8.429   7.829   2.860  0.3845  0.0985  0.8766
  865MOL0    Cl16685   8.264   7.893   2.832  0.0561 -0.0858  0.5307
  865MOL0     C16686   8.821   8.451   3.809  0.0389 -0.0370  0.6498
  865MOL0     C16687   8.911   8.475   3.908  0.0834  0.4596 -0.2362
  865MOL0     O16688   9.215   8.640   3.910 -0.1886  0.0557  0.2883
  865MOL0     C16689   9.425   8.689   4.065  0.9825  0.0543 -0.1193
  865MOL0     C16690   9.532   8.729   4.147 -0.6964  0.4080  0.8328
  865MOL0     N16691  10.250   8.642   4.351  0.2845 -0.8303 -0.5089
  865MOL0     N16692  10.361   8.583   4.321 -0.0356  0.5217  0.3766
  865MOL0     C16693  10.155   8.096   5.088 -0.1000  0.2672  0.8800
  865MOL0     C16694  10.127   8.131   5.212 -0.1924 -0.4150 -0.2352
  865MOL0     C16695  10.109   8.367   5.595  0.7924  0.4203  0.1947
  865MOL0     C16696  10.094   8.268   5.694 -0.2536  0.4525 -0.8296
  865MOL0     C16697  10.059   8.302   5.821  0.0746 -1.5000 -0.9405
  865MOL0     C16698  10.028   8.432   5.861  0.6273 -0.7031  0.4804
  865MOL0     O16699  10.018   8.474   5.990 -0.0636 -0.3131 -0.9839
  865MOL0     C16700   9.882   8.501   6.023  0.1215  0.1059  0.2394
  865MOL0     C16701   9.866   8.484   6.177 -0.2308 -0.1437 -1.6485
  865MOL0     C16702   9.713   8.479   6.219 -0.2195 -1.1351 -0.7682
  865MOL0     C16703   9.637   8.610   6.193 -0.1334  0.6001 -0.4922
  865MOL0     C16704   9.500   8.607   6.233  0.2225 -0.5939  0.0422
  865MOL0     C16705   9.383   8.612   6.261  1.1428 -0.2853  0.3939
  865MOL0     C16706  10.052   8.531   5.761  0.7495 -0.0670  0.0708
  865MOL0     C16707  10.089   8.502   5.629 -0.3541  0.0301 -0.4944
  865MOL0     H16708  10.427   8.158   5.353 -0.7210  1.8084 -1.0773
  865MOL0     H16709  10.491   8.063   5.145  0.1230 -1.0985 -1.1848
  865MOL0     H16710  10.142   8.021   4.805 -0.4671  1.0932 -2.1905
  865MOL0     H16711  10.233   8.178   4.801  1.3623 -0.2656 -2.3003
  865MOL0     H16712  10.422   8.091   4.681 -2.1955  2.6080 -0.3261
  865MOL0     H16713  10.386   7.932   4.708  0.2811 -0.0528  1.5758
  865MOL0     H16714  10.183   7.952   4.555 -0.0019  0.1257  2.3696
  865MOL0     H16715  10.222   8.122   4.532  3.5622  0.6449 -2.5919
  865MOL0     H16716  10.461   7.957   4.472  0.6031  0.6578 -0.8479
  865MOL0     H16717  10.312   7.897   4.402 -2.0377  1.5524 -1.4921
  865MOL0     H16718  10.447   8.053   4.255  0.0220  0.9065 -1.0676
  865MOL0     H16719  10.275   8.079   4.271 -0.0456  4.1642 -1.5112
  865MOL0     H16720  10.394   8.295   4.270  1.4767  0.8480  0.5717
  865MOL0     H16721  10.284   8.272   4.413  0.3395  1.2410  0.1092
  865MOL0     H16722  10.508   8.239   4.545 -0.4617 -1.0996  0.0212
  865MOL0     H16723  10.578   8.235   4.388 -1.3836 -1.1244 -0.2628
  865MOL0     H16724  10.587   8.458   4.362  1.3120  2.7303  2.0536
  865MOL0     H16725  10.571   8.474   4.529 -3.1888  2.0403  1.8676
  865MOL0     H16726  10.309   8.496   4.630  0.1646  1.6727  0.8223
  865MOL0     H16727  10.079   8.657   4.653  1.2899 -0.6370  0.0791
  865MOL0     H16728  10.109   8.790   4.567  0.2156  0.5634 -0.0983
  865MOL0     H16729   9.898   8.592   4.509  1.5344  0.9386  2.6007
  865MOL0     H16730   9.996   8.607   4.368 -0.1423 -2.3049  1.8144
  865MOL0     H16731   9.939   8.864   4.378 -2.7072  2.4423 -0.6525
  865MOL0     H16732   9.849   8.827   4.526 -0.8723 -1.7476  1.9019
  865MOL0     H16733   9.834   8.702   4.240 -0.2420 -0.8905 -0.0049
  865MOL0     H16734   9.741   8.850   4.281 -2.6292 -1.1330 -0.9063
  865MOL0     H16735   9.475   8.540   4.413  2.8030  0.7925 -0.0982
  865MOL0     H16736   9.242   8.441   4.399  0.4159 -0.7508 -0.2058
  865MOL0     H16737   9.144   8.500   4.277 -0.2003 -0.8837 -0.9171
  865MOL0     H16738   9.227   8.348   4.254 -1.0846 -0.7026  1.9744
  865MOL0     H16739   9.184   8.313   3.796  1.6515  2.0316  1.0477
  865MOL0     H16740   9.044   8.258   3.622 -1.7671  0.2651 -1.5115
  865MOL0     H16741   8.856   8.400   3.427 -1.1449  0.3507  0.7379
  865MOL0     H16742   8.868   8.224   3.475 -3.3367 -2.0633  1.8974
  865MOL0     H16743   8.620   8.207   3.471  2.9959 -1.1989  0.2219
  865MOL0     H16744   8.611   8.359   3.388 -1.2182 -1.3363 -1.0983
  865MOL0     H16745   8.785   8.147   3.269  1.8633  1.0138  1.2056
  865MOL0     H16746   8.735   8.311   3.212 -0.3818  1.3021  0.1928
  865MOL0     H16747   8.551   8.069   3.279  1.3148  0.3985  1.9296
  865MOL0     H16748   8.489   8.208   3.204  1.9602  2.3189 -3.3395
  865MOL0     H16749   8.693   8.020   3.094 -1.4902 -1.0604 -0.2905
  865MOL0     H16750   8.638   8.160   2.997  1.3625 -2.9559 -2.0804
  865MOL0     H16751   8.463   7.933   3.097 -1.1482  1.5281  1.6321
  865MOL0     H16752   8.408   8.072   3.005 -0.2720 -0.1130  1.6992
  865MOL0     H16753   8.624   7.892   2.887  1.8525  1.1850 -2.0088
  865MOL0     H16754   8.539   8.015   2.808 -0.5766 -0.2636  1.4097
  865MOL0     H16755   8.404   7.773   2.951  0.3833  0.8773  1.3644
  865MOL0     H16756   8.460   7.758   2.783  0.8844 -0.4212  1.5449
  865MOL0     H16757   8.717   8.480   3.799  0.4239  0.7782 -1.6324
  865MOL0     H16758   8.884   8.531   3.997 -0.3629 -0.7255  0.4022
  865MOL0     H16759   9.401   8.740   3.972  0.2052 -1.3887 -0.7269
  865MOL0     H16760   9.592   8.814   4.115 -0.1861  0.0697  0.8800
  865MOL0     H16761  10.067   8.083   5.026 -0.4117  0.1248  1.3529
  865MOL0     H16762  10.026   8.152   5.243  0.7679  0.9488  2.2546
  865MOL0     H16763  10.113   8.165   5.669  0.0133  0.3457 -0.2000
  865MOL0     H16764  10.060   8.217   5.888  0.7763 -0.2482  0.7213
  865MOL0     H16765   9.855   8.605   6.003 -0.6947 -0.2634 -0.6811
  865MOL0     H16766   9.807   8.437   5.976 -0.0760  0.9020 -0.5474
  865MOL0     H16767   9.919   8.569   6.223 -1.1778 -1.5805  2.5726
  865MOL0     H16768   9.913   8.395   6.219 -3.3415 -0.1050  2.6687
  865MOL0     H16769   9.706   8.464   6.327  1.1087  3.2489  0.1116
  865MOL0     H16770   9.667   8.394   6.167  1.0903 -1.2931 -1.7313
  865MOL0     H16771   9.640   8.618   6.084  1.3467  0.3640 -0.4846
  865MOL0     H16772   9.694   8.686   6.247  0.1098  0.0198  0.0895
  865MOL0     H16773   9.279   8.626   6.279  1.3857  1.3391  0.6490
  865MOL0     H16774  10.064   8.634   5.791  2.0939  0.0091 -0.6590
  865MOL0     H16775  10.111   8.582   5.560  0.9493 -0.3844 -0.5837
  866MOL0     O16776   0.282   0.166   9.211 -0.6265  0.3770 -1.1858
  866MOL0     C16777   0.328   0.181   9.099  0.8306 -0.6645  0.2820
  866MOL0     O16778   0.253   0.209   8.983 -0.7134 -0.1688 -0.2585
  866MOL0     C16779   0.120   0.214   8.990 -0.4275 -0.1746  0.4891
  866MOL0     C16780   0.063   0.319   8.921 -0.3527 -0.3601  0.3334
  866MOL0     C16781  -0.074   0.341   8.912  0.2179  0.8621 -0.6137
  866MOL0     C16782  -0.159   0.259   8.977  0.4536 -0.3674 -0.9750
  866MOL0     O16783  -0.290   0.280   8.955  0.3710  1.0154 -0.5475
  866MOL0     C16784  -0.391   0.197   9.012 -0.2139  0.2439 -0.8680
  866MOL0     C16785  -0.513   0.222   8.926 -0.8011 -0.2161  0.4331
  866MOL0     C16786  -0.639   0.145   8.973  0.8184  0.6726  0.1103
  866MOL0     C16787  -0.767   0.191   8.891  0.1400  0.2263  1.1425
  866MOL0     C16788  -0.901   0.126   8.951 -0.1770 -0.1920  0.8938
  866MOL0     C16789  -0.945  -0.013   8.910  0.1439 -0.8907  0.7068
  866MOL0     C16790  -0.993  -0.023   8.761  0.2026  0.6819  0.1075
  866MOL0     C16791  -1.010  -0.174   8.722 -0.4034 -0.3235 -0.8415
  866MOL0     N16792  -1.054  -0.189   8.585  0.7817  0.3525 -0.0404
  866MOL0     C16793  -1.043  -0.305   8.517  0.0741  0.5116  0.5449
  866MOL0     C16794  -1.082  -0.275   8.387 -0.2700  1.0543 -0.7132
  866MOL0     C16795  -1.078  -0.365   8.271  0.4329  0.6573 -0.1279
  866MOL0     C16796  -0.927  -0.386   8.243 -0.2451 -0.4675  0.6333
  866MOL0     C16797  -0.893  -0.473   8.122 -0.4247  0.0160  0.3569
  866MOL0     C16798  -0.741  -0.481   8.099  0.2101  0.7058  0.0666
  866MOL0     O16799  -0.662  -0.492   8.221  0.2956 -0.0380 -0.1619
  866MOL0     C16800  -0.533  -0.461   8.223  0.1206 -0.1878  0.2371
  866MOL0     C16801  -0.473  -0.460   8.347 -0.1575 -0.1523 -0.2153
  866MOL0     C16802  -0.339  -0.419   8.371 -0.5807 -0.0559 -0.1794
  866MOL0     C16803  -0.292  -0.401   8.518 -0.0743  0.3043 -0.6153
  866MOL0     C16804  -0.255  -0.401   8.248 -0.1901  0.3666 -0.5576
  866MOL0     C16805  -0.110  -0.355   8.249 -0.1711  0.0698  1.1798
  866MOL0     O16806  -0.061  -0.303   8.134  0.4619 -0.4985  0.7219
  866MOL0     C16807   0.054  -0.222   8.145  0.0942 -0.3068  0.2017
  866MOL0     C16808   0.176  -0.285   8.161 -0.0108  0.1182 -0.1027
  866MOL0     C16809   0.298  -0.217   8.189  0.7009  0.6682 -1.0804
  866MOL0     C16810   0.293  -0.076   8.196  0.1025 -0.4432  0.1459
  866MOL0     O16811   0.397   0.001   8.248  0.0969  0.3275  0.8124
  866MOL0     C16812   0.511  -0.075   8.300  0.0705 -0.0437  0.1000
  866MOL0     C16813   0.574   0.017   8.396  0.2407 -0.0963 -0.5060
  866MOL0     C16814   0.720  -0.022   8.419  0.8457  0.2065 -0.8591
  866MOL0     C16815   0.746  -0.137   8.511  0.0362  0.1714  0.8949
  866MOL0     C16816   0.888  -0.130   8.563  0.5459 -0.4577 -0.7994
  866MOL0     C16817   0.997  -0.152   8.457 -0.1505  0.1735 -0.1118
  866MOL0     C16818   1.134  -0.197   8.510 -0.5242 -0.1820  0.3806
  866MOL0     C16819   1.241  -0.099   8.475  0.6875 -0.8158  0.2594
  866MOL0    Cl16820   1.405  -0.178   8.508  0.2828 -0.6135  0.1495
  866MOL0     C16821   0.168  -0.014   8.189  0.2657  1.1914  0.1270
  866MOL0     C16822   0.044  -0.079   8.153 -0.0668  0.6871 -1.3381
  866MOL0     O16823  -0.044  -0.383   8.350  0.2001  0.0829 -0.1811
  866MOL0     C16824  -0.320  -0.398   8.130 -0.2991  0.2632  0.3363
  866MOL0     C16825  -0.455  -0.421   8.114  0.2750 -0.8565 -0.3325
  866MOL0     N16826  -1.132  -0.144   8.387  0.4083 -0.2055 -0.6839
  866MOL0     N16827  -1.114  -0.092   8.501  0.2790  0.3977 -0.3010
  866MOL0     C16828  -0.101   0.147   9.051  1.3956 -0.0557  0.0015
  866MOL0     C16829   0.032   0.126   9.055 -0.6445  0.4125  0.1163
  866MOL0     C16830   0.476   0.178   9.090  0.8273 -0.5354 -0.3041
  866MOL0     C16831   0.529   0.158   8.960  0.7111  0.2236 -0.4851
  866MOL0     C16832   0.667   0.153   8.950  0.7834 -0.1770  0.1708
  866MOL0     C16833   0.755   0.166   9.060 -0.7323  0.2631  0.0315
  866MOL0     O16834   0.888   0.147   9.055  0.0293  0.1886  0.6012
  866MOL0     C16835   0.961   0.174   8.938 -0.2689  0.4022  0.0837
  866MOL0     C16836   1.112   0.151   8.961  1.3821  0.8030 -0.4183
  866MOL0     C16837   1.150  -0.002   8.969  0.9960  0.7997 -0.7369
  866MOL0     C16838   1.305  -0.011   8.966  0.5122  0.4213  0.6420
  866MOL0     C16839   1.381  -0.037   9.089 -0.4288 -0.2410  0.2311
  866MOL0     C16840   1.468  -0.074   9.162  0.2366  0.3238  0.7167
  866MOL0     C16841   0.703   0.189   9.182  0.8016  0.5757 -0.5551
  866MOL0     C16842   0.562   0.180   9.199  0.1216  0.5113 -0.3176
  866MOL0     H16843   0.119   0.393   8.865  0.7766  0.0442  1.9276
  866MOL0     H16844  -0.115   0.433   8.870 -0.4499  0.9214  0.1501
  866MOL0     H16845  -0.357   0.093   9.016  1.8821  0.9160  0.6200
  866MOL0     H16846  -0.412   0.234   9.113 -2.7674  0.1485 -1.3048
  866MOL0     H16847  -0.539   0.328   8.932 -3.1156 -0.6173 -1.0996
  866MOL0     H16848  -0.505   0.189   8.821  2.8902 -2.3371  1.1962
  866MOL0     H16849  -0.624   0.037   8.970 -2.3301  0.0734  1.4239
  866MOL0     H16850  -0.660   0.171   9.077 -0.2180 -0.4819  0.2138
  866MOL0     H16851  -0.780   0.297   8.914  0.6760  0.6373 -0.4057
  866MOL0     H16852  -0.768   0.176   8.783 -3.7336 -0.4000  1.1175
  866MOL0     H16853  -0.898   0.144   9.059  1.7296  3.3071  0.4142
  866MOL0     H16854  -0.982   0.193   8.920 -0.3970 -0.6316  0.5143
  866MOL0     H16855  -0.865  -0.088   8.904 -1.3837 -2.5491 -3.8495
  866MOL0     H16856  -1.026  -0.056   8.970 -1.1315  0.4416  0.0124
  866MOL0     H16857  -1.085   0.036   8.754 -0.5372 -0.4910 -0.5611
  866MOL0     H16858  -0.921   0.015   8.688  0.7426 -2.8271 -1.3992
  866MOL0     H16859  -1.088  -0.223   8.781 -2.8244  3.2657 -0.7494
  866MOL0     H16860  -0.913  -0.223   8.737 -0.4880 -0.4477 -0.7015
  866MOL0     H16861  -1.018  -0.399   8.564 -3.3554 -2.1690 -2.3926
  866MOL0     H16862  -1.139  -0.453   8.296 -0.9404  2.3325  2.8949
  866MOL0     H16863  -1.124  -0.325   8.180 -0.3532 -0.2825 -0.1729
  866MOL0     H16864  -0.883  -0.434   8.330 -0.2465  1.7628  1.9176
  866MOL0     H16865  -0.877  -0.290   8.226 -1.7944 -0.0265 -2.1103
  866MOL0     H16866  -0.935  -0.440   8.027  0.9917 -0.9910 -0.6597
  866MOL0     H16867  -0.940  -0.570   8.143 -3.5969 -0.1640 -5.3790
  866MOL0     H16868  -0.714  -0.395   8.038  1.9085  1.0018  1.1464
  866MOL0     H16869  -0.725  -0.569   8.036  1.6856  2.0795 -1.5911
  866MOL0     H16870  -0.522  -0.464   8.443  1.8003 -1.3120  0.8033
  866MOL0     H16871  -0.364  -0.457   8.579 -0.8412  0.7535 -1.0933
  866MOL0     H16872  -0.192  -0.440   8.542  0.2737  1.5946  0.1534
  866MOL0     H16873  -0.296  -0.294   8.537 -0.5043  0.1572  0.2249
  866MOL0     H16874   0.176  -0.393   8.164 -0.7442  0.0441 -1.9266
  866MOL0     H16875   0.386  -0.280   8.189  0.4749  0.3482 -0.2660
  866MOL0     H16876   0.498  -0.168   8.358  2.0055 -0.7699 -0.5283
  866MOL0     H16877   0.577  -0.091   8.214 -1.0508 -3.6794 -0.2694
  866MOL0     H16878   0.561   0.118   8.355  0.6543 -0.3167 -1.1809
  866MOL0     H16879   0.506   0.021   8.482  1.9738 -0.5547  0.9548
  866MOL0     H16880   0.769   0.065   8.463 -0.6839 -1.3055  4.7214
  866MOL0     H16881   0.782  -0.044   8.332  3.7969  1.4157  0.7921
  866MOL0     H16882   0.685  -0.128   8.602 -2.0990  0.2930 -0.4763
  866MOL0     H16883   0.729  -0.233   8.461  2.4191 -0.6307  1.4632
  866MOL0     H16884   0.913  -0.198   8.644  1.3414 -0.9433 -1.4328
  866MOL0     H16885   0.887  -0.034   8.616 -1.7832  1.0211 -3.2652
  866MOL0     H16886   0.965  -0.231   8.389  3.3865 -2.0323  0.5247
  866MOL0     H16887   1.002  -0.066   8.390 -1.7163 -0.0520 -0.5465
  866MOL0     H16888   1.154  -0.296   8.469  0.7360  0.4855 -0.7214
  866MOL0     H16889   1.139  -0.198   8.619  0.2138 -1.1788  0.3556
  866MOL0     H16890   1.225  -0.001   8.521  3.5553 -0.9440  1.8115
  866MOL0     H16891   1.228  -0.081   8.367  2.7919  0.3279  0.1301
  866MOL0     H16892   0.183   0.093   8.195  1.4602  0.9616  2.1825
  866MOL0     H16893  -0.044  -0.018   8.133  0.2038  1.2540 -0.8221
  866MOL0     H16894  -0.252  -0.379   8.047 -1.5104 -1.0701 -1.0280
  866MOL0     H16895  -0.494  -0.446   8.016  0.4366 -1.6024 -0.2143
  866MOL0     H16896  -0.167   0.087   9.113 -2.0122  2.0952 -1.2138
  866MOL0     H16897   0.068   0.050   9.124  1.9534 -0.6086 -2.1638
  866MOL0     H16898   0.464   0.149   8.873  0.0289 -1.0377  0.1197
  866MOL0     H16899   0.703   0.120   8.853  1.5677  2.7030 -0.5948
  866MOL0     H16900   0.920   0.119   8.853  2.9378 -0.9700 -0.7205
  866MOL0     H16901   0.934   0.276   8.909 -3.1180 -0.7442 -1.7786
  866MOL0     H16902   1.139   0.215   9.046 -1.5739  1.8792 -0.1564
  866MOL0     H16903   1.159   0.195   8.873  2.5528  0.2086 -0.1200
  866MOL0     H16904   1.112  -0.054   8.881 -1.4187  1.1510  0.0305
  866MOL0     H16905   1.113  -0.046   9.062  1.0137 -1.1100 -1.5755
  866MOL0     H16906   1.348   0.088   8.949 -0.0702  0.6387  0.4320
  866MOL0     H16907   1.340  -0.082   8.891 -1.4497 -0.6673  0.6887
  866MOL0     H16908   1.555  -0.112   9.212 -0.4487 -1.7644  0.4037
  866MOL0     H16909   0.775   0.200   9.262  2.6712 -3.7951 -1.3439
  866MOL0     H16910   0.535   0.190   9.303  4.0410  1.7353  0.7434
  867MOL0     O16911   5.232   2.388   1.740  0.3773  0.2050  0.9234
  867MOL0     C16912   5.300   2.328   1.815  0.4462 -0.5523 -0.0997
  867MOL0     O16913   5.249   2.236   1.916 -0.6696  0.1737  0.3003
  867MOL0     C16914   5.123   2.202   1.893  0.7192  0.4005 -0.2571
  867MOL0     C16915   5.028   2.277   1.955  0.4031  0.3903 -0.2330
  867MOL0     C16916   4.890   2.238   1.942 -0.2322 -0.0256 -0.1860
  867MOL0     C16917   4.856   2.115   1.885  0.7742  0.1127 -0.7726
  867MOL0     O16918   4.722   2.095   1.860 -0.0502 -0.0161  0.8255
  867MOL0     C16919   4.691   2.004   1.754  0.6733  0.1512  0.8545
  867MOL0     C16920   4.548   2.017   1.699  0.6286 -0.2306 -0.3964
  867MOL0     C16921   4.530   1.896   1.604 -0.0232  0.5099 -0.5724
  867MOL0     C16922   4.379   1.908   1.554  0.1172  0.0076  0.3505
  867MOL0     C16923   4.332   1.775   1.495  1.3958 -0.1867 -0.4187
  867MOL0     C16924   4.431   1.713   1.392 -0.5096 -0.5290 -0.5943
  867MOL0     C16925   4.433   1.798   1.264  0.4422  0.8442  0.3634
  867MOL0     C16926   4.305   1.788   1.175 -1.3507 -0.1837 -0.1679
  867MOL0     N16927   4.295   1.651   1.117  0.0564 -0.0274  0.3209
  867MOL0     C16928   4.377   1.577   1.042 -0.5781  0.0190  0.1436
  867MOL0     C16929   4.342   1.450   1.049 -0.4338  0.7857  0.0749
  867MOL0     C16930   4.415   1.327   0.997  0.1752  0.8297  0.7489
  867MOL0     C16931   4.383   1.292   0.852  0.4028 -0.1396 -1.1544
  867MOL0     C16932   4.265   1.198   0.837 -0.3325  0.1702 -0.5522
  867MOL0     C16933   4.135   1.229   0.920  0.3521 -0.5494 -0.3785
  867MOL0     O16934   4.018   1.176   0.857  0.6551  0.1109  0.1045
  867MOL0     C16935   3.892   1.231   0.892  0.0428  0.0515 -0.4156
  867MOL0     C16936   3.879   1.332   0.986  0.2355 -0.4981  0.5646
  867MOL0     C16937   3.758   1.403   1.004  0.8419 -0.1867  0.8520
  867MOL0     C16938   3.754   1.490   1.119  0.3926 -0.6102 -0.7980
  867MOL0     C16939   3.640   1.347   0.951  0.6837 -1.6001  0.2774
  867MOL0     C16940   3.508   1.417   0.951  1.1146  0.3190 -0.0745
  867MOL0     O16941   3.404   1.333   0.943  0.4119  0.4827 -0.9520
  867MOL0     C16942   3.271   1.364   0.923  0.2184  0.1781  0.5315
  867MOL0     C16943   3.183   1.258   0.909 -0.6584  0.0535 -0.0351
  867MOL0     C16944   3.043   1.279   0.910 -0.4926 -1.1185  0.1200
  867MOL0     C16945   2.996   1.411   0.916 -0.2287  0.9268  0.2878
  867MOL0     O16946   2.856   1.429   0.920  0.1348  0.0724  0.7105
  867MOL0     C16947   2.758   1.333   0.948  0.2501  0.1862  0.9111
  867MOL0     C16948   2.626   1.387   0.891 -0.4057  0.1903  0.4030
  867MOL0     C16949   2.517   1.293   0.908  0.7019 -0.3963  0.2005
  867MOL0     C16950   2.380   1.368   0.889  0.7433 -0.4775  0.0813
  867MOL0     C16951   2.310   1.351   0.753  0.3311  0.6705 -0.1361
  867MOL0     C16952   2.309   1.214   0.676  0.0794  0.9108  0.4007
  867MOL0     C16953   2.248   1.100   0.755 -0.0948  0.0162  0.2207
  867MOL0     C16954   2.096   1.117   0.774 -0.3738  1.3451  0.4459
  867MOL0    Cl16955   2.013   1.087   0.618 -0.5303  0.3622  0.3090
  867MOL0     C16956   3.085   1.522   0.921 -0.1907  0.0081 -0.3340
  867MOL0     C16957   3.223   1.496   0.917 -0.3701  0.1386 -0.6947
  867MOL0     O16958   3.506   1.529   0.984 -0.4934  0.4893  0.0918
  867MOL0     C16959   3.648   1.237   0.866 -0.7164 -0.0948  0.1788
  867MOL0     C16960   3.778   1.179   0.837  0.2197 -0.7487  0.4334
  867MOL0     N16961   4.232   1.431   1.128  0.4396 -1.3625 -0.4911
  867MOL0     N16962   4.202   1.552   1.170 -0.1580  0.7383  1.0451
  867MOL0     C16963   4.963   2.030   1.838 -0.5573  0.5280  0.0006
  867MOL0     C16964   5.096   2.074   1.836 -0.1914  0.2488 -0.9977
  867MOL0     C16965   5.447   2.352   1.826  0.8867  0.5309 -0.2866
  867MOL0     C16966   5.531   2.254   1.888 -0.6976 -0.4474 -0.4378
  867MOL0     C16967   5.668   2.274   1.886  0.5830 -0.0959  0.0247
  867MOL0     C16968   5.725   2.400   1.860  0.1741  1.1996  0.5956
  867MOL0     O16969   5.858   2.405   1.869 -0.6738 -0.1982 -0.2895
  867MOL0     C16970   5.933   2.517   1.811 -0.6087  1.0536  0.6636
  867MOL0     C16971   6.078   2.486   1.810  0.1614  0.1570  0.2409
  867MOL0     C16972   6.177   2.594   1.771  0.6390  0.1065  0.5377
  867MOL0     C16973   6.308   2.537   1.710  0.3719  0.5404  0.1495
  867MOL0     C16974   6.384   2.657   1.685  0.3581 -0.5310  0.5692
  867MOL0     C16975   6.449   2.759   1.661  0.3203 -0.2895 -0.2263
  867MOL0     C16976   5.641   2.499   1.805 -0.3341 -0.1455  0.2640
  867MOL0     C16977   5.508   2.470   1.776 -0.4647 -0.6019 -0.2576
  867MOL0     H16978   5.061   2.362   2.014 -0.2889  1.2566 -1.0327
  867MOL0     H16979   4.812   2.297   1.988 -0.7010 -0.7394 -0.0569
  867MOL0     H16980   4.760   2.013   1.669 -1.0566  2.0374 -0.4647
  867MOL0     H16981   4.689   1.899   1.783 -2.6413  0.1062  0.8925
  867MOL0     H16982   4.477   2.011   1.781  1.2653  2.5341  0.4924
  867MOL0     H16983   4.535   2.117   1.656  1.9549 -0.4380 -1.3463
  867MOL0     H16984   4.601   1.907   1.522 -0.6154  1.5158 -0.9540
  867MOL0     H16985   4.531   1.803   1.662 -0.1850  1.0721  0.3519
  867MOL0     H16986   4.310   1.933   1.635  1.0466  1.9810  0.5891
  867MOL0     H16987   4.357   1.988   1.484 -2.9007 -1.3904 -0.4436
  867MOL0     H16988   4.334   1.703   1.577  3.1625 -1.4904 -1.5486
  867MOL0     H16989   4.230   1.786   1.457  1.4193  2.7720  0.0827
  867MOL0     H16990   4.532   1.701   1.432 -1.8454  0.5559  3.5534
  867MOL0     H16991   4.390   1.616   1.362 -1.2235 -0.5381  0.3624
  867MOL0     H16992   4.463   1.899   1.295  1.5617  1.2192 -1.7562
  867MOL0     H16993   4.516   1.769   1.199  0.7168 -0.4137  1.2350
  867MOL0     H16994   4.321   1.859   1.093  4.0843 -2.8424 -1.9247
  867MOL0     H16995   4.218   1.818   1.234 -0.4628  3.5366 -0.4556
  867MOL0     H16996   4.469   1.612   0.997  1.2175 -2.4050  1.6768
  867MOL0     H16997   4.523   1.336   1.012  0.3782 -0.3299  0.0970
  867MOL0     H16998   4.382   1.247   1.064  1.5883 -0.1602  0.3079
  867MOL0     H16999   4.473   1.244   0.810  0.6715 -1.2555  0.6004
  867MOL0     H17000   4.358   1.375   0.786  1.3769  0.8721 -0.2806
  867MOL0     H17001   4.291   1.093   0.855  2.3808  0.2530 -3.1198
  867MOL0     H17002   4.248   1.205   0.729  0.6885 -0.3085 -0.7598
  867MOL0     H17003   4.119   1.337   0.917  0.4583 -0.5577 -1.8714
  867MOL0     H17004   4.149   1.195   1.023 -3.1700 -4.4528 -0.8747
  867MOL0     H17005   3.961   1.350   1.055  1.3340 -0.7758 -0.6458
  867MOL0     H17006   3.668   1.455   1.177  0.9907  1.3021  1.4143
  867MOL0     H17007   3.847   1.478   1.175 -1.3562 -1.9266  2.0773
  867MOL0     H17008   3.737   1.597   1.103 -1.5336 -0.4771  1.5652
  867MOL0     H17009   3.221   1.156   0.905 -0.1927  0.2427 -0.6809
  867MOL0     H17010   2.982   1.190   0.909 -1.5827 -0.5373  3.4038
  867MOL0     H17011   2.778   1.252   0.876  0.3717  2.1104 -1.3509
  867MOL0     H17012   2.761   1.275   1.041  4.6012 -3.0203 -0.8743
  867MOL0     H17013   2.607   1.480   0.945  0.7947  1.8056 -1.7665
  867MOL0     H17014   2.634   1.406   0.783  1.8634 -5.3856 -0.7417
  867MOL0     H17015   2.514   1.256   1.011  1.9115  2.0682  1.1983
  867MOL0     H17016   2.535   1.202   0.850  0.5345 -0.5875  0.4467
  867MOL0     H17017   2.323   1.324   0.970 -0.2287 -2.4035 -1.5557
  867MOL0     H17018   2.390   1.474   0.912  0.3393 -0.3687 -0.2346
  867MOL0     H17019   2.356   1.423   0.685  1.1938 -0.5759 -0.9217
  867MOL0     H17020   2.208   1.389   0.768 -1.1750 -2.6044 -0.9859
  867MOL0     H17021   2.247   1.224   0.586 -0.3491 -2.5892  0.1810
  867MOL0     H17022   2.407   1.181   0.640 -1.2611 -0.0962 -2.7210
  867MOL0     H17023   2.294   1.091   0.854 -0.3162 -0.1166  0.3116
  867MOL0     H17024   2.265   1.004   0.707 -2.1053  0.7918 -2.2264
  867MOL0     H17025   2.072   1.214   0.818 -0.0478  0.4642  2.6891
  867MOL0     H17026   2.068   1.036   0.843  2.3089 -0.5772 -0.5616
  867MOL0     H17027   3.029   1.614   0.936  1.1513  1.3597 -2.9888
  867MOL0     H17028   3.284   1.585   0.931  0.4430 -0.6937  1.4898
  867MOL0     H17029   3.555   1.214   0.816 -1.8547  1.1011  1.6725
  867MOL0     H17030   3.782   1.096   0.766  3.7576 -0.2376 -0.1301
  867MOL0     H17031   4.941   1.940   1.782  0.6426  0.4246 -0.3276
  867MOL0     H17032   5.180   2.023   1.791  1.9612  0.8781  2.0215
  867MOL0     H17033   5.504   2.155   1.922  0.1511  0.5426  3.6568
  867MOL0     H17034   5.730   2.194   1.925  1.4861  0.6993  0.2505
  867MOL0     H17035   5.905   2.516   1.705  0.2945  1.2619  0.4171
  867MOL0     H17036   5.915   2.613   1.859 -0.0175  0.8055  1.3963
  867MOL0     H17037   6.094   2.397   1.749  1.7838  0.4721  0.1862
  867MOL0     H17038   6.115   2.455   1.908  0.0112 -1.6878 -0.2529
  867MOL0     H17039   6.193   2.646   1.865  1.5234 -1.6713  1.4152
  867MOL0     H17040   6.139   2.664   1.696 -1.0038 -2.1802 -0.9410
  867MOL0     H17041   6.291   2.470   1.626 -0.3830 -0.0308  0.7444
  867MOL0     H17042   6.355   2.477   1.789 -0.6530 -2.0707 -1.1483
  867MOL0     H17043   6.514   2.838   1.628  2.4070 -0.2508  3.4483
  867MOL0     H17044   5.675   2.597   1.771 -0.1298 -0.4792 -0.5219
  867MOL0     H17045   5.461   2.550   1.721  6.0564  1.3038 -4.1405
  868MOL0     O17046   7.718   0.662   9.354 -0.0084  0.0216  0.5518
  868MOL0     C17047   7.827   0.671   9.306 -0.7044  0.0528 -0.4117
  868MOL0     O17048   7.867   0.753   9.198 -0.2954 -0.3814 -0.2918
  868MOL0     C17049   7.784   0.850   9.151 -0.0082 -0.2386  0.3631
  868MOL0     C17050   7.699   0.826   9.035  0.4943  0.0470  0.0146
  868MOL0     C17051   7.636   0.936   8.977 -0.6679  0.4085  0.2913
  868MOL0     C17052   7.641   1.063   9.037 -0.8020  0.6406  0.2129
  868MOL0     O17053   7.563   1.162   8.979 -0.4355 -0.7522 -0.1221
  868MOL0     C17054   7.498   1.259   9.062 -1.0962  0.4987 -0.7498
  868MOL0     C17055   7.360   1.288   9.018 -0.0473 -0.6074 -0.0977
  868MOL0     C17056   7.303   1.407   9.100 -0.4703 -0.5263  0.4971
  868MOL0     C17057   7.347   1.543   9.040 -0.2453  0.6022 -0.4395
  868MOL0     C17058   7.292   1.662   9.110 -0.3788 -0.3217  0.6529
  868MOL0     C17059   7.291   1.786   9.018 -1.0268 -0.0528  1.2326
  868MOL0     C17060   7.434   1.816   8.971  0.4600  0.4504  0.4317
  868MOL0     C17061   7.491   1.939   9.051 -0.3564  0.4906  0.3242
  868MOL0     N17062   7.552   1.915   9.185  0.8677  0.4374  0.1833
  868MOL0     C17063   7.517   1.976   9.307  0.2664  0.0897 -0.1630
  868MOL0     C17064   7.602   1.922   9.401 -0.0743 -0.2460 -0.3228
  868MOL0     C17065   7.603   1.972   9.543 -1.3793 -0.0515 -0.5580
  868MOL0     C17066   7.493   1.904   9.611 -0.6355 -0.4433  0.1497
  868MOL0     C17067   7.488   1.904   9.760 -0.3174  0.9199  0.2862
  868MOL0     C17068   7.600   1.824   9.840  0.6754  0.0137 -0.5211
  868MOL0     O17069   7.566   1.688   9.810 -0.0501 -0.3089 -0.4725
  868MOL0     C17070   7.635   1.582   9.861  0.2600 -0.1015 -0.3290
  868MOL0     C17071   7.768   1.583   9.908  0.5032 -0.0510  0.2609
  868MOL0     C17072   7.833   1.463   9.954 -1.3833 -0.0544  0.1938
  868MOL0     C17073   7.980   1.478   9.973  0.1658  0.8607  0.5766
  868MOL0     C17074   7.768   1.343   9.955  1.0178 -0.9920  0.1542
  868MOL0     C17075   7.815   1.210   9.992 -0.6324  0.8205 -0.3948
  868MOL0     O17076   7.719   1.114   9.993  0.0684 -0.0265 -0.1788
  868MOL0     C17077   7.755   0.986  10.015 -0.3595 -0.0520  0.4332
  868MOL0     C17078   7.792   0.950  10.141  0.1854 -0.4539 -0.2324
  868MOL0     C17079   7.823   0.815  10.171  1.1938 -0.9734  0.1010
  868MOL0     C17080   7.808   0.719  10.066 -0.9251 -0.5288  0.4397
  868MOL0     O17081   7.831   0.585  10.106 -0.3567 -0.1280 -0.4117
  868MOL0     C17082   7.780   0.467  10.036 -0.4364 -0.1693 -0.4544
  868MOL0     C17083   7.877   0.394   9.942  0.1602 -0.0682  0.0992
  868MOL0     C17084   7.984   0.330  10.023  0.5482  1.1240  0.4032
  868MOL0     C17085   8.041   0.204   9.952 -1.2137  0.4022 -0.5363
  868MOL0     C17086   8.166   0.134  10.018  0.1964  0.3920  0.5112
  868MOL0     C17087   8.126   0.038  10.133  0.6760 -0.2835  0.3725
  868MOL0     C17088   8.251  -0.025  10.196 -0.5256  0.1892  0.5525
  868MOL0     C17089   8.217  -0.131  10.307  0.5421 -0.4204  0.2021
  868MOL0    Cl17090   8.367  -0.218  10.356  0.1719 -0.4258 -0.0542
  868MOL0     C17091   7.778   0.754   9.935 -0.8638  0.9081 -0.3619
  868MOL0     C17092   7.760   0.892   9.910  0.6684 -0.4240  0.5837
  868MOL0     O17093   7.935   1.193  10.023  0.2343  0.8236  0.2055
  868MOL0     C17094   7.630   1.341   9.914 -0.4737  0.1309  0.5824
  868MOL0     C17095   7.566   1.459   9.880 -0.7860 -0.3002 -0.5788
  868MOL0     N17096   7.679   1.828   9.334 -1.2462 -0.4754  0.0081
  868MOL0     N17097   7.658   1.824   9.207 -0.3764  0.5498 -0.2137
  868MOL0     C17098   7.726   1.078   9.152 -0.2683  0.4024  0.7174
  868MOL0     C17099   7.802   0.973   9.205 -0.2362  1.6564 -0.5262
  868MOL0     C17100   7.925   0.579   9.361 -0.1548  0.2731  1.3292
  868MOL0     C17101   8.049   0.559   9.295 -0.0845 -0.1906 -0.3848
  868MOL0     C17102   8.133   0.456   9.350 -0.1176  0.6470 -0.3945
  868MOL0     C17103   8.098   0.374   9.455  0.4277  0.4812 -0.2482
  868MOL0     O17104   8.180   0.260   9.474  1.0682  0.4300  0.3878
  868MOL0     C17105   8.142   0.152   9.563  0.2284  0.8230  0.7525
  868MOL0     C17106   8.100   0.027   9.478 -1.3808  0.3956  0.4545
  868MOL0     C17107   7.952   0.030   9.414 -0.4494  0.1923  0.3226
  868MOL0     C17108   7.831   0.034   9.510 -0.6549 -0.1608 -0.5604
  868MOL0     C17109   7.706   0.084   9.459  0.6969 -0.1324 -0.0220
  868MOL0     C17110   7.597   0.128   9.415  0.2628 -0.2151  0.4073
  868MOL0     C17111   7.978   0.404   9.523 -0.7826  0.9295  0.3318
  868MOL0     C17112   7.901   0.498   9.470  0.0086 -0.9149 -0.6819
  868MOL0     H17113   7.674   0.729   8.993 -1.7567  1.2096 -1.4853
  868MOL0     H17114   7.557   0.928   8.903 -1.0104 -0.4227  0.7393
  868MOL0     H17115   7.496   1.231   9.167 -0.8567 -0.8843 -1.0850
  868MOL0     H17116   7.556   1.351   9.063 -0.9357  0.3931 -0.1564
  868MOL0     H17117   7.360   1.308   8.910  0.5025 -1.8989 -0.3490
  868MOL0     H17118   7.304   1.194   9.023  0.1414 -0.8100 -1.3326
  868MOL0     H17119   7.195   1.415   9.083 -0.8042 -1.7079  1.8976
  868MOL0     H17120   7.317   1.396   9.208  1.8174 -3.4141  0.0371
  868MOL0     H17121   7.456   1.549   9.046 -0.1682  0.2936 -1.3314
  868MOL0     H17122   7.310   1.542   8.937 -0.6027  0.5619 -0.3129
  868MOL0     H17123   7.193   1.634   9.147  0.1781 -2.9009  0.3918
  868MOL0     H17124   7.338   1.681   9.207  1.2918  0.1041 -0.1861
  868MOL0     H17125   7.235   1.767   8.926  0.8575  0.2952 -0.0425
  868MOL0     H17126   7.235   1.870   9.061 -2.2427  0.9056 -1.9556
  868MOL0     H17127   7.498   1.728   8.985  0.8625  0.7597  0.5387
  868MOL0     H17128   7.441   1.854   8.868  2.1461  0.2022  0.4369
  868MOL0     H17129   7.415   2.016   9.061 -1.6287 -1.0177  3.9731
  868MOL0     H17130   7.572   1.965   8.983  1.1668 -1.6722  1.1950
  868MOL0     H17131   7.458   2.063   9.333 -1.0691 -0.9262  0.3343
  868MOL0     H17132   7.699   1.941   9.586 -2.6453 -0.1578  2.4438
  868MOL0     H17133   7.608   2.081   9.550 -0.6672 -0.1569  0.9752
  868MOL0     H17134   7.502   1.806   9.564 -0.1822 -1.3945  2.1280
  868MOL0     H17135   7.398   1.952   9.582 -1.1826 -2.6013 -2.0184
  868MOL0     H17136   7.389   1.867   9.790  0.4607  0.3536  2.2932
  868MOL0     H17137   7.503   2.008   9.791 -1.7122  0.4950  2.6310
  868MOL0     H17138   7.610   1.842   9.947  0.2001  1.0844 -0.6418
  868MOL0     H17139   7.701   1.844   9.805  1.3115 -0.5473  0.9387
  868MOL0     H17140   7.827   1.670   9.880  0.0379 -0.0141 -0.6196
  868MOL0     H17141   8.010   1.582   9.960  2.0875  0.2552 -0.1602
  868MOL0     H17142   7.999   1.453  10.077 -0.6417  0.7221  0.7000
  868MOL0     H17143   8.034   1.411   9.905 -2.3678 -0.1824 -0.5505
  868MOL0     H17144   7.808   1.027  10.216  2.0945  0.7048 -1.7270
  868MOL0     H17145   7.854   0.779  10.269  0.6867 -0.7676  0.3410
  868MOL0     H17146   7.755   0.393  10.113  0.6104 -1.4105 -1.2595
  868MOL0     H17147   7.692   0.480   9.972  1.8183  1.9119 -3.4259
  868MOL0     H17148   7.808   0.327   9.891  0.6385  0.4593 -1.2709
  868MOL0     H17149   7.920   0.465   9.871 -1.3209  1.1430  0.3583
  868MOL0     H17150   7.940   0.287  10.114  3.1051 -1.5336  0.5584
  868MOL0     H17151   8.061   0.397  10.062  1.7866  0.0175 -0.0386
  868MOL0     H17152   7.968   0.125   9.969 -0.1014 -0.3554  0.9078
  868MOL0     H17153   8.059   0.224   9.846 -0.1502  2.3065 -0.0450
  868MOL0     H17154   8.237   0.209  10.056  1.3716 -0.7033  0.5395
  868MOL0     H17155   8.212   0.070   9.941 -0.9597  0.7490 -0.5133
  868MOL0     H17156   8.078   0.094  10.215  3.5380  2.1391  0.5957
  868MOL0     H17157   8.064  -0.042  10.094  1.2386  0.2719 -1.7883
  868MOL0     H17158   8.308   0.061  10.231 -2.7992  1.6993  0.7485
  868MOL0     H17159   8.300  -0.085  10.119 -0.2803 -2.7430  2.7778
  868MOL0     H17160   8.146  -0.202  10.263 -1.3920  1.2552  0.4251
  868MOL0     H17161   8.181  -0.077  10.395  0.7515  0.5201 -0.2717
  868MOL0     H17162   7.783   0.687   9.850  0.7545 -0.1859  0.5348
  868MOL0     H17163   7.755   0.929   9.808 -0.8052 -1.8026  0.1126
  868MOL0     H17164   7.562   1.258   9.931 -2.0103  1.3633  0.7076
  868MOL0     H17165   7.459   1.457   9.862 -1.1623 -2.1629  1.5105
  868MOL0     H17166   7.722   1.177   9.196 -1.1436  0.7481 -0.1167
  868MOL0     H17167   7.871   0.985   9.288  1.0200  2.1176 -1.6087
  868MOL0     H17168   8.091   0.607   9.207  0.7009 -0.4570 -0.1651
  868MOL0     H17169   8.234   0.454   9.309  0.7840 -0.0795  1.7070
  868MOL0     H17170   8.233   0.124   9.617 -0.8806  1.3651  3.0019
  868MOL0     H17171   8.067   0.160   9.641 -0.6350 -1.6241  0.2336
  868MOL0     H17172   8.125  -0.068   9.526  0.7366  0.8782  0.3740
  868MOL0     H17173   8.175   0.021   9.399 -0.9307  1.4140  0.7930
  868MOL0     H17174   7.940  -0.054   9.345 -1.2181  0.2318  0.3911
  868MOL0     H17175   7.942   0.128   9.367 -1.2175  0.1239  0.3269
  868MOL0     H17176   7.853   0.089   9.601 -0.6290  0.3940 -0.8958
  868MOL0     H17177   7.815  -0.071   9.534 -3.4633  0.1957 -0.5328
  868MOL0     H17178   7.502   0.173   9.395  0.4436  1.7800  3.3326
  868MOL0     H17179   7.946   0.337   9.602  2.5884 -0.7844  0.4158
  868MOL0     H17180   7.808   0.510   9.524  0.4270  0.1077 -0.1648
  869MOL0     O17181   9.511   0.628  10.373  0.3844 -0.0873  0.4895
  869MOL0     C17182   9.472   0.612  10.257  1.3270 -0.8536  0.4852
  869MOL0     O17183   9.381   0.688  10.185 -0.1567 -0.2443 -0.6706
  869MOL0     C17184   9.320   0.779  10.268  0.5888  0.1368 -0.0832
  869MOL0     C17185   9.228   0.753  10.377  0.3269  0.8456  0.2630
  869MOL0     C17186   9.172   0.857  10.457 -0.6740  0.2226  0.0276
  869MOL0     C17187   9.186   0.986  10.426 -0.2589  0.4946  0.1304
  869MOL0     O17188   9.110   1.077  10.491 -0.1606 -0.4714  0.4991
  869MOL0     C17189   9.180   1.193  10.547  1.0539  0.6040  1.2145
  869MOL0     C17190   9.253   1.145  10.667 -0.5096  1.7625 -0.6706
  869MOL0     C17191   9.176   1.053  10.767  2.1591 -0.1046  0.3012
  869MOL0     C17192   9.269   1.018  10.882  0.0578  1.0898  1.1457
  869MOL0     C17193   9.204   1.006  11.026  0.0580  0.4624 -0.7042
  869MOL0     C17194   9.148   1.141  11.073 -0.1764  0.1933 -0.2692
  869MOL0     C17195   9.102   1.144  11.222 -0.4313  0.5513  0.4273
  869MOL0     C17196   9.063   1.282  11.284 -0.1633 -0.2163  0.7870
  869MOL0     N17197   8.967   1.352  11.192 -0.6562 -0.4087  0.3453
  869MOL0     C17198   8.989   1.468  11.124  0.7707  0.0054 -0.8394
  869MOL0     C17199   8.869   1.488  11.072  0.4259 -0.1529  0.7336
  869MOL0     C17200   8.828   1.604  10.987  0.1973  0.2996  0.3100
  869MOL0     C17201   8.730   1.571  10.880  0.2621 -1.0503  0.1996
  869MOL0     C17202   8.766   1.456  10.786  0.3805  0.0058 -0.1087
  869MOL0     C17203   8.907   1.450  10.728  0.4849  0.5825  0.0314
  869MOL0     O17204   8.950   1.576  10.665 -0.3724  0.0544 -1.1599
  869MOL0     C17205   8.895   1.595  10.544  0.2762 -0.6522  0.1628
  869MOL0     C17206   8.901   1.496  10.442  1.0517  0.1567 -0.1200
  869MOL0     C17207   8.842   1.518  10.312  0.1347 -0.3979 -0.4207
  869MOL0     C17208   8.871   1.417  10.205  0.1504  0.5032  0.2475
  869MOL0     C17209   8.766   1.636  10.290  0.6976 -0.0864 -0.2076
  869MOL0     C17210   8.683   1.669  10.165 -0.3246 -0.1236 -0.0832
  869MOL0     O17211   8.591   1.766  10.183  0.2144  0.3329 -0.2037
  869MOL0     C17212   8.479   1.769  10.104 -0.3538 -0.7073  1.0347
  869MOL0     C17213   8.469   1.830   9.979 -0.6980  0.2065  0.5806
  869MOL0     C17214   8.349   1.838   9.904 -0.7667 -0.6375 -0.6449
  869MOL0     C17215   8.239   1.789   9.967  0.3088 -0.6403  0.5102
  869MOL0     O17216   8.115   1.775   9.918 -0.0654 -0.6308  0.4352
  869MOL0     C17217   8.106   1.752   9.775 -0.1245  0.8476  0.3535
  869MOL0     C17218   8.101   1.873   9.693 -0.6251  0.1219  0.5078
  869MOL0     C17219   8.129   1.851   9.536 -0.0981  0.4705  0.6435
  869MOL0     C17220   8.001   1.786   9.460 -0.1530  0.0801  0.1325
  869MOL0     C17221   8.034   1.683   9.349  1.4286 -0.5323  1.3287
  869MOL0     C17222   8.144   1.571   9.375  0.0796 -0.2392  0.5004
  869MOL0     C17223   8.098   1.468   9.485  0.3564 -0.5697  0.1826
  869MOL0     C17224   8.212   1.377   9.520 -0.6927  0.1710  0.0951
  869MOL0    Cl17225   8.224   1.251   9.391  0.2700 -0.4884 -0.2253
  869MOL0     C17226   8.237   1.746  10.095  0.6620 -0.2743 -0.2767
  869MOL0     C17227   8.356   1.726  10.164 -0.2595  0.2629  0.5637
  869MOL0     O17228   8.702   1.616  10.055 -0.0277 -0.0604 -0.1712
  869MOL0     C17229   8.770   1.733  10.390  0.5937  0.7423 -0.1880
  869MOL0     C17230   8.834   1.721  10.514 -0.7557  0.0497  0.1766
  869MOL0     N17231   8.780   1.387  11.098 -0.1490  0.1854 -0.1939
  869MOL0     N17232   8.844   1.301  11.164  0.0368 -0.3123  0.4229
  869MOL0     C17233   9.281   1.019  10.325  0.8078  0.2998 -0.0935
  869MOL0     C17234   9.353   0.922  10.252  0.1322  0.6890 -0.4208
  869MOL0     C17235   9.533   0.507  10.173 -0.4880 -0.0071 -0.6835
  869MOL0     C17236   9.488   0.479  10.041  0.2961 -0.5648  0.1186
  869MOL0     C17237   9.555   0.384   9.967 -0.7627  0.0932 -0.0269
  869MOL0     C17238   9.663   0.307  10.009  0.5323 -0.6862 -1.5548
  869MOL0     O17239   9.714   0.211   9.926  0.5561  0.5465 -0.0087
  869MOL0     C17240   9.849   0.171   9.934  0.6606  0.5547  0.4574
  869MOL0     C17241   9.904   0.172   9.787  0.5534  0.0059 -0.0924
  869MOL0     C17242   9.885   0.315   9.729 -0.2871 -0.6461  0.8677
  869MOL0     C17243   9.945   0.325   9.586  0.2476  0.0959  0.2245
  869MOL0     C17244   9.936   0.460   9.518  0.1444  0.1388 -0.9617
  869MOL0     C17245   9.927   0.570   9.471 -0.3259 -0.8836 -0.2484
  869MOL0     C17246   9.702   0.335  10.140 -0.3864  0.3322 -0.7349
  869MOL0     C17247   9.648   0.439  10.219  0.2515 -0.2882  0.2200
  869MOL0     H17248   9.221   0.650  10.411  2.9102  0.7807  0.7680
  869MOL0     H17249   9.120   0.821  10.545  3.2635 -3.9839  1.0232
  869MOL0     H17250   9.255   1.238  10.481  0.4036  1.2505  0.9046
  869MOL0     H17251   9.116   1.278  10.571  0.3295  0.7575 -1.0153
  869MOL0     H17252   9.331   1.083  10.621 -0.7064  1.5356 -0.7013
  869MOL0     H17253   9.304   1.229  10.714  1.0707 -0.8139  2.6578
  869MOL0     H17254   9.081   1.086  10.809  0.2784 -3.0074 -1.2712
  869MOL0     H17255   9.135   0.957  10.733  2.3481  0.5505 -1.9435
  869MOL0     H17256   9.307   0.918  10.856  0.1070  1.4432 -0.1631
  869MOL0     H17257   9.364   1.072  10.891  0.5124  0.7013 -0.8161
  869MOL0     H17258   9.125   0.930  11.019 -0.3496  0.9870 -2.3979
  869MOL0     H17259   9.272   0.976  11.106  0.4477  1.8859 -0.4735
  869MOL0     H17260   9.221   1.222  11.065 -0.7845  0.8135  0.3246
  869MOL0     H17261   9.067   1.168  11.004 -1.8441 -1.3914  0.9891
  869MOL0     H17262   9.015   1.080  11.236 -2.3050  2.7097 -0.6985
  869MOL0     H17263   9.192   1.111  11.275 -1.3808 -1.5710  0.8011
  869MOL0     H17264   9.152   1.345  11.298 -1.4011  2.0895 -0.9539
  869MOL0     H17265   9.012   1.259  11.378 -2.0717  1.0167  0.1165
  869MOL0     H17266   9.071   1.535  11.147  1.2215 -0.1372 -1.9611
  869MOL0     H17267   8.794   1.688  11.049 -0.7026  0.6626 -0.6523
  869MOL0     H17268   8.915   1.633  10.927 -1.7048  1.3995 -2.0586
  869MOL0     H17269   8.701   1.654  10.815 -0.4604  0.8835  2.8444
  869MOL0     H17270   8.631   1.546  10.920 -0.1310 -1.3048 -0.8890
  869MOL0     H17271   8.697   1.457  10.701  2.1217  1.7893 -1.6078
  869MOL0     H17272   8.758   1.369  10.851 -0.1149  0.6280  0.6867
  869MOL0     H17273   8.929   1.377  10.649  2.3398  2.9957 -1.8426
  869MOL0     H17274   8.959   1.420  10.819  0.8763 -0.3723 -0.4896
  869MOL0     H17275   8.952   1.404  10.470  0.3731  0.8480  4.0111
  869MOL0     H17276   8.921   1.470  10.124  1.1458 -2.3364 -1.1287
  869MOL0     H17277   8.927   1.327  10.232 -2.9358 -1.8775 -0.6207
  869MOL0     H17278   8.780   1.370  10.165  0.2290 -0.0097  0.6600
  869MOL0     H17279   8.548   1.869   9.915 -2.7898 -1.1911 -3.2153
  869MOL0     H17280   8.346   1.871   9.801 -2.1915 -2.0295 -1.0705
  869MOL0     H17281   8.192   1.698   9.736  1.0277  2.8460 -0.0111
  869MOL0     H17282   8.018   1.690   9.755  1.1384 -1.2806  1.1320
  869MOL0     H17283   8.004   1.921   9.704 -0.7351  0.5884 -1.7933
  869MOL0     H17284   8.176   1.946   9.723  1.5410 -0.7289 -2.2782
  869MOL0     H17285   8.216   1.787   9.517 -1.8599 -1.1443 -3.0954
  869MOL0     H17286   8.146   1.952   9.499 -0.3787 -0.0636 -1.0212
  869MOL0     H17287   7.959   1.728   9.542 -2.6446 -1.3388 -2.0082
  869MOL0     H17288   7.935   1.869   9.435  1.8933  1.7687  0.0188
  869MOL0     H17289   8.052   1.745   9.260 -3.5182 -3.8162 -2.5370
  869MOL0     H17290   7.939   1.636   9.322  1.0282  1.2926 -0.6620
  869MOL0     H17291   8.161   1.513   9.284  3.3588 -0.1810  0.9463
  869MOL0     H17292   8.238   1.622   9.400 -0.8920  1.5366  0.6917
  869MOL0     H17293   8.010   1.408   9.460 -0.6095  0.1703  1.6645
  869MOL0     H17294   8.068   1.529   9.570  1.5972  0.1440  0.1261
  869MOL0     H17295   8.192   1.337   9.620  2.1836  0.4831  0.8744
  869MOL0     H17296   8.304   1.436   9.525  0.1348 -1.1088  0.4764
  869MOL0     H17297   8.146   1.711  10.142  1.6991 -2.3004  0.3466
  869MOL0     H17298   8.348   1.691  10.266 -0.6060  1.8803  1.1259
  869MOL0     H17299   8.722   1.829  10.373 -0.9452  0.0933  0.3303
  869MOL0     H17300   8.844   1.813  10.570 -0.6038  0.8244 -1.0670
  869MOL0     H17301   9.283   1.124  10.297  0.7727  0.4385  0.4050
  869MOL0     H17302   9.432   0.933  10.178 -0.4160  0.1634 -1.1054
  869MOL0     H17303   9.405   0.540  10.003  1.6911  3.0899  2.3895
  869MOL0     H17304   9.519   0.367   9.866 -0.1373  0.3326 -0.2963
  869MOL0     H17305   9.912   0.233   9.998  0.2318  2.1127 -0.5738
  869MOL0     H17306   9.838   0.073   9.982 -0.4898  1.3544  1.9157
  869MOL0     H17307   9.841   0.105   9.728  0.4399 -0.5015  0.5954
  869MOL0     H17308  10.009   0.143   9.781  0.9933  1.6717 -1.1630
  869MOL0     H17309   9.932   0.392   9.792  2.5373 -0.3376 -1.4067
  869MOL0     H17310   9.778   0.327   9.711  0.0914  0.2908 -1.1137
  869MOL0     H17311   9.894   0.254   9.520  0.4494  1.8641 -1.9385
  869MOL0     H17312  10.050   0.296   9.593  0.5910  0.4195 -2.6082
  869MOL0     H17313   9.930   0.668   9.427  1.5580 -0.4281  0.7685
  869MOL0     H17314   9.783   0.272  10.174 -1.1194 -1.0514 -1.4643
  869MOL0     H17315   9.695   0.472  10.311  3.7727  2.6705 -2.3049
  870MOL0     O17316   5.895  11.324   0.969  0.9417  0.6010 -0.2130
  870MOL0     C17317   5.998  11.338   1.030 -0.4969  0.4041  1.0583
  870MOL0     O17318   6.049  11.461   1.065 -0.0511  0.3566  1.2312
  870MOL0     C17319   5.974  11.564   1.018  0.0337 -0.1890  0.4486
  870MOL0     C17320   5.969  11.601   0.885  0.8562  1.6444 -0.3000
  870MOL0     C17321   5.877  11.693   0.839 -0.1330  0.1867  0.7398
  870MOL0     C17322   5.789  11.753   0.917  0.2417  0.0185 -0.9515
  870MOL0     O17323   5.704  11.839   0.847 -0.4059 -0.0264  0.8536
  870MOL0     C17324   5.596  11.912   0.914  0.2282  1.1115 -0.3461
  870MOL0     C17325   5.467  11.820   0.928 -0.2212  0.2762 -1.2536
  870MOL0     C17326   5.366  11.883   1.026  0.1958 -0.5941  0.7229
  870MOL0     C17327   5.229  11.824   0.999  0.2774 -0.3533 -0.0639
  870MOL0     C17328   5.129  11.870   1.113 -0.0135 -0.4653  0.0337
  870MOL0     C17329   4.987  11.887   1.069 -1.0350  0.2729  0.9825
  870MOL0     C17330   4.927  11.764   0.997  0.1364 -0.3770 -0.0343
  870MOL0     C17331   4.890  11.664   1.105 -0.1016  0.7636  0.7696
  870MOL0     N17332   4.874  11.522   1.035  0.6917  0.4281 -0.2710
  870MOL0     C17333   4.749  11.467   1.011  0.4075  0.0632 -0.0819
  870MOL0     C17334   4.773  11.336   0.970 -0.3154  0.1890  0.4993
  870MOL0     C17335   4.679  11.237   0.906  0.8642  0.0927  0.0930
  870MOL0     C17336   4.727  11.092   0.904  0.4825  0.4663  0.0761
  870MOL0     C17337   4.631  10.996   0.833  0.0819 -0.0590  0.4294
  870MOL0     C17338   4.691  10.863   0.795  0.4130  0.2869  0.4745
  870MOL0     O17339   4.695  10.774   0.905 -0.0031  0.0246 -0.3560
  870MOL0     C17340   4.767  10.659   0.908  0.9872 -1.5356  0.1780
  870MOL0     C17341   4.849  10.618   0.806  0.0272  0.5361 -0.6536
  870MOL0     C17342   4.912  10.486   0.800  0.3778 -0.6804  0.3833
  870MOL0     C17343   4.997  10.468   0.682  0.1267 -0.4281 -0.8570
  870MOL0     C17344   4.905  10.398   0.908  0.2236  0.1228  0.4157
  870MOL0     C17345   4.984  10.271   0.924 -0.0228 -0.1927  0.0004
  870MOL0     O17346   4.957  10.205   1.033  0.6567 -0.6139 -0.7156
  870MOL0     C17347   5.049  10.133   1.099 -0.8189 -0.4812 -0.1473
  870MOL0     C17348   5.068   9.997   1.076 -0.3714 -0.5646  1.2609
  870MOL0     C17349   5.163   9.916   1.143  0.2863 -0.4670 -0.3804
  870MOL0     C17350   5.231   9.982   1.255 -0.5562  0.7483  0.0107
  870MOL0     O17351   5.321   9.918   1.338  0.2658  0.8796  0.4017
  870MOL0     C17352   5.404   9.822   1.272 -0.9988 -0.3359  0.3097
  870MOL0     C17353   5.530   9.782   1.350  0.5709 -0.0307  0.2002
  870MOL0     C17354   5.643   9.889   1.353  0.4549 -0.2893 -0.0898
  870MOL0     C17355   5.747   9.829   1.438 -0.3176  0.3086  0.5451
  870MOL0     C17356   5.870   9.918   1.452  0.4222 -0.3352  0.1865
  870MOL0     C17357   5.935   9.936   1.318  0.3667 -1.1660  0.1782
  870MOL0     C17358   6.079   9.985   1.325  0.1821  0.3822 -0.3359
  870MOL0     C17359   6.124   9.993   1.181 -0.3207 -0.5476 -0.0432
  870MOL0    Cl17360   6.288  10.048   1.187 -0.0101 -0.0819 -0.5835
  870MOL0     C17361   5.207  10.118   1.283  0.1694  0.3175  0.1462
  870MOL0     C17362   5.111  10.187   1.208 -0.6035 -0.4261  0.0141
  870MOL0     O17363   5.084  10.249   0.852  0.3521  1.3624 -0.3756
  870MOL0     C17364   4.813  10.440   1.008  0.1494 -0.0623 -0.0977
  870MOL0     C17365   4.750  10.567   1.011 -1.0793 -0.0841 -0.1548
  870MOL0     N17366   4.915  11.328   0.960 -0.2922 -0.2200 -0.2388
  870MOL0     N17367   4.968  11.440   0.992  0.0340 -0.2874 -0.4464
  870MOL0     C17368   5.803  11.728   1.057 -0.1116  0.3218 -0.5205
  870MOL0     C17369   5.890  11.634   1.103  0.5522 -0.2024 -1.0269
  870MOL0     C17370   6.075  11.222   1.085  0.3781  0.1040  0.2129
  870MOL0     C17371   6.159  11.234   1.208  0.3724  0.1310 -1.0992
  870MOL0     C17372   6.240  11.134   1.257 -0.4762  0.5184  0.9950
  870MOL0     C17373   6.226  11.004   1.192  0.1411  0.1753 -0.0434
  870MOL0     O17374   6.288  10.883   1.217 -0.3742  0.6692 -1.8397
  870MOL0     C17375   6.414  10.877   1.296  1.0029 -0.8453  0.0406
  870MOL0     C17376   6.479  10.737   1.315  0.2621 -0.0822  0.6426
  870MOL0     C17377   6.501  10.682   1.174  0.6587 -0.6471 -0.3975
  870MOL0     C17378   6.590  10.553   1.182 -0.2223  0.7201  0.0739
  870MOL0     C17379   6.525  10.435   1.239 -0.1927  0.8258  0.4017
  870MOL0     C17380   6.464  10.331   1.281 -0.8394 -0.0100 -0.1184
  870MOL0     C17381   6.136  10.981   1.084 -0.1701 -0.3545  0.6277
  870MOL0     C17382   6.072  11.087   1.031  0.0081 -0.4463  0.4741
  870MOL0     H17383   6.026  11.547   0.809  1.6284  0.7682  0.8628
  870MOL0     H17384   5.872  11.708   0.732 -0.5675  0.2450  0.7673
  870MOL0     H17385   5.631  11.957   1.008  0.1546 -1.1668  0.8559
  870MOL0     H17386   5.576  12.002   0.854  3.9874  1.9109 -0.6971
  870MOL0     H17387   5.419  11.809   0.831 -2.6874 -1.3418  0.0551
  870MOL0     H17388   5.499  11.719   0.955  1.2856  0.3298 -2.6755
  870MOL0     H17389   5.414  11.845   1.117  1.6913  1.7132  0.9707
  870MOL0     H17390   5.364  11.992   1.033  0.4155  0.1574 -5.4239
  870MOL0     H17391   5.195  11.871   0.906  1.0112  0.0666 -0.1231
  870MOL0     H17392   5.233  11.715   0.994  1.3611 -0.2836 -1.5326
  870MOL0     H17393   5.125  11.806   1.202 -0.5322  0.9424  1.0681
  870MOL0     H17394   5.166  11.967   1.149  0.1566  0.2748 -2.0232
  870MOL0     H17395   4.934  11.912   1.161  2.1120 -2.7129  3.9222
  870MOL0     H17396   4.980  11.964   0.992 -0.7046 -1.6210 -1.0465
  870MOL0     H17397   4.841  11.787   0.934  1.1670 -0.8073 -1.6558
  870MOL0     H17398   4.991  11.717   0.922 -2.6802 -2.9294 -1.0379
  870MOL0     H17399   4.801  11.697   1.159 -0.7777 -0.6941  0.5744
  870MOL0     H17400   4.966  11.657   1.183  0.9785 -0.4565 -0.3360
  870MOL0     H17401   4.660  11.528   1.010  0.6095  0.4041 -1.9276
  870MOL0     H17402   4.590  11.241   0.968  0.4628  0.2511 -0.4836
  870MOL0     H17403   4.661  11.269   0.803 -2.9299  0.7391  0.8098
  870MOL0     H17404   4.738  11.057   1.007 -0.5129  0.1793  0.1014
  870MOL0     H17405   4.810  11.077   0.834 -2.8180 -0.7953 -4.0095
  870MOL0     H17406   4.603  11.053   0.744  0.8791  0.9670  0.8153
  870MOL0     H17407   4.538  10.981   0.888  0.9152 -0.4045  1.7910
  870MOL0     H17408   4.783  10.881   0.739 -1.0976  2.3282 -1.5607
  870MOL0     H17409   4.625  10.821   0.718  1.9459 -1.2420 -0.0645
  870MOL0     H17410   4.873  10.676   0.717  2.7831 -1.0372 -1.0642
  870MOL0     H17411   4.981  10.541   0.603  2.5967 -1.0029 -1.9946
  870MOL0     H17412   5.101  10.470   0.715 -0.8895 -0.2352  2.7023
  870MOL0     H17413   4.974  10.366   0.649  2.2240 -2.2031  2.5929
  870MOL0     H17414   5.010   9.947   0.999  0.0445  0.1006  0.5044
  870MOL0     H17415   5.169   9.810   1.124 -0.5763 -0.8189  1.1585
  870MOL0     H17416   5.344   9.735   1.243 -2.4481  0.2656  1.3575
  870MOL0     H17417   5.443   9.861   1.178  1.6591 -0.9308  1.0889
  870MOL0     H17418   5.502   9.752   1.452  0.6466  1.0035  0.5368
  870MOL0     H17419   5.570   9.690   1.306  0.9315  0.9826 -1.6660
  870MOL0     H17420   5.621   9.995   1.371  3.4442  1.4006 -4.5209
  870MOL0     H17421   5.699   9.887   1.259  1.0812  0.0830  0.2701
  870MOL0     H17422   5.697   9.830   1.535 -0.3550  1.5520  0.5414
  870MOL0     H17423   5.766   9.729   1.398  2.3295  0.5229  1.1110
  870MOL0     H17424   5.943   9.871   1.519 -0.5593  0.5508  1.9332
  870MOL0     H17425   5.848  10.021   1.483  1.1944  0.0240 -0.4048
  870MOL0     H17426   5.927   9.839   1.267  0.7612 -1.4562  0.6652
  870MOL0     H17427   5.877  10.013   1.267 -0.8280 -2.3554 -0.3424
  870MOL0     H17428   6.153   9.928   1.382 -0.6646 -1.5518 -1.0810
  870MOL0     H17429   6.064  10.082   1.372 -0.9956  1.0826 -2.0447
  870MOL0     H17430   6.072  10.062   1.114  2.6590 -0.0161 -1.9831
  870MOL0     H17431   6.129   9.899   1.126  4.0382  0.5004 -1.8271
  870MOL0     H17432   5.254  10.162   1.371 -1.0081 -0.1812  1.0377
  870MOL0     H17433   5.088  10.287   1.244  5.1617 -0.4483  5.5206
  870MOL0     H17434   4.784  10.380   1.094  1.1492  0.8043  0.8675
  870MOL0     H17435   4.671  10.587   1.083 -1.9719 -1.1470 -0.8012
  870MOL0     H17436   5.754  11.785   1.136  3.8073  2.0976  0.8888
  870MOL0     H17437   5.888  11.618   1.211  1.4874  1.4058 -0.7370
  870MOL0     H17438   6.158  11.328   1.262 -1.2196  0.4057 -1.5698
  870MOL0     H17439   6.302  11.148   1.345 -0.9969 -0.0686  1.4707
  870MOL0     H17440   6.482  10.956   1.263 -0.4370  0.5894  0.3609
  870MOL0     H17441   6.391  10.916   1.396 -0.1110 -1.1286 -0.0954
  870MOL0     H17442   6.419  10.660   1.364 -2.6915  0.8293 -1.2630
  870MOL0     H17443   6.583  10.751   1.346 -0.2732 -1.2661  3.1471
  870MOL0     H17444   6.556  10.762   1.124  1.3557 -1.2696 -0.6330
  870MOL0     H17445   6.410  10.656   1.118 -0.5299  3.0694 -0.4821
  870MOL0     H17446   6.679  10.573   1.241 -0.9355 -1.5141  2.0242
  870MOL0     H17447   6.613  10.512   1.083  2.0104 -1.3852  1.3643
  870MOL0     H17448   6.412  10.252   1.330 -2.5035  2.0032  1.5475
  870MOL0     H17449   6.122  10.884   1.037 -2.5308 -0.0336  0.5539
  870MOL0     H17450   6.016  11.056   0.943 -0.6685 -2.1568  1.4569
  871MOL0     O17451   9.207   6.111   3.012  0.1634 -0.5047  0.2106
  871MOL0     C17452   9.290   6.173   3.079  0.3326  0.6711  0.0494
  871MOL0     O17453   9.395   6.231   3.029 -0.4250 -0.0447 -0.0327
  871MOL0     C17454   9.406   6.237   2.895  0.5444 -0.4927  0.0947
  871MOL0     C17455   9.417   6.115   2.816 -0.3895  0.1876  0.0521
  871MOL0     C17456   9.444   6.127   2.675 -0.1728 -0.0400 -0.7360
  871MOL0     C17457   9.452   6.250   2.611 -0.5182 -0.4772 -0.0822
  871MOL0     O17458   9.454   6.258   2.471 -0.4321  0.0434  0.0046
  871MOL0     C17459   9.578   6.209   2.424 -0.8402 -0.5948  0.1992
  871MOL0     C17460   9.634   6.309   2.320  0.9315  0.6920  0.1414
  871MOL0     C17461   9.786   6.285   2.283  0.4011 -0.3057 -0.1824
  871MOL0     C17462   9.836   6.394   2.193  0.2818  0.0770 -0.3975
  871MOL0     C17463   9.975   6.383   2.164 -0.7235 -0.4273 -0.3248
  871MOL0     C17464  10.011   6.261   2.070  0.1141 -0.1452 -0.8200
  871MOL0     C17465  10.157   6.268   2.013  0.4891  0.9304 -0.4747
  871MOL0     C17466  10.265   6.252   2.116  0.4605  0.0976 -0.0908
  871MOL0     N17467  10.311   6.116   2.150  0.4799  0.6701  0.3704
  871MOL0     C17468  10.412   6.052   2.087  0.6096 -0.3094 -0.9623
  871MOL0     C17469  10.432   5.934   2.152 -1.0098 -0.2448  0.3694
  871MOL0     C17470  10.517   5.825   2.109  0.2210  0.4787  0.8138
  871MOL0     C17471  10.626   5.850   2.010 -0.1059  0.1978 -0.7267
  871MOL0     C17472  10.670   5.716   1.939  1.0383  0.3375 -0.4600
  871MOL0     C17473  10.777   5.732   1.834 -0.5314  0.2621 -0.3015
  871MOL0     O17474  10.882   5.811   1.878  0.2649  0.3108  0.5628
  871MOL0     C17475  10.974   5.862   1.788  0.1442  0.9447 -1.6271
  871MOL0     C17476  11.052   5.967   1.827 -0.5356  0.8981 -1.2838
  871MOL0     C17477  11.136   6.036   1.740 -0.1650 -0.4171  0.5125
  871MOL0     C17478  11.228   6.145   1.805  0.3631 -0.0530  0.1784
  871MOL0     C17479  11.154   5.986   1.604  0.1987  0.1203  1.2763
  871MOL0     C17480  11.249   6.037   1.506  0.0134 -0.0050  0.7713
  871MOL0     O17481  11.313   5.940   1.434 -0.5772 -0.5054 -0.4240
  871MOL0     C17482  11.404   5.983   1.338  0.2350  0.8326  0.4422
  871MOL0     C17483  11.356   6.022   1.214 -0.2002  0.5779 -0.1691
  871MOL0     C17484  11.437   6.053   1.109  0.0745  0.5378 -1.0148
  871MOL0     C17485  11.581   6.043   1.130  0.1541  0.6261 -0.1453
  871MOL0     O17486  11.654   6.070   1.019  0.0028  0.1862  0.5156
  871MOL0     C17487  11.775   6.010   0.983  0.3514 -0.2824 -0.0031
  871MOL0     C17488  11.892   6.092   1.031  1.0586  0.4751  0.0221
  871MOL0     C17489  12.029   6.033   0.998  0.8744 -0.7417  0.4323
  871MOL0     C17490  12.143   6.102   1.087 -0.5639 -0.7900  0.1609
  871MOL0     C17491  12.276   6.078   1.024  0.0888  0.2336 -0.4021
  871MOL0     C17492  12.380   6.178   1.075  1.2088 -0.1987  0.4621
  871MOL0     C17493  12.389   6.178   1.227  0.3500  0.9265 -0.3582
  871MOL0     C17494  12.444   6.036   1.274  0.2573 -1.2678 -0.4106
  871MOL0    Cl17495  12.610   6.015   1.221 -0.0151  0.2726  0.3476
  871MOL0     C17496  11.629   5.992   1.251  0.0946  0.5526 -0.0174
  871MOL0     C17497  11.541   5.972   1.352  0.5542  0.0561  0.4379
  871MOL0     O17498  11.256   6.162   1.492  0.2067  0.1655 -0.1192
  871MOL0     C17499  11.082   5.872   1.569 -0.0439 -0.2676  0.2265
  871MOL0     C17500  10.990   5.808   1.656 -0.4978  0.1216 -0.8211
  871MOL0     N17501  10.349   5.930   2.265  0.0516 -0.2056  0.0355
  871MOL0     N17502  10.272   6.046   2.257 -0.9530  0.1070 -0.2490
  871MOL0     C17503   9.432   6.363   2.686  0.1859  0.9474  0.2995
  871MOL0     C17504   9.403   6.362   2.826 -0.0737 -0.2706  0.6646
  871MOL0     C17505   9.280   6.169   3.229  0.5146  1.0460 -0.2739
  871MOL0     C17506   9.358   6.253   3.313 -0.4385 -0.5995  0.1486
  871MOL0     C17507   9.333   6.244   3.449  0.6343 -0.6893  0.1790
  871MOL0     C17508   9.251   6.156   3.512  0.1480  0.5555  0.4472
  871MOL0     O17509   9.239   6.141   3.643 -0.3514  0.2498 -0.1905
  871MOL0     C17510   9.337   6.199   3.739 -0.2597 -0.4573  1.1046
  871MOL0     C17511   9.463   6.128   3.732 -0.0689 -0.0166 -0.2272
  871MOL0     C17512   9.475   5.982   3.762  0.4301 -0.2135 -0.3184
  871MOL0     C17513   9.609   5.913   3.741 -1.2789 -0.6827 -0.0251
  871MOL0     C17514   9.694   5.889   3.863  0.3715 -0.2475  0.0487
  871MOL0     C17515   9.781   5.865   3.944 -0.0800  0.2118 -0.4903
  871MOL0     C17516   9.164   6.081   3.429 -0.0384 -0.6920  1.3139
  871MOL0     C17517   9.188   6.076   3.285  0.7196 -0.3380 -0.3842
  871MOL0     H17518   9.428   6.024   2.874  0.4204  0.2815  0.0615
  871MOL0     H17519   9.463   6.030   2.629  0.8322 -1.4608  2.3801
  871MOL0     H17520   9.650   6.202   2.506  2.2096 -1.1208 -2.3332
  871MOL0     H17521   9.570   6.106   2.391  0.2786 -1.1278  1.5084
  871MOL0     H17522   9.565   6.299   2.236 -0.1865  0.3104  1.0815
  871MOL0     H17523   9.622   6.413   2.350  0.5028  0.7918 -0.3484
  871MOL0     H17524   9.842   6.277   2.376 -0.2913  0.5108  0.3169
  871MOL0     H17525   9.788   6.192   2.224 -1.8603  0.1685 -1.1429
  871MOL0     H17526   9.772   6.397   2.104  3.7169 -0.4996 -3.1559
  871MOL0     H17527   9.823   6.483   2.255  2.9367 -1.3557  2.4953
  871MOL0     H17528  10.001   6.476   2.112 -2.2684 -0.6759 -1.6256
  871MOL0     H17529  10.036   6.378   2.254  0.8983 -1.8506 -1.4275
  871MOL0     H17530   9.991   6.170   2.126  1.5476  0.5308  0.8644
  871MOL0     H17531   9.935   6.268   1.992 -1.6757  0.7968  0.9311
  871MOL0     H17532  10.170   6.182   1.946 -3.2666  0.7053 -1.1342
  871MOL0     H17533  10.175   6.358   1.955 -2.0823  1.3498 -0.7466
  871MOL0     H17534  10.220   6.300   2.203 -1.1642 -1.1830 -0.1828
  871MOL0     H17535  10.346   6.322   2.093 -1.7168  2.2196 -1.6743
  871MOL0     H17536  10.467   6.093   2.002  1.1989 -1.5723 -1.2220
  871MOL0     H17537  10.556   5.780   2.201  1.2896 -0.9080 -0.2653
  871MOL0     H17538  10.439   5.761   2.068 -0.9433  1.2229  1.8112
  871MOL0     H17539  10.715   5.887   2.061 -1.0810  0.8125  0.5669
  871MOL0     H17540  10.604   5.934   1.944  0.3478  2.4232  1.8146
  871MOL0     H17541  10.583   5.683   1.881  0.0738 -0.4882  1.3756
  871MOL0     H17542  10.697   5.648   2.019  2.3255 -0.4870 -1.5598
  871MOL0     H17543  10.728   5.768   1.743  1.8892  2.3764 -0.8749
  871MOL0     H17544  10.816   5.631   1.816 -1.2487  0.5276 -4.1623
  871MOL0     H17545  11.032   6.006   1.926 -1.9590 -4.0195  0.6675
  871MOL0     H17546  11.301   6.168   1.727 -1.3708  2.1482 -0.9121
  871MOL0     H17547  11.179   6.240   1.828  1.1717 -0.1355  2.4821
  871MOL0     H17548  11.276   6.106   1.896  3.8434 -0.7498 -1.7717
  871MOL0     H17549  11.249   6.020   1.198 -0.4202 -1.0350  1.2677
  871MOL0     H17550  11.390   6.072   1.013  1.0956  2.1858 -1.2263
  871MOL0     H17551  11.768   5.905   1.012 -1.3892 -0.1456  0.1969
  871MOL0     H17552  11.780   6.012   0.873  3.5548  1.5371  0.0425
  871MOL0     H17553  11.899   6.195   0.994 -2.7575  0.5317 -0.9568
  871MOL0     H17554  11.882   6.084   1.139  0.3795 -4.8812 -0.1515
  871MOL0     H17555  12.033   6.033   0.889 -1.2484 -1.2709  0.3142
  871MOL0     H17556  12.020   5.930   1.033 -0.4714 -0.3798  1.2238
  871MOL0     H17557  12.120   6.209   1.083 -0.9506 -0.9038 -0.8821
  871MOL0     H17558  12.149   6.059   1.188  2.5697  0.9577  0.8467
  871MOL0     H17559  12.273   6.092   0.916  3.8154  4.3718 -0.2289
  871MOL0     H17560  12.301   5.974   1.047  3.0695  0.9558 -0.0396
  871MOL0     H17561  12.474   6.143   1.031  0.1482 -3.7220  0.7348
  871MOL0     H17562  12.350   6.277   1.040  1.2263 -0.2920  0.1808
  871MOL0     H17563  12.290   6.189   1.271 -1.5215 -1.8169 -3.3834
  871MOL0     H17564  12.456   6.257   1.261 -0.7520  1.7829 -0.1233
  871MOL0     H17565  12.375   5.962   1.233 -3.5605  1.1401  1.0874
  871MOL0     H17566  12.443   6.038   1.383  2.5068  0.7416 -0.3439
  871MOL0     H17567  11.735   5.993   1.274 -0.0363  4.0825  0.9464
  871MOL0     H17568  11.595   5.965   1.446  0.3120 -1.9161  0.4753
  871MOL0     H17569  11.085   5.853   1.462 -2.6854  3.0150 -0.6007
  871MOL0     H17570  10.935   5.722   1.618  0.6341 -1.3502  0.6764
  871MOL0     H17571   9.436   6.450   2.621  0.8276  1.2629  0.7467
  871MOL0     H17572   9.396   6.459   2.874 -0.8498 -0.6722  1.3790
  871MOL0     H17573   9.424   6.323   3.263 -3.3371  0.8155 -2.0399
  871MOL0     H17574   9.377   6.331   3.496  1.9844 -0.0724 -2.0992
  871MOL0     H17575   9.340   6.307   3.721  2.2219 -0.8284 -1.3238
  871MOL0     H17576   9.309   6.182   3.843  0.5734 -1.0789  1.2357
  871MOL0     H17577   9.532   6.174   3.803  1.9953 -1.7686 -0.9760
  871MOL0     H17578   9.505   6.152   3.634 -0.5751 -0.3365 -0.5311
  871MOL0     H17579   9.407   5.941   3.687 -1.7142  2.0043  0.2882
  871MOL0     H17580   9.439   5.964   3.864 -3.7119 -0.0372 -1.5909
  871MOL0     H17581   9.662   5.988   3.681 -2.3638  2.2643  2.4222
  871MOL0     H17582   9.603   5.820   3.684  1.0044 -0.0206 -1.4656
  871MOL0     H17583   9.863   5.835   4.006  0.3527  0.3746 -0.9804
  871MOL0     H17584   9.081   6.017   3.460  2.2423 -3.1004  2.8823
  871MOL0     H17585   9.122   6.015   3.225  0.7162 -1.7406  0.9710
  872MOL0     O17586   2.058   5.865   1.145 -0.3994  1.2964  0.0428
  872MOL0     C17587   1.982   5.939   1.090  0.1408 -0.6934  0.4664
  872MOL0     O17588   1.930   5.923   0.963 -0.2884  0.4024  0.8012
  872MOL0     C17589   1.912   5.800   0.906  1.0832 -0.1695 -0.6831
  872MOL0     C17590   1.880   5.804   0.772  0.4791  0.8453  0.1018
  872MOL0     C17591   1.836   5.685   0.711  0.2344  0.3204  0.1061
  872MOL0     C17592   1.825   5.559   0.780 -0.1927 -0.4189 -1.2898
  872MOL0     O17593   1.786   5.451   0.719  0.6686 -0.1210  0.3024
  872MOL0     C17594   1.642   5.458   0.702 -0.4047  0.8862  0.3992
  872MOL0     C17595   1.600   5.326   0.642 -0.6334  0.6983 -0.3538
  872MOL0     C17596   1.451   5.322   0.619  0.5339 -0.1760 -0.2725
  872MOL0     C17597   1.412   5.329   0.470  0.6796  1.0975  0.9112
  872MOL0     C17598   1.258   5.302   0.446 -0.1008 -0.7144 -0.2944
  872MOL0     C17599   1.229   5.313   0.296 -0.3182 -0.2620 -0.0653
  872MOL0     C17600   1.077   5.318   0.261  0.0355 -0.5887 -0.0610
  872MOL0     C17601   0.991   5.413   0.343 -0.0884 -0.0929  0.4741
  872MOL0     N17602   0.861   5.438   0.278 -0.0474  0.4660  0.5782
  872MOL0     C17603   0.782   5.348   0.199  0.3815 -0.0851 -0.3793
  872MOL0     C17604   0.692   5.431   0.148  0.2955 -0.9936  0.3633
  872MOL0     C17605   0.597   5.375   0.043  0.5454  1.4474  0.1450
  872MOL0     C17606   0.499   5.477  -0.019  0.2854  1.0191 -0.0065
  872MOL0     C17607   0.436   5.436  -0.150 -0.3700 -0.1776  0.2130
  872MOL0     C17608   0.318   5.334  -0.142  0.3020  0.2815 -0.6972
  872MOL0     O17609   0.191   5.402  -0.144  0.6885  0.0852  0.6359
  872MOL0     C17610   0.073   5.344  -0.139  0.4093  0.2387 -0.6461
  872MOL0     C17611  -0.040   5.413  -0.102 -1.2238 -0.6064  0.2218
  872MOL0     C17612  -0.171   5.355  -0.086 -0.4536 -0.3983 -0.0083
  872MOL0     C17613  -0.289   5.423  -0.017 -0.0136 -0.4809  0.7485
  872MOL0     C17614  -0.188   5.214  -0.120 -0.3109  0.3528 -0.9471
  872MOL0     C17615  -0.317   5.143  -0.107 -1.1318  0.5553 -0.3052
  872MOL0     O17616  -0.321   5.079   0.007  0.8954 -0.1184  0.4344
  872MOL0     C17617  -0.447   5.031   0.029 -0.6469 -0.6816 -1.5958
  872MOL0     C17618  -0.494   4.912  -0.034 -0.6595 -0.3427  0.1919
  872MOL0     C17619  -0.624   4.870  -0.018 -0.3900  0.6756 -0.5601
  872MOL0     C17620  -0.711   4.936   0.075 -1.9778  0.5653  0.4721
  872MOL0     O17621  -0.837   4.912   0.056 -0.3893 -0.7494 -0.9377
  872MOL0     C17622  -0.924   4.926   0.174 -1.1801  0.6212  0.2543
  872MOL0     C17623  -1.044   4.842   0.123  0.9313  0.1339 -0.3754
  872MOL0     C17624  -1.136   4.797   0.247  0.4396 -0.0041 -0.5314
  872MOL0     C17625  -1.222   4.912   0.296  0.2853 -0.1275 -0.8721
  872MOL0     C17626  -1.342   4.857   0.374 -0.0399  0.0524  0.2724
  872MOL0     C17627  -1.423   4.982   0.427 -0.0008  0.6846  0.4824
  872MOL0     C17628  -1.545   4.954   0.503  0.3612  0.9444  0.2221
  872MOL0     C17629  -1.585   5.084   0.585  0.3567 -0.5073 -0.6374
  872MOL0    Cl17630  -1.570   5.241   0.504  0.0120  0.5266 -0.0755
  872MOL0     C17631  -0.656   5.029   0.156 -0.0758  0.4478  0.1742
  872MOL0     C17632  -0.528   5.083   0.126 -0.6810 -0.1804 -0.7082
  872MOL0     O17633  -0.410   5.180  -0.180  0.8279 -0.3538 -0.5362
  872MOL0     C17634  -0.067   5.146  -0.150  0.1020 -0.2266  0.0629
  872MOL0     C17635   0.061   5.208  -0.155  1.2652  0.2778 -0.5006
  872MOL0     N17636   0.701   5.560   0.199 -0.3949 -0.0871 -0.4077
  872MOL0     N17637   0.803   5.555   0.274 -0.3608 -0.2250 -0.7836
  872MOL0     C17638   1.861   5.560   0.915 -0.9063  0.3270 -0.1263
  872MOL0     C17639   1.909   5.674   0.972  0.4816 -0.1968  0.3559
  872MOL0     C17640   1.953   6.069   1.153  0.0417  0.7831 -0.2631
  872MOL0     C17641   1.891   6.175   1.095  0.7340 -0.9366 -0.1907
  872MOL0     C17642   1.878   6.302   1.149  1.4061  0.1860 -1.4527
  872MOL0     C17643   1.917   6.326   1.275  0.0328  0.1937  0.0713
  872MOL0     O17644   1.901   6.460   1.325  0.4139 -0.0138 -0.3878
  872MOL0     C17645   1.946   6.573   1.239  0.5008 -0.3909  0.1373
  872MOL0     C17646   2.032   6.671   1.318  0.1426 -0.4457  0.4872
  872MOL0     C17647   2.183   6.642   1.310  0.1038 -0.1471  0.7903
  872MOL0     C17648   2.264   6.738   1.395  0.1686  0.1400 -0.0324
  872MOL0     C17649   2.385   6.657   1.433 -0.2688  0.2632  0.2376
  872MOL0     C17650   2.481   6.587   1.456 -0.4239 -0.2004 -0.1747
  872MOL0     C17651   1.977   6.220   1.345 -0.4813 -0.0496  0.0736
  872MOL0     C17652   1.991   6.095   1.287  0.6407 -0.0985  0.5454
  872MOL0     H17653   1.893   5.897   0.718 -5.1380  2.1828  0.4383
  872MOL0     H17654   1.802   5.680   0.608 -0.1098 -0.7208  0.2632
  872MOL0     H17655   1.585   5.478   0.793 -3.2687  2.2614 -1.5629
  872MOL0     H17656   1.609   5.537   0.633 -1.9567  0.4934  0.6590
  872MOL0     H17657   1.655   5.299   0.551  0.5891  1.4229  0.1390
  872MOL0     H17658   1.627   5.247   0.712 -0.5620 -0.0524 -1.2070
  872MOL0     H17659   1.417   5.228   0.663 -1.1998 -0.2602 -1.7017
  872MOL0     H17660   1.411   5.403   0.680 -0.1498 -0.6640 -0.0575
  872MOL0     H17661   1.442   5.426   0.430 -0.2293  0.6955 -0.8387
  872MOL0     H17662   1.461   5.244   0.421 -0.6452  1.1339 -0.5567
  872MOL0     H17663   1.216   5.208   0.482  0.3904 -1.2849 -1.1736
  872MOL0     H17664   1.210   5.383   0.501  0.9061 -1.0718  1.1606
  872MOL0     H17665   1.268   5.408   0.260 -1.8368 -0.4461 -2.4614
  872MOL0     H17666   1.275   5.234   0.236  3.5075  1.8038 -0.1457
  872MOL0     H17667   1.075   5.363   0.162  0.6143  2.9396  1.3852
  872MOL0     H17668   1.036   5.216   0.266  1.2489 -1.2955 -2.8889
  872MOL0     H17669   1.044   5.509   0.350  0.8011 -0.2718 -2.5107
  872MOL0     H17670   0.982   5.355   0.436 -1.7895 -1.5061 -0.5059
  872MOL0     H17671   0.798   5.242   0.182  3.0348 -0.0462  1.4043
  872MOL0     H17672   0.662   5.336  -0.035 -0.9100 -0.3934 -0.2102
  872MOL0     H17673   0.543   5.295   0.095  0.7572 -0.0380 -1.8387
  872MOL0     H17674   0.553   5.570  -0.039 -1.2404  2.0720  0.6084
  872MOL0     H17675   0.408   5.493   0.040 -2.6308  4.0716 -4.6779
  872MOL0     H17676   0.509   5.393  -0.219 -0.9119 -3.4602  1.5001
  872MOL0     H17677   0.380   5.522  -0.188 -2.3965 -0.0069  3.1907
  872MOL0     H17678   0.330   5.276  -0.050 -2.9730 -0.2359 -0.4802
  872MOL0     H17679   0.337   5.270  -0.229 -0.5029 -0.7379 -0.1443
  872MOL0     H17680  -0.033   5.520  -0.081 -1.8909 -0.4641 -0.2481
  872MOL0     H17681  -0.349   5.366   0.055  1.0140  1.8886  3.6692
  872MOL0     H17682  -0.250   5.509   0.036  2.9472 -1.2846  0.0367
  872MOL0     H17683  -0.357   5.462  -0.093 -0.2157 -1.4459  0.4169
  872MOL0     H17684  -0.420   4.859  -0.093  1.2438  1.2267  1.0065
  872MOL0     H17685  -0.661   4.791  -0.083  1.4703  0.8919 -1.9623
  872MOL0     H17686  -0.871   4.867   0.249 -0.9168 -2.1063 -1.9261
  872MOL0     H17687  -0.949   5.026   0.208 -4.0798  0.2115 -0.4485
  872MOL0     H17688  -1.104   4.897   0.049 -0.5233  0.9686  1.3630
  872MOL0     H17689  -1.015   4.740   0.098 -2.4852 -2.1846  3.8915
  872MOL0     H17690  -1.075   4.775   0.336  0.6473  2.0130 -0.1277
  872MOL0     H17691  -1.201   4.710   0.234 -2.5918  1.7250  1.6822
  872MOL0     H17692  -1.165   4.989   0.348 -2.2629  1.5541 -0.4048
  872MOL0     H17693  -1.269   4.955   0.207 -1.9259  1.5706  0.9899
  872MOL0     H17694  -1.310   4.779   0.444 -0.1021 -0.2121  0.0093
  872MOL0     H17695  -1.417   4.812   0.309 -1.6579  1.6574  0.9446
  872MOL0     H17696  -1.353   5.051   0.477  1.4478  0.0970 -0.6599
  872MOL0     H17697  -1.453   5.042   0.341 -0.1766 -0.9393 -0.6317
  872MOL0     H17698  -1.528   4.864   0.563  2.6411 -0.3856 -2.1677
  872MOL0     H17699  -1.625   4.941   0.429  0.7540 -2.3281  0.2195
  872MOL0     H17700  -1.525   5.080   0.676 -0.8735  0.4507  0.2622
  872MOL0     H17701  -1.688   5.083   0.623  0.8528  0.2316  0.7949
  872MOL0     H17702  -0.702   5.081   0.239  3.4474  1.1397  1.8805
  872MOL0     H17703  -0.496   5.165   0.189  0.8919 -0.6776 -0.8175
  872MOL0     H17704  -0.065   5.040  -0.172  4.5055 -0.2707 -0.3420
  872MOL0     H17705   0.147   5.143  -0.167 -1.1787 -3.6710  1.3319
  872MOL0     H17706   1.857   5.468   0.973  1.1708 -0.2386 -0.8008
  872MOL0     H17707   1.922   5.664   1.079  0.5242 -1.3486  0.2553
  872MOL0     H17708   1.856   6.167   0.993 -1.2004 -2.0177  0.4888
  872MOL0     H17709   1.833   6.377   1.084 -0.6766 -2.5663 -3.4587
  872MOL0     H17710   2.006   6.531   1.157  1.0297  1.8249 -0.6740
  872MOL0     H17711   1.864   6.616   1.179  2.8634 -0.3860 -3.3897
  872MOL0     H17712   1.986   6.670   1.417  1.1190 -0.2026  0.9504
  872MOL0     H17713   2.000   6.770   1.286 -2.1848  1.0824  6.2351
  872MOL0     H17714   2.226   6.633   1.210  1.0423  3.3283  0.7579
  872MOL0     H17715   2.188   6.538   1.343 -0.6181 -0.9542 -1.4530
  872MOL0     H17716   2.214   6.770   1.487 -1.9752  5.6631 -2.6960
  872MOL0     H17717   2.298   6.823   1.336  2.9499 -2.5559 -2.7097
  872MOL0     H17718   2.556   6.511   1.470 -1.8020 -1.4134  0.8988
  872MOL0     H17719   2.001   6.243   1.449 -4.1315 -1.0939  1.2703
  872MOL0     H17720   2.052   6.026   1.345  1.0009  2.3374  3.2959
  873MOL0     O17721   4.867   6.471  10.506  0.0310 -0.5816 -0.5547
  873MOL0     C17722   4.954   6.539  10.570  0.0682 -0.3795  0.8381
  873MOL0     O17723   5.003   6.521  10.697  0.0217 -0.1175 -0.4737
  873MOL0     C17724   4.948   6.421  10.776  0.1143 -0.6687  0.2249
  873MOL0     C17725   5.038   6.329  10.841 -0.4047 -0.4020  1.0135
  873MOL0     C17726   4.985   6.240  10.935 -0.4227  0.6721  0.7389
  873MOL0     C17727   4.855   6.228  10.967  0.3959  0.2457  0.3019
  873MOL0     O17728   4.823   6.131  11.059  0.7505  0.3053  0.8242
  873MOL0     C17729   4.824   5.991  11.012 -0.0243 -1.1205  0.9123
  873MOL0     C17730   4.694   5.958  10.928  0.5287  0.2436 -0.3121
  873MOL0     C17731   4.656   5.809  10.928 -0.3448 -0.4098  0.4519
  873MOL0     C17732   4.535   5.799  10.850  0.2912  0.1267  0.7458
  873MOL0     C17733   4.500   5.656  10.815 -0.0501 -0.4195 -0.0232
  873MOL0     C17734   4.369   5.627  10.728  0.0969 -0.1249  0.2906
  873MOL0     C17735   4.333   5.476  10.714  0.2602  0.4649  0.4692
  873MOL0     C17736   4.414   5.396  10.619 -0.3081  0.3814 -1.0301
  873MOL0     N17737   4.406   5.436  10.480  0.8127 -0.3433 -0.6323
  873MOL0     C17738   4.470   5.534  10.417 -0.6871  0.8942  0.0047
  873MOL0     C17739   4.414   5.534  10.292  0.0130  0.5065 -0.8182
  873MOL0     C17740   4.470   5.611  10.183 -0.6988  0.3223  0.5629
  873MOL0     C17741   4.453   5.767  10.206 -0.5566  0.9595 -0.3205
  873MOL0     C17742   4.488   5.844  10.087 -1.2849 -0.2367 -0.2591
  873MOL0     C17743   4.558   5.971  10.127 -0.3024 -0.4644  0.0306
  873MOL0     O17744   4.571   6.050  10.001  0.2424  1.1148 -0.3583
  873MOL0     C17745   4.614   6.182  10.017  0.5763  0.3385  0.4662
  873MOL0     C17746   4.611   6.256  10.138  0.3158  0.4862 -0.2810
  873MOL0     C17747   4.644   6.396  10.138 -0.3404  0.1265 -0.0649
  873MOL0     C17748   4.655   6.469  10.270  0.0546  0.5171 -0.9960
  873MOL0     C17749   4.678   6.455  10.014 -0.1102 -0.5737  0.9288
  873MOL0     C17750   4.714   6.601   9.994 -0.2652  0.7728  1.0478
  873MOL0     O17751   4.670   6.693  10.085  0.6462  0.5775 -0.8200
  873MOL0     C17752   4.713   6.823  10.089  0.5060  0.5548 -0.0657
  873MOL0     C17753   4.625   6.913  10.145 -0.2682  0.0102  0.1773
  873MOL0     C17754   4.655   7.051  10.165  0.7555 -0.6388  0.2786
  873MOL0     C17755   4.764   7.099  10.098 -0.7421 -0.1133  0.4111
  873MOL0     O17756   4.788   7.241  10.086  0.6555  0.6313  0.2986
  873MOL0     C17757   4.900   7.286  10.017  0.6618 -0.0254  0.7662
  873MOL0     C17758   4.906   7.442  10.025  0.5041 -0.0283  0.5971
  873MOL0     C17759   4.956   7.507  10.157  0.1109  0.8105 -0.2704
  873MOL0     C17760   4.854   7.499  10.273  0.4858  0.3335 -0.6296
  873MOL0     C17761   4.724   7.580  10.257  0.3201 -0.6621  1.2445
  873MOL0     C17762   4.653   7.582  10.388  0.9909 -0.3040  0.6687
  873MOL0     C17763   4.539   7.685  10.386 -0.3343 -0.0137  0.0275
  873MOL0     C17764   4.433   7.683  10.277  0.1111 -0.4912  0.3397
  873MOL0    Cl17765   4.318   7.822  10.271 -0.1689 -0.2146 -0.2923
  873MOL0     C17766   4.860   7.002  10.044  0.1944 -0.2520 -1.1249
  873MOL0     C17767   4.834   6.869  10.036 -0.4764  0.8743  1.5148
  873MOL0     O17768   4.790   6.623   9.892  0.3988  0.2159 -0.3495
  873MOL0     C17769   4.683   6.383   9.897 -0.4285  0.2574  0.0080
  873MOL0     C17770   4.653   6.248   9.895 -0.9774  0.1908 -0.5798
  873MOL0     N17771   4.300   5.452  10.287 -0.1665  0.9591  0.6785
  873MOL0     N17772   4.301   5.395  10.405 -0.3067 -0.6742  0.5972
  873MOL0     C17773   4.764   6.306  10.876 -0.3598  0.4156 -0.6682
  873MOL0     C17774   4.807   6.401  10.789  0.1477 -0.7016  0.2595
  873MOL0     C17775   5.016   6.664  10.511 -0.4011  0.6557  0.4200
  873MOL0     C17776   5.149   6.690  10.541 -1.2626 -0.5703 -0.0007
  873MOL0     C17777   5.212   6.806  10.496 -0.6358 -0.6544  0.6620
  873MOL0     C17778   5.145   6.901  10.419  0.7786  0.4661 -0.1032
  873MOL0     O17779   5.188   7.031  10.389  0.0581  0.4665  0.6193
  873MOL0     C17780   5.318   7.088  10.433 -0.4396  0.0437  0.0106
  873MOL0     C17781   5.344   7.235  10.394 -0.1010 -0.0299 -0.5665
  873MOL0     C17782   5.490   7.280  10.414  0.3693  0.9810 -0.2000
  873MOL0     C17783   5.515   7.436  10.375  0.1168 -0.7417  0.0727
  873MOL0     C17784   5.653   7.487  10.409 -0.3831 -0.8130 -0.7495
  873MOL0     C17785   5.763   7.531  10.432 -0.3332 -0.9230  0.3267
  873MOL0     C17786   5.017   6.867  10.376 -0.2121  0.7006  1.0597
  873MOL0     C17787   4.947   6.754  10.420 -0.4622  0.1690  0.0551
  873MOL0     H17788   5.145   6.330  10.825 -0.5214  0.5098  0.1817
  873MOL0     H17789   5.061   6.175  10.978 -0.0949 -0.0467 -0.8471
  873MOL0     H17790   4.916   5.971  10.957 -0.9876  1.1000 -1.7311
  873MOL0     H17791   4.822   5.926  11.100 -2.1516 -1.5794  0.5901
  873MOL0     H17792   4.616   6.021  10.972  0.1388 -1.4260  1.5281
  873MOL0     H17793   4.713   5.996  10.827  3.8555  0.6544  0.3537
  873MOL0     H17794   4.741   5.756  10.884 -0.3240 -0.1470  0.1709
  873MOL0     H17795   4.640   5.778  11.031  1.5772  0.7006  1.1331
  873MOL0     H17796   4.453   5.843  10.907  1.1663  1.9646  0.6557
  873MOL0     H17797   4.546   5.857  10.758  0.6934 -0.6169  0.3097
  873MOL0     H17798   4.585   5.605  10.769 -0.3231 -0.4160 -0.5350
  873MOL0     H17799   4.485   5.607  10.911  0.8273 -2.1053 -0.6996
  873MOL0     H17800   4.283   5.678  10.772  0.4348  0.1461  0.6435
  873MOL0     H17801   4.386   5.662  10.626 -2.2536 -0.1354 -0.1579
  873MOL0     H17802   4.336   5.432  10.814  0.1678  4.6581  2.5136
  873MOL0     H17803   4.229   5.464  10.682  1.8144 -3.0432 -4.5672
  873MOL0     H17804   4.383   5.291  10.628 -0.4927  0.5405  0.2976
  873MOL0     H17805   4.520   5.391  10.645 -0.0086 -0.4846 -2.3240
  873MOL0     H17806   4.560   5.586  10.448 -0.5563  1.4503 -1.2451
  873MOL0     H17807   4.575   5.598  10.158 -0.5814  4.2475 -1.6573
  873MOL0     H17808   4.418   5.569  10.097  0.1765 -0.6920  0.5017
  873MOL0     H17809   4.523   5.797  10.284  2.3825  1.4234 -2.9186
  873MOL0     H17810   4.349   5.792  10.228 -0.6800  0.3107 -0.1533
  873MOL0     H17811   4.395   5.869  10.036 -1.9463  1.5208  1.7139
  873MOL0     H17812   4.563   5.799  10.020  0.3780  2.5312 -0.4320
  873MOL0     H17813   4.657   5.955  10.171  0.2204  1.8448 -0.1555
  873MOL0     H17814   4.498   6.027  10.199 -0.0052 -0.6129  0.3988
  873MOL0     H17815   4.595   6.215  10.237 -1.9960 -0.7495 -1.1118
  873MOL0     H17816   4.756   6.511  10.278  0.0512  0.4676 -0.6754
  873MOL0     H17817   4.606   6.566  10.281 -0.2001  0.3454 -0.6204
  873MOL0     H17818   4.643   6.413  10.363  5.2117  0.2887 -0.1867
  873MOL0     H17819   4.538   6.860  10.182  0.5964 -1.2745  0.4383
  873MOL0     H17820   4.598   7.128  10.215  1.3284 -0.4344  0.6215
  873MOL0     H17821   4.986   7.242  10.069  0.3412 -1.3115  0.2483
  873MOL0     H17822   4.904   7.268   9.909  2.4231 -2.4858  1.1337
  873MOL0     H17823   4.975   7.477   9.948  0.3725 -2.1456 -0.5813
  873MOL0     H17824   4.809   7.486  10.002  2.6752  3.5181 -3.3816
  873MOL0     H17825   4.962   7.613  10.133 -0.3190  0.9280  0.1385
  873MOL0     H17826   5.044   7.453  10.192 -0.3953 -0.9860 -1.6088
  873MOL0     H17827   4.830   7.394  10.291  1.7965 -0.2733 -2.1245
  873MOL0     H17828   4.910   7.531  10.361 -2.1408  2.0811  0.5106
  873MOL0     H17829   4.661   7.527  10.185 -2.6359 -1.0285  3.8780
  873MOL0     H17830   4.740   7.686  10.237 -2.5561 -0.7059 -2.3170
  873MOL0     H17831   4.603   7.487  10.410 -3.5776  1.9898  1.3438
  873MOL0     H17832   4.717   7.610  10.472  0.0182 -0.7196  1.5719
  873MOL0     H17833   4.588   7.780  10.405 -0.3220  0.0404 -0.2656
  873MOL0     H17834   4.477   7.672  10.476 -0.3156 -0.1522  0.0211
  873MOL0     H17835   4.372   7.593  10.277 -0.2423 -0.3159 -1.8992
  873MOL0     H17836   4.493   7.690  10.186  3.2749  1.7546  2.3902
  873MOL0     H17837   4.958   7.038  10.015  0.5013 -2.6086 -3.3910
  873MOL0     H17838   4.911   6.802   9.999 -0.2730  0.9756  1.7533
  873MOL0     H17839   4.721   6.421   9.803  0.6176 -1.9283 -0.5216
  873MOL0     H17840   4.659   6.193   9.802 -1.9586 -0.7741 -0.0954
  873MOL0     H17841   4.657   6.290  10.868 -0.0876 -0.6756 -2.8374
  873MOL0     H17842   4.741   6.457  10.723  0.8988 -1.0722 -0.8307
  873MOL0     H17843   5.207   6.627  10.608 -1.2805  0.4603  1.0284
  873MOL0     H17844   5.317   6.819  10.520 -0.2952 -0.2123 -0.9415
  873MOL0     H17845   5.329   7.084  10.541 -0.3795  1.2508  0.0685
  873MOL0     H17846   5.399   7.047  10.371 -1.9216  0.4331 -2.3234
  873MOL0     H17847   5.270   7.308  10.429  2.2385  2.4562 -0.5216
  873MOL0     H17848   5.354   7.239  10.285  0.5186  3.7671 -0.5071
  873MOL0     H17849   5.558   7.221  10.352  0.2476 -0.6643  1.1795
  873MOL0     H17850   5.525   7.265  10.517 -0.4490  0.5650  0.0267
  873MOL0     H17851   5.449   7.492  10.441 -0.3206 -0.1395 -0.8495
  873MOL0     H17852   5.489   7.438  10.268 -2.2397 -1.5949  0.5777
  873MOL0     H17853   5.862   7.569  10.448 -0.2097 -0.7766 -0.7245
  873MOL0     H17854   4.976   6.924  10.294 -2.2389 -3.7849 -1.4217
  873MOL0     H17855   4.848   6.740  10.378 -0.1252 -0.6419 -0.4865
  874MOL0     O17856  10.474   0.484   6.083 -1.0654  0.3632  0.2278
  874MOL0     C17857  10.475   0.373   6.141 -0.2834 -0.2778 -0.1069
  874MOL0     O17858  10.591   0.307   6.173  0.5676  0.5686  0.4853
  874MOL0     C17859  10.718   0.372   6.139  0.2758  0.0777  0.5515
  874MOL0     C17860  10.791   0.323   6.025 -0.3058 -0.1190 -0.4988
  874MOL0     C17861  10.895   0.395   5.980 -0.6452 -0.9610 -0.6097
  874MOL0     C17862  10.940   0.507   6.037  0.6756 -0.1174 -0.6236
  874MOL0     O17863  11.053   0.574   5.992 -0.1018 -0.2752 -0.5638
  874MOL0     C17864  11.163   0.484   5.970 -0.2301  0.8156  0.6123
  874MOL0     C17865  11.278   0.573   5.954 -0.0076  0.4535 -0.0152
  874MOL0     C17866  11.397   0.506   5.906  0.2000 -0.0031  0.0340
  874MOL0     C17867  11.467   0.430   6.030 -1.2629  0.4567 -0.1428
  874MOL0     C17868  11.596   0.368   5.978  0.7798 -0.2557 -0.0080
  874MOL0     C17869  11.662   0.263   6.073  0.5026  0.2691  0.7720
  874MOL0     C17870  11.570   0.146   6.113  0.4202 -0.3438  0.2869
  874MOL0     C17871  11.647   0.037   6.188 -0.1735 -0.0099 -0.5010
  874MOL0     N17872  11.698   0.067   6.317 -0.5113 -0.3204  0.0087
  874MOL0     C17873  11.829   0.113   6.336  0.1636  0.8735  0.1972
  874MOL0     C17874  11.850   0.093   6.471 -0.4042 -0.5655 -0.0722
  874MOL0     C17875  11.958   0.155   6.548 -0.1177 -0.0023 -0.0404
  874MOL0     C17876  11.950   0.306   6.542 -0.4320 -0.0698 -0.2082
  874MOL0     C17877  12.069   0.380   6.605 -0.3226  1.0051  0.0734
  874MOL0     C17878  12.032   0.530   6.610  0.3793  0.6264 -0.0826
  874MOL0     O17879  12.153   0.598   6.600  0.0027 -0.3304  0.4962
  874MOL0     C17880  12.144   0.734   6.596  0.4745 -0.7226  0.3274
  874MOL0     C17881  12.259   0.807   6.552  0.4215 -0.0581  0.1864
  874MOL0     C17882  12.269   0.937   6.547 -0.3561 -1.1861  1.1029
  874MOL0     C17883  12.405   0.996   6.507 -0.1326  0.0954  0.0638
  874MOL0     C17884  12.157   1.011   6.591 -0.3051 -0.4119 -0.4610
  874MOL0     C17885  12.165   1.162   6.612 -0.0923  0.9848  0.5467
  874MOL0     O17886  12.048   1.232   6.630 -0.5293 -0.2690 -0.2214
  874MOL0     C17887  12.039   1.342   6.710  0.2915 -0.0335  0.4794
  874MOL0     C17888  12.046   1.477   6.664 -0.0062 -0.3462 -0.9257
  874MOL0     C17889  12.042   1.581   6.765 -0.2365  0.7825 -0.4949
  874MOL0     C17890  12.014   1.544   6.902 -0.1562  0.1364  0.2731
  874MOL0     O17891  11.984   1.651   6.982  0.9346 -0.0398 -0.3043
  874MOL0     C17892  12.087   1.675   7.086  0.2252  0.3134  1.3270
  874MOL0     C17893  12.055   1.592   7.212  0.5120  0.0188 -0.5084
  874MOL0     C17894  12.168   1.634   7.311 -0.0003 -0.2417 -0.3066
  874MOL0     C17895  12.115   1.638   7.461 -0.2458 -1.1267 -0.2577
  874MOL0     C17896  12.229   1.661   7.563  0.2062 -0.5759  0.4946
  874MOL0     C17897  12.174   1.707   7.702 -0.7982  0.7113 -0.0769
  874MOL0     C17898  12.140   1.598   7.809 -0.0721 -0.5208  1.0041
  874MOL0     C17899  12.248   1.499   7.838  0.8846  0.9685  0.5491
  874MOL0    Cl17900  12.381   1.587   7.930  0.2959 -0.4562  0.4888
  874MOL0     C17901  12.006   1.411   6.942  0.6134  0.1491  0.4216
  874MOL0     C17902  12.017   1.310   6.842  0.4025  1.5475  0.6227
  874MOL0     O17903  12.271   1.222   6.601  0.4714 -0.0604 -0.1081
  874MOL0     C17904  12.039   0.950   6.631  0.3318  0.2491  0.4945
  874MOL0     C17905  12.032   0.813   6.636 -0.7206  0.2222 -0.5178
  874MOL0     N17906  11.741   0.031   6.520  0.1081  0.4570 -0.5748
  874MOL0     N17907  11.657   0.003   6.428 -0.0816 -0.5526  0.0031
  874MOL0     C17908  10.872   0.557   6.147  0.5484 -1.0614 -0.4475
  874MOL0     C17909  10.771   0.495   6.205  0.6135  0.4762 -0.1601
  874MOL0     C17910  10.347   0.314   6.173  0.1029 -0.0639 -0.4336
  874MOL0     C17911  10.227   0.373   6.129  0.0989 -0.6421  1.2221
  874MOL0     C17912  10.102   0.307   6.160  0.2288 -0.0232  0.5725
  874MOL0     C17913  10.101   0.188   6.216 -0.2088  0.1389  0.2076
  874MOL0     O17914   9.978   0.136   6.212 -0.1314 -0.0909 -0.0085
  874MOL0     C17915   9.962  -0.003   6.238 -0.5171 -0.3209 -0.1133
  874MOL0     C17916   9.993  -0.085   6.108  0.4300 -0.6882 -0.4275
  874MOL0     C17917   9.937  -0.230   6.127  0.5184 -1.1581  0.8430
  874MOL0     C17918   9.928  -0.287   5.987 -0.3180 -0.6596 -0.2405
  874MOL0     C17919   9.888  -0.431   5.983  0.9028 -0.5873  1.2451
  874MOL0     C17920   9.856  -0.543   5.984  0.6301 -0.7031  0.0767
  874MOL0     C17921  10.214   0.120   6.243  0.7118  0.5558 -1.1900
  874MOL0     C17922  10.337   0.184   6.226  0.2538  0.4841 -0.0238
  874MOL0     H17923  10.758   0.235   5.970  0.2897 -0.8822  0.3562
  874MOL0     H17924  10.931   0.358   5.884  1.9362 -0.2934  0.0231
  874MOL0     H17925  11.179   0.418   6.056  0.3770  1.3524  0.9134
  874MOL0     H17926  11.155   0.427   5.877  1.2590 -0.4168  1.1978
  874MOL0     H17927  11.255   0.643   5.873 -0.7785  0.8237  0.5099
  874MOL0     H17928  11.299   0.632   6.044 -0.7384  3.5113 -1.7076
  874MOL0     H17929  11.379   0.444   5.818 -3.1279  0.3679  0.3089
  874MOL0     H17930  11.464   0.591   5.893  2.6573 -1.3089  2.8846
  874MOL0     H17931  11.474   0.503   6.112 -0.4716  2.5148 -1.9588
  874MOL0     H17932  11.401   0.347   6.059  1.3730 -2.7789 -2.5836
  874MOL0     H17933  11.602   0.330   5.875  0.0700 -0.3771 -0.0112
  874MOL0     H17934  11.673   0.443   5.960  1.4275 -1.1898 -1.3399
  874MOL0     H17935  11.759   0.228   6.037 -0.5477 -0.7568 -1.2216
  874MOL0     H17936  11.691   0.318   6.163 -2.8522  2.5130  0.6919
  874MOL0     H17937  11.495   0.197   6.174 -0.7029  0.9611 -2.0851
  874MOL0     H17938  11.519   0.111   6.023  0.4260  2.8722 -1.1018
  874MOL0     H17939  11.732  -0.005   6.133 -1.1534 -2.4890 -0.2846
  874MOL0     H17940  11.579  -0.046   6.211 -0.6531 -0.0283 -1.8566
  874MOL0     H17941  11.889   0.156   6.257  1.3771 -1.1511 -0.0489
  874MOL0     H17942  11.946   0.126   6.653 -0.0350  0.4365  0.0939
  874MOL0     H17943  12.056   0.116   6.517  1.5614  1.0728  3.3509
  874MOL0     H17944  11.862   0.332   6.603  1.1962 -2.1886  3.3641
  874MOL0     H17945  11.932   0.343   6.441  0.8069 -0.1295 -0.4595
  874MOL0     H17946  12.149   0.369   6.532 -0.7974 -1.6870 -0.1217
  874MOL0     H17947  12.110   0.335   6.696 -0.5111 -0.9705 -0.7700
  874MOL0     H17948  11.982   0.547   6.706 -3.6260  4.4392 -2.4696
  874MOL0     H17949  11.963   0.561   6.531  0.0705 -0.2359 -0.1714
  874MOL0     H17950  12.336   0.740   6.515  1.8874  1.1499  0.9575
  874MOL0     H17951  12.388   1.067   6.425  0.8025 -1.4920 -1.5903
  874MOL0     H17952  12.446   1.058   6.587  4.5652  0.0071 -1.9689
  874MOL0     H17953  12.483   0.923   6.481 -0.5629 -0.8584  1.3198
  874MOL0     H17954  12.043   1.502   6.559 -0.5424  2.6914 -0.2890
  874MOL0     H17955  12.040   1.685   6.736 -3.1875  0.8355 -0.3890
  874MOL0     H17956  12.183   1.636   7.050 -0.0179  0.1602  0.8508
  874MOL0     H17957  12.077   1.779   7.119  0.3017  0.4345  0.9626
  874MOL0     H17958  11.967   1.628   7.266  1.2688 -1.0549  1.5674
  874MOL0     H17959  12.064   1.484   7.195  0.1933  0.1425 -1.4866
  874MOL0     H17960  12.213   1.731   7.288 -0.8690 -0.5759 -3.9558
  874MOL0     H17961  12.256   1.571   7.300  2.6870  3.2852 -0.8734
  874MOL0     H17962  12.057   1.730   7.453  2.2004  0.5918  0.4746
  874MOL0     H17963  12.051   1.552   7.484 -0.3915 -0.2907  2.8085
  874MOL0     H17964  12.283   1.742   7.514 -2.3786  1.1758  0.3109
  874MOL0     H17965  12.313   1.592   7.569 -0.2173 -1.1286  0.0442
  874MOL0     H17966  12.245   1.775   7.749 -0.4654  0.6813 -0.5242
  874MOL0     H17967  12.083   1.765   7.688 -3.0539 -2.2924  1.1114
  874MOL0     H17968  12.041   1.555   7.793 -1.5654  2.6247  0.9445
  874MOL0     H17969  12.118   1.648   7.903 -1.1479  1.8041 -0.3874
  874MOL0     H17970  12.277   1.436   7.753  0.0866 -0.0647  1.0162
  874MOL0     H17971  12.205   1.422   7.902  1.5709  0.2794  0.2003
  874MOL0     H17972  11.976   1.379   7.041 -0.0101 -2.3409 -0.5041
  874MOL0     H17973  12.004   1.208   6.878  0.3309  1.6911  1.0141
  874MOL0     H17974  11.958   1.008   6.672  1.3331  1.7322  0.4435
  874MOL0     H17975  11.945   0.773   6.688 -0.1161  0.5556  0.7917
  874MOL0     H17976  10.889   0.658   6.184 -3.3607 -0.0185 -1.0408
  874MOL0     H17977  10.712   0.547   6.281  1.0853  3.4066 -1.6740
  874MOL0     H17978  10.218   0.461   6.065 -0.9597 -0.0585  2.1386
  874MOL0     H17979  10.010   0.350   6.123 -0.0122 -0.0261  1.1607
  874MOL0     H17980  10.016  -0.032   6.329 -1.9535  0.4300  1.0193
  874MOL0     H17981   9.856  -0.013   6.264 -0.7330  1.7171 -0.0079
  874MOL0     H17982  10.098  -0.102   6.082  0.3145  0.1214 -1.4615
  874MOL0     H17983   9.956  -0.030   6.021  4.2727  2.4432 -0.3869
  874MOL0     H17984   9.841  -0.216   6.177  0.5265  0.4522  0.4386
  874MOL0     H17985  10.016  -0.288   6.175  2.3761  0.9195  0.4285
  874MOL0     H17986  10.031  -0.284   5.952  0.0715 -0.7486  0.8519
  874MOL0     H17987   9.869  -0.215   5.930  2.6665  2.0102 -0.1726
  874MOL0     H17988   9.817  -0.643   5.973  0.9346 -0.9438  1.0820
  874MOL0     H17989  10.208   0.021   6.288 -1.9425  2.4299  3.1612
  874MOL0     H17990  10.423   0.134   6.269  1.3043  2.4215  0.2635
  875MOL0     O17991  10.764   9.240  11.212 -0.1947  0.5522 -0.3516
  875MOL0     C17992  10.759   9.365  11.216  1.2514  0.5277 -0.4038
  875MOL0     O17993  10.664   9.441  11.142 -0.3728  0.2654  0.5042
  875MOL0     C17994  10.604   9.362  11.039 -0.0045 -1.5023 -0.4451
  875MOL0     C17995  10.508   9.268  11.064 -0.0075  0.7538 -0.2080
  875MOL0     C17996  10.443   9.201  10.956  0.1071 -0.2341  0.2562
  875MOL0     C17997  10.474   9.233  10.825  0.6358 -0.5266 -0.5918
  875MOL0     O17998  10.413   9.183  10.715  0.6647  1.0496  1.2882
  875MOL0     C17999  10.276   9.142  10.723 -0.1027 -0.5741 -0.2917
  875MOL0     C18000  10.268   8.979  10.731  0.0959 -0.5381  0.9345
  875MOL0     C18001  10.122   8.934  10.741 -0.2271 -0.4186 -0.5181
  875MOL0     C18002  10.115   8.789  10.716 -0.4821 -0.2355  0.9328
  875MOL0     C18003  10.085   8.748  10.569  0.0977 -0.2271 -0.1432
  875MOL0     C18004  10.074   8.599  10.545 -0.3670  0.2466 -0.0378
  875MOL0     C18005  10.185   8.512  10.608 -0.7539 -0.1978 -1.1328
  875MOL0     C18006  10.189   8.363  10.569  0.4797 -0.3164 -1.1766
  875MOL0     N18007  10.226   8.351  10.425 -0.5940 -0.3046 -0.3875
  875MOL0     C18008  10.338   8.407  10.368 -0.9038 -0.3895  0.1081
  875MOL0     C18009  10.339   8.373  10.238  0.3025  0.5096  0.2136
  875MOL0     C18010  10.411   8.431  10.129 -0.1276 -0.7049 -0.0758
  875MOL0     C18011  10.549   8.355  10.105 -0.9046  0.6561 -0.2174
  875MOL0     C18012  10.550   8.202  10.074 -0.5413 -0.1339  0.5899
  875MOL0     C18013  10.677   8.164   9.990 -0.6713  0.3213  0.4654
  875MOL0     O18014  10.793   8.209  10.062 -0.2308 -0.5424  0.2626
  875MOL0     C18015  10.917   8.208  10.001 -0.4409  0.0507 -0.4473
  875MOL0     C18016  10.936   8.147   9.877 -0.7010  0.6440  0.3390
  875MOL0     C18017  11.061   8.156   9.813  0.6444  0.5999 -0.1381
  875MOL0     C18018  11.063   8.094   9.675 -0.2044 -0.1563 -0.5134
  875MOL0     C18019  11.168   8.217   9.880  0.5451  0.0692 -0.1010
  875MOL0     C18020  11.307   8.219   9.834  0.0861  0.3297  0.1709
  875MOL0     O18021  11.406   8.226   9.938 -0.0201  0.5270  0.9554
  875MOL0     C18022  11.537   8.256   9.916  0.0808  0.7627 -0.4342
  875MOL0     C18023  11.599   8.348   9.994 -0.1550  0.9957 -0.0708
  875MOL0     C18024  11.742   8.372   9.996  0.0029  0.4282 -0.3578
  875MOL0     C18025  11.824   8.299   9.912 -0.5425 -0.0887  0.1064
  875MOL0     O18026  11.961   8.332   9.922  0.5582 -0.8503 -0.5562
  875MOL0     C18027  12.048   8.265   9.828 -0.2630  0.5523  0.0990
  875MOL0     C18028  12.051   8.336   9.694 -0.1334 -0.1481  0.2424
  875MOL0     C18029  12.125   8.469   9.709 -0.1538  0.8952  0.8064
  875MOL0     C18030  12.088   8.592   9.627 -0.1110  0.9313  0.3494
  875MOL0     C18031  12.195   8.702   9.629 -0.9211  0.0942  0.6912
  875MOL0     C18032  12.114   8.828   9.603 -0.0323  1.0659  0.6198
  875MOL0     C18033  12.192   8.960   9.614 -0.3699  0.7789  0.5561
  875MOL0     C18034  12.117   9.090   9.561 -0.1978 -0.0366  0.8808
  875MOL0    Cl18035  12.103   9.107   9.385 -0.2386 -0.4015 -0.3465
  875MOL0     C18036  11.762   8.213   9.813  0.2907 -0.6311 -0.1264
  875MOL0     C18037  11.620   8.192   9.822  0.2124  1.2756  0.0216
  875MOL0     O18038  11.331   8.241   9.714  0.0051 -0.2982  0.6840
  875MOL0     C18039  11.146   8.282  10.004 -0.2298 -0.1167 -0.0309
  875MOL0     C18040  11.015   8.283  10.058 -0.8087 -0.0997  0.3648
  875MOL0     N18041  10.227   8.298  10.213 -0.0665  0.5673  0.2807
  875MOL0     N18042  10.165   8.282  10.326  0.5056 -0.6073  0.3027
  875MOL0     C18043  10.583   9.317  10.804 -0.5943 -0.1722 -0.3247
  875MOL0     C18044  10.638   9.390  10.905 -1.3280  0.3618  0.0096
  875MOL0     C18045  10.876   9.429  11.276 -0.1843 -0.0482  0.1340
  875MOL0     C18046  10.880   9.566  11.258  0.3885  0.2919 -0.3619
  875MOL0     C18047  10.992   9.638  11.291 -0.2649  0.3789  0.3601
  875MOL0     C18048  11.103   9.571  11.340  0.1002  0.2952  0.3804
  875MOL0     O18049  11.218   9.647  11.380 -0.0364  0.4535  0.1541
  875MOL0     C18050  11.221   9.785  11.346 -0.4697  0.0136  0.0278
  875MOL0     C18051  11.350   9.850  11.386  0.6027 -0.1293  0.2193
  875MOL0     C18052  11.479   9.795  11.312  0.0597 -0.0153 -0.2866
  875MOL0     C18053  11.609   9.833  11.378  1.8506 -1.1782 -0.4742
  875MOL0     C18054  11.723   9.752  11.349  0.4382 -0.3733 -0.1366
  875MOL0     C18055  11.812   9.669  11.327 -0.2633 -0.0207  0.1005
  875MOL0     C18056  11.095   9.436  11.361  0.0795 -0.2340 -0.3894
  875MOL0     C18057  10.982   9.357  11.326  0.0652  0.0045 -0.7006
  875MOL0     H18058  10.479   9.256  11.168 -0.0191 -0.3480 -0.3228
  875MOL0     H18059  10.356   9.140  10.979 -1.1642  1.7160  0.9117
  875MOL0     H18060  10.239   9.177  10.820  4.0539 -1.3142  1.7809
  875MOL0     H18061  10.218   9.192  10.645 -0.1707 -0.4208 -0.1450
  875MOL0     H18062  10.320   8.943  10.641  0.9018 -0.6303  1.4221
  875MOL0     H18063  10.333   8.934  10.807  1.0919 -2.2879 -0.8434
  875MOL0     H18064  10.097   8.958  10.844 -2.0775 -0.8002 -0.8402
  875MOL0     H18065  10.050   8.986  10.676  2.1884  1.9803 -1.4968
  875MOL0     H18066  10.210   8.743  10.744 -0.5144 -0.1616  1.1620
  875MOL0     H18067  10.046   8.737  10.783 -0.5225 -1.1332  0.2191
  875MOL0     H18068   9.990   8.793  10.540 -0.3465 -1.0302  0.0406
  875MOL0     H18069  10.162   8.791  10.504  1.2769  0.2072  1.4780
  875MOL0     H18070   9.979   8.569  10.590 -1.0500  1.3452 -0.6933
  875MOL0     H18071  10.068   8.581  10.437 -0.1158  0.3334 -0.0686
  875MOL0     H18072  10.280   8.562  10.588  0.2304 -1.1056  1.0269
  875MOL0     H18073  10.161   8.521  10.714  3.2233  0.2629 -0.1155
  875MOL0     H18074  10.086   8.341  10.598  1.1139  0.1144  1.6656
  875MOL0     H18075  10.254   8.303  10.633  1.9714  0.2896 -2.0813
  875MOL0     H18076  10.419   8.467  10.410 -0.6924  0.4872 -1.4665
  875MOL0     H18077  10.350   8.443  10.039 -0.8360 -0.5358  0.4233
  875MOL0     H18078  10.438   8.533  10.158  0.6195 -0.9899  0.2470
  875MOL0     H18079  10.605   8.366  10.198 -2.1178 -2.4673  1.0100
  875MOL0     H18080  10.604   8.406  10.025  2.8834  1.9463  2.8934
  875MOL0     H18081  10.459   8.181  10.017  0.4733 -2.5706 -0.2482
  875MOL0     H18082  10.552   8.133  10.158  0.3690 -0.2698  0.4622
  875MOL0     H18083  10.667   8.212   9.892  1.0301  0.7110  0.4605
  875MOL0     H18084  10.686   8.058   9.964 -2.9976  0.7854 -2.9057
  875MOL0     H18085  10.868   8.072   9.840 -0.5256  0.0168  1.2572
  875MOL0     H18086  11.101   8.167   9.603 -0.6793  0.1907 -0.4191
  875MOL0     H18087  11.123   8.003   9.679  0.1895  0.1379  0.8306
  875MOL0     H18088  10.958   8.071   9.653 -1.2087  0.6329  2.8377
  875MOL0     H18089  11.531   8.401  10.061 -1.7043  0.2708 -1.0243
  875MOL0     H18090  11.776   8.447  10.066 -3.7100 -0.6345  2.9821
  875MOL0     H18091  12.153   8.268   9.860 -0.0579  0.3254 -0.5270
  875MOL0     H18092  12.018   8.161   9.817  0.1002  0.1060  2.6446
  875MOL0     H18093  12.108   8.274   9.625 -2.0722 -1.1944 -0.4932
  875MOL0     H18094  11.948   8.344   9.657 -0.6569 -1.6494  1.2640
  875MOL0     H18095  12.230   8.444   9.688 -0.7245 -2.2506  1.1659
  875MOL0     H18096  12.116   8.509   9.810  0.2079  1.4117  0.6401
  875MOL0     H18097  12.055   8.557   9.529 -1.9562 -4.9182  2.6222
  875MOL0     H18098  12.000   8.619   9.687  0.8221  1.2641  1.6074
  875MOL0     H18099  12.271   8.679   9.553  2.7833 -1.6192  4.4852
  875MOL0     H18100  12.244   8.708   9.727  3.1788 -1.1823 -1.0734
  875MOL0     H18101  12.077   8.837   9.501  1.4106  2.8508  0.1856
  875MOL0     H18102  12.037   8.822   9.680 -1.1593  1.1210 -0.4770
  875MOL0     H18103  12.292   8.951   9.571  0.1354  2.0009  1.4165
  875MOL0     H18104  12.200   8.958   9.723 -1.3249 -3.7955  0.7581
  875MOL0     H18105  12.144   9.175   9.624 -4.3711  1.0366  1.4893
  875MOL0     H18106  12.013   9.074   9.590 -1.1609 -0.0703 -2.2203
  875MOL0     H18107  11.808   8.141   9.746  0.4827  0.9430 -1.7421
  875MOL0     H18108  11.571   8.115   9.763  3.3053  1.1644 -2.6830
  875MOL0     H18109  11.233   8.338  10.038  0.0166  1.1928 -2.5009
  875MOL0     H18110  11.000   8.340  10.150 -2.2743  1.8688 -1.0107
  875MOL0     H18111  10.608   9.322  10.699  0.4785 -3.1222 -0.2991
  875MOL0     H18112  10.720   9.462  10.907 -1.2153  0.2259  1.2864
  875MOL0     H18113  10.803   9.626  11.210  3.2783  2.3373 -2.8092
  875MOL0     H18114  10.985   9.745  11.272 -1.5127  0.2590  0.0519
  875MOL0     H18115  11.218   9.808  11.239 -0.9827 -0.7080 -0.1149
  875MOL0     H18116  11.151   9.848  11.402 -0.7688  1.4987 -1.8830
  875MOL0     H18117  11.359   9.831  11.494 -1.7108  0.3790  0.5512
  875MOL0     H18118  11.340   9.959  11.376  0.3782 -0.0576  1.1339
  875MOL0     H18119  11.500   9.832  11.211  0.2298  0.6067 -0.0244
  875MOL0     H18120  11.467   9.686  11.308  1.4598 -0.3958  2.7862
  875MOL0     H18121  11.586   9.812  11.483  3.0182  2.1654  0.5729
  875MOL0     H18122  11.628   9.939  11.363  0.1929 -0.6392  0.9719
  875MOL0     H18123  11.891   9.598  11.312  1.2187  0.8275  3.1662
  875MOL0     H18124  11.183   9.387  11.401 -1.8391 -3.1192  0.5786
  875MOL0     H18125  10.978   9.249  11.336  2.8974  0.0119  2.5230
  876MOL0     O18126   3.625   5.410  10.986 -0.7731  0.0571  0.7218
  876MOL0     C18127   3.513   5.410  11.027 -0.1161 -0.6529 -1.3497
  876MOL0     O18128   3.470   5.466  11.148  0.4632  0.3457  0.1151
  876MOL0     C18129   3.553   5.499  11.250  0.2739 -0.4910  0.4149
  876MOL0     C18130   3.690   5.462  11.261  0.2724 -0.5259 -0.3266
  876MOL0     C18131   3.766   5.523  11.357 -0.2310  0.2906  0.7511
  876MOL0     C18132   3.721   5.622  11.444  0.2000  0.7867 -0.3480
  876MOL0     O18133   3.789   5.700  11.536 -0.6186  0.1142 -0.7200
  876MOL0     C18134   3.927   5.669  11.542  0.0828 -0.4003 -0.6517
  876MOL0     C18135   3.987   5.757  11.663 -0.4997 -0.2114  0.1281
  876MOL0     C18136   3.963   5.702  11.800  0.1865  0.6599 -0.6997
  876MOL0     C18137   4.004   5.797  11.910  1.3741  0.1055 -1.0239
  876MOL0     C18138   4.036   5.725  12.041  0.5704  0.2545 -0.1045
  876MOL0     C18139   4.186   5.692  12.065  0.4097 -0.5182 -0.0528
  876MOL0     C18140   4.278   5.804  12.110 -0.3096 -0.3404 -1.1856
  876MOL0     C18141   4.427   5.776  12.098  0.9500 -0.4878  1.0600
  876MOL0     N18142   4.511   5.862  12.180  0.6246 -0.0328  0.2865
  876MOL0     C18143   4.500   6.002  12.198 -0.1059  1.2968 -0.0279
  876MOL0     C18144   4.599   6.031  12.289  1.1975 -0.1474 -0.4907
  876MOL0     C18145   4.664   6.165  12.323 -0.2075 -0.6797 -0.4071
  876MOL0     C18146   4.577   6.277  12.388  0.2589  0.4652 -0.0773
  876MOL0     C18147   4.495   6.227  12.502  0.1437 -0.2954  1.5953
  876MOL0     C18148   4.572   6.145  12.610  0.5147 -0.4851  0.3865
  876MOL0     O18149   4.656   6.236  12.685  0.2160 -0.1673 -0.3544
  876MOL0     C18150   4.678   6.215  12.818  0.2453  0.8732 -0.5246
  876MOL0     C18151   4.684   6.323  12.913  0.3042  0.3842  0.2938
  876MOL0     C18152   4.719   6.288  13.044  0.1706 -0.3180  0.2858
  876MOL0     C18153   4.755   6.405  13.134  0.2389  0.3551  0.3361
  876MOL0     C18154   4.739   6.149  13.083  0.6041 -0.5649 -0.6788
  876MOL0     C18155   4.774   6.110  13.223 -0.7699 -0.7582 -0.6350
  876MOL0     O18156   4.800   5.980  13.242 -0.0602 -0.5617  0.9506
  876MOL0     C18157   4.809   5.931  13.364  0.0994 -0.1171 -0.4363
  876MOL0     C18158   4.914   5.980  13.453  0.2252 -0.0116 -0.3389
  876MOL0     C18159   4.945   5.913  13.569  0.2620  0.2513  0.4794
  876MOL0     C18160   4.871   5.800  13.607 -0.9529  0.7011 -0.0441
  876MOL0     O18161   4.888   5.730  13.729 -0.2301 -0.4797  0.1132
  876MOL0     C18162   4.998   5.641  13.735 -0.6946  0.2443  0.3888
  876MOL0     C18163   4.989   5.502  13.672  0.1253  1.2083 -0.9382
  876MOL0     C18164   4.887   5.403  13.736  0.7832  0.1647 -0.1594
  876MOL0     C18165   4.920   5.260  13.706  0.5946  0.3455  0.5278
  876MOL0     C18166   4.843   5.145  13.776 -0.7707 -0.7290  0.7035
  876MOL0     C18167   4.832   5.012  13.690  0.3625  0.2684  0.3450
  876MOL0     C18168   4.752   4.900  13.745  0.4291  0.2188  0.2916
  876MOL0     C18169   4.818   4.827  13.861 -0.6745 -0.2770  0.3431
  876MOL0    Cl18170   4.712   4.721  13.944  0.5818  0.0576  0.0091
  876MOL0     C18171   4.775   5.747  13.517 -0.5089 -0.2205 -0.6692
  876MOL0     C18172   4.743   5.819  13.405  0.7554 -0.3390 -0.2844
  876MOL0     O18173   4.773   6.190  13.315  0.3101 -0.1351 -0.5680
  876MOL0     C18174   4.722   6.047  12.994 -0.4540 -0.0144  1.1192
  876MOL0     C18175   4.703   6.079  12.861  0.4785 -0.7534 -0.4092
  876MOL0     N18176   4.658   5.910  12.320 -0.2552 -0.2967 -1.0966
  876MOL0     N18177   4.608   5.808  12.260 -1.1561 -0.4192  0.4206
  876MOL0     C18178   3.588   5.662  11.425  0.1703 -0.7152  0.5888
  876MOL0     C18179   3.502   5.594  11.332  0.7148 -0.2091 -0.6438
  876MOL0     C18180   3.407   5.348  10.949 -0.8381  0.0540 -0.3711
  876MOL0     C18181   3.438   5.258  10.848  0.0584 -0.2425  0.0382
  876MOL0     C18182   3.335   5.179  10.787 -0.0033  0.3348 -0.0724
  876MOL0     C18183   3.202   5.190  10.824  0.0153 -0.4601  0.3349
  876MOL0     O18184   3.108   5.123  10.756 -0.1671  0.3166 -0.0789
  876MOL0     C18185   2.971   5.118  10.794 -0.0545  0.5548 -0.9505
  876MOL0     C18186   2.870   5.216  10.741  0.1853  1.1846 -0.6133
  876MOL0     C18187   2.884   5.253  10.593 -1.2494  0.8528 -0.0997
  876MOL0     C18188   2.792   5.369  10.558 -0.1112 -0.6416  0.1305
  876MOL0     C18189   2.818   5.441  10.428  0.5963  0.0422 -0.2060
  876MOL0     C18190   2.861   5.506  10.332  0.2291  0.7986  0.0169
  876MOL0     C18191   3.162   5.291  10.925 -0.2795  0.3147  0.7145
  876MOL0     C18192   3.264   5.377  10.975 -1.5576  0.2211  0.3334
  876MOL0     H18193   3.732   5.383  11.199  0.3710  0.0029 -0.9458
  876MOL0     H18194   3.872   5.500  11.364  0.1070  2.0723  2.3381
  876MOL0     H18195   3.939   5.561  11.559  3.1514  0.0694  0.9445
  876MOL0     H18196   3.965   5.702  11.444 -0.4816  0.6690 -0.5229
  876MOL0     H18197   4.090   5.786  11.642 -0.2365 -1.7042 -0.8419
  876MOL0     H18198   3.952   5.860  11.668  1.6369  0.5725 -0.1148
  876MOL0     H18199   3.856   5.683  11.807  0.6731 -2.6968 -0.4566
  876MOL0     H18200   4.008   5.603  11.814  0.0762  0.5807 -0.8855
  876MOL0     H18201   4.085   5.862  11.875 -0.5490  3.4002  0.2334
  876MOL0     H18202   3.911   5.854  11.919  1.6501  0.3689  0.3849
  876MOL0     H18203   4.011   5.790  12.125  0.6702 -1.1175  1.0384
  876MOL0     H18204   3.982   5.632  12.062 -0.3472  0.9079  0.5316
  876MOL0     H18205   4.191   5.610  12.137 -1.5942 -1.0575 -0.4887
  876MOL0     H18206   4.235   5.661  11.972 -0.2086  1.7120 -1.1990
  876MOL0     H18207   4.258   5.898  12.059 -2.0002  2.0028  3.2184
  876MOL0     H18208   4.251   5.820  12.215 -3.9345  0.8376 -2.1620
  876MOL0     H18209   4.462   5.789  11.995  1.0823 -1.9369  0.9020
  876MOL0     H18210   4.441   5.670  12.121  0.4676 -0.8487 -0.2581
  876MOL0     H18211   4.443   6.073  12.140  1.8457  2.0273 -1.1649
  876MOL0     H18212   4.750   6.159  12.390 -1.4709  1.9913  1.6238
  876MOL0     H18213   4.702   6.208  12.229  0.5192  0.8565  0.5500
  876MOL0     H18214   4.511   6.329  12.318  0.3265 -2.2804 -2.3648
  876MOL0     H18215   4.634   6.361  12.430  2.8780 -0.3283 -1.7845
  876MOL0     H18216   4.415   6.161  12.467 -0.3839 -0.3940  2.9248
  876MOL0     H18217   4.447   6.311  12.552 -1.6519  0.6827 -1.4853
  876MOL0     H18218   4.623   6.060  12.564  0.0806  0.0966 -1.2441
  876MOL0     H18219   4.495   6.111  12.680 -0.9591  2.0627  0.1460
  876MOL0     H18220   4.688   6.425  12.874  0.3294  0.7444  1.2008
  876MOL0     H18221   4.833   6.384  13.208  3.0182  1.8792 -1.9413
  876MOL0     H18222   4.784   6.489  13.070 -1.6726 -1.1601 -2.7577
  876MOL0     H18223   4.667   6.438  13.189 -0.3189 -1.2762  0.4627
  876MOL0     H18224   4.983   6.062  13.431  2.2368 -1.5286  0.0393
  876MOL0     H18225   5.034   5.940  13.626  0.5030  0.3650  0.0545
  876MOL0     H18226   5.075   5.689  13.674 -1.9431 -2.2524 -3.4893
  876MOL0     H18227   5.037   5.628  13.836 -1.2988 -0.4022  0.5458
  876MOL0     H18228   4.955   5.507  13.568 -2.1303 -1.4019 -0.4344
  876MOL0     H18229   5.093   5.468  13.676 -0.2546  0.0054 -0.9529
  876MOL0     H18230   4.788   5.430  13.698  1.6553  1.2863 -1.7692
  876MOL0     H18231   4.871   5.418  13.843  0.3084  1.3966 -0.3860
  876MOL0     H18232   4.907   5.244  13.599  1.8724 -0.7325  0.5127
  876MOL0     H18233   5.026   5.252  13.732  1.1529  0.1963 -1.6739
  876MOL0     H18234   4.745   5.177  13.812 -0.2647  0.5247  1.0212
  876MOL0     H18235   4.887   5.132  13.875 -0.0499  2.3767  0.9016
  876MOL0     H18236   4.773   5.036  13.602  1.3093 -3.2775 -1.4286
  876MOL0     H18237   4.927   4.975  13.650 -0.0625  0.9715 -1.4045
  876MOL0     H18238   4.711   4.829  13.672  0.2857 -0.4286  0.9933
  876MOL0     H18239   4.664   4.950  13.786 -0.7877 -1.7782  0.2828
  876MOL0     H18240   4.851   4.906  13.930 -1.6637 -1.3408  2.1129
  876MOL0     H18241   4.900   4.762  13.832 -1.7548 -1.4559 -0.1321
  876MOL0     H18242   4.745   5.649  13.552  2.3769 -1.0336 -0.2491
  876MOL0     H18243   4.674   5.769  13.337 -1.0345  1.0572  0.4376
  876MOL0     H18244   4.736   5.939  13.001  0.8530  0.2017  2.2519
  876MOL0     H18245   4.711   5.990  12.800  2.3912  0.4521 -2.0229
  876MOL0     H18246   3.554   5.748  11.482  1.3314  2.5527 -3.2121
  876MOL0     H18247   3.403   5.633  11.312 -1.1300 -4.4733 -0.9579
  876MOL0     H18248   3.545   5.245  10.829  0.6835  2.2078  1.4692
  876MOL0     H18249   3.349   5.100  10.714 -0.2488  1.1134 -0.9828
  876MOL0     H18250   2.939   5.020  10.756  0.2943 -0.6390  1.6148
  876MOL0     H18251   2.976   5.107  10.903 -1.9562 -2.4580 -1.0301
  876MOL0     H18252   2.868   5.309  10.800  1.9473  1.5785 -1.1368
  876MOL0     H18253   2.779   5.156  10.757  1.6644 -0.7958  0.9124
  876MOL0     H18254   2.868   5.170  10.524  1.5915 -0.2665  0.4257
  876MOL0     H18255   2.988   5.286  10.586  0.1457 -3.1797 -1.2123
  876MOL0     H18256   2.791   5.453  10.628 -0.4860  0.6077 -1.3115
  876MOL0     H18257   2.693   5.322  10.561 -0.0765 -0.6634  1.9512
  876MOL0     H18258   2.914   5.562  10.258  0.9703 -0.8319 -0.7545
  876MOL0     H18259   3.059   5.317  10.948 -0.7980 -0.9023 -0.1514
  876MOL0     H18260   3.235   5.448  11.052 -6.5090 -3.0355  1.9514
  877MOL0     O18261   4.725  10.443   3.596 -0.1235 -0.3021 -0.3157
  877MOL0     C18262   4.666  10.335   3.571 -0.1110 -0.3774  0.0369
  877MOL0     O18263   4.620  10.292   3.444 -0.2369  0.6582 -0.1681
  877MOL0     C18264   4.627  10.380   3.337  0.3040 -0.3846  0.0932
  877MOL0     C18265   4.584  10.512   3.337  0.0658  0.3603 -0.2587
  877MOL0     C18266   4.552  10.570   3.221 -0.4907 -0.3163  0.7296
  877MOL0     C18267   4.586  10.524   3.096  0.6547 -1.0272  0.7739
  877MOL0     O18268   4.567  10.603   2.986 -0.0729  0.2068 -0.2860
  877MOL0     C18269   4.662  10.595   2.882  0.2554  0.4362 -0.7532
  877MOL0     C18270   4.673  10.720   2.800  0.5022 -0.5510  0.0791
  877MOL0     C18271   4.718  10.846   2.886  0.8209 -0.3925  0.2587
  877MOL0     C18272   4.748  10.970   2.802  0.7279 -0.5458  1.0763
  877MOL0     C18273   4.880  10.961   2.718  0.0462  0.2230 -0.9473
  877MOL0     C18274   4.996  10.896   2.790 -0.1021 -0.8195  0.6274
  877MOL0     C18275   5.118  10.911   2.703 -0.4504 -0.7286  0.5230
  877MOL0     C18276   5.254  10.885   2.772  0.4694  0.3196 -0.0477
  877MOL0     N18277   5.271  10.745   2.816 -0.3957  0.0627 -0.4105
  877MOL0     C18278   5.292  10.646   2.723  0.1121 -0.4900  0.2465
  877MOL0     C18279   5.277  10.524   2.783 -0.1586 -0.2063 -0.6502
  877MOL0     C18280   5.274  10.389   2.724  0.0980 -0.2004 -0.0971
  877MOL0     C18281   5.414  10.330   2.719 -0.4555  0.2819 -0.6596
  877MOL0     C18282   5.468  10.306   2.859 -0.3966 -0.4554  1.0840
  877MOL0     C18283   5.582  10.207   2.856  0.8563  0.5690 -0.4312
  877MOL0     O18284   5.650  10.211   2.990 -0.7226  0.1468  0.1170
  877MOL0     C18285   5.709  10.093   3.037  0.0233  0.3501 -0.0695
  877MOL0     C18286   5.694  10.057   3.169  0.3910  0.9651 -0.1973
  877MOL0     C18287   5.740   9.934   3.218  0.0064 -0.6773 -0.7353
  877MOL0     C18288   5.719   9.910   3.364  1.1424  0.7185  0.2761
  877MOL0     C18289   5.826   9.856   3.127 -0.2342  0.3830  0.2344
  877MOL0     C18290   5.889   9.725   3.169 -0.1312 -0.0256 -0.3186
  877MOL0     O18291   5.915   9.696   3.309 -0.2771 -0.1664 -0.0014
  877MOL0     C18292   5.963   9.579   3.352 -0.0047 -0.3473  0.0628
  877MOL0     C18293   5.923   9.526   3.477  0.5186  1.0199  0.8785
  877MOL0     C18294   5.974   9.395   3.518 -0.0078 -0.0547  1.2973
  877MOL0     C18295   6.068   9.317   3.446 -0.1055  0.3453  0.1755
  877MOL0     O18296   6.103   9.185   3.480 -0.0688 -0.5760  0.7507
  877MOL0     C18297   6.006   9.087   3.450  0.3071 -0.1954  0.2248
  877MOL0     C18298   5.907   9.056   3.566  0.0587 -0.2277 -0.2754
  877MOL0     C18299   5.851   8.910   3.573 -0.1392 -0.9737  0.1880
  877MOL0     C18300   5.741   8.894   3.679  0.0191  0.6882  0.2547
  877MOL0     C18301   5.690   8.756   3.720 -0.2495  0.6682  0.0518
  877MOL0     C18302   5.598   8.749   3.841  0.6612 -0.0550  0.6028
  877MOL0     C18303   5.581   8.594   3.865 -0.0007 -0.7202  0.5316
  877MOL0     C18304   5.633   8.547   3.996 -0.1182 -0.1524 -0.0355
  877MOL0    Cl18305   5.530   8.608   4.139 -0.2722  0.5648  0.0312
  877MOL0     C18306   6.121   9.380   3.334  1.0285 -0.3317  0.5577
  877MOL0     C18307   6.060   9.495   3.278 -0.1283 -0.6090  0.1022
  877MOL0     O18308   5.933   9.660   3.079  0.2333  0.1468 -0.4261
  877MOL0     C18309   5.826   9.890   2.985  0.9372 -0.1013 -0.0827
  877MOL0     C18310   5.772  10.012   2.944  0.7524  0.1091 -0.3979
  877MOL0     N18311   5.263  10.556   2.922 -0.1638  0.0730 -0.1108
  877MOL0     N18312   5.252  10.684   2.937 -0.3987  0.0480  0.4369
  877MOL0     C18313   4.610  10.389   3.088  0.1743  0.0875 -0.1319
  877MOL0     C18314   4.631  10.321   3.209 -0.1990  0.1730  0.3466
  877MOL0     C18315   4.632  10.261   3.695 -0.0295  0.8431 -0.3176
  877MOL0     C18316   4.567  10.137   3.682  0.1970  0.1641 -0.4396
  877MOL0     C18317   4.536  10.069   3.799  0.4348 -0.3003  0.6409
  877MOL0     C18318   4.555  10.127   3.929 -0.4207  0.7864 -0.3681
  877MOL0     O18319   4.501  10.050   4.035 -0.6652 -0.0253 -0.7168
  877MOL0     C18320   4.384   9.970   4.034 -0.1822  0.0133  0.3428
  877MOL0     C18321   4.342   9.934   4.182  0.3112 -0.5105 -0.2703
  877MOL0     C18322   4.337  10.051   4.272  0.2410 -1.0745 -0.3865
  877MOL0     C18323   4.257  10.168   4.223 -0.6591 -0.5339  0.8236
  877MOL0     C18324   4.121  10.118   4.197 -0.3896  0.0471  1.2145
  877MOL0     C18325   3.998  10.096   4.201 -0.5433 -0.2412 -1.2087
  877MOL0     C18326   4.617  10.247   3.943  0.0996 -0.2532  0.5218
  877MOL0     C18327   4.667  10.315   3.820 -0.9515  1.1394 -0.1277
  877MOL0     H18328   4.551  10.549   3.434 -0.0094 -2.1021  0.7267
  877MOL0     H18329   4.509  10.670   3.231 -2.4515 -1.0734  0.3448
  877MOL0     H18330   4.765  10.584   2.916 -0.0111  3.5208  1.4720
  877MOL0     H18331   4.621  10.506   2.832 -1.6946 -1.5687  3.8023
  877MOL0     H18332   4.743  10.695   2.721 -1.2664 -0.5546 -1.5540
  877MOL0     H18333   4.570  10.736   2.766 -0.0551 -1.3952  1.2757
  877MOL0     H18334   4.631  10.865   2.949 -0.8241 -1.2708 -1.6176
  877MOL0     H18335   4.801  10.826   2.953  0.2281  1.9147  1.8078
  877MOL0     H18336   4.663  11.010   2.747  1.9137  2.5484  1.2944
  877MOL0     H18337   4.762  11.050   2.876  1.8510 -1.1642  1.5530
  877MOL0     H18338   4.870  10.902   2.626  1.2702 -0.1988 -0.8255
  877MOL0     H18339   4.897  11.063   2.682 -2.5059  1.2138  0.3889
  877MOL0     H18340   5.025  10.949   2.882  1.5034  1.1201 -0.9022
  877MOL0     H18341   4.985  10.789   2.808 -2.3192 -0.7275  0.1610
  877MOL0     H18342   5.112  10.858   2.608  0.0240  4.2661 -2.7091
  877MOL0     H18343   5.123  11.014   2.665 -1.0578 -0.6422  0.6608
  877MOL0     H18344   5.274  10.952   2.856  3.9866 -2.5070  1.6009
  877MOL0     H18345   5.329  10.904   2.695 -0.4549  0.1623 -1.0150
  877MOL0     H18346   5.296  10.666   2.616  3.5233  3.1046  0.8369
  877MOL0     H18347   5.209  10.317   2.776 -0.6034  0.8652  0.5474
  877MOL0     H18348   5.220  10.388   2.629 -0.0804 -3.7536 -0.1277
  877MOL0     H18349   5.472  10.410   2.672 -1.0372  3.4653  3.4352
  877MOL0     H18350   5.428  10.244   2.653  0.2454  0.7614 -1.1516
  877MOL0     H18351   5.395  10.273   2.934 -0.1570 -0.7505  1.1925
  877MOL0     H18352   5.495  10.404   2.899 -1.9387  1.4831 -2.1982
  877MOL0     H18353   5.658  10.231   2.781  1.0324  2.0664  0.1976
  877MOL0     H18354   5.543  10.107   2.836 -0.7213  0.7956  1.3372
  877MOL0     H18355   5.650  10.124   3.242 -0.9735 -0.4943  0.3772
  877MOL0     H18356   5.812   9.884   3.416  1.0039 -1.4243 -0.4267
  877MOL0     H18357   5.691  10.003   3.414 -1.9482  0.7017 -1.1929
  877MOL0     H18358   5.641   9.841   3.398 -1.7386  3.4303 -0.3636
  877MOL0     H18359   5.856   9.579   3.543  0.8101  0.0640  1.9717
  877MOL0     H18360   5.952   9.371   3.622  0.8861 -2.3504  1.0167
  877MOL0     H18361   5.945   9.116   3.364 -0.8948  0.3385  1.2137
  877MOL0     H18362   6.060   8.997   3.422  1.7033 -0.7150  3.9357
  877MOL0     H18363   5.973   9.065   3.652  0.5852 -0.8211 -0.6056
  877MOL0     H18364   5.826   9.129   3.568  2.1824  2.2338  1.0277
  877MOL0     H18365   5.925   8.831   3.593 -0.9107 -2.3927 -2.2225
  877MOL0     H18366   5.803   8.873   3.482 -1.7220 -0.2042  0.6814
  877MOL0     H18367   5.787   8.939   3.768  0.8133 -0.0113  0.2072
  877MOL0     H18368   5.652   8.941   3.637  0.2222  0.3578 -0.5546
  877MOL0     H18369   5.779   8.694   3.728 -0.4288  0.1285 -1.6638
  877MOL0     H18370   5.630   8.721   3.635  2.2562 -1.3667 -0.9826
  877MOL0     H18371   5.631   8.806   3.928 -3.5453  0.4433  2.1271
  877MOL0     H18372   5.502   8.796   3.819  2.2858  3.1087 -0.3177
  877MOL0     H18373   5.636   8.540   3.787  2.2042 -0.1778  1.6277
  877MOL0     H18374   5.475   8.571   3.851  0.2432 -3.2816  2.1004
  877MOL0     H18375   5.741   8.564   4.005  0.1141 -1.4446 -0.0658
  877MOL0     H18376   5.640   8.438   3.983  4.8121  0.2379 -4.2425
  877MOL0     H18377   6.200   9.327   3.281 -1.3395 -2.4191 -1.1175
  877MOL0     H18378   6.101   9.541   3.188  0.7237  1.5814  1.5176
  877MOL0     H18379   5.878   9.825   2.916  2.0869  1.1152 -0.4070
  877MOL0     H18380   5.769  10.034   2.838 -1.0360  1.5081 -0.1129
  877MOL0     H18381   4.630  10.339   2.994 -4.7999 -4.2484  0.6305
  877MOL0     H18382   4.656  10.215   3.214  1.1922  0.4809  0.2451
  877MOL0     H18383   4.559  10.087   3.586  1.0831 -1.5188  0.3180
  877MOL0     H18384   4.496   9.969   3.798  0.6103 -0.4459  2.9019
  877MOL0     H18385   4.297  10.018   3.988  0.8628  1.6394 -0.0186
  877MOL0     H18386   4.405   9.882   3.972  2.9099 -1.0544  2.6838
  877MOL0     H18387   4.422   9.874   4.226  0.6818  1.0695  1.3220
  877MOL0     H18388   4.244   9.886   4.190  0.1827 -0.0160  1.6019
  877MOL0     H18389   4.440  10.090   4.273 -0.5938  1.7631 -3.6289
  877MOL0     H18390   4.306  10.026   4.373 -0.2962  2.2459  0.3994
  877MOL0     H18391   4.306  10.197   4.129  0.2869 -0.5512  1.3040
  877MOL0     H18392   4.258  10.257   4.287 -0.1217 -2.1126  3.1222
  877MOL0     H18393   3.894  10.086   4.223  0.2631 -4.3845  2.1233
  877MOL0     H18394   4.621  10.288   4.043 -0.8167 -0.5107  0.6663
  877MOL0     H18395   4.732  10.400   3.836  0.8012 -0.0832 -0.4288
  878MOL0     O18396   0.070  11.293   3.310  0.3987 -0.5323 -0.4562
  878MOL0     C18397  -0.048  11.305   3.285  0.7809 -0.3528  0.8591
  878MOL0     O18398  -0.104  11.273   3.162  0.6297  0.2217 -0.3030
  878MOL0     C18399  -0.057  11.175   3.075  0.0231 -0.0844  0.1745
  878MOL0     C18400  -0.001  11.057   3.122 -0.0659 -0.3040  0.6034
  878MOL0     C18401   0.041  10.957   3.039  0.2451 -0.5639  0.4476
  878MOL0     C18402   0.038  10.989   2.902 -0.4992  0.8322  0.1302
  878MOL0     O18403   0.096  10.894   2.822 -0.0134 -0.0683 -0.0066
  878MOL0     C18404   0.175  10.948   2.709  0.9211 -0.8306 -0.3101
  878MOL0     C18405   0.108  10.928   2.577 -0.0869 -0.2099 -0.7489
  878MOL0     C18406   0.137  10.781   2.540  0.0926 -1.2915 -0.3156
  878MOL0     C18407   0.045  10.713   2.442 -0.1524 -0.8382  0.0458
  878MOL0     C18408   0.108  10.582   2.386  1.1873  0.5658 -0.0926
  878MOL0     C18409   0.152  10.476   2.497 -1.0072 -0.4103 -0.5443
  878MOL0     C18410   0.197  10.351   2.422  0.1879  0.1842 -1.1843
  878MOL0     C18411   0.266  10.248   2.503  0.2806  0.0610  0.7219
  878MOL0     N18412   0.311  10.132   2.419 -0.0170 -0.1858 -0.2727
  878MOL0     C18413   0.423  10.115   2.336  0.1884  0.5672  0.7266
  878MOL0     C18414   0.405   9.986   2.296  0.5728 -0.4759 -0.4857
  878MOL0     C18415   0.495   9.915   2.196  0.0511 -0.5166  0.0377
  878MOL0     C18416   0.398   9.859   2.085 -0.1681 -0.1294  0.2058
  878MOL0     C18417   0.343   9.723   2.108  1.0317  0.1765 -0.3569
  878MOL0     C18418   0.233   9.697   2.008  0.2835  0.8697  0.6234
  878MOL0     O18419   0.282   9.693   1.872  0.5018  0.2430 -0.4899
  878MOL0     C18420   0.220   9.748   1.765 -0.3566  0.2233  0.3081
  878MOL0     C18421   0.079   9.729   1.751 -0.3685 -0.0777 -0.2241
  878MOL0     C18422   0.026   9.758   1.625  0.0519 -0.1840  0.2092
  878MOL0     C18423  -0.117   9.723   1.610 -0.2489  0.0537  0.1332
  878MOL0     C18424   0.101   9.829   1.522  0.8045  1.2022  0.2511
  878MOL0     C18425   0.035   9.896   1.405  0.4450  0.0113 -0.3004
  878MOL0     O18426   0.123   9.941   1.310 -0.3844  0.0249  0.4729
  878MOL0     C18427   0.081  10.029   1.207  0.6419 -0.0897 -0.0246
  878MOL0     C18428   0.167  10.042   1.097 -0.9185  0.8636 -0.4591
  878MOL0     C18429   0.137  10.139   1.002  0.7840  0.1693 -0.0552
  878MOL0     C18430   0.024  10.222   1.002 -0.2621  0.4033 -1.0772
  878MOL0     O18431  -0.010  10.312   0.907 -0.2011 -0.5609  1.3406
  878MOL0     C18432   0.050  10.294   0.778 -1.0348 -0.5089  0.4076
  878MOL0     C18433  -0.012  10.393   0.677 -0.1784  0.3372 -0.2845
  878MOL0     C18434  -0.109  10.344   0.552 -1.0908  0.6090  0.1845
  878MOL0     C18435  -0.212  10.248   0.602 -0.2692 -0.1269  0.5945
  878MOL0     C18436  -0.285  10.186   0.482 -0.6577  0.7204 -1.1039
  878MOL0     C18437  -0.379  10.289   0.409  1.4537  0.2913 -0.3431
  878MOL0     C18438  -0.389  10.269   0.255  0.2506  0.4490  0.1620
  878MOL0     C18439  -0.482  10.147   0.216  0.1923  0.2330  0.3727
  878MOL0    Cl18440  -0.496  10.140   0.038 -0.2268  0.1013 -0.1210
  878MOL0     C18441  -0.056  10.208   1.108 -0.5777 -0.6011 -0.6426
  878MOL0     C18442  -0.032  10.118   1.208 -0.7871  0.0845  0.4447
  878MOL0     O18443  -0.094   9.905   1.387 -0.1505  0.4465  0.1639
  878MOL0     C18444   0.236   9.846   1.537  0.0385  0.4351  0.2231
  878MOL0     C18445   0.292   9.808   1.660  0.7724  0.1689  0.0680
  878MOL0     N18446   0.300   9.928   2.356 -0.1909 -0.1706 -0.0190
  878MOL0     N18447   0.249  10.018   2.434  0.1226 -0.0987  0.8163
  878MOL0     C18448  -0.012  11.113   2.849 -1.1110 -0.4772 -0.4756
  878MOL0     C18449  -0.078  11.196   2.938 -1.0599 -0.2664  0.4641
  878MOL0     C18450  -0.141  11.372   3.375  0.4767 -0.3662  0.0055
  878MOL0     C18451  -0.089  11.441   3.487  0.6179  0.1927 -0.5547
  878MOL0     C18452  -0.176  11.522   3.565  0.3584  0.3529 -0.0033
  878MOL0     C18453  -0.317  11.514   3.530 -0.3577 -0.6654 -0.1213
  878MOL0     O18454  -0.413  11.586   3.596  0.0564 -0.0125 -0.1561
  878MOL0     C18455  -0.380  11.698   3.684  0.2431 -0.6244  0.7209
  878MOL0     C18456  -0.490  11.796   3.716  0.8344  0.1578  0.8920
  878MOL0     C18457  -0.579  11.734   3.827  0.7989  0.2157 -0.3123
  878MOL0     C18458  -0.700  11.670   3.763 -1.2422 -0.1595 -0.6560
  878MOL0     C18459  -0.803  11.634   3.868  0.0700 -0.2320  0.5458
  878MOL0     C18460  -0.890  11.593   3.945 -0.1862 -0.8611 -0.2933
  878MOL0     C18461  -0.362  11.432   3.428 -0.3869 -0.2991 -0.7829
  878MOL0     C18462  -0.277  11.362   3.355  1.3610 -0.7318  0.4859
  878MOL0     H18463  -0.006  11.016   3.223  0.4910 -2.8221 -0.3225
  878MOL0     H18464   0.082  10.861   3.071  1.0773 -0.2038  0.5039
  878MOL0     H18465   0.197  11.055   2.717 -2.9099  0.0754 -0.1198
  878MOL0     H18466   0.272  10.897   2.702  1.3400 -0.3601  1.3857
  878MOL0     H18467   0.005  10.959   2.596 -0.1947 -1.8902  2.0344
  878MOL0     H18468   0.140  10.985   2.489  1.3222  2.7053  1.4749
  878MOL0     H18469   0.241  10.766   2.511  2.0608  1.6998  4.0266
  878MOL0     H18470   0.118  10.724   2.631 -0.8616  0.0839  0.3915
  878MOL0     H18471  -0.043  10.684   2.499 -0.6088  1.3770  0.5530
  878MOL0     H18472   0.018  10.776   2.356  2.5410 -0.2294 -0.4365
  878MOL0     H18473   0.025  10.542   2.326  0.0421 -0.6671  2.1663
  878MOL0     H18474   0.192  10.607   2.322  3.5913  0.9287  2.9900
  878MOL0     H18475   0.240  10.521   2.543  0.1791 -1.6659 -1.5111
  878MOL0     H18476   0.071  10.458   2.568 -0.2568  2.7707  1.3178
  878MOL0     H18477   0.107  10.299   2.388 -1.9002  1.5649  1.7728
  878MOL0     H18478   0.259  10.377   2.335 -1.2511 -0.7399 -2.5357
  878MOL0     H18479   0.191  10.227   2.580  0.9054 -0.5276  1.1776
  878MOL0     H18480   0.355  10.289   2.551 -0.2088  4.0168 -1.3249
  878MOL0     H18481   0.497  10.186   2.300  0.6610  0.2427  1.0414
  878MOL0     H18482   0.559   9.995   2.158 -0.4147 -0.0259  0.2742
  878MOL0     H18483   0.563   9.845   2.246  3.4504  0.8327 -2.3512
  878MOL0     H18484   0.457   9.852   1.993 -0.6373  0.6548 -0.1655
  878MOL0     H18485   0.321   9.933   2.062  0.9049  0.3802 -2.1156
  878MOL0     H18486   0.304   9.716   2.210  0.0504  2.9404 -0.4388
  878MOL0     H18487   0.431   9.660   2.096  2.2707  1.2689  2.2968
  878MOL0     H18488   0.159   9.777   2.013 -3.3256 -1.9564 -1.8776
  878MOL0     H18489   0.178   9.604   2.022  1.8677  0.1550  2.4827
  878MOL0     H18490   0.014   9.696   1.832 -1.0460 -1.6627 -1.3629
  878MOL0     H18491  -0.153   9.685   1.514 -0.3683  0.4942  0.0004
  878MOL0     H18492  -0.158   9.660   1.690  1.9721 -0.4297  0.9801
  878MOL0     H18493  -0.173   9.816   1.616  1.1777  0.8933  4.2607
  878MOL0     H18494   0.262   9.989   1.102 -1.1887  0.3959 -0.2374
  878MOL0     H18495   0.219  10.161   0.934 -0.6291  1.6528 -1.3771
  878MOL0     H18496   0.157  10.317   0.779 -0.9530 -0.3327 -2.7430
  878MOL0     H18497   0.049  10.190   0.745 -1.0551 -1.3539  2.8846
  878MOL0     H18498  -0.047  10.487   0.720 -0.9550 -0.6465  1.3195
  878MOL0     H18499   0.078  10.421   0.621  2.6048 -0.3970  3.4224
  878MOL0     H18500  -0.049  10.298   0.474 -0.6885 -2.2678  2.0420
  878MOL0     H18501  -0.169  10.426   0.513 -0.1073  0.7398 -1.0978
  878MOL0     H18502  -0.166  10.170   0.662  0.5896 -2.6973 -3.0979
  878MOL0     H18503  -0.278  10.301   0.672 -2.7973 -1.5172 -0.6252
  878MOL0     H18504  -0.336  10.098   0.523 -0.2009  1.9321  2.4161
  878MOL0     H18505  -0.216  10.165   0.400  0.2205  1.4947 -0.5842
  878MOL0     H18506  -0.481  10.295   0.447  0.9828  1.1771 -1.6870
  878MOL0     H18507  -0.337  10.390   0.420  0.3519  0.8053 -0.7353
  878MOL0     H18508  -0.291  10.259   0.209  0.3776 -0.5379  0.6264
  878MOL0     H18509  -0.430  10.361   0.212  2.2614  0.3839 -2.0411
  878MOL0     H18510  -0.578  10.167   0.265 -0.5497 -0.2519 -0.8427
  878MOL0     H18511  -0.432  10.056   0.251  1.2148  0.8416  0.5509
  878MOL0     H18512  -0.146  10.267   1.119 -1.3490 -1.8428 -0.0798
  878MOL0     H18513  -0.096  10.133   1.295  1.9058 -1.3457  2.8312
  878MOL0     H18514   0.305   9.895   1.468  2.3757 -2.3049  0.4007
  878MOL0     H18515   0.398   9.831   1.656  0.4567  1.9006  0.5386
  878MOL0     H18516  -0.010  11.139   2.744 -0.4726  0.7833 -0.1803
  878MOL0     H18517  -0.117  11.289   2.899 -1.8963 -1.3347 -1.3861
  878MOL0     H18518   0.015  11.449   3.517 -0.5904  0.4940  4.3183
  878MOL0     H18519  -0.130  11.585   3.639  4.8831  0.8595 -2.8456
  878MOL0     H18520  -0.354  11.668   3.786 -1.4185  1.6762  1.8969
  878MOL0     H18521  -0.297  11.756   3.644 -1.3705  0.2594 -1.5482
  878MOL0     H18522  -0.528  11.814   3.615  0.0169  0.1872  1.1971
  878MOL0     H18523  -0.451  11.889   3.758  2.4225 -0.6022  1.1715
  878MOL0     H18524  -0.624  11.820   3.877 -1.0172 -1.1051  0.4573
  878MOL0     H18525  -0.528  11.663   3.893 -2.7913 -2.2922  0.0913
  878MOL0     H18526  -0.661  11.587   3.703  1.3472 -0.1751  0.8829
  878MOL0     H18527  -0.751  11.738   3.694 -3.0088  0.6033  1.2945
  878MOL0     H18528  -0.956  11.546   4.015 -2.4065  1.0916 -0.9621
  878MOL0     H18529  -0.470  11.434   3.419 -0.6215  0.8726  1.4157
  878MOL0     H18530  -0.313  11.297   3.276 -1.6625 -1.0097  1.9358
  879MOL0     O18531   9.194   7.781   0.280 -0.2334 -0.1261 -0.4055
  879MOL0     C18532   9.105   7.712   0.328 -0.8931  0.3951 -0.3694
  879MOL0     O18533   9.125   7.581   0.350 -0.2028 -0.2799  0.7606
  879MOL0     C18534   9.255   7.539   0.356 -0.3027  0.7641 -0.3246
  879MOL0     C18535   9.306   7.505   0.480  0.0070 -0.4328  0.0417
  879MOL0     C18536   9.428   7.441   0.494 -0.3828 -0.4921 -0.8059
  879MOL0     C18537   9.498   7.405   0.379  0.2690 -0.0385  0.1262
  879MOL0     O18538   9.623   7.347   0.381 -0.3274 -0.9224  0.1210
  879MOL0     C18539   9.726   7.424   0.439 -1.3430 -0.5050 -0.1232
  879MOL0     C18540   9.855   7.337   0.455 -0.3132 -0.0136  0.6587
  879MOL0     C18541   9.834   7.223   0.556  0.2351  0.0583 -0.7136
  879MOL0     C18542   9.958   7.136   0.577  0.6425 -0.2284 -0.1302
  879MOL0     C18543  10.008   7.036   0.468  0.2901  0.3108  0.2045
  879MOL0     C18544  10.155   6.998   0.502 -1.3757  0.0707  0.4979
  879MOL0     C18545  10.197   6.888   0.413 -0.4712 -0.9141  1.3809
  879MOL0     C18546  10.356   6.867   0.420  0.4802  0.4869  0.1224
  879MOL0     N18547  10.384   6.729   0.424  0.2081 -0.0180 -0.4880
  879MOL0     C18548  10.438   6.663   0.314  0.4918 -0.0633 -0.1000
  879MOL0     C18549  10.435   6.537   0.336 -0.1289  0.9481  0.2776
  879MOL0     C18550  10.481   6.426   0.243 -0.1173  0.0511 -0.8052
  879MOL0     C18551  10.612   6.450   0.178  0.4812 -0.3106  1.1176
  879MOL0     C18552  10.730   6.472   0.287 -0.3935 -0.6113 -0.0727
  879MOL0     C18553  10.862   6.430   0.233 -0.7593 -0.0080  0.7782
  879MOL0     O18554  10.964   6.488   0.321  0.8458 -0.4472 -0.0356
  879MOL0     C18555  11.093   6.499   0.265 -0.1653  0.2902 -0.1814
  879MOL0     C18556  11.186   6.571   0.329  0.2417 -0.0111  0.3731
  879MOL0     C18557  11.318   6.596   0.277  0.4877 -0.8016 -0.0598
  879MOL0     C18558  11.396   6.699   0.354  1.0208  0.2163  0.2644
  879MOL0     C18559  11.362   6.532   0.161 -0.5169 -1.0096  0.7227
  879MOL0     C18560  11.488   6.555   0.090 -0.2218 -0.2576 -0.5153
  879MOL0     O18561  11.506   6.485  -0.029 -0.6830 -0.7758  0.0794
  879MOL0     C18562  11.631   6.494  -0.084 -0.3473 -0.2058  0.7704
  879MOL0     C18563  11.688   6.620  -0.132 -0.0366  0.4718 -0.1080
  879MOL0     C18564  11.805   6.615  -0.218 -1.3059 -0.3445 -0.4854
  879MOL0     C18565  11.861   6.494  -0.255  0.4900  0.3717 -0.2014
  879MOL0     O18566  11.981   6.499  -0.309 -0.3772  0.2231 -0.2733
  879MOL0     C18567  12.072   6.392  -0.297 -0.2496 -0.1533 -0.0339
  879MOL0     C18568  12.197   6.441  -0.359 -0.3441 -0.8157  0.7232
  879MOL0     C18569  12.305   6.334  -0.338  0.3878 -0.3564 -1.1759
  879MOL0     C18570  12.420   6.379  -0.415  0.7592 -0.9728  0.7411
  879MOL0     C18571  12.530   6.270  -0.414  0.2006 -0.5061  0.1627
  879MOL0     C18572  12.663   6.333  -0.460  0.7102  0.4311  0.8316
  879MOL0     C18573  12.779   6.241  -0.474 -0.1284  0.8354 -0.2415
  879MOL0     C18574  12.789   6.133  -0.362  0.0386  1.2924  0.1515
  879MOL0    Cl18575  12.793   6.191  -0.189 -0.1775  0.1035  0.4155
  879MOL0     C18576  11.798   6.379  -0.219  0.1125  1.5710 -1.1245
  879MOL0     C18577  11.686   6.374  -0.135 -0.3491 -0.5785  0.4189
  879MOL0     O18578  11.575   6.622   0.146 -0.8662 -0.1673  0.9412
  879MOL0     C18579  11.273   6.433   0.117 -0.0748  1.0374  0.3967
  879MOL0     C18580  11.142   6.420   0.160  0.2842  0.6909  0.0542
  879MOL0     N18581  10.373   6.516   0.458  1.3234  0.4177  0.5921
  879MOL0     N18582  10.347   6.632   0.517 -0.0576  0.6578 -0.4014
  879MOL0     C18583   9.446   7.443   0.255 -0.4934  0.2981  0.2275
  879MOL0     C18584   9.324   7.511   0.243 -0.0730  0.3769 -0.3059
  879MOL0     C18585   8.970   7.755   0.364 -0.0782 -0.4124  1.3697
  879MOL0     C18586   8.888   7.691   0.465 -0.0345 -0.5860  0.4383
  879MOL0     C18587   8.764   7.743   0.504 -0.3037  0.4897  0.3117
  879MOL0     C18588   8.722   7.868   0.453 -0.2057 -0.5439  0.1261
  879MOL0     O18589   8.598   7.912   0.490 -0.7413 -0.8072  0.8217
  879MOL0     C18590   8.515   7.963   0.394  0.4580 -0.3646  0.9027
  879MOL0     C18591   8.479   7.846   0.297  0.1455 -1.0260 -1.0806
  879MOL0     C18592   8.356   7.883   0.212 -0.4268 -1.4538 -1.0689
  879MOL0     C18593   8.318   7.779   0.109 -0.8023  0.2083 -0.2027
  879MOL0     C18594   8.283   7.648   0.169 -0.5670  0.4412  0.2707
  879MOL0     C18595   8.262   7.541   0.217  0.7592 -0.1617 -0.3877
  879MOL0     C18596   8.804   7.939   0.362  0.3381  0.2031 -0.3878
  879MOL0     C18597   8.918   7.876   0.314 -0.3726  0.3109 -0.2331
  879MOL0     H18598   9.246   7.539   0.564  0.2857  1.8034 -0.6089
  879MOL0     H18599   9.475   7.417   0.589  1.8351  1.2772 -1.3711
  879MOL0     H18600   9.744   7.506   0.369 -3.1753 -1.7905 -2.2247
  879MOL0     H18601   9.689   7.471   0.531  0.6377  0.8423  0.0610
  879MOL0     H18602   9.900   7.307   0.360 -1.3825 -1.9842  0.7319
  879MOL0     H18603   9.933   7.401   0.497  0.5179  0.5243 -1.5745
  879MOL0     H18604   9.803   7.272   0.649 -0.9902 -1.9984  0.0152
  879MOL0     H18605   9.751   7.158   0.528 -0.1490 -0.6103  1.7323
  879MOL0     H18606  10.037   7.210   0.594 -1.5266  1.6231  2.8839
  879MOL0     H18607   9.940   7.091   0.675 -0.9164  0.3019 -0.1587
  879MOL0     H18608   9.957   6.939   0.470  1.8985 -0.5800  2.0513
  879MOL0     H18609  10.006   7.083   0.370 -0.8810 -0.1210  0.0131
  879MOL0     H18610  10.218   7.087   0.496  0.4122 -0.9702  2.5514
  879MOL0     H18611  10.166   6.974   0.608  2.4409 -1.0169 -0.0120
  879MOL0     H18612  10.159   6.799   0.464 -0.4878  1.3484  5.7908
  879MOL0     H18613  10.153   6.908   0.315  0.1390  1.5676  1.5547
  879MOL0     H18614  10.394   6.929   0.501 -1.6961  1.0515  0.7773
  879MOL0     H18615  10.399   6.903   0.326 -1.4582 -0.4191 -1.1965
  879MOL0     H18616  10.495   6.710   0.233  0.4152  0.5901  0.2141
  879MOL0     H18617  10.498   6.335   0.302 -2.4523 -0.6529 -1.1072
  879MOL0     H18618  10.396   6.407   0.177 -0.5844 -1.2426  0.1185
  879MOL0     H18619  10.602   6.540   0.117 -0.8940 -0.4249  1.1441
  879MOL0     H18620  10.651   6.372   0.112  1.8944  0.8326  0.5581
  879MOL0     H18621  10.707   6.413   0.376 -0.9616 -1.2861 -0.6521
  879MOL0     H18622  10.741   6.579   0.305  1.6847 -0.6674 -0.7394
  879MOL0     H18623  10.879   6.478   0.135  0.1287  1.1189  1.4506
  879MOL0     H18624  10.865   6.321   0.230 -1.1182 -0.0218  0.9172
  879MOL0     H18625  11.170   6.602   0.432 -2.0715 -1.6374  0.5782
  879MOL0     H18626  11.384   6.799   0.311 -1.0863 -0.8096 -1.6942
  879MOL0     H18627  11.353   6.697   0.455 -2.7450 -1.0186 -1.2086
  879MOL0     H18628  11.504   6.683   0.361  1.5012  1.9011 -2.2087
  879MOL0     H18629  11.652   6.718  -0.104 -1.2948  0.4975 -1.6544
  879MOL0     H18630  11.849   6.707  -0.254  0.6438 -0.6847  0.8263
  879MOL0     H18631  12.093   6.373  -0.191 -0.7944 -0.7097 -0.0153
  879MOL0     H18632  12.037   6.297  -0.339 -1.5932 -0.3637  1.4558
  879MOL0     H18633  12.189   6.457  -0.467  1.2157  0.7573  0.7868
  879MOL0     H18634  12.222   6.528  -0.297 -0.8665  0.0638 -0.2643
  879MOL0     H18635  12.263   6.244  -0.383 -0.8873 -0.4475  0.0999
  879MOL0     H18636  12.314   6.320  -0.230 -2.2920  1.7482 -0.5629
  879MOL0     H18637  12.396   6.400  -0.520  1.4173 -0.1735  0.7366
  879MOL0     H18638  12.453   6.468  -0.361 -2.1174 -1.3967  3.4938
  879MOL0     H18639  12.500   6.182  -0.472 -1.2687 -0.4576  0.7946
  879MOL0     H18640  12.543   6.242  -0.309 -0.4661 -1.5456 -0.0085
  879MOL0     H18641  12.650   6.376  -0.560  1.7290 -0.8499  0.1211
  879MOL0     H18642  12.681   6.416  -0.392  0.6098  1.8882 -0.8553
  879MOL0     H18643  12.873   6.294  -0.491 -0.4964  1.0040 -1.9142
  879MOL0     H18644  12.764   6.176  -0.561  0.9379 -2.5119  1.9122
  879MOL0     H18645  12.874   6.064  -0.371 -2.2863 -1.6754 -0.5659
  879MOL0     H18646  12.705   6.063  -0.366  0.8236  0.1005  2.3811
  879MOL0     H18647  11.835   6.281  -0.248  0.0302  0.1843  2.8448
  879MOL0     H18648  11.652   6.274  -0.107  1.4690 -0.5828  2.8986
  879MOL0     H18649  11.299   6.366   0.036  0.3130  0.4419  1.0075
  879MOL0     H18650  11.072   6.365   0.097  1.9964 -1.1074 -0.3988
  879MOL0     H18651   9.497   7.410   0.165 -1.4339 -1.9056  0.4238
  879MOL0     H18652   9.290   7.523   0.140  2.6860  3.0095 -1.0536
  879MOL0     H18653   8.931   7.607   0.519  3.1651  1.0987  0.7157
  879MOL0     H18654   8.702   7.679   0.566 -0.4009 -0.5212 -0.7910
  879MOL0     H18655   8.424   7.991   0.447  0.3184 -2.6952  1.9888
  879MOL0     H18656   8.566   8.042   0.336 -1.2176 -0.1852 -0.4204
  879MOL0     H18657   8.470   7.750   0.348  1.1257 -0.8425 -0.5393
  879MOL0     H18658   8.557   7.830   0.223  1.7241  2.5720 -0.4013
  879MOL0     H18659   8.387   7.977   0.165  0.9658  1.3534  4.5440
  879MOL0     H18660   8.272   7.917   0.274  0.5239 -0.2321 -0.4042
  879MOL0     H18661   8.406   7.754   0.048 -0.0698 -0.0702  0.9254
  879MOL0     H18662   8.243   7.828   0.047 -1.3454  3.2472  2.5461
  879MOL0     H18663   8.244   7.447   0.263  0.2281  0.8617  1.6087
  879MOL0     H18664   8.761   8.035   0.333 -1.3314 -0.4964 -0.3610
  879MOL0     H18665   8.980   7.925   0.240 -2.2904  2.0885 -0.7579
  880MOL0     O18666   2.183   4.213   9.671 -0.7090  0.0525 -0.4166
  880MOL0     C18667   2.288   4.203   9.728 -0.1790  0.7975 -0.6903
  880MOL0     O18668   2.304   4.174   9.861 -0.9450  0.3876  0.0209
  880MOL0     C18669   2.208   4.099   9.915 -0.1820 -0.1524  0.1191
  880MOL0     C18670   2.187   3.962   9.877  0.3552 -0.5693  0.2366
  880MOL0     C18671   2.082   3.894   9.935  0.6126 -0.2896 -0.2060
  880MOL0     C18672   2.001   3.950  10.041  0.2871 -0.1204 -0.1906
  880MOL0     O18673   1.896   3.885  10.095  0.1346  1.1287 -0.5299
  880MOL0     C18674   1.855   3.922  10.221  0.1797 -0.9153 -0.0942
  880MOL0     C18675   1.790   3.811  10.296 -0.3679 -0.6670  0.1289
  880MOL0     C18676   1.896   3.703  10.315  0.0563  0.4427  0.2818
  880MOL0     C18677   1.831   3.605  10.421 -0.5601 -0.5894  0.4736
  880MOL0     C18678   1.900   3.470  10.437 -0.4900  0.9039 -0.1145
  880MOL0     C18679   2.033   3.467  10.529  1.4122 -0.6683  0.7791
  880MOL0     C18680   2.043   3.334  10.605  0.0288 -0.5631  0.1708
  880MOL0     C18681   2.187   3.324  10.652 -1.0187 -0.0713 -1.0031
  880MOL0     N18682   2.182   3.215  10.755  0.1936  0.2644 -0.3515
  880MOL0     C18683   2.190   3.081  10.732 -0.7983  0.2644  0.1447
  880MOL0     C18684   2.149   3.023  10.842  0.7068 -0.8678  0.5576
  880MOL0     C18685   2.146   2.880  10.874 -0.4041 -0.8828 -0.2027
  880MOL0     C18686   2.263   2.843  10.968  0.3545  0.2295  0.0566
  880MOL0     C18687   2.248   2.693  10.994  0.1544 -0.0712  0.8813
  880MOL0     C18688   2.346   2.642  11.105  0.1866 -0.7854 -0.7905
  880MOL0     O18689   2.389   2.507  11.096  0.3087  0.1496 -0.1381
  880MOL0     C18690   2.289   2.408  11.093 -0.1039 -0.1521  1.1400
  880MOL0     C18691   2.299   2.320  10.988  0.5099 -0.6689  0.3478
  880MOL0     C18692   2.196   2.227  10.959  0.0626 -0.1693 -1.3431
  880MOL0     C18693   2.204   2.143  10.837 -0.1327 -0.1455  0.7506
  880MOL0     C18694   2.092   2.214  11.061  0.4540 -0.4739  0.5999
  880MOL0     C18695   1.985   2.108  11.058 -0.7160 -0.5907  0.0634
  880MOL0     O18696   1.862   2.133  11.101 -0.2179 -0.1209 -0.5902
  880MOL0     C18697   1.777   2.025  11.120 -0.0842 -1.1145  0.5107
  880MOL0     C18698   1.665   2.020  11.032  0.6380  0.1049  0.3781
  880MOL0     C18699   1.555   1.933  11.052  0.5705  0.3071 -0.3098
  880MOL0     C18700   1.551   1.845  11.162 -0.1652 -0.3833 -0.3607
  880MOL0     O18701   1.436   1.771  11.183  0.6977  0.1654 -0.5613
  880MOL0     C18702   1.408   1.730  11.317  0.2699 -0.2493  0.5420
  880MOL0     C18703   1.258   1.707  11.329 -0.0742  0.5563  0.5277
  880MOL0     C18704   1.210   1.597  11.232  0.1193 -0.9116 -0.9396
  880MOL0     C18705   1.118   1.490  11.314 -1.0508  0.2469 -1.2255
  880MOL0     C18706   1.057   1.370  11.237  0.7054  1.1841 -0.0838
  880MOL0     C18707   0.983   1.263  11.332 -0.3329 -0.4937 -0.4543
  880MOL0     C18708   1.064   1.202  11.452 -0.3172 -0.1745 -0.9985
  880MOL0     C18709   1.188   1.137  11.395 -0.6929  0.0477  0.3852
  880MOL0    Cl18710   1.146   1.016  11.270 -0.6192  0.0877 -0.7756
  880MOL0     C18711   1.658   1.848  11.251 -0.4447  0.0382 -1.0392
  880MOL0     C18712   1.763   1.946  11.232 -0.1099  0.0530  1.2650
  880MOL0     O18713   2.013   2.001  11.004  0.2728  0.6014  0.7355
  880MOL0     C18714   2.101   2.289  11.174  0.4646  0.5940 -0.4340
  880MOL0     C18715   2.190   2.391  11.195  0.1222 -0.3099 -0.2692
  880MOL0     N18716   2.132   3.124  10.942 -0.0321  0.1282  0.0804
  880MOL0     N18717   2.151   3.240  10.883  0.3137 -0.1283 -0.1701
  880MOL0     C18718   2.018   4.096  10.058 -0.3621  0.9241 -1.0693
  880MOL0     C18719   2.124   4.166  10.002  0.1823 -0.7092 -0.8842
  880MOL0     C18720   2.414   4.217   9.654  0.7037 -0.7697  0.5546
  880MOL0     C18721   2.407   4.273   9.521 -0.2775  0.5174  0.2687
  880MOL0     C18722   2.527   4.291   9.455  0.6290  0.0011 -0.1408
  880MOL0     C18723   2.652   4.267   9.519  0.7095  0.8068 -0.7755
  880MOL0     O18724   2.774   4.292   9.457  0.0447  0.1350 -0.8471
  880MOL0     C18725   2.823   4.426   9.449  0.8200 -0.5663  0.4166
  880MOL0     C18726   2.962   4.437   9.381 -0.2803 -0.3909 -0.3721
  880MOL0     C18727   3.065   4.364   9.471  0.7804  0.8090 -0.7978
  880MOL0     C18728   3.198   4.384   9.426 -0.1926 -0.5979 -0.1622
  880MOL0     C18729   3.224   4.528   9.433  0.4315  1.0135  0.2969
  880MOL0     C18730   3.251   4.645   9.432  0.6674  0.2581  0.8874
  880MOL0     C18731   2.655   4.212   9.651  0.2687  0.1987  0.0986
  880MOL0     C18732   2.531   4.197   9.718  0.8702  0.1012  0.2085
  880MOL0     H18733   2.257   3.914   9.809  0.3065 -0.4582  0.1082
  880MOL0     H18734   2.077   3.787   9.915 -0.8135 -0.5398  1.2422
  880MOL0     H18735   1.933   3.967  10.283  2.2423 -2.8355 -1.1525
  880MOL0     H18736   1.774   3.996  10.219 -1.3103 -2.4544  0.2714
  880MOL0     H18737   1.767   3.841  10.399  2.6838  1.3707  0.3493
  880MOL0     H18738   1.704   3.791  10.231 -0.7568 -0.1991  0.4907
  880MOL0     H18739   1.897   3.652  10.218  2.3496  2.0524 -0.6367
  880MOL0     H18740   1.998   3.738  10.332 -0.8445  4.0735 -0.9490
  880MOL0     H18741   1.815   3.656  10.516  1.6980  4.0263 -1.3119
  880MOL0     H18742   1.730   3.580  10.386 -0.8743 -1.7340  2.0955
  880MOL0     H18743   1.831   3.398  10.481  2.1667 -3.4203 -2.2393
  880MOL0     H18744   1.910   3.430  10.335  0.1884 -0.7630  0.5774
  880MOL0     H18745   2.119   3.488  10.465  1.8966 -0.9923  1.3116
  880MOL0     H18746   2.031   3.542  10.610  0.1619 -1.9283  1.9720
  880MOL0     H18747   1.976   3.335  10.691  0.7809  0.4174  0.7601
  880MOL0     H18748   2.028   3.247  10.540 -0.6027 -0.4717  0.1834
  880MOL0     H18749   2.216   3.420  10.695 -0.2101 -0.2999 -1.0215
  880MOL0     H18750   2.262   3.303  10.575 -2.4224 -0.7894 -2.2204
  880MOL0     H18751   2.213   3.042  10.634  1.0330  3.6135 -0.9445
  880MOL0     H18752   2.043   2.858  10.903 -0.9684 -1.2516 -2.2758
  880MOL0     H18753   2.160   2.826  10.779 -0.4942 -1.1581 -0.0616
  880MOL0     H18754   2.238   2.895  11.061 -1.8251  1.6207 -1.2325
  880MOL0     H18755   2.367   2.859  10.938  2.4508 -2.3065  4.6881
  880MOL0     H18756   2.275   2.644  10.900  2.9258 -1.7975  2.4228
  880MOL0     H18757   2.148   2.657  11.018 -0.2507 -0.2034 -0.8684
  880MOL0     H18758   2.306   2.669  11.203 -4.1623 -0.1860 -2.4997
  880MOL0     H18759   2.435   2.704  11.098 -1.4595  2.0799  1.5065
  880MOL0     H18760   2.382   2.339  10.922  0.8550 -0.6613  0.7769
  880MOL0     H18761   2.279   2.181  10.766  0.6996 -1.0730  1.1151
  880MOL0     H18762   2.215   2.038  10.865 -0.5695 -0.0706  1.2068
  880MOL0     H18763   2.105   2.143  10.791  0.1721  1.4429  0.0134
  880MOL0     H18764   1.656   2.091  10.950  2.4758 -0.2767 -0.2072
  880MOL0     H18765   1.468   1.929  10.987  0.2890  4.1399 -0.3855
  880MOL0     H18766   1.478   1.651  11.347  0.3080 -0.1841  0.6237
  880MOL0     H18767   1.427   1.811  11.387 -0.6798  0.3095  0.1692
  880MOL0     H18768   1.237   1.679  11.432 -0.2226 -2.6581 -0.2672
  880MOL0     H18769   1.202   1.800  11.320 -0.3807  0.4787  1.5134
  880MOL0     H18770   1.286   1.542  11.175 -0.8410 -2.3296 -0.9110
  880MOL0     H18771   1.148   1.645  11.156  1.6178 -1.0245 -2.2875
  880MOL0     H18772   1.178   1.455  11.398  0.0301  0.6936 -1.7843
  880MOL0     H18773   1.044   1.550  11.367  0.9945  1.7032  0.1781
  880MOL0     H18774   1.136   1.320  11.180 -0.8162  2.0996 -3.2194
  880MOL0     H18775   0.983   1.410  11.168 -0.6379  1.1863  1.3065
  880MOL0     H18776   0.894   1.313  11.371  0.8226 -0.4064  2.2953
  880MOL0     H18777   0.958   1.187  11.257  1.5198  2.5069 -4.5709
  880MOL0     H18778   1.002   1.131  11.508  2.1164  0.0724  2.3094
  880MOL0     H18779   1.101   1.279  11.520 -2.4290  1.4437 -1.5709
  880MOL0     H18780   1.234   1.080  11.477 -1.4323  0.9425  1.4482
  880MOL0     H18781   1.263   1.210  11.367  0.1576 -0.6381  0.8027
  880MOL0     H18782   1.650   1.792  11.343 -2.5246 -0.2651 -1.3560
  880MOL0     H18783   1.833   1.972  11.311 -0.0690 -0.4947  1.4114
  880MOL0     H18784   2.018   2.273  11.242  0.6449 -2.5465 -0.7790
  880MOL0     H18785   2.182   2.457  11.280 -0.3173 -0.9422  0.1877
  880MOL0     H18786   1.968   4.160  10.130  4.2445  1.8181  1.8105
  880MOL0     H18787   2.146   4.268  10.031  0.5707 -0.9195 -0.4298
  880MOL0     H18788   2.316   4.297   9.467 -0.6541  1.6557  1.3510
  880MOL0     H18789   2.536   4.326   9.352  3.7724  1.9566  0.6316
  880MOL0     H18790   2.749   4.480   9.389  1.2391  4.5558  3.8318
  880MOL0     H18791   2.809   4.460   9.552  2.6745  0.2953  0.4183
  880MOL0     H18792   2.988   4.543   9.391  2.3080 -0.8787 -1.2069
  880MOL0     H18793   2.973   4.401   9.278 -3.1420 -1.4035 -0.4075
  880MOL0     H18794   3.057   4.255   9.481  3.5142  0.3761 -2.3269
  880MOL0     H18795   3.042   4.393   9.574 -2.5970 -2.0516 -0.5454
  880MOL0     H18796   3.218   4.329   9.333 -0.6953  1.2630 -1.4241
  880MOL0     H18797   3.259   4.343   9.506 -2.2927  0.4070  2.0658
  880MOL0     H18798   3.280   4.748   9.438 -3.0719  1.4566  0.4396
  880MOL0     H18799   2.751   4.196   9.698  1.3720  3.2667 -0.8457
  880MOL0     H18800   2.527   4.165   9.822 -0.3960  1.9191  0.7566
  881MOL0     O18801  11.458   8.578   7.723  0.4333 -0.0705  0.3173
  881MOL0     C18802  11.548   8.637   7.782  0.1365 -0.3770  0.7057
  881MOL0     O18803  11.676   8.602   7.784 -0.1313  0.4805  0.6749
  881MOL0     C18804  11.718   8.490   7.708 -0.4913  0.6396 -0.3577
  881MOL0     C18805  11.640   8.380   7.663 -0.0239 -0.2412  0.0619
  881MOL0     C18806  11.685   8.292   7.569 -0.9337 -0.0970  0.5050
  881MOL0     C18807  11.814   8.303   7.523 -1.1255 -1.0553  0.6616
  881MOL0     O18808  11.861   8.206   7.436 -0.6428  0.4196  0.6282
  881MOL0     C18809  11.819   8.067   7.450  1.0558  0.3421 -0.1690
  881MOL0     C18810  11.924   7.975   7.379 -0.1543  0.4869 -0.1970
  881MOL0     C18811  12.060   7.974   7.454 -0.6046  0.1570 -0.5419
  881MOL0     C18812  12.150   8.099   7.405  0.4232 -0.3023  0.2643
  881MOL0     C18813  12.294   8.088   7.442  0.7394  0.7580 -0.4447
  881MOL0     C18814  12.325   8.164   7.574  0.7214 -0.8875  0.0174
  881MOL0     C18815  12.262   8.109   7.704  0.3240 -0.4434 -0.0669
  881MOL0     C18816  12.304   8.189   7.828 -0.0080  0.4320 -0.1984
  881MOL0     N18817  12.436   8.184   7.874 -0.9024  0.4878  0.0225
  881MOL0     C18818  12.499   8.081   7.939 -0.4372  0.5327 -0.6834
  881MOL0     C18819  12.626   8.096   7.915 -0.1565 -0.3637  0.7030
  881MOL0     C18820  12.743   8.015   7.956 -0.6057  0.1448  0.0344
  881MOL0     C18821  12.861   8.107   7.969  0.5450  0.2623  0.1269
  881MOL0     C18822  12.838   8.209   8.085 -0.6396 -0.7982  0.0612
  881MOL0     C18823  12.955   8.310   8.104  0.8078 -0.1723 -0.4571
  881MOL0     O18824  13.011   8.328   7.977 -0.6559  0.5002  0.1879
  881MOL0     C18825  12.962   8.432   7.900 -0.4595 -1.0549  0.5127
  881MOL0     C18826  13.052   8.503   7.829  0.1449 -0.0617 -0.5135
  881MOL0     C18827  13.023   8.617   7.748 -0.3631  0.7011  0.9033
  881MOL0     C18828  13.128   8.675   7.656 -0.1709  0.0795  0.0456
  881MOL0     C18829  12.895   8.677   7.761 -0.0205  0.5929 -0.8041
  881MOL0     C18830  12.849   8.792   7.682  0.4520  0.1782  0.1560
  881MOL0     O18831  12.912   8.910   7.701 -0.4211 -0.1262 -0.2591
  881MOL0     C18832  12.892   9.013   7.617  0.3059 -0.6883 -0.4374
  881MOL0     C18833  12.997   9.104   7.600 -0.4756 -0.1597  0.3609
  881MOL0     C18834  12.976   9.221   7.520  0.1009  0.0336 -0.5156
  881MOL0     C18835  12.841   9.265   7.497 -0.4543  0.4169 -0.5642
  881MOL0     O18836  12.824   9.388   7.438 -0.5102  0.4649 -1.0321
  881MOL0     C18837  12.714   9.476   7.486 -0.3151 -0.0505  0.1848
  881MOL0     C18838  12.692   9.584   7.380  0.2381 -0.4529 -0.0930
  881MOL0     C18839  12.812   9.672   7.335 -0.3458  0.5312  0.5578
  881MOL0     C18840  12.779   9.796   7.247 -0.2335  0.9081 -0.9092
  881MOL0     C18841  12.696   9.894   7.319  0.1070 -0.2071  0.6749
  881MOL0     C18842  12.685  10.022   7.240 -0.1595  1.1087 -0.2917
  881MOL0     C18843  12.598  10.124   7.314 -0.0152  0.4941 -0.7003
  881MOL0     C18844  12.591  10.247   7.241 -0.7674 -0.0463  0.0065
  881MOL0    Cl18845  12.758  10.329   7.205  0.6851 -0.1269  0.2546
  881MOL0     C18846  12.737   9.178   7.530  0.0819  0.1973  0.2622
  881MOL0     C18847  12.765   9.059   7.590  0.8735 -0.1814 -0.2194
  881MOL0     O18848  12.769   8.764   7.588  0.0996 -0.1340 -0.0326
  881MOL0     C18849  12.808   8.617   7.854  0.2124 -0.3855 -0.4793
  881MOL0     C18850  12.837   8.497   7.909 -0.9182  0.2730 -0.2860
  881MOL0     N18851  12.643   8.223   7.852  0.0205  0.3966  0.2759
  881MOL0     N18852  12.533   8.267   7.824  0.1130  0.1260 -0.8945
  881MOL0     C18853  11.899   8.408   7.562  0.0700 -0.1739  0.0695
  881MOL0     C18854  11.846   8.498   7.654 -0.2544  0.9618  0.0109
  881MOL0     C18855  11.509   8.766   7.838  0.0931  0.0539 -0.4614
  881MOL0     C18856  11.392   8.834   7.806 -0.3151 -0.4970 -1.3921
  881MOL0     C18857  11.364   8.961   7.855 -0.3287  0.1509  0.7003
  881MOL0     C18858  11.456   9.030   7.936 -0.1871  0.9637 -0.6473
  881MOL0     O18859  11.427   9.157   7.993  0.2710 -0.3763  0.8633
  881MOL0     C18860  11.520   9.216   8.079 -0.1391 -0.2021 -0.4898
  881MOL0     C18861  11.473   9.352   8.136  0.2542  0.8195 -1.7020
  881MOL0     C18862  11.331   9.351   8.185  0.6275  0.4669 -0.0812
  881MOL0     C18863  11.209   9.423   8.119 -0.4007 -0.2050 -0.7381
  881MOL0     C18864  11.209   9.395   7.977 -0.5325  0.6187 -1.0356
  881MOL0     C18865  11.218   9.373   7.866 -0.3277 -0.1002  0.2939
  881MOL0     C18866  11.588   8.975   7.944  0.0652  0.4855  0.2556
  881MOL0     C18867  11.608   8.840   7.910 -1.5485 -0.5314  0.0809
  881MOL0     H18868  11.543   8.361   7.708 -0.2292 -0.1187 -0.3246
  881MOL0     H18869  11.628   8.206   7.534  0.8922 -1.6742  1.2490
  881MOL0     H18870  11.821   8.029   7.552 -0.1888  2.2660  0.6300
  881MOL0     H18871  11.719   8.051   7.409  0.8928  1.6505 -0.3152
  881MOL0     H18872  11.886   7.873   7.379  2.2772 -0.5006 -1.1791
  881MOL0     H18873  11.941   8.008   7.276 -0.9075  0.3579 -0.3666
  881MOL0     H18874  12.048   7.984   7.562 -1.6814  0.7038 -0.6990
  881MOL0     H18875  12.114   7.887   7.416  1.7355  0.2442  2.2824
  881MOL0     H18876  12.153   8.114   7.296 -0.2267  0.2490  0.3129
  881MOL0     H18877  12.101   8.195   7.425 -0.4457 -0.3253 -1.5411
  881MOL0     H18878  12.312   7.982   7.460 -1.5120  0.2651 -0.8198
  881MOL0     H18879  12.352   8.133   7.360  1.1800  3.3752  1.1941
  881MOL0     H18880  12.433   8.161   7.592  1.1998  4.7416 -0.1686
  881MOL0     H18881  12.299   8.269   7.555 -1.5101 -1.4136 -0.1371
  881MOL0     H18882  12.153   8.105   7.703  0.3518 -1.6457 -1.3362
  881MOL0     H18883  12.295   8.005   7.714  0.3161 -0.3782  0.7523
  881MOL0     H18884  12.242   8.161   7.914  1.8991  0.2496  1.1945
  881MOL0     H18885  12.286   8.295   7.806  1.6450  0.3586 -2.1503
  881MOL0     H18886  12.451   7.997   7.989 -3.0306  2.6689  0.6656
  881MOL0     H18887  12.727   7.953   8.045  1.7695 -0.8681 -0.1734
  881MOL0     H18888  12.755   7.952   7.868 -1.6967 -0.7202  0.4870
  881MOL0     H18889  12.879   8.158   7.875 -3.4918 -2.3167 -2.3575
  881MOL0     H18890  12.954   8.051   7.977  0.0499 -0.8436 -1.4882
  881MOL0     H18891  12.817   8.153   8.177  0.7327 -3.3820 -1.0796
  881MOL0     H18892  12.739   8.256   8.079 -0.7506 -0.9501  0.6575
  881MOL0     H18893  13.039   8.282   8.169  1.0655  3.8128  1.2360
  881MOL0     H18894  12.908   8.400   8.145 -4.0982 -3.3882  1.9901
  881MOL0     H18895  13.144   8.446   7.824 -2.2321 -4.5677  0.9894
  881MOL0     H18896  13.088   8.765   7.608  0.4450  1.0902  1.3724
  881MOL0     H18897  13.212   8.698   7.722  0.2105  1.8639 -0.9781
  881MOL0     H18898  13.152   8.598   7.582  1.7414  2.0486 -1.5108
  881MOL0     H18899  13.095   9.090   7.644  0.0958  2.9876  0.3362
  881MOL0     H18900  13.062   9.281   7.495  1.0015 -0.0670  2.0476
  881MOL0     H18901  12.618   9.424   7.490 -0.4987  0.2503  4.5670
  881MOL0     H18902  12.745   9.526   7.578  0.7429 -0.3775  0.0224
  881MOL0     H18903  12.648   9.535   7.293 -3.1315  0.3166  1.0454
  881MOL0     H18904  12.605   9.644   7.409  3.1752  3.8758  0.8376
  881MOL0     H18905  12.888   9.616   7.280 -1.0754  1.0287 -1.0401
  881MOL0     H18906  12.866   9.703   7.425  0.5754  1.9645 -0.4466
  881MOL0     H18907  12.874   9.842   7.220  0.6753  0.0914  0.7908
  881MOL0     H18908  12.732   9.764   7.154 -0.0098  2.8505 -1.7426
  881MOL0     H18909  12.756   9.914   7.408 -1.4085  1.4063  1.3961
  881MOL0     H18910  12.596   9.858   7.344  0.1911 -3.2663 -2.6176
  881MOL0     H18911  12.783  10.064   7.214  0.9606  0.1107  2.0017
  881MOL0     H18912  12.643  10.003   7.141 -0.3034  0.9498 -0.2001
  881MOL0     H18913  12.645  10.132   7.412 -2.1468  0.9744  0.3596
  881MOL0     H18914  12.497  10.081   7.323  0.2020  0.3898  5.4963
  881MOL0     H18915  12.532  10.324   7.293 -0.9261  0.7111 -1.2469
  881MOL0     H18916  12.539  10.234   7.146 -0.9125 -1.5642  0.2660
  881MOL0     H18917  12.634   9.204   7.506 -0.7479 -0.8270  2.4918
  881MOL0     H18918  12.682   8.993   7.613 -0.0011  0.6644 -0.8878
  881MOL0     H18919  12.705   8.652   7.854  0.7247  1.2354 -0.2500
  881MOL0     H18920  12.754   8.454   7.963  0.6812  0.1472  2.2157
  881MOL0     H18921  12.000   8.412   7.522  0.9745 -2.9967  1.8004
  881MOL0     H18922  11.899   8.581   7.699  1.8524  0.1405 -0.8634
  881MOL0     H18923  11.303   8.800   7.754 -1.0509 -0.9166  0.1036
  881MOL0     H18924  11.278   9.007   7.808  0.1562 -0.1255 -0.4909
  881MOL0     H18925  11.530   9.143   8.160 -2.0651  0.4323  0.3858
  881MOL0     H18926  11.616   9.234   8.031  1.3272 -2.7588  1.2560
  881MOL0     H18927  11.478   9.425   8.055  0.2554  2.4751 -0.2705
  881MOL0     H18928  11.523   9.377   8.230 -0.1569 -0.1355 -1.2133
  881MOL0     H18929  11.319   9.394   8.285 -1.6962 -1.2386  0.4579
  881MOL0     H18930  11.292   9.250   8.195 -1.2199  1.0672 -0.8024
  881MOL0     H18931  11.238   9.527   8.139 -1.7295  0.1890 -0.7614
  881MOL0     H18932  11.117   9.394   8.171  0.3003  0.8284  1.1991
  881MOL0     H18933  11.239   9.344   7.765  1.7669 -1.5912  1.0904
  881MOL0     H18934  11.681   9.020   7.978  0.9398 -1.9336  1.3320
  881MOL0     H18935  11.699   8.788   7.939 -1.4429  0.7338  2.1983
  882MOL0     O18936   9.585  10.758   3.120 -0.1044 -0.3238 -0.0047
  882MOL0     C18937   9.472  10.798   3.105 -0.5184 -0.8216  0.9570
  882MOL0     O18938   9.436  10.898   3.017 -0.5856  0.1782  1.0714
  882MOL0     C18939   9.524  10.965   2.938 -0.3454 -0.7255  0.4342
  882MOL0     C18940   9.658  11.001   2.978  0.3894  0.3739  0.0675
  882MOL0     C18941   9.740  11.068   2.893  0.4441  0.6092  0.9399
  882MOL0     C18942   9.705  11.090   2.758  1.1704 -0.9049  0.2756
  882MOL0     O18943   9.799  11.103   2.664  0.3620  0.1571  0.0835
  882MOL0     C18944   9.806  11.236   2.635  0.3573  0.1464  0.5418
  882MOL0     C18945   9.922  11.239   2.550 -0.4008  0.2421  0.1975
  882MOL0     C18946   9.919  11.370   2.477  0.2874 -0.5279 -0.2498
  882MOL0     C18947   9.819  11.373   2.351 -0.7573 -0.0189 -0.4868
  882MOL0     C18948   9.819  11.518   2.287  0.1102 -1.0667 -0.0065
  882MOL0     C18949   9.757  11.504   2.154 -0.2991  0.4465 -0.0388
  882MOL0     C18950   9.716  11.635   2.101 -0.4962 -0.3032 -0.0098
  882MOL0     C18951   9.608  11.620   1.998  0.7203 -0.4232  0.3864
  882MOL0     N18952   9.561  11.739   1.939  0.0309 -0.4329  1.0115
  882MOL0     C18953   9.626  11.855   1.913 -0.8582 -0.4117 -0.1004
  882MOL0     C18954   9.525  11.950   1.912  0.5298  0.1278  0.3179
  882MOL0     C18955   9.557  12.088   1.907  0.2239 -0.8952  1.0941
  882MOL0     C18956   9.557  12.138   2.055  0.7538 -0.2294  0.1396
  882MOL0     C18957   9.537  12.284   2.076 -0.3367 -0.5584 -0.5242
  882MOL0     C18958   9.570  12.345   2.216  1.1324  0.8038  0.0365
  882MOL0     O18959   9.703  12.331   2.266  0.3450 -1.7121  0.2459
  882MOL0     C18960   9.723  12.260   2.375 -0.2227  0.2220 -0.2179
  882MOL0     C18961   9.859  12.230   2.389 -0.3335 -0.2905  0.0309
  882MOL0     C18962   9.924  12.189   2.504  0.6506  0.0572  0.0715
  882MOL0     C18963  10.074  12.172   2.495 -0.0711  0.0955 -0.0307
  882MOL0     C18964   9.833  12.172   2.607  0.6753  0.8276  0.3354
  882MOL0     C18965   9.873  12.127   2.748  0.2396 -0.2427  0.0398
  882MOL0     O18966   9.770  12.102   2.835  0.7768 -0.1854  0.0522
  882MOL0     C18967   9.806  12.117   2.967 -0.4123  0.3281 -0.2502
  882MOL0     C18968   9.883  12.023   3.036 -0.1059  0.1254 -0.6916
  882MOL0     C18969   9.917  12.036   3.170  0.0944  0.4428 -0.3569
  882MOL0     C18970   9.878  12.148   3.242  0.2990  0.3008 -0.3409
  882MOL0     O18971   9.929  12.168   3.375  0.2575  0.3096  0.0935
  882MOL0     C18972   9.878  12.282   3.447  0.7828 -0.0969 -0.5486
  882MOL0     C18973   9.909  12.239   3.593 -0.5488  0.3900  0.0584
  882MOL0     C18974  10.063  12.245   3.623 -0.3823  0.0967 -0.2129
  882MOL0     C18975  10.081  12.385   3.670 -0.3396 -0.6658  1.0029
  882MOL0     C18976  10.231  12.424   3.687 -0.8717  0.1817 -0.7912
  882MOL0     C18977  10.248  12.529   3.796 -0.8229 -0.4910  0.0475
  882MOL0     C18978  10.396  12.565   3.807 -0.2240 -0.4484  0.2596
  882MOL0     C18979  10.475  12.470   3.894 -0.2256 -0.3838  0.1412
  882MOL0    Cl18980  10.638  12.533   3.906  0.1328 -0.1792  0.9106
  882MOL0     C18981   9.806  12.248   3.171 -0.4334  0.6362  0.3791
  882MOL0     C18982   9.777  12.234   3.039 -0.0768  0.2123  0.5875
  882MOL0     O18983   9.995  12.130   2.774 -0.0195 -0.1682 -0.3867
  882MOL0     C18984   9.692  12.193   2.595  0.3039  0.1244 -0.4029
  882MOL0     C18985   9.636  12.238   2.480  0.6522 -0.4224 -0.2675
  882MOL0     N18986   9.403  11.884   1.925 -0.0030 -0.1985 -0.1539
  882MOL0     N18987   9.426  11.760   1.940 -0.9677 -0.7658  0.1966
  882MOL0     C18988   9.574  11.062   2.721  0.9426 -0.6141  0.0149
  882MOL0     C18989   9.478  11.013   2.809 -0.0792 -0.1646 -0.5387
  882MOL0     C18990   9.373  10.725   3.178 -0.2423  0.2107 -0.1581
  882MOL0     C18991   9.405  10.631   3.282  0.8694 -0.8114  0.1000
  882MOL0     C18992   9.306  10.543   3.332 -0.4441 -0.1067 -0.2952
  882MOL0     C18993   9.177  10.551   3.298 -0.0094 -0.8424  0.7414
  882MOL0     O18994   9.082  10.470   3.361  0.1896 -0.3365 -0.3635
  882MOL0     C18995   9.039  10.369   3.266 -0.0529 -0.3385  0.1913
  882MOL0     C18996   9.126  10.241   3.268 -0.0612  0.3628  0.4788
  882MOL0     C18997   9.045  10.130   3.193  0.5070  0.4215  0.5562
  882MOL0     C18998   8.917  10.079   3.261  0.1511 -0.1086  1.1136
  882MOL0     C18999   8.867   9.949   3.206  0.7506 -0.3567 -0.5948
  882MOL0     C19000   8.826   9.844   3.160 -0.1747  0.4805  0.1289
  882MOL0     C19001   9.141  10.658   3.208 -0.0766 -0.1385  0.1841
  882MOL0     C19002   9.239  10.746   3.148 -0.5378  0.7350  0.2888
  882MOL0     H19003   9.690  10.973   3.077  1.0570  1.6096  0.2235
  882MOL0     H19004   9.846  11.077   2.917  1.7042 -1.8141 -2.8438
  882MOL0     H19005   9.713  11.268   2.587 -0.0371 -2.8563 -0.9520
  882MOL0     H19006   9.824  11.284   2.732  1.7279 -0.0171  0.3960
  882MOL0     H19007  10.004  11.228   2.621  0.3805  3.4815 -0.0539
  882MOL0     H19008   9.923  11.153   2.483 -3.0364  0.2103  0.0851
  882MOL0     H19009   9.907  11.455   2.545 -1.2641 -0.0481 -1.0745
  882MOL0     H19010  10.023  11.368   2.442  1.0751 -0.9196  1.9751
  882MOL0     H19011   9.840  11.300   2.272  1.3032 -0.0308  0.0154
  882MOL0     H19012   9.716  11.353   2.381 -1.8121 -1.1158 -4.3738
  882MOL0     H19013   9.747  11.577   2.345 -1.1516 -2.7753  0.2231
  882MOL0     H19014   9.922  11.554   2.275 -0.4593 -0.1956 -2.9949
  882MOL0     H19015   9.829  11.459   2.086 -0.5947  1.5095 -1.0821
  882MOL0     H19016   9.673  11.434   2.163 -0.5655  0.5853 -1.3359
  882MOL0     H19017   9.674  11.694   2.183  2.8455  0.0140  1.6649
  882MOL0     H19018   9.801  11.689   2.059 -0.4982 -0.2537  0.0498
  882MOL0     H19019   9.518  11.575   2.041 -1.0931  1.0001 -1.6281
  882MOL0     H19020   9.643  11.557   1.916 -2.1211 -2.0374  0.2832
  882MOL0     H19021   9.733  11.871   1.906 -0.6301 -0.4887  2.3539
  882MOL0     H19022   9.638  12.124   1.843 -0.1966  1.4384  1.7778
  882MOL0     H19023   9.465  12.126   1.862  0.3084 -0.5708  1.1929
  882MOL0     H19024   9.651  12.100   2.096 -0.0555 -3.4196 -0.6647
  882MOL0     H19025   9.475  12.085   2.105  1.5914 -0.1947  1.6279
  882MOL0     H19026   9.437  12.315   2.044 -0.8755 -2.4357 -0.8029
  882MOL0     H19027   9.618  12.335   2.023  0.9341 -0.9933  0.9304
  882MOL0     H19028   9.500  12.282   2.272 -1.2608  0.6382 -2.8826
  882MOL0     H19029   9.542  12.450   2.213 -1.4501  0.1638 -1.7495
  882MOL0     H19030   9.934  12.251   2.313  3.2584 -3.5136  2.3034
  882MOL0     H19031  10.121  12.241   2.566  2.0411 -0.8841 -0.4127
  882MOL0     H19032  10.095  12.070   2.530  1.4323  0.7232  1.0483
  882MOL0     H19033  10.110  12.189   2.393  2.0773  1.3791  0.8623
  882MOL0     H19034   9.915  11.935   2.980 -2.7005 -2.6715  1.8178
  882MOL0     H19035   9.973  11.958   3.219  1.8371  2.6513  1.4084
  882MOL0     H19036   9.939  12.371   3.426  1.7741 -0.3289  1.2027
  882MOL0     H19037   9.771  12.302   3.441  1.3450  4.4978  0.3480
  882MOL0     H19038   9.866  12.294   3.678 -0.9553  1.7044 -0.9624
  882MOL0     H19039   9.883  12.133   3.604  1.7450 -0.1741  0.4328
  882MOL0     H19040  10.124  12.216   3.537  0.2979 -1.1625  0.6658
  882MOL0     H19041  10.086  12.166   3.695 -3.1442 -1.9084 -1.3378
  882MOL0     H19042  10.047  12.454   3.592  0.1629 -1.4652  0.0472
  882MOL0     H19043  10.024  12.401   3.762  0.7601  0.1777  1.5697
  882MOL0     H19044  10.263  12.470   3.593  1.7546  0.3717  0.0884
  882MOL0     H19045  10.291  12.333   3.699 -2.3198 -0.5424  1.8612
  882MOL0     H19046  10.199  12.624   3.773 -2.1667 -0.8810  1.1937
  882MOL0     H19047  10.205  12.508   3.894  1.3306 -1.8276  0.7918
  882MOL0     H19048  10.397  12.655   3.869  2.6874  0.4131 -0.8930
  882MOL0     H19049  10.444  12.568   3.709 -1.3583 -1.8456 -0.3870
  882MOL0     H19050  10.476  12.371   3.847  3.0778 -0.5454  0.2977
  882MOL0     H19051  10.443  12.455   3.997  0.4947 -0.1151  0.4126
  882MOL0     H19052   9.792  12.350   3.202  0.5663  0.8720  0.0987
  882MOL0     H19053   9.724  12.308   2.980  1.0526  1.0369  0.5630
  882MOL0     H19054   9.624  12.173   2.677 -0.1682  0.9764 -0.5746
  882MOL0     H19055   9.533  12.271   2.483  0.0180 -2.3338  0.1712
  882MOL0     H19056   9.556  11.073   2.614  0.9131  2.7167  0.2601
  882MOL0     H19057   9.378  11.002   2.767  0.3853 -0.8401 -1.5146
  882MOL0     H19058   9.508  10.625   3.315  1.1060 -0.4555 -0.5652
  882MOL0     H19059   9.346  10.470   3.401  2.1049 -0.2908 -1.8303
  882MOL0     H19060   8.935  10.345   3.287 -0.6011  0.4196 -1.4735
  882MOL0     H19061   9.035  10.409   3.164 -3.9226  1.1734  0.7663
  882MOL0     H19062   9.140  10.215   3.373 -2.3932  0.5739  0.9052
  882MOL0     H19063   9.214  10.263   3.208  0.0720  1.4837  1.0549
  882MOL0     H19064   9.109  10.044   3.171 -0.7332 -0.1068 -1.2431
  882MOL0     H19065   9.033  10.160   3.089  0.6923 -0.7845  0.1667
  882MOL0     H19066   8.834  10.150   3.253  0.1323 -0.2457 -0.2946
  882MOL0     H19067   8.932  10.068   3.368  1.5207  1.6575  1.1466
  882MOL0     H19068   8.798   9.750   3.117 -1.1298 -0.2869  2.3086
  882MOL0     H19069   9.036  10.666   3.182  0.4257 -2.0811 -3.0154
  882MOL0     H19070   9.218  10.829   3.081  0.4065  1.7278  1.1877
  883MOL0     O19071   2.278   0.911   4.830  0.6536 -0.4474  0.0665
  883MOL0     C19072   2.204   0.948   4.915  0.4142 -0.1366 -0.4394
  883MOL0     O19073   2.076   0.908   4.926 -0.3973 -0.3230  0.2477
  883MOL0     C19074   2.015   0.835   4.826 -0.9099  0.0732  1.1861
  883MOL0     C19075   1.902   0.758   4.859 -0.8953  0.0638  0.1257
  883MOL0     C19076   1.837   0.696   4.762  0.2524 -0.1761 -0.1353
  883MOL0     C19077   1.857   0.695   4.626 -1.9396 -0.4385  0.2658
  883MOL0     O19078   1.767   0.643   4.543 -0.1476 -0.0211  0.9117
  883MOL0     C19079   1.791   0.622   4.398 -0.1582  0.2815  1.0199
  883MOL0     C19080   1.901   0.519   4.374 -0.6525 -0.4063 -1.3099
  883MOL0     C19081   1.902   0.465   4.226  0.3732  0.6190  0.2575
  883MOL0     C19082   1.990   0.338   4.219 -0.5501  0.7678  0.3379
  883MOL0     C19083   2.084   0.344   4.088  0.1560  0.2232 -0.5900
  883MOL0     C19084   2.121   0.209   4.036  0.0348 -0.5307  0.6921
  883MOL0     C19085   2.183   0.201   3.902 -0.5076  0.1021 -0.2737
  883MOL0     C19086   2.214   0.054   3.856  0.3948  0.0809 -0.2636
  883MOL0     N19087   2.267   0.047   3.706  0.7265  0.9635 -0.3471
  883MOL0     C19088   2.190   0.081   3.588 -0.0645 -0.1646 -0.4933
  883MOL0     C19089   2.260   0.030   3.481 -0.0062  0.2063 -0.1065
  883MOL0     C19090   2.240   0.031   3.337 -0.8770  0.2821  0.0027
  883MOL0     C19091   2.197   0.173   3.301 -0.3783  0.5994  0.5054
  883MOL0     C19092   2.223   0.189   3.145 -1.3939 -0.3141 -0.2426
  883MOL0     C19093   2.216   0.328   3.102  0.7318 -0.1196  0.2017
  883MOL0     O19094   2.337   0.401   3.146  0.0513 -0.2873 -0.1158
  883MOL0     C19095   2.330   0.536   3.170 -0.0915  1.6605  0.2103
  883MOL0     C19096   2.427   0.597   3.245  0.2333  0.1419 -0.4515
  883MOL0     C19097   2.438   0.735   3.259 -0.0262 -0.2273 -0.2502
  883MOL0     C19098   2.553   0.781   3.346 -0.7135 -0.5869  0.5457
  883MOL0     C19099   2.346   0.821   3.191 -0.5621  0.8984 -0.4251
  883MOL0     C19100   2.354   0.955   3.210 -0.5949 -0.3638  0.2792
  883MOL0     O19101   2.481   1.014   3.202 -0.1049  0.0021 -0.2714
  883MOL0     C19102   2.507   1.146   3.189  0.4910  0.5834 -0.1215
  883MOL0     C19103   2.500   1.215   3.070 -1.0552  0.6950  0.3902
  883MOL0     C19104   2.531   1.354   3.063 -0.8534  0.3166 -0.8356
  883MOL0     C19105   2.529   1.425   3.183 -0.1984  0.3391 -0.3083
  883MOL0     O19106   2.542   1.563   3.182  0.4328 -0.4420  0.0143
  883MOL0     C19107   2.506   1.642   3.062  0.3620 -0.5328 -0.0470
  883MOL0     C19108   2.497   1.787   3.105  0.7607 -0.5232 -0.0332
  883MOL0     C19109   2.389   1.789   3.219  0.1438 -0.1565  0.3103
  883MOL0     C19110   2.345   1.927   3.265  0.7167  0.2249 -0.1868
  883MOL0     C19111   2.214   1.926   3.359 -0.3228 -0.5460  0.5461
  883MOL0     C19112   2.189   2.062   3.413 -0.5880  0.0177 -1.1420
  883MOL0     C19113   2.089   2.069   3.511  0.4485 -0.1887 -0.0245
  883MOL0     C19114   2.036   2.210   3.540  1.1400 -0.4902 -0.6235
  883MOL0    Cl19115   1.961   2.287   3.400 -0.3953 -0.1800 -0.3727
  883MOL0     C19116   2.537   1.357   3.305  0.1562  0.0869  0.1525
  883MOL0     C19117   2.538   1.218   3.313  0.5511  0.1439  0.7904
  883MOL0     O19118   2.251   1.014   3.234 -0.0204  0.1429  0.3104
  883MOL0     C19119   2.241   0.764   3.119  0.2534  0.9142  0.5064
  883MOL0     C19120   2.233   0.618   3.106  0.6082 -0.7990  0.3466
  883MOL0     N19121   2.384  -0.023   3.541 -0.2004  0.1281 -0.8251
  883MOL0     N19122   2.391  -0.017   3.666  0.0399 -0.2679 -0.6451
  883MOL0     C19123   1.971   0.768   4.583 -0.1752 -0.8013  0.2562
  883MOL0     C19124   2.053   0.832   4.684 -0.1019  0.3710  1.0660
  883MOL0     C19125   2.259   0.997   5.043  0.3755  0.5252 -0.0398
  883MOL0     C19126   2.396   1.031   5.055 -1.0932 -0.3677  0.5720
  883MOL0     C19127   2.461   1.065   5.179  0.2834  0.1482  1.0908
  883MOL0     C19128   2.382   1.079   5.295 -0.3847 -1.2014  0.0550
  883MOL0     O19129   2.440   1.116   5.421  0.2605 -0.4472  0.1975
  883MOL0     C19130   2.537   1.027   5.486  0.1493  0.0401  0.1778
  883MOL0     C19131   2.622   1.110   5.578  0.2364 -0.9130 -0.4034
  883MOL0     C19132   2.743   1.192   5.527 -0.7015  0.5589  0.3629
  883MOL0     C19133   2.843   1.183   5.641 -0.0149  0.9134  0.1681
  883MOL0     C19134   2.807   1.246   5.768  0.8208  0.1575 -0.2293
  883MOL0     C19135   2.806   1.297   5.877 -0.2062 -0.2394 -0.1375
  883MOL0     C19136   2.254   1.043   5.288  0.4103  0.7208  0.2171
  883MOL0     C19137   2.193   0.999   5.169  0.4802  0.0716  0.0878
  883MOL0     H19138   1.869   0.774   4.961 -1.3964  3.7321 -0.4661
  883MOL0     H19139   1.748   0.649   4.802 -0.0126  1.1124  0.8544
  883MOL0     H19140   1.702   0.583   4.349 -0.8395  2.8501  0.0722
  883MOL0     H19141   1.818   0.719   4.356  1.2698 -0.1760  0.8297
  883MOL0     H19142   1.987   0.579   4.404 -3.1727  2.9561 -0.2210
  883MOL0     H19143   1.894   0.427   4.433  0.5115  0.0035 -0.4940
  883MOL0     H19144   1.798   0.447   4.197  0.7782 -0.4732 -0.5864
  883MOL0     H19145   1.956   0.532   4.158  2.8380 -3.4828 -2.2260
  883MOL0     H19146   2.053   0.333   4.308 -1.6314  4.6658  1.5414
  883MOL0     H19147   1.935   0.244   4.220  0.0099  0.4378  0.4484
  883MOL0     H19148   2.038   0.394   4.003 -1.5773 -2.8526 -1.6117
  883MOL0     H19149   2.176   0.398   4.114  0.1063  0.0614 -0.0531
  883MOL0     H19150   2.186   0.163   4.111  0.4460 -2.7104 -0.8773
  883MOL0     H19151   2.024   0.158   4.029  0.5699 -1.3183 -3.0874
  883MOL0     H19152   2.118   0.252   3.831  1.0633  0.9791 -1.1395
  883MOL0     H19153   2.275   0.260   3.897 -1.9093  2.3768 -0.4689
  883MOL0     H19154   2.122  -0.003   3.870  0.3135 -0.1120 -1.5007
  883MOL0     H19155   2.300   0.014   3.911  0.8892 -1.2137 -1.8867
  883MOL0     H19156   2.095   0.133   3.590  0.1785  0.4533 -2.4618
  883MOL0     H19157   2.327  -0.016   3.290 -0.9254  0.7323 -0.5478
  883MOL0     H19158   2.155  -0.032   3.309 -2.4798  1.3573  2.2151
  883MOL0     H19159   2.264   0.244   3.351 -1.0760  1.8276 -0.2707
  883MOL0     H19160   2.093   0.190   3.330 -0.5398  2.6696 -1.0754
  883MOL0     H19161   2.155   0.132   3.081  2.8413 -3.1225 -2.7185
  883MOL0     H19162   2.318   0.156   3.103 -0.2325  1.5718  0.7682
  883MOL0     H19163   2.123   0.370   3.141  0.5376 -0.4743  0.1311
  883MOL0     H19164   2.199   0.324   2.994  0.4671 -0.8295  0.2631
  883MOL0     H19165   2.498   0.542   3.306  0.7808  2.5946  1.2699
  883MOL0     H19166   2.567   0.708   3.427 -0.3677 -1.2513 -0.1081
  883MOL0     H19167   2.644   0.783   3.286 -1.5167  1.0736 -0.6799
  883MOL0     H19168   2.533   0.865   3.413  1.8184 -3.4714  5.5798
  883MOL0     H19169   2.498   1.144   2.988 -2.2449  0.3892  0.6538
  883MOL0     H19170   2.542   1.404   2.968 -0.8207  2.9661  0.4639
  883MOL0     H19171   2.574   1.620   2.979 -0.6444  0.1158 -1.0628
  883MOL0     H19172   2.405   1.623   3.025 -0.5934 -0.8630  2.5305
  883MOL0     H19173   2.591   1.831   3.141  2.4675 -2.2880 -2.0640
  883MOL0     H19174   2.461   1.846   3.020 -0.7521 -1.6598 -0.2356
  883MOL0     H19175   2.416   1.738   3.312 -0.3867 -0.8783  0.0831
  883MOL0     H19176   2.305   1.733   3.177  1.5365 -0.8361 -1.7403
  883MOL0     H19177   2.433   1.962   3.319  0.4244 -1.8193  1.7793
  883MOL0     H19178   2.323   1.986   3.175 -1.4898 -0.5084 -0.1948
  883MOL0     H19179   2.235   1.855   3.440 -0.4479  0.9366  1.9358
  883MOL0     H19180   2.133   1.909   3.287  1.0089  2.8160 -1.9745
  883MOL0     H19181   2.276   2.097   3.469 -1.1711  1.2256 -0.9654
  883MOL0     H19182   2.182   2.129   3.328 -2.0877  1.3830  0.0067
  883MOL0     H19183   2.135   2.036   3.605  3.2477 -0.4773 -1.4027
  883MOL0     H19184   2.005   2.001   3.492 -1.5385  2.1100 -0.0165
  883MOL0     H19185   2.125   2.270   3.558 -0.0733  0.8696  1.2676
  883MOL0     H19186   1.968   2.214   3.626  2.6623  0.8231  0.5841
  883MOL0     H19187   2.555   1.421   3.391  1.4452  0.8294 -0.6298
  883MOL0     H19188   2.539   1.161   3.405 -2.1284  0.3245  0.9955
  883MOL0     H19189   2.157   0.819   3.077  0.5020  0.9466  0.0457
  883MOL0     H19190   2.150   0.576   3.049 -0.0071 -1.1797  1.4811
  883MOL0     H19191   1.994   0.779   4.477  2.5952 -3.2817  0.4598
  883MOL0     H19192   2.133   0.887   4.635  0.8974 -2.3754 -0.5658
  883MOL0     H19193   2.451   1.032   4.961 -2.4972 -4.3294 -0.5163
  883MOL0     H19194   2.563   1.102   5.186  0.5126 -0.0932 -0.5158
  883MOL0     H19195   2.495   0.936   5.530 -2.3946  0.6351 -0.8312
  883MOL0     H19196   2.601   0.994   5.404  0.6377  1.3746 -0.0110
  883MOL0     H19197   2.657   1.044   5.657  2.3948  0.8811  0.2779
  883MOL0     H19198   2.560   1.184   5.629  2.3574  1.5082 -1.0487
  883MOL0     H19199   2.705   1.292   5.507 -0.2187  0.8254  0.7398
  883MOL0     H19200   2.788   1.149   5.437 -0.2883 -1.3978  1.4320
  883MOL0     H19201   2.930   1.243   5.612 -1.0370  2.7416  0.7587
  883MOL0     H19202   2.867   1.076   5.650  0.3815  0.1337 -6.0891
  883MOL0     H19203   2.815   1.348   5.971  0.4441  1.2278 -0.9526
  883MOL0     H19204   2.208   1.042   5.386  1.5202 -1.0411  0.7636
  883MOL0     H19205   2.093   0.958   5.176  0.5387  0.0787  1.2875
  884MOL0     O19206   6.812   5.457   2.500  0.0801 -0.0500  0.2927
  884MOL0     C19207   6.754   5.431   2.606 -0.3601  0.0670  0.5730
  884MOL0     O19208   6.621   5.421   2.619  0.3919 -0.7682 -0.1706
  884MOL0     C19209   6.550   5.376   2.514  0.6403  0.1328  0.3411
  884MOL0     C19210   6.434   5.432   2.491  0.1741  0.0503  1.1511
  884MOL0     C19211   6.356   5.397   2.378 -0.4004  0.3394  0.4847
  884MOL0     C19212   6.410   5.297   2.294 -0.1098  0.4086  0.3862
  884MOL0     O19213   6.349   5.263   2.170 -0.1258  0.4846  0.3187
  884MOL0     C19214   6.210   5.287   2.157 -0.8193 -0.2996  0.0763
  884MOL0     C19215   6.149   5.232   2.026 -0.4564  0.6659  0.8117
  884MOL0     C19216   6.224   5.291   1.912  0.6722  0.2662  0.4030
  884MOL0     C19217   6.167   5.221   1.781  0.6765  0.6393  0.1566
  884MOL0     C19218   6.205   5.303   1.648 -0.5898 -0.5336  0.2462
  884MOL0     C19219   6.115   5.239   1.535 -0.1502  0.5460  0.4907
  884MOL0     C19220   6.154   5.284   1.395  0.4265 -0.9245  0.2155
  884MOL0     C19221   6.300   5.281   1.357 -0.4714 -0.1124 -0.1887
  884MOL0     N19222   6.343   5.143   1.343  0.6213 -0.3167  0.6771
  884MOL0     C19223   6.329   5.069   1.228 -0.1877 -0.2540 -0.0981
  884MOL0     C19224   6.384   4.952   1.259  0.5203 -0.2704 -0.9097
  884MOL0     C19225   6.372   4.838   1.167 -0.3160  0.0874 -1.2551
  884MOL0     C19226   6.243   4.830   1.091 -0.4889  0.5136 -0.0999
  884MOL0     C19227   6.120   4.824   1.183 -0.0825 -0.0255 -0.1228
  884MOL0     C19228   6.124   4.717   1.284 -0.0695 -0.4134  0.6413
  884MOL0     O19229   6.147   4.585   1.239 -0.0507  0.6505  0.1575
  884MOL0     C19230   6.221   4.488   1.306  0.9514 -0.1077 -0.6062
  884MOL0     C19231   6.186   4.363   1.261  0.2323  0.3287 -0.2301
  884MOL0     C19232   6.254   4.253   1.298  0.7860  0.2534 -0.2285
  884MOL0     C19233   6.183   4.127   1.253  0.0595 -0.0397  0.0216
  884MOL0     C19234   6.363   4.263   1.383 -0.3293  0.4771 -0.0121
  884MOL0     C19235   6.444   4.141   1.415 -0.2988  0.9707 -0.1528
  884MOL0     O19236   6.582   4.162   1.438  0.4901  1.6873 -0.0754
  884MOL0     C19237   6.648   4.052   1.479  0.1368  0.1088  0.8624
  884MOL0     C19238   6.704   3.963   1.389 -0.0572  0.2342  0.6109
  884MOL0     C19239   6.770   3.847   1.427  0.0717  0.5357 -0.3848
  884MOL0     C19240   6.775   3.808   1.563  0.6312 -1.6079 -0.6807
  884MOL0     O19241   6.823   3.684   1.588 -0.6445 -0.7528  0.9343
  884MOL0     C19242   6.930   3.684   1.681 -0.0210 -0.4007 -0.9364
  884MOL0     C19243   6.998   3.545   1.675  0.0335 -0.2319  0.4664
  884MOL0     C19244   6.916   3.428   1.731 -0.5011 -0.4201  0.4918
  884MOL0     C19245   6.918   3.408   1.894  0.3073 -0.0354  0.2112
  884MOL0     C19246   6.835   3.290   1.949 -0.7369  0.3751 -0.3009
  884MOL0     C19247   6.868   3.284   2.097  0.3609  0.0386  0.1755
  884MOL0     C19248   6.761   3.194   2.164 -0.0652 -0.2143  0.1583
  884MOL0     C19249   6.777   3.218   2.312  1.2767 -0.3634  0.0377
  884MOL0    Cl19250   6.711   3.381   2.369  0.2843 -0.1144  0.2837
  884MOL0     C19251   6.709   3.897   1.662  0.2903 -0.0190  0.2186
  884MOL0     C19252   6.658   4.025   1.615  0.1787  0.0028  0.8556
  884MOL0     O19253   6.387   4.029   1.423 -0.1766  0.5052 -0.1959
  884MOL0     C19254   6.379   4.385   1.443 -0.9898 -0.2825 -0.1771
  884MOL0     C19255   6.319   4.503   1.403 -1.0196 -1.0862  0.1222
  884MOL0     N19256   6.431   4.952   1.395  0.4767  0.1524 -0.6567
  884MOL0     N19257   6.413   5.070   1.440  0.5284  0.0900 -0.8954
  884MOL0     C19258   6.535   5.239   2.321  0.7008  1.2022  0.8096
  884MOL0     C19259   6.607   5.281   2.433 -0.2522  0.7220  0.7353
  884MOL0     C19260   6.852   5.455   2.717 -0.7054  0.4394 -0.0985
  884MOL0     C19261   6.988   5.478   2.694 -0.7947 -0.7902 -0.0471
  884MOL0     C19262   7.077   5.502   2.802  0.0836  0.0491 -0.2634
  884MOL0     C19263   7.030   5.513   2.929  0.3108 -0.9570 -1.5446
  884MOL0     O19264   7.119   5.545   3.032 -0.8384  0.2834  0.6856
  884MOL0     C19265   7.070   5.549   3.165  0.3747 -0.2603 -0.2393
  884MOL0     C19266   7.171   5.619   3.266  0.8208 -0.0905 -0.1449
  884MOL0     C19267   7.138   5.585   3.410 -0.0484  0.3536 -0.4545
  884MOL0     C19268   7.238   5.655   3.503 -1.1159  0.0989 -0.1965
  884MOL0     C19269   7.373   5.613   3.486 -1.0157  0.0473 -0.3088
  884MOL0     C19270   7.489   5.588   3.455  0.3884 -0.1118  0.6946
  884MOL0     C19271   6.893   5.493   2.951  0.4154  0.4637 -0.0489
  884MOL0     C19272   6.804   5.466   2.846 -0.7722 -0.0888  0.1588
  884MOL0     H19273   6.404   5.520   2.547  0.1477  1.7993 -1.4153
  884MOL0     H19274   6.263   5.446   2.354  0.0339  2.3540  2.5918
  884MOL0     H19275   6.161   5.238   2.241 -1.4388 -0.7705 -0.5452
  884MOL0     H19276   6.204   5.396   2.168  0.8490 -0.3742  2.3787
  884MOL0     H19277   6.154   5.124   2.041  0.5896  0.6308  0.3381
  884MOL0     H19278   6.043   5.257   2.015 -0.5198  0.6693  1.4077
  884MOL0     H19279   6.213   5.400   1.923 -1.9366 -0.1799  3.8653
  884MOL0     H19280   6.329   5.262   1.917  1.0484  1.3975 -0.4092
  884MOL0     H19281   6.204   5.118   1.773 -0.8025  0.1327 -0.3632
  884MOL0     H19282   6.059   5.213   1.790  0.4614  1.7358 -1.1193
  884MOL0     H19283   6.167   5.405   1.662  1.6865  0.6227 -1.4011
  884MOL0     H19284   6.313   5.300   1.630 -0.5684 -1.9157  0.5227
  884MOL0     H19285   6.138   5.132   1.538 -1.5574  0.2101  0.1427
  884MOL0     H19286   6.007   5.251   1.548 -0.0883  0.9950  0.5825
  884MOL0     H19287   6.100   5.228   1.318 -0.0231  0.1119 -0.2405
  884MOL0     H19288   6.131   5.389   1.380  2.4578 -0.6067 -0.9863
  884MOL0     H19289   6.364   5.329   1.431 -0.5640  1.1999 -0.9243
  884MOL0     H19290   6.313   5.332   1.262  1.2852 -0.8443 -0.3726
  884MOL0     H19291   6.267   5.099   1.144  0.6960  2.2116  0.0476
  884MOL0     H19292   6.450   4.869   1.097  1.1416  2.3156  1.1792
  884MOL0     H19293   6.403   4.746   1.216 -0.7500  1.2000  1.2768
  884MOL0     H19294   6.233   4.734   1.039 -6.4008  1.8309 -2.1423
  884MOL0     H19295   6.238   4.918   1.026  0.8380  3.7700  3.8311
  884MOL0     H19296   6.040   4.787   1.119  2.2655 -0.8246 -2.7949
  884MOL0     H19297   6.092   4.923   1.221  1.2314  0.4477 -0.3344
  884MOL0     H19298   6.028   4.703   1.334 -0.5901  1.6404  0.3386
  884MOL0     H19299   6.193   4.752   1.362 -0.2913  1.8947 -0.1253
  884MOL0     H19300   6.104   4.354   1.190  1.1208 -0.2129 -1.2060
  884MOL0     H19301   6.141   4.076   1.341 -5.6770 -0.2974 -2.4288
  884MOL0     H19302   6.094   4.142   1.192 -1.2350 -3.3563  0.8554
  884MOL0     H19303   6.253   4.055   1.210 -0.8783 -1.6098  1.0409
  884MOL0     H19304   6.692   3.969   1.281  2.1669 -1.4603  0.1766
  884MOL0     H19305   6.796   3.782   1.344 -0.0151 -0.2218  0.1736
  884MOL0     H19306   7.012   3.756   1.677 -0.0435 -0.3307 -0.3023
  884MOL0     H19307   6.882   3.700   1.778  0.7160  0.3843 -0.6806
  884MOL0     H19308   7.018   3.521   1.570 -1.5390  1.7697 -0.3678
  884MOL0     H19309   7.093   3.553   1.728  0.2875  0.4611 -0.0833
  884MOL0     H19310   6.950   3.336   1.682 -2.2668 -0.9334  0.1726
  884MOL0     H19311   6.809   3.435   1.713 -0.4566 -0.0131  0.3821
  884MOL0     H19312   7.021   3.401   1.930  0.4558  1.5617  0.1613
  884MOL0     H19313   6.877   3.501   1.935 -2.5513 -0.8015 -0.6686
  884MOL0     H19314   6.859   3.201   1.890 -2.1457  0.2129 -0.6753
  884MOL0     H19315   6.729   3.298   1.923 -0.4118 -0.4726 -2.0141
  884MOL0     H19316   6.976   3.268   2.099  0.7224  1.2879 -3.1959
  884MOL0     H19317   6.842   3.387   2.122 -0.6034  0.1323 -1.1454
  884MOL0     H19318   6.763   3.086   2.146  2.0443 -0.0143 -1.2277
  884MOL0     H19319   6.664   3.222   2.123 -1.1847 -3.0984  0.5792
  884MOL0     H19320   6.879   3.197   2.345  1.3353  1.0443  0.8223
  884MOL0     H19321   6.715   3.147   2.368  3.3759 -3.2250 -0.9991
  884MOL0     H19322   6.718   3.866   1.766  0.3608  0.2881  0.3071
  884MOL0     H19323   6.613   4.080   1.697  0.3315  0.3157  0.7322
  884MOL0     H19324   6.460   4.391   1.516 -1.1255 -0.7568  0.0179
  884MOL0     H19325   6.329   4.598   1.455  0.2190 -1.6821  1.0410
  884MOL0     H19326   6.571   5.153   2.266  0.4206 -0.2323  2.7711
  884MOL0     H19327   6.689   5.215   2.460 -0.0339 -1.8374 -4.7221
  884MOL0     H19328   7.028   5.473   2.593  2.4337 -1.3158  1.1243
  884MOL0     H19329   7.181   5.509   2.773 -0.2819 -1.3433 -2.0410
  884MOL0     H19330   6.975   5.604   3.167 -0.3445 -1.4691  0.4975
  884MOL0     H19331   7.040   5.448   3.194  1.1897 -0.5448 -0.3886
  884MOL0     H19332   7.172   5.727   3.253 -0.9384 -0.1680 -1.1535
  884MOL0     H19333   7.271   5.579   3.243  1.3710  1.0622  0.1536
  884MOL0     H19334   7.149   5.477   3.422  2.4295  0.7834  2.1286
  884MOL0     H19335   7.034   5.614   3.428 -1.3404 -1.9803 -3.2936
  884MOL0     H19336   7.210   5.632   3.606 -1.3016 -4.9137 -1.1138
  884MOL0     H19337   7.245   5.762   3.481 -3.1074  0.6705  1.6046
  884MOL0     H19338   7.587   5.551   3.434 -0.8920 -4.3286  1.0810
  884MOL0     H19339   6.851   5.498   3.051  1.0177  2.6389  0.1424
  884MOL0     H19340   6.696   5.457   2.841 -0.8976  0.4678 -5.7841
  885MOL0     O19341   9.351  10.964  10.279  0.6493  0.1285 -0.0285
  885MOL0     C19342   9.408  10.863  10.235 -0.5035  0.7961 -0.5114
  885MOL0     O19343   9.398  10.805  10.113  0.3067 -0.3463  0.1278
  885MOL0     C19344   9.340  10.882  10.012  0.1024 -0.2877 -0.0008
  885MOL0     C19345   9.201  10.889  10.013  0.1513 -0.7824 -0.7726
  885MOL0     C19346   9.135  10.951   9.909  0.7877  0.1571  0.8661
  885MOL0     C19347   9.209  11.003   9.801  0.3024 -0.7454 -0.3650
  885MOL0     O19348   9.152  11.057   9.692 -0.2332 -0.0507  0.2062
  885MOL0     C19349   9.021  11.118   9.699  0.1818 -0.2953 -0.3246
  885MOL0     C19350   8.969  11.187   9.577  0.5491 -0.4480 -0.1238
  885MOL0     C19351   8.968  11.094   9.459  0.5223 -1.3995 -0.0437
  885MOL0     C19352   8.938  11.179   9.335 -0.7498 -0.3049 -0.5009
  885MOL0     C19353   8.895  11.095   9.215  0.5151 -1.7286  0.2161
  885MOL0     C19354   8.982  10.990   9.144 -1.1247 -1.1760 -0.0643
  885MOL0     C19355   8.912  10.931   9.017 -0.1943 -0.0701  0.1713
  885MOL0     C19356   8.986  10.832   8.930  0.4687  0.1137 -0.6874
  885MOL0     N19357   9.063  10.891   8.826 -1.2765 -0.8454  1.0040
  885MOL0     C19358   9.194  10.856   8.796  0.2745  0.2655  0.0512
  885MOL0     C19359   9.214  10.918   8.676  0.1276  0.2366 -1.3570
  885MOL0     C19360   9.347  10.934   8.617  0.1081  0.0052 -0.2570
  885MOL0     C19361   9.447  11.022   8.707  0.1364  0.0734  0.7284
  885MOL0     C19362   9.383  11.156   8.760  0.2419 -0.5776  0.0400
  885MOL0     C19363   9.305  11.249   8.661 -0.2217  0.0267  1.0077
  885MOL0     O19364   9.375  11.266   8.535  0.6376 -0.2769 -0.8044
  885MOL0     C19365   9.323  11.354   8.444  1.2026 -0.0496 -0.2357
  885MOL0     C19366   9.210  11.441   8.468 -0.4764 -0.6809  0.2437
  885MOL0     C19367   9.160  11.530   8.378  1.0604  0.1530 -0.6772
  885MOL0     C19368   9.043  11.623   8.423  0.1717 -0.4522 -0.6396
  885MOL0     C19369   9.231  11.540   8.253 -0.3331  0.6668 -0.9453
  885MOL0     C19370   9.197  11.621   8.138  0.0738  0.6181 -0.6915
  885MOL0     O19371   9.273  11.740   8.130  0.3339  0.9182  0.8226
  885MOL0     C19372   9.232  11.829   8.035 -0.2984  1.0569 -0.1929
  885MOL0     C19373   9.249  11.784   7.898 -0.1517  0.1846  0.0628
  885MOL0     C19374   9.214  11.861   7.786  0.5244 -0.2651 -0.1619
  885MOL0     C19375   9.153  11.987   7.814 -0.7771 -1.1223 -0.2256
  885MOL0     O19376   9.132  12.060   7.693  0.2081 -0.5741 -0.1924
  885MOL0     C19377   9.032  12.161   7.703 -0.7987  0.1285  0.7569
  885MOL0     C19378   9.010  12.226   7.556  0.5748  0.4883 -0.0759
  885MOL0     C19379   8.919  12.337   7.550  0.0935 -0.4237 -0.2926
  885MOL0     C19380   8.908  12.409   7.410 -0.3274  0.6577  0.3067
  885MOL0     C19381   8.834  12.540   7.409 -0.3514 -0.0792 -0.0249
  885MOL0     C19382   8.865  12.603   7.279  0.9793 -1.0912 -0.1807
  885MOL0     C19383   8.753  12.679   7.227 -0.4768  0.0891 -0.0509
  885MOL0     C19384   8.636  12.597   7.173 -0.6806  0.0077 -0.3111
  885MOL0    Cl19385   8.689  12.489   7.022 -0.3993 -0.0189  0.2103
  885MOL0     C19386   9.137  12.031   7.951 -0.4634 -0.2622 -0.0377
  885MOL0     C19387   9.183  11.959   8.059 -0.3653 -0.1691  0.3861
  885MOL0     O19388   9.092  11.595   8.072 -0.0811 -0.5697  0.2416
  885MOL0     C19389   9.343  11.457   8.235 -0.6303 -0.3792 -0.0163
  885MOL0     C19390   9.378  11.351   8.320 -0.9646  0.0461 -0.5635
  885MOL0     N19391   9.104  10.977   8.633 -0.0123 -0.3903 -1.2620
  885MOL0     N19392   9.012  10.967   8.722  0.6953 -0.3137 -1.0999
  885MOL0     C19393   9.350  11.001   9.796 -0.0242 -0.3284 -1.1379
  885MOL0     C19394   9.412  10.942   9.911  0.3936 -1.2200  0.4280
  885MOL0     C19395   9.499  10.796  10.337  0.0059 -0.7822  1.1843
  885MOL0     C19396   9.486  10.820  10.474 -0.2877 -0.7982 -0.1186
  885MOL0     C19397   9.573  10.760  10.568  0.0495  0.4458 -0.5821
  885MOL0     C19398   9.657  10.658  10.528 -0.8121 -1.0393  0.1248
  885MOL0     O19399   9.740  10.584  10.615  0.5440  0.1776 -0.2373
  885MOL0     C19400   9.677  10.549  10.737  0.4528  0.9439  0.0535
  885MOL0     C19401   9.674  10.397  10.767  0.0650  0.8926  0.6284
  885MOL0     C19402   9.611  10.359  10.903  0.2236 -0.2890  0.8685
  885MOL0     C19403   9.652  10.218  10.961  0.9612 -0.4307  0.3239
  885MOL0     C19404   9.586  10.115  10.881 -0.0249 -0.4982 -0.8411
  885MOL0     C19405   9.528  10.024  10.829 -1.3035 -0.4972  0.4532
  885MOL0     C19406   9.665  10.624  10.399  0.6633  0.4608 -0.6911
  885MOL0     C19407   9.582  10.686  10.303 -0.2211  1.1048 -0.0125
  885MOL0     H19408   9.131  10.845  10.083  0.4916 -1.6605 -0.9707
  885MOL0     H19409   9.029  10.948   9.933  1.3002  0.6042  3.5021
  885MOL0     H19410   8.943  11.047   9.728 -1.7179  1.8415  0.0962
  885MOL0     H19411   9.023  11.190   9.781 -2.5443 -0.7286  0.2131
  885MOL0     H19412   8.869  11.227   9.598  0.8352 -0.3390  1.1182
  885MOL0     H19413   9.037  11.272   9.564  1.3692 -1.2970 -1.6093
  885MOL0     H19414   9.066  11.047   9.446  1.1737 -0.2909  0.6688
  885MOL0     H19415   8.889  11.019   9.468 -1.7804  0.8033 -0.6986
  885MOL0     H19416   8.859  11.248   9.368  0.6837 -0.4865  4.0680
  885MOL0     H19417   9.027  11.233   9.303 -0.2656 -1.3767 -1.0091
  885MOL0     H19418   8.809  11.036   9.249 -1.0116  1.1805  1.7794
  885MOL0     H19419   8.865  11.168   9.139  1.0139  1.3276  2.7477
  885MOL0     H19420   9.083  11.018   9.114 -1.7063  0.7388 -0.3614
  885MOL0     H19421   8.999  10.913   9.220  0.3768 -2.9376 -2.0779
  885MOL0     H19422   8.838  10.873   9.073  2.1077 -1.1070  2.3627
  885MOL0     H19423   8.854  11.003   8.960  0.5447  2.7049  2.6926
  885MOL0     H19424   8.904  10.774   8.887 -0.0012 -0.5827  1.0539
  885MOL0     H19425   9.041  10.758   8.989 -2.6400 -1.8428  0.0199
  885MOL0     H19426   9.266  10.804   8.858  0.2535 -1.6134 -1.3813
  885MOL0     H19427   9.390  10.838   8.588  0.6190  0.5584 -1.3993
  885MOL0     H19428   9.351  10.990   8.523  2.5986  0.3685 -0.0006
  885MOL0     H19429   9.544  11.024   8.657 -1.2939  0.9755 -2.2491
  885MOL0     H19430   9.463  10.968   8.800 -1.3018  0.4552  1.2248
  885MOL0     H19431   9.453  11.213   8.821 -3.8878  2.9585  2.0176
  885MOL0     H19432   9.309  11.127   8.835  0.4829 -0.4773  0.3168
  885MOL0     H19433   9.280  11.344   8.708  0.5433  2.3520 -2.8604
  885MOL0     H19434   9.211  11.204   8.626 -0.0884  1.7322 -1.7830
  885MOL0     H19435   9.156  11.430   8.561 -0.0400  1.0274  0.7369
  885MOL0     H19436   8.943  11.585   8.446  0.2836 -1.2876 -1.4757
  885MOL0     H19437   9.077  11.685   8.506  0.1993 -2.7788  1.1703
  885MOL0     H19438   9.032  11.692   8.338 -0.2870  1.6558  1.0529
  885MOL0     H19439   9.291  11.685   7.886 -1.0733 -0.7323  3.5178
  885MOL0     H19440   9.224  11.819   7.687 -0.7868 -2.1974  0.4570
  885MOL0     H19441   8.936  12.115   7.728 -1.8923  1.8789 -0.0473
  885MOL0     H19442   9.066  12.230   7.780  1.9353 -0.4713  0.1843
  885MOL0     H19443   9.107  12.261   7.520 -0.1103  4.1052  1.1783
  885MOL0     H19444   8.972  12.142   7.497  0.2252 -0.9678  2.1048
  885MOL0     H19445   8.951  12.407   7.628 -1.1664 -1.0770  0.8325
  885MOL0     H19446   8.822  12.298   7.582 -0.7236  2.3229  0.8713
  885MOL0     H19447   9.009  12.413   7.370 -0.5998 -3.9262 -1.4136
  885MOL0     H19448   8.854  12.343   7.340 -0.5272  1.0117  0.1255
  885MOL0     H19449   8.871  12.605   7.489  1.2982  0.7039 -1.3554
  885MOL0     H19450   8.726  12.525   7.415 -1.4241  5.1851 -0.8202
  885MOL0     H19451   8.951  12.661   7.314  0.2413  0.6207 -1.1457
  885MOL0     H19452   8.911  12.538   7.204  2.0235  1.3411 -1.7277
  885MOL0     H19453   8.790  12.744   7.147  0.2974  1.7768  1.5869
  885MOL0     H19454   8.723  12.754   7.301 -3.1637 -0.2589 -0.7187
  885MOL0     H19455   8.563  12.677   7.158  0.8665  1.6696  0.6207
  885MOL0     H19456   8.597  12.529   7.250  0.8325 -2.7127 -1.8179
  885MOL0     H19457   9.094  12.123   7.989 -0.1537 -1.9030  5.0434
  885MOL0     H19458   9.187  11.999   8.160 -0.0485  0.6090  0.0764
  885MOL0     H19459   9.389  11.482   8.140  1.3504 -0.0941  0.9812
  885MOL0     H19460   9.462  11.284   8.308  1.5279  2.9047 -0.0557
  885MOL0     H19461   9.408  11.035   9.711 -1.6373  1.6398 -1.5303
  885MOL0     H19462   9.518  10.921   9.912  0.5542 -0.4413  1.7293
  885MOL0     H19463   9.410  10.891  10.508 -1.6914 -1.2094 -2.2057
  885MOL0     H19464   9.579  10.794  10.671  0.6348  1.0013 -0.7872
  885MOL0     H19465   9.731  10.608  10.812  0.2698  0.6143  0.4427
  885MOL0     H19466   9.573  10.581  10.737  0.3838  0.7432 -0.7280
  885MOL0     H19467   9.769  10.345  10.781 -0.0354  0.1352 -1.2896
  885MOL0     H19468   9.617  10.347  10.689 -1.0832  2.9221  0.1123
  885MOL0     H19469   9.504  10.381  10.894  0.0669 -1.6149 -1.3406
  885MOL0     H19470   9.651  10.425  10.980  0.9712  3.1883 -2.2144
  885MOL0     H19471   9.608  10.213  11.061  0.4193  0.0274  0.1164
  885MOL0     H19472   9.760  10.202  10.959  0.9619 -0.5660  1.2206
  885MOL0     H19473   9.472   9.953  10.771  0.1939 -0.2880 -1.3456
  885MOL0     H19474   9.729  10.542  10.368  1.5976  0.5058  1.0215
  885MOL0     H19475   9.583  10.638  10.206  0.3177 -2.5932  1.6118
  886MOL0     O19476   7.134   8.905  11.153 -0.3370  0.6566  0.2423
  886MOL0     C19477   7.069   8.798  11.139 -0.1066 -0.0057  0.3121
  886MOL0     O19478   7.080   8.713  11.034 -0.7810  0.1236  0.2356
  886MOL0     C19479   7.182   8.732  10.936 -0.2734  0.2611 -0.0984
  886MOL0     C19480   7.318   8.767  10.958  0.1536 -0.0598  0.5299
  886MOL0     C19481   7.408   8.799  10.849  0.1436 -0.6388 -0.6052
  886MOL0     C19482   7.371   8.790  10.720 -0.4497  1.0468 -0.5063
  886MOL0     O19483   7.460   8.798  10.616 -0.2321 -0.1156 -0.5248
  886MOL0     C19484   7.432   8.914  10.530 -1.4923  0.4683 -0.4493
  886MOL0     C19485   7.501   8.891  10.394  0.3591 -0.5830 -1.2426
  886MOL0     C19486   7.450   8.771  10.314  0.4586 -0.6471  0.3091
  886MOL0     C19487   7.498   8.765  10.171 -0.4643 -0.3034  0.9455
  886MOL0     C19488   7.654   8.743  10.166  1.6848  1.8367  0.5375
  886MOL0     C19489   7.702   8.720  10.019  0.2542 -0.1288 -0.4266
  886MOL0     C19490   7.646   8.811   9.917 -0.7393  0.2400 -0.0356
  886MOL0     C19491   7.699   8.952   9.920  0.7032 -1.0013  1.6079
  886MOL0     N19492   7.636   9.024   9.802 -0.6231  0.0024  0.5133
  886MOL0     C19493   7.709   9.087   9.699  0.0868  0.4142 -0.2844
  886MOL0     C19494   7.614   9.170   9.637 -0.1654  0.2459 -0.6245
  886MOL0     C19495   7.627   9.270   9.532 -0.6229 -0.8051  0.1525
  886MOL0     C19496   7.642   9.200   9.404  0.2614  0.1053  0.0452
  886MOL0     C19497   7.773   9.130   9.374 -0.4424  0.7000 -0.2355
  886MOL0     C19498   7.759   9.043   9.248  0.0140  0.2454 -0.7237
  886MOL0     O19499   7.675   8.932   9.271  0.2206  0.1410  0.7102
  886MOL0     C19500   7.663   8.840   9.174 -0.0328  0.5310  0.3339
  886MOL0     C19501   7.615   8.721   9.199  1.0561 -0.4176 -1.2175
  886MOL0     C19502   7.610   8.611   9.103  0.2384  0.3561 -0.4620
  886MOL0     C19503   7.540   8.485   9.155  0.0576  0.5891 -0.5323
  886MOL0     C19504   7.657   8.630   8.975  0.6957  0.2284  0.2152
  886MOL0     C19505   7.666   8.525   8.867 -0.8436 -0.1096 -0.0210
  886MOL0     O19506   7.639   8.397   8.891  0.1246  0.8553 -0.6982
  886MOL0     C19507   7.653   8.312   8.788 -0.1233  1.1441  0.3361
  886MOL0     C19508   7.773   8.289   8.716  0.4161  0.4583 -0.2476
  886MOL0     C19509   7.766   8.194   8.608  0.3845  0.0313  0.2735
  886MOL0     C19510   7.648   8.120   8.581 -0.0740 -0.1390 -0.3362
  886MOL0     O19511   7.658   8.034   8.472 -0.0478  0.1417 -0.2199
  886MOL0     C19512   7.542   7.959   8.428 -0.5433  0.8078  0.3132
  886MOL0     C19513   7.442   8.041   8.347  0.5333  0.3098  1.0769
  886MOL0     C19514   7.348   7.952   8.280 -0.0363  0.6238 -0.1858
  886MOL0     C19515   7.266   8.020   8.171  0.5720 -0.9353 -0.4106
  886MOL0     C19516   7.122   8.020   8.216 -0.2482 -0.1000  0.2443
  886MOL0     C19517   7.022   8.054   8.103 -0.9590 -0.8853  0.6211
  886MOL0     C19518   7.009   8.211   8.095  0.9894  0.4502  0.0929
  886MOL0     C19519   6.880   8.230   8.016 -0.0242 -1.0903 -0.0538
  886MOL0    Cl19520   6.917   8.240   7.844  0.4143  0.2273  0.0538
  886MOL0     C19521   7.542   8.134   8.663  0.6048 -0.4952 -0.0173
  886MOL0     C19522   7.548   8.230   8.770 -0.2096  0.0574 -0.4288
  886MOL0     O19523   7.684   8.576   8.754 -0.2522  0.3094  0.1138
  886MOL0     C19524   7.708   8.760   8.945 -0.6535  1.2951 -0.4151
  886MOL0     C19525   7.717   8.852   9.046 -0.3854 -0.3649  0.0124
  886MOL0     N19526   7.503   9.160   9.721 -0.7127 -0.1110  0.2214
  886MOL0     N19527   7.518   9.084   9.814  0.0164  0.4721  0.6283
  886MOL0     C19528   7.233   8.757  10.688  0.3367 -0.5023  0.8981
  886MOL0     C19529   7.149   8.732  10.799  0.7195 -0.2135 -0.1071
  886MOL0     C19530   6.961   8.773  11.241  0.7601  0.3523 -0.3739
  886MOL0     C19531   6.875   8.673  11.220  0.1954 -0.4972 -1.0085
  886MOL0     C19532   6.757   8.653  11.296 -0.4091 -0.4650 -0.3063
  886MOL0     C19533   6.737   8.739  11.408  0.4539  0.2073 -0.7545
  886MOL0     O19534   6.619   8.718  11.483  0.5340  0.6525  0.2988
  886MOL0     C19535   6.591   8.794  11.604 -1.0521  0.6326 -0.0962
  886MOL0     C19536   6.682   8.727  11.717 -0.7205  0.1816 -0.3794
  886MOL0     C19537   6.683   8.817  11.840 -0.3220 -0.2219 -0.2341
  886MOL0     C19538   6.820   8.835  11.909 -0.3092  0.2637 -0.6831
  886MOL0     C19539   6.803   8.942  12.019  0.0137  0.5294 -0.0926
  886MOL0     C19540   6.804   9.018  12.115  0.1420 -0.3289 -0.5542
  886MOL0     C19541   6.836   8.829  11.444  0.9272 -0.5692  0.3721
  886MOL0     C19542   6.938   8.859  11.356  0.1392  0.7902  0.9203
  886MOL0     H19543   7.361   8.763  11.057  0.5023  2.8515  0.6009
  886MOL0     H19544   7.515   8.802  10.868 -0.2937  0.2034  2.2400
  886MOL0     H19545   7.324   8.929  10.528 -2.0388 -2.7616  0.1077
  886MOL0     H19546   7.466   9.008  10.576 -1.8135  1.4793 -2.1800
  886MOL0     H19547   7.498   8.991  10.348 -0.2586 -1.5361 -3.4354
  886MOL0     H19548   7.605   8.864  10.414  0.9381  2.7612  1.0291
  886MOL0     H19549   7.466   8.675  10.364 -4.0847 -2.9637 -2.0664
  886MOL0     H19550   7.341   8.781  10.311  0.3993 -1.4962 -1.0359
  886MOL0     H19551   7.448   8.687  10.112 -1.6351  1.0545  0.0838
  886MOL0     H19552   7.487   8.860  10.118 -1.1010 -0.7308  0.2988
  886MOL0     H19553   7.700   8.835  10.205  1.5131  2.0897  0.1543
  886MOL0     H19554   7.669   8.657  10.230 -3.9361 -0.5020 -0.6781
  886MOL0     H19555   7.812   8.719  10.019  0.2945  0.0433 -2.3072
  886MOL0     H19556   7.668   8.617  10.001 -2.8882  0.1228  2.9370
  886MOL0     H19557   7.665   8.756   9.824 -4.4814 -0.6981 -0.4099
  886MOL0     H19558   7.537   8.819   9.914 -0.8269 -1.0036 -1.5543
  886MOL0     H19559   7.808   8.953   9.906  0.4648 -1.0946 -0.5834
  886MOL0     H19560   7.681   8.998  10.018 -1.0939  1.0285  0.3851
  886MOL0     H19561   7.816   9.091   9.681 -0.4926  1.9866 -4.6762
  886MOL0     H19562   7.542   9.336   9.517 -0.7040 -1.0849 -0.7219
  886MOL0     H19563   7.713   9.335   9.553 -0.5818 -0.9883  0.5673
  886MOL0     H19564   7.624   9.273   9.324  0.9583 -1.4342 -1.5910
  886MOL0     H19565   7.570   9.117   9.404  0.3991 -0.1242  3.1708
  886MOL0     H19566   7.809   9.066   9.455  5.8548  4.0425  0.2345
  886MOL0     H19567   7.856   9.201   9.365  0.5373  0.0095  2.4375
  886MOL0     H19568   7.861   9.006   9.236  0.2823  1.1929 -1.4707
  886MOL0     H19569   7.723   9.095   9.159 -0.6757 -0.1972 -0.7115
  886MOL0     H19570   7.586   8.715   9.303  1.0336 -3.0480 -1.3140
  886MOL0     H19571   7.495   8.421   9.079 -0.7048  0.5126 -0.0191
  886MOL0     H19572   7.612   8.419   9.204  1.8351  1.2497 -2.1332
  886MOL0     H19573   7.457   8.501   9.224 -2.4786 -3.3187 -2.3222
  886MOL0     H19574   7.857   8.349   8.747  0.3786  1.5063 -2.0317
  886MOL0     H19575   7.846   8.171   8.539 -0.6535 -0.6522 -0.7127
  886MOL0     H19576   7.584   7.875   8.371 -0.0222  1.3982 -0.1803
  886MOL0     H19577   7.485   7.932   8.517 -0.4374  4.7420  1.7380
  886MOL0     H19578   7.376   8.104   8.406  0.2735  3.4295 -2.1977
  886MOL0     H19579   7.485   8.102   8.266 -1.6228  0.1227 -0.2851
  886MOL0     H19580   7.281   7.898   8.348 -1.1247  1.9197 -0.1872
  886MOL0     H19581   7.399   7.874   8.221 -2.2097 -0.4620 -0.7554
  886MOL0     H19582   7.301   8.119   8.142 -1.3555 -0.3868 -1.0196
  886MOL0     H19583   7.274   7.975   8.072 -0.9626 -2.0972 -0.0430
  886MOL0     H19584   7.107   8.087   8.301 -2.4137  0.7458 -0.7520
  886MOL0     H19585   7.098   7.916   8.241  2.2773 -1.4884 -2.5179
  886MOL0     H19586   7.048   8.006   8.008 -1.5566  2.1596 -1.2007
  886MOL0     H19587   6.929   8.006   8.134 -0.8931 -1.6976 -0.3905
  886MOL0     H19588   7.091   8.246   8.031  2.1067 -1.2058  0.5391
  886MOL0     H19589   6.993   8.263   8.189 -0.3985  1.5530 -0.7195
  886MOL0     H19590   6.845   8.325   8.058 -1.1579 -0.9957 -1.1494
  886MOL0     H19591   6.806   8.151   8.034 -1.1367  0.1632  1.1639
  886MOL0     H19592   7.465   8.058   8.652 -0.4134  0.2280  1.6440
  886MOL0     H19593   7.465   8.222   8.840  1.5895 -1.2676  1.6639
  886MOL0     H19594   7.762   8.796   8.858 -1.6943  0.3743 -1.4656
  886MOL0     H19595   7.760   8.951   9.027  2.8975 -1.8983 -1.5039
  886MOL0     H19596   7.195   8.755  10.586  0.2712  1.1015  0.8592
  886MOL0     H19597   7.051   8.696  10.771  0.8561  0.0944 -1.0162
  886MOL0     H19598   6.885   8.597  11.143 -0.7182 -1.1782 -0.4801
  886MOL0     H19599   6.687   8.571  11.283  1.7451 -2.7219  1.4280
  886MOL0     H19600   6.616   8.900  11.592  0.5649  0.6889  2.9149
  886MOL0     H19601   6.484   8.791  11.624 -0.9925 -2.4601  0.2668
  886MOL0     H19602   6.780   8.714  11.670 -0.6093  0.3671 -0.1997
  886MOL0     H19603   6.653   8.626  11.747  0.7403 -0.3448 -0.6611
  886MOL0     H19604   6.619   8.769  11.915  0.2304  2.0961  1.8729
  886MOL0     H19605   6.635   8.911  11.810  1.3897  0.4502 -1.0228
  886MOL0     H19606   6.894   8.875  11.839  0.8752 -0.9429 -0.1678
  886MOL0     H19607   6.872   8.746  11.944  2.1542  1.1089 -1.9383
  886MOL0     H19608   6.826   9.086  12.195 -0.7261 -1.1222  0.3869
  886MOL0     H19609   6.841   8.893  11.532  0.8361  1.6439 -1.1419
  886MOL0     H19610   7.017   8.930  11.378  2.9711 -1.3741 -1.2896
  887MOL0     O19611   8.257   6.251   8.047  0.4021 -0.4599  0.1815
  887MOL0     C19612   8.373   6.262   8.070  0.9287  1.2829  0.3179
  887MOL0     O19613   8.425   6.300   8.185 -0.1486  0.2590 -0.3043
  887MOL0     C19614   8.337   6.343   8.288  0.5407  0.0890 -0.0017
  887MOL0     C19615   8.332   6.284   8.409  0.0827  0.3608 -0.4721
  887MOL0     C19616   8.241   6.327   8.511 -0.8987  0.5597  0.3235
  887MOL0     C19617   8.149   6.432   8.490 -0.9390  0.3013  0.1638
  887MOL0     O19618   8.066   6.459   8.591 -0.0965  0.1458 -0.5269
  887MOL0     C19619   7.953   6.540   8.568 -0.4421 -0.3965  0.2553
  887MOL0     C19620   7.877   6.551   8.701 -0.0674 -0.4914  0.0937
  887MOL0     C19621   7.803   6.415   8.734 -0.6951  0.5103  0.5479
  887MOL0     C19622   7.764   6.426   8.887  1.0279  0.5423 -0.5564
  887MOL0     C19623   7.678   6.300   8.924 -0.2940  0.1323 -0.3670
  887MOL0     C19624   7.622   6.307   9.069  1.0781 -1.0493  0.2067
  887MOL0     C19625   7.542   6.190   9.102 -0.0309 -0.1796  0.1337
  887MOL0     C19626   7.468   6.214   9.238  1.0429  0.4112  0.0574
  887MOL0     N19627   7.458   6.078   9.309  0.3269  0.3672 -0.3470
  887MOL0     C19628   7.382   5.975   9.273 -0.5343 -1.4871  0.8208
  887MOL0     C19629   7.391   5.892   9.374 -0.1613  0.4353 -0.5276
  887MOL0     C19630   7.314   5.763   9.372  1.2186 -0.5094 -0.5095
  887MOL0     C19631   7.398   5.638   9.374  1.0605 -0.1060 -0.0705
  887MOL0     C19632   7.322   5.506   9.400 -1.0645 -0.2877  0.1150
  887MOL0     C19633   7.220   5.472   9.293  1.4489 -0.1558 -0.3324
  887MOL0     O19634   7.274   5.438   9.171  0.3543  0.2763 -0.0075
  887MOL0     C19635   7.203   5.355   9.079 -0.0215  0.3388  0.5143
  887MOL0     C19636   7.286   5.311   8.974  0.2450  0.3580 -0.7199
  887MOL0     C19637   7.231   5.239   8.864  0.2408 -1.0028 -0.7957
  887MOL0     C19638   7.320   5.201   8.752 -0.2539  0.8778  0.2869
  887MOL0     C19639   7.109   5.181   8.884 -0.4416 -0.1999  0.4267
  887MOL0     C19640   7.056   5.082   8.788  0.4069  0.1793  0.5204
  887MOL0     O19641   7.058   5.119   8.659 -0.1283 -0.0524  0.2689
  887MOL0     C19642   6.999   5.038   8.573 -0.3652 -0.4404  0.8350
  887MOL0     C19643   7.036   4.906   8.560 -1.0643  0.4487  0.1648
  887MOL0     C19644   6.964   4.828   8.464  0.3668  0.2051 -0.2192
  887MOL0     C19645   6.853   4.884   8.390 -1.1003  0.7287  0.2017
  887MOL0     O19646   6.761   4.819   8.313  0.2957  0.1083 -0.4670
  887MOL0     C19647   6.691   4.695   8.359  0.5958  0.3313 -0.2966
  887MOL0     C19648   6.676   4.588   8.252 -0.3007 -0.7090 -1.1598
  887MOL0     C19649   6.813   4.577   8.198 -0.4033 -0.4312 -0.0573
  887MOL0     C19650   6.809   4.525   8.053  0.1808 -0.4916  0.1065
  887MOL0     C19651   6.951   4.509   7.991  0.2667 -0.6296 -0.6328
  887MOL0     C19652   6.959   4.430   7.865  0.0270 -0.6026  0.5960
  887MOL0     C19653   6.989   4.282   7.872  0.0119 -0.0156 -0.5444
  887MOL0     C19654   6.972   4.214   7.739  0.5143  0.6176 -0.3326
  887MOL0    Cl19655   7.092   4.290   7.633  0.0799 -0.0110 -0.5245
  887MOL0     C19656   6.817   5.012   8.417 -0.7804  0.7857 -0.2775
  887MOL0     C19657   6.885   5.090   8.507 -0.5369  0.0635 -0.3119
  887MOL0     O19658   7.010   4.972   8.836  0.0449  0.5242 -0.1623
  887MOL0     C19659   7.025   5.216   8.988  0.2700  0.3163 -0.2620
  887MOL0     C19660   7.068   5.309   9.083 -0.0316 -0.5581  0.0611
  887MOL0     N19661   7.498   5.930   9.454  0.4472  0.0397  0.0575
  887MOL0     N19662   7.541   6.043   9.411  1.3255 -0.4272 -0.2096
  887MOL0     C19663   8.147   6.479   8.352 -0.1699  0.1988 -0.0530
  887MOL0     C19664   8.243   6.449   8.262  0.8769  1.0184 -1.0894
  887MOL0     C19665   8.470   6.220   7.964  0.1750 -0.7595  0.6509
  887MOL0     C19666   8.604   6.250   7.968 -0.4815 -1.4451  0.5679
  887MOL0     C19667   8.690   6.227   7.861 -0.8754  0.4817 -0.3294
  887MOL0     C19668   8.654   6.150   7.756 -0.5220  1.1356  0.2060
  887MOL0     O19669   8.742   6.107   7.653  0.6487 -0.5683  0.3666
  887MOL0     C19670   8.879   6.138   7.668  0.3949  0.4894 -0.2012
  887MOL0     C19671   8.964   6.034   7.743 -0.7753  0.4250  0.9924
  887MOL0     C19672   9.003   6.064   7.886  0.3892 -0.4185 -0.3544
  887MOL0     C19673   9.104   5.962   7.939 -0.3459  0.2182 -0.5993
  887MOL0     C19674   9.061   5.827   7.947 -0.7753  0.1348  0.0003
  887MOL0     C19675   9.022   5.712   7.959 -0.6336 -0.1398 -0.9037
  887MOL0     C19676   8.522   6.104   7.758 -1.0617  0.2784 -0.1116
  887MOL0     C19677   8.425   6.145   7.854 -0.0209 -1.2175 -0.8114
  887MOL0     H19678   8.403   6.208   8.441 -1.2740 -0.7413  0.0785
  887MOL0     H19679   8.245   6.282   8.609 -0.2352 -2.1271 -0.8592
  887MOL0     H19680   7.976   6.645   8.547 -0.7281 -0.3493  0.1680
  887MOL0     H19681   7.890   6.495   8.491 -2.1243 -2.3676  2.6057
  887MOL0     H19682   7.949   6.559   8.783 -1.5303  3.5679  1.2125
  887MOL0     H19683   7.807   6.635   8.701 -0.2968 -0.6259 -2.0200
  887MOL0     H19684   7.709   6.401   8.679 -0.0762  0.5706 -0.5503
  887MOL0     H19685   7.865   6.326   8.723 -1.5578  0.2142 -4.2502
  887MOL0     H19686   7.860   6.444   8.935  1.9323  1.1073 -2.4699
  887MOL0     H19687   7.696   6.509   8.907 -1.9250 -1.9620  0.5475
  887MOL0     H19688   7.599   6.316   8.850 -0.2129 -1.7576 -0.9118
  887MOL0     H19689   7.742   6.213   8.904 -0.0790  0.3980 -0.8338
  887MOL0     H19690   7.699   6.311   9.147  2.7086  3.2643 -1.3291
  887MOL0     H19691   7.567   6.401   9.085  2.8651  0.0880 -0.0649
  887MOL0     H19692   7.459   6.177   9.031 -0.6741  0.0806  0.8325
  887MOL0     H19693   7.603   6.099   9.106  1.0097  0.5368  0.8924
  887MOL0     H19694   7.366   6.246   9.216  1.5195  2.3190  0.4814
  887MOL0     H19695   7.517   6.293   9.295 -0.0693 -0.1047  1.8320
  887MOL0     H19696   7.320   5.960   9.185 -1.2711  0.3298  0.9794
  887MOL0     H19697   7.249   5.745   9.458  1.1941 -5.3228 -1.2651
  887MOL0     H19698   7.259   5.763   9.278  1.9596  0.3459 -0.9555
  887MOL0     H19699   7.460   5.650   9.463  3.0747 -3.3320 -0.9066
  887MOL0     H19700   7.467   5.635   9.290  0.8323 -3.1338 -0.2571
  887MOL0     H19701   7.276   5.520   9.498  2.4901 -0.1974  1.9366
  887MOL0     H19702   7.392   5.423   9.407 -1.6499 -0.7228  0.9679
  887MOL0     H19703   7.145   5.550   9.278  1.5957 -0.1577 -1.0743
  887MOL0     H19704   7.157   5.389   9.328 -2.3571  2.2863 -0.7287
  887MOL0     H19705   7.393   5.327   8.984  0.4591 -1.7838  1.3673
  887MOL0     H19706   7.299   5.237   8.651 -2.6329 -1.8853 -0.3332
  887MOL0     H19707   7.424   5.229   8.775 -0.1257  1.4690 -0.9495
  887MOL0     H19708   7.324   5.092   8.743 -0.7016  1.0103 -2.1758
  887MOL0     H19709   7.116   4.848   8.604 -1.8432 -1.3250 -0.6446
  887MOL0     H19710   6.991   4.724   8.457  2.9410  0.8479 -0.8345
  887MOL0     H19711   6.743   4.642   8.440 -0.7678  0.0936  0.4532
  887MOL0     H19712   6.591   4.721   8.396  1.6062  0.1674  2.8105
  887MOL0     H19713   6.627   4.500   8.295 -4.5264  0.4276 -3.1616
  887MOL0     H19714   6.606   4.638   8.185 -2.2701  1.4566  2.2335
  887MOL0     H19715   6.875   4.513   8.261  1.0279 -2.0985 -2.9954
  887MOL0     H19716   6.857   4.677   8.190 -1.8287  0.3190  0.9540
  887MOL0     H19717   6.759   4.427   8.052 -1.1323  0.1512 -1.5610
  887MOL0     H19718   6.758   4.594   7.985  0.4836  0.2525  0.6208
  887MOL0     H19719   7.009   4.447   8.060 -0.0117 -0.8295 -0.5757
  887MOL0     H19720   6.999   4.607   7.985  2.9865 -1.5085  3.2401
  887MOL0     H19721   6.865   4.450   7.812 -0.3531  0.9460  1.7771
  887MOL0     H19722   7.040   4.482   7.814  0.2153 -0.9909  0.5008
  887MOL0     H19723   6.916   4.239   7.942 -0.4294  0.5649 -0.6365
  887MOL0     H19724   7.087   4.263   7.917 -1.8911 -0.9449  3.6961
  887MOL0     H19725   6.879   4.229   7.684 -0.3250  2.2822  1.4143
  887MOL0     H19726   6.986   4.107   7.757 -0.1886  0.5832  0.0570
  887MOL0     H19727   6.732   5.058   8.367 -0.9154  0.6444 -0.1770
  887MOL0     H19728   6.853   5.191   8.533 -1.1228  0.2155 -1.5322
  887MOL0     H19729   6.932   5.162   9.001  1.7750 -2.4993 -0.2598
  887MOL0     H19730   6.993   5.332   9.157  0.3514 -2.2592  1.0199
  887MOL0     H19731   8.092   6.570   8.334  2.8027  2.4136  1.1864
  887MOL0     H19732   8.235   6.499   8.166 -1.7756  3.6908  0.3670
  887MOL0     H19733   8.624   6.305   8.060 -1.0195 -2.4257  1.2837
  887MOL0     H19734   8.793   6.260   7.868 -1.1364  1.6950 -1.7148
  887MOL0     H19735   8.923   6.129   7.568  0.9731 -1.6124  0.1750
  887MOL0     H19736   8.898   6.238   7.709 -0.6066  0.8828 -0.6658
  887MOL0     H19737   9.056   6.015   7.686 -0.0637  2.4251  1.3791
  887MOL0     H19738   8.916   5.936   7.734 -1.6423  0.8019  1.4657
  887MOL0     H19739   8.919   6.059   7.956 -1.8904  1.4426 -2.7649
  887MOL0     H19740   9.039   6.167   7.889  1.6245 -0.8458  0.8020
  887MOL0     H19741   9.157   5.989   8.031  0.0228  1.6897 -1.2207
  887MOL0     H19742   9.182   5.956   7.862 -2.7971  0.7368 -3.2761
  887MOL0     H19743   8.981   5.613   7.953 -2.1547  0.3454  0.5772
  887MOL0     H19744   8.488   6.044   7.674 -3.3782 -0.1946  1.0928
  887MOL0     H19745   8.321   6.113   7.847 -1.1562  2.2248 -1.9861
  888MOL0     O19746  11.152   7.081   5.192  0.4192 -0.8298  0.8109
  888MOL0     C19747  11.139   6.964   5.190  0.3699  0.6802 -0.8427
  888MOL0     O19748  11.106   6.877   5.083 -0.0216  0.3843  0.4052
  888MOL0     C19749  11.064   6.914   4.956 -0.2030 -1.0491 -0.1515
  888MOL0     C19750  11.066   6.817   4.856 -0.2058 -0.9386  1.1162
  888MOL0     C19751  11.018   6.830   4.730  1.1520 -0.6936  0.1298
  888MOL0     C19752  10.950   6.948   4.691 -0.4868  0.7031 -0.2428
  888MOL0     O19753  10.882   6.971   4.562 -0.9563  0.3511  0.0026
  888MOL0     C19754  10.889   6.859   4.472  0.9934  0.0301 -0.2567
  888MOL0     C19755  10.778   6.888   4.370 -0.8557 -0.5240  0.5094
  888MOL0     C19756  10.803   6.796   4.237  0.5576  0.1607 -0.0761
  888MOL0     C19757  10.802   6.888   4.117 -0.5677  0.2921  0.1611
  888MOL0     C19758  10.863   6.823   3.986 -0.1644 -0.4585 -0.4517
  888MOL0     C19759  10.792   6.702   3.936  0.2104  1.1031  1.1444
  888MOL0     C19760  10.852   6.660   3.804 -0.0154  0.8068 -0.8813
  888MOL0     C19761  10.805   6.512   3.772 -0.3809  0.9280 -0.0714
  888MOL0     N19762  10.662   6.509   3.729 -0.2841 -0.6241  0.2903
  888MOL0     C19763  10.620   6.584   3.625  0.1552  0.1140  0.2794
  888MOL0     C19764  10.485   6.566   3.635  0.5902 -0.3930 -0.3994
  888MOL0     C19765  10.389   6.621   3.532  0.4891  0.0563 -0.0808
  888MOL0     C19766  10.259   6.674   3.601 -0.3323 -0.5991 -0.0166
  888MOL0     C19767  10.261   6.825   3.632  0.8367  0.1679  0.1714
  888MOL0     C19768  10.364   6.868   3.733  0.7810  0.4711 -0.5296
  888MOL0     O19769  10.359   7.006   3.753  0.8060 -0.6987  0.0165
  888MOL0     C19770  10.395   7.055   3.874  0.2425  1.0890 -0.3715
  888MOL0     C19771  10.363   7.184   3.898  0.0581 -0.1380 -0.7487
  888MOL0     C19772  10.379   7.244   4.026  0.4044 -0.7188  0.4453
  888MOL0     C19773  10.354   7.399   4.039  0.4205  0.5552 -0.0615
  888MOL0     C19774  10.427   7.169   4.132 -0.1488 -0.2009  0.9576
  888MOL0     C19775  10.409   7.200   4.274 -0.2923  1.0611 -0.6391
  888MOL0     O19776  10.424   7.330   4.302  0.3106  0.5439  0.7580
  888MOL0     C19777  10.452   7.377   4.426 -0.4218 -0.6459 -0.4888
  888MOL0     C19778  10.421   7.511   4.450  0.6296  0.6527 -0.0738
  888MOL0     C19779  10.419   7.560   4.580  0.5890 -0.8318  0.6602
  888MOL0     C19780  10.460   7.493   4.689  0.2042 -0.0307  0.4574
  888MOL0     O19781  10.447   7.556   4.808  0.5480  0.2114  0.2466
  888MOL0     C19782  10.557   7.637   4.849 -0.1916  0.1052  0.6291
  888MOL0     C19783  10.569   7.621   5.000 -0.1567  0.6152 -0.7294
  888MOL0     C19784  10.437   7.621   5.076  0.9644  1.1411  0.5301
  888MOL0     C19785  10.333   7.724   5.036  0.5104 -0.4281 -0.1205
  888MOL0     C19786  10.200   7.709   5.119  0.5053 -0.3053 -0.5029
  888MOL0     C19787  10.110   7.583   5.112  0.2131  0.7645  0.8892
  888MOL0     C19788   9.964   7.603   5.158 -0.2108  0.2964  0.0408
  888MOL0     C19789   9.870   7.491   5.113  0.6007 -0.4943  0.3087
  888MOL0    Cl19790   9.923   7.342   5.202  0.2551 -0.5658 -0.1551
  888MOL0     C19791  10.521   7.369   4.657 -0.9642 -0.3223 -0.5359
  888MOL0     C19792  10.510   7.305   4.538  0.4129 -0.4571 -0.1933
  888MOL0     O19793  10.398   7.103   4.355 -0.2793  0.0976  0.1194
  888MOL0     C19794  10.464   7.035   4.107 -0.2204 -0.8691 -0.7320
  888MOL0     C19795  10.464   6.986   3.972 -0.3103 -0.1705 -0.5357
  888MOL0     N19796  10.450   6.476   3.743 -0.6057  0.0804 -0.2291
  888MOL0     N19797  10.562   6.456   3.810  0.1504 -0.5457  0.2054
  888MOL0     C19798  10.946   7.046   4.796  1.2323  0.2824 -0.5659
  888MOL0     C19799  11.001   7.028   4.923 -0.1686 -0.6153 -0.0805
  888MOL0     C19800  11.152   6.899   5.319  0.8159  0.1893 -0.9649
  888MOL0     C19801  11.134   6.760   5.325 -0.9301  1.2816 -0.5042
  888MOL0     C19802  11.141   6.692   5.447 -0.1016  0.2460 -0.1950
  888MOL0     C19803  11.162   6.765   5.565  0.8107  0.8706 -0.9613
  888MOL0     O19804  11.164   6.711   5.692 -0.1487 -0.4612  0.1101
  888MOL0     C19805  11.185   6.567   5.717 -0.3809 -0.5877  0.2322
  888MOL0     C19806  11.293   6.557   5.823  0.5236 -0.2651 -0.8579
  888MOL0     C19807  11.328   6.400   5.844 -0.9273  0.4846  0.4400
  888MOL0     C19808  11.457   6.388   5.920  0.6357  0.4807  0.7686
  888MOL0     C19809  11.464   6.247   5.954 -0.4793 -0.3705 -0.6037
  888MOL0     C19810  11.461   6.132   5.975 -0.2696 -0.6688  0.8229
  888MOL0     C19811  11.171   6.906   5.559 -0.1620  0.5185  0.3902
  888MOL0     C19812  11.170   6.978   5.434  0.0648  0.0015  0.4920
  888MOL0     H19813  11.103   6.716   4.870  4.4052 -0.4694 -4.1151
  888MOL0     H19814  11.019   6.739   4.671 -0.4463 -0.6590 -0.0061
  888MOL0     H19815  10.983   6.849   4.417  0.1127 -2.5258 -1.4490
  888MOL0     H19816  10.864   6.769   4.528 -0.4939 -0.0290 -0.9530
  888MOL0     H19817  10.677   6.886   4.413 -0.6172  2.8005  1.4798
  888MOL0     H19818  10.784   6.994   4.343 -3.0699 -0.3912  0.3653
  888MOL0     H19819  10.899   6.746   4.255 -0.3695 -2.2027 -1.2073
  888MOL0     H19820  10.732   6.712   4.229  0.4262  0.2536  0.1025
  888MOL0     H19821  10.701   6.924   4.092 -1.0996 -1.1958  0.0957
  888MOL0     H19822  10.868   6.974   4.130  1.3268 -0.9895 -0.5118
  888MOL0     H19823  10.866   6.906   3.915 -2.4973  0.4918  0.4919
  888MOL0     H19824  10.966   6.790   4.007 -0.6867 -1.1312  1.1628
  888MOL0     H19825  10.811   6.628   4.014  0.6901  3.8996  3.9273
  888MOL0     H19826  10.688   6.737   3.927  0.7023  2.5780  0.8467
  888MOL0     H19827  10.818   6.730   3.727  0.1152 -1.9574 -3.6409
  888MOL0     H19828  10.961   6.661   3.812  0.1994 -2.6600 -2.0102
  888MOL0     H19829  10.811   6.448   3.860  6.7504  1.1402  0.1573
  888MOL0     H19830  10.855   6.461   3.690 -1.4953 -0.5481  0.1218
  888MOL0     H19831  10.688   6.636   3.559  1.1727 -1.4393  0.0401
  888MOL0     H19832  10.438   6.691   3.464 -2.2983  0.9370 -1.3515
  888MOL0     H19833  10.363   6.535   3.471  0.0146  1.1313 -1.4514
  888MOL0     H19834  10.236   6.620   3.693 -4.2517 -1.1414 -1.0991
  888MOL0     H19835  10.166   6.671   3.543  0.5081 -1.8727 -1.3615
  888MOL0     H19836  10.163   6.840   3.677  0.6421 -0.3577 -0.0694
  888MOL0     H19837  10.264   6.887   3.541 -0.8242  0.6436  0.4063
  888MOL0     H19838  10.461   6.834   3.695 -0.3330 -3.1124 -0.5878
  888MOL0     H19839  10.346   6.814   3.827 -1.9602 -2.9176 -2.7475
  888MOL0     H19840  10.334   7.236   3.807  3.8024 -1.0731 -2.6811
  888MOL0     H19841  10.445   7.449   4.072  1.7758 -2.1271  0.5424
  888MOL0     H19842  10.339   7.431   3.935 -1.0995  0.9853  0.2621
  888MOL0     H19843  10.268   7.425   4.102  0.8900  1.8200  0.1003
  888MOL0     H19844  10.363   7.562   4.374  2.3544 -1.5376 -3.0521
  888MOL0     H19845  10.374   7.657   4.599 -0.5206 -0.9759 -0.9700
  888MOL0     H19846  10.657   7.609   4.815  0.0509  1.8096 -0.1612
  888MOL0     H19847  10.545   7.743   4.822  2.4395 -0.2173 -2.3247
  888MOL0     H19848  10.613   7.522   5.019 -1.4080  0.2639  0.5740
  888MOL0     H19849  10.638   7.696   5.039 -0.9366  1.0916 -0.2493
  888MOL0     H19850  10.448   7.625   5.185 -0.6899 -0.8281  0.8309
  888MOL0     H19851  10.390   7.524   5.055  1.6381  0.1995  3.0306
  888MOL0     H19852  10.373   7.823   5.060  3.1211 -2.2699  4.4002
  888MOL0     H19853  10.292   7.723   4.934  1.6235  2.3107 -0.6826
  888MOL0     H19854  10.136   7.794   5.094  1.2621  0.5397  0.3630
  888MOL0     H19855  10.236   7.715   5.222  4.0245  2.2183 -1.7080
  888MOL0     H19856  10.110   7.571   5.003  0.0663  5.9975  0.0597
  888MOL0     H19857  10.156   7.495   5.158  0.6533 -0.7962 -2.2682
  888MOL0     H19858   9.931   7.700   5.121 -0.9318  0.6544  1.5540
  888MOL0     H19859   9.953   7.597   5.267  0.3626  0.4042  0.1072
  888MOL0     H19860   9.870   7.488   5.004  2.5628  0.4480  0.2456
  888MOL0     H19861   9.768   7.507   5.151  0.6675  1.0669 -0.0824
  888MOL0     H19862  10.563   7.312   4.739  2.6704 -0.3187 -2.1517
  888MOL0     H19863  10.546   7.203   4.532  3.3401  0.4676  0.1027
  888MOL0     H19864  10.500   6.968   4.185 -0.7865 -1.2726 -0.8127
  888MOL0     H19865  10.496   6.882   3.961  2.4609  0.6044 -0.6626
  888MOL0     H19866  10.885   7.136   4.792 -0.1900 -0.2772  3.7091
  888MOL0     H19867  10.981   7.105   4.997 -0.5374 -0.1490 -0.6626
  888MOL0     H19868  11.124   6.708   5.231 -1.0937  2.3842 -1.1127
  888MOL0     H19869  11.126   6.585   5.452 -0.4747  0.3597  3.6048
  888MOL0     H19870  11.092   6.517   5.747  0.3997 -1.9349  0.4756
  888MOL0     H19871  11.202   6.522   5.619  1.6680 -1.3814  0.9033
  888MOL0     H19872  11.238   6.595   5.910  0.0606 -1.0080 -0.8161
  888MOL0     H19873  11.383   6.617   5.805  0.7415 -0.9760 -2.2210
  888MOL0     H19874  11.342   6.359   5.743 -2.1537  2.9667 -0.8358
  888MOL0     H19875  11.241   6.352   5.889 -1.7548  1.4309 -0.1135
  888MOL0     H19876  11.448   6.444   6.014 -0.5147  0.5919  0.6018
  888MOL0     H19877  11.544   6.417   5.861 -1.0466  1.4248 -1.3985
  888MOL0     H19878  11.472   6.026   5.988  1.2675 -0.7376 -0.7074
  888MOL0     H19879  11.182   6.970   5.646  1.2525  0.8784 -0.0356
  888MOL0     H19880  11.169   7.085   5.420 -0.1962  0.1886  1.7944
  889MOL0     O19881   1.287   8.082   0.135  0.6341  0.1251  0.8074
  889MOL0     C19882   1.268   8.001   0.231 -0.7836  0.3730  1.0159
  889MOL0     O19883   1.371   7.951   0.303 -1.1016 -0.3511 -0.5630
  889MOL0     C19884   1.497   8.009   0.279  0.8339 -0.6559  0.0216
  889MOL0     C19885   1.547   8.097   0.373 -0.6176 -0.7735  0.6862
  889MOL0     C19886   1.685   8.149   0.359 -0.0377  0.9740 -0.0439
  889MOL0     C19887   1.767   8.096   0.252 -0.2646 -0.0022 -0.1046
  889MOL0     O19888   1.910   8.125   0.261  0.6531  0.2349  0.7230
  889MOL0     C19889   2.004   8.088   0.156  0.9656 -0.8272  0.9708
  889MOL0     C19890   2.140   8.070   0.224  0.2548 -0.6761 -0.6513
  889MOL0     C19891   2.212   8.204   0.280  0.4211 -0.3315 -0.0523
  889MOL0     C19892   2.301   8.196   0.410 -0.0854  0.4848  0.2559
  889MOL0     C19893   2.337   8.328   0.474 -0.6282 -0.5281  0.1243
  889MOL0     C19894   2.449   8.399   0.384  1.1095 -0.6177  0.1494
  889MOL0     C19895   2.535   8.494   0.467 -0.0278 -0.6835 -0.4242
  889MOL0     C19896   2.463   8.609   0.518 -0.1215 -1.0379  0.4638
  889MOL0     N19897   2.501   8.645   0.660 -0.1554  0.2718  0.4927
  889MOL0     C19898   2.421   8.601   0.768  1.3374 -0.0839 -0.5824
  889MOL0     C19899   2.460   8.676   0.873 -1.2252 -0.0681  0.0638
  889MOL0     C19900   2.399   8.681   1.010  0.7823  0.3180 -0.1314
  889MOL0     C19901   2.299   8.794   1.015  0.1816  1.5730 -1.4654
  889MOL0     C19902   2.272   8.811   1.165  0.1161 -0.0670  0.7681
  889MOL0     C19903   2.199   8.941   1.187 -0.3709 -1.3002  0.1443
  889MOL0     O19904   2.080   8.935   1.120  0.0300  0.0527  0.8107
  889MOL0     C19905   1.991   9.035   1.160 -0.3268  0.0247  0.3266
  889MOL0     C19906   1.866   9.010   1.228 -0.9095 -0.2945  0.2317
  889MOL0     C19907   1.783   9.101   1.263  0.9589 -0.1848 -0.7929
  889MOL0     C19908   1.648   9.054   1.311  0.2648  0.0679 -0.3066
  889MOL0     C19909   1.818   9.239   1.239  1.0559  0.4370 -1.2492
  889MOL0     C19910   1.726   9.345   1.281 -0.5027 -0.3813  0.1847
  889MOL0     O19911   1.777   9.465   1.337 -0.8869  0.3875  0.4253
  889MOL0     C19912   1.690   9.555   1.362 -0.0969 -1.2350  0.0731
  889MOL0     C19913   1.661   9.647   1.262  0.1140 -0.0129 -0.4601
  889MOL0     C19914   1.562   9.745   1.272  0.0583  1.2568 -0.6016
  889MOL0     C19915   1.482   9.753   1.391 -0.4285 -0.5455  0.5871
  889MOL0     O19916   1.383   9.849   1.400 -0.0510  0.4370 -0.0283
  889MOL0     C19917   1.370   9.954   1.306 -0.1349  0.3979  0.2925
  889MOL0     C19918   1.253  10.038   1.339  0.5093 -0.5639 -0.3040
  889MOL0     C19919   1.258  10.093   1.485  0.4198 -0.1381 -0.5560
  889MOL0     C19920   1.143  10.179   1.524  0.3999 -0.7028 -0.0610
  889MOL0     C19921   1.035  10.115   1.623  0.0739 -1.6493  0.0995
  889MOL0     C19922   0.944  10.017   1.559 -0.5808  0.3315  0.5855
  889MOL0     C19923   0.828   9.945   1.647 -0.3065 -0.4415  0.7879
  889MOL0     C19924   0.724  10.055   1.680  0.7191  0.7874  0.0421
  889MOL0    Cl19925   0.583   9.964   1.767  0.2273 -0.0440  0.4537
  889MOL0     C19926   1.509   9.660   1.493 -0.4656  0.2638 -1.5810
  889MOL0     C19927   1.611   9.570   1.480 -0.0810  0.4125 -1.0281
  889MOL0     O19928   1.604   9.325   1.272 -0.4268 -0.0429  0.5335
  889MOL0     C19929   1.933   9.273   1.171  0.0939  1.2847  0.0866
  889MOL0     C19930   2.017   9.169   1.124  0.0245  0.2032  0.5844
  889MOL0     N19931   2.564   8.761   0.830  0.1320 -0.6034  0.5303
  889MOL0     N19932   2.586   8.746   0.703 -0.6575  0.0756 -0.2319
  889MOL0     C19933   1.713   8.004   0.153 -0.5136 -0.3685  0.2043
  889MOL0     C19934   1.579   7.960   0.170  0.5118 -0.4039  0.3162
  889MOL0     C19935   1.134   7.960   0.271  0.0746  0.5126 -0.1787
  889MOL0     C19936   1.032   7.963   0.177  0.4018 -0.0790  0.8438
  889MOL0     C19937   0.903   7.917   0.201  0.6044  0.1875  0.9160
  889MOL0     C19938   0.883   7.853   0.329 -0.2943 -0.6725 -0.2775
  889MOL0     O19939   0.769   7.790   0.355  0.6578 -0.0183  0.3999
  889MOL0     C19940   0.759   7.652   0.314 -0.3064  0.0907 -0.1009
  889MOL0     C19941   0.618   7.601   0.275 -1.2442 -0.8082  0.2448
  889MOL0     C19942   0.596   7.657   0.131  0.3283 -0.9739 -0.0631
  889MOL0     C19943   0.457   7.709   0.093  0.4372  0.0393  0.8532
  889MOL0     C19944   0.354   7.611   0.129  1.4188 -0.0174 -0.6346
  889MOL0     C19945   0.276   7.522   0.161 -0.3185  0.6436  0.5783
  889MOL0     C19946   0.993   7.854   0.421  0.1192  0.0354 -0.0918
  889MOL0     C19947   1.110   7.912   0.401  0.1226 -0.1207  0.1374
  889MOL0     H19948   1.482   8.120   0.456  1.2080  1.2106  1.6807
  889MOL0     H19949   1.735   8.223   0.421 -1.9891  3.1299 -0.9142
  889MOL0     H19950   1.975   7.998   0.102  2.1165  1.2467 -3.5611
  889MOL0     H19951   2.008   8.174   0.089  0.0673 -1.4952  0.0406
  889MOL0     H19952   2.139   7.996   0.304  3.7623 -0.4628 -0.2492
  889MOL0     H19953   2.202   8.021   0.148  0.2253 -0.8500 -0.5621
  889MOL0     H19954   2.267   8.232   0.190 -3.0929  0.4080 -2.1736
  889MOL0     H19955   2.138   8.283   0.298  0.3944 -0.7917  2.1395
  889MOL0     H19956   2.236   8.140   0.477 -0.0210  2.0616  1.7063
  889MOL0     H19957   2.382   8.125   0.388 -0.0420  0.0304  1.7921
  889MOL0     H19958   2.253   8.394   0.501 -0.5985 -0.0576 -0.8981
  889MOL0     H19959   2.386   8.307   0.570 -2.1450  1.3695  1.4040
  889MOL0     H19960   2.520   8.333   0.333  1.7882  1.5889 -1.9233
  889MOL0     H19961   2.400   8.460   0.307  1.3205 -0.0593  0.4549
  889MOL0     H19962   2.568   8.435   0.553  2.2559  1.6979  0.4964
  889MOL0     H19963   2.629   8.529   0.421 -1.5819  1.1016 -2.4976
  889MOL0     H19964   2.354   8.606   0.507 -0.4604  0.0126  2.9121
  889MOL0     H19965   2.495   8.696   0.459 -2.0024  0.3405  1.3688
  889MOL0     H19966   2.342   8.527   0.774  0.5161  0.6939 -1.5569
  889MOL0     H19967   2.352   8.584   1.029 -0.2456  0.6055 -1.0811
  889MOL0     H19968   2.475   8.697   1.086 -2.0514 -0.5971  3.1656
  889MOL0     H19969   2.205   8.768   0.966  0.7148 -3.1087 -0.4857
  889MOL0     H19970   2.340   8.883   0.967 -2.3825  3.0857 -1.0380
  889MOL0     H19971   2.370   8.811   1.213  1.7601 -0.8289 -2.3604
  889MOL0     H19972   2.207   8.733   1.206  0.5145 -1.0569 -0.4283
  889MOL0     H19973   2.269   9.013   1.145 -2.3035 -0.1094 -1.1675
  889MOL0     H19974   2.183   8.954   1.295  0.1849  1.0055  0.0036
  889MOL0     H19975   1.849   8.903   1.240 -1.6097 -0.5621 -2.3924
  889MOL0     H19976   1.626   9.121   1.395  2.7281  1.3075 -0.5702
  889MOL0     H19977   1.567   9.068   1.239 -0.4288  3.3587  0.9133
  889MOL0     H19978   1.642   8.947   1.336 -3.9779 -0.6211 -3.1603
  889MOL0     H19979   1.732   9.638   1.180  1.9263  1.3526  0.8817
  889MOL0     H19980   1.546   9.810   1.187 -1.4517 -0.3009 -1.5722
  889MOL0     H19981   1.467  10.003   1.292  1.5736 -2.3908  1.4843
  889MOL0     H19982   1.348   9.924   1.203  1.7686  1.3011 -0.4343
  889MOL0     H19983   1.244  10.129   1.279 -3.3689  0.0931  0.9841
  889MOL0     H19984   1.170   9.968   1.326  1.4871 -2.2522  1.8642
  889MOL0     H19985   1.347  10.151   1.512 -1.8854  4.1528 -1.3775
  889MOL0     H19986   1.273  10.001   1.543  3.0025  0.5012 -0.0780
  889MOL0     H19987   1.175  10.270   1.575 -2.2284  0.3909 -0.1788
  889MOL0     H19988   1.107  10.213   1.426 -0.0845  1.5097  0.8312
  889MOL0     H19989   0.980  10.205   1.652  1.7565  0.4055 -2.5445
  889MOL0     H19990   1.092  10.073   1.707  0.8138  0.4800  0.7370
  889MOL0     H19991   0.910  10.054   1.462 -0.8423 -1.9790 -0.2614
  889MOL0     H19992   1.015   9.938   1.532  0.4329  1.5578 -0.4093
  889MOL0     H19993   0.869   9.899   1.738 -0.8533  1.0479  1.8313
  889MOL0     H19994   0.774   9.865   1.596 -3.0495  2.0031 -0.4348
  889MOL0     H19995   0.691  10.104   1.588  1.5743  0.4385 -0.4675
  889MOL0     H19996   0.768  10.129   1.747 -1.7039 -1.1705  4.1627
  889MOL0     H19997   1.445   9.646   1.580 -1.5091 -1.9017 -2.6228
  889MOL0     H19998   1.635   9.505   1.563 -2.1427  0.4397 -0.3416
  889MOL0     H19999   1.936   9.376   1.138  1.7113  0.9811 -0.8231
  889MOL0     H20000   2.097   9.196   1.056  1.3232  0.3869  2.1277
  889MOL0     H20001   1.783   7.969   0.077 -1.2389 -0.0783 -0.6137
  889MOL0     H20002   1.530   7.891   0.103 -0.4702  0.5747  0.0089
  889MOL0     H20003   1.036   8.015   0.082 -2.2388  1.4592  1.4750
  889MOL0     H20004   0.824   7.917   0.127  0.6943 -4.1247  0.5739
  889MOL0     H20005   0.830   7.624   0.236 -0.0328  1.7210 -0.4739
  889MOL0     H20006   0.778   7.603   0.410 -0.3929 -0.3188 -0.2898
  889MOL0     H20007   0.546   7.651   0.341 -1.8624  2.3555 -2.5473
  889MOL0     H20008   0.615   7.492   0.275  1.1167 -0.9286  1.3805
  889MOL0     H20009   0.622   7.581   0.057 -3.3564 -2.6346  0.1120
  889MOL0     H20010   0.658   7.746   0.116  0.0318 -0.9967 -1.5378
  889MOL0     H20011   0.453   7.730  -0.014 -2.6947 -2.5678  0.3082
  889MOL0     H20012   0.459   7.805   0.146  3.9014  0.5213  0.1276
  889MOL0     H20013   0.207   7.441   0.174  0.0247  0.1254 -0.6566
  889MOL0     H20014   0.974   7.805   0.516  1.9463 -0.0387  0.2695
  889MOL0     H20015   1.174   7.922   0.488 -1.8950 -0.4640  1.7128
  890MOL0     O20016   2.992   0.600   6.251  0.1866 -0.0297 -0.5572
  890MOL0     C20017   3.093   0.667   6.263 -0.2238  0.4031  0.9462
  890MOL0     O20018   3.198   0.648   6.351  0.2583  0.8431  0.6610
  890MOL0     C20019   3.247   0.522   6.382 -0.1394  0.3945 -1.2976
  890MOL0     C20020   3.308   0.529   6.508  0.2063 -0.2755 -0.0625
  890MOL0     C20021   3.356   0.412   6.578  0.3105 -0.6033  1.0050
  890MOL0     C20022   3.313   0.287   6.515 -0.4646  0.1238 -1.2253
  890MOL0     O20023   3.330   0.160   6.577 -0.1935  0.2452 -0.9294
  890MOL0     C20024   3.286   0.151   6.714  0.7625  0.5018  1.3740
  890MOL0     C20025   3.259   0.014   6.761  0.6254  1.0095 -0.2569
  890MOL0     C20026   3.175   0.012   6.892  0.2017  0.5561  0.9211
  890MOL0     C20027   3.121  -0.135   6.917 -0.3341  0.5345  1.0615
  890MOL0     C20028   3.050  -0.148   7.047  0.3276 -0.9906  0.1374
  890MOL0     C20029   2.990  -0.276   7.078  0.5636  0.5185 -0.1357
  890MOL0     C20030   2.840  -0.283   7.125 -0.9150 -0.4927  0.0909
  890MOL0     C20031   2.845  -0.225   7.268 -1.2573  0.5787  0.4474
  890MOL0     N20032   2.763  -0.300   7.361  0.4035 -0.3076 -0.5732
  890MOL0     C20033   2.661  -0.247   7.438 -0.2652  0.0500  0.4592
  890MOL0     C20034   2.583  -0.350   7.482 -0.6130 -0.1130  0.2648
  890MOL0     C20035   2.461  -0.341   7.571 -0.9274  0.4595  1.3178
  890MOL0     C20036   2.338  -0.381   7.489 -0.0582  0.1920 -0.3335
  890MOL0     C20037   2.209  -0.389   7.573 -0.0278  0.1635  0.6301
  890MOL0     C20038   2.094  -0.440   7.492  0.8834 -0.2633  0.4774
  890MOL0     O20039   2.137  -0.563   7.422 -0.1604 -0.8269 -0.2503
  890MOL0     C20040   2.090  -0.560   7.296 -0.5519  0.2043  0.4382
  890MOL0     C20041   1.985  -0.646   7.262  0.1862  0.7187 -0.0750
  890MOL0     C20042   1.927  -0.644   7.137  0.1163  0.2659  0.7305
  890MOL0     C20043   1.793  -0.715   7.126  1.0459 -0.3818  0.3096
  890MOL0     C20044   1.985  -0.574   7.032  0.3644  0.3330 -0.2281
  890MOL0     C20045   1.925  -0.570   6.898 -0.1185  0.8981  2.2613
  890MOL0     O20046   1.997  -0.498   6.809 -0.3101 -0.1262 -0.5013
  890MOL0     C20047   1.956  -0.481   6.679  0.1986  0.7014 -0.5804
  890MOL0     C20048   1.924  -0.593   6.597 -0.4203  0.1551  0.3328
  890MOL0     C20049   1.892  -0.580   6.458 -0.9356  0.4020 -0.4434
  890MOL0     C20050   1.867  -0.448   6.409 -0.8662  0.1341 -0.3776
  890MOL0     O20051   1.838  -0.412   6.282 -1.2691  0.7897  0.2962
  890MOL0     C20052   1.911  -0.483   6.183  0.1402 -0.2668  0.0542
  890MOL0     C20053   1.829  -0.458   6.048  0.1577 -1.2441 -0.7471
  890MOL0     C20054   1.911  -0.483   5.921 -0.1008  0.3448 -0.1875
  890MOL0     C20055   1.865  -0.405   5.794  0.2269  0.4307  0.7638
  890MOL0     C20056   1.726  -0.446   5.746 -0.8051  0.1652 -0.8168
  890MOL0     C20057   1.721  -0.593   5.681  0.0632  0.0271  0.3320
  890MOL0     C20058   1.579  -0.626   5.643 -0.1834  0.0916  0.5387
  890MOL0     C20059   1.554  -0.722   5.525 -0.3559  0.9359 -0.8448
  890MOL0    Cl20060   1.379  -0.803   5.548 -0.1710 -0.6665  0.3832
  890MOL0     C20061   1.899  -0.344   6.490  1.2629  0.1956  0.6318
  890MOL0     C20062   1.939  -0.356   6.626 -0.5122  0.7267 -0.2063
  890MOL0     O20063   1.818  -0.630   6.874 -0.6452  0.5017  0.6012
  890MOL0     C20064   2.101  -0.501   7.058  0.1938  0.6295 -0.3001
  890MOL0     C20065   2.138  -0.490   7.194  0.2353 -1.5218  0.0527
  890MOL0     N20066   2.653  -0.460   7.448 -0.1313  0.4421  0.8759
  890MOL0     N20067   2.755  -0.434   7.382 -0.8511 -0.6414  0.6170
  890MOL0     C20068   3.258   0.272   6.388 -0.3232  0.2962 -0.1272
  890MOL0     C20069   3.224   0.394   6.323  0.4719  0.6552 -0.0229
  890MOL0     C20070   3.108   0.808   6.190  0.7303  0.0136  0.2620
  890MOL0     C20071   3.016   0.834   6.088  0.1287 -0.0791  0.9993
  890MOL0     C20072   3.016   0.956   6.019  0.0640 -0.1077 -0.0279
  890MOL0     C20073   3.113   1.053   6.056 -0.5433  0.4026 -0.5013
  890MOL0     O20074   3.106   1.171   5.989  0.4207  0.1762  0.6959
  890MOL0     C20075   3.220   1.267   5.999  1.0746 -0.2932 -0.6783
  890MOL0     C20076   3.228   1.361   5.877  0.2916 -0.4047  0.4279
  890MOL0     C20077   3.305   1.302   5.750 -0.2713  1.6027  0.5584
  890MOL0     C20078   3.313   1.393   5.638 -0.8609  0.0140  0.2986
  890MOL0     C20079   3.430   1.373   5.549 -0.7286 -0.2042  0.4275
  890MOL0     C20080   3.536   1.342   5.489  0.0961  0.0554 -0.5261
  890MOL0     C20081   3.214   1.013   6.145 -0.2252  1.1606 -0.2837
  890MOL0     C20082   3.212   0.891   6.213 -0.7811  0.1482  0.3495
  890MOL0     H20083   3.317   0.623   6.561  0.3389 -0.6958  0.6751
  890MOL0     H20084   3.409   0.418   6.672 -1.7546 -1.6202  2.3190
  890MOL0     H20085   3.376   0.184   6.765  1.0796  0.3046  0.9440
  890MOL0     H20086   3.193   0.210   6.715 -0.3464 -0.9442 -1.9849
  890MOL0     H20087   3.203  -0.035   6.681  0.5073  3.1709 -1.5632
  890MOL0     H20088   3.356  -0.033   6.782  1.1965  2.3822  0.3079
  890MOL0     H20089   3.247   0.053   6.963  0.1132  3.7212 -0.6308
  890MOL0     H20090   3.091   0.081   6.888 -0.1826  0.5324  4.9762
  890MOL0     H20091   3.054  -0.159   6.833  1.1519  0.4373 -0.1526
  890MOL0     H20092   3.205  -0.205   6.914  0.2840  1.1684  2.6924
  890MOL0     H20093   3.128  -0.118   7.118 -1.1055  0.7810  1.0505
  890MOL0     H20094   2.974  -0.071   7.060  0.8442 -0.7769  2.2148
  890MOL0     H20095   2.985  -0.338   6.988  4.4728  1.7873 -1.4371
  890MOL0     H20096   3.054  -0.335   7.145 -2.5449  0.3026  2.9353
  890MOL0     H20097   2.780  -0.237   7.047 -1.9764 -0.9104  0.6346
  890MOL0     H20098   2.811  -0.388   7.133 -0.6894 -0.4796  1.5399
  890MOL0     H20099   2.826  -0.118   7.257  1.3341  0.8498 -3.4593
  890MOL0     H20100   2.946  -0.235   7.307 -0.6805  1.3607 -0.7823
  890MOL0     H20101   2.636  -0.143   7.457 -1.5881 -0.4969  1.9874
  890MOL0     H20102   2.492  -0.398   7.659  4.5455 -2.0643 -1.7701
  890MOL0     H20103   2.458  -0.236   7.600 -2.1241  1.0899 -0.8746
  890MOL0     H20104   2.360  -0.481   7.449 -1.6694  0.7425 -2.8358
  890MOL0     H20105   2.334  -0.314   7.403  0.5633  0.2908 -0.2928
  890MOL0     H20106   2.188  -0.290   7.613 -1.3598 -0.2903  1.1185
  890MOL0     H20107   2.234  -0.455   7.657  0.0256 -0.9284 -0.2131
  890MOL0     H20108   2.051  -0.357   7.437  0.2126 -0.6609  0.3923
  890MOL0     H20109   2.009  -0.475   7.552  0.1797 -0.7768 -0.7977
  890MOL0     H20110   1.940  -0.707   7.339 -4.5067  4.5651  0.7054
  890MOL0     H20111   1.781  -0.790   7.048  0.1736 -0.2439  0.3102
  890MOL0     H20112   1.776  -0.771   7.219  0.1486  0.2198  0.5230
  890MOL0     H20113   1.712  -0.643   7.114  1.5095  0.3492  1.3664
  890MOL0     H20114   1.951  -0.692   6.633 -4.3505 -1.6399 -1.1250
  890MOL0     H20115   1.873  -0.669   6.398 -3.0864  1.0126 -0.7613
  890MOL0     H20116   2.008  -0.436   6.169 -0.6441  1.3661 -0.1469
  890MOL0     H20117   1.916  -0.592   6.190 -1.4476 -0.3864 -0.1526
  890MOL0     H20118   1.740  -0.521   6.054 -1.7572  1.3823  1.1807
  890MOL0     H20119   1.788  -0.356   6.040  0.5823 -0.9585  0.4646
  890MOL0     H20120   1.921  -0.588   5.893 -0.1523  0.5013 -0.7972
  890MOL0     H20121   2.008  -0.443   5.952 -1.2412  0.3164  3.9931
  890MOL0     H20122   1.863  -0.296   5.803 -0.4859  0.2921  2.8879
  890MOL0     H20123   1.938  -0.427   5.716 -1.6816  1.4375 -1.4213
  890MOL0     H20124   1.715  -0.366   5.672 -0.0313  1.3134  0.2558
  890MOL0     H20125   1.661  -0.436   5.833 -0.2256 -0.7803 -0.2505
  890MOL0     H20126   1.787  -0.599   5.595 -1.3227  1.0464 -0.8586
  890MOL0     H20127   1.748  -0.665   5.759  1.3910  1.5840  1.3734
  890MOL0     H20128   1.525  -0.531   5.633  0.6899  0.8590  2.6668
  890MOL0     H20129   1.540  -0.684   5.727  1.6384 -0.0459  1.3278
  890MOL0     H20130   1.629  -0.801   5.534 -2.8219 -1.4312  0.7235
  890MOL0     H20131   1.573  -0.677   5.428 -0.5264  1.8741 -0.4508
  890MOL0     H20132   1.895  -0.239   6.464 -2.1686 -0.2263 -1.0664
  890MOL0     H20133   1.948  -0.271   6.692  0.9178 -1.0716  2.0736
  890MOL0     H20134   2.161  -0.438   6.993 -0.9934  1.5829 -0.5092
  890MOL0     H20135   2.219  -0.425   7.224 -0.8382 -0.8475  1.6133
  890MOL0     H20136   3.221   0.175   6.356  1.0740  0.3634 -2.0996
  890MOL0     H20137   3.160   0.391   6.235 -0.2262 -2.1894  0.4714
  890MOL0     H20138   2.935   0.763   6.083  1.8006 -2.0921  0.9503
  890MOL0     H20139   2.945   0.986   5.943  0.6991  1.5401 -0.0023
  890MOL0     H20140   3.200   1.335   6.083 -1.8880  1.7431 -2.8663
  890MOL0     H20141   3.317   1.217   6.010  0.4482 -1.0954  2.0145
  890MOL0     H20142   3.287   1.444   5.917 -2.7031  2.2223 -0.1381
  890MOL0     H20143   3.128   1.403   5.862  0.2992  1.6670  4.6148
  890MOL0     H20144   3.235   1.223   5.722  0.6998  0.5497  1.0222
  890MOL0     H20145   3.407   1.273   5.774 -0.8710 -0.5113  0.7802
  890MOL0     H20146   3.285   1.499   5.650 -2.2143 -0.0151 -1.9996
  890MOL0     H20147   3.236   1.353   5.571 -0.5372 -1.4536  0.7798
  890MOL0     H20148   3.637   1.325   5.457  1.3882 -0.0556  3.1420
  890MOL0     H20149   3.298   1.075   6.174  2.3848 -1.7783 -1.0828
  890MOL0     H20150   3.296   0.874   6.279 -0.2400  2.4245  0.3136
  891MOL0     O20151   6.864   8.786   6.300  0.0246  0.2484 -0.0539
  891MOL0     C20152   6.929   8.714   6.223 -0.0325 -0.2033 -0.1598
  891MOL0     O20153   6.897   8.680   6.096 -0.3966 -0.4216  0.4453
  891MOL0     C20154   6.769   8.696   6.055 -0.2076  0.1500 -0.3633
  891MOL0     C20155   6.734   8.764   5.941 -0.5168 -0.7951  0.5620
  891MOL0     C20156   6.604   8.788   5.900 -0.8563  0.4101 -0.9096
  891MOL0     C20157   6.505   8.727   5.979  0.3964 -1.4713  0.3168
  891MOL0     O20158   6.376   8.749   5.952  0.1740  0.1226  0.1875
  891MOL0     C20159   6.338   8.727   5.818 -0.8665  0.7090 -0.6434
  891MOL0     C20160   6.198   8.754   5.783  0.3994 -0.0291  0.2792
  891MOL0     C20161   6.150   8.899   5.803 -0.1663  0.2812 -1.1200
  891MOL0     C20162   5.996   8.904   5.792 -0.5153 -0.1665 -0.2830
  891MOL0     C20163   5.912   8.846   5.901  0.8474  0.6285 -1.3410
  891MOL0     C20164   5.776   8.791   5.857 -0.4236  1.1247 -1.0595
  891MOL0     C20165   5.667   8.901   5.820  0.2015 -0.5101  0.6440
  891MOL0     C20166   5.539   8.824   5.803 -0.5218  0.0479  0.3533
  891MOL0     N20167   5.419   8.914   5.799  0.0519  0.4534 -1.1684
  891MOL0     C20168   5.339   8.945   5.690 -0.0176 -0.5809  0.6966
  891MOL0     C20169   5.228   9.012   5.742 -0.5970  0.3105  0.2670
  891MOL0     C20170   5.107   9.055   5.676 -0.7275 -0.2442 -0.5977
  891MOL0     C20171   5.000   9.097   5.776  0.5869  0.3456  0.4454
  891MOL0     C20172   4.855   9.058   5.708 -0.2767 -0.0974 -0.2706
  891MOL0     C20173   4.805   9.129   5.587  0.2916 -0.3611  0.1241
  891MOL0     O20174   4.800   9.276   5.611  0.7005 -0.0905  0.6386
  891MOL0     C20175   4.695   9.324   5.682  0.2627  0.4608 -0.2110
  891MOL0     C20176   4.575   9.330   5.625  0.4484 -0.1247  0.1507
  891MOL0     C20177   4.469   9.393   5.691 -0.1012 -0.1839 -1.0688
  891MOL0     C20178   4.338   9.392   5.619  0.4540  0.5987 -0.3419
  891MOL0     C20179   4.482   9.446   5.817 -0.2078 -0.7115 -0.5174
  891MOL0     C20180   4.374   9.510   5.892 -1.1900  0.2484 -0.5255
  891MOL0     O20181   4.270   9.564   5.832 -0.2765  0.6336  0.7139
  891MOL0     C20182   4.161   9.626   5.896  0.1651 -0.3882 -0.6704
  891MOL0     C20183   4.143   9.763   5.901  0.2497  0.2579 -0.1122
  891MOL0     C20184   4.037   9.824   5.975 -1.3314 -0.5284 -0.1221
  891MOL0     C20185   3.951   9.744   6.040 -0.3071 -0.2703 -0.4923
  891MOL0     O20186   3.844   9.808   6.093  0.4260 -0.1202 -0.0173
  891MOL0     C20187   3.825   9.763   6.228  0.5013  0.0305 -0.0629
  891MOL0     C20188   3.945   9.806   6.312 -0.2925 -0.3294 -0.7471
  891MOL0     C20189   3.924   9.797   6.458  0.1594 -0.1861  0.0831
  891MOL0     C20190   3.842   9.924   6.502 -0.0955 -0.0152 -0.8447
  891MOL0     C20191   3.815   9.936   6.650 -0.0635  0.6727  0.2158
  891MOL0     C20192   3.715  10.034   6.701 -0.5579  0.1976 -0.3931
  891MOL0     C20193   3.733  10.176   6.666 -0.9726 -0.2089  0.5747
  891MOL0     C20194   3.644  10.277   6.752  0.1655 -0.8661  0.4611
  891MOL0    Cl20195   3.635  10.437   6.671  0.1303  0.0385  0.4731
  891MOL0     C20196   3.957   9.599   6.032 -0.5908 -0.3068  0.5215
  891MOL0     C20197   4.069   9.541   5.962  0.0808 -0.2631 -1.1640
  891MOL0     O20198   4.405   9.531   6.011 -1.1558 -0.5698 -0.7038
  891MOL0     C20199   4.613   9.433   5.874 -0.3642 -0.3437 -0.0103
  891MOL0     C20200   4.722   9.383   5.800 -1.0187  0.2187 -0.1977
  891MOL0     N20201   5.253   9.024   5.877 -0.1210  0.6820 -0.0085
  891MOL0     N20202   5.364   8.966   5.913 -0.9880  1.1297  1.1631
  891MOL0     C20203   6.529   8.660   6.095  1.2112  0.2733 -0.2253
  891MOL0     C20204   6.663   8.634   6.128 -0.8518 -0.4620  0.1728
  891MOL0     C20205   7.035   8.618   6.272  0.0983  0.6694  0.3904
  891MOL0     C20206   7.060   8.593   6.408 -0.2807  0.4633  0.7300
  891MOL0     C20207   7.155   8.505   6.454  0.2947  0.9622 -0.2323
  891MOL0     C20208   7.235   8.427   6.364  0.5291  0.8135  0.7173
  891MOL0     O20209   7.316   8.342   6.421 -0.0423  0.7414  0.3471
  891MOL0     C20210   7.298   8.208   6.372  0.3131 -0.6138 -0.1260
  891MOL0     C20211   7.434   8.158   6.334 -0.8525  0.4982  1.0447
  891MOL0     C20212   7.527   8.146   6.452 -0.4304 -0.5920 -0.2224
  891MOL0     C20213   7.676   8.123   6.399  0.7862 -0.1638  0.1179
  891MOL0     C20214   7.759   8.058   6.498 -0.5272  0.4334 -0.7976
  891MOL0     C20215   7.831   7.998   6.578  1.0387 -0.1176 -0.0426
  891MOL0     C20216   7.195   8.441   6.227  0.0486  0.6927  0.7206
  891MOL0     C20217   7.099   8.532   6.183  0.5908 -0.8126 -0.4233
  891MOL0     H20218   6.809   8.812   5.878 -1.5421 -0.9041 -0.7705
  891MOL0     H20219   6.589   8.860   5.820  2.1054  1.1433 -0.9187
  891MOL0     H20220   6.390   8.792   5.747 -0.5688  0.7459 -0.3908
  891MOL0     H20221   6.366   8.622   5.805  0.7498  1.0646 -0.2407
  891MOL0     H20222   6.176   8.726   5.680  0.8584  0.5496  0.0195
  891MOL0     H20223   6.135   8.691   5.847 -2.2254  2.0338 -0.0980
  891MOL0     H20224   6.168   8.935   5.905  1.4710 -2.0846 -0.4766
  891MOL0     H20225   6.201   8.959   5.727 -0.9956  1.6985 -0.5848
  891MOL0     H20226   5.978   9.009   5.766  2.2720  0.2817 -0.7291
  891MOL0     H20227   5.973   8.844   5.704  3.6593 -2.2877 -0.1578
  891MOL0     H20228   5.969   8.762   5.941  0.6418  1.4058  0.6890
  891MOL0     H20229   5.894   8.928   5.971 -0.0580  0.7778 -1.7382
  891MOL0     H20230   5.776   8.713   5.780 -4.2385  2.8796 -3.1366
  891MOL0     H20231   5.727   8.736   5.938  2.8078 -0.6212 -0.1292
  891MOL0     H20232   5.657   8.969   5.905 -0.0387 -0.4482  0.5670
  891MOL0     H20233   5.702   8.946   5.727 -1.5019 -0.0689  0.1888
  891MOL0     H20234   5.532   8.735   5.865  3.7216 -1.1362 -0.5584
  891MOL0     H20235   5.540   8.771   5.707 -0.1538  2.0421 -0.8242
  891MOL0     H20236   5.341   8.923   5.583  3.2339  3.7805 -0.4462
  891MOL0     H20237   5.127   9.138   5.607 -2.1777  0.2690 -0.4244
  891MOL0     H20238   5.073   8.970   5.616 -1.3273 -1.0910  0.9065
  891MOL0     H20239   4.998   9.202   5.804  1.4471  0.4336  0.1876
  891MOL0     H20240   5.005   9.035   5.866  0.0797 -1.4739 -0.7199
  891MOL0     H20241   4.779   9.053   5.786  0.5067 -0.6529  0.4748
  891MOL0     H20242   4.868   8.957   5.668  2.5754 -0.1246  0.4639
  891MOL0     H20243   4.704   9.089   5.576  0.3052 -0.8721  1.7184
  891MOL0     H20244   4.854   9.089   5.498  1.2609 -1.4304  1.1150
  891MOL0     H20245   4.573   9.295   5.522  2.9491 -2.0537  0.6581
  891MOL0     H20246   4.355   9.342   5.523  1.0292  2.0902 -1.0537
  891MOL0     H20247   4.270   9.325   5.672  0.8799  1.1400  0.9199
  891MOL0     H20248   4.295   9.493   5.612  0.1289  0.5399  0.6971
  891MOL0     H20249   4.206   9.824   5.837  0.2112  0.6460  0.2173
  891MOL0     H20250   4.012   9.928   5.957 -1.8928 -0.8783 -1.4605
  891MOL0     H20251   3.730   9.804   6.262 -2.2326 -4.3073 -1.6036
  891MOL0     H20252   3.815   9.655   6.246  0.5785  0.2900  1.6898
  891MOL0     H20253   4.027   9.740   6.281  1.3602 -0.6764  3.7169
  891MOL0     H20254   3.979   9.905   6.280 -1.3815 -0.0000 -0.9151
  891MOL0     H20255   4.028   9.803   6.493  0.0728  0.3620  0.2579
  891MOL0     H20256   3.890   9.698   6.491  0.4695 -0.2847  0.1108
  891MOL0     H20257   3.885  10.015   6.461 -0.8028  0.2650 -0.9803
  891MOL0     H20258   3.741   9.916   6.459 -0.4935  0.9199 -0.1213
  891MOL0     H20259   3.915   9.954   6.690  0.9344  0.2063 -1.9174
  891MOL0     H20260   3.784   9.835   6.679  4.3090 -0.9465 -0.0062
  891MOL0     H20261   3.619   9.995   6.667 -0.7129  0.6195 -0.4435
  891MOL0     H20262   3.724  10.028   6.810 -1.6441 -1.7023 -0.3546
  891MOL0     H20263   3.722  10.191   6.559  1.8092  0.0650  0.2618
  891MOL0     H20264   3.837  10.204   6.683  0.2290 -1.9550 -2.9166
  891MOL0     H20265   3.661  10.277   6.860 -4.0823 -4.7335  1.4222
  891MOL0     H20266   3.543  10.234   6.744  0.4815 -1.4001 -0.9210
  891MOL0     H20267   3.880   9.530   6.065  1.0865 -2.1081  0.8969
  891MOL0     H20268   4.081   9.435   5.941  0.6949 -0.3057 -0.6150
  891MOL0     H20269   4.644   9.458   5.975  3.5836 -2.4756 -0.4934
  891MOL0     H20270   4.819   9.385   5.850  0.6559 -2.0288 -3.0429
  891MOL0     H20271   6.446   8.616   6.149  0.6039 -0.7443 -1.9031
  891MOL0     H20272   6.678   8.575   6.218 -1.5471 -1.6170 -0.4454
  891MOL0     H20273   6.995   8.647   6.475 -1.2738 -1.6771  1.5983
  891MOL0     H20274   7.179   8.495   6.560  2.4897  0.1284 -0.7584
  891MOL0     H20275   7.251   8.145   6.448  0.0683  2.6603  2.6965
  891MOL0     H20276   7.234   8.204   6.283  0.6547  0.6238 -0.4524
  891MOL0     H20277   7.479   8.210   6.249 -4.9645  1.4128 -0.8209
  891MOL0     H20278   7.434   8.053   6.302  0.3296  1.4973 -2.7031
  891MOL0     H20279   7.488   8.061   6.509  0.3281 -2.4455 -2.3263
  891MOL0     H20280   7.532   8.239   6.509 -1.8999 -1.5032  1.4902
  891MOL0     H20281   7.723   8.218   6.371 -2.0748  0.7322 -2.1420
  891MOL0     H20282   7.670   8.062   6.309 -2.9371 -0.1252  0.1935
  891MOL0     H20283   7.896   7.943   6.643  0.5744 -0.7961 -0.1416
  891MOL0     H20284   7.246   8.383   6.151  1.0718 -0.8446  2.5017
  891MOL0     H20285   7.087   8.549   6.076  1.2340  3.3082 -0.0150
  892MOL0     O20286   2.710   8.616   3.669  0.7142 -0.0693  0.4745
  892MOL0     C20287   2.729   8.669   3.558 -0.5605 -0.1379 -0.4839
  892MOL0     O20288   2.751   8.805   3.533 -0.6285 -0.2056  0.3908
  892MOL0     C20289   2.685   8.901   3.605  0.3162 -0.2103 -0.5267
  892MOL0     C20290   2.725   9.033   3.598 -0.6817 -0.2578  0.1479
  892MOL0     C20291   2.649   9.135   3.654 -0.0355 -0.4754 -0.4609
  892MOL0     C20292   2.536   9.117   3.734  0.0001  0.7885  0.8618
  892MOL0     O20293   2.485   9.229   3.793 -0.3948 -0.2045  0.6613
  892MOL0     C20294   2.407   9.211   3.912  0.3484 -0.2528  0.2347
  892MOL0     C20295   2.256   9.202   3.866  0.1787  0.0047  0.1792
  892MOL0     C20296   2.198   9.337   3.820 -0.8067 -0.0907 -0.0530
  892MOL0     C20297   2.260   9.403   3.693  0.8535  0.6236  0.0303
  892MOL0     C20298   2.161   9.506   3.652  0.2191  0.1710  0.0877
  892MOL0     C20299   2.193   9.598   3.535 -0.1436 -0.5506 -0.2036
  892MOL0     C20300   2.208   9.511   3.410  0.0399  0.8123  0.3237
  892MOL0     C20301   2.229   9.598   3.287 -0.4421  0.5559 -0.1922
  892MOL0     N20302   2.148   9.713   3.273 -0.1814  0.5570  0.1881
  892MOL0     C20303   2.183   9.840   3.303 -0.1334  0.5762 -0.3878
  892MOL0     C20304   2.072   9.918   3.268 -0.2535  1.5697  0.1884
  892MOL0     C20305   2.078  10.061   3.250  0.2064  0.2332 -0.5906
  892MOL0     C20306   2.082  10.129   3.383  1.2071 -0.5448 -1.2905
  892MOL0     C20307   1.956  10.128   3.472 -0.4113  0.3066  0.2724
  892MOL0     C20308   1.990  10.205   3.597  0.8134 -1.0141  0.6763
  892MOL0     O20309   2.020  10.346   3.568 -0.0792 -0.9305 -0.6609
  892MOL0     C20310   2.030  10.432   3.669 -0.5216 -0.3159 -0.1261
  892MOL0     C20311   1.970  10.412   3.794 -0.1415  0.7612  0.2688
  892MOL0     C20312   2.006  10.493   3.898  0.0065 -0.3029 -0.4456
  892MOL0     C20313   1.943  10.454   4.030  0.6163  1.2148  0.0994
  892MOL0     C20314   2.096  10.599   3.881 -0.6937  0.2377  0.6020
  892MOL0     C20315   2.125  10.706   3.983  0.0731  0.5277  0.4210
  892MOL0     O20316   2.227  10.799   3.954 -0.2219 -0.5808 -0.8139
  892MOL0     C20317   2.312  10.862   4.041 -0.1814 -0.6453 -0.0885
  892MOL0     C20318   2.302  10.863   4.181 -0.5249  0.2757  0.3708
  892MOL0     C20319   2.395  10.949   4.254 -0.1444 -0.4142 -0.0684
  892MOL0     C20320   2.510  10.994   4.183  1.0733  0.1429 -0.3504
  892MOL0     O20321   2.621  11.039   4.258  0.7131  0.6044  0.5846
  892MOL0     C20322   2.663  11.175   4.240  0.0550  0.5267 -1.0918
  892MOL0     C20323   2.820  11.180   4.234  0.2532  0.5501 -0.2038
  892MOL0     C20324   2.873  11.310   4.282  0.2650 -0.4167 -0.2558
  892MOL0     C20325   3.019  11.290   4.335  0.9100  0.1508 -0.4845
  892MOL0     C20326   3.064  11.425   4.381 -0.5971 -0.3043  1.0781
  892MOL0     C20327   3.137  11.519   4.288 -0.2482 -0.0559  0.2493
  892MOL0     C20328   3.176  11.653   4.364  0.4467  0.5181  0.0993
  892MOL0     C20329   3.222  11.765   4.275  1.2056 -0.1950  0.0438
  892MOL0    Cl20330   3.266  11.901   4.367  0.0629  0.1973  0.2157
  892MOL0     C20331   2.517  10.989   4.047 -0.5078 -0.2976  0.1320
  892MOL0     C20332   2.420  10.916   3.973  0.5561 -0.3562 -0.3343
  892MOL0     O20333   2.061  10.702   4.091 -0.0894  0.7912  0.6544
  892MOL0     C20334   2.158  10.612   3.756 -0.2298 -0.0011 -0.6799
  892MOL0     C20335   2.121  10.536   3.651  0.2172  0.7744 -0.0959
  892MOL0     N20336   1.975   9.828   3.228 -0.1123 -0.0581 -0.5430
  892MOL0     N20337   2.017   9.707   3.241  0.4047  0.6516  0.2350
  892MOL0     C20338   2.495   8.983   3.737  0.1465  0.4475  0.5818
  892MOL0     C20339   2.567   8.878   3.682 -0.5148 -0.1744  0.3536
  892MOL0     C20340   2.753   8.588   3.445  0.0916  0.9921  0.5469
  892MOL0     C20341   2.794   8.643   3.323 -0.5195 -0.1781  1.1625
  892MOL0     C20342   2.797   8.556   3.210 -0.3410  0.9033  0.5198
  892MOL0     C20343   2.741   8.423   3.216  0.5797  0.0803 -0.4673
  892MOL0     O20344   2.746   8.322   3.113 -0.0439 -0.3267  0.6879
  892MOL0     C20345   2.732   8.349   2.977 -0.5913  0.1499 -0.4114
  892MOL0     C20346   2.585   8.338   2.938 -0.4230  0.1885 -0.0119
  892MOL0     C20347   2.565   8.353   2.797 -0.2201  0.0188 -0.0383
  892MOL0     C20348   2.433   8.303   2.742 -0.8776 -0.5876 -0.6089
  892MOL0     C20349   2.466   8.187   2.661 -0.2322  0.4708  0.5666
  892MOL0     C20350   2.504   8.095   2.591  0.4927  0.8761  0.1072
  892MOL0     C20351   2.710   8.367   3.336  0.2913 -0.2240 -0.5811
  892MOL0     C20352   2.725   8.455   3.453 -0.6305  0.6336  0.0517
  892MOL0     H20353   2.816   9.052   3.543 -1.4537  0.1926 -0.9964
  892MOL0     H20354   2.684   9.238   3.662 -2.6995  0.6648 -2.2610
  892MOL0     H20355   2.449   9.128   3.969 -1.0829 -1.4076 -0.3114
  892MOL0     H20356   2.405   9.306   3.966 -2.2684 -0.8136  1.2950
  892MOL0     H20357   2.251   9.133   3.781 -1.4295 -0.2343  0.4281
  892MOL0     H20358   2.192   9.181   3.952  0.1997  0.8407  0.4072
  892MOL0     H20359   2.091   9.327   3.798 -1.0067  1.2332  0.2224
  892MOL0     H20360   2.196   9.419   3.893  1.2365 -0.5405  0.5785
  892MOL0     H20361   2.363   9.430   3.717  1.6182 -2.4593  0.6948
  892MOL0     H20362   2.270   9.332   3.610 -0.7447 -2.7376  2.5039
  892MOL0     H20363   2.059   9.467   3.646  1.5103 -3.6354 -0.1833
  892MOL0     H20364   2.151   9.574   3.736  0.3156  2.6592 -1.7840
  892MOL0     H20365   2.107   9.666   3.530  0.0575 -0.2473  0.3831
  892MOL0     H20366   2.281   9.660   3.550 -1.6286  1.9548 -1.2339
  892MOL0     H20367   2.284   9.435   3.427 -0.5151  0.0109 -0.6392
  892MOL0     H20368   2.121   9.451   3.382  0.2709  0.4807  0.3104
  892MOL0     H20369   2.211   9.543   3.194 -2.0648 -0.6168  0.7590
  892MOL0     H20370   2.334   9.625   3.273 -0.6058  0.4679 -1.7741
  892MOL0     H20371   2.280   9.874   3.339 -0.6354  0.5362  1.0391
  892MOL0     H20372   2.164  10.089   3.189 -0.7805  1.3269 -1.5221
  892MOL0     H20373   1.992  10.097   3.193 -0.2168  1.5241  0.7957
  892MOL0     H20374   2.098  10.234   3.356 -2.6541 -0.1223 -2.5153
  892MOL0     H20375   2.162  10.105   3.454 -1.1466  1.6069  2.3766
  892MOL0     H20376   1.923  10.028   3.505  0.8617  0.1160  1.0382
  892MOL0     H20377   1.875  10.179   3.420  1.1711  3.1211  0.3936
  892MOL0     H20378   2.073  10.160   3.653 -0.2935 -2.5229  1.1679
  892MOL0     H20379   1.901  10.202   3.661  0.1541 -1.4980 -0.2421
  892MOL0     H20380   1.904  10.328   3.816 -0.7320  1.4514  1.2157
  892MOL0     H20381   2.016  10.468   4.110  0.6083  1.8142 -0.0005
  892MOL0     H20382   1.861  10.526   4.041 -0.1774  0.3889 -0.2469
  892MOL0     H20383   1.887  10.360   4.040  4.1768 -0.8133  6.3169
  892MOL0     H20384   2.217  10.822   4.235 -2.4294  4.3998  0.9626
  892MOL0     H20385   2.383  10.960   4.361  1.2022 -1.0625  0.1600
  892MOL0     H20386   2.615  11.235   4.162 -3.5120  0.1874  0.6439
  892MOL0     H20387   2.636  11.218   4.337  1.5546 -0.5233 -0.1679
  892MOL0     H20388   2.858  11.100   4.298  0.0251  1.7534  1.4807
  892MOL0     H20389   2.847  11.153   4.131 -1.3186 -0.3796 -0.4043
  892MOL0     H20390   2.818  11.339   4.371  1.4212 -1.0203  0.6846
  892MOL0     H20391   2.870  11.397   4.216  1.6047 -0.9667 -1.0870
  892MOL0     H20392   3.028  11.223   4.421 -1.5442 -2.0832 -1.8235
  892MOL0     H20393   3.066  11.245   4.247  0.2029 -0.7954 -0.3935
  892MOL0     H20394   3.136  11.402   4.460  2.3023 -0.2744 -1.3628
  892MOL0     H20395   2.977  11.482   4.416  1.0260  2.5841  0.7042
  892MOL0     H20396   3.231  11.481   4.248 -0.9182 -1.1340 -0.3608
  892MOL0     H20397   3.073  11.532   4.200  1.3035 -1.4859 -1.1692
  892MOL0     H20398   3.250  11.622   4.438  0.0495  0.3301  0.4219
  892MOL0     H20399   3.088  11.696   4.414  0.7995  2.5808 -0.9579
  892MOL0     H20400   3.148  11.796   4.201  1.5491 -0.2805 -0.3392
  892MOL0     H20401   3.304  11.721   4.218  0.6707 -2.6103  0.9926
  892MOL0     H20402   2.602  11.021   3.989 -0.3243  1.7576  1.4465
  892MOL0     H20403   2.423  10.915   3.865  1.0445 -0.0808 -0.3209
  892MOL0     H20404   2.235  10.687   3.743  0.1752 -0.0008  1.4348
  892MOL0     H20405   2.171  10.543   3.556 -0.9691  0.6247 -0.7555
  892MOL0     H20406   2.409   8.949   3.794  0.9535 -1.7240  0.6141
  892MOL0     H20407   2.526   8.778   3.686  0.3769 -0.5272  3.1039
  892MOL0     H20408   2.831   8.744   3.308 -0.9166 -0.4381 -2.3991
  892MOL0     H20409   2.842   8.598   3.120  2.9662  2.0346  2.4936
  892MOL0     H20410   2.773   8.447   2.953 -2.1131  1.1107  0.7082
  892MOL0     H20411   2.782   8.268   2.923 -0.7932  0.4255 -1.0117
  892MOL0     H20412   2.521   8.391   3.008  2.8907 -0.5620  3.9939
  892MOL0     H20413   2.552   8.235   2.956  5.1573 -2.2814 -1.5003
  892MOL0     H20414   2.641   8.293   2.745 -1.4945 -0.4383 -1.4629
  892MOL0     H20415   2.570   8.459   2.770  2.0615 -0.1077 -0.3392
  892MOL0     H20416   2.390   8.384   2.683  0.1891  0.5064  0.0560
  892MOL0     H20417   2.359   8.275   2.818 -1.5077  2.5204  0.0378
  892MOL0     H20418   2.531   8.013   2.528 -0.3065 -0.0987  0.9960
  892MOL0     H20419   2.690   8.261   3.347 -3.2674  0.5644  2.5830
  892MOL0     H20420   2.719   8.413   3.553 -2.4914  0.0211 -0.2763
  893MOL0     O20421   6.290   4.494   6.570  0.5636 -0.2272  0.7751
  893MOL0     C20422   6.245   4.557   6.471  0.2896 -0.8901 -0.6597
  893MOL0     O20423   6.113   4.569   6.436 -0.1411 -0.1210  0.1140
  893MOL0     C20424   6.018   4.535   6.532 -0.2205 -0.6248 -0.6793
  893MOL0     C20425   6.012   4.405   6.587 -0.6385  0.4673  0.8885
  893MOL0     C20426   5.942   4.367   6.698 -0.0697  0.4307  0.0551
  893MOL0     C20427   5.854   4.460   6.754 -1.2639  0.1344 -0.7208
  893MOL0     O20428   5.784   4.427   6.867  0.0478  0.7349 -0.3438
  893MOL0     C20429   5.693   4.320   6.855  0.9564 -1.0155 -0.7939
  893MOL0     C20430   5.614   4.320   6.978  0.1995 -0.0146  0.7114
  893MOL0     C20431   5.538   4.455   7.003  0.6356  1.0173  0.5177
  893MOL0     C20432   5.493   4.462   7.148 -0.1083  0.3809 -0.3202
  893MOL0     C20433   5.422   4.598   7.181 -0.2425  0.3064 -0.5268
  893MOL0     C20434   5.509   4.706   7.235 -0.5358 -0.8126  0.5012
  893MOL0     C20435   5.474   4.859   7.216 -0.2282  0.8660  0.4902
  893MOL0     C20436   5.324   4.888   7.276  0.3439  0.9207  0.0764
  893MOL0     N20437   5.284   5.031   7.258 -0.7770  0.5806 -0.4278
  893MOL0     C20438   5.359   5.143   7.280  0.1270  0.8339  0.4086
  893MOL0     C20439   5.274   5.248   7.259  0.2224  0.2610  0.4201
  893MOL0     C20440   5.304   5.394   7.251 -0.5095 -0.0095  0.0587
  893MOL0     C20441   5.287   5.465   7.113 -0.1265 -0.6729 -0.4390
  893MOL0     C20442   5.142   5.473   7.050 -0.8178  0.4787 -0.2861
  893MOL0     C20443   5.066   5.576   7.114 -0.0752 -0.9956 -0.6466
  893MOL0     O20444   5.108   5.705   7.068 -0.4261  1.2065  0.4367
  893MOL0     C20445   5.023   5.808   7.082  0.2733 -0.0560 -0.9270
  893MOL0     C20446   5.078   5.924   7.055  0.0877  0.1647  0.8705
  893MOL0     C20447   5.013   6.044   7.064 -0.2420  0.1892  0.0396
  893MOL0     C20448   5.098   6.167   7.028  0.3795 -1.3509 -0.1307
  893MOL0     C20449   4.877   6.045   7.108  0.3672  0.6968 -0.0261
  893MOL0     C20450   4.797   6.173   7.140 -0.4360 -0.3733 -0.1320
  893MOL0     O20451   4.674   6.161   7.198 -0.1861 -0.0924 -0.3857
  893MOL0     C20452   4.587   6.265   7.203 -0.6955 -0.4169  0.2357
  893MOL0     C20453   4.491   6.251   7.303  0.8981 -0.7582  0.2479
  893MOL0     C20454   4.405   6.362   7.335  0.5797  0.1347 -0.5376
  893MOL0     C20455   4.392   6.472   7.253  0.1479 -0.7456 -0.2857
  893MOL0     O20456   4.303   6.572   7.295  0.1714 -0.6766  0.1912
  893MOL0     C20457   4.286   6.696   7.219  0.6912  0.4261  0.2912
  893MOL0     C20458   4.141   6.755   7.219 -0.0663  0.1399 -0.3613
  893MOL0     C20459   4.073   6.765   7.358  0.2269 -0.6333  0.6812
  893MOL0     C20460   3.983   6.641   7.389 -0.9837  0.3887 -0.5956
  893MOL0     C20461   3.915   6.625   7.525 -0.5509  0.2106  0.3447
  893MOL0     C20462   3.865   6.475   7.539  0.1870  0.3743 -0.0363
  893MOL0     C20463   3.773   6.454   7.654 -0.3746  0.5442 -0.1572
  893MOL0     C20464   3.729   6.304   7.665 -0.3381  0.0203  0.6208
  893MOL0    Cl20465   3.610   6.267   7.532 -0.1516  0.2652 -0.7541
  893MOL0     C20466   4.473   6.470   7.140  0.4932 -0.4183  0.3465
  893MOL0     C20467   4.575   6.375   7.115 -0.5243 -0.0811  0.4976
  893MOL0     O20468   4.852   6.285   7.122  0.7315 -0.3823 -0.0246
  893MOL0     C20469   4.811   5.925   7.138 -0.2130 -0.1766  0.5688
  893MOL0     C20470   4.888   5.809   7.119  0.0757  1.4536  0.0103
  893MOL0     N20471   5.150   5.187   7.230 -0.2950 -0.1500 -0.1830
  893MOL0     N20472   5.155   5.060   7.223  0.1364  0.4080 -1.2888
  893MOL0     C20473   5.845   4.583   6.702 -0.1889 -0.4819  0.7371
  893MOL0     C20474   5.924   4.626   6.592 -0.9169  0.4329  0.0320
  893MOL0     C20475   6.354   4.610   6.386  0.2342  0.2743 -0.6165
  893MOL0     C20476   6.487   4.634   6.433 -0.8298 -0.0522  0.4839
  893MOL0     C20477   6.585   4.674   6.340 -0.5883 -0.7568 -0.5816
  893MOL0     C20478   6.555   4.705   6.211 -0.6046  0.7914 -0.6366
  893MOL0     O20479   6.658   4.737   6.127 -0.2670 -0.1208 -1.0572
  893MOL0     C20480   6.647   4.840   6.035 -0.8496  0.6155  0.8597
  893MOL0     C20481   6.775   4.932   6.052 -0.7406 -1.0504 -0.6848
  893MOL0     C20482   6.909   4.881   5.999  0.0847 -0.5481  0.2603
  893MOL0     C20483   7.032   4.944   6.076  0.0112  0.0244 -0.2401
  893MOL0     C20484   7.054   5.092   6.085 -0.5732 -0.3169  0.6021
  893MOL0     C20485   7.065   5.211   6.090 -0.4426  0.5021  0.2312
  893MOL0     C20486   6.416   4.708   6.172  0.2057  0.0242 -0.1431
  893MOL0     C20487   6.317   4.653   6.262 -0.5353  0.4229  0.0914
  893MOL0     H20488   6.071   4.327   6.542 -0.3863  1.4628 -0.5631
  893MOL0     H20489   5.947   4.267   6.740  0.2350  1.0738  1.6197
  893MOL0     H20490   5.624   4.334   6.771 -0.3104 -1.7619  0.0742
  893MOL0     H20491   5.742   4.223   6.846 -2.0811 -2.6324 -1.4846
  893MOL0     H20492   5.539   4.240   6.973  0.6722 -0.4455  0.4704
  893MOL0     H20493   5.683   4.303   7.060 -0.9321  0.0793  1.7083
  893MOL0     H20494   5.606   4.539   6.985  2.8816 -0.2638  2.3942
  893MOL0     H20495   5.443   4.465   6.950  2.5259 -1.2063 -3.8335
  893MOL0     H20496   5.415   4.385   7.153 -1.5768  1.6920 -1.6796
  893MOL0     H20497   5.575   4.425   7.211 -0.5751 -2.5287 -1.2379
  893MOL0     H20498   5.375   4.647   7.095 -1.6268  4.0562  2.1029
  893MOL0     H20499   5.343   4.565   7.248  0.8309 -2.8417 -0.6504
  893MOL0     H20500   5.523   4.684   7.342 -0.1123 -4.0390 -0.1389
  893MOL0     H20501   5.608   4.706   7.189 -0.3227 -0.4559  0.9396
  893MOL0     H20502   5.555   4.918   7.260 -0.0811  1.4795 -0.5681
  893MOL0     H20503   5.464   4.886   7.111  0.8086 -1.4076 -0.2595
  893MOL0     H20504   5.336   4.866   7.382 -0.8416  0.0310  0.0436
  893MOL0     H20505   5.248   4.833   7.220 -1.7819  2.3524  1.4424
  893MOL0     H20506   5.466   5.141   7.296  0.0652 -0.7672  0.7463
  893MOL0     H20507   5.237   5.450   7.316  0.2709  0.1819  0.7090
  893MOL0     H20508   5.407   5.405   7.286 -0.3211 -1.9926  0.2150
  893MOL0     H20509   5.343   5.400   7.045  1.0875  0.2896 -0.3802
  893MOL0     H20510   5.348   5.555   7.123  0.5661 -0.9645 -1.7712
  893MOL0     H20511   5.090   5.376   7.051 -1.0930  0.6163 -0.8420
  893MOL0     H20512   5.161   5.490   6.944  1.3576  0.2390  0.0191
  893MOL0     H20513   5.070   5.554   7.222  3.6357  1.3833 -0.1095
  893MOL0     H20514   4.966   5.568   7.073  0.3462 -1.5479 -1.5899
  893MOL0     H20515   5.180   5.910   7.020 -1.1575 -0.8550 -2.8078
  893MOL0     H20516   5.049   6.227   6.951  2.5840  1.2617  0.3417
  893MOL0     H20517   5.105   6.233   7.115 -1.4861 -1.9196  0.4945
  893MOL0     H20518   5.202   6.138   7.006 -0.0809 -2.6879 -0.6226
  893MOL0     H20519   4.482   6.155   7.353 -0.0249 -1.7124 -1.6135
  893MOL0     H20520   4.344   6.354   7.424  0.1726 -1.9381 -0.9505
  893MOL0     H20521   4.358   6.765   7.263 -0.2053  0.4188  1.8775
  893MOL0     H20522   4.313   6.673   7.116 -0.9938 -1.5123  0.2064
  893MOL0     H20523   4.143   6.853   7.170  0.6770  1.4095  2.0600
  893MOL0     H20524   4.084   6.700   7.143 -0.4510  2.3742 -1.7686
  893MOL0     H20525   3.997   6.843   7.345  0.2755 -0.8298 -1.0133
  893MOL0     H20526   4.131   6.806   7.441 -2.0915  6.1189 -0.3616
  893MOL0     H20527   3.912   6.629   7.306 -1.4914 -0.4807 -0.0471
  893MOL0     H20528   4.051   6.557   7.379  0.0091  0.4408  3.8501
  893MOL0     H20529   3.834   6.699   7.531 -0.5293  0.1586  1.8744
  893MOL0     H20530   3.987   6.645   7.605  1.0679  1.6770 -1.3971
  893MOL0     H20531   3.818   6.458   7.442  1.9402  1.3898 -1.1277
  893MOL0     H20532   3.945   6.402   7.557 -3.0133 -2.6095  4.0281
  893MOL0     H20533   3.685   6.513   7.631 -0.6116  1.3868  2.6293
  893MOL0     H20534   3.823   6.480   7.747 -1.0439  0.5935  0.1901
  893MOL0     H20535   3.682   6.301   7.763 -0.4396 -1.5416  0.5584
  893MOL0     H20536   3.810   6.231   7.662 -0.8645 -0.6410  1.8191
  893MOL0     H20537   4.457   6.549   7.067 -0.7757 -1.8289 -0.9883
  893MOL0     H20538   4.625   6.372   7.019  1.1732  3.9696  1.0544
  893MOL0     H20539   4.705   5.919   7.160 -0.2424 -2.3733  0.1270
  893MOL0     H20540   4.837   5.714   7.124 -0.5391  1.8062  0.6293
  893MOL0     H20541   5.778   4.652   6.752 -0.4087 -1.2308  1.4993
  893MOL0     H20542   5.923   4.733   6.575  0.0533  0.4708  0.1697
  893MOL0     H20543   6.515   4.627   6.537 -0.3959  2.1865  0.5701
  893MOL0     H20544   6.686   4.682   6.378 -0.9562 -0.2108  0.3188
  893MOL0     H20545   6.647   4.809   5.930 -1.0848  0.0393  1.0253
  893MOL0     H20546   6.562   4.907   6.051  0.2730  1.9228  1.5991
  893MOL0     H20547   6.781   4.961   6.158 -2.8022  0.8865 -1.0267
  893MOL0     H20548   6.767   5.026   5.996  2.0270 -0.3009  0.0097
  893MOL0     H20549   6.933   4.920   5.900  3.0332  1.1637  1.5386
  893MOL0     H20550   6.919   4.772   6.002  1.9850 -0.5180 -2.0028
  893MOL0     H20551   7.126   4.898   6.045 -0.2385  0.8382 -2.3397
  893MOL0     H20552   7.023   4.932   6.185  2.4266  2.5007  0.3472
  893MOL0     H20553   7.082   5.317   6.101  1.6699  0.3008 -0.6556
  893MOL0     H20554   6.381   4.730   6.072  3.0142  1.6628 -0.9037
  893MOL0     H20555   6.211   4.658   6.238 -0.0572  5.4004 -2.3916
  894MOL0     O20556  10.183   1.964   7.483 -0.5729 -0.7684 -0.8510
  894MOL0     C20557  10.278   1.997   7.556 -0.8816  0.1545  0.1535
  894MOL0     O20558  10.403   1.949   7.539  0.2704  0.0102  1.0386
  894MOL0     C20559  10.436   1.865   7.433 -0.2492 -0.2228 -1.0576
  894MOL0     C20560  10.434   1.728   7.458  0.2444 -1.0607  0.1569
  894MOL0     C20561  10.471   1.639   7.347 -0.1412 -0.7517  0.3184
  894MOL0     C20562  10.514   1.695   7.223 -1.2668  1.0314  1.2185
  894MOL0     O20563  10.537   1.620   7.110  0.0823 -0.3823 -0.6608
  894MOL0     C20564  10.575   1.476   7.136  0.2919  0.8481  0.6214
  894MOL0     C20565  10.624   1.421   7.004 -0.8967 -0.3711  0.8242
  894MOL0     C20566  10.771   1.474   6.975 -0.0526  0.3738  0.5326
  894MOL0     C20567  10.883   1.440   7.064 -0.0412 -0.6867 -0.3455
  894MOL0     C20568  11.019   1.463   7.000  0.5601 -0.2452  0.4877
  894MOL0     C20569  11.144   1.447   7.083 -0.2574  0.0742 -0.6148
  894MOL0     C20570  11.157   1.513   7.224  0.8032  0.0510 -1.1310
  894MOL0     C20571  11.185   1.662   7.224 -0.0439 -0.5824  1.1142
  894MOL0     N20572  11.241   1.730   7.340  0.1533 -0.2658  0.1399
  894MOL0     C20573  11.170   1.752   7.458  0.2192  0.1853 -0.3034
  894MOL0     C20574  11.264   1.744   7.554  0.8823 -0.4716 -0.3804
  894MOL0     C20575  11.235   1.769   7.696  0.5605 -0.2804  0.1411
  894MOL0     C20576  11.120   1.704   7.741  0.4793  0.7837  0.8130
  894MOL0     C20577  11.153   1.559   7.787  0.1601 -0.0994  0.0828
  894MOL0     C20578  11.287   1.530   7.865 -0.2605 -0.5880  0.2969
  894MOL0     O20579  11.298   1.397   7.901 -0.1254 -0.0738 -0.2355
  894MOL0     C20580  11.327   1.299   7.809  0.1914  0.0131  0.1792
  894MOL0     C20581  11.358   1.334   7.670  0.1077  0.1128 -0.3398
  894MOL0     C20582  11.383   1.229   7.583 -0.0244 -0.1603 -0.0544
  894MOL0     C20583  11.423   1.262   7.444  0.3483  0.2942  0.3135
  894MOL0     C20584  11.398   1.093   7.628 -0.5718 -0.9922 -0.0391
  894MOL0     C20585  11.432   0.982   7.541  0.8147  1.4588 -1.0898
  894MOL0     O20586  11.518   0.891   7.606 -0.3515 -0.4904  0.7106
  894MOL0     C20587  11.556   0.778   7.547 -1.2616  0.4830  0.7966
  894MOL0     C20588  11.553   0.666   7.617 -0.2628 -0.2742  0.2771
  894MOL0     C20589  11.583   0.542   7.553 -0.2609 -0.0285  0.2881
  894MOL0     C20590  11.623   0.526   7.424 -0.4006  0.2156  0.2610
  894MOL0     O20591  11.646   0.407   7.357  0.1330  0.5390  0.9370
  894MOL0     C20592  11.560   0.299   7.382 -0.3295 -0.2804  0.8264
  894MOL0     C20593  11.604   0.176   7.297 -0.0732 -0.0918 -0.6150
  894MOL0     C20594  11.518   0.063   7.345  0.0394 -0.1791 -0.2444
  894MOL0     C20595  11.527  -0.044   7.240 -0.1879 -0.4929  0.4367
  894MOL0     C20596  11.421  -0.162   7.241 -1.1167 -0.6795  1.8109
  894MOL0     C20597  11.264  -0.131   7.211  0.5207  0.3584  0.2310
  894MOL0     C20598  11.170  -0.255   7.202 -0.0118 -0.4045  0.7051
  894MOL0     C20599  11.032  -0.234   7.140  1.1609 -0.2442  0.2138
  894MOL0    Cl20600  10.950  -0.395   7.151  0.2046 -0.0443 -0.1659
  894MOL0     C20601  11.629   0.645   7.350  0.1782 -0.0391 -0.1441
  894MOL0     C20602  11.599   0.764   7.412  0.0428 -0.6260  0.1386
  894MOL0     O20603  11.371   0.964   7.438  0.7913  0.2712 -0.1952
  894MOL0     C20604  11.353   1.059   7.760  0.5177 -0.8744 -0.9650
  894MOL0     C20605  11.324   1.160   7.852 -0.7961 -0.6061  0.4168
  894MOL0     N20606  11.389   1.714   7.507 -0.1280 -0.9442  0.9249
  894MOL0     N20607  11.377   1.708   7.377  0.4187 -0.7711  0.4411
  894MOL0     C20608  10.549   1.825   7.223  0.5533 -0.3558  0.0787
  894MOL0     C20609  10.498   1.917   7.314  0.0298  0.4032  0.0642
  894MOL0     C20610  10.246   2.098   7.662  0.3454 -0.1874 -0.1094
  894MOL0     C20611  10.107   2.130   7.692  0.0149 -0.0390 -0.7643
  894MOL0     C20612  10.071   2.235   7.773  0.3930  0.8058  0.5488
  894MOL0     C20613  10.170   2.293   7.859 -0.2395 -0.0641 -0.9406
  894MOL0     O20614  10.141   2.389   7.955 -0.9228  0.8824  0.0593
  894MOL0     C20615  10.010   2.446   7.962  0.6490 -0.6998 -0.7607
  894MOL0     C20616   9.959   2.549   7.861  0.7469 -0.4882  0.0753
  894MOL0     C20617   9.824   2.521   7.793  0.0881  0.1139 -0.1992
  894MOL0     C20618   9.804   2.571   7.649 -0.4293 -0.0822  1.3187
  894MOL0     C20619   9.890   2.498   7.560 -0.1019  0.2505  0.2686
  894MOL0     C20620   9.971   2.444   7.497 -0.3008  0.3226  1.1877
  894MOL0     C20621  10.301   2.241   7.852 -0.4646 -1.4323 -0.7166
  894MOL0     C20622  10.339   2.149   7.750 -0.3297  0.1893  0.0046
  894MOL0     H20623  10.403   1.679   7.550  1.4032  0.1460  1.2264
  894MOL0     H20624  10.453   1.533   7.355  0.3036 -0.7466  1.5317
  894MOL0     H20625  10.642   1.458   7.221 -0.8531 -3.0024  0.8988
  894MOL0     H20626  10.480   1.428   7.161  1.1977 -1.1152  0.4707
  894MOL0     H20627  10.615   1.312   7.002 -3.2643 -0.2491 -2.3758
  894MOL0     H20628  10.551   1.460   6.932 -0.5152 -0.4010  0.4158
  894MOL0     H20629  10.802   1.447   6.873 -0.1537 -0.9112  0.8384
  894MOL0     H20630  10.771   1.584   6.969  1.1464  0.3830  0.4324
  894MOL0     H20631  10.885   1.501   7.155  0.9573 -0.9816 -0.1566
  894MOL0     H20632  10.879   1.332   7.082 -1.0142 -0.8976 -1.6625
  894MOL0     H20633  11.030   1.403   6.909 -1.0197 -2.0300  1.4006
  894MOL0     H20634  11.021   1.567   6.966  1.0880 -0.7554 -1.1512
  894MOL0     H20635  11.166   1.340   7.095 -1.9342 -0.6013 -2.8455
  894MOL0     H20636  11.221   1.490   7.017  2.1393 -4.4367 -1.1794
  894MOL0     H20637  11.062   1.498   7.276  2.1825 -2.1025  1.0035
  894MOL0     H20638  11.233   1.471   7.292  0.2393  1.8260  0.6868
  894MOL0     H20639  11.095   1.710   7.184 -0.9801 -3.2183 -0.1506
  894MOL0     H20640  11.252   1.684   7.140 -1.3777  0.6275  0.3233
  894MOL0     H20641  11.062   1.753   7.466  0.0298 -3.1817 -0.9719
  894MOL0     H20642  11.328   1.749   7.752  0.6789  0.4065  0.1949
  894MOL0     H20643  11.213   1.875   7.704 -0.6613 -0.5542  0.5272
  894MOL0     H20644  11.031   1.700   7.677  0.9289 -1.3635  0.2556
  894MOL0     H20645  11.085   1.757   7.831 -0.7984 -1.4150  1.7005
  894MOL0     H20646  11.166   1.507   7.691 -0.9214  2.1515 -1.3656
  894MOL0     H20647  11.075   1.512   7.847  2.1583 -1.4894  1.7494
  894MOL0     H20648  11.305   1.588   7.956 -2.8001  1.3580 -0.3185
  894MOL0     H20649  11.367   1.559   7.797  0.1705 -0.3132  0.9110
  894MOL0     H20650  11.360   1.434   7.629 -0.2100  1.5393  2.8508
  894MOL0     H20651  11.448   1.369   7.445 -0.8968  0.6002  1.4069
  894MOL0     H20652  11.520   1.215   7.421  0.7297  1.4249 -0.4837
  894MOL0     H20653  11.344   1.238   7.372 -0.8233 -0.3995  1.7815
  894MOL0     H20654  11.509   0.671   7.716 -3.9861  1.3963 -1.2979
  894MOL0     H20655  11.592   0.451   7.612 -0.2238 -0.7795 -0.8547
  894MOL0     H20656  11.559   0.287   7.491  2.6208  1.3912  1.1392
  894MOL0     H20657  11.456   0.306   7.348  0.3256 -1.1404 -1.5806
  894MOL0     H20658  11.590   0.196   7.190 -0.3755 -1.2920 -0.8213
  894MOL0     H20659  11.711   0.155   7.306  0.1699 -0.4933 -3.4693
  894MOL0     H20660  11.411   0.081   7.347  0.2332  2.7653 -3.7931
  894MOL0     H20661  11.555   0.026   7.441  1.4896 -1.2561 -1.1653
  894MOL0     H20662  11.524  -0.000   7.140 -2.8322  2.3825  1.6073
  894MOL0     H20663  11.627  -0.079   7.265  0.6909  1.8156  0.3994
  894MOL0     H20664  11.437  -0.212   7.338 -0.1322 -1.3602  1.3147
  894MOL0     H20665  11.452  -0.238   7.169  0.0173  1.6426 -0.2482
  894MOL0     H20666  11.221  -0.054   7.276  0.1586  0.0724  0.3295
  894MOL0     H20667  11.252  -0.090   7.110 -0.0751 -1.9634 -0.6995
  894MOL0     H20668  11.166  -0.316   7.293  0.4287 -0.4347  0.7052
  894MOL0     H20669  11.226  -0.319   7.134  3.5206  0.9506  2.1027
  894MOL0     H20670  11.054  -0.202   7.038  2.4667  1.7772  1.0497
  894MOL0     H20671  10.974  -0.150   7.180  2.4470  1.1517 -0.7055
  894MOL0     H20672  11.631   0.649   7.242 -1.0495 -0.7053 -0.2139
  894MOL0     H20673  11.604   0.857   7.357 -1.0843 -0.0164  1.0102
  894MOL0     H20674  11.357   0.958   7.800  0.6559 -1.8282 -3.2418
  894MOL0     H20675  11.309   1.127   7.954  2.4212  1.9008  1.8532
  894MOL0     H20676  10.602   1.879   7.146  0.5876  0.1381  0.4443
  894MOL0     H20677  10.505   2.025   7.323 -1.1158  0.4052  1.2821
  894MOL0     H20678  10.040   2.071   7.630 -0.0763 -3.4966  2.2339
  894MOL0     H20679   9.967   2.264   7.774 -0.2176 -1.0618 -1.7689
  894MOL0     H20680   9.939   2.364   7.978  1.3840 -1.1474  0.3729
  894MOL0     H20681  10.006   2.490   8.062 -0.0228 -1.4849 -0.4269
  894MOL0     H20682  10.044   2.569   7.794  3.4147  4.9992  4.3224
  894MOL0     H20683   9.951   2.647   7.908 -0.7860 -0.0936 -0.9188
  894MOL0     H20684   9.748   2.576   7.850  1.7026  0.9305  1.2681
  894MOL0     H20685   9.793   2.416   7.790 -2.8019  0.8361  0.5202
  894MOL0     H20686   9.821   2.678   7.641  0.8769 -0.4029 -3.9003
  894MOL0     H20687   9.704   2.548   7.609  0.3211 -3.1451  0.9234
  894MOL0     H20688  10.050   2.391   7.448  1.5164  2.1341  1.9819
  894MOL0     H20689  10.375   2.276   7.924 -2.4595  1.2305  0.2022
  894MOL0     H20690  10.442   2.118   7.736 -1.1313 -3.0402  0.4722
  895MOL0     O20691  10.214   3.369   7.188  0.0419  0.6770 -0.3390
  895MOL0     C20692  10.205   3.261   7.130  0.0721  0.8905 -0.3362
  895MOL0     O20693  10.137   3.248   7.018  0.2208  0.2906  0.3270
  895MOL0     C20694  10.061   3.342   6.955  1.3390 -0.5409 -0.5642
  895MOL0     C20695   9.929   3.303   6.919 -0.3338 -0.4838  0.8919
  895MOL0     C20696   9.846   3.387   6.844  0.1755  0.3219 -0.4452
  895MOL0     C20697   9.885   3.515   6.816 -0.7010  0.0591  0.3070
  895MOL0     O20698   9.805   3.610   6.762 -0.2287  0.0376 -0.5354
  895MOL0     C20699   9.696   3.571   6.685  1.0987  0.4352  0.2014
  895MOL0     C20700   9.656   3.694   6.593 -0.0396  0.1741  0.3915
  895MOL0     C20701   9.524   3.663   6.530  0.2761  0.0096  0.5990
  895MOL0     C20702   9.467   3.769   6.433 -0.5680 -0.4982 -0.1378
  895MOL0     C20703   9.564   3.798   6.316  1.2963  0.1201  0.4162
  895MOL0     C20704   9.678   3.900   6.321 -0.1579 -0.1493 -0.2502
  895MOL0     C20705   9.778   3.915   6.202  0.0908  1.0697  0.2478
  895MOL0     C20706   9.925   3.906   6.238 -0.2322  0.2188 -0.3314
  895MOL0     N20707   9.970   3.759   6.262 -0.9445  0.9726 -0.3333
  895MOL0     C20708   9.997   3.702   6.387  0.4274 -0.3267 -0.3525
  895MOL0     C20709  10.026   3.575   6.378 -1.0381 -0.3549  0.1265
  895MOL0     C20710  10.080   3.483   6.486  0.9095  0.2812 -0.1099
  895MOL0     C20711  10.217   3.426   6.445 -0.4585  0.4078  0.3616
  895MOL0     C20712  10.267   3.332   6.560 -0.8269  0.5254  0.3093
  895MOL0     C20713  10.196   3.197   6.579  0.5212 -0.3112 -0.3126
  895MOL0     O20714  10.233   3.152   6.718  0.6424  0.0385  0.4505
  895MOL0     C20715  10.364   3.102   6.730  0.4797  0.6283 -0.3531
  895MOL0     C20716  10.438   3.140   6.839 -0.3710 -0.6458  0.3666
  895MOL0     C20717  10.569   3.093   6.862  0.0775  0.1587  0.1548
  895MOL0     C20718  10.643   3.166   6.959  0.0529 -0.1695 -0.0203
  895MOL0     C20719  10.623   2.983   6.787  0.2878 -0.7018 -0.8141
  895MOL0     C20720  10.764   2.928   6.812 -0.1545  0.4501 -0.2372
  895MOL0     O20721  10.820   2.930   6.933 -0.3587 -0.3074 -0.2470
  895MOL0     C20722  10.948   2.887   6.942 -1.1698 -1.0224 -0.0888
  895MOL0     C20723  11.065   2.960   6.951 -1.0320  0.3531  0.9074
  895MOL0     C20724  11.192   2.902   6.934 -0.0296  0.6245 -0.3350
  895MOL0     C20725  11.205   2.760   6.936 -0.1136 -0.6352  0.6285
  895MOL0     O20726  11.319   2.692   6.920 -0.5525  0.4923 -0.3807
  895MOL0     C20727  11.441   2.764   6.875 -0.0487 -0.2587 -0.3002
  895MOL0     C20728  11.571   2.666   6.893  0.0342 -0.4123  0.3516
  895MOL0     C20729  11.570   2.629   7.049  0.6326  0.4817 -0.2362
  895MOL0     C20730  11.685   2.533   7.077 -0.1600  0.1620  0.1147
  895MOL0     C20731  11.705   2.491   7.221  0.8364  0.5169  0.4325
  895MOL0     C20732  11.790   2.356   7.220  0.4024 -0.1333  0.6146
  895MOL0     C20733  11.807   2.323   7.366 -0.5720 -0.5750 -1.0378
  895MOL0     C20734  11.923   2.222   7.380 -0.5590  0.8944 -0.2631
  895MOL0    Cl20735  11.935   2.139   7.535 -0.3458 -0.3958  0.4170
  895MOL0     C20736  11.087   2.677   6.947 -0.1335  0.2542  0.7876
  895MOL0     C20737  10.965   2.747   6.955  0.5690  0.3314  0.4399
  895MOL0     O20738  10.809   2.868   6.717  0.0093 -0.0598  0.4973
  895MOL0     C20739  10.547   2.946   6.683  0.3075  0.8719  1.0139
  895MOL0     C20740  10.423   3.002   6.646 -0.0918  0.1176  0.4225
  895MOL0     N20741  10.019   3.543   6.242 -0.1626  1.1287 -0.2916
  895MOL0     N20742   9.995   3.647   6.174  0.1751 -0.1970  0.2403
  895MOL0     C20743  10.013   3.551   6.865 -0.2495 -0.1087 -0.2219
  895MOL0     C20744  10.106   3.466   6.919  0.0680  0.8001  0.8340
  895MOL0     C20745  10.280   3.147   7.181 -0.3307  0.4456  1.0730
  895MOL0     C20746  10.374   3.148   7.283 -0.2427  0.4885 -0.1897
  895MOL0     C20747  10.461   3.039   7.311  0.5966  0.9966 -0.2473
  895MOL0     C20748  10.451   2.918   7.238  1.0111  0.0014 -0.3271
  895MOL0     O20749  10.543   2.816   7.243 -0.0896  0.1160  0.0925
  895MOL0     C20750  10.666   2.846   7.315  0.3374  0.1893  0.9259
  895MOL0     C20751  10.779   2.746   7.295  0.2290  0.1196 -0.0176
  895MOL0     C20752  10.728   2.600   7.307  0.2499 -0.5074 -0.7033
  895MOL0     C20753  10.824   2.502   7.244  0.2491  0.1775  0.6949
  895MOL0     C20754  10.960   2.525   7.302 -0.3341 -0.5371  0.2067
  895MOL0     C20755  11.072   2.524   7.354 -0.6267  0.0337 -0.1812
  895MOL0     C20756  10.348   2.912   7.135 -0.0435 -0.5198  0.2225
  895MOL0     C20757  10.271   3.021   7.115  0.1292  0.4976 -1.6306
  895MOL0     H20758   9.901   3.199   6.936 -2.1954 -0.5777 -2.0629
  895MOL0     H20759   9.748   3.348   6.817  0.5200 -0.1109 -1.0865
  895MOL0     H20760   9.725   3.489   6.619 -0.3426  1.0271 -1.2300
  895MOL0     H20761   9.605   3.554   6.744 -1.5045 -3.1608 -4.2248
  895MOL0     H20762   9.655   3.784   6.656  0.1087 -0.6134  1.5670
  895MOL0     H20763   9.734   3.699   6.517 -1.1346 -1.9550 -0.9579
  895MOL0     H20764   9.543   3.570   6.476 -1.6230  1.1492 -2.2508
  895MOL0     H20765   9.453   3.631   6.606  1.4312  0.0171  1.7107
  895MOL0     H20766   9.368   3.746   6.393 -1.3231 -1.2775  2.0149
  895MOL0     H20767   9.450   3.860   6.493  0.4169 -0.6398  0.3892
  895MOL0     H20768   9.613   3.702   6.296 -2.8494 -2.2927  0.5746
  895MOL0     H20769   9.504   3.826   6.229  2.1042 -0.0527 -0.2073
  895MOL0     H20770   9.643   4.000   6.347  1.9175 -0.3066  4.0117
  895MOL0     H20771   9.745   3.869   6.402 -0.4810  1.3068  0.6195
  895MOL0     H20772   9.768   3.827   6.137  3.7204 -0.0608  1.0047
  895MOL0     H20773   9.752   4.008   6.151  0.7471  0.3285 -1.5268
  895MOL0     H20774   9.937   3.965   6.329 -0.1692  0.9273 -0.7887
  895MOL0     H20775   9.992   3.951   6.165  1.5816 -1.8422 -0.0361
  895MOL0     H20776  10.007   3.765   6.475  2.8438 -1.0053 -0.0690
  895MOL0     H20777  10.077   3.528   6.585 -1.7051  0.0176  0.0240
  895MOL0     H20778   9.999   3.409   6.476  1.6001 -0.3229 -1.5853
  895MOL0     H20779  10.280   3.515   6.439  2.4881 -1.6307 -1.3798
  895MOL0     H20780  10.213   3.371   6.350 -2.2517  0.2375  0.4918
  895MOL0     H20781  10.267   3.398   6.648 -0.8434  1.1441 -0.1438
  895MOL0     H20782  10.372   3.311   6.541 -0.8200 -0.6102  1.4701
  895MOL0     H20783  10.222   3.120   6.506 -1.3085 -1.3286  0.0671
  895MOL0     H20784  10.088   3.212   6.568  0.0968 -1.8746  1.3552
  895MOL0     H20785  10.391   3.211   6.907 -0.1707 -3.7628  4.0915
  895MOL0     H20786  10.640   3.119   7.058 -2.4700 -1.4947 -0.6501
  895MOL0     H20787  10.749   3.177   6.936  0.0118  1.3099  0.3549
  895MOL0     H20788  10.600   3.266   6.972 -3.1862 -1.6985  2.8108
  895MOL0     H20789  11.046   3.065   6.930 -2.8485 -0.1391 -0.1000
  895MOL0     H20790  11.263   2.985   6.933  0.1980  0.4638 -3.1244
  895MOL0     H20791  11.423   2.794   6.772  0.3575  0.3688 -0.1940
  895MOL0     H20792  11.462   2.852   6.937 -1.7110  0.6539 -0.9543
  895MOL0     H20793  11.564   2.569   6.843  0.7675 -1.3745  2.0161
  895MOL0     H20794  11.667   2.711   6.867 -0.5205 -0.9581 -3.1027
  895MOL0     H20795  11.476   2.578   7.073  0.3600  0.8946 -0.4094
  895MOL0     H20796  11.578   2.714   7.118 -1.0024 -0.1262  0.7635
  895MOL0     H20797  11.681   2.454   7.001  1.1475  1.5534 -1.4803
  895MOL0     H20798  11.777   2.586   7.053 -0.9636  1.4702 -0.2178
  895MOL0     H20799  11.603   2.479   7.260 -0.9312  1.2405 -3.5044
  895MOL0     H20800  11.759   2.574   7.268  0.0068  1.6689 -0.5859
  895MOL0     H20801  11.746   2.272   7.166  1.5639  0.6776 -1.7293
  895MOL0     H20802  11.884   2.375   7.169 -1.7207  2.6260 -2.7030
  895MOL0     H20803  11.713   2.291   7.411 -0.1975 -1.5893 -0.9369
  895MOL0     H20804  11.842   2.409   7.424  0.5560 -0.2888 -2.0878
  895MOL0     H20805  12.024   2.251   7.350 -0.4866  1.6977  0.7193
  895MOL0     H20806  11.900   2.139   7.312  2.2139 -2.0035  2.0185
  895MOL0     H20807  11.085   2.569   6.937  0.1970  0.2079  1.1902
  895MOL0     H20808  10.877   2.686   6.942  0.5479  0.5852 -0.6402
  895MOL0     H20809  10.581   2.870   6.613  1.3597 -0.2857  2.7109
  895MOL0     H20810  10.383   2.960   6.554 -1.0413 -2.4999  1.9518
  895MOL0     H20811  10.042   3.653   6.840 -1.1199  0.1804 -0.0935
  895MOL0     H20812  10.207   3.502   6.933  1.3547 -0.2545 -3.9776
  895MOL0     H20813  10.398   3.240   7.334  0.1190  0.0846  0.3735
  895MOL0     H20814  10.544   3.063   7.376  2.3095  1.6280 -2.5437
  895MOL0     H20815  10.704   2.940   7.272  0.0876 -0.9584 -2.0715
  895MOL0     H20816  10.644   2.854   7.422  0.8973  0.2187  1.0394
  895MOL0     H20817  10.859   2.769   7.366  2.3924 -0.6184 -2.0818
  895MOL0     H20818  10.807   2.761   7.190 -4.3576  3.1555 -1.1520
  895MOL0     H20819  10.634   2.598   7.251  0.0722  4.6959 -1.1008
  895MOL0     H20820  10.697   2.585   7.411  2.2618  3.9797  0.7812
  895MOL0     H20821  10.839   2.512   7.136  2.6218 -4.7767  0.2470
  895MOL0     H20822  10.789   2.398   7.250 -1.5209  0.7493  0.6651
  895MOL0     H20823  11.167   2.496   7.394 -0.6852 -2.0390 -1.3267
  895MOL0     H20824  10.345   2.826   7.070  0.5296 -0.0127 -0.4961
  895MOL0     H20825  10.204   3.020   7.030  0.6586 -0.5695 -2.0447
  896MOL0     O20826   6.625   8.484   0.954  0.2569  0.2304  0.2943
  896MOL0     C20827   6.711   8.530   0.887 -0.9624  0.0007 -0.0997
  896MOL0     O20828   6.755   8.478   0.769  0.8960 -0.5948  0.9033
  896MOL0     C20829   6.692   8.387   0.687 -0.5788 -0.2240 -0.4002
  896MOL0     C20830   6.631   8.429   0.565  0.5870  0.5033 -0.3717
  896MOL0     C20831   6.563   8.337   0.484  0.5153  0.8174 -0.1431
  896MOL0     C20832   6.546   8.204   0.525 -0.4808 -0.0195 -1.0041
  896MOL0     O20833   6.486   8.119   0.443  0.6945  0.8093  0.0728
  896MOL0     C20834   6.361   8.062   0.497  0.0539  0.5398  0.3433
  896MOL0     C20835   6.260   8.167   0.538  0.1268  0.1717 -0.0297
  896MOL0     C20836   6.220   8.251   0.412  0.3273 -1.0876 -0.6360
  896MOL0     C20837   6.093   8.338   0.454  0.2249 -1.0765  0.5632
  896MOL0     C20838   6.032   8.424   0.334 -0.1147  0.8151 -0.3508
  896MOL0     C20839   5.949   8.542   0.380  0.2063  0.0753  0.1049
  896MOL0     C20840   5.868   8.620   0.270 -0.7250  0.3266 -0.1131
  896MOL0     C20841   5.748   8.704   0.325 -0.1072  1.0268 -0.3089
  896MOL0     N20842   5.787   8.811   0.411 -0.0673  0.5160  0.1591
  896MOL0     C20843   5.702   8.854   0.508 -0.3092  0.8452 -0.3426
  896MOL0     C20844   5.763   8.957   0.562  0.2217  0.5925 -1.0210
  896MOL0     C20845   5.702   9.044   0.676 -0.0921 -0.3069  0.3501
  896MOL0     C20846   5.789   9.078   0.792 -0.1404  0.1873 -0.7848
  896MOL0     C20847   5.838   8.946   0.873 -0.1134 -0.0646  0.4218
  896MOL0     C20848   5.918   8.986   0.998 -0.4772  0.7281  0.6745
  896MOL0     O20849   5.973   8.860   1.034  0.3350 -0.6399 -0.2011
  896MOL0     C20850   6.067   8.852   1.138 -0.0034 -0.2794  0.4510
  896MOL0     C20851   6.173   8.947   1.141  0.6676 -0.0270  0.0002
  896MOL0     C20852   6.265   8.931   1.243 -0.1240  0.1915  0.8511
  896MOL0     C20853   6.370   9.030   1.245 -0.1314 -0.4820  0.5411
  896MOL0     C20854   6.265   8.819   1.327  0.1949  0.0265 -0.2743
  896MOL0     C20855   6.376   8.799   1.417  1.4724 -0.2939  0.1035
  896MOL0     O20856   6.336   8.802   1.549  0.2992  0.2493  0.2949
  896MOL0     C20857   6.434   8.786   1.638 -0.1032 -0.5426  0.2668
  896MOL0     C20858   6.543   8.870   1.652  0.9625 -1.3911 -0.0072
  896MOL0     C20859   6.642   8.853   1.746  0.7299  0.0937 -1.2948
  896MOL0     C20860   6.636   8.743   1.832 -0.4812  0.4504 -0.6322
  896MOL0     O20861   6.735   8.706   1.925 -0.1023  0.4150  0.8147
  896MOL0     C20862   6.859   8.777   1.916 -0.3893  0.4665 -0.9949
  896MOL0     C20863   6.965   8.706   1.999  0.1282 -1.0567 -0.6067
  896MOL0     C20864   6.975   8.552   1.987  0.8209 -0.6823  0.1536
  896MOL0     C20865   7.095   8.515   2.069  0.7305  0.2748  0.8940
  896MOL0     C20866   7.130   8.360   2.065  0.2331  0.0272  0.4439
  896MOL0     C20867   7.249   8.327   2.157 -0.0231  0.1394  0.1139
  896MOL0     C20868   7.220   8.323   2.314 -0.2843  0.3382  0.5702
  896MOL0     C20869   7.344   8.293   2.391  0.3518  0.0046 -0.2122
  896MOL0    Cl20870   7.425   8.142   2.364  0.0726 -0.1458 -0.4799
  896MOL0     C20871   6.517   8.669   1.829  0.0519 -0.1824  0.0145
  896MOL0     C20872   6.413   8.688   1.737 -0.2712 -0.1656 -0.2903
  896MOL0     O20873   6.489   8.790   1.375 -0.7977 -0.2389 -0.3566
  896MOL0     C20874   6.154   8.737   1.333  0.7972 -0.3681  0.0703
  896MOL0     C20875   6.062   8.750   1.233 -0.0624  0.1415  0.4947
  896MOL0     N20876   5.881   8.973   0.486 -0.1805 -0.1008 -0.9318
  896MOL0     N20877   5.894   8.888   0.397 -0.1524  0.0458 -0.1136
  896MOL0     C20878   6.610   8.165   0.647  0.4700  0.4968  1.3568
  896MOL0     C20879   6.678   8.256   0.726  0.5626  0.5208 -0.6170
  896MOL0     C20880   6.782   8.655   0.938  0.7911 -0.0489  0.6084
  896MOL0     C20881   6.848   8.747   0.847  0.1899  0.3928 -1.4151
  896MOL0     C20882   6.905   8.862   0.896  0.5683  0.0994 -0.1608
  896MOL0     C20883   6.902   8.901   1.034  1.2865 -0.0939  0.0534
  896MOL0     O20884   6.955   9.029   1.066 -0.0708  0.7647 -0.0508
  896MOL0     C20885   6.882   9.100   1.172 -0.4005  0.0647  0.3760
  896MOL0     C20886   6.755   9.137   1.098  0.6449 -0.7426  0.4687
  896MOL0     C20887   6.777   9.218   0.974  0.8546 -0.8193 -0.5374
  896MOL0     C20888   6.657   9.316   0.944 -0.1998 -0.4668 -0.2920
  896MOL0     C20889   6.541   9.232   0.917  0.0720  0.7823 -1.7141
  896MOL0     C20890   6.439   9.178   0.883  0.0092  0.3581  0.7945
  896MOL0     C20891   6.843   8.801   1.115 -0.4911 -0.3393 -0.7461
  896MOL0     C20892   6.777   8.684   1.070 -0.2267 -0.2876 -0.7105
  896MOL0     H20893   6.630   8.534   0.540 -6.3531  0.6294 -1.4225
  896MOL0     H20894   6.521   8.358   0.386  2.5541  2.0111 -0.8287
  896MOL0     H20895   6.320   7.996   0.420 -0.0466 -0.2282  1.0380
  896MOL0     H20896   6.377   7.997   0.584 -1.5250  1.5959  1.4798
  896MOL0     H20897   6.167   8.121   0.572  0.0307  1.0013  0.9019
  896MOL0     H20898   6.295   8.232   0.619  0.1902  0.4363 -0.2667
  896MOL0     H20899   6.303   8.315   0.382  0.0355 -1.6896 -2.9351
  896MOL0     H20900   6.201   8.189   0.324 -0.4849  2.5013 -3.2225
  896MOL0     H20901   6.003   8.281   0.481 -1.0751  0.0414 -1.1901
  896MOL0     H20902   6.111   8.404   0.539  1.2178 -1.0566  0.3510
  896MOL0     H20903   6.114   8.463   0.272  2.7368  4.9608  5.1472
  896MOL0     H20904   5.951   8.363   0.293 -1.5840  1.5927  1.2521
  896MOL0     H20905   5.874   8.499   0.446  0.1037 -1.0165 -0.7030
  896MOL0     H20906   6.008   8.613   0.439  0.8595 -1.1343  0.9516
  896MOL0     H20907   5.937   8.686   0.217  1.4115 -2.0437 -0.4587
  896MOL0     H20908   5.825   8.556   0.193 -1.1547  1.9146 -1.2604
  896MOL0     H20909   5.674   8.639   0.372  0.2567  0.2305 -0.8087
  896MOL0     H20910   5.702   8.744   0.235  1.1870  0.8002 -1.1047
  896MOL0     H20911   5.610   8.804   0.535  1.4934 -2.3787  0.3709
  896MOL0     H20912   5.657   9.135   0.638 -1.9200  0.5013  4.0325
  896MOL0     H20913   5.616   8.986   0.709 -0.0250 -0.8803 -0.4474
  896MOL0     H20914   5.740   9.150   0.859  0.9153 -0.3875  0.6652
  896MOL0     H20915   5.875   9.141   0.769 -2.0073  2.1918 -2.8085
  896MOL0     H20916   5.893   8.882   0.805  0.9640  0.7141  0.5330
  896MOL0     H20917   5.750   8.892   0.908 -0.5969  1.6976  2.1337
  896MOL0     H20918   5.850   9.031   1.072 -0.8232  0.0791  0.7583
  896MOL0     H20919   5.999   9.051   0.965  2.1923 -1.9053  1.6210
  896MOL0     H20920   6.177   9.026   1.065  2.2875  1.0486  1.1294
  896MOL0     H20921   6.475   9.012   1.270  0.8552  3.3159 -0.1318
  896MOL0     H20922   6.375   9.074   1.145 -1.0478  1.1684  1.1795
  896MOL0     H20923   6.362   9.115   1.315  0.3606  0.9086 -1.0270
  896MOL0     H20924   6.560   8.960   1.595 -0.8629  2.0049  4.2716
  896MOL0     H20925   6.726   8.922   1.750  1.5764 -0.9810  0.9632
  896MOL0     H20926   6.891   8.790   1.812  0.2558  0.9967 -0.7383
  896MOL0     H20927   6.835   8.872   1.965  1.1336  1.0083 -1.2305
  896MOL0     H20928   7.056   8.754   1.961 -0.2255  0.6969  0.6471
  896MOL0     H20929   6.965   8.746   2.101 -0.3113  0.0818 -1.0392
  896MOL0     H20930   6.995   8.525   1.883  3.2269  1.3188 -0.0045
  896MOL0     H20931   6.882   8.510   2.026  0.6438 -0.5551 -0.1325
  896MOL0     H20932   7.177   8.580   2.039  0.8062 -1.0688 -2.1943
  896MOL0     H20933   7.072   8.535   2.174 -1.4004 -1.1808  0.7632
  896MOL0     H20934   7.147   8.326   1.962 -4.2968  0.4309 -0.6384
  896MOL0     H20935   7.047   8.293   2.089 -0.2197 -0.6748 -2.6222
  896MOL0     H20936   7.304   8.237   2.129  1.2579  0.7566  0.5642
  896MOL0     H20937   7.318   8.409   2.135 -2.3135  3.7869  4.7839
  896MOL0     H20938   7.140   8.252   2.335  0.6711 -0.3867  1.9144
  896MOL0     H20939   7.191   8.424   2.344 -1.8744 -0.8404  3.3615
  896MOL0     H20940   7.300   8.298   2.492 -0.3219  2.8709 -0.5457
  896MOL0     H20941   7.411   8.374   2.359 -0.4880  0.9532  0.3560
  896MOL0     H20942   6.485   8.598   1.904  1.2739 -1.2183 -0.4092
  896MOL0     H20943   6.317   8.637   1.740 -0.7783  0.7160 -1.0947
  896MOL0     H20944   6.154   8.664   1.413  4.2194  0.8864  1.3843
  896MOL0     H20945   5.983   8.676   1.231  1.3743 -1.4234 -1.8161
  896MOL0     H20946   6.605   8.058   0.661  2.3107  0.4530  1.9528
  896MOL0     H20947   6.733   8.238   0.818 -0.6284  2.0664  0.4513
  896MOL0     H20948   6.858   8.740   0.739 -3.5934 -1.7954 -1.8026
  896MOL0     H20949   6.966   8.933   0.842 -0.4485  1.6015  0.5791
  896MOL0     H20950   6.852   9.037   1.256 -0.4970  0.6156  0.7606
  896MOL0     H20951   6.929   9.192   1.208 -3.1840  1.1800  1.4223
  896MOL0     H20952   6.686   9.192   1.163  2.1594  0.8709  0.8026
  896MOL0     H20953   6.698   9.047   1.074 -3.3074  1.1675  1.9406
  896MOL0     H20954   6.778   9.146   0.891 -1.5799 -2.1190  0.4563
  896MOL0     H20955   6.873   9.270   0.981  0.8730 -0.9899  0.5352
  896MOL0     H20956   6.678   9.379   0.858 -1.7262  2.3319  1.2353
  896MOL0     H20957   6.653   9.374   1.037  1.8111 -0.5920 -0.0889
  896MOL0     H20958   6.349   9.131   0.849  0.7234  1.1155 -2.4663
  896MOL0     H20959   6.839   8.824   1.221  1.1344  1.7228 -1.0722
  896MOL0     H20960   6.719   8.624   1.139  1.8916 -2.9306 -1.0931
  897MOL0     O20961  10.108   1.411   5.003 -0.2115  0.3491  0.4304
  897MOL0     C20962  10.135   1.520   5.045  0.1708 -0.3178 -0.1460
  897MOL0     O20963  10.179   1.555   5.170 -0.4747  0.4053 -1.4478
  897MOL0     C20964  10.223   1.470   5.265 -0.9618  0.2473 -1.3176
  897MOL0     C20965  10.275   1.342   5.253 -0.0564 -0.0370  0.4714
  897MOL0     C20966  10.320   1.273   5.367 -0.4415  0.1408  0.4595
  897MOL0     C20967  10.324   1.329   5.496  0.3273  0.0245  0.4139
  897MOL0     O20968  10.374   1.263   5.607  0.2514  0.4335  0.1447
  897MOL0     C20969  10.396   1.117   5.606  0.0251  0.0083 -0.5928
  897MOL0     C20970  10.458   1.080   5.742 -0.3037  0.1389  0.1711
  897MOL0     C20971  10.590   1.146   5.754 -0.1999 -0.6558  0.3429
  897MOL0     C20972  10.660   1.097   5.880  0.6035 -0.2373  0.8535
  897MOL0     C20973  10.809   1.121   5.880  0.3040 -0.9576 -0.2251
  897MOL0     C20974  10.890   0.987   5.871 -0.3045 -0.4580 -1.1117
  897MOL0     C20975  11.043   1.005   5.834 -0.3602 -0.9238 -0.6529
  897MOL0     C20976  11.137   1.085   5.932 -0.2747 -0.1211 -0.8936
  897MOL0     N20977  11.137   1.015   6.068 -0.1529  0.5036  0.5527
  897MOL0     C20978  11.201   0.893   6.101 -0.8279 -0.2192 -0.7522
  897MOL0     C20979  11.161   0.862   6.228  0.1990  0.1673 -0.5136
  897MOL0     C20980  11.195   0.746   6.324  0.5541 -0.1110  0.6979
  897MOL0     C20981  11.228   0.819   6.450 -0.1573  0.1070  1.4346
  897MOL0     C20982  11.317   0.723   6.533 -0.9914 -0.5645 -0.7685
  897MOL0     C20983  11.370   0.778   6.660  0.0370 -0.4879 -0.0341
  897MOL0     O20984  11.437   0.907   6.632  0.3548  0.2097  0.4440
  897MOL0     C20985  11.464   0.989   6.743 -0.7289  0.6539  0.6554
  897MOL0     C20986  11.442   0.959   6.879 -0.2841 -0.3199 -0.2260
  897MOL0     C20987  11.485   1.052   6.981 -0.3578  0.3519 -0.7415
  897MOL0     C20988  11.463   1.001   7.123  1.1350 -0.4353 -0.2655
  897MOL0     C20989  11.542   1.178   6.942  0.4729  0.5463  0.2325
  897MOL0     C20990  11.545   1.295   7.039 -0.1448 -0.3851  1.5475
  897MOL0     O20991  11.648   1.383   7.008  0.0826  1.1233 -0.0761
  897MOL0     C20992  11.631   1.515   7.022  0.4220 -0.2519  0.0034
  897MOL0     C20993  11.547   1.578   6.929  0.5980  0.4596  0.3572
  897MOL0     C20994  11.521   1.716   6.934  0.8232  0.3676  0.1728
  897MOL0     C20995  11.567   1.792   7.044  0.3801  0.2219  0.5291
  897MOL0     O20996  11.520   1.924   7.048  0.4728 -0.3752 -0.7164
  897MOL0     C20997  11.512   1.981   7.180  0.7843 -0.7425 -1.3996
  897MOL0     C20998  11.436   2.120   7.185  0.5639 -0.1194  0.9039
  897MOL0     C20999  11.394   2.182   7.051  0.8697  0.6471  0.0113
  897MOL0     C21000  11.303   2.307   7.058 -0.6386  0.2840 -0.6847
  897MOL0     C21001  11.155   2.285   7.095 -0.0639  0.0730 -0.2913
  897MOL0     C21002  11.075   2.174   7.032  0.0479 -0.2944  0.6567
  897MOL0     C21003  10.933   2.183   7.094  0.1710 -0.4668 -0.8344
  897MOL0     C21004  10.839   2.078   7.046 -0.4510  0.4519  0.1613
  897MOL0    Cl21005  10.930   1.920   7.019 -0.1494  0.3029 -0.2344
  897MOL0     C21006  11.655   1.726   7.135  0.3164  0.0992  0.1930
  897MOL0     C21007  11.684   1.590   7.129 -0.2296  0.0508  0.4261
  897MOL0     O21008  11.462   1.311   7.127  0.2359  0.5581  0.6991
  897MOL0     C21009  11.565   1.203   6.807  0.4779  0.0111 -0.2162
  897MOL0     C21010  11.528   1.110   6.706  0.6533 -0.2879  0.1512
  897MOL0     N21011  11.060   0.956   6.256  0.8795  0.0971  0.5903
  897MOL0     N21012  11.042   1.046   6.164 -0.1352 -0.2286 -0.4083
  897MOL0     C21013  10.269   1.452   5.505  1.2593  0.6666  0.2754
  897MOL0     C21014  10.212   1.520   5.397 -0.2571 -0.8473  1.1669
  897MOL0     C21015  10.095   1.639   4.959 -0.3913  0.0307 -0.3078
  897MOL0     C21016  10.144   1.766   4.992 -0.9232 -0.2675 -0.2788
  897MOL0     C21017  10.108   1.881   4.913  0.5179 -0.7448  0.4657
  897MOL0     C21018  10.030   1.860   4.797  0.9579  0.7751  0.4532
  897MOL0     O21019   9.989   1.958   4.712 -0.0340 -0.2837  0.5696
  897MOL0     C21020   9.956   2.085   4.757  0.0602 -0.1171  0.0422
  897MOL0     C21021   9.840   2.081   4.862  0.5424  0.0849 -0.6918
  897MOL0     C21022   9.711   2.008   4.811  0.1876 -0.6205 -0.6464
  897MOL0     C21023   9.581   2.049   4.884  0.4306  0.3750 -0.2732
  897MOL0     C21024   9.532   2.181   4.835  1.5450 -0.2261 -0.4007
  897MOL0     C21025   9.508   2.287   4.787 -0.1816  0.1905 -0.0550
  897MOL0     C21026   9.984   1.733   4.758 -0.0162  0.5067 -0.5681
  897MOL0     C21027  10.014   1.622   4.844  0.8115  0.3096  0.3862
  897MOL0     H21028  10.296   1.318   5.149 -1.4253 -0.5823  0.2932
  897MOL0     H21029  10.376   1.184   5.340 -1.4633  0.3726 -2.9491
  897MOL0     H21030  10.302   1.063   5.616  0.4632 -0.4597  1.7650
  897MOL0     H21031  10.463   1.075   5.530  0.1776  0.0907 -0.5049
  897MOL0     H21032  10.396   1.103   5.829  2.1763  2.4144  1.4761
  897MOL0     H21033  10.478   0.972   5.748  1.4631  0.3530 -1.1323
  897MOL0     H21034  10.641   1.135   5.658 -1.3579 -2.3911 -0.1301
  897MOL0     H21035  10.574   1.254   5.765 -1.1764 -0.8389  0.8109
  897MOL0     H21036  10.622   1.141   5.973  0.5605  0.3454  0.5678
  897MOL0     H21037  10.634   0.991   5.876  0.4125 -0.1618 -1.2278
  897MOL0     H21038  10.843   1.182   5.796 -0.3271 -1.6832 -1.0203
  897MOL0     H21039  10.835   1.165   5.977  1.9949 -2.8595  0.2478
  897MOL0     H21040  10.886   0.923   5.959 -0.3748 -1.1834 -1.6304
  897MOL0     H21041  10.845   0.924   5.794 -1.0852 -0.4393 -0.6814
  897MOL0     H21042  11.093   0.909   5.819  3.4543  1.2465 -3.8716
  897MOL0     H21043  11.044   1.056   5.737  2.5861 -0.2526 -0.3582
  897MOL0     H21044  11.108   1.190   5.946  0.2144  0.3539 -3.0860
  897MOL0     H21045  11.239   1.082   5.892  0.9985 -0.1713  2.1140
  897MOL0     H21046  11.258   0.833   6.030  0.1113  0.6454 -0.7603
  897MOL0     H21047  11.121   0.666   6.334  3.5506 -3.7483 -2.5529
  897MOL0     H21048  11.287   0.702   6.286  0.1564  1.3964 -2.3196
  897MOL0     H21049  11.129   0.848   6.486 -1.5298  2.2086 -3.2029
  897MOL0     H21050  11.283   0.912   6.432 -0.0275 -0.3770 -1.1639
  897MOL0     H21051  11.403   0.697   6.471 -1.0753 -3.8418  0.2996
  897MOL0     H21052  11.261   0.630   6.551 -1.9509 -0.0821 -1.1562
  897MOL0     H21053  11.442   0.713   6.710 -0.5502  0.0118  1.5104
  897MOL0     H21054  11.286   0.796   6.728 -1.2901 -2.6717 -0.9781
  897MOL0     H21055  11.389   0.866   6.896  0.0078 -0.9919 -2.6657
  897MOL0     H21056  11.469   1.073   7.205  0.6606 -1.7455  0.9769
  897MOL0     H21057  11.365   0.957   7.145  1.3716 -0.0820  1.7746
  897MOL0     H21058  11.532   0.918   7.142  1.3702 -0.4583 -1.1864
  897MOL0     H21059  11.494   1.531   6.847 -1.1302  3.7488 -0.5936
  897MOL0     H21060  11.458   1.774   6.868  1.4938  1.0431  0.1138
  897MOL0     H21061  11.455   1.911   7.242  1.6919 -2.1579 -2.1031
  897MOL0     H21062  11.613   1.984   7.222  0.7924  0.0676 -1.4581
  897MOL0     H21063  11.350   2.121   7.254 -0.5137  1.4598 -0.3938
  897MOL0     H21064  11.511   2.183   7.234  1.6452  2.9790 -4.0638
  897MOL0     H21065  11.341   2.110   6.988 -1.9124  3.0940 -0.6752
  897MOL0     H21066  11.484   2.206   6.993  2.4358 -1.7035  1.2963
  897MOL0     H21067  11.350   2.376   7.129 -0.6042 -0.0815 -0.3489
  897MOL0     H21068  11.315   2.350   6.959  1.5294 -2.3377 -1.6788
  897MOL0     H21069  11.102   2.381   7.088  2.5581  1.8004  1.6702
  897MOL0     H21070  11.156   2.269   7.203  3.1102  1.6725  0.0283
  897MOL0     H21071  11.068   2.204   6.927  0.4937 -0.4971  0.5655
  897MOL0     H21072  11.123   2.076   7.039 -1.1014 -0.7499  2.9229
  897MOL0     H21073  10.900   2.283   7.062  1.9736 -0.1057 -1.7204
  897MOL0     H21074  10.944   2.185   7.202 -2.1631  0.6945 -0.5484
  897MOL0     H21075  10.789   2.113   6.955 -0.9126 -0.2592  0.1343
  897MOL0     H21076  10.757   2.046   7.110 -1.2417  0.5471 -0.7823
  897MOL0     H21077  11.678   1.796   7.215  0.8175  2.4235 -1.8618
  897MOL0     H21078  11.739   1.552   7.214 -0.7463  1.3449  1.3759
  897MOL0     H21079  11.608   1.295   6.769 -0.3839  1.7701  2.7768
  897MOL0     H21080  11.537   1.127   6.600 -0.9612 -0.8691 -0.0941
  897MOL0     H21081  10.248   1.495   5.602 -1.6921  1.4866 -0.6233
  897MOL0     H21082  10.158   1.613   5.408  1.6894  0.5044 -0.0293
  897MOL0     H21083  10.202   1.773   5.084  0.3370  0.6240 -1.1010
  897MOL0     H21084  10.142   1.981   4.938  0.8119 -0.7991  0.2889
  897MOL0     H21085  10.046   2.140   4.787  0.2919  0.3822 -1.4569
  897MOL0     H21086   9.917   2.146   4.675 -0.5077 -0.0514  0.3562
  897MOL0     H21087   9.809   2.182   4.888 -2.8993 -0.9311 -0.4348
  897MOL0     H21088   9.873   2.035   4.956  1.5412  0.7738 -0.6832
  897MOL0     H21089   9.711   1.900   4.827 -1.7626 -0.2750  2.6647
  897MOL0     H21090   9.709   2.027   4.703  2.4577 -0.4106 -0.6938
  897MOL0     H21091   9.578   2.051   4.994  1.7810 -0.9660 -0.1912
  897MOL0     H21092   9.501   1.978   4.863 -2.0221  2.6288  0.8892
  897MOL0     H21093   9.486   2.385   4.750 -0.8102 -0.0502 -0.3367
  897MOL0     H21094   9.921   1.718   4.671  0.0126 -0.2295 -0.4710
  897MOL0     H21095   9.966   1.526   4.831  0.4066  0.6117 -0.3959
  898MOL0     O21096   9.512   7.436   5.804  0.1474 -0.5062  0.0449
  898MOL0     C21097   9.563   7.556   5.804 -0.1035  0.8382 -0.1151
  898MOL0     O21098   9.618   7.620   5.917  0.5293  0.3240  0.4318
  898MOL0     C21099   9.649   7.544   6.027  0.2549  0.1861 -0.4161
  898MOL0     C21100   9.613   7.585   6.156  0.4079 -0.3443  0.9885
  898MOL0     C21101   9.652   7.513   6.269  0.6302 -0.3698 -0.5954
  898MOL0     C21102   9.730   7.399   6.254  0.1133 -0.1145  0.4413
  898MOL0     O21103   9.777   7.337   6.359 -0.6850 -0.2317  0.5087
  898MOL0     C21104   9.906   7.397   6.399  0.0400  0.6057  0.6219
  898MOL0     C21105   9.959   7.362   6.539  0.0837  0.4300  0.3087
  898MOL0     C21106   9.866   7.409   6.652  1.1941  0.2786 -0.4914
  898MOL0     C21107   9.792   7.545   6.653  0.9572  0.7212 -0.4021
  898MOL0     C21108   9.878   7.673   6.677  0.9917  1.6249  0.7023
  898MOL0     C21109   9.943   7.679   6.813  1.0973  0.2116 -0.1388
  898MOL0     C21110   9.837   7.655   6.933 -0.8690  0.5177 -0.2486
  898MOL0     C21111   9.889   7.692   7.068 -0.4307 -0.6685 -0.4486
  898MOL0     N21112   9.813   7.698   7.194  0.0909  0.2541 -1.2921
  898MOL0     C21113   9.703   7.618   7.240 -0.9754 -0.5421  0.1701
  898MOL0     C21114   9.657   7.666   7.354  0.1437  0.0095  0.3443
  898MOL0     C21115   9.556   7.600   7.442  0.3527 -0.7286  0.5184
  898MOL0     C21116   9.610   7.578   7.586  0.4931 -0.3379 -0.5093
  898MOL0     C21117   9.506   7.498   7.672  0.4173 -0.4179  0.8195
  898MOL0     C21118   9.490   7.348   7.643 -0.4290 -0.5289  0.2034
  898MOL0     O21119   9.611   7.279   7.636 -0.3948 -0.0383 -0.6334
  898MOL0     C21120   9.680   7.248   7.515  0.0969  0.5682 -0.1210
  898MOL0     C21121   9.615   7.257   7.390  0.1736 -0.3651 -0.3323
  898MOL0     C21122   9.684   7.219   7.275 -0.2647 -1.2940  0.4278
  898MOL0     C21123   9.623   7.240   7.141 -0.1902 -0.7489 -0.0326
  898MOL0     C21124   9.816   7.170   7.285 -0.1830 -0.4109  1.0027
  898MOL0     C21125   9.894   7.132   7.169 -0.7168  0.1840  0.3973
  898MOL0     O21126   9.873   7.002   7.121  0.0539 -0.5379  0.3031
  898MOL0     C21127   9.964   6.946   7.039  0.0720 -1.0221  0.1201
  898MOL0     C21128  10.091   6.918   7.093  0.0736  0.0385  0.7035
  898MOL0     C21129  10.185   6.842   7.023 -1.0118 -0.2524 -0.6178
  898MOL0     C21130  10.153   6.793   6.899  0.6225  0.2913 -0.4262
  898MOL0     O21131  10.236   6.724   6.826  0.3121 -0.7728 -0.6676
  898MOL0     C21132  10.344   6.805   6.768  0.7695  0.6074  0.2700
  898MOL0     C21133  10.481   6.725   6.772  0.0780  0.6121  0.3363
  898MOL0     C21134  10.526   6.661   6.636  0.5755 -0.3509 -0.4129
  898MOL0     C21135  10.625   6.549   6.637  0.2070 -0.0235  0.5597
  898MOL0     C21136  10.769   6.587   6.648  0.4967  0.4052  0.2202
  898MOL0     C21137  10.860   6.555   6.516  0.4923 -0.3954 -0.2431
  898MOL0     C21138  10.828   6.659   6.405 -0.1112 -0.3005  0.3468
  898MOL0     C21139  10.935   6.640   6.285 -0.0988  0.0055 -0.5646
  898MOL0    Cl21140  10.929   6.763   6.163  0.1955 -0.0875  0.2605
  898MOL0     C21141  10.031   6.835   6.834  0.4398 -0.0284  0.0545
  898MOL0     C21142   9.937   6.915   6.901  0.0229 -0.2863 -0.4412
  898MOL0     O21143   9.940   7.224   7.105  0.5086 -0.8463  0.0027
  898MOL0     C21144   9.885   7.165   7.405 -0.8582  1.1378 -0.6786
  898MOL0     C21145   9.812   7.209   7.522  0.9692 -0.0578  0.2845
  898MOL0     N21146   9.740   7.769   7.381 -0.2055 -0.3775 -0.0615
  898MOL0     N21147   9.826   7.788   7.294 -0.5558 -0.5422  0.9423
  898MOL0     C21148   9.764   7.352   6.123  0.4461 -0.4859  0.1882
  898MOL0     C21149   9.731   7.426   6.010 -0.4945 -0.2104  0.2345
  898MOL0     C21150   9.566   7.624   5.681 -0.2796 -0.1887  0.0681
  898MOL0     C21151   9.538   7.558   5.556 -0.4589 -0.4333 -0.7692
  898MOL0     C21152   9.534   7.619   5.436 -0.6118 -0.4994 -0.4458
  898MOL0     C21153   9.557   7.762   5.438  0.0882  0.1031 -0.2092
  898MOL0     O21154   9.562   7.839   5.320 -0.4786 -0.2304  0.2815
  898MOL0     C21155   9.591   7.778   5.196  0.0456 -0.2017 -0.6609
  898MOL0     C21156   9.615   7.895   5.102  0.2867 -0.0907 -0.1711
  898MOL0     C21157   9.677   7.837   4.976  0.0369  0.0322 -0.8466
  898MOL0     C21158   9.579   7.815   4.858 -0.0897 -0.3896 -0.1528
  898MOL0     C21159   9.654   7.760   4.746 -0.1431  0.8777 -0.1277
  898MOL0     C21160   9.707   7.716   4.649 -0.1749 -0.1025  0.0534
  898MOL0     C21161   9.567   7.833   5.557  0.9009 -0.0649  0.7438
  898MOL0     C21162   9.578   7.758   5.678 -1.0526  0.0302 -0.2199
  898MOL0     H21163   9.552   7.674   6.164  2.1994  0.9208  1.2020
  898MOL0     H21164   9.619   7.552   6.365  0.0501  1.3479 -1.4442
  898MOL0     H21165   9.978   7.373   6.320  1.1135  2.9976  0.7778
  898MOL0     H21166   9.891   7.506   6.400 -0.3639  0.5635 -0.2888
  898MOL0     H21167   9.970   7.254   6.553 -3.2454  0.0350  0.7502
  898MOL0     H21168  10.063   7.392   6.547  1.6493 -4.2877  0.6540
  898MOL0     H21169   9.797   7.324   6.653 -0.8533  1.7069  3.7111
  898MOL0     H21170   9.916   7.409   6.750 -0.9572 -2.3106  0.7193
  898MOL0     H21171   9.746   7.560   6.555 -1.2890  0.3420  0.5372
  898MOL0     H21172   9.711   7.553   6.726  1.8444  1.3816  0.5570
  898MOL0     H21173   9.959   7.673   6.604  2.0453 -2.0311  1.6637
  898MOL0     H21174   9.813   7.761   6.666 -3.2001 -1.4329 -2.8188
  898MOL0     H21175  10.025   7.606   6.818 -0.1559 -1.1721  1.0993
  898MOL0     H21176   9.981   7.781   6.825  0.6885  0.4309 -0.7210
  898MOL0     H21177   9.750   7.716   6.912 -0.4995  0.1258 -3.2700
  898MOL0     H21178   9.807   7.550   6.943  0.5159  0.0199 -0.9738
  898MOL0     H21179   9.920   7.796   7.053 -1.5183 -0.3471 -0.5171
  898MOL0     H21180   9.977   7.629   7.090 -0.0989  0.4662  1.6878
  898MOL0     H21181   9.672   7.539   7.172  0.6671  0.6063 -2.0582
  898MOL0     H21182   9.471   7.670   7.440  2.7524  2.4033 -0.8645
  898MOL0     H21183   9.527   7.502   7.403  0.1602 -0.1735 -0.7674
  898MOL0     H21184   9.630   7.673   7.637 -3.5486  1.1651 -1.3605
  898MOL0     H21185   9.704   7.522   7.588  0.7085  0.0224 -0.6258
  898MOL0     H21186   9.405   7.534   7.651  0.6919 -0.5165 -0.8028
  898MOL0     H21187   9.522   7.521   7.778 -1.1707 -1.7818  1.3901
  898MOL0     H21188   9.431   7.334   7.552 -0.8469  4.1093 -0.4577
  898MOL0     H21189   9.428   7.314   7.727  0.4376  0.6289  1.3537
  898MOL0     H21190   9.513   7.292   7.377  0.7233  2.3603  1.7231
  898MOL0     H21191   9.527   7.292   7.139  0.3181  0.1986 -2.2892
  898MOL0     H21192   9.695   7.300   7.085  2.4346 -0.9825  2.8024
  898MOL0     H21193   9.631   7.155   7.074  3.1293  1.1186 -2.2966
  898MOL0     H21194  10.109   6.957   7.193  1.1535 -1.0378  0.9578
  898MOL0     H21195  10.272   6.813   7.081 -1.5170 -2.0742 -0.7147
  898MOL0     H21196  10.318   6.848   6.671 -1.8378  0.1804  0.7187
  898MOL0     H21197  10.348   6.887   6.840 -0.4083 -0.5091  1.6630
  898MOL0     H21198  10.562   6.787   6.810  0.2224  1.0001 -0.6012
  898MOL0     H21199  10.480   6.639   6.841  1.6563 -1.3874 -1.9939
  898MOL0     H21200  10.574   6.747   6.587  4.2441 -1.1004  1.4901
  898MOL0     H21201  10.440   6.638   6.573  1.4737 -3.8650 -0.5288
  898MOL0     H21202  10.593   6.482   6.718 -3.3383  1.9574  1.0136
  898MOL0     H21203  10.614   6.479   6.554 -0.8770  2.3115 -1.3696
  898MOL0     H21204  10.829   6.532   6.722 -1.0138  0.6013  1.6489
  898MOL0     H21205  10.773   6.695   6.665  0.7707  0.6648 -1.3949
  898MOL0     H21206  10.964   6.569   6.545  0.1904 -0.3866  0.8783
  898MOL0     H21207  10.830   6.455   6.485 -0.8577 -2.2294  5.6486
  898MOL0     H21208  10.835   6.763   6.441 -0.1574 -0.7151  1.6054
  898MOL0     H21209  10.727   6.646   6.366 -0.3221  1.6136  0.1323
  898MOL0     H21210  10.923   6.543   6.237  1.0796  0.2407 -1.3836
  898MOL0     H21211  11.039   6.639   6.320  0.5864  3.4206 -2.0463
  898MOL0     H21212   9.999   6.803   6.736  1.4457  1.2357 -0.7217
  898MOL0     H21213   9.844   6.933   6.848 -1.3909 -1.4921  1.4924
  898MOL0     H21214   9.984   7.126   7.423 -1.4518 -0.0466  0.1714
  898MOL0     H21215   9.858   7.207   7.620  1.1109 -0.1716  0.2159
  898MOL0     H21216   9.820   7.259   6.116  0.9136 -0.1092 -2.0517
  898MOL0     H21217   9.755   7.391   5.910 -1.8628 -2.8773  0.7416
  898MOL0     H21218   9.520   7.451   5.553  1.2209 -0.7310 -3.0180
  898MOL0     H21219   9.525   7.567   5.342  1.3443  0.6790 -1.3527
  898MOL0     H21220   9.689   7.736   5.222  0.0214  0.9009  1.4532
  898MOL0     H21221   9.520   7.704   5.158  1.5487 -0.1272 -3.9146
  898MOL0     H21222   9.675   7.970   5.154  1.3946 -0.5340 -0.7879
  898MOL0     H21223   9.514   7.931   5.078 -0.7268 -2.7320 -0.1270
  898MOL0     H21224   9.732   7.744   4.995  0.7749  0.3477 -1.3939
  898MOL0     H21225   9.759   7.906   4.955  1.1617 -1.2424 -0.7859
  898MOL0     H21226   9.546   7.917   4.840 -0.2644 -0.1247  1.5347
  898MOL0     H21227   9.490   7.753   4.878  0.8787 -1.9763 -0.6066
  898MOL0     H21228   9.762   7.664   4.572  2.3812 -1.2397  2.4481
  898MOL0     H21229   9.571   7.941   5.564 -2.2060  0.0489  2.5604
  898MOL0     H21230   9.600   7.805   5.774  3.1507 -2.7025  0.4175
  899MOL0     O21231   4.086   7.688   9.364 -0.6095  0.7811 -0.1207
  899MOL0     C21232   4.160   7.699   9.260 -0.2112  1.0233 -0.9219
  899MOL0     O21233   4.138   7.651   9.131  0.2319  0.4865  0.5248
  899MOL0     C21234   4.019   7.584   9.108  0.3690  0.7522 -0.9681
  899MOL0     C21235   3.956   7.484   9.188 -0.6827  0.2260  0.0045
  899MOL0     C21236   3.829   7.434   9.147  0.6168 -0.4523 -0.6519
  899MOL0     C21237   3.768   7.465   9.029  0.2870  0.1778  0.2647
  899MOL0     O21238   3.650   7.401   8.997  0.2013  0.2427  0.4660
  899MOL0     C21239   3.637   7.363   8.864  1.6687 -0.0412  0.1678
  899MOL0     C21240   3.485   7.355   8.838  0.4119  0.4479  0.0094
  899MOL0     C21241   3.460   7.242   8.751 -0.8271 -0.0812  0.8155
  899MOL0     C21242   3.314   7.216   8.734  0.0002  1.7086 -0.2546
  899MOL0     C21243   3.274   7.190   8.593  0.1077  0.9118 -0.3035
  899MOL0     C21244   3.130   7.145   8.570 -0.7762 -0.2277 -1.0451
  899MOL0     C21245   3.090   7.104   8.423  0.0369 -0.7612 -0.5705
  899MOL0     C21246   3.100   7.225   8.329  1.1475 -0.0841  0.8074
  899MOL0     N21247   2.978   7.317   8.339 -0.2457 -0.4074 -0.4775
  899MOL0     C21248   2.975   7.441   8.400  0.8939 -0.5710 -0.2782
  899MOL0     C21249   2.857   7.501   8.374 -0.2670  0.8183  0.8714
  899MOL0     C21250   2.818   7.624   8.433 -0.2451 -0.4318  0.6679
  899MOL0     C21251   2.830   7.745   8.334  0.2148  0.8741 -0.2536
  899MOL0     C21252   2.698   7.804   8.296  0.3434 -0.3342  0.1130
  899MOL0     C21253   2.691   7.931   8.219  0.3142  0.1076 -0.2418
  899MOL0     O21254   2.736   8.040   8.306 -0.4616  0.5742 -0.8349
  899MOL0     C21255   2.727   8.169   8.272  0.0651  0.7498 -0.4374
  899MOL0     C21256   2.711   8.222   8.141  0.8928 -0.0493 -0.2339
  899MOL0     C21257   2.688   8.359   8.120 -0.8973  0.2899 -0.4103
  899MOL0     C21258   2.685   8.403   7.975  0.9449 -1.2274  0.1920
  899MOL0     C21259   2.687   8.450   8.233  0.0578 -0.3386  0.9063
  899MOL0     C21260   2.664   8.599   8.215 -1.0962 -0.4272 -0.7391
  899MOL0     O21261   2.696   8.664   8.331  0.8480  0.3027  0.1155
  899MOL0     C21262   2.663   8.793   8.346  0.6075  0.6520  0.3132
  899MOL0     C21263   2.528   8.828   8.341  0.2979 -0.1400  0.1788
  899MOL0     C21264   2.492   8.960   8.337  0.7562 -0.2026  0.9177
  899MOL0     C21265   2.590   9.067   8.344  0.5109  0.5885  0.4186
  899MOL0     O21266   2.543   9.196   8.349  0.5174 -0.1287 -0.5635
  899MOL0     C21267   2.612   9.298   8.428 -0.1227  0.1583  0.0177
  899MOL0     C21268   2.517   9.402   8.455  0.1818 -0.2285  0.1091
  899MOL0     C21269   2.503   9.493   8.331 -0.4803  0.2466  0.2389
  899MOL0     C21270   2.369   9.572   8.340  0.0125  1.0893 -0.2488
  899MOL0     C21271   2.337   9.676   8.229 -0.6982 -0.4197  0.3286
  899MOL0     C21272   2.322   9.604   8.089 -0.2817 -0.5424 -0.5165
  899MOL0     C21273   2.274   9.697   7.987  0.1700 -0.4159  0.6925
  899MOL0     C21274   2.267   9.635   7.846 -0.5629 -0.0393 -0.3968
  899MOL0    Cl21275   2.137   9.515   7.825 -0.1783 -0.0648 -0.0791
  899MOL0     C21276   2.726   9.028   8.344 -0.5046 -0.4905 -0.0755
  899MOL0     C21277   2.766   8.895   8.348 -0.8740  0.0404  0.5664
  899MOL0     O21278   2.613   8.652   8.117  0.8827 -0.1527 -0.4170
  899MOL0     C21279   2.718   8.399   8.356 -0.8195  0.9360 -1.3196
  899MOL0     C21280   2.735   8.262   8.380  0.3680 -0.0313 -0.9418
  899MOL0     N21281   2.790   7.414   8.298 -0.7379  0.0267  0.1470
  899MOL0     N21282   2.865   7.314   8.274  0.7420  0.9107  0.2199
  899MOL0     C21283   3.830   7.557   8.949 -0.1688  0.5338 -0.6611
  899MOL0     C21284   3.952   7.614   8.995 -0.1968  0.5618  0.7614
  899MOL0     C21285   4.275   7.778   9.291  0.2434  0.2155 -0.1930
  899MOL0     C21286   4.388   7.774   9.193 -0.0189 -0.0762  0.0610
  899MOL0     C21287   4.495   7.869   9.215  0.8976  0.4129 -0.1831
  899MOL0     C21288   4.499   7.954   9.330 -0.1083  0.1750 -0.3934
  899MOL0     O21289   4.615   8.038   9.360  0.6892 -0.5504 -0.7920
  899MOL0     C21290   4.653   8.131   9.248  0.5440  0.4962  0.0182
  899MOL0     C21291   4.562   8.254   9.249 -0.4850  0.2305 -0.7260
  899MOL0     C21292   4.581   8.376   9.351 -0.6577  0.7979  0.6305
  899MOL0     C21293   4.738   8.409   9.376 -0.1190 -0.1414  0.7274
  899MOL0     C21294   4.809   8.464   9.254  0.1476  0.2167  0.1999
  899MOL0     C21295   4.862   8.476   9.145 -0.2545 -0.6571 -0.1712
  899MOL0     C21296   4.389   7.954   9.416 -0.0362 -0.3323 -0.0166
  899MOL0     C21297   4.288   7.866   9.403 -0.3520  1.4604 -0.5230
  899MOL0     H21298   4.012   7.458   9.276  0.9625  0.2710 -0.9947
  899MOL0     H21299   3.785   7.380   9.231 -1.1376 -0.3616 -1.4634
  899MOL0     H21300   3.681   7.430   8.789 -0.7060  2.4342  0.8196
  899MOL0     H21301   3.683   7.264   8.855  2.5366  0.5262 -2.6216
  899MOL0     H21302   3.438   7.338   8.936 -2.8689  0.0216 -1.5057
  899MOL0     H21303   3.441   7.448   8.802 -0.3848  0.4222  0.8554
  899MOL0     H21304   3.504   7.277   8.657  1.6918 -4.1246  0.2655
  899MOL0     H21305   3.512   7.158   8.798 -2.3504 -1.6180 -0.1448
  899MOL0     H21306   3.297   7.128   8.797  0.9183  0.4295 -1.7005
  899MOL0     H21307   3.251   7.289   8.785 -1.5926  0.1890  0.0437
  899MOL0     H21308   3.292   7.283   8.538  1.1289  1.6947  1.2609
  899MOL0     H21309   3.341   7.119   8.544 -1.8908 -0.6818 -0.8805
  899MOL0     H21310   3.109   7.054   8.628  0.6953 -0.0152 -0.1423
  899MOL0     H21311   3.071   7.230   8.606 -0.5966 -0.7947  0.6758
  899MOL0     H21312   3.158   7.023   8.395 -1.0545 -1.5754 -0.9232
  899MOL0     H21313   2.986   7.071   8.434  0.7532 -3.8782 -2.1040
  899MOL0     H21314   3.099   7.184   8.227  0.2946  2.3358 -0.2187
  899MOL0     H21315   3.185   7.288   8.354  0.3234  1.3762  0.0452
  899MOL0     H21316   3.060   7.485   8.451 -1.8892  2.3304  2.3368
  899MOL0     H21317   2.720   7.621   8.482 -1.4436  5.9344 -0.4410
  899MOL0     H21318   2.891   7.649   8.510  1.7251  1.7676 -1.6996
  899MOL0     H21319   2.892   7.726   8.246 -2.0924  4.0735 -2.8196
  899MOL0     H21320   2.892   7.820   8.385  0.0799  2.8782 -2.8373
  899MOL0     H21321   2.648   7.814   8.393  2.3507 -1.3311  1.3238
  899MOL0     H21322   2.640   7.734   8.234 -1.5770  2.2233 -1.1646
  899MOL0     H21323   2.596   7.952   8.169  0.8487 -1.2523 -1.9195
  899MOL0     H21324   2.762   7.925   8.135 -0.6179 -0.9038 -0.9869
  899MOL0     H21325   2.715   8.139   8.070  4.4009 -0.1019 -0.1831
  899MOL0     H21326   2.675   8.331   7.893 -3.9096  0.8893 -1.4301
  899MOL0     H21327   2.612   8.478   7.944  1.5416 -1.1814 -1.1333
  899MOL0     H21328   2.778   8.459   7.962 -0.0608 -0.0150 -2.2797
  899MOL0     H21329   2.441   8.764   8.335 -0.0563  0.3092  0.4313
  899MOL0     H21330   2.387   8.985   8.330  1.1147  1.9867  2.5303
  899MOL0     H21331   2.659   9.255   8.517  3.0145  0.9843 -1.1076
  899MOL0     H21332   2.701   9.346   8.386  1.9849 -1.2638  2.4864
  899MOL0     H21333   2.421   9.362   8.487  0.6212 -0.9069  0.6078
  899MOL0     H21334   2.551   9.462   8.540  1.5658  2.1795 -1.9917
  899MOL0     H21335   2.508   9.436   8.237 -0.1465  1.4152 -0.4722
  899MOL0     H21336   2.580   9.570   8.325  0.4786 -0.6855  0.3507
  899MOL0     H21337   2.287   9.500   8.335  0.0199  0.8583  1.9342
  899MOL0     H21338   2.351   9.619   8.438  0.5615  0.2896  0.2528
  899MOL0     H21339   2.416   9.751   8.228 -0.5624 -0.5698 -0.4037
  899MOL0     H21340   2.241   9.722   8.254 -1.2179 -0.8974 -0.7111
  899MOL0     H21341   2.421   9.576   8.051 -1.4048  0.9858 -5.3844
  899MOL0     H21342   2.259   9.515   8.095 -0.4640 -0.4065 -0.4023
  899MOL0     H21343   2.337   9.785   7.971 -1.0899  0.3125 -0.5399
  899MOL0     H21344   2.174   9.738   8.006  0.8938  1.9590 -0.2269
  899MOL0     H21345   2.363   9.588   7.822 -0.1297 -0.1717  1.5002
  899MOL0     H21346   2.246   9.723   7.784 -2.8816 -0.5076 -0.3355
  899MOL0     H21347   2.809   9.098   8.348 -0.4936 -0.5660  2.1261
  899MOL0     H21348   2.869   8.862   8.341 -0.5610  1.0131  0.5526
  899MOL0     H21349   2.729   8.456   8.447  2.8883  3.3243 -3.0093
  899MOL0     H21350   2.752   8.229   8.482 -1.5172 -1.2824 -0.9764
  899MOL0     H21351   3.787   7.580   8.853 -0.3210  0.2931 -0.6528
  899MOL0     H21352   4.002   7.676   8.920 -1.8408  2.0786  0.8654
  899MOL0     H21353   4.368   7.723   9.099 -0.4380 -0.6047  0.4340
  899MOL0     H21354   4.575   7.861   9.143  2.4546 -1.1949  1.6276
  899MOL0     H21355   4.755   8.171   9.256  0.0745  1.5695  0.8337
  899MOL0     H21356   4.644   8.078   9.152  0.9530 -1.8091  1.1786
  899MOL0     H21357   4.458   8.225   9.264  0.2882 -0.8214  5.1069
  899MOL0     H21358   4.560   8.304   9.152 -2.7621 -1.1376 -1.4368
  899MOL0     H21359   4.541   8.343   9.447  0.4634 -1.9925  0.2223
  899MOL0     H21360   4.530   8.467   9.317 -2.1963 -0.0955  0.4304
  899MOL0     H21361   4.786   8.314   9.401  0.7690  0.0237 -0.2839
  899MOL0     H21362   4.761   8.477   9.459 -0.7069 -1.2085  1.7912
  899MOL0     H21363   4.912   8.488   9.051 -0.0373  1.5036  0.1629
  899MOL0     H21364   4.384   8.026   9.497 -1.0289 -0.4014 -0.0010
  899MOL0     H21365   4.200   7.872   9.466 -0.9158 -1.8658 -0.8118
  900MOL0     O21366   1.527   7.890   9.420  0.4988  0.5045 -0.0197
  900MOL0     C21367   1.604   7.980   9.468 -0.3618  0.1260  0.4076
  900MOL0     O21368   1.734   8.007   9.418  0.7570 -0.1902 -0.5072
  900MOL0     C21369   1.788   7.919   9.324 -0.5905 -1.1963  1.6961
  900MOL0     C21370   1.834   7.963   9.203 -0.1264 -0.9920 -0.0148
  900MOL0     C21371   1.869   7.879   9.098  0.6749  0.2345 -0.1062
  900MOL0     C21372   1.868   7.742   9.119  0.1279  0.5698 -0.3720
  900MOL0     O21373   1.909   7.655   9.022  0.3636 -0.5542 -0.6224
  900MOL0     C21374   1.961   7.693   8.898  0.2489 -0.4151 -0.1058
  900MOL0     C21375   1.969   7.564   8.807 -0.3960  0.0182 -0.0702
  900MOL0     C21376   2.057   7.570   8.680  0.1846 -0.8596  0.6463
  900MOL0     C21377   2.044   7.443   8.596 -1.2813 -0.2210  0.6465
  900MOL0     C21378   2.119   7.323   8.665  0.3881 -0.0231  0.3487
  900MOL0     C21379   2.106   7.196   8.576 -0.2138  0.1443  0.1101
  900MOL0     C21380   2.193   7.078   8.626 -0.2356  0.2408 -0.6674
  900MOL0     C21381   2.119   7.003   8.735  0.9732  0.0032  0.8066
  900MOL0     N21382   2.191   6.942   8.844  0.4410  0.2716 -0.2739
  900MOL0     C21383   2.300   7.008   8.903 -0.1451 -0.2467 -0.3972
  900MOL0     C21384   2.361   6.911   8.979 -0.0800  0.4752  0.5918
  900MOL0     C21385   2.479   6.934   9.076 -1.0065  0.3751  1.0370
  900MOL0     C21386   2.458   7.049   9.170  1.0958  0.6067 -1.1760
  900MOL0     C21387   2.587   7.114   9.233 -0.6700  0.3903  0.2226
  900MOL0     C21388   2.654   7.197   9.133 -0.1985 -0.1957 -0.1960
  900MOL0     O21389   2.783   7.237   9.174 -0.3500 -0.8726 -0.6315
  900MOL0     C21390   2.866   7.306   9.088 -0.2106 -0.6263  1.6877
  900MOL0     C21391   2.824   7.353   8.963 -1.0192 -0.5383  0.3410
  900MOL0     C21392   2.912   7.432   8.883 -0.0349 -1.2043 -0.1228
  900MOL0     C21393   2.858   7.491   8.752 -0.5922  0.4754  1.3736
  900MOL0     C21394   3.042   7.463   8.927 -0.5138 -0.2119  0.1343
  900MOL0     C21395   3.136   7.548   8.847  0.4949 -0.3596 -0.0166
  900MOL0     O21396   3.210   7.644   8.913  0.2907 -0.1450  0.1887
  900MOL0     C21397   3.300   7.731   8.850  0.2305 -0.5331 -0.4805
  900MOL0     C21398   3.440   7.727   8.886  0.1615  0.0914  1.1460
  900MOL0     C21399   3.536   7.814   8.827 -0.1639 -0.1603 -0.4499
  900MOL0     C21400   3.488   7.923   8.750 -0.5470  1.3361 -0.4812
  900MOL0     O21401   3.591   8.001   8.711  0.4768  0.2587 -0.1471
  900MOL0     C21402   3.558   8.103   8.620  0.0437  0.1734 -0.0508
  900MOL0     C21403   3.698   8.142   8.575 -0.4017 -0.7146 -0.1592
  900MOL0     C21404   3.710   8.283   8.517 -0.1371 -0.2935  0.4804
  900MOL0     C21405   3.863   8.308   8.506 -0.7931 -0.2586  0.4747
  900MOL0     C21406   3.926   8.222   8.400  0.4605  0.3559 -0.1242
  900MOL0     C21407   4.077   8.229   8.398 -0.2805 -0.1946  0.1380
  900MOL0     C21408   4.133   8.138   8.284 -0.8538 -0.5506 -0.0661
  900MOL0     C21409   4.165   7.999   8.333 -0.1142  0.1137  0.0638
  900MOL0    Cl21410   4.284   8.002   8.467  0.5471 -0.2509  0.2423
  900MOL0     C21411   3.353   7.932   8.716 -0.0971  0.7195  0.0463
  900MOL0     C21412   3.266   7.834   8.770  0.4871  0.3790  0.5078
  900MOL0     O21413   3.144   7.532   8.723  0.4102  0.5069  0.0416
  900MOL0     C21414   3.085   7.412   9.045 -0.3109 -0.6329  0.9687
  900MOL0     C21415   2.999   7.337   9.127 -0.0177  0.8171  0.7169
  900MOL0     N21416   2.287   6.796   8.953 -0.3778  1.3554 -0.6152
  900MOL0     N21417   2.187   6.812   8.875 -0.5795 -0.2338  0.2711
  900MOL0     C21418   1.805   7.694   9.235 -0.8017 -0.1464  0.7121
  900MOL0     C21419   1.770   7.781   9.331 -0.2790 -0.0552 -0.6264
  900MOL0     C21420   1.560   8.031   9.603  0.1903 -0.1966  0.9375
  900MOL0     C21421   1.614   8.153   9.638  1.0680  0.4297 -0.0584
  900MOL0     C21422   1.569   8.211   9.750 -0.6005 -0.2798  0.0163
  900MOL0     C21423   1.474   8.151   9.842 -0.7345  0.0146 -0.0434
  900MOL0     O21424   1.446   8.213   9.963 -0.6055  0.2666  0.2649
  900MOL0     C21425   1.348   8.311   9.955 -0.5056  0.3727  0.5017
  900MOL0     C21426   1.307   8.360  10.091  0.7235  1.0408 -0.7325
  900MOL0     C21427   1.422   8.428  10.174 -0.2413  0.9874  1.2918
  900MOL0     C21428   1.360   8.485  10.309  0.2338  0.6815  0.9051
  900MOL0     C21429   1.307   8.620  10.288  0.0425 -0.2960  1.1017
  900MOL0     C21430   1.273   8.734  10.281 -0.8644  0.7208 -0.2156
  900MOL0     C21431   1.416   8.035   9.804 -0.3111 -0.2469 -0.4001
  900MOL0     C21432   1.471   7.967   9.688  0.4118 -0.1998 -0.7327
  900MOL0     H21433   1.833   8.070   9.185 -4.6454 -1.0139 -0.9487
  900MOL0     H21434   1.903   7.930   9.009  2.4043 -1.2455 -0.3468
  900MOL0     H21435   1.897   7.773   8.860  1.1336 -0.0350 -0.8293
  900MOL0     H21436   2.059   7.737   8.918 -0.8244  2.0189  0.2091
  900MOL0     H21437   1.982   7.473   8.866 -1.5611  0.9898  1.7376
  900MOL0     H21438   1.872   7.555   8.757  0.5390  0.1900 -2.0514
  900MOL0     H21439   2.020   7.655   8.622  1.6344 -0.1121  0.7678
  900MOL0     H21440   2.161   7.592   8.706 -0.1777  3.6186 -0.8377
  900MOL0     H21441   1.937   7.425   8.580 -0.4299 -2.8701 -3.8508
  900MOL0     H21442   2.090   7.469   8.500 -1.0392  1.6530  1.2285
  900MOL0     H21443   2.226   7.343   8.673  0.0749  2.2732 -0.3799
  900MOL0     H21444   2.067   7.304   8.759 -1.2911 -0.2625 -0.5778
  900MOL0     H21445   1.999   7.172   8.576 -0.7343  2.1599 -1.4348
  900MOL0     H21446   2.150   7.212   8.477  2.9172 -2.5710  0.9007
  900MOL0     H21447   2.222   7.009   8.546 -0.2490 -1.4358  0.7040
  900MOL0     H21448   2.289   7.103   8.673 -0.7861 -2.6776  2.4691
  900MOL0     H21449   2.076   6.918   8.680 -0.5112 -1.7307  4.3371
  900MOL0     H21450   2.038   7.063   8.778 -2.1417 -1.5413 -2.2927
  900MOL0     H21451   2.318   7.112   8.879 -2.8595  0.3678 -0.0847
  900MOL0     H21452   2.482   6.844   9.139 -1.4066 -0.9600 -0.7537
  900MOL0     H21453   2.573   6.942   9.021 -2.0499 -0.4402 -0.9746
  900MOL0     H21454   2.393   7.022   9.253 -2.2197  2.2901 -3.0185
  900MOL0     H21455   2.400   7.132   9.128  0.0746 -0.9303 -2.9575
  900MOL0     H21456   2.666   7.047   9.268  1.3949  2.5276 -0.1715
  900MOL0     H21457   2.553   7.163   9.325  4.4754 -2.0107  3.8884
  900MOL0     H21458   2.594   7.285   9.106 -2.0516 -0.9826  1.1350
  900MOL0     H21459   2.684   7.140   9.045  5.7773  2.2164 -0.1810
  900MOL0     H21460   2.722   7.348   8.927 -0.1884 -1.2217 -2.1295
  900MOL0     H21461   2.918   7.455   8.668 -0.6154  7.9390 -2.7723
  900MOL0     H21462   2.751   7.470   8.745 -0.6258 -0.5292  4.0039
  900MOL0     H21463   2.875   7.599   8.749 -0.8666  0.5095  1.1045
  900MOL0     H21464   3.480   7.646   8.947  2.1868  0.0747 -0.1115
  900MOL0     H21465   3.642   7.800   8.848 -0.2517 -0.2811 -0.0823
  900MOL0     H21466   3.499   8.069   8.534 -1.1201 -2.5091  1.7030
  900MOL0     H21467   3.520   8.183   8.683  3.2264  0.4636  1.6951
  900MOL0     H21468   3.765   8.129   8.659 -0.3795 -3.1757 -0.4795
  900MOL0     H21469   3.721   8.066   8.500  0.2228  0.2809 -1.0107
  900MOL0     H21470   3.653   8.345   8.587 -0.0546  1.3202 -0.8244
  900MOL0     H21471   3.659   8.282   8.420  1.8919  1.7698 -0.7072
  900MOL0     H21472   3.887   8.413   8.485  2.2361 -1.0932 -0.6907
  900MOL0     H21473   3.921   8.286   8.596  1.7668  3.1377 -0.1612
  900MOL0     H21474   3.879   8.255   8.307  1.3408  1.4889 -0.1873
  900MOL0     H21475   3.909   8.115   8.416  2.8803 -0.0999 -0.2732
  900MOL0     H21476   4.109   8.332   8.383  0.9216 -0.8414 -2.1216
  900MOL0     H21477   4.114   8.192   8.495  2.0074 -1.4310 -1.1339
  900MOL0     H21478   4.227   8.180   8.246  0.3079 -3.1697 -0.3146
  900MOL0     H21479   4.059   8.140   8.204 -1.0801 -1.4953  0.1146
  900MOL0     H21480   4.181   7.937   8.244 -3.6527  1.4505 -1.7108
  900MOL0     H21481   4.073   7.970   8.385 -0.3208  3.4000  1.8609
  900MOL0     H21482   3.322   8.017   8.655  1.8945  0.4120 -1.4954
  900MOL0     H21483   3.159   7.843   8.752  0.0409 -3.1677  0.6609
  900MOL0     H21484   3.182   7.442   9.083  0.1667 -0.0792 -0.6034
  900MOL0     H21485   3.022   7.327   9.232 -1.1468  1.0071  0.9869
  900MOL0     H21486   1.789   7.587   9.240 -0.5982 -0.3182 -1.3803
  900MOL0     H21487   1.725   7.736   9.419  2.1734  1.3698  1.4821
  900MOL0     H21488   1.668   8.216   9.569  0.3090  0.8539 -0.2823
  900MOL0     H21489   1.613   8.309   9.768  0.2755  0.2386 -3.8581
  900MOL0     H21490   1.375   8.402   9.901 -3.0425  1.2651  0.5986
  900MOL0     H21491   1.260   8.272   9.902  0.7614 -2.0762  0.0371
  900MOL0     H21492   1.260   8.281  10.149  1.4083  0.2616 -1.2047
  900MOL0     H21493   1.239   8.443  10.069 -2.1845 -1.5976 -2.4459
  900MOL0     H21494   1.477   8.501  10.114 -1.5113 -0.6887 -2.1927
  900MOL0     H21495   1.495   8.352  10.204 -0.8842  0.8170  2.4651
  900MOL0     H21496   1.439   8.499  10.383 -0.3994 -1.1259  1.9878
  900MOL0     H21497   1.292   8.421  10.366 -1.1674  1.1936 -0.1379
  900MOL0     H21498   1.249   8.837  10.268 -1.1413  0.4157 -2.7166
  900MOL0     H21499   1.333   7.990   9.858 -1.5487  2.8105  0.4921
  900MOL0     H21500   1.431   7.870   9.661 -0.0624 -0.7237  1.5865
  901MOL0     O21501   3.761   5.231   9.175 -0.1657 -0.1622  0.5962
  901MOL0     C21502   3.792   5.114   9.194  0.2187  0.2106 -0.2191
  901MOL0     O21503   3.893   5.048   9.139  0.1102  0.2683  0.3373
  901MOL0     C21504   3.982   5.107   9.045 -0.7997  0.3543 -0.4788
  901MOL0     C21505   3.974   5.227   8.986 -0.8260 -0.3414  0.3123
  901MOL0     C21506   4.054   5.256   8.874  0.0618 -0.6339  0.4820
  901MOL0     C21507   4.145   5.174   8.823  0.5421 -0.8230  0.2710
  901MOL0     O21508   4.218   5.211   8.715  0.4836 -0.4349 -0.2807
  901MOL0     C21509   4.166   5.306   8.618 -0.3739  0.2563  0.8255
  901MOL0     C21510   4.232   5.264   8.475  1.3145 -0.5888  0.2513
  901MOL0     C21511   4.198   5.129   8.422  0.6242  0.0102  0.8174
  901MOL0     C21512   4.295   5.074   8.313 -0.4087 -0.9940  0.1144
  901MOL0     C21513   4.441   5.083   8.319 -1.7681  0.7390 -0.9415
  901MOL0     C21514   4.504   4.991   8.219 -1.1267 -0.3725  0.4384
  901MOL0     C21515   4.664   5.014   8.179  0.2222  0.7686  0.1479
  901MOL0     C21516   4.713   4.906   8.079  0.3782 -0.4828 -0.8774
  901MOL0     N21517   4.848   4.935   8.039 -0.2283 -0.6407  0.0716
  901MOL0     C21518   4.882   5.043   7.961  0.7359 -0.1238 -0.2562
  901MOL0     C21519   5.010   5.048   7.927  0.9788 -0.1055 -1.6297
  901MOL0     C21520   5.092   5.146   7.848  0.4588 -0.4722 -0.0827
  901MOL0     C21521   5.058   5.155   7.690  1.1542 -1.0253  0.3279
  901MOL0     C21522   5.143   5.243   7.618 -0.1169 -0.5251 -0.0751
  901MOL0     C21523   5.134   5.395   7.636 -0.6737 -0.5359 -0.3920
  901MOL0     O21524   5.003   5.440   7.589  0.1183  0.0561 -0.4032
  901MOL0     C21525   4.913   5.488   7.694 -0.1187  0.6316 -0.4750
  901MOL0     C21526   4.956   5.589   7.782  0.5325 -0.0319  0.2375
  901MOL0     C21527   4.864   5.622   7.888  0.8173 -0.4233  0.1880
  901MOL0     C21528   4.919   5.718   7.993  0.2180 -0.3403 -0.5558
  901MOL0     C21529   4.733   5.565   7.901 -0.6124 -1.1965  0.6236
  901MOL0     C21530   4.651   5.592   8.010 -0.3697 -0.0282  0.2742
  901MOL0     O21531   4.578   5.486   8.050  0.2654  0.3857 -0.5234
  901MOL0     C21532   4.492   5.500   8.154  0.5900  0.2562 -0.3452
  901MOL0     C21533   4.356   5.523   8.138 -0.3779  0.1334  0.2155
  901MOL0     C21534   4.281   5.564   8.246 -0.3224  0.6027 -0.0145
  901MOL0     C21535   4.331   5.563   8.377  1.7687 -0.3341  0.5177
  901MOL0     O21536   4.258   5.594   8.492 -0.0156 -0.7355 -0.4411
  901MOL0     C21537   4.157   5.694   8.472 -0.4313  0.6658  0.7931
  901MOL0     C21538   4.117   5.747   8.609  1.1155  0.2218 -0.1040
  901MOL0     C21539   4.219   5.854   8.671  0.1030 -0.2396 -0.0278
  901MOL0     C21540   4.327   5.783   8.756 -0.5759 -0.3370 -0.5655
  901MOL0     C21541   4.438   5.876   8.792 -0.1431 -0.5250  0.6924
  901MOL0     C21542   4.567   5.826   8.870 -0.5668 -0.5660 -0.2760
  901MOL0     C21543   4.621   5.921   8.968 -0.5721 -0.6824  0.4798
  901MOL0     C21544   4.655   6.048   8.892  0.4756 -0.3722  0.1611
  901MOL0    Cl21545   4.765   6.015   8.753 -0.1236  0.3599 -0.1341
  901MOL0     C21546   4.461   5.528   8.387  0.9976 -0.4666 -0.7378
  901MOL0     C21547   4.548   5.501   8.289 -0.5517  0.1590 -0.1036
  901MOL0     O21548   4.637   5.707   8.043  0.2459  0.4476  0.7799
  901MOL0     C21549   4.697   5.477   7.807  0.3177  0.3887  0.3766
  901MOL0     C21550   4.787   5.434   7.703  0.5417 -0.4957 -0.0178
  901MOL0     N21551   5.056   4.918   7.969 -0.3329 -0.2796  0.3657
  901MOL0     N21552   4.961   4.851   8.033  0.1777 -0.8465  0.5908
  901MOL0     C21553   4.166   5.048   8.891  0.4397  1.0221  0.0893
  901MOL0     C21554   4.080   5.019   9.001  0.7806  0.5214  0.2237
  901MOL0     C21555   3.736   5.052   9.312 -0.2373 -0.4730 -0.3781
  901MOL0     C21556   3.684   4.922   9.292 -0.6082  0.9308  0.6482
  901MOL0     C21557   3.622   4.860   9.398  0.2873 -0.2930  0.8947
  901MOL0     C21558   3.595   4.922   9.519 -0.2460 -0.1815  0.0956
  901MOL0     O21559   3.527   4.854   9.619  0.1314  0.3432  0.2475
  901MOL0     C21560   3.456   4.931   9.717  0.3838 -0.2779  0.7425
  901MOL0     C21561   3.376   4.831   9.804 -0.4611  1.2654 -0.4319
  901MOL0     C21562   3.243   4.783   9.740 -0.6448  0.2977  0.2657
  901MOL0     C21563   3.141   4.756   9.845  0.0741  0.7328 -0.1252
  901MOL0     C21564   3.001   4.782   9.791 -0.1366  0.0081  0.4706
  901MOL0     C21565   2.898   4.772   9.727  0.2711 -0.2925  0.5956
  901MOL0     C21566   3.652   5.047   9.538  0.2911 -0.4227 -1.3731
  901MOL0     C21567   3.719   5.120   9.439  0.7560 -0.0166 -0.6538
  901MOL0     H21568   3.900   5.302   9.013  0.0608  0.1881  1.3705
  901MOL0     H21569   4.037   5.349   8.821 -0.3880 -0.7872  0.3542
  901MOL0     H21570   4.057   5.304   8.605 -0.1705  2.6100 -2.0388
  901MOL0     H21571   4.198   5.405   8.651  0.6592  0.2646 -0.1818
  901MOL0     H21572   4.206   5.342   8.403  1.1803  0.7370  1.6930
  901MOL0     H21573   4.341   5.266   8.465  1.1577  0.2714 -1.8953
  901MOL0     H21574   4.183   5.066   8.510  3.9784 -1.4290  0.5102
  901MOL0     H21575   4.106   5.138   8.364  0.6853 -2.0984  0.3249
  901MOL0     H21576   4.277   4.966   8.309 -1.8042 -0.7365 -1.5838
  901MOL0     H21577   4.269   5.105   8.212  3.5133 -1.6818 -1.2851
  901MOL0     H21578   4.477   5.185   8.302 -1.3200  0.4644 -1.6243
  901MOL0     H21579   4.476   5.057   8.419 -3.0123  3.1366  0.2242
  901MOL0     H21580   4.482   4.890   8.257 -2.1940 -0.6636 -0.8865
  901MOL0     H21581   4.449   4.994   8.124  4.0266  1.2733 -2.9110
  901MOL0     H21582   4.679   5.114   8.136 -0.6344  0.1406 -1.7539
  901MOL0     H21583   4.721   5.007   8.272 -1.6646 -0.9572  1.2514
  901MOL0     H21584   4.646   4.916   7.992  0.5713  0.0612 -0.9619
  901MOL0     H21585   4.703   4.802   8.112 -1.9317  0.7005  2.6973
  901MOL0     H21586   4.806   5.110   7.921  0.4237 -0.9728 -1.1348
  901MOL0     H21587   5.073   5.240   7.901  0.3099 -0.0463 -0.8587
  901MOL0     H21588   5.194   5.118   7.873  0.7289  0.3610 -0.2206
  901MOL0     H21589   4.959   5.201   7.688  1.6106 -0.0479 -0.3215
  901MOL0     H21590   5.073   5.054   7.649 -1.5008 -0.9693 -0.9829
  901MOL0     H21591   5.129   5.211   7.514 -0.7481 -0.1677 -0.1044
  901MOL0     H21592   5.248   5.216   7.632  0.1974  0.8395  0.3228
  901MOL0     H21593   5.217   5.437   7.579  1.0127 -3.2449 -0.1117
  901MOL0     H21594   5.148   5.431   7.738 -0.2392 -0.8836 -0.3296
  901MOL0     H21595   5.055   5.631   7.766 -0.2251  0.9321 -2.4299
  901MOL0     H21596   4.856   5.807   7.995 -1.0992 -1.1356 -2.6340
  901MOL0     H21597   4.940   5.682   8.094  0.1254  0.4113 -0.2623
  901MOL0     H21598   5.021   5.741   7.960  0.2073 -2.3231 -2.1862
  901MOL0     H21599   4.311   5.500   8.042 -1.3171 -1.0379  0.9076
  901MOL0     H21600   4.184   5.601   8.216  0.5149  2.8916 -0.0673
  901MOL0     H21601   4.199   5.776   8.412  1.6953 -1.1631 -0.3804
  901MOL0     H21602   4.076   5.635   8.428 -0.4754 -1.1457  3.0866
  901MOL0     H21603   4.030   5.810   8.587 -0.0258 -1.4290 -0.4417
  901MOL0     H21604   4.099   5.660   8.672  1.5942 -1.1584 -1.8001
  901MOL0     H21605   4.179   5.924   8.746 -0.6418 -1.8765  1.1588
  901MOL0     H21606   4.276   5.899   8.589  1.0379  0.9989  1.2599
  901MOL0     H21607   4.276   5.765   8.851 -1.0252  1.7767 -0.3766
  901MOL0     H21608   4.374   5.698   8.705 -1.8382 -0.8082 -0.9686
  901MOL0     H21609   4.387   5.945   8.859 -0.2349 -0.3326  0.4269
  901MOL0     H21610   4.474   5.938   8.710 -0.0973  3.5396  3.4960
  901MOL0     H21611   4.553   5.735   8.929  2.9159 -1.0183  0.1064
  901MOL0     H21612   4.644   5.811   8.794  0.4311  0.5097  0.4847
  901MOL0     H21613   4.701   5.885   9.034 -2.3824  0.8867  3.7937
  901MOL0     H21614   4.539   5.944   9.036 -1.3029  0.2694 -0.6860
  901MOL0     H21615   4.705   6.118   8.959  2.6889 -0.0065 -1.7528
  901MOL0     H21616   4.567   6.089   8.841 -0.0976  1.4209  2.4011
  901MOL0     H21617   4.495   5.539   8.490 -1.7540  0.9117  0.1273
  901MOL0     H21618   4.646   5.468   8.321 -0.4222  1.4602  0.8896
  901MOL0     H21619   4.605   5.421   7.817  1.3299 -1.3731  0.2352
  901MOL0     H21620   4.752   5.358   7.634  0.7431  1.2260 -2.1211
  901MOL0     H21621   4.232   4.973   8.848  0.3590  1.4054 -0.7170
  901MOL0     H21622   4.081   4.919   9.043 -1.8181  0.1974 -0.3051
  901MOL0     H21623   3.693   4.860   9.204  0.4948 -1.9304  2.6527
  901MOL0     H21624   3.586   4.760   9.377 -1.0990  0.5906 -1.3283
  901MOL0     H21625   3.526   4.992   9.775 -0.5073  2.2469 -0.6871
  901MOL0     H21626   3.390   4.999   9.662 -2.4964 -3.5547 -0.2349
  901MOL0     H21627   3.356   4.893   9.892 -2.0073  0.8711 -0.4701
  901MOL0     H21628   3.452   4.756   9.826  0.5888  2.1643 -0.9073
  901MOL0     H21629   3.267   4.691   9.686  0.2425 -0.2493  1.5383
  901MOL0     H21630   3.207   4.868   9.680 -0.1925 -1.9297 -3.4761
  901MOL0     H21631   3.152   4.820   9.933 -0.7601  0.8644 -0.1155
  901MOL0     H21632   3.156   4.650   9.868  1.0811  0.8106 -0.3466
  901MOL0     H21633   2.815   4.778   9.660 -0.4632  0.7861  1.5705
  901MOL0     H21634   3.654   5.087   9.639  1.7114 -3.6187 -0.0016
  901MOL0     H21635   3.779   5.208   9.454  1.6180 -0.8724  1.2661
  902MOL0     O21636   8.634   4.641   8.434  0.3497 -0.3198 -0.0124
  902MOL0     C21637   8.533   4.643   8.504  0.4616  0.2610 -0.0549
  902MOL0     O21638   8.536   4.622   8.636  0.4809  0.6776 -0.7326
  902MOL0     C21639   8.649   4.596   8.709  0.4479 -0.1044  0.8780
  902MOL0     C21640   8.680   4.468   8.755 -0.8127 -0.2658 -0.8809
  902MOL0     C21641   8.803   4.437   8.817  0.0674 -0.1901  0.7763
  902MOL0     C21642   8.888   4.539   8.852  0.0835  0.6287 -0.0976
  902MOL0     O21643   9.002   4.526   8.923  0.1604 -0.1628 -0.2416
  902MOL0     C21644   9.062   4.396   8.907 -0.5037 -0.2936  0.1940
  902MOL0     C21645   9.215   4.386   8.951 -0.8826 -0.0022 -0.3997
  902MOL0     C21646   9.242   4.350   9.101 -0.5880  0.3037  0.1514
  902MOL0     C21647   9.389   4.358   9.133 -1.3579 -0.4177  0.7429
  902MOL0     C21648   9.410   4.284   9.267  0.0870 -0.5476 -0.5341
  902MOL0     C21649   9.549   4.311   9.331 -0.3680  1.4525  0.6202
  902MOL0     C21650   9.584   4.191   9.419 -0.2626 -0.1072 -1.5176
  902MOL0     C21651   9.734   4.199   9.463 -0.1087 -1.0678  0.1554
  902MOL0     N21652   9.774   4.095   9.548 -0.1689  1.0537 -0.2630
  902MOL0     C21653   9.759   4.079   9.687  1.5266  0.2913 -0.5833
  902MOL0     C21654   9.794   3.953   9.721 -0.3407 -0.1813 -0.6023
  902MOL0     C21655   9.818   3.889   9.854  0.3436  0.8400  0.9897
  902MOL0     C21656   9.920   3.969   9.932  0.3644 -0.0338 -0.7540
  902MOL0     C21657  10.054   3.993   9.859 -0.0311  0.1536 -0.4739
  902MOL0     C21658  10.128   3.876   9.780 -0.5703  0.5302  0.0046
  902MOL0     O21659  10.165   3.760   9.857  0.5112 -0.0582  0.4874
  902MOL0     C21660  10.227   3.779   9.972  0.2313 -0.7640 -1.3980
  902MOL0     C21661  10.339   3.858   9.987 -0.8820 -0.1306  0.5568
  902MOL0     C21662  10.393   3.891  10.117  0.1850 -0.9237  0.3070
  902MOL0     C21663  10.524   3.967  10.111 -0.3003 -0.5379 -0.3215
  902MOL0     C21664  10.325   3.859  10.232  0.7377  0.4964 -1.0617
  902MOL0     C21665  10.362   3.879  10.370 -0.0772  0.1909  0.3547
  902MOL0     O21666  10.490   3.896  10.407  0.4446 -0.3868  0.0165
  902MOL0     C21667  10.528   3.917  10.536  0.6692 -0.1457 -0.5371
  902MOL0     C21668  10.610   3.824  10.601 -0.2198 -1.1228 -0.7508
  902MOL0     C21669  10.669   3.859  10.724 -0.6409 -0.4801  0.1745
  902MOL0     C21670  10.642   3.984  10.784  0.1028  0.5581 -0.1821
  902MOL0     O21671  10.677   4.030  10.913  0.4440 -0.1962 -0.3360
  902MOL0     C21672  10.770   3.944  10.986 -0.4737  0.3579 -0.8854
  902MOL0     C21673  10.828   4.004  11.118 -0.0781 -0.7272  0.6711
  902MOL0     C21674  10.725   4.053  11.217 -1.4253  0.0986 -0.7598
  902MOL0     C21675  10.784   4.114  11.348 -0.0955  0.8519  1.0708
  902MOL0     C21676  10.690   4.113  11.467 -0.6415 -0.0913  0.1432
  902MOL0     C21677  10.544   4.160  11.435 -0.4614 -0.1196  0.9028
  902MOL0     C21678  10.461   4.184  11.555  0.0576  1.1126  0.0931
  902MOL0     C21679  10.508   4.291  11.656  0.1319  0.1337  0.4656
  902MOL0    Cl21680  10.529   4.446  11.559 -0.1276 -0.2242 -0.6483
  902MOL0     C21681  10.556   4.077  10.724 -0.5351 -0.2157  0.1771
  902MOL0     C21682  10.506   4.049  10.597 -0.6263 -0.5410  0.0955
  902MOL0     O21683  10.271   3.882  10.448  0.6027  1.2418  0.1525
  902MOL0     C21684  10.201   3.781  10.217  0.1300 -1.2891 -0.4667
  902MOL0     C21685  10.152   3.748  10.093  0.0906  0.2924 -0.4905
  902MOL0     N21686   9.835   3.886   9.614  0.8284  0.7753  0.2084
  902MOL0     N21687   9.826   3.969   9.509  0.3005  0.5062 -0.6121
  902MOL0     C21688   8.840   4.671   8.834 -0.5185  0.5257  0.4815
  902MOL0     C21689   8.728   4.696   8.761  0.0805 -0.3952  0.1787
  902MOL0     C21690   8.406   4.657   8.432 -0.4280 -0.3347 -0.9586
  902MOL0     C21691   8.295   4.604   8.492  0.3317 -0.0925  0.1881
  902MOL0     C21692   8.163   4.627   8.440 -1.1786 -0.0104  0.4411
  902MOL0     C21693   8.144   4.711   8.328  0.4799 -0.9546  0.9479
  902MOL0     O21694   8.019   4.745   8.285 -0.3422  0.5238  0.2823
  902MOL0     C21695   7.927   4.797   8.384  0.2120 -0.1836 -0.0115
  902MOL0     C21696   7.853   4.927   8.356 -0.4497 -0.1164  0.7290
  902MOL0     C21697   7.725   4.901   8.267 -0.2085  0.1398 -0.5603
  902MOL0     C21698   7.743   4.873   8.117  0.1690 -0.0525 -0.8783
  902MOL0     C21699   7.829   4.982   8.059  0.0208  0.4319 -0.9876
  902MOL0     C21700   7.896   5.062   8.002  0.2065 -0.4186 -0.3483
  902MOL0     C21701   8.256   4.760   8.265  0.3354 -0.0994  0.2633
  902MOL0     C21702   8.384   4.731   8.311  1.0823 -0.0798  0.9630
  902MOL0     H21703   8.619   4.384   8.725 -4.4459  2.0954 -0.6611
  902MOL0     H21704   8.834   4.335   8.840 -2.3480 -1.4943 -1.2654
  902MOL0     H21705   8.998   4.329   8.966 -0.4141  1.5005  2.4347
  902MOL0     H21706   9.058   4.367   8.801  1.4231  1.7237 -0.5115
  902MOL0     H21707   9.270   4.308   8.899  0.2478  1.3976 -1.3987
  902MOL0     H21708   9.274   4.475   8.923  0.0277  1.0914  4.1255
  902MOL0     H21709   9.175   4.410   9.164 -3.9227 -0.3684 -2.4513
  902MOL0     H21710   9.207   4.246   9.103 -1.1141  0.3824 -2.4498
  902MOL0     H21711   9.450   4.314   9.054 -2.6651  0.0508 -0.5919
  902MOL0     H21712   9.426   4.461   9.127  1.8701 -1.4763 -5.4541
  902MOL0     H21713   9.327   4.307   9.335  0.4287 -1.7943  0.3400
  902MOL0     H21714   9.394   4.177   9.249 -0.9579 -0.5017  0.0316
  902MOL0     H21715   9.623   4.323   9.251  0.3659 -1.7045  0.6786
  902MOL0     H21716   9.559   4.400   9.394 -0.7905  2.0211 -0.0988
  902MOL0     H21717   9.535   4.200   9.516 -0.5186  0.3802 -1.6922
  902MOL0     H21718   9.553   4.093   9.382 -1.4623 -1.6451  2.9495
  902MOL0     H21719   9.762   4.281   9.530  2.3006 -2.2247  0.6667
  902MOL0     H21720   9.796   4.199   9.373 -0.5472 -1.4398 -0.1557
  902MOL0     H21721   9.725   4.147   9.765  1.8501 -3.9461  3.7362
  902MOL0     H21722   9.722   3.880   9.906  0.2780 -3.1916  0.5617
  902MOL0     H21723   9.846   3.783   9.858  1.8163  1.2434  1.9599
  902MOL0     H21724   9.945   3.918  10.025  0.1336  1.7744  0.3492
  902MOL0     H21725   9.885   4.067   9.965  2.6857  0.1879  1.2801
  902MOL0     H21726  10.125   4.022   9.937 -0.7619 -3.8485  1.9748
  902MOL0     H21727  10.032   4.067   9.782 -1.3271 -0.8340 -1.0871
  902MOL0     H21728  10.222   3.913   9.740  0.6806 -2.5452 -0.1495
  902MOL0     H21729  10.070   3.849   9.691  1.5851 -1.9378 -0.7592
  902MOL0     H21730  10.384   3.900   9.898  0.4088  1.4414  1.8799
  902MOL0     H21731  10.577   3.980  10.205  1.6796 -0.6241 -1.3666
  902MOL0     H21732  10.601   3.905  10.063 -0.3808 -0.2984 -0.7612
  902MOL0     H21733  10.521   4.058  10.051  5.9161 -1.0917 -2.2424
  902MOL0     H21734  10.627   3.725  10.560 -0.3485 -1.1105 -0.8334
  902MOL0     H21735  10.733   3.785  10.771 -1.8162 -1.5530  0.1712
  902MOL0     H21736  10.702   3.860  11.007 -0.1614  0.2144 -0.4513
  902MOL0     H21737  10.856   3.926  10.921  0.7956 -0.2242  0.8883
  902MOL0     H21738  10.885   3.924  11.164  0.0601 -1.9449 -1.4874
  902MOL0     H21739  10.891   4.089  11.090 -0.3133 -0.8168 -0.1746
  902MOL0     H21740  10.659   3.969  11.242 -1.2990 -0.7223 -2.9652
  902MOL0     H21741  10.657   4.130  11.181 -1.2221  0.8060  0.3131
  902MOL0     H21742  10.868   4.052  11.382 -3.0776 -2.5454  2.9580
  902MOL0     H21743  10.818   4.215  11.325  0.8815  0.7169  1.8548
  902MOL0     H21744  10.748   4.168  11.542 -0.6215  0.1569 -0.0506
  902MOL0     H21745  10.683   4.016  11.516 -2.6974  0.5626  1.2798
  902MOL0     H21746  10.544   4.254  11.379  1.2519  0.4247  1.7281
  902MOL0     H21747  10.487   4.087  11.377 -1.7301  0.2522  1.6537
  902MOL0     H21748  10.444   4.088  11.604  2.7169 -0.6136 -2.0588
  902MOL0     H21749  10.365   4.212  11.510 -0.3098 -1.9950 -1.3556
  902MOL0     H21750  10.609   4.269  11.692  0.3304  1.5430  0.8080
  902MOL0     H21751  10.446   4.293  11.747 -0.3517 -0.6657  0.1677
  902MOL0     H21752  10.544   4.173  10.772  1.6104 -0.4181  1.2255
  902MOL0     H21753  10.468   4.133  10.539  0.5628 -0.6719 -0.9258
  902MOL0     H21754  10.137   3.751  10.300  1.3925 -2.7202  0.0116
  902MOL0     H21755  10.065   3.685  10.088 -1.6983  2.7443 -3.6994
  902MOL0     H21756   8.898   4.758   8.862  1.7327 -1.2531  1.6442
  902MOL0     H21757   8.690   4.797   8.749 -0.6956 -0.4156  2.0966
  902MOL0     H21758   8.305   4.537   8.577  1.4410  2.2485  2.0065
  902MOL0     H21759   8.078   4.584   8.492 -0.6875  0.4158  1.6228
  902MOL0     H21760   7.854   4.717   8.398 -2.4466  1.6830 -2.1333
  902MOL0     H21761   7.985   4.823   8.473  0.4654 -0.0963 -0.2005
  902MOL0     H21762   7.915   4.986   8.289 -6.7134  2.0173 -4.1856
  902MOL0     H21763   7.830   4.991   8.442  0.0232  1.5016 -0.3151
  902MOL0     H21764   7.660   4.988   8.278 -1.4360 -0.7871 -0.2244
  902MOL0     H21765   7.673   4.815   8.311  0.0068 -0.2463 -1.0504
  902MOL0     H21766   7.641   4.876   8.078 -0.7259 -2.5000  0.9778
  902MOL0     H21767   7.790   4.775   8.103  2.4414  0.6693  0.9603
  902MOL0     H21768   7.956   5.124   7.939  0.8077 -3.3298 -2.8791
  902MOL0     H21769   8.244   4.828   8.181  1.5721 -0.4049 -0.1852
  902MOL0     H21770   8.459   4.785   8.255 -0.5698  0.3294 -0.9605
  903MOL0     O21771  10.809   2.199  11.189  0.2700  0.7646 -0.1437
  903MOL0     C21772  10.863   2.090  11.188  0.6342  0.1752  0.3941
  903MOL0     O21773  10.814   1.983  11.121  0.6091 -0.1231 -0.6570
  903MOL0     C21774  10.693   2.005  11.065  0.1061 -0.6883  0.3152
  903MOL0     C21775  10.576   2.048  11.135 -0.0600  0.2430  0.6121
  903MOL0     C21776  10.462   2.081  11.071  0.3253  0.6249 -0.1240
  903MOL0     C21777  10.457   2.062  10.928 -0.3056  0.0106  0.1216
  903MOL0     O21778  10.336   2.092  10.871  0.4211 -0.4619 -1.3793
  903MOL0     C21779  10.319   2.026  10.747 -0.0948 -0.8994 -1.2677
  903MOL0     C21780  10.172   2.010  10.737 -0.0628  0.1829  1.2476
  903MOL0     C21781  10.141   1.966  10.585 -0.1357  0.6518 -0.4627
  903MOL0     C21782  10.008   1.926  10.551 -0.0692  0.0068 -0.6521
  903MOL0     C21783   9.984   1.884  10.402 -0.6616  0.3690  0.1272
  903MOL0     C21784   9.831   1.854  10.394  0.0683  0.5761  0.3854
  903MOL0     C21785   9.775   1.900  10.254  0.0381  0.5854 -0.0600
  903MOL0     C21786   9.630   1.855  10.236 -0.0005 -0.9833  0.7975
  903MOL0     N21787   9.576   1.879  10.104 -1.0383  0.2586  0.9537
  903MOL0     C21788   9.624   1.846   9.982  0.0261  0.0995 -1.2013
  903MOL0     C21789   9.535   1.880   9.889 -0.4282 -0.2667 -0.4199
  903MOL0     C21790   9.537   1.869   9.744 -0.7576 -0.6071 -0.7507
  903MOL0     C21791   9.675   1.902   9.689  0.0762 -1.3676 -0.4295
  903MOL0     C21792   9.769   1.786   9.661  0.1126  0.4235  0.0325
  903MOL0     C21793   9.917   1.834   9.646 -0.2015  0.5021 -0.1582
  903MOL0     O21794   9.960   1.917   9.749 -0.1391 -0.1605  0.4163
  903MOL0     C21795  10.027   1.886   9.867 -0.1094  1.2281  0.2495
  903MOL0     C21796  10.012   1.767   9.931  0.0740  0.0095  0.1867
  903MOL0     C21797  10.095   1.742  10.047  0.7368 -0.4869  0.6117
  903MOL0     C21798  10.093   1.602  10.092 -0.2160  0.4715 -0.7793
  903MOL0     C21799  10.190   1.842  10.094 -0.7140 -0.3163  0.0817
  903MOL0     C21800  10.269   1.830  10.219  0.6443 -0.3628  0.7821
  903MOL0     O21801  10.339   1.947  10.241  0.0811  0.3360  0.5439
  903MOL0     C21802  10.448   1.938  10.322 -0.2867  0.3133 -0.0887
  903MOL0     C21803  10.529   1.828  10.336 -1.0177 -0.3678 -0.4074
  903MOL0     C21804  10.639   1.822  10.417 -0.1025  0.0042 -0.0828
  903MOL0     C21805  10.672   1.939  10.485 -0.3281  0.8638  0.3482
  903MOL0     O21806  10.790   1.952  10.571  0.6083 -1.0631  0.5749
  903MOL0     C21807  10.922   1.922  10.519 -0.0113  0.6571  0.3888
  903MOL0     C21808  11.021   1.961  10.623 -0.0197 -0.7299 -0.0069
  903MOL0     C21809  11.156   1.892  10.588 -0.5059  0.0572 -0.3022
  903MOL0     C21810  11.243   1.965  10.480 -0.2744 -0.5251 -0.7006
  903MOL0     C21811  11.377   1.897  10.443 -0.2132 -0.7484 -0.4037
  903MOL0     C21812  11.472   1.878  10.568 -0.7752 -0.0830 -0.1783
  903MOL0     C21813  11.545   2.007  10.614 -0.9251  0.3365  0.1791
  903MOL0     C21814  11.635   1.982  10.740  0.1489  0.0571  0.4095
  903MOL0    Cl21815  11.749   1.840  10.737  0.2973 -0.9794  0.5569
  903MOL0     C21816  10.583   2.056  10.482 -1.2157  0.6238 -0.8425
  903MOL0     C21817  10.480   2.056  10.392  1.1436  0.0340  0.2878
  903MOL0     O21818  10.267   1.733  10.291 -0.2319 -0.2681 -0.0146
  903MOL0     C21819  10.203   1.960  10.007 -0.0804  0.9062 -1.1086
  903MOL0     C21820  10.122   1.974   9.901  0.7596 -0.2106  0.1943
  903MOL0     N21821   9.423   1.925   9.960  0.4660  0.1995 -0.0159
  903MOL0     N21822   9.454   1.918  10.086 -0.5212  0.6777  0.8147
  903MOL0     C21823  10.569   2.007  10.870  0.0926 -1.0620 -0.3634
  903MOL0     C21824  10.691   1.990  10.936  0.0682  0.1464 -0.8833
  903MOL0     C21825  10.962   2.060  11.288  0.6446 -0.2716 -0.7125
  903MOL0     C21826  10.980   2.146  11.388 -0.5217 -0.7125 -0.4527
  903MOL0     C21827  11.068   2.115  11.500 -0.1451 -0.2055 -0.2269
  903MOL0     C21828  11.131   1.992  11.513 -0.5651  0.4929 -0.3100
  903MOL0     O21829  11.209   1.978  11.621  0.4697  0.3124  0.0817
  903MOL0     C21830  11.280   1.858  11.633  0.1900 -0.2327  0.6481
  903MOL0     C21831  11.361   1.856  11.763  0.1054 -0.2327 -0.7283
  903MOL0     C21832  11.431   1.717  11.778 -0.4444 -0.2886  0.4997
  903MOL0     C21833  11.540   1.706  11.893 -0.3053 -0.2793 -0.0618
  903MOL0     C21834  11.480   1.695  12.022  0.4684  0.3784 -0.4507
  903MOL0     C21835  11.423   1.701  12.125 -0.0806 -0.0726  0.1669
  903MOL0     C21836  11.120   1.913  11.403 -0.1384  0.1318  0.3215
  903MOL0     C21837  11.036   1.940  11.298 -0.7372 -0.3784 -0.4576
  903MOL0     H21838  10.572   2.066  11.242  0.9552  2.0720  0.3760
  903MOL0     H21839  10.378   2.116  11.130 -1.2057  0.1792 -1.9480
  903MOL0     H21840  10.353   2.098  10.672 -0.1218 -0.2029 -0.6153
  903MOL0     H21841  10.360   1.926  10.761 -3.3265 -2.1235  0.6172
  903MOL0     H21842  10.136   1.942  10.815  0.3385  0.8723  2.0403
  903MOL0     H21843  10.137   2.113  10.740 -0.8456 -0.0492  0.3557
  903MOL0     H21844  10.160   2.053  10.521  1.7613 -0.9784 -2.2546
  903MOL0     H21845  10.215   1.895  10.547  0.4973  1.5811 -1.0022
  903MOL0     H21846   9.974   1.850  10.622 -0.1753 -1.0693 -1.8305
  903MOL0     H21847   9.941   2.011  10.570 -0.5171 -0.5864  0.5186
  903MOL0     H21848  10.014   1.961  10.331 -0.9635 -1.2879 -1.9109
  903MOL0     H21849  10.042   1.792  10.392 -1.8775 -0.6783  2.0362
  903MOL0     H21850   9.822   1.745  10.400  1.1810  0.5293  2.4268
  903MOL0     H21851   9.773   1.902  10.474 -1.3112  0.0662 -0.2853
  903MOL0     H21852   9.778   2.009  10.243 -1.9024  0.6151 -0.8260
  903MOL0     H21853   9.826   1.851  10.171  0.5955 -0.0046  0.6178
  903MOL0     H21854   9.572   1.899  10.317 -1.2030 -3.1422  1.1808
  903MOL0     H21855   9.630   1.747  10.253  1.0200 -1.0510  0.4252
  903MOL0     H21856   9.718   1.802   9.949  0.0685 -1.1571  0.4763
  903MOL0     H21857   9.519   1.766   9.714  0.5230 -0.6824 -1.3256
  903MOL0     H21858   9.464   1.930   9.691 -0.2086  1.5172  0.7624
  903MOL0     H21859   9.719   1.976   9.756  1.2174 -2.0812 -0.3665
  903MOL0     H21860   9.659   1.949   9.591 -0.5112  0.8942  0.6820
  903MOL0     H21861   9.729   1.726   9.579 -0.6074 -1.0820  1.4221
  903MOL0     H21862   9.759   1.707   9.737  0.5135  0.6151  0.2889
  903MOL0     H21863   9.934   1.895   9.557 -0.0546  2.5177  1.1858
  903MOL0     H21864   9.986   1.751   9.636  1.8415  1.9245  1.2872
  903MOL0     H21865   9.950   1.689   9.888 -0.5546  0.3024  0.5572
  903MOL0     H21866  10.036   1.545  10.018 -2.2215 -0.0995  1.1216
  903MOL0     H21867  10.198   1.569  10.096  0.1309  1.6662  1.2577
  903MOL0     H21868  10.042   1.587  10.187  0.1805 -4.2566 -1.0480
  903MOL0     H21869  10.494   1.742  10.279 -2.5959 -1.0781  1.5018
  903MOL0     H21870  10.704   1.736  10.429  1.4892  0.6612 -2.9492
  903MOL0     H21871  10.912   1.813  10.508 -1.1731  0.8747 -0.9742
  903MOL0     H21872  10.935   1.976  10.425  3.2054  2.2882  1.5883
  903MOL0     H21873  11.023   2.070  10.634 -0.8742 -0.8143  1.1043
  903MOL0     H21874  10.988   1.922  10.720 -1.6927 -0.1182 -0.3051
  903MOL0     H21875  11.146   1.786  10.563 -2.4827  0.3274 -0.8292
  903MOL0     H21876  11.214   1.877  10.680 -0.7707  1.2650  0.0764
  903MOL0     H21877  11.187   1.966  10.385  2.2516 -3.0126 -2.3694
  903MOL0     H21878  11.253   2.071  10.506  4.7916 -0.9979  0.2981
  903MOL0     H21879  11.415   1.956  10.359 -0.9920  1.4985  0.7705
  903MOL0     H21880  11.369   1.795  10.403  1.6922 -1.4225  0.7641
  903MOL0     H21881  11.416   1.845  10.656 -1.0859  0.4061 -0.1893
  903MOL0     H21882  11.548   1.802  10.549  2.3549  2.4165  1.2694
  903MOL0     H21883  11.477   2.090  10.634 -2.2230 -0.8358  0.7261
  903MOL0     H21884  11.601   2.034  10.524 -0.6713 -0.7872 -0.0143
  903MOL0     H21885  11.577   1.956  10.829  3.5071 -1.2023  2.4242
  903MOL0     H21886  11.688   2.075  10.763 -1.7266  0.5725  3.1725
  903MOL0     H21887  10.595   2.154  10.528  0.0928  1.1461 -2.2557
  903MOL0     H21888  10.418   2.145  10.384  0.1866 -0.6840 -0.6015
  903MOL0     H21889  10.285   2.030  10.020  1.0511 -0.7746  1.6632
  903MOL0     H21890  10.126   2.070   9.850 -3.4595 -0.3601 -0.8157
  903MOL0     H21891  10.576   1.979  10.765  3.3607 -2.4361  0.1298
  903MOL0     H21892  10.778   1.953  10.882 -1.0211 -4.6042  0.1444
  903MOL0     H21893  10.935   2.245  11.387 -0.6526 -0.7727 -0.8183
  903MOL0     H21894  11.084   2.187  11.579 -2.1046  0.5290 -0.4601
  903MOL0     H21895  11.216   1.770  11.639 -2.5438  1.7144  3.1547
  903MOL0     H21896  11.341   1.849  11.543 -3.4708  1.2244 -2.2152
  903MOL0     H21897  11.304   1.876  11.854  2.3312  2.4039  0.2096
  903MOL0     H21898  11.429   1.939  11.745 -1.3761  0.8700 -1.4324
  903MOL0     H21899  11.479   1.693  11.682 -0.6144 -2.3573  0.8853
  903MOL0     H21900  11.344   1.652  11.788 -1.5909  1.1315  0.1340
  903MOL0     H21901  11.595   1.801  11.891  1.3326 -1.1125  1.9548
  903MOL0     H21902  11.605   1.620  11.874  0.8963  0.6112 -0.0983
  903MOL0     H21903  11.355   1.717  12.207 -0.7037  2.6287 -0.7521
  903MOL0     H21904  11.183   1.825  11.407 -1.4183 -1.0661 -2.6699
  903MOL0     H21905  11.016   1.864  11.224  1.0696 -1.3431 -0.0210
  904MOL0     O21906   4.758   5.243  10.355 -0.5526 -0.3880 -0.2668
  904MOL0     C21907   4.767   5.353  10.302  0.0642  0.1002 -0.2134
  904MOL0     O21908   4.745   5.375  10.174 -0.2249  0.9171  0.5764
  904MOL0     C21909   4.694   5.273  10.096  0.4203 -0.9889 -0.0927
  904MOL0     C21910   4.547   5.252  10.109 -0.3792  0.3210  0.5548
  904MOL0     C21911   4.492   5.165  10.014 -0.5041  0.3449 -0.4382
  904MOL0     C21912   4.560   5.108   9.905  0.8736 -0.1957  0.8457
  904MOL0     O21913   4.492   5.039   9.800  0.2286  0.1588 -0.5796
  904MOL0     C21914   4.548   4.913   9.763  0.6402  0.2851  0.4719
  904MOL0     C21915   4.437   4.822   9.690 -0.1762 -0.5486 -0.4922
  904MOL0     C21916   4.302   4.810   9.765 -0.7970  0.8086 -0.1605
  904MOL0     C21917   4.331   4.755   9.907  0.3038  0.3620  0.5692
  904MOL0     C21918   4.239   4.651   9.971  0.7184  0.0909 -0.1952
  904MOL0     C21919   4.229   4.525   9.887 -0.3742  0.7422  0.5051
  904MOL0     C21920   4.190   4.404   9.973  0.0513 -0.2063 -0.4542
  904MOL0     C21921   4.161   4.272   9.904  0.4312 -0.1184 -0.8842
  904MOL0     N21922   4.264   4.225   9.815  0.5408 -0.5724  0.4943
  904MOL0     C21923   4.397   4.210   9.860 -0.1572  0.3004 -0.1168
  904MOL0     C21924   4.477   4.238   9.748 -0.6770 -0.1479  0.6104
  904MOL0     C21925   4.630   4.220   9.734  0.2027  0.3545  0.2930
  904MOL0     C21926   4.722   4.277   9.841  0.4218 -0.0574  0.0728
  904MOL0     C21927   4.724   4.438   9.833  0.3943 -0.3897  0.0763
  904MOL0     C21928   4.803   4.502   9.943 -1.5070 -0.8212  0.9978
  904MOL0     O21929   4.816   4.644   9.927  0.2335 -0.8250 -1.0347
  904MOL0     C21930   4.853   4.717  10.039 -0.8457 -0.6786  1.2389
  904MOL0     C21931   4.985   4.689  10.078  0.2160 -0.1252 -0.2583
  904MOL0     C21932   5.046   4.758  10.187  0.5393 -0.9372  0.2522
  904MOL0     C21933   5.187   4.712  10.219  0.4508 -0.1102 -0.3802
  904MOL0     C21934   4.970   4.852  10.264 -0.6477 -0.1297 -1.4496
  904MOL0     C21935   5.019   4.924  10.384 -0.6196  0.2579  0.2873
  904MOL0     O21936   4.923   4.957  10.484 -0.0318  0.2748  0.0865
  904MOL0     C21937   4.950   5.025  10.595 -0.4834 -1.1878  0.5396
  904MOL0     C21938   4.991   5.160  10.584  0.3192  0.0677  0.9346
  904MOL0     C21939   5.012   5.240  10.700 -0.0900  0.1723  0.0736
  904MOL0     C21940   4.992   5.173  10.825  0.1949 -0.2568 -0.9336
  904MOL0     O21941   5.029   5.257  10.927 -0.4143  0.5067 -0.3681
  904MOL0     C21942   5.047   5.199  11.055 -0.3128 -0.0552  0.4870
  904MOL0     C21943   5.138   5.294  11.146 -0.4569  0.2305 -0.6438
  904MOL0     C21944   5.276   5.333  11.090 -0.5331 -0.2691  1.0346
  904MOL0     C21945   5.338   5.449  11.162 -0.7124 -0.4159 -0.3760
  904MOL0     C21946   5.487   5.438  11.183  0.7065  0.4356 -0.0449
  904MOL0     C21947   5.572   5.461  11.066  0.2239  0.1605  0.3125
  904MOL0     C21948   5.540   5.595  10.991 -0.1841 -0.0512 -0.8363
  904MOL0     C21949   5.672   5.655  10.944  0.2727  0.7463  0.0143
  904MOL0    Cl21950   5.774   5.729  11.071 -0.2457 -0.0128 -0.4076
  904MOL0     C21951   4.952   5.042  10.836  0.5819 -0.2103 -0.3348
  904MOL0     C21952   4.933   4.967  10.718 -0.5323  0.9188  0.7432
  904MOL0     O21953   5.144   4.939  10.395 -0.2153 -0.6541 -0.2772
  904MOL0     C21954   4.848   4.893  10.208 -1.1038  1.1344  1.5198
  904MOL0     C21955   4.786   4.825  10.104  0.0679 -0.1743 -0.2229
  904MOL0     N21956   4.395   4.286   9.649 -0.4958  0.0475  1.5897
  904MOL0     N21957   4.275   4.268   9.687 -1.1516  0.0501  0.3098
  904MOL0     C21958   4.700   5.142   9.899  0.8795 -0.8127 -0.1603
  904MOL0     C21959   4.765   5.211   9.998 -0.4791 -0.1967  0.8167
  904MOL0     C21960   4.794   5.471  10.394  0.1638 -0.3833 -0.9953
  904MOL0     C21961   4.838   5.595  10.345  0.7079  0.4926 -0.4796
  904MOL0     C21962   4.899   5.681  10.430  0.1764  0.6395  1.1916
  904MOL0     C21963   4.888   5.669  10.562  0.9240  0.0359 -0.4224
  904MOL0     O21964   4.941   5.767  10.647  0.4531  0.0441  0.3236
  904MOL0     C21965   4.976   5.901  10.602 -0.3476  0.3557  0.1223
  904MOL0     C21966   4.862   5.998  10.584  0.2100 -0.6816  0.1885
  904MOL0     C21967   4.730   5.956  10.524 -0.0713 -0.3876  0.2842
  904MOL0     C21968   4.642   6.079  10.526 -0.1919 -0.2442 -0.4348
  904MOL0     C21969   4.501   6.049  10.485  0.6000  0.2507  0.2092
  904MOL0     C21970   4.392   6.017  10.445  0.6282  0.0243 -0.2287
  904MOL0     C21971   4.831   5.553  10.619 -0.4358 -0.7496 -0.0458
  904MOL0     C21972   4.787   5.450  10.530 -0.0281  0.0042  0.5438
  904MOL0     H21973   4.489   5.297  10.189  0.8543  0.7521  1.2390
  904MOL0     H21974   4.392   5.125  10.028  0.2268 -1.1632  0.7522
  904MOL0     H21975   4.633   4.920   9.694  1.4859 -0.4277  1.4054
  904MOL0     H21976   4.589   4.877   9.858  0.0175 -0.7799  0.3429
  904MOL0     H21977   4.419   4.879   9.598  2.8460  5.0012  1.8412
  904MOL0     H21978   4.473   4.720   9.675 -0.3008 -0.9978  1.7954
  904MOL0     H21979   4.255   4.907   9.784 -1.1433  1.0984 -2.2914
  904MOL0     H21980   4.237   4.730   9.729  0.9317 -2.2467  2.8605
  904MOL0     H21981   4.425   4.700   9.901  0.9571  1.5621 -1.2711
  904MOL0     H21982   4.341   4.838   9.977  0.3127  1.2875 -0.4953
  904MOL0     H21983   4.276   4.625  10.071  1.8358 -0.8153 -0.8254
  904MOL0     H21984   4.138   4.693   9.976  0.3311 -0.9629  2.2869
  904MOL0     H21985   4.145   4.535   9.817  1.4956 -0.9977 -2.1808
  904MOL0     H21986   4.318   4.512   9.826  1.3111 -1.1323  3.1409
  904MOL0     H21987   4.279   4.391  10.036  1.2613  1.1398 -1.8040
  904MOL0     H21988   4.109   4.420  10.045  0.4547 -0.9038  0.1729
  904MOL0     H21989   4.069   4.288   9.846  0.8198  1.0794 -1.2144
  904MOL0     H21990   4.142   4.190   9.973 -4.0419 -0.8409 -2.6345
  904MOL0     H21991   4.428   4.162   9.952 -0.1234 -4.1420 -2.1928
  904MOL0     H21992   4.655   4.114   9.723 -0.4170  0.2621 -0.2906
  904MOL0     H21993   4.654   4.275   9.643  1.3424 -1.2277 -0.4049
  904MOL0     H21994   4.820   4.238   9.811  0.2364  0.9913 -2.0746
  904MOL0     H21995   4.680   4.240   9.934  0.6821  3.2321  1.6528
  904MOL0     H21996   4.626   4.482   9.814  1.3211  2.2956  1.0819
  904MOL0     H21997   4.789   4.457   9.747  3.0865 -2.5048  1.5238
  904MOL0     H21998   4.905   4.462   9.938  0.1838  2.9305  1.9011
  904MOL0     H21999   4.756   4.468  10.036  0.6464 -0.2439  2.3703
  904MOL0     H22000   5.039   4.614  10.020 -2.5813 -2.6268  0.0772
  904MOL0     H22001   5.210   4.620  10.165 -0.5367 -0.4363 -0.2760
  904MOL0     H22002   5.271   4.778  10.198  2.2845 -1.5829  1.7188
  904MOL0     H22003   5.183   4.680  10.324 -2.6796 -1.6153 -0.8321
  904MOL0     H22004   5.004   5.201  10.485 -0.3560  1.2970  1.3355
  904MOL0     H22005   5.037   5.346  10.697  0.6026  0.1000  2.1990
  904MOL0     H22006   4.947   5.193  11.098 -1.1241  1.9525 -0.9359
  904MOL0     H22007   5.100   5.103  11.051 -0.9154 -0.3599 -1.2255
  904MOL0     H22008   5.075   5.375  11.185  0.8873  0.7946  0.4840
  904MOL0     H22009   5.164   5.238  11.237 -0.6302  1.5063  0.2292
  904MOL0     H22010   5.269   5.346  10.981  2.1066 -1.8426  0.5839
  904MOL0     H22011   5.342   5.251  11.118 -0.1315 -0.0241  0.8041
  904MOL0     H22012   5.317   5.542  11.109  0.3468  0.4912  0.7224
  904MOL0     H22013   5.286   5.453  11.258 -0.1418 -2.7708  0.0990
  904MOL0     H22014   5.504   5.340  11.229 -0.0140  1.4032  2.4468
  904MOL0     H22015   5.521   5.498  11.268  0.3059 -0.4710  0.7741
  904MOL0     H22016   5.676   5.471  11.100  0.5345  0.6844 -0.7689
  904MOL0     H22017   5.570   5.374  11.000  1.6440 -0.8521  1.5295
  904MOL0     H22018   5.487   5.669  11.051 -4.8051  0.2619 -4.7579
  904MOL0     H22019   5.470   5.583  10.909 -1.1166 -1.7908  0.1498
  904MOL0     H22020   5.642   5.728  10.867 -0.2768 -0.2012 -0.6972
  904MOL0     H22021   5.730   5.580  10.890 -0.2967  1.6292 -1.9599
  904MOL0     H22022   4.941   5.000  10.935  0.2721  0.0604 -0.2552
  904MOL0     H22023   4.903   4.863  10.712 -2.8438  1.5760 -0.1891
  904MOL0     H22024   4.794   4.984  10.234 -0.7856  2.3932 -1.7092
  904MOL0     H22025   4.686   4.854  10.073  0.5099  0.4901 -1.0758
  904MOL0     H22026   4.751   5.096   9.815  0.8853  0.6105 -0.9717
  904MOL0     H22027   4.868   5.242   9.981 -0.4728 -1.2205 -1.4234
  904MOL0     H22028   4.828   5.601  10.237  0.9710 -2.5481 -0.7664
  904MOL0     H22029   4.949   5.757  10.371  0.7378 -0.6211 -0.0095
  904MOL0     H22030   5.046   5.953  10.668  1.7239  2.3344 -3.3294
  904MOL0     H22031   5.030   5.887  10.508  2.5544 -2.1102  1.9698
  904MOL0     H22032   4.898   6.081  10.523 -0.0517  0.4447  1.5251
  904MOL0     H22033   4.848   6.052  10.678 -0.6136 -1.7778  0.7078
  904MOL0     H22034   4.702   5.855  10.556  2.2128 -1.7769 -1.7485
  904MOL0     H22035   4.745   5.932  10.418 -0.7457  2.0345 -0.4160
  904MOL0     H22036   4.673   6.148  10.447  0.2352 -0.0517 -0.0960
  904MOL0     H22037   4.642   6.126  10.624 -1.9641 -0.7939 -0.1266
  904MOL0     H22038   4.293   5.991  10.414  0.2590 -0.4309  1.2726
  904MOL0     H22039   4.824   5.549  10.727 -1.4378  2.4354  0.1046
  904MOL0     H22040   4.746   5.361  10.576 -3.6580  1.0050 -0.4353
  905MOL0     O22041   4.325   7.205  10.232 -0.7034 -0.2000 -0.0889
  905MOL0     C22042   4.238   7.261  10.171 -0.1124 -0.4520 -0.3827
  905MOL0     O22043   4.102   7.226  10.177 -0.6192 -0.4480  0.2406
  905MOL0     C22044   4.055   7.120  10.244 -0.7244 -0.0817  0.4050
  905MOL0     C22045   4.114   6.995  10.242  0.2733 -1.1266 -0.3305
  905MOL0     C22046   4.057   6.876  10.307  0.0815 -0.5755  0.6617
  905MOL0     C22047   3.932   6.899  10.372 -0.2021  0.4956 -0.1859
  905MOL0     O22048   3.864   6.784  10.411 -0.1637 -0.2934  0.6319
  905MOL0     C22049   3.777   6.792  10.521 -0.4068 -0.4565 -0.0622
  905MOL0     C22050   3.747   6.643  10.551  1.0649 -0.5681 -0.3909
  905MOL0     C22051   3.622   6.642  10.640  0.5704  0.1555 -0.2082
  905MOL0     C22052   3.576   6.518  10.715  0.5434  0.8168 -0.1737
  905MOL0     C22053   3.557   6.403  10.614 -0.7742 -0.5720  1.7370
  905MOL0     C22054   3.445   6.416  10.521  0.1716  0.4094 -0.2574
  905MOL0     C22055   3.455   6.309  10.410 -0.5017  0.4480  0.2561
  905MOL0     C22056   3.323   6.281  10.333  0.4740 -0.2817  0.9668
  905MOL0     N22057   3.198   6.254  10.414 -0.1499 -0.3706 -0.3020
  905MOL0     C22058   3.152   6.138  10.486 -0.4326 -0.2391  0.1417
  905MOL0     C22059   3.051   6.192  10.560 -0.5216 -0.0708  0.3720
  905MOL0     C22060   2.997   6.147  10.687  0.6052 -0.7341  0.1337
  905MOL0     C22061   3.089   6.175  10.812  0.6646 -0.4164  1.1102
  905MOL0     C22062   3.133   6.321  10.824 -0.2830 -0.6866 -0.8944
  905MOL0     C22063   3.200   6.339  10.959  0.0765  0.4161 -0.3921
  905MOL0     O22064   3.232   6.478  10.979  0.2021  0.1129  0.1690
  905MOL0     C22065   3.305   6.498  11.094  0.5995  0.6491 -0.3098
  905MOL0     C22066   3.363   6.405  11.176  0.0559  0.8341  0.7434
  905MOL0     C22067   3.451   6.441  11.277 -0.0634  0.7487 -1.2040
  905MOL0     C22068   3.508   6.323  11.360  0.4885  0.0179  0.1907
  905MOL0     C22069   3.487   6.570  11.296  0.8950 -0.5696 -1.0143
  905MOL0     C22070   3.584   6.626  11.397 -0.1260  0.9281  0.9020
  905MOL0     O22071   3.633   6.742  11.362  1.0412  0.0357 -0.3737
  905MOL0     C22072   3.732   6.801  11.436 -1.1844  0.0181 -0.3040
  905MOL0     C22073   3.808   6.885  11.360 -0.5611  0.4572 -0.9094
  905MOL0     C22074   3.927   6.938  11.420 -0.1475 -0.3057  0.6341
  905MOL0     C22075   3.960   6.915  11.559  0.3472  1.4335 -0.1292
  905MOL0     O22076   4.063   6.968  11.635 -0.9004 -0.4469 -0.5137
  905MOL0     C22077   4.176   7.025  11.573  0.1021  0.3872 -0.0906
  905MOL0     C22078   4.159   7.175  11.562 -0.6388 -0.1271  1.0733
  905MOL0     C22079   4.291   7.230  11.491 -0.2595 -0.7507  0.0503
  905MOL0     C22080   4.266   7.270  11.342  1.1871 -0.3097  1.2204
  905MOL0     C22081   4.142   7.350  11.305  0.1132 -0.2105  0.1608
  905MOL0     C22082   4.129   7.494  11.374 -0.1217 -0.3877  0.4710
  905MOL0     C22083   4.000   7.569  11.345 -0.6274  0.6984 -0.1454
  905MOL0     C22084   4.011   7.699  11.418 -0.2858  0.3400  0.0441
  905MOL0    Cl22085   4.008   7.833  11.302 -0.1859  0.6360  0.1541
  905MOL0     C22086   3.864   6.835  11.627  0.1600  0.3408  0.1240
  905MOL0     C22087   3.753   6.791  11.574  0.3504 -0.3837  0.0309
  905MOL0     O22088   3.617   6.564  11.496 -0.6834 -0.0097  0.5171
  905MOL0     C22089   3.420   6.667  11.209 -0.6241  0.5188 -0.3255
  905MOL0     C22090   3.336   6.629  11.104  0.9457  0.3883  0.4890
  905MOL0     N22091   3.018   6.321  10.505  0.5660  0.9777 -0.3585
  905MOL0     N22092   3.105   6.355  10.419  0.4117  0.0931 -0.9626
  905MOL0     C22093   3.877   7.025  10.379  0.0187  0.0752  0.1304
  905MOL0     C22094   3.933   7.133  10.307 -0.3655 -0.0900 -0.5291
  905MOL0     C22095   4.271   7.365  10.071 -0.7916 -0.2069 -1.3937
  905MOL0     C22096   4.182   7.451   9.997  0.8241 -0.6218 -0.6595
  905MOL0     C22097   4.221   7.552   9.912 -0.5907  1.0347 -0.5504
  905MOL0     C22098   4.358   7.582   9.896  0.2383  0.7276 -0.5902
  905MOL0     O22099   4.410   7.683   9.821  0.1661  0.2593  0.5618
  905MOL0     C22100   4.322   7.800   9.814 -0.0626 -0.6590 -1.1841
  905MOL0     C22101   4.303   7.853   9.956  0.5686 -0.4003  0.1397
  905MOL0     C22102   4.239   7.993   9.966 -0.4540 -0.1816  0.0635
  905MOL0     C22103   4.332   8.115   9.959 -0.1330 -0.4479  0.2606
  905MOL0     C22104   4.414   8.111   9.838  0.5134 -0.1463 -0.1170
  905MOL0     C22105   4.495   8.100   9.750  0.6620  0.4028  0.1877
  905MOL0     C22106   4.451   7.504   9.966  0.8882  0.0538  1.0176
  905MOL0     C22107   4.408   7.404  10.054 -0.7035 -0.7763 -0.3990
  905MOL0     H22108   4.210   6.996  10.192 -0.3517  1.4031 -1.6282
  905MOL0     H22109   4.109   6.782  10.297  0.1755 -0.3207 -1.8709
  905MOL0     H22110   3.834   6.828  10.607 -0.1244 -0.4534 -0.2488
  905MOL0     H22111   3.681   6.845  10.512 -0.3393 -0.3232 -0.0058
  905MOL0     H22112   3.733   6.571  10.470  0.1534 -1.0304  0.1510
  905MOL0     H22113   3.821   6.596  10.616  1.8183  0.3416 -0.5696
  905MOL0     H22114   3.632   6.728  10.707  0.5766  0.2212 -0.2927
  905MOL0     H22115   3.537   6.670  10.577  1.3769  1.5379 -0.7282
  905MOL0     H22116   3.655   6.485  10.784  0.8313 -0.7169 -1.1735
  905MOL0     H22117   3.486   6.514  10.777 -0.1130 -1.5141 -1.1616
  905MOL0     H22118   3.652   6.400  10.560 -1.8724  2.6166 -0.6929
  905MOL0     H22119   3.532   6.307  10.660 -3.0291 -0.5832  0.5989
  905MOL0     H22120   3.354   6.402  10.580 -0.4888  0.9145 -1.1107
  905MOL0     H22121   3.453   6.517  10.479  2.8977  0.3145 -0.1027
  905MOL0     H22122   3.545   6.330  10.351  2.3969 -2.2233  3.3155
  905MOL0     H22123   3.476   6.217  10.465  0.2287 -0.2605 -1.1677
  905MOL0     H22124   3.346   6.192  10.273 -0.2862 -0.5627  1.0840
  905MOL0     H22125   3.295   6.365  10.270  1.0188 -0.8422 -0.0484
  905MOL0     H22126   3.210   6.046  10.497 -0.6378 -0.6270 -1.6860
  905MOL0     H22127   2.896   6.189  10.686  0.0675 -1.8110 -2.9163
  905MOL0     H22128   2.994   6.037  10.695  1.6897 -0.8043 -0.2999
  905MOL0     H22129   3.183   6.120  10.795  0.4334 -0.3142 -0.7215
  905MOL0     H22130   3.028   6.142  10.897 -0.6418 -5.1114 -1.3114
  905MOL0     H22131   3.064   6.401  10.795  2.1309  1.3967 -1.3077
  905MOL0     H22132   3.206   6.341  10.744 -0.5701  2.4871 -0.4719
  905MOL0     H22133   3.291   6.277  10.960  0.6916  1.2655 -1.0999
  905MOL0     H22134   3.147   6.316  11.051  4.2365  0.6207  2.3626
  905MOL0     H22135   3.328   6.302  11.172  0.3782  0.6625  2.0753
  905MOL0     H22136   3.464   6.337  11.459  1.0751  0.7047  0.3615
  905MOL0     H22137   3.501   6.222  11.320  2.4077 -0.2741  0.5164
  905MOL0     H22138   3.615   6.341  11.374  0.9820 -1.1183 -1.7059
  905MOL0     H22139   3.791   6.907  11.255 -2.0863 -1.0500 -1.0107
  905MOL0     H22140   3.999   6.991  11.359  1.0956  0.2002  2.4513
  905MOL0     H22141   4.269   7.005  11.628  0.7486  0.9421 -0.9565
  905MOL0     H22142   4.202   6.984  11.475  1.7726  0.9222  0.1035
  905MOL0     H22143   4.072   7.195  11.498 -0.0440 -2.4691 -0.6079
  905MOL0     H22144   4.135   7.217  11.660  0.4180  1.4204  0.7113
  905MOL0     H22145   4.369   7.154  11.486  0.9533  0.5323 -1.5622
  905MOL0     H22146   4.328   7.321  11.539 -0.8884  1.6254 -3.5415
  905MOL0     H22147   4.354   7.315  11.293 -0.3763 -0.4906 -1.9882
  905MOL0     H22148   4.236   7.182  11.286 -3.0920  0.6432  1.6452
  905MOL0     H22149   4.053   7.287  11.317  0.7516 -1.4122 -1.1302
  905MOL0     H22150   4.160   7.360  11.198 -1.7510  3.2047  0.0040
  905MOL0     H22151   4.153   7.495  11.481  1.4906  1.8300  0.1649
  905MOL0     H22152   4.205   7.560  11.328  1.1764 -3.1771 -1.7196
  905MOL0     H22153   3.911   7.507  11.363 -1.5382  0.5668 -4.0783
  905MOL0     H22154   3.997   7.591  11.237  0.3746  0.2120 -0.2762
  905MOL0     H22155   4.108   7.699  11.469 -0.1202 -1.3513 -0.2215
  905MOL0     H22156   3.935   7.710  11.496  0.9332  0.0205  1.3234
  905MOL0     H22157   3.879   6.828  11.734  0.0026 -0.1866  0.1156
  905MOL0     H22158   3.684   6.736  11.638  0.7498 -0.8625  0.0610
  905MOL0     H22159   3.448   6.771  11.220  0.1110  0.2946  0.0751
  905MOL0     H22160   3.305   6.699  11.027  1.1560 -0.3846 -0.3224
  905MOL0     H22161   3.778   7.040  10.419  0.3202  0.2578  0.8243
  905MOL0     H22162   3.879   7.227  10.312  0.1953  0.2233 -0.3162
  905MOL0     H22163   4.077   7.427   9.987  1.2868 -2.2676 -2.0371
  905MOL0     H22164   4.139   7.612   9.874 -2.3697 -0.8304  0.1116
  905MOL0     H22165   4.380   7.870   9.753 -0.2598  0.7525  0.1881
  905MOL0     H22166   4.229   7.783   9.759 -1.2226  0.8981  0.1777
  905MOL0     H22167   4.396   7.845  10.013  1.1024 -1.7583 -0.8741
  905MOL0     H22168   4.226   7.794  10.007  0.3249 -1.0659 -0.9736
  905MOL0     H22169   4.181   8.012  10.057 -2.0905  3.3967 -1.5036
  905MOL0     H22170   4.163   7.999   9.888  1.3886 -2.4259 -2.0786
  905MOL0     H22171   4.398   8.108  10.047 -0.5257 -2.2111  0.4403
  905MOL0     H22172   4.275   8.209   9.961  1.6246  0.7117 -1.1637
  905MOL0     H22173   4.550   8.081   9.660 -2.5084 -2.4764 -1.3863
  905MOL0     H22174   4.557   7.528   9.961  0.6736  1.2992  1.7627
  905MOL0     H22175   4.493   7.356  10.103 -0.0661 -1.5762 -2.1956
  906MOL0     O22176   2.473   4.501   1.073  0.1779 -0.0581  1.7136
  906MOL0     C22177   2.573   4.542   1.007 -0.1517 -0.4748  0.3224
  906MOL0     O22178   2.663   4.457   0.943 -0.5962 -0.7599 -0.4540
  906MOL0     C22179   2.651   4.329   0.964 -0.5339  0.0255 -0.1051
  906MOL0     C22180   2.562   4.254   0.891 -0.2747  0.2266 -0.0704
  906MOL0     C22181   2.561   4.108   0.909  0.3532 -0.4448 -0.3589
  906MOL0     C22182   2.657   4.042   1.001 -0.4696  0.0561 -0.1760
  906MOL0     O22183   2.672   3.911   1.013 -0.0834  0.2955 -0.5234
  906MOL0     C22184   2.561   3.810   0.988  0.3814  0.6171 -0.2027
  906MOL0     C22185   2.620   3.671   1.029 -0.8535  0.2987  0.0529
  906MOL0     C22186   2.560   3.544   0.947 -1.0398 -0.4639  0.8424
  906MOL0     C22187   2.409   3.528   0.970 -0.7147  0.1752 -0.4301
  906MOL0     C22188   2.349   3.402   0.892 -0.5700  0.2333 -0.4190
  906MOL0     C22189   2.214   3.370   0.942 -0.1605  0.1471 -0.0895
  906MOL0     C22190   2.174   3.221   0.902  0.0575  0.6884 -0.2466
  906MOL0     C22191   2.229   3.120   1.008  0.5397  0.0920 -0.2147
  906MOL0     N22192   2.175   2.985   1.005  0.3699 -0.4630  0.4433
  906MOL0     C22193   2.215   2.897   0.912 -0.8038 -0.5605  0.7647
  906MOL0     C22194   2.127   2.796   0.920 -0.5814 -0.9285 -0.2448
  906MOL0     C22195   2.118   2.677   0.841 -0.5852  0.5995 -0.2157
  906MOL0     C22196   2.142   2.558   0.941  0.6582 -0.0648  0.8270
  906MOL0     C22197   2.277   2.561   1.010 -1.3838 -0.4272  0.9299
  906MOL0     C22198   2.303   2.426   1.080 -0.7184  0.5814  0.0087
  906MOL0     O22199   2.303   2.451   1.220  0.3039  0.3275 -0.4411
  906MOL0     C22200   2.314   2.341   1.301 -0.5337  0.5947  0.2800
  906MOL0     C22201   2.232   2.332   1.414  0.6559  0.4947  0.3989
  906MOL0     C22202   2.236   2.221   1.499 -0.7842 -0.6271  0.3907
  906MOL0     C22203   2.137   2.223   1.613  0.3965 -0.2326  0.3460
  906MOL0     C22204   2.328   2.118   1.470  0.1672 -0.5143 -1.3461
  906MOL0     C22205   2.342   1.993   1.545 -0.1083 -0.8006  0.3952
  906MOL0     O22206   2.343   1.883   1.458  0.0874  0.5509  0.2922
  906MOL0     C22207   2.361   1.766   1.521 -0.3909 -1.0377 -0.1609
  906MOL0     C22208   2.487   1.744   1.579  0.9177 -0.4033 -0.8457
  906MOL0     C22209   2.495   1.625   1.639 -0.8447  0.3497  0.0953
  906MOL0     C22210   2.395   1.523   1.640  0.5206 -0.0180  0.2165
  906MOL0     O22211   2.410   1.411   1.713 -0.2999 -0.6505  0.2046
  906MOL0     C22212   2.403   1.286   1.652  0.6869 -0.3619 -0.0276
  906MOL0     C22213   2.503   1.196   1.719  0.2265 -1.0235  0.1694
  906MOL0     C22214   2.538   1.070   1.633  0.4215 -1.2086  0.6943
  906MOL0     C22215   2.643   0.992   1.705 -0.1109  0.0711 -1.3987
  906MOL0     C22216   2.678   0.864   1.623  0.8305  0.4292 -0.7115
  906MOL0     C22217   2.787   0.781   1.692 -0.4787  0.0741  0.3446
  906MOL0     C22218   2.839   0.678   1.591 -0.2774  0.4657 -0.1887
  906MOL0     C22219   2.942   0.568   1.636 -0.5731  0.2636 -0.1262
  906MOL0    Cl22220   2.877   0.494   1.782  0.3431  0.0876 -0.1289
  906MOL0     C22221   2.285   1.549   1.558  0.0251 -0.6280  0.2615
  906MOL0     C22222   2.263   1.671   1.497 -0.5678  0.0234  0.2440
  906MOL0     O22223   2.333   1.982   1.663 -0.6355 -0.6203 -0.2223
  906MOL0     C22224   2.407   2.126   1.353 -0.1876  0.8407  0.8404
  906MOL0     C22225   2.397   2.242   1.279 -0.9328 -0.5273 -0.1483
  906MOL0     N22226   2.036   2.827   1.017  0.3269 -0.4748 -0.5627
  906MOL0     N22227   2.053   2.949   1.057  0.2253  0.8481  0.4543
  906MOL0     C22228   2.742   4.131   1.070  0.6076  0.9684  0.7158
  906MOL0     C22229   2.742   4.271   1.050  0.8010  0.3690 -0.1622
  906MOL0     C22230   2.617   4.684   1.017  0.5319  0.4759  0.5522
  906MOL0     C22231   2.596   4.753   1.134  1.0083 -0.0144  0.6174
  906MOL0     C22232   2.636   4.889   1.148 -0.1978 -0.1958 -0.5208
  906MOL0     C22233   2.689   4.961   1.035  0.0232 -0.2311  0.3670
  906MOL0     O22234   2.722   5.095   1.039 -0.6308  0.4387  0.9188
  906MOL0     C22235   2.682   5.165   1.152  0.2509 -0.0289  1.2338
  906MOL0     C22236   2.715   5.318   1.135  0.3120  0.8039 -0.1240
  906MOL0     C22237   2.636   5.398   1.244  0.5898  0.4863 -0.3908
  906MOL0     C22238   2.620   5.547   1.222 -0.1280 -0.4337  1.0742
  906MOL0     C22239   2.518   5.568   1.113 -0.4307 -0.5897  0.0741
  906MOL0     C22240   2.412   5.610   1.064  1.4447 -0.7561 -0.6031
  906MOL0     C22241   2.703   4.886   0.912  0.1688  1.0464 -0.2499
  906MOL0     C22242   2.665   4.748   0.903  0.3732 -0.2023  0.1743
  906MOL0     H22243   2.500   4.306   0.820  0.0856  0.0805 -0.5007
  906MOL0     H22244   2.496   4.046   0.848 -0.0248  1.0759 -1.5620
  906MOL0     H22245   2.472   3.824   1.049 -1.8311  0.4986 -3.1986
  906MOL0     H22246   2.534   3.802   0.882  2.4033 -0.2427 -0.7041
  906MOL0     H22247   2.724   3.668   0.997 -1.7097 -0.0553 -3.0106
  906MOL0     H22248   2.603   3.648   1.135 -2.3323 -1.8278 -0.5864
  906MOL0     H22249   2.577   3.555   0.839 -1.0357 -2.2821  0.6279
  906MOL0     H22250   2.622   3.461   0.980  0.3245  0.3872  0.5101
  906MOL0     H22251   2.412   3.512   1.078  5.0785 -0.4994 -0.3569
  906MOL0     H22252   2.349   3.616   0.945  0.7833  1.3991  0.0868
  906MOL0     H22253   2.334   3.423   0.786 -0.9746 -2.2111 -0.8979
  906MOL0     H22254   2.415   3.314   0.894  1.9683  1.8976  3.4782
  906MOL0     H22255   2.214   3.368   1.052  5.4132 -0.8648  0.1772
  906MOL0     H22256   2.135   3.438   0.907  0.9160  3.0749  2.6635
  906MOL0     H22257   2.066   3.203   0.901  0.6685 -4.2539 -0.8905
  906MOL0     H22258   2.203   3.198   0.800 -2.6175  4.9155 -2.2399
  906MOL0     H22259   2.214   3.149   1.112 -1.6927 -1.7904  0.0621
  906MOL0     H22260   2.338   3.116   0.998  0.5480 -0.1746 -0.0299
  906MOL0     H22261   2.287   2.904   0.831 -2.0017  2.7295 -0.1710
  906MOL0     H22262   2.012   2.671   0.812 -1.5331  0.0086  2.9520
  906MOL0     H22263   2.182   2.674   0.753 -1.5046  2.2327 -0.9978
  906MOL0     H22264   2.132   2.474   0.871  3.0854  2.6014 -3.0884
  906MOL0     H22265   2.058   2.556   1.012 -1.5365  2.4399 -1.4537
  906MOL0     H22266   2.302   2.651   1.067 -1.2398  1.5475 -2.0258
  906MOL0     H22267   2.354   2.569   0.932 -0.8924  0.6579  1.5035
  906MOL0     H22268   2.405   2.394   1.056 -0.8184 -0.0144  0.3549
  906MOL0     H22269   2.224   2.358   1.046 -1.6435  0.0053  2.9831
  906MOL0     H22270   2.156   2.408   1.431 -1.2973 -1.4628  0.9455
  906MOL0     H22271   2.143   2.144   1.688 -0.0289  0.2102  0.8523
  906MOL0     H22272   2.147   2.318   1.665  4.9255  1.7417 -3.3912
  906MOL0     H22273   2.041   2.209   1.563 -0.2592  2.0758  0.8606
  906MOL0     H22274   2.559   1.824   1.571  1.3280 -0.3849  2.1012
  906MOL0     H22275   2.590   1.609   1.689 -0.0829 -0.5522 -1.5395
  906MOL0     H22276   2.299   1.258   1.669  0.8706  0.4537  3.2121
  906MOL0     H22277   2.415   1.286   1.544 -1.7841 -0.4866 -0.3568
  906MOL0     H22278   2.591   1.261   1.726  0.2549 -0.9681 -0.5800
  906MOL0     H22279   2.463   1.171   1.818 -1.8372 -0.9570 -0.6032
  906MOL0     H22280   2.567   1.108   1.535 -0.0623 -0.9314  0.6560
  906MOL0     H22281   2.451   1.003   1.631 -0.3072 -0.3248  1.4474
  906MOL0     H22282   2.730   1.053   1.728  1.4210 -2.7951  1.2372
  906MOL0     H22283   2.606   0.957   1.802  2.0580  1.9325  0.2156
  906MOL0     H22284   2.716   0.898   1.526  2.4830 -1.1998 -0.6950
  906MOL0     H22285   2.587   0.805   1.609  0.5833 -0.7824  4.1775
  906MOL0     H22286   2.863   0.847   1.734  0.9948 -1.8977  0.9778
  906MOL0     H22287   2.737   0.725   1.771  0.3976 -0.5385  0.4785
  906MOL0     H22288   2.876   0.716   1.495  0.3472 -3.8426 -1.8508
  906MOL0     H22289   2.747   0.630   1.558 -0.5871  0.9313 -0.0184
  906MOL0     H22290   3.037   0.612   1.667 -0.9359 -0.0748  1.6112
  906MOL0     H22291   2.961   0.497   1.555 -2.8081  0.0629 -0.5291
  906MOL0     H22292   2.210   1.471   1.544 -2.4616  1.6852 -0.1231
  906MOL0     H22293   2.169   1.687   1.446 -1.0903 -0.0297  1.1745
  906MOL0     H22294   2.484   2.061   1.313 -0.3195  2.4885 -2.4391
  906MOL0     H22295   2.470   2.258   1.201  1.2920 -1.4086  1.6146
  906MOL0     H22296   2.819   4.098   1.139 -1.0528 -2.7250  1.0974
  906MOL0     H22297   2.814   4.338   1.096  0.9767  0.8217 -1.0853
  906MOL0     H22298   2.541   4.707   1.216 -0.9008  0.0429 -0.5709
  906MOL0     H22299   2.605   4.935   1.241  1.8257  0.7634 -0.2557
  906MOL0     H22300   2.577   5.151   1.179 -0.5808  4.5689  1.2502
  906MOL0     H22301   2.732   5.126   1.241  0.8862 -1.2448  0.3838
  906MOL0     H22302   2.668   5.335   1.037 -0.4069 -1.9385 -0.3367
  906MOL0     H22303   2.823   5.337   1.145  1.0535 -3.0525  1.1792
  906MOL0     H22304   2.700   5.380   1.331 -1.7846 -0.2600  1.3198
  906MOL0     H22305   2.537   5.352   1.255  0.2033  1.1680 -0.8931
  906MOL0     H22306   2.716   5.576   1.179 -1.4802  0.4311 -1.5722
  906MOL0     H22307   2.602   5.599   1.316 -0.3668  0.3266  0.6181
  906MOL0     H22308   2.320   5.646   1.023 -0.0042  0.6008  3.4174
  906MOL0     H22309   2.721   4.929   0.814  2.1831 -0.7081 -0.7272
  906MOL0     H22310   2.680   4.696   0.810 -1.5937  2.9669 -2.1230
  907MOL0     O22311   8.770  11.149  10.139 -0.3588  0.7069 -0.4421
  907MOL0     C22312   8.719  11.216  10.221  1.4064 -1.1394 -0.9886
  907MOL0     O22313   8.715  11.191  10.359  0.0680 -0.2985  0.2888
  907MOL0     C22314   8.794  11.098  10.421  0.3782 -0.4060 -0.1084
  907MOL0     C22315   8.736  11.017  10.527  0.4023 -0.7392 -0.1886
  907MOL0     C22316   8.814  10.919  10.592  0.4869 -0.4504  0.2179
  907MOL0     C22317   8.937  10.898  10.557  0.0764 -0.0153  1.3465
  907MOL0     O22318   9.003  10.824  10.643 -0.7724  0.4458  0.0286
  907MOL0     C22319   9.143  10.848  10.667  0.0765 -1.0815  0.7889
  907MOL0     C22320   9.187  10.818  10.819 -0.4297 -0.8288  0.8102
  907MOL0     C22321   9.077  10.844  10.926  0.4199 -1.6543  1.6276
  907MOL0     C22322   9.139  10.886  11.056 -0.2206  0.2597 -0.1152
  907MOL0     C22323   9.020  10.888  11.164 -0.7490  0.3261  0.3851
  907MOL0     C22324   9.067  10.962  11.282 -1.2618  0.7659  0.0105
  907MOL0     C22325   8.999  10.934  11.412  0.3554 -0.2329 -1.0804
  907MOL0     C22326   8.877  11.025  11.441  0.8906 -0.6484  0.1153
  907MOL0     N22327   8.777  10.956  11.532 -0.0842 -0.5201 -0.0533
  907MOL0     C22328   8.808  10.913  11.659  0.9172  1.4594 -0.4322
  907MOL0     C22329   8.687  10.862  11.706  0.1106  0.3463  1.1058
  907MOL0     C22330   8.666  10.772  11.824  0.1549 -0.6990 -0.2633
  907MOL0     C22331   8.594  10.835  11.945 -0.2857 -1.0299  0.1470
  907MOL0     C22332   8.663  10.971  11.964  0.2166  0.4362  0.6644
  907MOL0     C22333   8.611  11.050  12.082  0.4297 -0.1527 -0.9084
  907MOL0     O22334   8.469  11.073  12.061 -0.8768 -0.1795 -0.3956
  907MOL0     C22335   8.387  11.048  12.170 -0.3593 -0.7531  0.7580
  907MOL0     C22336   8.316  11.159  12.215  0.4055  0.2588  0.1258
  907MOL0     C22337   8.236  11.137  12.329 -0.0356  1.4369 -0.3062
  907MOL0     C22338   8.168  11.257  12.388  0.4480  1.0095  0.4833
  907MOL0     C22339   8.231  11.006  12.397 -0.4208 -0.9051 -0.0810
  907MOL0     C22340   8.144  10.986  12.521  0.3037 -0.7878  0.0578
  907MOL0     O22341   8.014  11.016  12.532  0.4890 -0.9015  1.0958
  907MOL0     C22342   7.959  11.034  12.653 -0.2450  0.5717  0.2371
  907MOL0     C22343   7.848  10.962  12.687 -0.5956  0.7509  0.4696
  907MOL0     C22344   7.788  10.970  12.812 -0.2240  0.1792 -0.1914
  907MOL0     C22345   7.835  11.054  12.910  0.4708 -0.1284 -0.1259
  907MOL0     O22346   7.781  11.069  13.034  0.1444 -0.5473  0.0621
  907MOL0     C22347   7.729  10.939  13.087 -0.0619 -0.0127  0.6598
  907MOL0     C22348   7.745  10.931  13.243  0.3310  0.1354 -0.0930
  907MOL0     C22349   7.664  10.814  13.311 -0.2001 -0.3029  0.1246
  907MOL0     C22350   7.683  10.847  13.465 -0.4904 -0.2823  0.6075
  907MOL0     C22351   7.677  10.723  13.557 -0.4465  0.2869 -0.0980
  907MOL0     C22352   7.536  10.658  13.564  0.0629  0.2404  0.3689
  907MOL0     C22353   7.533  10.561  13.683 -0.3605  0.0492 -0.5751
  907MOL0     C22354   7.393  10.511  13.697 -0.2005 -0.3904  0.5308
  907MOL0    Cl22355   7.280  10.637  13.757 -0.1821 -0.6109 -0.0325
  907MOL0     C22356   7.941  11.144  12.877 -0.4691  0.4443  0.4030
  907MOL0     C22357   8.006  11.129  12.750  0.6023  0.2623 -1.0702
  907MOL0     O22358   8.207  10.925  12.609 -0.0677  0.0586  0.3430
  907MOL0     C22359   8.291  10.893  12.336  0.5665 -0.0133 -0.3042
  907MOL0     C22360   8.377  10.924  12.232  0.0243  0.9499  1.1336
  907MOL0     N22361   8.592  10.882  11.603  0.2855 -0.5261 -0.0371
  907MOL0     N22362   8.644  10.952  11.510 -0.1926  0.1307  1.1541
  907MOL0     C22363   8.998  10.974  10.455 -0.1372 -0.0998 -1.0246
  907MOL0     C22364   8.935  11.085  10.401  0.3203 -0.3908  0.6326
  907MOL0     C22365   8.676  11.356  10.176  0.1613  0.3098 -0.0693
  907MOL0     C22366   8.667  11.396  10.039 -1.1380  0.7629 -0.9888
  907MOL0     C22367   8.621  11.528  10.004  1.1317  0.3243 -0.3132
  907MOL0     C22368   8.568  11.615  10.106 -0.0868  0.9650  0.2044
  907MOL0     O22369   8.539  11.738  10.058  0.5658 -1.0408 -0.4207
  907MOL0     C22370   8.588  11.852  10.132  0.6343  0.2857 -0.1658
  907MOL0     C22371   8.518  11.974  10.079  0.7175  0.0307  0.2304
  907MOL0     C22372   8.583  12.022   9.948 -0.5350  0.5177 -0.6298
  907MOL0     C22373   8.509  12.144   9.888  1.2681 -1.0162 -0.6072
  907MOL0     C22374   8.414  12.113   9.783 -0.9294 -0.3227 -0.1301
  907MOL0     C22375   8.344  12.085   9.693 -0.1840  0.4778  0.2740
  907MOL0     C22376   8.579  11.568  10.241 -0.1294 -0.3755  0.3125
  907MOL0     C22377   8.627  11.444  10.267 -1.0581  0.8146 -0.6408
  907MOL0     H22378   8.630  11.027  10.550  0.2910 -2.8481  0.3929
  907MOL0     H22379   8.770  10.858  10.670  4.4671 -0.9233  2.2936
  907MOL0     H22380   9.193  10.794  10.586 -0.3743 -0.4154  0.0457
  907MOL0     H22381   9.161  10.956  10.659 -0.6616 -0.9750  0.5232
  907MOL0     H22382   9.222  10.715  10.816 -1.1045 -1.0375 -1.0188
  907MOL0     H22383   9.276  10.879  10.839 -1.9242  1.5142  0.7461
  907MOL0     H22384   9.022  10.934  10.895  1.0862 -0.8817  2.6157
  907MOL0     H22385   9.004  10.763  10.923  1.3780 -2.7174 -3.7791
  907MOL0     H22386   9.214  10.813  11.086 -1.8451 -2.5731 -2.4500
  907MOL0     H22387   9.169  10.991  11.050 -4.5464  1.6400 -2.8408
  907MOL0     H22388   8.922  10.930  11.143 -1.0600  0.4825  2.0122
  907MOL0     H22389   9.007  10.780  11.178 -0.8085  0.0641 -1.4570
  907MOL0     H22390   9.171  10.938  11.306 -0.6120  4.6865  1.9739
  907MOL0     H22391   9.056  11.069  11.266 -4.1760  1.1839  3.4570
  907MOL0     H22392   8.955  10.834  11.405 -2.7047  1.0899 -2.3423
  907MOL0     H22393   9.071  10.948  11.494 -2.3145 -0.7415  1.5344
  907MOL0     H22394   8.828  11.056  11.349 -0.8401  1.2351  1.5606
  907MOL0     H22395   8.909  11.121  11.484 -1.0062  0.4042 -0.6769
  907MOL0     H22396   8.903  10.916  11.711 -1.0608  2.3277  3.5114
  907MOL0     H22397   8.613  10.682  11.792 -1.1143  0.2349 -0.8953
  907MOL0     H22398   8.763  10.734  11.858  1.5592  1.2462 -1.8003
  907MOL0     H22399   8.617  10.775  12.033  1.6921 -1.4058 -0.5817
  907MOL0     H22400   8.491  10.867  11.926  0.2013  4.5903  4.3037
  907MOL0     H22401   8.644  11.042  11.882  0.4444  0.3235  0.5119
  907MOL0     H22402   8.772  10.962  11.967  0.0606 -2.5018  0.2133
  907MOL0     H22403   8.658  11.148  12.095  0.1339  0.1095 -1.7405
  907MOL0     H22404   8.630  10.987  12.169  0.9429 -0.4292 -1.2134
  907MOL0     H22405   8.336  11.258  12.174  0.8981 -0.0843 -0.4854
  907MOL0     H22406   8.178  11.343  12.322  3.5457  1.7122  1.6754
  907MOL0     H22407   8.061  11.240  12.398 -0.0247  3.3934  0.1009
  907MOL0     H22408   8.223  11.285  12.479  1.3906  2.5947 -0.5351
  907MOL0     H22409   7.826  10.890  12.609 -0.1878  1.1329 -0.0043
  907MOL0     H22410   7.706  10.901  12.825 -1.2410  0.5470 -3.6192
  907MOL0     H22411   7.623  10.932  13.062 -0.3672  2.7502  0.8640
  907MOL0     H22412   7.778  10.853  13.041  3.2228  1.2182  1.5860
  907MOL0     H22413   7.852  10.912  13.255  0.2470 -0.3825 -0.1014
  907MOL0     H22414   7.722  11.028  13.288  0.1090 -0.4416  1.0821
  907MOL0     H22415   7.704  10.715  13.288 -0.6512 -0.3708 -0.4023
  907MOL0     H22416   7.557  10.801  13.291 -0.6675  1.7263  1.0965
  907MOL0     H22417   7.783  10.888  13.484 -0.4590  0.6486 -1.3338
  907MOL0     H22418   7.616  10.924  13.504  0.3963  0.0814  1.4733
  907MOL0     H22419   7.717  10.726  13.659 -0.4340 -1.7286 -0.0054
  907MOL0     H22420   7.743  10.642  13.522  0.9609  0.2332  2.4118
  907MOL0     H22421   7.468  10.742  13.581 -1.9358  0.1089 -5.1263
  907MOL0     H22422   7.498  10.610  13.473  0.7764  2.5053 -1.2132
  907MOL0     H22423   7.552  10.607  13.781 -0.4425  1.9186 -1.3818
  907MOL0     H22424   7.608  10.481  13.677 -2.3877 -2.1972  1.6227
  907MOL0     H22425   7.369  10.431  13.768  1.6201 -2.1452 -0.7100
  907MOL0     H22426   7.355  10.475  13.601  2.7549 -0.3013 -0.7810
  907MOL0     H22427   7.972  11.223  12.944 -1.0706  0.0517  1.1525
  907MOL0     H22428   8.093  11.192  12.734  1.0683  1.4351  4.3481
  907MOL0     H22429   8.274  10.794  12.377 -1.7834  0.5511  0.2353
  907MOL0     H22430   8.447  10.850  12.195  0.3339  1.6089  0.3719
  907MOL0     H22431   9.103  10.952  10.437 -0.4221 -1.3125 -1.2991
  907MOL0     H22432   8.982  11.165  10.346 -1.2869 -0.7343 -1.3413
  907MOL0     H22433   8.703  11.331   9.960  0.6385 -0.4593  0.7153
  907MOL0     H22434   8.617  11.564   9.901 -1.5238 -0.5460 -0.6128
  907MOL0     H22435   8.555  11.843  10.236 -0.5715  3.0248 -0.2347
  907MOL0     H22436   8.696  11.868  10.118  0.3841 -0.7091 -5.0528
  907MOL0     H22437   8.533  12.054  10.152  0.2325 -0.0213  0.3915
  907MOL0     H22438   8.413  11.943  10.081  0.1452  1.8018  2.0450
  907MOL0     H22439   8.596  11.942   9.874 -0.1951  1.4536 -1.6085
  907MOL0     H22440   8.686  12.053   9.971 -0.5569  2.1903 -2.5248
  907MOL0     H22441   8.595  12.199   9.847  2.0888 -1.7461  0.0787
  907MOL0     H22442   8.474  12.203   9.973  1.8655 -2.0400  0.3759
  907MOL0     H22443   8.281  12.056   9.611  0.4135  0.7353 -0.2848
  907MOL0     H22444   8.536  11.637  10.313  2.5893  3.2015 -1.1783
  907MOL0     H22445   8.619  11.406  10.369 -0.9861  0.1165 -0.8969
  908MOL0     O22446   7.872   4.294   3.751  0.6605 -0.2070  0.8801
  908MOL0     C22447   7.967   4.312   3.832  1.0528 -0.3841  0.2968
  908MOL0     O22448   7.993   4.434   3.887  0.2423  0.0473  0.0620
  908MOL0     C22449   7.947   4.549   3.837 -0.3707 -0.6004 -1.1802
  908MOL0     C22450   7.972   4.589   3.703  0.0086 -0.6254 -0.5769
  908MOL0     C22451   7.941   4.726   3.664 -0.2931 -0.4103 -0.4365
  908MOL0     C22452   7.886   4.810   3.755  0.1329  0.4935  0.0466
  908MOL0     O22453   7.848   4.937   3.722 -0.5990  0.0128 -0.7185
  908MOL0     C22454   7.937   5.012   3.635 -0.5341  0.3830 -0.7328
  908MOL0     C22455   7.883   5.159   3.605  0.5371  0.4729  0.7906
  908MOL0     C22456   7.918   5.265   3.713 -0.2761  0.5486  0.2079
  908MOL0     C22457   7.805   5.380   3.729  0.8188  0.9872 -0.8219
  908MOL0     C22458   7.836   5.508   3.812  0.5572  0.2894  0.1478
  908MOL0     C22459   7.714   5.590   3.878 -0.4749 -0.2327 -0.4568
  908MOL0     C22460   7.614   5.501   3.946  0.3215 -0.3249  0.0083
  908MOL0     C22461   7.554   5.576   4.063  0.1521  0.2476 -0.4097
  908MOL0     N22462   7.448   5.492   4.112  1.1154  0.0911  0.2412
  908MOL0     C22463   7.457   5.360   4.157 -0.4092 -0.3454  0.3548
  908MOL0     C22464   7.336   5.335   4.204  0.3428 -0.4020 -0.3848
  908MOL0     C22465   7.283   5.214   4.272 -0.1390 -0.0318 -0.4967
  908MOL0     C22466   7.329   5.195   4.420 -0.3633  0.5574 -0.1611
  908MOL0     C22467   7.477   5.159   4.443  0.2685 -0.5582  0.3581
  908MOL0     C22468   7.513   5.029   4.378 -0.9354 -0.2997 -1.0275
  908MOL0     O22469   7.655   5.019   4.399  0.4329 -0.3449 -0.1908
  908MOL0     C22470   7.720   4.905   4.381  0.6386  0.2662  0.3118
  908MOL0     C22471   7.837   4.874   4.455  1.2805  0.4486 -0.9289
  908MOL0     C22472   7.899   4.749   4.445 -0.2794  0.0977  0.4503
  908MOL0     C22473   8.013   4.726   4.544 -0.4680 -0.5383 -0.4944
  908MOL0     C22474   7.850   4.664   4.337  0.6276  0.3143  0.3724
  908MOL0     C22475   7.908   4.526   4.316 -1.1003 -0.8391  0.0079
  908MOL0     O22476   8.036   4.510   4.369  0.0777 -0.0625 -0.6735
  908MOL0     C22477   8.109   4.396   4.368  0.1783  0.3663  0.6604
  908MOL0     C22478   8.087   4.283   4.280  1.0994 -0.3327  0.6364
  908MOL0     C22479   8.184   4.181   4.262  0.0825 -0.1246 -0.0358
  908MOL0     C22480   8.305   4.207   4.320 -0.3924 -0.7181 -0.2347
  908MOL0     O22481   8.401   4.112   4.301  0.1683 -0.6699 -0.4571
  908MOL0     C22482   8.521   4.158   4.237 -0.0040  0.4422 -0.2346
  908MOL0     C22483   8.654   4.078   4.278 -0.8778  0.7572  0.3328
  908MOL0     C22484   8.716   4.118   4.410 -0.4873 -0.0397 -0.4202
  908MOL0     C22485   8.768   3.996   4.483 -0.1096  0.0148  0.3027
  908MOL0     C22486   8.843   4.024   4.618 -0.3183 -0.2243  0.1096
  908MOL0     C22487   8.893   3.892   4.679 -0.4936 -0.9698 -0.3495
  908MOL0     C22488   8.946   3.787   4.586  0.3830  0.3998  1.4733
  908MOL0     C22489   9.011   3.671   4.655  0.1659 -0.2678 -0.1272
  908MOL0    Cl22490   9.162   3.747   4.715 -0.5911  0.3856  0.1194
  908MOL0     C22491   8.332   4.314   4.406  0.1513  0.4634 -0.2015
  908MOL0     C22492   8.233   4.407   4.423 -0.6368  0.1470 -1.0786
  908MOL0     O22493   7.839   4.449   4.252  0.6070  0.4833 -0.1411
  908MOL0     C22494   7.727   4.688   4.258  0.2902 -0.7432 -0.5466
  908MOL0     C22495   7.668   4.809   4.291 -0.5766  0.0421 -0.0077
  908MOL0     N22496   7.256   5.444   4.193  0.3605 -0.0830  0.3060
  908MOL0     N22497   7.318   5.542   4.140 -1.1591 -0.3820  0.2707
  908MOL0     C22498   7.865   4.770   3.885  0.1973 -0.9887 -0.4507
  908MOL0     C22499   7.904   4.645   3.928  0.5742 -0.7509  0.1627
  908MOL0     C22500   8.043   4.192   3.864  0.4171 -0.0292  0.8585
  908MOL0     C22501   8.010   4.069   3.815 -0.5980  0.4471 -0.1588
  908MOL0     C22502   8.089   3.956   3.836 -0.3551 -0.5457  1.1795
  908MOL0     C22503   8.211   3.953   3.902 -0.0795  0.2375  0.3498
  908MOL0     O22504   8.292   3.838   3.906 -0.5720  0.5472 -0.6742
  908MOL0     C22505   8.437   3.844   3.897  0.3271  0.3530  0.2284
  908MOL0     C22506   8.507   3.720   3.957  0.4321 -0.7434 -0.4669
  908MOL0     C22507   8.635   3.759   4.033 -0.2853 -0.3432  0.6708
  908MOL0     C22508   8.713   3.637   4.094  0.3671 -0.3590  0.1457
  908MOL0     C22509   8.848   3.687   4.132 -0.5236 -1.3283  0.8345
  908MOL0     C22510   8.959   3.736   4.144  0.2657  0.6383  0.7679
  908MOL0     C22511   8.239   4.080   3.946 -0.2463  0.7179  0.2242
  908MOL0     C22512   8.162   4.199   3.937  1.2689  0.1808 -0.2244
  908MOL0     H22513   8.006   4.522   3.625 -2.9440 -2.8413 -0.1313
  908MOL0     H22514   7.953   4.752   3.559 -2.4487 -0.4015 -0.7192
  908MOL0     H22515   8.034   5.027   3.683 -0.1526 -2.5179 -0.4665
  908MOL0     H22516   7.955   4.963   3.539  0.4627 -3.5480  1.2855
  908MOL0     H22517   7.901   5.200   3.506  0.3231 -1.7073 -0.2218
  908MOL0     H22518   7.777   5.132   3.600 -0.4050  3.8605 -0.3681
  908MOL0     H22519   7.920   5.222   3.814  0.9556 -0.8808 -0.3732
  908MOL0     H22520   8.011   5.318   3.688 -0.9748  0.9841 -1.5743
  908MOL0     H22521   7.769   5.411   3.631 -0.9431 -0.0108 -0.5337
  908MOL0     H22522   7.722   5.326   3.775 -0.1218 -0.2070 -3.7234
  908MOL0     H22523   7.919   5.481   3.878  0.9683  2.1028  0.4106
  908MOL0     H22524   7.879   5.575   3.738 -1.5201 -1.7558 -3.1610
  908MOL0     H22525   7.745   5.666   3.950 -1.5411 -1.5665  1.4995
  908MOL0     H22526   7.665   5.655   3.804  1.7957  2.4670  0.2080
  908MOL0     H22527   7.530   5.485   3.878 -0.5684 -0.6005  1.1400
  908MOL0     H22528   7.653   5.403   3.975 -0.1272 -0.6702 -0.5520
  908MOL0     H22529   7.516   5.672   4.025  0.8765  1.3286  1.4694
  908MOL0     H22530   7.621   5.597   4.147 -0.8110  1.1410  0.1562
  908MOL0     H22531   7.533   5.282   4.156 -0.9168 -0.8831 -1.5098
  908MOL0     H22532   7.174   5.219   4.264 -0.1378 -0.8637 -1.1184
  908MOL0     H22533   7.296   5.124   4.212  1.5805 -0.0445 -0.1567
  908MOL0     H22534   7.279   5.115   4.475  0.9958 -0.1208  0.1418
  908MOL0     H22535   7.308   5.288   4.474 -3.3913 -1.1178  1.8537
  908MOL0     H22536   7.509   5.154   4.547  0.2494 -1.1539  0.3387
  908MOL0     H22537   7.541   5.239   4.403  0.6755  0.0804  2.1993
  908MOL0     H22538   7.521   5.035   4.269  0.7673 -1.6321 -1.0180
  908MOL0     H22539   7.458   4.945   4.420  0.0481 -0.3896  0.1431
  908MOL0     H22540   7.862   4.952   4.526 -2.1877  1.3753 -0.5620
  908MOL0     H22541   8.014   4.803   4.622 -0.8658 -1.9797  0.9911
  908MOL0     H22542   8.010   4.626   4.590 -1.3259  0.2276  1.2059
  908MOL0     H22543   8.108   4.736   4.489 -0.7411  2.0683 -0.5890
  908MOL0     H22544   7.990   4.262   4.237  1.9193 -4.2004  0.2461
  908MOL0     H22545   8.146   4.100   4.200 -0.0524  0.9420 -1.3838
  908MOL0     H22546   8.506   4.135   4.131 -0.9033  2.6225 -0.6220
  908MOL0     H22547   8.537   4.260   4.273  2.2261 -0.4151  1.4987
  908MOL0     H22548   8.635   3.970   4.273  2.0181  0.1552 -4.6331
  908MOL0     H22549   8.726   4.095   4.198 -1.8583  0.9228 -0.5340
  908MOL0     H22550   8.647   4.182   4.466 -0.4979 -0.7014  0.3522
  908MOL0     H22551   8.800   4.181   4.380  1.4731 -2.6541 -0.7607
  908MOL0     H22552   8.688   3.923   4.497  1.7431 -2.5807 -1.6633
  908MOL0     H22553   8.843   3.955   4.415 -0.3941  1.7782 -1.1617
  908MOL0     H22554   8.770   4.065   4.688  0.5171 -0.7138  1.3066
  908MOL0     H22555   8.925   4.095   4.608 -0.0533 -0.8021 -2.7652
  908MOL0     H22556   8.965   3.929   4.752 -0.2641 -2.4381  0.1963
  908MOL0     H22557   8.806   3.848   4.728  0.0373 -0.6379  0.9170
  908MOL0     H22558   9.033   3.832   4.535  1.6651  0.7777  3.8334
  908MOL0     H22559   8.878   3.745   4.513  2.6289 -0.6336 -0.1492
  908MOL0     H22560   9.039   3.582   4.598  1.6191 -1.0220  1.6761
  908MOL0     H22561   8.935   3.633   4.723 -0.8564  1.8885  0.0200
  908MOL0     H22562   8.430   4.325   4.451  0.8696  0.5125 -1.7095
  908MOL0     H22563   8.262   4.485   4.493  2.6895 -1.3978 -0.5418
  908MOL0     H22564   7.683   4.620   4.187 -2.8261  1.1647 -0.6115
  908MOL0     H22565   7.572   4.820   4.242 -0.3861 -1.9584 -0.9575
  908MOL0     H22566   7.803   4.832   3.949 -0.3007 -2.3523  0.4218
  908MOL0     H22567   7.889   4.607   4.029 -1.2154  2.3785  1.2070
  908MOL0     H22568   7.920   4.058   3.755 -0.2406  4.9994 -1.9261
  908MOL0     H22569   8.060   3.865   3.784  0.8243  0.7663 -2.0236
  908MOL0     H22570   8.463   3.858   3.792 -0.5885  1.2220  0.0997
  908MOL0     H22571   8.476   3.935   3.943  1.7502  0.1318 -0.4911
  908MOL0     H22572   8.526   3.666   3.864  1.3649 -0.6233 -0.3611
  908MOL0     H22573   8.433   3.664   4.016 -3.4362  1.2211 -3.0616
  908MOL0     H22574   8.605   3.832   4.108  0.3859 -0.4642  1.0659
  908MOL0     H22575   8.697   3.813   3.961  1.2859 -1.3250  1.2282
  908MOL0     H22576   8.714   3.559   4.018  1.3424  0.9899 -1.2760
  908MOL0     H22577   8.667   3.599   4.186 -0.3644  2.2048  0.9057
  908MOL0     H22578   9.053   3.787   4.158 -1.0523  2.6062  3.1643
  908MOL0     H22579   8.333   4.093   3.999 -0.8176  0.6849  1.2758
  908MOL0     H22580   8.185   4.293   3.986 -0.4314  1.4857 -1.7918
  909MOL0     O22581   6.216   5.267   0.957 -0.4742  0.2374  0.3709
  909MOL0     C22582   6.215   5.329   0.849 -0.0985  0.6729 -0.4503
  909MOL0     O22583   6.179   5.274   0.724  0.1726 -0.8637 -0.0568
  909MOL0     C22584   6.160   5.132   0.716  0.1902 -0.9559  0.1404
  909MOL0     C22585   6.056   5.091   0.639 -0.4691 -0.6900 -0.6555
  909MOL0     C22586   6.047   4.959   0.603  0.2210  0.4552  0.7945
  909MOL0     C22587   6.146   4.859   0.639 -0.8390 -0.6189  0.0967
  909MOL0     O22588   6.146   4.730   0.590 -0.1633  1.0275  1.2508
  909MOL0     C22589   6.039   4.688   0.500  0.5003  0.8235  1.0807
  909MOL0     C22590   6.066   4.550   0.445  0.3285  0.4499  0.0790
  909MOL0     C22591   6.213   4.517   0.431 -0.7424  0.7000  0.0231
  909MOL0     C22592   6.244   4.389   0.346  0.5094 -0.5418 -0.3377
  909MOL0     C22593   6.187   4.258   0.398 -0.3556 -0.3322  0.2584
  909MOL0     C22594   6.222   4.137   0.298  0.0524  0.6116  0.1271
  909MOL0     C22595   6.145   4.136   0.162  0.1188  0.2550  1.2233
  909MOL0     C22596   6.017   4.042   0.175 -0.8039  0.0720  0.5978
  909MOL0     N22597   6.044   3.908   0.232  0.8934  0.2036  0.7337
  909MOL0     C22598   6.133   3.819   0.178  0.4993 -0.4452  0.8113
  909MOL0     C22599   6.145   3.719   0.263  0.0351  0.1885 -0.3346
  909MOL0     C22600   6.250   3.614   0.258  1.6879 -0.4630  0.8601
  909MOL0     C22601   6.364   3.646   0.352 -0.0986 -0.3731  0.4078
  909MOL0     C22602   6.442   3.781   0.317  0.2452  0.0436  0.6878
  909MOL0     C22603   6.529   3.779   0.188  0.7290  0.9291  0.3625
  909MOL0     O22604   6.635   3.870   0.193  0.1028  0.0325  0.4169
  909MOL0     C22605   6.623   4.002   0.157  0.1966  0.0065 -1.1573
  909MOL0     C22606   6.737   4.077   0.159  0.2376 -0.2753 -0.4884
  909MOL0     C22607   6.726   4.210   0.109  0.5041 -0.3592 -0.4181
  909MOL0     C22608   6.845   4.289   0.124 -0.2386  0.7910 -0.1885
  909MOL0     C22609   6.610   4.260   0.043 -0.1463 -0.3068  0.2595
  909MOL0     C22610   6.599   4.386  -0.028 -0.8981  0.6003 -0.2241
  909MOL0     O22611   6.554   4.484   0.047  0.3079 -1.1257 -0.0699
  909MOL0     C22612   6.598   4.607   0.016 -0.8502 -0.1125 -0.3252
  909MOL0     C22613   6.551   4.668  -0.099  0.1566 -0.1674 -0.2997
  909MOL0     C22614   6.594   4.804  -0.131 -0.2637  0.0561 -0.0648
  909MOL0     C22615   6.687   4.877  -0.056 -0.7314 -0.6170 -0.1559
  909MOL0     O22616   6.710   5.012  -0.049  0.5165  0.5039 -0.2689
  909MOL0     C22617   6.589   5.099  -0.064  0.0030  0.3140  0.9400
  909MOL0     C22618   6.606   5.237  -0.017 -0.6995  0.4297 -0.7524
  909MOL0     C22619   6.519   5.346  -0.074 -0.1774  0.0554  0.4868
  909MOL0     C22620   6.371   5.310  -0.085  0.8928  0.5844 -0.8102
  909MOL0     C22621   6.268   5.414  -0.149  0.6505 -0.8706  0.0217
  909MOL0     C22622   6.123   5.375  -0.134 -0.0767 -0.0447 -0.2090
  909MOL0     C22623   6.038   5.463  -0.225 -0.4215 -0.3220  0.3772
  909MOL0     C22624   5.892   5.431  -0.235 -0.0587 -0.4655 -0.0265
  909MOL0    Cl22625   5.881   5.268  -0.303  0.0244  0.2330 -0.0758
  909MOL0     C22626   6.737   4.802   0.055 -0.5627  0.9502  0.1678
  909MOL0     C22627   6.695   4.669   0.095  1.0137 -0.2574 -0.0893
  909MOL0     O22628   6.618   4.392  -0.149 -0.0897  0.9264 -0.5837
  909MOL0     C22629   6.502   4.173   0.027 -0.8401  0.0260 -0.9056
  909MOL0     C22630   6.508   4.052   0.095  0.4645  0.5601 -0.1835
  909MOL0     N22631   6.063   3.740   0.372 -0.9125  0.6257 -0.2001
  909MOL0     N22632   6.001   3.849   0.351  0.3845 -0.0583 -0.5598
  909MOL0     C22633   6.249   4.911   0.733 -0.4539 -0.6555 -0.6041
  909MOL0     C22634   6.259   5.047   0.776 -0.9356 -0.0657  0.2219
  909MOL0     C22635   6.233   5.463   0.844 -0.4317 -0.2299  0.4073
  909MOL0     C22636   6.191   5.558   0.940 -0.5568  0.4913  0.0784
  909MOL0     C22637   6.199   5.693   0.908  0.1990 -0.6557  0.7794
  909MOL0     C22638   6.249   5.744   0.790  0.7275  0.5172 -0.4165
  909MOL0     O22639   6.240   5.877   0.751 -0.2069  0.6458 -0.0832
  909MOL0     C22640   6.117   5.915   0.686 -1.0483 -0.5528 -1.3878
  909MOL0     C22641   5.994   5.919   0.794 -0.3342  0.4217  0.4608
  909MOL0     C22642   6.018   6.010   0.913  0.2403  0.6114  0.0429
  909MOL0     C22643   5.885   6.036   0.976 -0.0551 -0.2030  0.9175
  909MOL0     C22644   5.829   6.163   0.937  0.4550  0.1400  0.9485
  909MOL0     C22645   5.773   6.254   0.876 -0.0687  0.3157  0.3105
  909MOL0     C22646   6.307   5.653   0.708  0.8752  0.3613  0.2950
  909MOL0     C22647   6.304   5.516   0.735 -0.5449 -0.4341  0.0110
  909MOL0     H22648   5.987   5.166   0.601 -1.7530 -1.5175 -0.0206
  909MOL0     H22649   5.971   4.932   0.531  2.3303  0.1519 -1.4514
  909MOL0     H22650   5.946   4.684   0.558 -2.1274  1.1939 -2.7241
  909MOL0     H22651   6.025   4.764   0.422  0.4013  2.6461  2.7706
  909MOL0     H22652   6.017   4.479   0.513  1.3594 -2.4539 -2.0187
  909MOL0     H22653   6.007   4.529   0.355 -0.7722  0.9982  0.6406
  909MOL0     H22654   6.259   4.599   0.375  1.5882 -0.3142  0.3274
  909MOL0     H22655   6.260   4.509   0.530  1.9334  0.2238 -1.1774
  909MOL0     H22656   6.205   4.405   0.245  1.0337  2.1979 -0.1710
  909MOL0     H22657   6.351   4.371   0.333  0.2760 -2.8076  0.4626
  909MOL0     H22658   6.231   4.249   0.497 -0.5545  6.0078  1.3400
  909MOL0     H22659   6.080   4.269   0.417  0.1789  1.7726  2.6086
  909MOL0     H22660   6.327   4.153   0.272  0.1603 -1.3649 -0.8263
  909MOL0     H22661   6.231   4.037   0.342  3.1650  0.3591 -0.8610
  909MOL0     H22662   6.110   4.234   0.127 -2.7408 -1.8393 -2.5424
  909MOL0     H22663   6.205   4.097   0.079 -1.8908  1.2386 -0.7856
  909MOL0     H22664   5.975   4.028   0.075 -0.4791 -4.0979  0.8720
  909MOL0     H22665   5.938   4.092   0.232 -3.0822  0.1899 -2.4079
  909MOL0     H22666   6.186   3.842   0.086 -0.3609 -1.9129 -0.0912
  909MOL0     H22667   6.203   3.517   0.277 -1.0123  0.4042 -0.7932
  909MOL0     H22668   6.292   3.602   0.158 -1.1243  4.1294 -1.1966
  909MOL0     H22669   6.429   3.560   0.335 -2.1694 -1.7035 -1.3212
  909MOL0     H22670   6.333   3.656   0.457  0.8567 -0.9009  0.7484
  909MOL0     H22671   6.509   3.799   0.401  1.7864  1.5945 -0.8051
  909MOL0     H22672   6.383   3.873   0.309  4.3956  2.8870 -0.2495
  909MOL0     H22673   6.462   3.786   0.101  0.2081  1.5326  0.8064
  909MOL0     H22674   6.584   3.686   0.178  3.8528  2.5528  1.1538
  909MOL0     H22675   6.832   4.048   0.203  1.1533 -0.7874 -2.6290
  909MOL0     H22676   6.887   4.303   0.024  0.6869  0.9407  0.2094
  909MOL0     H22677   6.830   4.389   0.167 -2.2413  1.1875 -1.6432
  909MOL0     H22678   6.924   4.240   0.182  0.3148 -0.3869 -1.8696
  909MOL0     H22679   6.474   4.621  -0.159 -1.2226  1.7010 -0.0803
  909MOL0     H22680   6.564   4.850  -0.225  0.2685 -1.6629 -1.1303
  909MOL0     H22681   6.558   5.112  -0.168  0.1724 -0.8946  0.7209
  909MOL0     H22682   6.511   5.044  -0.010  1.2957 -0.3708  2.2141
  909MOL0     H22683   6.601   5.232   0.092  0.6177 -2.3274 -0.7338
  909MOL0     H22684   6.705   5.272  -0.047 -0.3624 -1.1196 -1.5553
  909MOL0     H22685   6.560   5.373  -0.172 -0.4495 -1.6231 -0.1246
  909MOL0     H22686   6.536   5.423   0.002  1.0324  0.8555 -0.5525
  909MOL0     H22687   6.364   5.222  -0.150 -1.2233 -0.5087  0.8067
  909MOL0     H22688   6.336   5.280   0.014  0.7983 -1.9937 -1.5589
  909MOL0     H22689   6.294   5.429  -0.254 -0.8536  1.9806 -0.0251
  909MOL0     H22690   6.291   5.511  -0.104 -1.7541 -0.5995  0.7656
  909MOL0     H22691   6.109   5.270  -0.160  1.1488  0.1704 -1.9252
  909MOL0     H22692   6.079   5.390  -0.035  2.5188 -0.5692  1.1196
  909MOL0     H22693   6.071   5.450  -0.328 -3.1617  2.4798 -0.9898
  909MOL0     H22694   6.062   5.566  -0.196  1.6594 -0.4447 -0.6718
  909MOL0     H22695   5.843   5.513  -0.289  1.7593 -0.3513 -1.5926
  909MOL0     H22696   5.864   5.436  -0.129  0.9972 -1.8436  0.3454
  909MOL0     H22697   6.801   4.867   0.114 -1.1458  0.0299  1.9025
  909MOL0     H22698   6.721   4.627   0.191 -0.8938  2.1043  1.5833
  909MOL0     H22699   6.414   4.225  -0.008 -1.6992 -0.4880  0.4071
  909MOL0     H22700   6.414   3.997   0.091  0.8681 -0.1490 -0.1036
  909MOL0     H22701   6.334   4.849   0.758 -1.9593 -2.0189  1.5408
  909MOL0     H22702   6.345   5.081   0.833  0.2761  1.7563 -2.4847
  909MOL0     H22703   6.138   5.511   1.021 -1.7608 -4.3376 -3.0754
  909MOL0     H22704   6.161   5.758   0.987 -0.3580 -2.4808  2.0782
  909MOL0     H22705   6.136   6.014   0.643 -0.6295 -0.1883 -0.4042
  909MOL0     H22706   6.088   5.845   0.608  3.1241 -2.1367 -1.7836
  909MOL0     H22707   5.985   5.816   0.830  0.3673  0.1714 -0.0504
  909MOL0     H22708   5.901   5.951   0.747 -0.3883  1.5219  1.2787
  909MOL0     H22709   6.048   6.106   0.870 -5.1953  2.0959 -1.0970
  909MOL0     H22710   6.093   5.972   0.983 -0.3519 -0.9225 -0.1148
  909MOL0     H22711   5.886   6.029   1.085 -0.5638 -0.6910  0.8947
  909MOL0     H22712   5.811   5.966   0.936  1.0034 -2.0866  2.0692
  909MOL0     H22713   5.716   6.320   0.813 -0.4104 -0.9024 -0.7008
  909MOL0     H22714   6.358   5.676   0.615  1.8733  0.5064  0.8608
  909MOL0     H22715   6.341   5.456   0.653  0.8739  0.5829 -0.1433
  910MOL0     O22716   7.595   1.271   8.104  0.1963 -0.0836 -0.1608
  910MOL0     C22717   7.700   1.288   8.041 -0.9634 -0.0026  0.3018
  910MOL0     O22718   7.705   1.334   7.913 -0.5445  0.2241  0.5199
  910MOL0     C22719   7.592   1.372   7.846  0.3234 -0.5556 -0.6725
  910MOL0     C22720   7.541   1.297   7.742  0.3159  0.8830 -0.5516
  910MOL0     C22721   7.426   1.331   7.679 -0.3299 -0.9841 -0.1820
  910MOL0     C22722   7.357   1.450   7.714  0.0883  0.1733  0.0691
  910MOL0     O22723   7.234   1.483   7.664  0.0405  0.6256 -0.3286
  910MOL0     C22724   7.198   1.459   7.531  0.0353  0.1132  0.3609
  910MOL0     C22725   7.072   1.549   7.499  0.1744 -0.8291 -0.5050
  910MOL0     C22726   7.052   1.557   7.347 -0.2865  0.1495  0.8530
  910MOL0     C22727   6.980   1.428   7.309 -0.9611 -0.2719  0.0183
  910MOL0     C22728   6.923   1.415   7.163 -1.2259  0.3498  1.3518
  910MOL0     C22729   7.033   1.378   7.057  0.2917  0.5254 -0.1290
  910MOL0     C22730   7.123   1.491   7.006  0.4982 -0.4542 -0.2377
  910MOL0     C22731   7.062   1.596   6.920 -0.2057 -0.2039  0.0929
  910MOL0     N22732   7.017   1.553   6.783 -0.7481  0.5772  0.9954
  910MOL0     C22733   7.015   1.425   6.722 -0.1327 -0.1525  0.2375
  910MOL0     C22734   6.966   1.459   6.599  0.0419 -1.8415  0.3787
  910MOL0     C22735   6.976   1.354   6.494 -0.3579 -0.9527  0.4821
  910MOL0     C22736   6.872   1.244   6.524 -0.2681  0.5917 -0.4198
  910MOL0     C22737   6.741   1.302   6.509 -0.6141 -0.5733  0.0105
  910MOL0     C22738   6.634   1.195   6.532 -0.4400 -0.0158 -0.6333
  910MOL0     O22739   6.643   1.113   6.647 -0.4026  0.3446 -0.3232
  910MOL0     C22740   6.604   1.165   6.769 -0.8925  0.5344 -1.1531
  910MOL0     C22741   6.581   1.296   6.805  0.1194 -0.1677  0.2186
  910MOL0     C22742   6.562   1.339   6.932  1.1288 -0.1124  0.0238
  910MOL0     C22743   6.552   1.496   6.952  0.5120  0.7434  0.3393
  910MOL0     C22744   6.573   1.245   7.037 -0.1191  0.1721 -0.3796
  910MOL0     C22745   6.550   1.277   7.180  0.3548  1.2379  0.5750
  910MOL0     O22746   6.580   1.178   7.272  0.0270 -0.3635 -0.0279
  910MOL0     C22747   6.464   1.155   7.347  0.7737  0.1346  0.4944
  910MOL0     C22748   6.475   1.175   7.481  1.0220 -1.1452 -0.0666
  910MOL0     C22749   6.379   1.146   7.564  1.5857 -0.5761  0.2648
  910MOL0     C22750   6.263   1.094   7.508  0.6841 -0.0719 -0.9159
  910MOL0     O22751   6.157   1.061   7.590  0.0785 -0.3449 -0.4399
  910MOL0     C22752   6.188   0.963   7.695  0.1411  0.2110  1.0053
  910MOL0     C22753   6.216   0.817   7.660 -0.3593  0.0562  0.5657
  910MOL0     C22754   6.335   0.794   7.565  0.1885 -0.0623  0.0893
  910MOL0     C22755   6.371   0.651   7.566 -0.8422 -0.3788 -0.4824
  910MOL0     C22756   6.445   0.589   7.449 -0.0453 -0.3902  0.0534
  910MOL0     C22757   6.590   0.639   7.435  0.1928 -0.4544  1.2030
  910MOL0     C22758   6.674   0.562   7.540  0.2650  0.6727 -0.1514
  910MOL0     C22759   6.828   0.543   7.515  0.3806 -0.4164  0.8804
  910MOL0    Cl22760   6.826   0.436   7.375  0.2273  0.2672 -0.2164
  910MOL0     C22761   6.245   1.073   7.374 -0.3189  0.2236  0.8562
  910MOL0     C22762   6.348   1.105   7.283  0.0386 -0.1657  0.9630
  910MOL0     O22763   6.493   1.384   7.208 -0.8095  0.0702  0.5215
  910MOL0     C22764   6.590   1.111   7.001 -0.4568 -0.1214 -0.0775
  910MOL0     C22765   6.622   1.073   6.872  0.1744 -0.1496 -0.7387
  910MOL0     N22766   6.925   1.587   6.588 -0.0920 -0.0458 -0.0111
  910MOL0     N22767   6.967   1.645   6.694  0.9425  0.5122 -0.1583
  910MOL0     C22768   7.405   1.518   7.828  0.0083  0.7726  0.3731
  910MOL0     C22769   7.516   1.485   7.889  0.0180 -0.0203  0.7878
  910MOL0     C22770   7.822   1.242   8.110 -1.1733 -0.2270 -0.8978
  910MOL0     C22771   7.824   1.209   8.245 -0.2427 -0.2765 -0.3484
  910MOL0     C22772   7.950   1.186   8.314  0.7009 -0.2392  0.3975
  910MOL0     C22773   8.075   1.182   8.242  0.1302  0.7445 -0.8718
  910MOL0     O22774   8.200   1.148   8.281 -0.2395  0.4234 -0.6976
  910MOL0     C22775   8.212   1.072   8.404  0.1878 -0.8291  0.0723
  910MOL0     C22776   8.178   1.166   8.521 -0.2920 -0.3067 -0.5044
  910MOL0     C22777   8.304   1.179   8.615 -0.3201  0.1820 -0.0160
  910MOL0     C22778   8.429   1.237   8.550  0.0888 -0.9869  0.4850
  910MOL0     C22779   8.543   1.273   8.633 -0.2557  0.1738  0.4472
  910MOL0     C22780   8.635   1.292   8.707  0.8942 -0.3777 -0.4147
  910MOL0     C22781   8.068   1.217   8.108 -0.4752  0.0991 -0.5811
  910MOL0     C22782   7.948   1.244   8.041  1.3930 -0.7381  0.6693
  910MOL0     H22783   7.584   1.203   7.711 -2.3557 -0.5234 -0.3253
  910MOL0     H22784   7.396   1.263   7.600  1.4347  0.1343 -1.8985
  910MOL0     H22785   7.276   1.499   7.466 -1.7078  1.2890 -1.1403
  910MOL0     H22786   7.188   1.352   7.508  3.3075 -0.6328  1.9070
  910MOL0     H22787   6.985   1.517   7.556  1.8679 -0.4824  2.5084
  910MOL0     H22788   7.088   1.654   7.526  1.1450 -1.1121  0.0810
  910MOL0     H22789   6.981   1.633   7.315  0.6399 -0.0247 -1.9106
  910MOL0     H22790   7.141   1.579   7.287  1.5293  1.0356  3.6820
  910MOL0     H22791   7.053   1.349   7.330 -0.0298  1.6860  6.2565
  910MOL0     H22792   6.892   1.405   7.370 -1.3446 -1.2923 -0.8889
  910MOL0     H22793   6.855   1.329   7.158  0.7436 -1.2121  0.0018
  910MOL0     H22794   6.875   1.504   7.122  0.0862  1.0614  1.3366
  910MOL0     H22795   7.100   1.305   7.103 -1.8875 -1.7149 -0.3248
  910MOL0     H22796   6.987   1.325   6.974  0.0482  1.2992 -0.4965
  910MOL0     H22797   7.174   1.547   7.084 -0.6604 -0.9337  0.9037
  910MOL0     H22798   7.208   1.439   6.961  3.2568  3.5546 -0.1586
  910MOL0     H22799   7.134   1.679   6.916  3.6616 -3.3062 -1.5850
  910MOL0     H22800   6.972   1.624   6.976 -0.8595 -2.5380  0.2847
  910MOL0     H22801   7.048   1.329   6.761 -0.8131 -0.0897  0.9700
  910MOL0     H22802   6.988   1.393   6.393  3.1934 -4.2155 -0.6195
  910MOL0     H22803   7.070   1.301   6.511 -0.5550 -1.6977 -0.6222
  910MOL0     H22804   6.887   1.208   6.626 -0.8375  0.1357 -0.4872
  910MOL0     H22805   6.896   1.156   6.463 -0.1647  1.2112 -1.2967
  910MOL0     H22806   6.725   1.316   6.402  0.1588  0.3598 -0.0034
  910MOL0     H22807   6.720   1.393   6.566 -3.4205 -2.3117  1.9957
  910MOL0     H22808   6.627   1.132   6.444 -2.3556 -0.7589  0.0027
  910MOL0     H22809   6.541   1.253   6.528  0.6160  1.6896 -2.2999
  910MOL0     H22810   6.584   1.367   6.723  1.8851 -1.4116 -0.8944
  910MOL0     H22811   6.556   1.556   6.860  1.5019  0.2583  0.0506
  910MOL0     H22812   6.454   1.509   6.997  0.0380  1.6015 -0.8788
  910MOL0     H22813   6.639   1.537   7.005  1.9805  0.1016 -1.4236
  910MOL0     H22814   6.562   1.222   7.526  0.1353 -1.7746  2.4676
  910MOL0     H22815   6.395   1.175   7.668  0.2500  1.1624  0.0369
  910MOL0     H22816   6.268   0.998   7.761  2.4593 -1.6768 -0.6393
  910MOL0     H22817   6.098   0.955   7.757  0.3112 -1.5161  1.0885
  910MOL0     H22818   6.234   0.753   7.747  2.4622 -4.1579 -2.7039
  910MOL0     H22819   6.124   0.776   7.618 -0.9344  0.6376  1.2330
  910MOL0     H22820   6.420   0.861   7.578  0.3010 -0.0891 -0.4806
  910MOL0     H22821   6.307   0.824   7.463  3.8278  5.0266  0.2148
  910MOL0     H22822   6.430   0.626   7.655 -0.6554 -0.6451 -0.6813
  910MOL0     H22823   6.275   0.598   7.573 -0.9064 -0.4234 -1.5692
  910MOL0     H22824   6.389   0.619   7.359 -0.5969 -0.0342  0.5062
  910MOL0     H22825   6.433   0.482   7.464 -1.3485 -0.1759  0.7358
  910MOL0     H22826   6.627   0.618   7.334 -0.0351  2.3762  0.4382
  910MOL0     H22827   6.600   0.746   7.452  2.9574 -0.6092  1.0255
  910MOL0     H22828   6.639   0.459   7.538 -0.6005  0.8366  2.5495
  910MOL0     H22829   6.653   0.598   7.641 -0.2678 -2.5565  1.0061
  910MOL0     H22830   6.884   0.507   7.602 -0.5989  1.4100  2.3466
  910MOL0     H22831   6.856   0.646   7.490 -0.3508 -0.2655  0.6620
  910MOL0     H22832   6.162   1.005   7.355  0.3427 -0.9717  2.0883
  910MOL0     H22833   6.341   1.103   7.175  3.6703 -1.1878  0.6088
  910MOL0     H22834   6.614   1.037   7.076  3.3437  1.0918  0.1350
  910MOL0     H22835   6.665   0.974   6.856 -1.5647 -1.1116  0.3170
  910MOL0     H22836   7.352   1.608   7.858  1.0076  1.0025  1.5752
  910MOL0     H22837   7.567   1.546   7.963 -1.2219  2.0932 -0.0107
  910MOL0     H22838   7.732   1.229   8.299 -0.7795  2.8120 -2.1267
  910MOL0     H22839   7.945   1.161   8.420  0.7191  0.3729  0.5484
  910MOL0     H22840   8.134   0.996   8.405 -2.1445  1.3550 -1.5266
  910MOL0     H22841   8.312   1.029   8.407  0.1866 -0.7696  1.7660
  910MOL0     H22842   8.103   1.118   8.584 -1.3917  0.9194 -0.8558
  910MOL0     H22843   8.143   1.267   8.499  0.9639  0.7756  2.0416
  910MOL0     H22844   8.326   1.081   8.659 -1.8382 -0.9589 -1.6748
  910MOL0     H22845   8.276   1.246   8.697 -1.1622  0.9191 -0.8848
  910MOL0     H22846   8.393   1.335   8.518  2.5410  0.8989  2.9593
  910MOL0     H22847   8.453   1.168   8.469 -5.0330 -0.4636 -1.8702
  910MOL0     H22848   8.716   1.305   8.776  0.4862  2.0505 -0.2862
  910MOL0     H22849   8.161   1.231   8.052 -0.8995  0.9518 -1.0883
  910MOL0     H22850   7.936   1.274   7.937 -1.2662  1.1824  1.4234
  911MOL0     O22851   8.978   8.663   1.442 -1.0580  0.3573 -0.4077
  911MOL0     C22852   8.971   8.645   1.315 -0.1162 -0.8127 -0.2893
  911MOL0     O22853   9.031   8.715   1.217  0.0619 -0.0124 -0.4449
  911MOL0     C22854   9.081   8.844   1.244 -1.3390 -0.7091  0.4892
  911MOL0     C22855   9.007   8.937   1.318  0.2569 -0.5586  0.5117
  911MOL0     C22856   9.044   9.073   1.333 -1.0346  0.3480  0.3471
  911MOL0     C22857   9.156   9.124   1.261  0.7700  0.0691 -0.2192
  911MOL0     O22858   9.198   9.258   1.286  0.3547 -0.0150 -0.0698
  911MOL0     C22859   9.332   9.289   1.247 -0.4562  0.0304 -0.7956
  911MOL0     C22860   9.385   9.430   1.269 -0.2153 -0.0221  0.4550
  911MOL0     C22861   9.532   9.458   1.299 -0.3446  0.4144  1.3451
  911MOL0     C22862   9.608   9.474   1.171 -0.6930  0.6814  0.1700
  911MOL0     C22863   9.748   9.519   1.191 -0.8219  0.4728 -0.0346
  911MOL0     C22864   9.819   9.527   1.048 -0.5351 -0.9981 -1.2314
  911MOL0     C22865   9.959   9.590   1.059  0.5008  0.0391 -0.4878
  911MOL0     C22866  10.032   9.611   0.917 -0.1034 -0.0610  0.1631
  911MOL0     N22867  10.016   9.483   0.836 -0.4165  0.1662  0.2659
  911MOL0     C22868  10.096   9.364   0.857  0.8418  1.3287  0.8377
  911MOL0     C22869  10.037   9.270   0.782 -0.0179 -0.5023 -0.4720
  911MOL0     C22870  10.064   9.129   0.771 -0.3083 -0.8924 -0.1833
  911MOL0     C22871   9.930   9.055   0.824  0.2320 -0.8831 -1.1249
  911MOL0     C22872   9.949   8.907   0.839 -0.6249 -0.2444  0.1227
  911MOL0     C22873   9.953   8.830   0.706 -0.2308  0.5553 -0.2425
  911MOL0     O22874   9.980   8.698   0.741 -0.5832 -0.3015 -0.4193
  911MOL0     C22875  10.091   8.629   0.693 -0.1337 -0.3656  0.7292
  911MOL0     C22876  10.064   8.498   0.663 -0.7750 -0.3431  0.0523
  911MOL0     C22877  10.162   8.420   0.607 -0.0299 -0.2436 -0.2209
  911MOL0     C22878  10.105   8.283   0.577 -0.7014 -0.0467  0.8968
  911MOL0     C22879  10.286   8.467   0.554 -0.7940 -0.3421  0.4720
  911MOL0     C22880  10.383   8.394   0.466 -0.0344  0.3399  0.5497
  911MOL0     O22881  10.358   8.257   0.432 -0.1474 -0.5287 -0.7901
  911MOL0     C22882  10.469   8.199   0.362  0.8608 -0.5266 -0.3758
  911MOL0     C22883  10.480   8.213   0.223 -0.6180 -0.5175 -0.0989
  911MOL0     C22884  10.598   8.163   0.160  0.0670 -0.4194  0.3943
  911MOL0     C22885  10.702   8.099   0.234  0.7109 -0.2918  0.8804
  911MOL0     O22886  10.799   8.038   0.163 -0.3667 -0.4113 -1.0092
  911MOL0     C22887  10.809   8.024   0.027 -0.0042  0.0123  0.3865
  911MOL0     C22888  10.915   7.922  -0.004  0.1379  0.7782  0.5243
  911MOL0     C22889  11.061   7.971   0.031 -0.0979  1.0175  0.6589
  911MOL0     C22890  11.163   7.867  -0.003 -0.5709 -0.1831 -0.7359
  911MOL0     C22891  11.305   7.906   0.050  0.9599  0.5803  0.2391
  911MOL0     C22892  11.403   7.790   0.039  0.8973 -1.1107 -0.9439
  911MOL0     C22893  11.426   7.759  -0.107  0.6411  0.5638 -0.1192
  911MOL0     C22894  11.554   7.690  -0.131  1.0282 -1.1916 -0.2022
  911MOL0    Cl22895  11.548   7.511  -0.099  0.4909  0.2427 -0.0181
  911MOL0     C22896  10.677   8.077   0.369 -0.0852  0.0956 -1.1771
  911MOL0     C22897  10.563   8.124   0.433  1.0855  0.3103 -0.2472
  911MOL0     O22898  10.461   8.471   0.406 -0.7174 -0.6021  0.5459
  911MOL0     C22899  10.319   8.595   0.596 -0.3828  0.0641 -0.6498
  911MOL0     C22900  10.217   8.674   0.662 -0.5056  0.6012  0.4956
  911MOL0     N22901   9.950   9.336   0.698  0.2495  0.0887 -0.0362
  911MOL0     N22902   9.943   9.459   0.728  0.1916  0.1607 -0.1013
  911MOL0     C22903   9.228   9.030   1.185 -0.5177  0.1183 -1.6818
  911MOL0     C22904   9.191   8.895   1.177 -0.9310 -0.2260 -0.0117
  911MOL0     C22905   8.894   8.532   1.270  0.0757 -0.3150 -0.2791
  911MOL0     C22906   8.943   8.469   1.151  0.5788  0.4541 -0.1128
  911MOL0     C22907   8.882   8.350   1.107  0.4286  0.2338 -0.0370
  911MOL0     C22908   8.790   8.295   1.186  1.1440  1.7208  0.5114
  911MOL0     O22909   8.740   8.173   1.139 -0.4593 -0.3922 -0.3236
  911MOL0     C22910   8.633   8.109   1.212  0.3152  0.4548  0.9181
  911MOL0     C22911   8.616   7.973   1.146 -0.1703 -1.2389 -0.1391
  911MOL0     C22912   8.574   7.984   0.996 -0.2239 -0.6019  0.9478
  911MOL0     C22913   8.439   8.055   0.972 -0.2720  0.0312 -0.7062
  911MOL0     C22914   8.416   8.022   0.827 -0.1018  0.2758 -0.1663
  911MOL0     C22915   8.374   7.995   0.713  0.0918 -0.8811  0.2810
  911MOL0     C22916   8.743   8.344   1.304 -0.7962 -0.9670  0.0738
  911MOL0     C22917   8.788   8.472   1.339  1.1320 -0.1736  0.2111
  911MOL0     H22918   8.914   8.906   1.367 -0.1259  0.3182  0.3580
  911MOL0     H22919   8.994   9.140   1.402 -0.4686  1.3803 -0.2186
  911MOL0     H22920   9.382   9.214   1.308 -0.8393  0.2752 -0.1764
  911MOL0     H22921   9.336   9.272   1.139 -1.8158  0.8757 -1.0056
  911MOL0     H22922   9.351   9.497   1.189 -0.4758  0.0860  0.6567
  911MOL0     H22923   9.325   9.466   1.353 -1.1439 -3.8219  1.6419
  911MOL0     H22924   9.530   9.556   1.348  4.3817  1.1289  0.5160
  911MOL0     H22925   9.571   9.400   1.382 -2.4135 -1.1496  1.3144
  911MOL0     H22926   9.614   9.372   1.131  0.8282  0.7737  0.1350
  911MOL0     H22927   9.555   9.552   1.116  0.5341  1.3391 -0.1038
  911MOL0     H22928   9.743   9.617   1.240 -0.7654  1.8358 -2.5448
  911MOL0     H22929   9.806   9.453   1.255  0.0767  1.6424  0.3957
  911MOL0     H22930   9.815   9.426   1.006 -1.0837 -0.5693 -2.2656
  911MOL0     H22931   9.756   9.596   0.989 -2.8590 -1.4706  0.5602
  911MOL0     H22932   9.939   9.688   1.103 -0.7167 -0.1390 -0.6060
  911MOL0     H22933  10.024   9.533   1.125  0.4547 -1.4256 -1.6591
  911MOL0     H22934  10.139   9.624   0.937 -0.2667  0.4699  0.7176
  911MOL0     H22935   9.998   9.697   0.860  1.0874 -0.7222 -1.6392
  911MOL0     H22936  10.179   9.351   0.926 -2.0851 -0.3422  4.3658
  911MOL0     H22937  10.102   9.115   0.669  4.3761 -0.9505  1.3512
  911MOL0     H22938  10.144   9.101   0.840  3.1711 -0.2539 -3.6512
  911MOL0     H22939   9.847   9.084   0.760  1.6733  1.7344 -1.9363
  911MOL0     H22940   9.888   9.088   0.920 -0.5093  1.4596 -2.1909
  911MOL0     H22941   9.862   8.873   0.896 -0.2132 -1.2200  0.1839
  911MOL0     H22942  10.037   8.886   0.900 -0.0701  2.3009  0.3212
  911MOL0     H22943  10.029   8.877   0.642 -0.9769 -2.0837 -3.3657
  911MOL0     H22944   9.862   8.850   0.649 -1.2854  1.7177  1.7627
  911MOL0     H22945   9.962   8.460   0.668 -1.1484 -0.1648 -3.6620
  911MOL0     H22946  10.012   8.251   0.625  0.2787  0.8008  3.5936
  911MOL0     H22947  10.085   8.293   0.470  0.3493  2.2598  0.8445
  911MOL0     H22948  10.187   8.214   0.596 -2.0527 -2.3000 -0.9215
  911MOL0     H22949  10.401   8.258   0.163  0.1772  1.1462  0.0688
  911MOL0     H22950  10.601   8.190   0.055  2.0611  0.9910  0.7653
  911MOL0     H22951  10.718   7.977  -0.013  0.9179 -0.7372 -0.9261
  911MOL0     H22952  10.836   8.108  -0.038  1.6221 -1.2815 -0.6969
  911MOL0     H22953  10.894   7.824   0.039 -0.5988  0.0883 -1.2965
  911MOL0     H22954  10.909   7.895  -0.110 -1.6836  0.3310  0.7093
  911MOL0     H22955  11.071   7.988   0.138  0.2697  1.1634  0.6055
  911MOL0     H22956  11.087   8.059  -0.028  1.2779  0.0876 -0.2003
  911MOL0     H22957  11.146   7.771   0.046 -2.9136  2.2891  4.0092
  911MOL0     H22958  11.161   7.853  -0.111  2.0356 -1.1453 -0.7214
  911MOL0     H22959  11.302   7.940   0.154  4.0344  1.1962  0.2456
  911MOL0     H22960  11.339   7.997   0.000 -1.4955  0.4752 -1.8626
  911MOL0     H22961  11.497   7.826   0.082  0.5986  1.3753 -2.1815
  911MOL0     H22962  11.357   7.713   0.102 -0.4903  0.4925  0.1127
  911MOL0     H22963  11.422   7.850  -0.167  0.3232  0.8546  0.3326
  911MOL0     H22964  11.345   7.694  -0.139  2.4848 -2.6098  1.1310
  911MOL0     H22965  11.634   7.736  -0.072 -1.0064  2.0993  0.2431
  911MOL0     H22966  11.576   7.697  -0.238  0.8442  1.3000 -0.1252
  911MOL0     H22967  10.761   8.029   0.417 -1.0765  0.7743  1.3920
  911MOL0     H22968  10.558   8.096   0.538  0.3572 -0.6010 -0.5142
  911MOL0     H22969  10.413   8.639   0.562 -0.4149  0.1776 -0.5917
  911MOL0     H22970  10.244   8.776   0.687  1.4790  0.4406 -0.7827
  911MOL0     H22971   9.313   9.076   1.137  0.2759  1.2917  0.6868
  911MOL0     H22972   9.252   8.831   1.113  2.8350  2.6341  0.3462
  911MOL0     H22973   9.022   8.506   1.086 -1.9294 -0.1382 -3.7992
  911MOL0     H22974   8.907   8.301   1.013 -0.9185  1.6106 -1.1805
  911MOL0     H22975   8.658   8.094   1.317  3.2936 -2.8212 -0.0776
  911MOL0     H22976   8.538   8.164   1.204  0.5427  1.8272  5.2614
  911MOL0     H22977   8.544   7.916   1.206 -0.8998 -0.9658 -0.7387
  911MOL0     H22978   8.710   7.918   1.157  0.7576  0.3515  0.2711
  911MOL0     H22979   8.575   7.882   0.956  0.3244 -0.1266 -0.2926
  911MOL0     H22980   8.656   8.033   0.944  0.4217 -1.1077  1.4605
  911MOL0     H22981   8.453   8.163   0.988 -0.9857 -0.0949  1.0278
  911MOL0     H22982   8.364   8.002   1.031 -2.2190 -0.0325 -3.0749
  911MOL0     H22983   8.321   7.984   0.620 -0.9277 -2.2022  0.9886
  911MOL0     H22984   8.674   8.301   1.376  0.0290 -0.2839  1.3062
  911MOL0     H22985   8.741   8.521   1.424 -1.7926 -0.7438 -0.9646
  912MOL0     O22986  10.533   3.189   4.642  0.5437 -0.2801 -0.9691
  912MOL0     C22987  10.477   3.296   4.650 -0.2301 -0.8726  0.9104
  912MOL0     O22988  10.385   3.346   4.557 -0.1088 -0.7604 -0.5726
  912MOL0     C22989  10.334   3.259   4.468  0.8907  0.2159  0.3188
  912MOL0     C22990  10.408   3.204   4.365  0.3054 -0.1949 -0.4008
  912MOL0     C22991  10.351   3.124   4.264  0.0077  0.2992 -1.2095
  912MOL0     C22992  10.210   3.109   4.259  0.6148 -0.9350  0.9536
  912MOL0     O22993  10.161   3.029   4.160 -0.7381 -0.0656 -0.2035
  912MOL0     C22994  10.019   3.022   4.139 -0.5033 -0.1590 -0.2849
  912MOL0     C22995   9.959   3.150   4.083  0.4995 -0.9487 -0.5301
  912MOL0     C22996   9.966   3.166   3.931 -0.1484 -0.0145 -0.6279
  912MOL0     C22997   9.995   3.320   3.900 -0.5777  0.2394  0.7577
  912MOL0     C22998  10.025   3.346   3.752  0.5761  0.1942 -0.5127
  912MOL0     C22999   9.906   3.382   3.674 -0.0645  0.2089 -0.2772
  912MOL0     C23000   9.849   3.519   3.707 -0.2332  0.1165  0.2854
  912MOL0     C23001   9.929   3.641   3.648  0.0006  0.7785  0.0730
  912MOL0     N23002   9.898   3.770   3.725  0.4675  0.0529 -0.5774
  912MOL0     C23003   9.782   3.837   3.753 -0.0678  0.6680  0.4994
  912MOL0     C23004   9.812   3.931   3.843 -0.9807  0.9184 -0.4371
  912MOL0     C23005   9.711   4.010   3.916 -0.1043  0.3480 -0.0012
  912MOL0     C23006   9.735   3.999   4.065 -0.4066  0.2672  0.4620
  912MOL0     C23007   9.832   4.118   4.108 -0.5191  0.1071 -0.4855
  912MOL0     C23008   9.856   4.115   4.271 -1.1672 -0.0850 -0.0957
  912MOL0     O23009   9.771   4.217   4.335  0.1618  0.4941  0.2699
  912MOL0     C23010   9.800   4.220   4.467  0.3733 -0.2435 -0.2825
  912MOL0     C23011   9.923   4.256   4.523  0.1459  0.5709 -0.0365
  912MOL0     C23012   9.937   4.228   4.658  0.2190 -0.7271 -0.6008
  912MOL0     C23013  10.078   4.247   4.716 -0.3669 -0.2463 -0.5501
  912MOL0     C23014   9.838   4.168   4.742  0.3601 -0.8403 -0.6485
  912MOL0     C23015   9.853   4.129   4.887  0.1602  0.7356  1.1610
  912MOL0     O23016   9.914   4.221   4.969  0.4116  0.1444 -0.0884
  912MOL0     C23017   9.915   4.186   5.102  0.5775  0.4156 -0.7407
  912MOL0     C23018  10.020   4.119   5.165 -0.1644 -0.3156  1.0466
  912MOL0     C23019  10.021   4.080   5.301 -0.4971 -0.3133  0.3984
  912MOL0     C23020   9.913   4.111   5.380  0.0288 -0.7023  1.0846
  912MOL0     O23021   9.917   4.080   5.513 -0.3210  0.5745  0.2284
  912MOL0     C23022   9.808   4.129   5.592  0.2686  0.2793 -0.5681
  912MOL0     C23023   9.850   4.132   5.739  1.7032  0.0147 -0.2104
  912MOL0     C23024   9.720   4.191   5.807 -0.7709 -1.0129  0.5963
  912MOL0     C23025   9.732   4.226   5.955 -1.0094 -0.2107  0.1468
  912MOL0     C23026   9.613   4.270   6.037  0.0122 -0.1271  0.2712
  912MOL0     C23027   9.636   4.298   6.188  0.6368 -0.0340  0.2043
  912MOL0     C23028   9.506   4.356   6.241 -0.7797 -0.3793  0.7163
  912MOL0     C23029   9.503   4.345   6.392 -0.1475  0.3613  0.4326
  912MOL0    Cl23030   9.369   4.451   6.439  0.0973 -0.2317  0.2957
  912MOL0     C23031   9.807   4.176   5.317  0.3328  0.1838  0.2743
  912MOL0     C23032   9.810   4.215   5.185 -0.1273  0.2861 -0.3881
  912MOL0     O23033   9.807   4.019   4.930 -0.6630 -0.3696  0.8130
  912MOL0     C23034   9.713   4.146   4.681  0.0184 -0.0942 -1.2132
  912MOL0     C23035   9.693   4.171   4.546  0.0540  0.5013  0.5751
  912MOL0     N23036   9.948   3.921   3.873 -0.6921  0.1980  0.0965
  912MOL0     N23037   9.994   3.825   3.803 -0.0725 -0.1337  0.3724
  912MOL0     C23038  10.133   3.161   4.366 -0.0713 -0.1938  0.1254
  912MOL0     C23039  10.194   3.236   4.472 -0.2626 -0.2952  0.1546
  912MOL0     C23040  10.503   3.369   4.779  0.3757 -0.6568 -0.2965
  912MOL0     C23041  10.462   3.501   4.787 -0.0120 -0.3229  0.6253
  912MOL0     C23042  10.481   3.568   4.904  0.2020 -0.8078  0.1551
  912MOL0     C23043  10.540   3.502   5.014 -0.2949 -0.4653  0.3935
  912MOL0     O23044  10.574   3.588   5.114 -0.2713  0.1297  0.7418
  912MOL0     C23045  10.461   3.579   5.206  1.2999  0.1207  0.6768
  912MOL0     C23046  10.445   3.716   5.278 -0.3033  0.1199  0.3381
  912MOL0     C23047  10.429   3.833   5.175  1.1679 -0.0116 -0.4703
  912MOL0     C23048  10.404   3.960   5.267 -0.5479  1.0183 -0.2041
  912MOL0     C23049  10.391   4.078   5.175  0.3924  0.3457 -0.6223
  912MOL0     C23050  10.367   4.168   5.095 -0.8969  0.3158  0.6102
  912MOL0     C23051  10.575   3.373   5.013 -0.3406  0.3569 -0.2206
  912MOL0     C23052  10.554   3.304   4.898 -0.5107  0.3382  0.8983
  912MOL0     H23053  10.516   3.210   4.378  0.0974 -0.7967  2.3595
  912MOL0     H23054  10.429   3.087   4.198  1.3590  0.1583  0.3999
  912MOL0     H23055   9.977   2.945   4.074 -2.2512  1.6642 -1.4144
  912MOL0     H23056   9.971   2.999   4.235 -1.6427 -1.4062 -1.1265
  912MOL0     H23057   9.854   3.142   4.116  0.4360  1.3875 -0.0115
  912MOL0     H23058  10.002   3.240   4.127 -0.2174 -1.8873  2.3461
  912MOL0     H23059  10.032   3.097   3.877 -2.8323 -1.3937 -2.3444
  912MOL0     H23060   9.870   3.133   3.891  0.3289  2.1532 -4.0064
  912MOL0     H23061   9.904   3.375   3.927 -1.1288 -0.2189 -0.1478
  912MOL0     H23062  10.078   3.356   3.963 -0.4324  0.3680  0.4954
  912MOL0     H23063  10.093   3.431   3.741  0.8709  0.1866  1.0056
  912MOL0     H23064  10.078   3.259   3.711  2.3502  1.4928 -1.0915
  912MOL0     H23065   9.939   3.375   3.570  2.4029  1.3483  0.3584
  912MOL0     H23066   9.826   3.308   3.683 -0.0822  0.1584 -0.8166
  912MOL0     H23067   9.752   3.533   3.659  1.2775  5.2906 -1.9689
  912MOL0     H23068   9.835   3.530   3.815  0.4898  0.9771  0.2991
  912MOL0     H23069   9.901   3.658   3.543 -3.6820  1.9746  1.1165
  912MOL0     H23070  10.038   3.627   3.657 -0.3060 -1.5687  0.9140
  912MOL0     H23071   9.684   3.804   3.720  0.5591  1.4710 -2.4982
  912MOL0     H23072   9.738   4.108   3.874  2.7304 -1.3764 -2.6142
  912MOL0     H23073   9.613   3.984   3.874 -0.1468 -0.8640  0.7886
  912MOL0     H23074   9.786   3.905   4.083  0.0429  0.0307 -1.8048
  912MOL0     H23075   9.639   3.999   4.118 -2.3864  0.9865 -2.8031
  912MOL0     H23076   9.800   4.221   4.088  1.7449  1.0513  0.2843
  912MOL0     H23077   9.926   4.105   4.053 -0.7623  2.8763 -1.7138
  912MOL0     H23078   9.962   4.128   4.293 -0.9701  0.8351 -1.4704
  912MOL0     H23079   9.838   4.010   4.298 -1.1242  0.4062  1.9370
  912MOL0     H23080  10.013   4.272   4.463  0.1927 -4.0911 -1.5898
  912MOL0     H23081  10.085   4.330   4.788 -0.3631 -1.4825  0.9357
  912MOL0     H23082  10.099   4.154   4.770 -2.0464  0.0982  0.8104
  912MOL0     H23083  10.156   4.270   4.644 -1.2525  3.1070 -0.6423
  912MOL0     H23084  10.110   4.109   5.105 -0.2353 -2.6048  1.1999
  912MOL0     H23085  10.103   4.027   5.349 -0.2636 -1.9922 -1.6993
  912MOL0     H23086   9.775   4.230   5.566 -0.5309  0.4638  1.0197
  912MOL0     H23087   9.724   4.058   5.588  2.8106 -2.9595 -0.5035
  912MOL0     H23088   9.861   4.025   5.762 -1.1068 -1.2428 -3.7201
  912MOL0     H23089   9.940   4.194   5.747  1.8590  0.1853 -2.5130
  912MOL0     H23090   9.635   4.124   5.799  0.7444 -3.0442  0.8301
  912MOL0     H23091   9.702   4.287   5.758 -1.4077 -0.7011  1.4226
  912MOL0     H23092   9.756   4.128   5.997 -4.8091 -1.0081  0.8083
  912MOL0     H23093   9.817   4.289   5.983  0.2586 -1.6517 -0.3239
  912MOL0     H23094   9.536   4.193   6.030 -0.5270  0.1463  2.3611
  912MOL0     H23095   9.573   4.362   5.993 -0.4805 -1.2635 -1.7959
  912MOL0     H23096   9.659   4.208   6.245  0.0480  0.3735  1.1290
  912MOL0     H23097   9.720   4.366   6.204  0.7052 -0.3619  1.3319
  912MOL0     H23098   9.423   4.292   6.210  1.3679 -2.0939 -1.9025
  912MOL0     H23099   9.495   4.458   6.204  0.9782 -1.3058 -2.7239
  912MOL0     H23100   9.602   4.371   6.431  0.9650 -1.1224 -1.2734
  912MOL0     H23101   9.475   4.243   6.420 -3.3802  0.2856 -2.3663
  912MOL0     H23102   9.717   4.197   5.373  2.2564  1.9567  2.8877
  912MOL0     H23103   9.722   4.274   5.159 -1.0298 -1.3897 -1.2926
  912MOL0     H23104   9.628   4.101   4.730 -0.0053 -0.9955 -2.0268
  912MOL0     H23105   9.600   4.131   4.507  1.6173 -2.0721 -0.6983
  912MOL0     H23106  10.026   3.143   4.373 -0.3761  0.6504 -1.6831
  912MOL0     H23107  10.135   3.283   4.550  2.8648  1.6411  1.5871
  912MOL0     H23108  10.431   3.542   4.692 -4.2600 -1.6971  1.1729
  912MOL0     H23109  10.460   3.674   4.900  3.1664 -0.1653 -3.0836
  912MOL0     H23110  10.372   3.563   5.146  0.5769  2.3071  1.0515
  912MOL0     H23111  10.477   3.489   5.266  1.7514 -1.3277 -1.5271
  912MOL0     H23112  10.527   3.732   5.349  0.2505 -1.3431  0.0615
  912MOL0     H23113  10.355   3.700   5.338 -0.9393 -4.5363 -1.4588
  912MOL0     H23114  10.341   3.812   5.113  0.6382  3.0730 -0.9325
  912MOL0     H23115  10.518   3.838   5.112 -0.9307  1.3329 -3.6202
  912MOL0     H23116  10.495   3.969   5.328 -0.4714  0.6127 -0.2561
  912MOL0     H23117  10.321   3.956   5.338 -1.3129 -1.7856 -1.1481
  912MOL0     H23118  10.341   4.244   5.025  4.0073  1.5802 -0.2573
  912MOL0     H23119  10.622   3.329   5.100  0.2141  0.1855 -0.5994
  912MOL0     H23120  10.584   3.200   4.899  0.9213  0.7307  0.7807
  913MOL0     O23121   8.053   6.606   4.764  0.2342 -0.4957  0.2301
  913MOL0     C23122   8.143   6.665   4.818 -0.5953  0.4213 -0.1555
  913MOL0     O23123   8.158   6.681   4.953  0.0064  0.4423  0.1396
  913MOL0     C23124   8.105   6.609   5.063 -0.5601 -0.3794 -0.2096
  913MOL0     C23125   8.011   6.502   5.053 -0.9335  0.4452 -0.0331
  913MOL0     C23126   7.946   6.459   5.161  0.2787  0.0551 -0.9738
  913MOL0     C23127   7.974   6.492   5.291 -0.9357 -0.1820  0.0785
  913MOL0     O23128   7.916   6.428   5.389  0.3029 -0.9981 -0.9331
  913MOL0     C23129   8.008   6.373   5.483 -0.0081  0.5283 -0.1305
  913MOL0     C23130   7.935   6.245   5.534  0.2286 -1.0700 -0.4576
  913MOL0     C23131   7.943   6.138   5.423  0.4183  0.3834 -0.4870
  913MOL0     C23132   7.941   5.995   5.476  0.2499 -0.2161 -0.2582
  913MOL0     C23133   8.079   5.945   5.509 -0.5492 -0.6884 -0.2872
  913MOL0     C23134   8.156   5.872   5.399 -0.5804 -0.3250 -0.4569
  913MOL0     C23135   8.294   5.824   5.447 -0.8182  0.6582  0.0297
  913MOL0     C23136   8.389   5.798   5.325  0.2107  0.2831  0.8148
  913MOL0     N23137   8.383   5.667   5.257 -0.3466  0.8431 -0.3022
  913MOL0     C23138   8.438   5.556   5.312  1.2140  0.0069 -0.5098
  913MOL0     C23139   8.390   5.456   5.230 -0.7657 -0.4774 -0.7808
  913MOL0     C23140   8.429   5.311   5.252  0.0506  0.2895  0.1276
  913MOL0     C23141   8.369   5.244   5.377 -0.2978 -0.5375  0.5944
  913MOL0     C23142   8.448   5.121   5.422  0.2441 -0.7345 -0.0090
  913MOL0     C23143   8.475   5.010   5.309 -0.5747 -0.4211  0.5131
  913MOL0     O23144   8.351   4.945   5.262 -0.0114 -0.2122  0.2539
  913MOL0     C23145   8.341   4.819   5.300  0.5510  0.1700 -0.1862
  913MOL0     C23146   8.392   4.720   5.213  0.0974 -0.4259 -0.0840
  913MOL0     C23147   8.380   4.578   5.253 -0.1251 -1.1814  0.0075
  913MOL0     C23148   8.458   4.480   5.169  0.1867 -0.6380 -0.7983
  913MOL0     C23149   8.326   4.547   5.375 -0.5751  1.0147 -0.0791
  913MOL0     C23150   8.324   4.408   5.442  0.1370  0.0535  0.0387
  913MOL0     O23151   8.206   4.371   5.489 -0.6144  0.4217 -0.1614
  913MOL0     C23152   8.200   4.256   5.564 -0.5806 -1.2960 -1.5990
  913MOL0     C23153   8.300   4.201   5.644  0.6971  0.6233 -0.3209
  913MOL0     C23154   8.273   4.093   5.730 -0.0404 -0.7521  1.1133
  913MOL0     C23155   8.144   4.046   5.744  0.3837  0.1611 -0.2633
  913MOL0     O23156   8.104   3.945   5.822 -0.4305 -0.4747  0.1516
  913MOL0     C23157   8.198   3.848   5.859  0.4545  0.2880 -0.0453
  913MOL0     C23158   8.135   3.723   5.902  0.1428 -1.1352 -0.2488
  913MOL0     C23159   8.233   3.612   5.934 -1.3155 -1.2236  0.2459
  913MOL0     C23160   8.158   3.486   5.980  0.7173  0.0190  0.2896
  913MOL0     C23161   8.255   3.362   5.991  0.6351  0.0677 -0.2654
  913MOL0     C23162   8.177   3.230   6.025 -0.5887 -0.0287 -0.8836
  913MOL0     C23163   8.266   3.105   6.062 -0.2944  0.2011 -0.1382
  913MOL0     C23164   8.181   2.973   6.053 -0.7686 -0.6778 -1.6017
  913MOL0    Cl23165   8.051   2.953   6.190  0.0110  0.4539 -0.5365
  913MOL0     C23166   8.052   4.104   5.668  0.2072  0.2009 -0.3065
  913MOL0     C23167   8.076   4.208   5.577  0.4179  0.4479 -0.2994
  913MOL0     O23168   8.427   4.344   5.441 -0.5125  0.0806  0.6781
  913MOL0     C23169   8.284   4.652   5.461  0.0425  0.2038  0.5967
  913MOL0     C23170   8.289   4.782   5.425 -0.0242 -0.2201 -0.0178
  913MOL0     N23171   8.309   5.506   5.130 -1.1443 -0.0990  0.3204
  913MOL0     N23172   8.308   5.631   5.149 -0.1807  0.5577 -0.4134
  913MOL0     C23173   8.068   6.596   5.306  0.7729  0.1499  0.4150
  913MOL0     C23174   8.127   6.662   5.198  1.0923  0.0293 -0.0780
  913MOL0     C23175   8.238   6.739   4.734 -0.1463  0.1011 -0.3208
  913MOL0     C23176   8.314   6.848   4.785  0.7219  0.8483 -0.4350
  913MOL0     C23177   8.410   6.901   4.701  0.0816 -0.4183  0.6449
  913MOL0     C23178   8.420   6.871   4.564 -1.1610 -0.5362  0.7429
  913MOL0     O23179   8.515   6.941   4.485  0.9423  0.0627 -0.2580
  913MOL0     C23180   8.625   6.864   4.441  0.5297 -0.0964 -0.6028
  913MOL0     C23181   8.612   6.799   4.302 -0.7510 -1.3501  0.9033
  913MOL0     C23182   8.608   6.902   4.190  0.1300 -0.8356  0.2062
  913MOL0     C23183   8.497   6.877   4.087 -0.3060  0.1314  1.0645
  913MOL0     C23184   8.514   6.942   3.959 -0.2350  0.6471 -0.3361
  913MOL0     C23185   8.531   7.013   3.862  0.5624 -0.4936 -0.0280
  913MOL0     C23186   8.335   6.774   4.513  0.6226 -0.2961 -0.1531
  913MOL0     C23187   8.240   6.716   4.594 -0.1356 -0.2436 -0.0230
  913MOL0     H23188   7.982   6.460   4.957 -2.3598 -1.3931  1.1318
  913MOL0     H23189   7.864   6.389   5.148 -1.8650  2.6038 -2.3017
  913MOL0     H23190   8.094   6.350   5.418 -0.8765 -0.0939 -1.0961
  913MOL0     H23191   8.033   6.425   5.576  2.8851 -1.4409  0.3054
  913MOL0     H23192   8.000   6.214   5.616 -0.2166  0.7394  0.6189
  913MOL0     H23193   7.837   6.261   5.581  0.8516  3.5785 -0.3154
  913MOL0     H23194   7.856   6.169   5.365 -1.0486 -0.9170  0.9197
  913MOL0     H23195   8.025   6.158   5.353  1.5098 -0.6748  0.4572
  913MOL0     H23196   7.885   6.000   5.570  2.8518 -0.4385  1.4047
  913MOL0     H23197   7.891   5.937   5.398  0.3384  1.2078 -1.4260
  913MOL0     H23198   8.139   6.029   5.545 -2.1728 -0.8395  3.2963
  913MOL0     H23199   8.065   5.879   5.596 -0.0542  0.3974  0.6398
  913MOL0     H23200   8.106   5.785   5.357 -4.3947  3.2335 -4.3494
  913MOL0     H23201   8.166   5.937   5.311  2.7505 -2.5970 -1.9511
  913MOL0     H23202   8.336   5.899   5.515  3.3756 -1.1671 -0.2207
  913MOL0     H23203   8.293   5.728   5.499 -2.6832  1.0280  0.7459
  913MOL0     H23204   8.491   5.818   5.361  1.8933 -1.8315 -2.2055
  913MOL0     H23205   8.376   5.869   5.243 -0.7189  1.7288  2.1748
  913MOL0     H23206   8.514   5.548   5.389  0.0466  0.3099  0.7200
  913MOL0     H23207   8.394   5.266   5.159 -2.1457  0.4152  0.8500
  913MOL0     H23208   8.537   5.293   5.256 -0.0172 -0.1515  0.0870
  913MOL0     H23209   8.270   5.201   5.357  0.6467 -3.0223  0.9364
  913MOL0     H23210   8.357   5.325   5.450  5.1086  2.2078 -1.0331
  913MOL0     H23211   8.386   5.068   5.495 -4.2221 -0.3161 -3.0735
  913MOL0     H23212   8.536   5.164   5.470 -0.0273  1.0857 -1.0492
  913MOL0     H23213   8.537   4.931   5.352  0.6777  1.8024  3.0977
  913MOL0     H23214   8.536   5.051   5.227  1.0607 -0.8756  1.4495
  913MOL0     H23215   8.433   4.753   5.118  2.0676  1.7418  1.4044
  913MOL0     H23216   8.532   4.425   5.228 -0.5255 -2.0671 -1.1922
  913MOL0     H23217   8.400   4.397   5.127  3.0421 -3.1114 -0.1917
  913MOL0     H23218   8.495   4.532   5.081 -0.9784  1.2576 -0.2367
  913MOL0     H23219   8.402   4.238   5.638  0.2082  2.2144  0.5705
  913MOL0     H23220   8.356   4.056   5.790  0.2992 -1.1474  0.4075
  913MOL0     H23221   8.266   3.823   5.777  0.6006  2.6844 -0.7392
  913MOL0     H23222   8.260   3.896   5.936  3.3124 -0.4370 -1.7505
  913MOL0     H23223   8.073   3.749   5.988  1.7361 -0.9837  0.8849
  913MOL0     H23224   8.068   3.699   5.818 -1.2523  0.1584  0.4559
  913MOL0     H23225   8.318   3.631   6.001 -0.8250  1.0367 -0.9208
  913MOL0     H23226   8.282   3.591   5.838  1.4228 -1.9476  1.6926
  913MOL0     H23227   8.092   3.507   6.064  1.8044 -3.2468  2.1386
  913MOL0     H23228   8.079   3.456   5.910  0.3578 -0.8373  1.0463
  913MOL0     H23229   8.306   3.386   6.084  2.9538 -0.4578 -1.3404
  913MOL0     H23230   8.326   3.356   5.908  0.2903  0.9150 -0.6365
  913MOL0     H23231   8.126   3.264   6.116 -0.1256 -1.1317 -0.1921
  913MOL0     H23232   8.109   3.215   5.941 -1.7647 -0.0928  0.0495
  913MOL0     H23233   8.318   3.111   6.159  0.8791 -0.9167 -0.6678
  913MOL0     H23234   8.344   3.104   5.986  0.5737  4.2372  0.4889
  913MOL0     H23235   8.247   2.888   6.075 -0.3937  0.4201  2.1331
  913MOL0     H23236   8.134   2.952   5.956 -2.0356  1.0789 -1.4082
  913MOL0     H23237   7.947   4.080   5.663  0.6315 -2.1840  0.6556
  913MOL0     H23238   7.992   4.245   5.520 -0.6441 -4.4290 -2.4252
  913MOL0     H23239   8.254   4.627   5.562  2.5241 -0.8846  1.1537
  913MOL0     H23240   8.253   4.862   5.488 -2.0117 -0.0316 -1.2977
  913MOL0     H23241   8.119   6.626   5.398 -0.1769  0.6245  0.8055
  913MOL0     H23242   8.192   6.747   5.214 -2.5869  2.7237  2.2706
  913MOL0     H23243   8.307   6.872   4.891 -2.7344  0.6687 -0.5033
  913MOL0     H23244   8.484   6.973   4.735 -0.3509  0.0779  0.5441
  913MOL0     H23245   8.708   6.935   4.429  0.3142 -0.0187 -1.8130
  913MOL0     H23246   8.659   6.788   4.512  0.8493 -0.1738 -0.8319
  913MOL0     H23247   8.521   6.739   4.300 -2.9515  1.7906  0.1268
  913MOL0     H23248   8.711   6.752   4.292 -0.7589 -1.0281 -1.1231
  913MOL0     H23249   8.695   6.890   4.125  0.0720 -2.4093  0.3792
  913MOL0     H23250   8.604   7.006   4.221  2.3094 -0.3441 -0.9649
  913MOL0     H23251   8.395   6.889   4.125 -0.5064  0.1650  0.5190
  913MOL0     H23252   8.508   6.769   4.071 -2.1629  0.4119 -3.6129
  913MOL0     H23253   8.553   7.069   3.774  2.1442 -1.7002 -0.4448
  913MOL0     H23254   8.339   6.749   4.408  1.8390 -1.4324  0.1272
  913MOL0     H23255   8.174   6.637   4.558  1.7201 -2.9674  2.1782
  914MOL0     O23256   9.691  11.192   0.111  0.2980 -0.4843  0.5209
  914MOL0     C23257   9.716  11.082   0.069  0.1941 -0.5484  0.6241
  914MOL0     O23258   9.838  11.041   0.025 -1.2094 -0.0639 -0.0293
  914MOL0     C23259   9.939  11.134   0.015  0.8451  0.3556 -1.0232
  914MOL0     C23260   9.982  11.184  -0.109 -0.0987  0.1115  1.1294
  914MOL0     C23261  10.094  11.267  -0.118  0.0295  0.6786  0.1269
  914MOL0     C23262  10.144  11.323  -0.004 -0.0128  0.3144 -0.1003
  914MOL0     O23263  10.234  11.425  -0.017  1.3136 -0.0399 -0.7687
  914MOL0     C23264  10.226  11.534   0.076 -0.9881  0.3622 -0.6181
  914MOL0     C23265  10.329  11.645   0.025  0.7523  0.7221 -0.4552
  914MOL0     C23266  10.264  11.705  -0.106  0.6520 -0.5408 -0.2934
  914MOL0     C23267  10.333  11.845  -0.137 -0.3357 -0.7965  0.5766
  914MOL0     C23268  10.295  11.908  -0.268 -0.5375  0.1483  0.2200
  914MOL0     C23269  10.392  12.025  -0.299  0.8432  0.6191  1.0646
  914MOL0     C23270  10.346  12.093  -0.426  1.2887  0.0616  0.3772
  914MOL0     C23271  10.446  12.185  -0.493  0.3810 -0.1710  0.0042
  914MOL0     N23272  10.394  12.222  -0.627  0.4125 -1.4521 -0.8502
  914MOL0     C23273  10.445  12.174  -0.741 -0.2187  0.2342 -0.4787
  914MOL0     C23274  10.371  12.237  -0.836  0.8291  0.0182 -0.7600
  914MOL0     C23275  10.406  12.240  -0.981  0.3668  0.6187 -1.3093
  914MOL0     C23276  10.516  12.331  -1.021 -0.0423  0.1810  0.4693
  914MOL0     C23277  10.659  12.294  -0.981  0.0629  0.9118 -0.8074
  914MOL0     C23278  10.734  12.195  -1.063 -0.2068  0.7613  0.5845
  914MOL0     O23279  10.661  12.071  -1.057  0.9725  0.9585  0.1346
  914MOL0     C23280  10.653  11.986  -0.951  0.5097 -0.3106 -0.3196
  914MOL0     C23281  10.735  11.987  -0.829 -0.1074 -0.0919  0.4704
  914MOL0     C23282  10.708  11.889  -0.732  0.6586  1.2357  0.4347
  914MOL0     C23283  10.817  11.884  -0.627 -0.3412 -0.5264  0.9636
  914MOL0     C23284  10.599  11.799  -0.747 -0.8084 -0.3625 -1.0561
  914MOL0     C23285  10.570  11.694  -0.646 -0.3719 -0.5459  0.7253
  914MOL0     O23286  10.524  11.577  -0.700  0.4002 -0.7429  0.8258
  914MOL0     C23287  10.490  11.465  -0.629 -0.1622  0.2952 -0.1839
  914MOL0     C23288  10.439  11.361  -0.712 -0.6499  0.2010 -0.3519
  914MOL0     C23289  10.369  11.246  -0.660 -0.6799  0.3698 -0.1447
  914MOL0     C23290  10.381  11.219  -0.526 -0.4594  0.1661  0.2575
  914MOL0     O23291  10.328  11.096  -0.493 -0.2578  0.8152  0.5108
  914MOL0     C23292  10.385  11.029  -0.376  0.4148 -0.8951 -0.0703
  914MOL0     C23293  10.524  10.999  -0.395 -0.5736  0.8452 -0.1742
  914MOL0     C23294  10.576  10.937  -0.264 -0.6178  0.2000  0.5825
  914MOL0     C23295  10.724  10.897  -0.257 -1.5895 -0.7647  0.7468
  914MOL0     C23296  10.774  10.820  -0.128  0.5273 -0.0242  0.2896
  914MOL0     C23297  10.816  10.930  -0.021 -0.3586 -0.5001 -0.9657
  914MOL0     C23298  10.951  11.006  -0.061  0.0669  1.1145 -0.2274
  914MOL0     C23299  10.983  11.096   0.069  0.2766 -0.1449 -0.1559
  914MOL0    Cl23300  11.150  11.154   0.078  0.4513 -0.0408 -0.3058
  914MOL0     C23301  10.443  11.314  -0.444  0.7144  0.6777 -0.4109
  914MOL0     C23302  10.497  11.433  -0.491 -0.5292  0.8983  0.7456
  914MOL0     O23303  10.581  11.715  -0.526 -0.2377 -0.3142  0.2855
  914MOL0     C23304  10.534  11.792  -0.867 -0.0542  1.2094 -0.5001
  914MOL0     C23305  10.562  11.885  -0.964  0.1427  0.2525  0.5457
  914MOL0     N23306  10.265  12.312  -0.774  0.0459  0.4496  0.7938
  914MOL0     N23307  10.289  12.309  -0.651 -0.1066 -0.0806  0.2092
  914MOL0     C23308  10.095  11.270   0.122  0.3495 -0.3850  0.0716
  914MOL0     C23309   9.994  11.179   0.132  0.2059 -0.0665 -0.1515
  914MOL0     C23310   9.606  10.977   0.067 -0.0337 -0.0204 -0.1865
  914MOL0     C23311   9.619  10.859  -0.011 -0.0790  0.2277 -0.4260
  914MOL0     C23312   9.507  10.773  -0.016 -0.5247 -0.5952 -0.1864
  914MOL0     C23313   9.387  10.789   0.057 -0.3515 -1.1736 -0.3947
  914MOL0     O23314   9.277  10.713   0.064 -0.5424  0.6060 -0.0702
  914MOL0     C23315   9.278  10.596  -0.017 -0.2546 -0.2393  0.1419
  914MOL0     C23316   9.158  10.502   0.023 -0.1426 -0.4967 -0.3128
  914MOL0     C23317   9.163  10.483   0.179  0.3757 -0.6470 -0.4686
  914MOL0     C23318   9.052  10.569   0.264 -0.6066  0.1185  0.4658
  914MOL0     C23319   8.922  10.491   0.258 -0.2164 -0.2756  0.2435
  914MOL0     C23320   8.820  10.421   0.257  0.2108 -0.1504 -0.5946
  914MOL0     C23321   9.381  10.918   0.114 -0.2232  0.2911  0.1569
  914MOL0     C23322   9.487  11.004   0.134 -0.1209  0.7329  0.6168
  914MOL0     H23323   9.955  11.146  -0.208 -1.9958  3.8500 -0.0052
  914MOL0     H23324  10.125  11.295  -0.218  2.8601 -3.3489 -0.3518
  914MOL0     H23325  10.123  11.565   0.093 -0.8232  0.2100  0.7475
  914MOL0     H23326  10.265  11.504   0.173  0.4690  1.6755 -0.7543
  914MOL0     H23327  10.342  11.717   0.106 -1.4633 -0.2264  0.8318
  914MOL0     H23328  10.426  11.599   0.005  0.1013 -1.9506  1.8389
  914MOL0     H23329  10.294  11.638  -0.188  3.0276 -0.3095  0.3062
  914MOL0     H23330  10.156  11.702  -0.093  0.6998 -0.1022  0.2240
  914MOL0     H23331  10.304  11.917  -0.059 -0.5813 -0.4958  0.2103
  914MOL0     H23332  10.440  11.824  -0.133 -0.5224 -1.6087  2.7594
  914MOL0     H23333  10.308  11.839  -0.351  0.0223  1.4950 -0.8544
  914MOL0     H23334  10.195  11.951  -0.260  0.6669  2.8993  2.3091
  914MOL0     H23335  10.407  12.104  -0.225 -1.7779  3.4589 -1.1465
  914MOL0     H23336  10.489  11.978  -0.319  0.0462 -0.2702 -1.0352
  914MOL0     H23337  10.330  12.020  -0.507 -1.1701  0.9601 -0.0430
  914MOL0     H23338  10.254  12.148  -0.405 -0.7128 -3.1432  0.7770
  914MOL0     H23339  10.543  12.134  -0.498  0.5902  0.0655  1.4290
  914MOL0     H23340  10.463  12.274  -0.432 -1.2094  0.3958 -0.3155
  914MOL0     H23341  10.534  12.112  -0.753  2.1141  3.4215 -0.9883
  914MOL0     H23342  10.442  12.140  -1.007  0.3371  0.7982 -2.0642
  914MOL0     H23343  10.316  12.256  -1.041  1.1406  3.9579 -1.8109
  914MOL0     H23344  10.487  12.431  -0.989  0.0282  0.9402 -1.6533
  914MOL0     H23345  10.512  12.325  -1.130  2.7166 -0.4397  0.3260
  914MOL0     H23346  10.659  12.274  -0.874  0.0420  0.5660 -0.8715
  914MOL0     H23347  10.712  12.390  -0.980  0.8655  0.4929 -1.8262
  914MOL0     H23348  10.827  12.179  -1.009  1.4342 -1.7472 -2.6191
  914MOL0     H23349  10.765  12.220  -1.165 -3.0495 -0.0855 -0.6022
  914MOL0     H23350  10.809  12.067  -0.827 -0.7910  0.5712 -0.1056
  914MOL0     H23351  10.840  11.784  -0.590  0.2622 -0.3923  0.9560
  914MOL0     H23352  10.913  11.917  -0.667  0.8208 -0.1394  3.8682
  914MOL0     H23353  10.799  11.952  -0.543 -0.5159  1.0367 -0.3043
  914MOL0     H23354  10.450  11.356  -0.820 -1.3734 -1.0489 -0.3844
  914MOL0     H23355  10.324  11.170  -0.722  0.8594 -2.7474  2.3031
  914MOL0     H23356  10.374  11.091  -0.286 -2.5035 -0.1514 -0.8037
  914MOL0     H23357  10.325  10.940  -0.356 -2.3284  0.4862 -1.4615
  914MOL0     H23358  10.537  10.928  -0.477  0.4635 -1.5080  1.9088
  914MOL0     H23359  10.581  11.089  -0.422 -1.0283  0.9734 -0.7200
  914MOL0     H23360  10.522  10.847  -0.236 -1.0165  0.5685  1.0124
  914MOL0     H23361  10.565  11.009  -0.183  2.7331  1.0915  0.4135
  914MOL0     H23362  10.747  10.838  -0.346 -3.2256 -2.1137  1.1754
  914MOL0     H23363  10.781  10.988  -0.276 -0.5422 -1.7238 -0.9549
  914MOL0     H23364  10.864  10.761  -0.151  0.8457  0.7729 -0.5666
  914MOL0     H23365  10.685  10.769  -0.091  1.0753  2.1726  5.4651
  914MOL0     H23366  10.730  10.996  -0.005 -0.4689 -1.0613  0.9809
  914MOL0     H23367  10.840  10.882   0.074 -2.4095 -0.3435 -0.3369
  914MOL0     H23368  10.926  11.072  -0.145 -1.5565  2.5901  1.3135
  914MOL0     H23369  11.035  10.942  -0.087  0.0379  1.2404 -0.6300
  914MOL0     H23370  10.965  11.042   0.162 -0.2902 -4.3173 -2.4771
  914MOL0     H23371  10.913  11.181   0.074 -0.7824 -0.9843 -0.2741
  914MOL0     H23372  10.455  11.291  -0.338  0.0441 -3.3830 -1.0768
  914MOL0     H23373  10.536  11.502  -0.416 -0.4070  0.2306  1.3011
  914MOL0     H23374  10.456  11.717  -0.880  1.3835 -0.7529  1.4039
  914MOL0     H23375  10.499  11.865  -1.049 -0.2392 -3.5637  1.5633
  914MOL0     H23376  10.130  11.314   0.215 -1.6618 -1.6938  1.5155
  914MOL0     H23377   9.957  11.138   0.225  0.2867  2.4035  1.0352
  914MOL0     H23378   9.715  10.837  -0.057  1.0884  2.5466  0.7282
  914MOL0     H23379   9.534  10.686  -0.075  1.3789 -1.5903  1.9924
  914MOL0     H23380   9.277  10.644  -0.115  2.4175 -3.7844 -1.8565
  914MOL0     H23381   9.370  10.542   0.006 -0.1297  0.8354  2.4448
  914MOL0     H23382   9.168  10.410  -0.036  0.1844  1.2491 -3.1666
  914MOL0     H23383   9.063  10.545  -0.008 -0.7809 -2.4684 -1.2629
  914MOL0     H23384   9.262  10.509   0.217  1.3850 -2.6236 -1.5745
  914MOL0     H23385   9.145  10.376   0.195 -1.2111 -0.6776 -2.0787
  914MOL0     H23386   9.038  10.667   0.217  0.8543  0.7502  1.2808
  914MOL0     H23387   9.090  10.588   0.365  0.1399  0.1005  0.1932
  914MOL0     H23388   8.734  10.358   0.264  0.8725 -1.3260 -2.3206
  914MOL0     H23389   9.294  10.925   0.179 -1.3763 -3.6552 -0.7131
  914MOL0     H23390   9.475  11.098   0.187  0.5624 -0.0842  2.3011
  915MOL0     O23391   1.875   6.184   5.715 -0.1400  0.4693 -0.3716
  915MOL0     C23392   1.831   6.290   5.759 -0.4886  0.5784  0.3642
  915MOL0     O23393   1.821   6.412   5.687  0.4197 -0.7662 -0.5165
  915MOL0     C23394   1.866   6.430   5.561 -0.2232  0.8780  0.2868
  915MOL0     C23395   1.965   6.359   5.492  0.3423 -0.2474  0.7516
  915MOL0     C23396   1.996   6.384   5.361 -0.0964  0.0458  0.3251
  915MOL0     C23397   1.926   6.479   5.286  0.3609 -1.0215 -0.1859
  915MOL0     O23398   1.984   6.512   5.162  0.2197 -0.1560  0.2699
  915MOL0     C23399   2.075   6.623   5.183  0.3258 -0.4782  0.0990
  915MOL0     C23400   2.110   6.676   5.044 -1.1431 -0.5837  0.7284
  915MOL0     C23401   2.191   6.574   4.968  0.4456  0.4340  0.9413
  915MOL0     C23402   2.239   6.627   4.833 -0.1732 -0.5572  0.5476
  915MOL0     C23403   2.363   6.710   4.841  0.2411  0.2035 -0.1160
  915MOL0     C23404   2.423   6.766   4.713  0.1236 -0.1463  1.4493
  915MOL0     C23405   2.491   6.666   4.612 -1.0175  0.4344  0.7880
  915MOL0     C23406   2.564   6.750   4.497  0.1896 -0.4592  1.8021
  915MOL0     N23407   2.476   6.779   4.378  0.6886 -0.5337  0.0630
  915MOL0     C23408   2.391   6.887   4.349  0.6113 -0.2961 -0.8973
  915MOL0     C23409   2.337   6.858   4.233 -0.9022 -0.3797 -0.2106
  915MOL0     C23410   2.235   6.941   4.161 -0.2089 -0.8463 -0.1114
  915MOL0     C23411   2.088   6.910   4.205  0.1045 -0.1787  0.4658
  915MOL0     C23412   1.991   6.988   4.120  0.0127 -0.1626 -0.8093
  915MOL0     C23413   1.845   6.949   4.162  0.8111 -1.2792  0.1080
  915MOL0     O23414   1.839   6.816   4.117  1.1600 -0.0064  0.6163
  915MOL0     C23415   1.720   6.760   4.159  0.8354  1.0171 -0.0629
  915MOL0     C23416   1.607   6.834   4.212 -0.2084  0.2218  0.7639
  915MOL0     C23417   1.486   6.771   4.214  0.4748  0.9579  1.1216
  915MOL0     C23418   1.373   6.842   4.274  0.8839  0.7012 -0.6760
  915MOL0     C23419   1.477   6.636   4.173 -0.2088  0.5669 -0.4526
  915MOL0     C23420   1.349   6.562   4.175  0.9394  0.2396  0.3878
  915MOL0     O23421   1.359   6.450   4.253 -0.3280 -0.3342  1.0801
  915MOL0     C23422   1.249   6.374   4.233 -0.0536 -0.7700 -1.1148
  915MOL0     C23423   1.254   6.250   4.162 -0.2569 -0.1216  0.7779
  915MOL0     C23424   1.145   6.166   4.157  0.4968  0.0195  1.3758
  915MOL0     C23425   1.026   6.203   4.213 -0.1313  0.2135  0.3239
  915MOL0     O23426   0.915   6.130   4.177 -0.4141 -0.9893  0.0976
  915MOL0     C23427   0.856   6.069   4.303 -0.0168 -0.0713 -0.0198
  915MOL0     C23428   0.742   5.980   4.258 -0.4150  0.1502 -0.1469
  915MOL0     C23429   0.636   5.944   4.367 -0.0261 -0.0318 -0.0373
  915MOL0     C23430   0.486   5.941   4.334 -0.8655  0.9967 -0.0197
  915MOL0     C23431   0.387   5.867   4.426  0.2380  0.1910  0.2660
  915MOL0     C23432   0.250   5.832   4.352 -0.8050 -0.5163  0.6477
  915MOL0     C23433   0.138   5.799   4.441 -0.2113  1.0885 -0.1909
  915MOL0     C23434   0.171   5.698   4.548 -0.5667  1.7680 -0.0020
  915MOL0    Cl23435   0.162   5.525   4.482  0.1284  0.0047  0.8121
  915MOL0     C23436   1.014   6.325   4.275  0.0942 -0.0895  0.3495
  915MOL0     C23437   1.126   6.404   4.293 -0.2559 -0.5199  0.2554
  915MOL0     O23438   1.245   6.597   4.110 -0.2915 -0.3337  0.1076
  915MOL0     C23439   1.596   6.557   4.140 -0.0588 -0.4547  0.3427
  915MOL0     C23440   1.712   6.628   4.111  1.3227 -0.1112  0.3292
  915MOL0     N23441   2.396   6.741   4.184 -0.4702 -0.0478 -0.0774
  915MOL0     N23442   2.460   6.686   4.276  0.5726 -1.0055  0.2226
  915MOL0     C23443   1.825   6.556   5.351  0.8605 -0.9639 -0.9053
  915MOL0     C23444   1.796   6.527   5.481  0.0234  0.5167  0.2402
  915MOL0     C23445   1.807   6.290   5.900  0.2029 -0.0867  0.6791
  915MOL0     C23446   1.803   6.420   5.963 -0.4879  0.8971  0.9182
  915MOL0     C23447   1.775   6.430   6.098  0.4148  0.0158  0.9319
  915MOL0     C23448   1.753   6.319   6.182 -0.8073  0.4566 -0.1106
  915MOL0     O23449   1.710   6.330   6.309 -0.0689  1.2753  0.0325
  915MOL0     C23450   1.727   6.217   6.399  0.0466  0.1919  0.1937
  915MOL0     C23451   1.879   6.173   6.422  0.1791  0.2961  0.1500
  915MOL0     C23452   1.973   6.283   6.427 -0.9234 -0.6311 -0.3642
  915MOL0     C23453   2.093   6.276   6.534  0.3346 -0.5247 -0.0533
  915MOL0     C23454   2.070   6.221   6.675 -0.1039  0.4192  0.8084
  915MOL0     C23455   2.038   6.175   6.785  2.0491  0.7141 -0.3284
  915MOL0     C23456   1.753   6.194   6.117  0.4953 -0.2644  0.3029
  915MOL0     C23457   1.792   6.181   5.980 -0.9682  0.0677 -2.1375
  915MOL0     H23458   2.018   6.281   5.545  2.8866  0.6495 -0.3042
  915MOL0     H23459   2.076   6.334   5.307 -1.7797 -1.9696 -0.4447
  915MOL0     H23460   2.025   6.704   5.237  3.4064  2.1366 -0.6903
  915MOL0     H23461   2.165   6.602   5.241 -0.3316 -2.0612  0.5990
  915MOL0     H23462   2.014   6.681   4.991 -0.9538  1.1945  0.4865
  915MOL0     H23463   2.136   6.782   5.046 -1.4002 -0.5305  1.6365
  915MOL0     H23464   2.284   6.554   5.022  0.2283 -1.8709  0.5327
  915MOL0     H23465   2.139   6.480   4.950  3.2580 -0.8046 -1.4742
  915MOL0     H23466   2.261   6.544   4.767 -2.6553 -0.7965 -0.0954
  915MOL0     H23467   2.167   6.683   4.772  2.0567  1.4659 -0.4070
  915MOL0     H23468   2.329   6.797   4.898  4.0654  1.7526  0.0912
  915MOL0     H23469   2.443   6.663   4.898 -0.7330 -1.7983 -0.3126
  915MOL0     H23470   2.343   6.804   4.649  1.0940  0.2855  0.4456
  915MOL0     H23471   2.492   6.844   4.748  1.9425 -2.4764  3.4179
  915MOL0     H23472   2.563   6.601   4.665  0.1054 -0.1489 -1.3499
  915MOL0     H23473   2.412   6.601   4.574  1.7282 -2.9773  0.3166
  915MOL0     H23474   2.650   6.698   4.453 -0.8030 -0.0564 -0.8166
  915MOL0     H23475   2.596   6.847   4.534  1.4429 -0.6485  1.2720
  915MOL0     H23476   2.382   6.974   4.413 -1.1060 -0.3937 -0.9676
  915MOL0     H23477   2.248   7.047   4.186  2.4876 -0.9305 -0.7680
  915MOL0     H23478   2.227   6.920   4.054 -2.8892 -3.7855  0.5272
  915MOL0     H23479   2.081   6.924   4.314  1.1548 -1.2874  0.6979
  915MOL0     H23480   2.085   6.803   4.180  3.0602  0.2333 -2.3269
  915MOL0     H23481   1.995   6.991   4.010 -1.0275  5.3540 -1.0161
  915MOL0     H23482   2.008   7.090   4.157 -0.8118 -0.0350 -0.7463
  915MOL0     H23483   1.777   7.017   4.110 -0.7055 -3.0060 -0.2943
  915MOL0     H23484   1.825   6.961   4.269  0.8917  1.3255 -0.0972
  915MOL0     H23485   1.616   6.938   4.242 -1.5248  0.9009 -1.0619
  915MOL0     H23486   1.384   6.951   4.270 -0.0863  0.9904  2.0026
  915MOL0     H23487   1.276   6.813   4.232  0.7964 -2.2322  1.2619
  915MOL0     H23488   1.367   6.818   4.381  0.4066  1.2148 -0.5857
  915MOL0     H23489   1.338   6.210   4.106 -0.8578 -0.7014  0.2746
  915MOL0     H23490   1.143   6.079   4.093 -2.6221  0.4712  0.6684
  915MOL0     H23491   0.939   6.015   4.350  1.4575  0.9662 -1.3509
  915MOL0     H23492   0.821   6.143   4.376  2.2618  0.4218  0.6455
  915MOL0     H23493   0.681   6.032   4.184 -0.1263 -3.0804 -2.9340
  915MOL0     H23494   0.782   5.890   4.210  1.1329  0.2086  0.9483
  915MOL0     H23495   0.642   6.021   4.445  0.7017 -1.7818  1.7025
  915MOL0     H23496   0.660   5.848   4.413  0.6427 -0.5140 -1.3352
  915MOL0     H23497   0.449   6.044   4.336  1.4974  1.9027 -0.1289
  915MOL0     H23498   0.479   5.896   4.234 -1.5251  0.6342  0.1835
  915MOL0     H23499   0.369   5.909   4.525 -0.3122 -1.8093  1.0548
  915MOL0     H23500   0.433   5.772   4.455  0.9998  1.1347  2.3641
  915MOL0     H23501   0.216   5.923   4.301  0.5069 -0.3727 -0.0271
  915MOL0     H23502   0.256   5.761   4.269  0.4962 -2.6933  2.4973
  915MOL0     H23503   0.059   5.749   4.384  1.2530 -0.2534 -1.0921
  915MOL0     H23504   0.097   5.894   4.479 -1.8784  1.4635 -2.6794
  915MOL0     H23505   0.081   5.704   4.611 -0.8678  3.2644 -0.5349
  915MOL0     H23506   0.253   5.720   4.617  2.6342 -1.3408 -2.4695
  915MOL0     H23507   0.915   6.355   4.306 -1.4553 -2.4084 -1.8554
  915MOL0     H23508   1.117   6.498   4.348 -0.9139  1.4398 -2.9544
  915MOL0     H23509   1.588   6.450   4.126 -2.5128 -0.1315 -1.4219
  915MOL0     H23510   1.784   6.583   4.043 -1.9014 -1.3287 -2.6127
  915MOL0     H23511   1.763   6.622   5.292  1.6290 -0.1121 -0.7937
  915MOL0     H23512   1.706   6.575   5.518 -0.7019  0.0769 -0.8889
  915MOL0     H23513   1.831   6.506   5.903  2.1756  0.1099  0.8844
  915MOL0     H23514   1.773   6.529   6.144  0.3210  1.0605 -1.1898
  915MOL0     H23515   1.681   6.259   6.489 -1.1966  1.3032 -0.9107
  915MOL0     H23516   1.670   6.126   6.379 -0.4219  1.0780 -3.2671
  915MOL0     H23517   1.902   6.105   6.340 -0.5118  1.7451 -1.3079
  915MOL0     H23518   1.876   6.118   6.516 -0.5437  1.3412  0.7624
  915MOL0     H23519   1.934   6.384   6.439 -0.6824 -0.1622 -2.9764
  915MOL0     H23520   2.021   6.287   6.330  3.8108  4.1877  1.6994
  915MOL0     H23521   2.132   6.378   6.544  2.6426 -1.1421 -1.8962
  915MOL0     H23522   2.165   6.210   6.485 -0.7098 -2.2021  0.5924
  915MOL0     H23523   2.024   6.126   6.880  2.2495 -0.0934 -0.7032
  915MOL0     H23524   1.713   6.107   6.169  2.0463 -1.4931 -0.4984
  915MOL0     H23525   1.799   6.078   5.947 -1.4344 -1.8191  2.8021
  916MOL0     O23526   2.914   0.502   7.299 -0.4153 -1.1628 -0.1708
  916MOL0     C23527   2.922   0.622   7.262  0.2358  0.2064  0.4760
  916MOL0     O23528   2.827   0.687   7.182  0.2747 -0.3109 -0.6163
  916MOL0     C23529   2.721   0.623   7.124  0.4477 -0.4565  0.5103
  916MOL0     C23530   2.747   0.513   7.048 -0.1770  0.6799  0.0437
  916MOL0     C23531   2.647   0.448   6.972 -0.6236 -0.1688 -0.1168
  916MOL0     C23532   2.514   0.498   6.979  0.5635  0.6502  0.1097
  916MOL0     O23533   2.424   0.431   6.896 -0.0787 -1.2018 -0.6119
  916MOL0     C23534   2.347   0.519   6.811 -0.9949  0.1646  0.3732
  916MOL0     C23535   2.199   0.536   6.864 -0.3983 -0.8383 -0.3013
  916MOL0     C23536   2.125   0.401   6.889 -1.2521 -0.1040 -0.0309
  916MOL0     C23537   1.988   0.414   6.814 -0.2254 -0.7674  0.0139
  916MOL0     C23538   1.887   0.297   6.827 -0.1212 -0.0301  0.0879
  916MOL0     C23539   1.822   0.281   6.965 -0.1001 -0.5495 -0.1077
  916MOL0     C23540   1.776   0.139   6.980 -0.5590 -0.2754 -0.1663
  916MOL0     C23541   1.661   0.082   6.905  0.0307  0.8247 -0.1037
  916MOL0     N23542   1.655  -0.066   6.938  0.6761  0.0321  0.9441
  916MOL0     C23543   1.602  -0.124   7.043 -0.2285 -0.6635 -0.0876
  916MOL0     C23544   1.652  -0.247   7.040 -0.2428 -0.2315  0.3759
  916MOL0     C23545   1.626  -0.354   7.139  0.0837 -0.9840 -1.2339
  916MOL0     C23546   1.701  -0.314   7.267  0.6235 -0.3155  0.2182
  916MOL0     C23547   1.678  -0.422   7.380  0.0857  0.3853  0.1062
  916MOL0     C23548   1.534  -0.445   7.433  0.6622 -0.7644 -0.5116
  916MOL0     O23549   1.472  -0.326   7.493  0.5045  0.0094  0.1421
  916MOL0     C23550   1.348  -0.353   7.524  1.0816 -0.2727  0.6699
  916MOL0     C23551   1.314  -0.418   7.645  0.4369  0.0284  0.0093
  916MOL0     C23552   1.185  -0.464   7.661  0.0742 -0.8773  0.2466
  916MOL0     C23553   1.146  -0.544   7.780  1.0874  0.1589 -0.9717
  916MOL0     C23554   1.089  -0.438   7.563 -0.1019 -0.0240 -0.4008
  916MOL0     C23555   0.949  -0.474   7.579 -0.8532  0.1703  1.2842
  916MOL0     O23556   0.920  -0.581   7.501  0.5071  0.3996 -0.0287
  916MOL0     C23557   0.793  -0.638   7.511  0.3419 -0.1559 -0.4258
  916MOL0     C23558   0.757  -0.706   7.625 -0.2940 -0.6244 -0.2872
  916MOL0     C23559   0.636  -0.761   7.644  0.4514 -0.2154 -0.3284
  916MOL0     C23560   0.537  -0.761   7.550 -0.4280 -0.3374  0.2315
  916MOL0     O23561   0.416  -0.823   7.574 -0.2805  0.1137 -0.0090
  916MOL0     C23562   0.347  -0.788   7.693 -0.5068  0.7223 -0.1679
  916MOL0     C23563   0.313  -0.651   7.724 -0.0493 -0.1030  0.3373
  916MOL0     C23564   0.172  -0.600   7.660  0.8478  0.0387 -0.1781
  916MOL0     C23565   0.171  -0.603   7.508  0.3298 -0.2799  0.7194
  916MOL0     C23566   0.043  -0.552   7.450  0.1784  0.0805 -0.1418
  916MOL0     C23567  -0.062  -0.660   7.460 -0.4810  0.1894 -0.5254
  916MOL0     C23568  -0.176  -0.608   7.372 -0.0360 -0.2184 -0.9370
  916MOL0     C23569  -0.313  -0.667   7.407 -0.1477 -0.7762 -0.0142
  916MOL0    Cl23570  -0.298  -0.833   7.334 -0.3949  0.2024  0.2096
  916MOL0     C23571   0.561  -0.678   7.436 -0.2675 -0.5063  0.2470
  916MOL0     C23572   0.695  -0.625   7.414  0.4973  0.0595  0.6329
  916MOL0     O23573   0.875  -0.411   7.654 -0.2620  0.1807 -0.8173
  916MOL0     C23574   1.130  -0.376   7.441  0.3920 -0.0470 -0.5747
  916MOL0     C23575   1.257  -0.341   7.420 -0.7772 -0.4876 -0.6400
  916MOL0     N23576   1.738  -0.266   6.933  0.2630 -0.0255  0.1018
  916MOL0     N23577   1.746  -0.152   6.871  0.0620  0.1881  0.1150
  916MOL0     C23578   2.484   0.603   7.064  0.5682  0.3470  0.5725
  916MOL0     C23579   2.586   0.661   7.127  0.2245 -0.4161  0.1546
  916MOL0     C23580   3.034   0.700   7.297  0.3554 -0.3121  0.4265
  916MOL0     C23581   3.132   0.647   7.374  0.1459  0.3753  0.3812
  916MOL0     C23582   3.250   0.716   7.399 -0.7586 -1.1763 -0.2717
  916MOL0     C23583   3.273   0.843   7.338 -0.4685  0.3778  0.0976
  916MOL0     O23584   3.385   0.913   7.376  0.5921  0.6163  0.3584
  916MOL0     C23585   3.423   1.046   7.327  1.1431  0.1804  0.0138
  916MOL0     C23586   3.357   1.156   7.411  0.0496  1.2365 -0.9878
  916MOL0     C23587   3.331   1.276   7.323  0.6228  0.5557  0.6587
  916MOL0     C23588   3.242   1.383   7.389  0.9189 -0.1890 -0.6237
  916MOL0     C23589   3.166   1.457   7.289 -0.0248 -0.0375  0.0972
  916MOL0     C23590   3.100   1.514   7.200  0.6141 -0.0709 -0.9357
  916MOL0     C23591   3.172   0.891   7.256 -1.3149  0.1288 -0.0674
  916MOL0     C23592   3.063   0.823   7.224  0.6504 -0.7298 -0.7521
  916MOL0     H23593   2.849   0.476   7.051  0.2290  1.3124 -2.7379
  916MOL0     H23594   2.657   0.351   6.924  1.2020 -1.0886  1.9713
  916MOL0     H23595   2.379   0.623   6.801 -1.7676  0.4356  0.6535
  916MOL0     H23596   2.341   0.464   6.717 -1.3235 -0.6710  0.8742
  916MOL0     H23597   2.199   0.582   6.963  1.5682  0.1095 -0.6951
  916MOL0     H23598   2.144   0.598   6.792 -2.0260 -1.8885 -0.0129
  916MOL0     H23599   2.191   0.324   6.848 -0.3448 -0.4289  1.9521
  916MOL0     H23600   2.104   0.373   6.993 -1.7572  0.4130  0.0115
  916MOL0     H23601   1.947   0.515   6.826  0.3379 -0.7666  2.6675
  916MOL0     H23602   2.003   0.420   6.706 -3.2950 -1.4440 -0.5540
  916MOL0     H23603   1.805   0.317   6.758 -0.0578  1.4607  0.4095
  916MOL0     H23604   1.936   0.206   6.790  0.9498  0.0995  1.0992
  916MOL0     H23605   1.891   0.311   7.044 -2.5311  3.4120  0.7494
  916MOL0     H23606   1.734   0.344   6.970 -0.8368 -1.6616  2.2470
  916MOL0     H23607   1.860   0.073   6.958 -0.0837 -0.3697  1.7550
  916MOL0     H23608   1.758   0.117   7.085  0.6329  0.2758  0.1784
  916MOL0     H23609   1.683   0.114   6.803  1.5925  1.0689  0.2851
  916MOL0     H23610   1.570   0.135   6.931  0.1561  0.3610  1.3395
  916MOL0     H23611   1.535  -0.066   7.106  1.9523  2.2765 -0.2626
  916MOL0     H23612   1.519  -0.369   7.155 -0.2744  1.0194 -1.4737
  916MOL0     H23613   1.673  -0.449   7.110  0.7859 -0.4292 -1.9615
  916MOL0     H23614   1.665  -0.219   7.308 -0.7050 -0.2088 -1.1345
  916MOL0     H23615   1.803  -0.293   7.235  0.8966  0.5048  1.5502
  916MOL0     H23616   1.754  -0.391   7.452 -1.8782  1.0824  1.9724
  916MOL0     H23617   1.701  -0.516   7.329  0.5744  0.5136  0.0860
  916MOL0     H23618   1.546  -0.533   7.497 -0.9504 -2.2147 -2.0865
  916MOL0     H23619   1.475  -0.467   7.344 -1.7632  1.5614  0.3686
  916MOL0     H23620   1.381  -0.444   7.725  0.6525 -1.3370 -0.5885
  916MOL0     H23621   1.077  -0.493   7.847  0.9657 -1.1533 -0.0556
  916MOL0     H23622   1.090  -0.637   7.762 -2.5375  1.6920  1.3337
  916MOL0     H23623   1.240  -0.566   7.831  0.2276 -1.4752  0.0209
  916MOL0     H23624   0.835  -0.691   7.699 -0.7557 -2.6031  0.6585
  916MOL0     H23625   0.638  -0.811   7.741 -0.7085 -1.0839 -0.7327
  916MOL0     H23626   0.247  -0.834   7.691  0.6181 -2.0435  1.2854
  916MOL0     H23627   0.401  -0.842   7.771 -2.1329 -2.5204 -1.1104
  916MOL0     H23628   0.288  -0.656   7.830  0.5423  0.4828  0.5110
  916MOL0     H23629   0.395  -0.579   7.721 -2.2407  2.5310 -1.1749
  916MOL0     H23630   0.143  -0.501   7.697 -0.7080  0.0029 -1.2202
  916MOL0     H23631   0.095  -0.664   7.703 -0.3006  2.0802  0.9725
  916MOL0     H23632   0.247  -0.536   7.468 -0.3509  0.1420  0.1072
  916MOL0     H23633   0.199  -0.702   7.471 -0.3023 -1.6740  3.6858
  916MOL0     H23634   0.059  -0.522   7.346 -1.9808  0.1710 -0.4932
  916MOL0     H23635   0.005  -0.468   7.508 -2.8967 -1.0316 -0.3898
  916MOL0     H23636  -0.026  -0.756   7.422 -1.3974 -0.7012  0.7857
  916MOL0     H23637  -0.085  -0.676   7.565  3.3444  0.1974  0.4632
  916MOL0     H23638  -0.151  -0.627   7.267  0.1260  2.4999 -1.4732
  916MOL0     H23639  -0.181  -0.499   7.378  2.8535 -0.0923  1.7773
  916MOL0     H23640  -0.376  -0.601   7.346  1.1680  0.3333 -0.2192
  916MOL0     H23641  -0.336  -0.657   7.513 -2.0987  0.5122 -0.5121
  916MOL0     H23642   0.492  -0.671   7.352  1.6728 -0.4301 -1.4449
  916MOL0     H23643   0.721  -0.563   7.329 -0.0636  1.4245  1.4211
  916MOL0     H23644   1.049  -0.358   7.371 -3.6128 -1.3025  3.2638
  916MOL0     H23645   1.286  -0.289   7.329 -2.8963  2.0080 -0.0230
  916MOL0     H23646   2.390   0.656   7.064  0.6591  0.5222 -0.4832
  916MOL0     H23647   2.569   0.753   7.183  4.4464 -0.2446  1.5072
  916MOL0     H23648   3.118   0.548   7.417 -2.7344 -0.0710 -1.3736
  916MOL0     H23649   3.330   0.678   7.461  1.1097  0.2821 -1.6747
  916MOL0     H23650   3.532   1.050   7.334  1.3565 -4.1683  2.5186
  916MOL0     H23651   3.404   1.057   7.220  2.1893  0.0543 -0.1893
  916MOL0     H23652   3.426   1.180   7.493  1.0813 -2.0085 -0.7760
  916MOL0     H23653   3.261   1.127   7.455 -1.1754  1.4383 -3.3615
  916MOL0     H23654   3.276   1.232   7.240 -0.2987 -1.0567  2.0553
  916MOL0     H23655   3.419   1.307   7.266 -1.3842  1.3242 -2.2101
  916MOL0     H23656   3.312   1.450   7.441  0.2017 -0.0724  0.2059
  916MOL0     H23657   3.170   1.352   7.465  0.1157  1.3890 -0.7053
  916MOL0     H23658   3.029   1.554   7.131  0.4306 -3.2932 -2.8042
  916MOL0     H23659   3.189   0.986   7.206  4.9734 -0.5726 -0.1388
  916MOL0     H23660   2.997   0.861   7.147  1.6938  0.4230 -1.1173
  917MOL0     O23661   3.858   3.076   2.988 -0.4067 -0.4209 -0.1160
  917MOL0     C23662   3.936   3.005   3.056  0.1345 -0.1606  0.2069
  917MOL0     O23663   3.898   2.953   3.173  0.5605  0.4347  0.5469
  917MOL0     C23664   3.779   2.977   3.228  0.3212 -0.3959  0.6248
  917MOL0     C23665   3.706   2.875   3.279 -0.1113  0.9192 -0.4785
  917MOL0     C23666   3.584   2.894   3.351  1.2346  0.0990  0.8800
  917MOL0     C23667   3.527   3.024   3.365 -0.0988  0.8831  0.5857
  917MOL0     O23668   3.408   3.055   3.424 -0.8907  0.1797 -0.6364
  917MOL0     C23669   3.296   2.967   3.407  0.9559  0.1446  0.1848
  917MOL0     C23670   3.158   3.022   3.435 -0.0712 -1.2439  0.2431
  917MOL0     C23671   3.140   3.140   3.330  0.1451  1.1983  0.6552
  917MOL0     C23672   3.018   3.222   3.374  0.2758  0.3653 -0.4008
  917MOL0     C23673   3.043   3.309   3.491 -0.7101 -0.7545 -1.2460
  917MOL0     C23674   2.934   3.329   3.607  0.0857  0.4154 -0.1926
  917MOL0     C23675   2.960   3.449   3.697  0.0526 -0.2076  0.1012
  917MOL0     C23676   2.849   3.463   3.801 -0.0957  0.4066  0.2449
  917MOL0     N23677   2.719   3.507   3.755  0.0208  0.0752 -0.2309
  917MOL0     C23678   2.708   3.624   3.690 -0.8017  0.4421 -0.1933
  917MOL0     C23679   2.586   3.630   3.639 -0.3383  0.0010  0.8191
  917MOL0     C23680   2.521   3.750   3.573  0.2776 -0.2563 -0.1947
  917MOL0     C23681   2.534   3.876   3.668 -0.1600 -0.2641  0.6537
  917MOL0     C23682   2.451   4.003   3.641  0.2932 -0.2127 -1.2537
  917MOL0     C23683   2.471   4.066   3.512  0.1831 -0.2322  0.3159
  917MOL0     O23684   2.599   4.127   3.493 -0.5161 -0.7315 -0.4481
  917MOL0     C23685   2.621   4.258   3.503  0.2883  0.4164  0.1835
  917MOL0     C23686   2.551   4.342   3.407 -0.2895 -0.9155  0.6986
  917MOL0     C23687   2.571   4.488   3.420  0.1314  0.5437 -0.0126
  917MOL0     C23688   2.513   4.576   3.309  0.7283  1.2776 -1.2547
  917MOL0     C23689   2.657   4.542   3.514 -0.1327 -0.4858 -0.3634
  917MOL0     C23690   2.706   4.685   3.511 -0.0778  0.6255  0.2596
  917MOL0     O23691   2.842   4.693   3.549  0.8829  0.2437  0.4987
  917MOL0     C23692   2.897   4.812   3.565 -0.9486  0.1646  0.1715
  917MOL0     C23693   3.037   4.830   3.518 -0.1908  0.3053  0.6493
  917MOL0     C23694   3.099   4.954   3.524  0.1622  0.0273  0.1309
  917MOL0     C23695   3.026   5.052   3.591 -0.3138  0.4991  0.4022
  917MOL0     O23696   3.093   5.177   3.603  0.1061  0.8307 -0.3240
  917MOL0     C23697   3.233   5.178   3.641  0.3617  0.3002 -0.3405
  917MOL0     C23698   3.271   5.324   3.675  0.1560 -0.2334 -0.1277
  917MOL0     C23699   3.339   5.388   3.562  0.2172  0.8311 -0.0354
  917MOL0     C23700   3.490   5.358   3.576 -0.2662  0.0528  0.3123
  917MOL0     C23701   3.568   5.425   3.454 -0.1136  1.3132  0.6456
  917MOL0     C23702   3.709   5.370   3.450  0.0984 -0.5339  0.1317
  917MOL0     C23703   3.804   5.469   3.389 -0.2053 -1.3943  0.0120
  917MOL0     C23704   3.952   5.428   3.401  0.3494 -0.1227  0.8106
  917MOL0    Cl23705   3.990   5.263   3.333  0.0344 -0.3589 -0.2388
  917MOL0     C23706   2.908   5.035   3.656 -0.2494 -0.2097 -0.5412
  917MOL0     C23707   2.835   4.918   3.642 -1.2522 -0.4533 -0.1077
  917MOL0     O23708   2.642   4.779   3.474 -0.5459  0.3887 -0.1543
  917MOL0     C23709   2.714   4.456   3.604 -1.1260 -0.4692  1.0495
  917MOL0     C23710   2.701   4.321   3.597  0.5668  0.0030 -0.2815
  917MOL0     N23711   2.526   3.511   3.666  0.6918 -0.2363 -0.5314
  917MOL0     N23712   2.613   3.432   3.732  0.0030 -0.5674  0.0839
  917MOL0     C23713   3.606   3.123   3.298  0.3439  0.7368 -0.3464
  917MOL0     C23714   3.730   3.100   3.236  0.1594  0.1087 -0.0532
  917MOL0     C23715   4.062   2.950   2.999  0.0785 -0.4894 -0.1143
  917MOL0     C23716   4.139   2.853   3.058 -0.1395  0.1418 -0.6505
  917MOL0     C23717   4.267   2.802   3.021 -0.0031 -0.3015  0.2357
  917MOL0     C23718   4.314   2.863   2.909  0.2063 -0.4180 -0.2084
  917MOL0     O23719   4.438   2.809   2.863  1.0761  0.0365  0.2241
  917MOL0     C23720   4.466   2.833   2.727 -0.7823  0.4704 -0.7728
  917MOL0     C23721   4.517   2.699   2.652 -1.4354 -0.7470 -0.0865
  917MOL0     C23722   4.653   2.638   2.697  0.2620 -0.3044 -0.2039
  917MOL0     C23723   4.776   2.728   2.695 -0.1009 -0.0692 -0.4152
  917MOL0     C23724   4.814   2.738   2.552 -0.1352  0.4802 -0.5308
  917MOL0     C23725   4.839   2.755   2.437 -0.5451  0.0111 -1.0239
  917MOL0     C23726   4.248   2.972   2.857 -0.1060 -0.0393  0.9830
  917MOL0     C23727   4.132   3.015   2.903  0.2226  0.1584 -0.3472
  917MOL0     H23728   3.755   2.778   3.276 -4.5639 -1.5796 -1.4730
  917MOL0     H23729   3.534   2.809   3.396  3.9098 -1.7474  0.5693
  917MOL0     H23730   3.295   2.929   3.304 -0.6161 -2.8021  1.1515
  917MOL0     H23731   3.303   2.886   3.480 -0.5063 -1.8652 -1.7668
  917MOL0     H23732   3.077   2.948   3.432 -0.5631 -0.7597  1.0482
  917MOL0     H23733   3.159   3.075   3.531  1.2359  0.0403 -0.4374
  917MOL0     H23734   3.227   3.205   3.323  0.9463  0.4708  2.9063
  917MOL0     H23735   3.113   3.102   3.231  1.3164  1.5601  0.1835
  917MOL0     H23736   2.980   3.286   3.294  0.7026 -0.9923 -1.7300
  917MOL0     H23737   2.937   3.152   3.395  0.2954 -0.4011 -2.6283
  917MOL0     H23738   3.134   3.276   3.543 -1.8941  0.3598  1.7587
  917MOL0     H23739   3.051   3.407   3.443 -2.9003 -0.6946 -1.5990
  917MOL0     H23740   2.842   3.351   3.551  1.0287  0.3973 -1.8115
  917MOL0     H23741   2.912   3.242   3.670  1.0057 -0.7243 -1.3935
  917MOL0     H23742   3.056   3.437   3.748 -0.7151  0.9009  1.9259
  917MOL0     H23743   2.979   3.531   3.627 -0.5401  1.5337  1.8876
  917MOL0     H23744   2.880   3.539   3.874  2.3546 -2.0850  2.0167
  917MOL0     H23745   2.833   3.366   3.850 -1.2564  0.8796  0.8480
  917MOL0     H23746   2.776   3.708   3.701 -0.8136  0.4802 -0.4140
  917MOL0     H23747   2.559   3.779   3.475  0.9473  1.0621  0.4192
  917MOL0     H23748   2.413   3.739   3.576  0.3794 -1.1715  2.2720
  917MOL0     H23749   2.635   3.916   3.660 -0.9266  2.0450  1.5642
  917MOL0     H23750   2.520   3.836   3.769  0.0332 -2.1355 -0.0218
  917MOL0     H23751   2.474   4.065   3.728 -0.9693 -2.8835  1.1444
  917MOL0     H23752   2.343   3.991   3.654 -0.1213  0.8521 -3.2296
  917MOL0     H23753   2.405   4.151   3.497 -1.3908 -1.4822 -0.0974
  917MOL0     H23754   2.453   3.993   3.432 -1.5923 -0.1328  0.5921
  917MOL0     H23755   2.494   4.297   3.326 -0.5026 -1.1462  0.9764
  917MOL0     H23756   2.496   4.524   3.214  1.7307 -0.0922 -0.7154
  917MOL0     H23757   2.425   4.638   3.331  0.3099 -0.3243  2.3399
  917MOL0     H23758   2.586   4.649   3.274  1.4208  1.1929 -0.0542
  917MOL0     H23759   3.090   4.754   3.462 -0.6947 -1.1895  2.0928
  917MOL0     H23760   3.199   4.972   3.485  0.5996  1.2490  1.7619
  917MOL0     H23761   3.252   5.116   3.729  3.1026  1.0555 -0.3100
  917MOL0     H23762   3.279   5.124   3.557 -1.4317 -3.2771  0.8019
  917MOL0     H23763   3.182   5.378   3.710  1.6174  2.4024 -0.2937
  917MOL0     H23764   3.345   5.334   3.754  1.5023  2.8555 -1.6011
  917MOL0     H23765   3.329   5.497   3.561 -2.0123  0.7344  2.2645
  917MOL0     H23766   3.312   5.352   3.462  1.8129 -0.9085  0.0922
  917MOL0     H23767   3.530   5.393   3.672  0.1917  0.7018 -0.1054
  917MOL0     H23768   3.507   5.250   3.573 -1.8584 -0.3053  1.9389
  917MOL0     H23769   3.569   5.533   3.468 -0.2453  1.3200  0.6061
  917MOL0     H23770   3.537   5.405   3.351  1.1594  2.3040  0.0442
  917MOL0     H23771   3.732   5.338   3.552 -0.4844 -2.7340 -0.3706
  917MOL0     H23772   3.711   5.286   3.379  2.2358  2.1002 -3.2671
  917MOL0     H23773   3.787   5.564   3.439 -0.4395 -1.3950 -0.0672
  917MOL0     H23774   3.785   5.483   3.283  1.0694 -1.3424 -0.2309
  917MOL0     H23775   3.985   5.429   3.505  2.2568 -0.8937  0.2565
  917MOL0     H23776   4.019   5.504   3.359  2.3625 -2.0442  0.3824
  917MOL0     H23777   2.883   5.121   3.717 -1.9631 -0.0476 -1.4054
  917MOL0     H23778   2.739   4.898   3.686 -4.1875  1.2494 -4.9554
  917MOL0     H23779   2.792   4.493   3.669 -0.1927  0.9334 -0.7780
  917MOL0     H23780   2.754   4.260   3.669 -0.5104 -0.3227  0.2464
  917MOL0     H23781   3.549   3.213   3.276 -3.0766 -1.0394  0.4771
  917MOL0     H23782   3.781   3.184   3.189  0.1499 -0.0305 -0.3091
  917MOL0     H23783   4.099   2.809   3.149 -0.7244 -2.5943 -2.1272
  917MOL0     H23784   4.300   2.713   3.074 -0.2666 -0.0278  0.8736
  917MOL0     H23785   4.376   2.862   2.672 -0.3694 -0.8371 -2.2058
  917MOL0     H23786   4.536   2.916   2.712  0.7248 -0.4455  0.8484
  917MOL0     H23787   4.515   2.713   2.543  2.4085  0.2262 -0.1774
  917MOL0     H23788   4.445   2.619   2.672 -2.0863 -0.1220  0.1257
  917MOL0     H23789   4.692   2.552   2.642  0.0329 -1.9740  2.0874
  917MOL0     H23790   4.635   2.613   2.802 -0.7291  3.7056  0.7456
  917MOL0     H23791   4.856   2.692   2.760  0.6847 -2.3717 -2.5059
  917MOL0     H23792   4.749   2.825   2.737  1.6881  0.6579 -0.8687
  917MOL0     H23793   4.854   2.760   2.331  2.1589 -1.1137 -0.7738
  917MOL0     H23794   4.292   3.030   2.776  2.2931 -1.2760  1.3020
  917MOL0     H23795   4.103   3.108   2.857  3.1399  0.3588 -1.9539
  918MOL0     O23796   0.685   9.436   8.747 -0.5149 -0.8441 -0.0686
  918MOL0     C23797   0.736   9.462   8.861 -0.1864  0.6488  0.4941
  918MOL0     O23798   0.666   9.449   8.977  0.9884 -0.5339 -0.1346
  918MOL0     C23799   0.539   9.395   8.979  0.0272 -0.2672 -0.4892
  918MOL0     C23800   0.431   9.443   8.899  0.7582 -0.0493  0.7230
  918MOL0     C23801   0.312   9.376   8.899 -0.7185 -0.1494  0.4163
  918MOL0     C23802   0.273   9.284   8.996 -0.2385  0.6692 -0.1352
  918MOL0     O23803   0.136   9.246   8.989 -0.0621 -0.0412  0.1840
  918MOL0     C23804   0.094   9.167   9.099  0.2892 -0.1066  0.0850
  918MOL0     C23805  -0.057   9.136   9.085 -0.3625  0.2239  0.5552
  918MOL0     C23806  -0.072   9.044   8.962 -0.9624 -0.0568  0.1671
  918MOL0     C23807  -0.216   8.983   8.969  0.1746 -0.3794  0.1291
  918MOL0     C23808  -0.253   8.903   8.842  0.2371 -0.8953 -0.1082
  918MOL0     C23809  -0.167   8.774   8.851  0.4462 -0.8853  0.7588
  918MOL0     C23810  -0.183   8.690   8.723 -0.5003 -0.0506  0.3765
  918MOL0     C23811  -0.163   8.537   8.752  0.4585 -0.5175  0.0705
  918MOL0     N23812  -0.212   8.453   8.642 -0.1105  0.1195 -0.6714
  918MOL0     C23813  -0.157   8.409   8.525 -0.4164  0.7151  0.0108
  918MOL0     C23814  -0.260   8.366   8.450  0.0737 -0.6759  0.2863
  918MOL0     C23815  -0.257   8.302   8.317  0.0133  0.7917  0.1217
  918MOL0     C23816  -0.193   8.379   8.200 -1.0946 -0.1432 -1.0016
  918MOL0     C23817  -0.054   8.441   8.205 -0.3405  0.5047  0.4308
  918MOL0     C23818  -0.028   8.558   8.108 -0.6136  0.2957 -0.8160
  918MOL0     O23819  -0.090   8.677   8.136 -0.7160  0.5216  0.3714
  918MOL0     C23820  -0.048   8.762   8.237 -1.0863  0.3272  0.0988
  918MOL0     C23821   0.077   8.753   8.302  0.4580 -0.0558  0.4779
  918MOL0     C23822   0.123   8.848   8.393 -0.8322  0.0917 -0.3660
  918MOL0     C23823   0.258   8.829   8.445  0.2555 -0.7181  0.8768
  918MOL0     C23824   0.042   8.966   8.400 -0.8248 -0.0799 -0.8537
  918MOL0     C23825   0.085   9.095   8.463  0.3873  0.1471  1.0002
  918MOL0     O23826  -0.023   9.184   8.476 -0.2390  0.1513  0.4382
  918MOL0     C23827  -0.007   9.287   8.568  0.1286  0.8080 -0.2249
  918MOL0     C23828   0.075   9.394   8.543  0.1481  0.1256 -0.4327
  918MOL0     C23829   0.069   9.505   8.623 -0.3976  0.4914 -0.4080
  918MOL0     C23830  -0.018   9.502   8.737 -0.3206  0.6448 -0.0395
  918MOL0     O23831  -0.032   9.596   8.837  0.3334 -0.5114  0.5614
  918MOL0     C23832   0.028   9.728   8.818  0.0465  0.2638 -0.3943
  918MOL0     C23833   0.172   9.732   8.859  0.0495  0.3593 -0.7943
  918MOL0     C23834   0.179   9.715   9.010 -0.7061  0.3424  0.1868
  918MOL0     C23835   0.294   9.799   9.073 -0.2993  0.1116 -0.7981
  918MOL0     C23836   0.279   9.798   9.228 -0.7866  0.6982 -0.1803
  918MOL0     C23837   0.271   9.651   9.287 -1.0139 -0.3575 -0.1077
  918MOL0     C23838   0.294   9.652   9.441 -0.7979 -0.4723  0.2905
  918MOL0     C23839   0.228   9.529   9.504  0.0636 -0.1309  0.7477
  918MOL0    Cl23840   0.273   9.517   9.675 -0.1395 -0.4406  0.0935
  918MOL0     C23841  -0.100   9.394   8.758 -0.4935  0.1610  0.6343
  918MOL0     C23842  -0.096   9.286   8.669 -0.0763 -0.0579 -0.2176
  918MOL0     O23843   0.197   9.113   8.517  0.0840  0.3096  0.5800
  918MOL0     C23844  -0.084   8.972   8.343  0.4562 -0.2143 -0.9261
  918MOL0     C23845  -0.128   8.877   8.258 -0.7228  0.6388  0.2509
  918MOL0     N23846  -0.374   8.377   8.526  0.1488  0.3888  0.7851
  918MOL0     N23847  -0.350   8.423   8.641  0.4053  0.3998 -0.6605
  918MOL0     C23848   0.374   9.239   9.079  0.3036  0.2911  0.1529
  918MOL0     C23849   0.506   9.295   9.073 -0.8049  0.8239  0.1956
  918MOL0     C23850   0.878   9.503   8.851  0.9359  0.3380  0.2424
  918MOL0     C23851   0.953   9.476   8.738 -0.1221  0.2782  0.6360
  918MOL0     C23852   1.088   9.533   8.729  0.7387  0.3417 -1.1448
  918MOL0     C23853   1.158   9.586   8.839  0.6466 -0.4764  0.6512
  918MOL0     O23854   1.288   9.621   8.824 -0.5733  0.4748  0.3571
  918MOL0     C23855   1.342   9.714   8.916  1.2040  0.5526 -0.9550
  918MOL0     C23856   1.476   9.767   8.861  0.2580  0.1519 -0.0037
  918MOL0     C23857   1.470   9.834   8.720  0.4257  0.5451 -0.3923
  918MOL0     C23858   1.607   9.906   8.691  0.2800 -0.9771 -0.9462
  918MOL0     C23859   1.616  10.036   8.763 -0.7799 -1.0010  0.4818
  918MOL0     C23860   1.631  10.150   8.817  0.9555  1.2851 -0.1423
  918MOL0     C23861   1.077   9.617   8.954  0.4412  0.7453  0.1400
  918MOL0     C23862   0.943   9.575   8.952 -0.3955  1.1326 -0.4364
  918MOL0     H23863   0.436   9.538   8.846 -1.3827  0.2714  0.9881
  918MOL0     H23864   0.234   9.424   8.841  0.3971  2.7465  1.1160
  918MOL0     H23865   0.155   9.077   9.090  0.1264 -0.2364  0.2778
  918MOL0     H23866   0.115   9.224   9.189 -1.9982  0.4825  0.3231
  918MOL0     H23867  -0.096   9.090   9.176  0.7834 -1.1043  0.4239
  918MOL0     H23868  -0.110   9.229   9.066 -2.3951 -0.8579  0.5759
  918MOL0     H23869  -0.051   9.102   8.871 -0.2103 -0.3607  0.1469
  918MOL0     H23870  -0.001   8.963   8.974 -0.2442  0.6785  1.0175
  918MOL0     H23871  -0.229   8.925   9.061 -0.0896 -2.2675 -1.0557
  918MOL0     H23872  -0.292   9.062   8.974  0.9050  0.2807  2.8495
  918MOL0     H23873  -0.360   8.886   8.827  0.1541  1.5435 -3.2842
  918MOL0     H23874  -0.225   8.971   8.762  0.5819  0.0623  0.8086
  918MOL0     H23875  -0.063   8.803   8.867  0.0478  0.5865  0.9226
  918MOL0     H23876  -0.205   8.711   8.931 -0.4990 -1.4174 -0.0869
  918MOL0     H23877  -0.287   8.696   8.689  0.2729 -0.6678 -2.3583
  918MOL0     H23878  -0.116   8.725   8.644  1.4690 -0.1382  1.9298
  918MOL0     H23879  -0.223   8.517   8.841 -0.3600 -4.6097 -1.1785
  918MOL0     H23880  -0.063   8.503   8.782 -1.2400 -3.8499  2.5518
  918MOL0     H23881  -0.051   8.413   8.501 -0.6581 -1.1364 -1.6405
  918MOL0     H23882  -0.187   8.219   8.329 -0.3094  0.1703 -1.8770
  918MOL0     H23883  -0.349   8.251   8.287  1.9080 -2.9116  0.1487
  918MOL0     H23884  -0.258   8.466   8.187  1.5454  2.1103  0.0039
  918MOL0     H23885  -0.196   8.328   8.103 -0.5344  0.2713 -1.2414
  918MOL0     H23886   0.020   8.363   8.184 -1.1495  0.4302 -2.5962
  918MOL0     H23887  -0.027   8.489   8.300  2.7285  0.5065 -0.3288
  918MOL0     H23888  -0.075   8.530   8.013 -2.6639 -0.1570  0.2870
  918MOL0     H23889   0.074   8.578   8.074 -0.4168 -0.8222 -0.9330
  918MOL0     H23890   0.144   8.672   8.275 -1.4009 -2.3449  2.2746
  918MOL0     H23891   0.278   8.893   8.531 -1.2752 -0.3394  0.9851
  918MOL0     H23892   0.278   8.727   8.478 -0.2789 -1.3127 -0.5631
  918MOL0     H23893   0.331   8.862   8.370 -1.8782 -0.1984 -1.1145
  918MOL0     H23894   0.143   9.387   8.458  0.8813 -3.1986  0.2907
  918MOL0     H23895   0.143   9.581   8.597 -2.1861  2.1948 -0.7298
  918MOL0     H23896   0.010   9.767   8.717  1.5687  2.9592  0.2715
  918MOL0     H23897  -0.032   9.805   8.868 -1.7635  1.0331 -3.4560
  918MOL0     H23898   0.229   9.663   8.796 -1.2740 -0.3728 -1.2232
  918MOL0     H23899   0.213   9.830   8.835  0.3343  0.1287 -1.2522
  918MOL0     H23900   0.162   9.610   9.038  0.0751 -0.4033 -1.8995
  918MOL0     H23901   0.094   9.770   9.051  0.6984  0.7333  2.7709
  918MOL0     H23902   0.393   9.756   9.059 -1.1554 -1.9508 -0.8573
  918MOL0     H23903   0.306   9.901   9.037  2.1641  0.2156  0.0713
  918MOL0     H23904   0.192   9.861   9.246 -0.2241  1.3502  0.2563
  918MOL0     H23905   0.368   9.849   9.266  1.5288  0.1748 -4.2395
  918MOL0     H23906   0.177   9.605   9.254 -0.3031 -0.5372 -2.0148
  918MOL0     H23907   0.349   9.591   9.240 -1.0154 -0.5368  0.1183
  918MOL0     H23908   0.258   9.741   9.494  1.0005 -1.5079  3.5047
  918MOL0     H23909   0.401   9.648   9.465 -1.1623 -0.7806  1.9933
  918MOL0     H23910   0.264   9.437   9.457  0.8146  0.2814  0.5055
  918MOL0     H23911   0.119   9.538   9.500  0.2799  4.5573 -2.7505
  918MOL0     H23912  -0.158   9.368   8.846  0.3581 -0.6313  0.9779
  918MOL0     H23913  -0.158   9.198   8.680 -1.6900  1.1412  0.6702
  918MOL0     H23914  -0.145   9.060   8.359 -0.2604 -1.1177  1.6897
  918MOL0     H23915  -0.216   8.893   8.197 -1.9262 -3.1716  0.7326
  918MOL0     H23916   0.348   9.164   9.153  1.6027 -0.1885  0.1575
  918MOL0     H23917   0.589   9.266   9.136 -0.4626 -0.5502 -0.8376
  918MOL0     H23918   0.921   9.410   8.659  0.8689 -0.4871  0.8608
  918MOL0     H23919   1.147   9.512   8.640  0.6584  1.8878 -1.5963
  918MOL0     H23920   1.262   9.789   8.921  0.0485 -0.5738 -1.9660
  918MOL0     H23921   1.360   9.676   9.017 -1.9946  0.6756 -0.2172
  918MOL0     H23922   1.541   9.679   8.868 -1.4177 -1.1543 -0.2847
  918MOL0     H23923   1.498   9.838   8.942 -1.3076 -2.0192  2.5133
  918MOL0     H23924   1.400   9.918   8.720 -0.5345 -0.2489 -0.4772
  918MOL0     H23925   1.437   9.763   8.644  1.0609  1.0349 -1.1494
  918MOL0     H23926   1.613   9.923   8.583 -1.9573  2.7104 -0.6760
  918MOL0     H23927   1.698   9.847   8.707  2.4101  1.7835 -2.0771
  918MOL0     H23928   1.623  10.237   8.879 -0.8321 -0.4747  2.2769
  918MOL0     H23929   1.116   9.662   9.045  0.3458  1.6306 -0.2481
  918MOL0     H23930   0.877   9.605   9.032 -1.3734 -0.9012 -0.4228
  919MOL0     O23931   6.657   3.057   5.779  0.0895 -0.2220  0.3973
  919MOL0     C23932   6.743   2.986   5.826 -0.3324  0.0180  0.7444
  919MOL0     O23933   6.780   2.982   5.961 -0.6572  0.1088  1.0877
  919MOL0     C23934   6.724   3.073   6.049 -0.2936  0.2986  0.7344
  919MOL0     C23935   6.718   3.049   6.189  0.3792 -0.7558 -0.1477
  919MOL0     C23936   6.653   3.149   6.275  0.3055  0.1434  0.4114
  919MOL0     C23937   6.609   3.276   6.228 -0.3941 -0.9519  0.2757
  919MOL0     O23938   6.572   3.377   6.309 -0.1871  0.0239  0.5444
  919MOL0     C23939   6.466   3.342   6.397  0.1679 -0.1532  0.3910
  919MOL0     C23940   6.514   3.353   6.542  0.7350  1.2796  0.4817
  919MOL0     C23941   6.553   3.496   6.584 -0.6141 -0.1731 -0.9272
  919MOL0     C23942   6.613   3.504   6.733  0.5000  0.8550 -0.4169
  919MOL0     C23943   6.635   3.644   6.782  0.2950 -0.9297 -0.7328
  919MOL0     C23944   6.742   3.658   6.893  0.4821 -0.3852  0.0171
  919MOL0     C23945   6.707   3.763   7.001  0.6920 -0.1763  0.5564
  919MOL0     C23946   6.586   3.724   7.089 -0.1434  0.5530  0.7405
  919MOL0     N23947   6.617   3.609   7.181  0.7264 -0.1557  0.9018
  919MOL0     C23948   6.564   3.598   7.308 -0.5050 -0.6004  0.1261
  919MOL0     C23949   6.643   3.512   7.371 -0.2397 -0.1387 -0.0708
  919MOL0     C23950   6.628   3.471   7.514  0.4826 -0.1613  0.4134
  919MOL0     C23951   6.681   3.591   7.595 -0.6302  0.1276  0.1145
  919MOL0     C23952   6.674   3.565   7.744 -0.0649 -0.0070  0.1131
  919MOL0     C23953   6.698   3.682   7.836  0.3869 -0.0990  0.1080
  919MOL0     O23954   6.834   3.728   7.815  0.5584 -0.0279 -1.0675
  919MOL0     C23955   6.892   3.803   7.915 -0.2906 -0.6138  0.3676
  919MOL0     C23956   7.030   3.811   7.922  0.2528 -0.1327  0.0051
  919MOL0     C23957   7.100   3.904   8.011  0.0354  0.4913 -0.0450
  919MOL0     C23958   7.246   3.896   8.029  0.5631 -0.2344 -0.0587
  919MOL0     C23959   7.014   3.995   8.090 -1.1184  0.4992 -0.3974
  919MOL0     C23960   7.060   4.091   8.199 -0.7010  0.0851 -0.6830
  919MOL0     O23961   6.956   4.155   8.248  0.0717 -0.2257  0.1737
  919MOL0     C23962   6.975   4.235   8.360 -0.7145  0.0056  0.5285
  919MOL0     C23963   6.881   4.223   8.462  0.1070  1.0166 -0.6295
  919MOL0     C23964   6.887   4.299   8.582 -0.5907  0.1911  0.8775
  919MOL0     C23965   6.996   4.385   8.600 -0.6153  0.8406 -0.7041
  919MOL0     O23966   6.983   4.475   8.708  1.1343  0.2910  0.8834
  919MOL0     C23967   7.101   4.494   8.787  0.5211 -0.0940  0.8079
  919MOL0     C23968   7.060   4.526   8.928 -0.1312  0.0049  0.0210
  919MOL0     C23969   7.170   4.555   9.028 -0.2302  0.2932  0.2216
  919MOL0     C23970   7.117   4.581   9.163  0.2249 -0.2506  0.0283
  919MOL0     C23971   7.231   4.589   9.263  0.1193 -0.9920 -0.1571
  919MOL0     C23972   7.180   4.585   9.404  0.3558 -0.1865 -0.3892
  919MOL0     C23973   7.280   4.593   9.526  0.4912 -0.3459 -0.9848
  919MOL0     C23974   7.238   4.693   9.639 -0.1776 -1.0341 -0.0171
  919MOL0    Cl23975   7.382   4.716   9.748  0.4182  0.6112  0.1967
  919MOL0     C23976   7.087   4.412   8.495 -0.0945 -0.7111  1.3215
  919MOL0     C23977   7.071   4.343   8.375  0.4771  0.1981  0.2231
  919MOL0     O23978   7.173   4.082   8.258  0.8518 -0.4139  0.7441
  919MOL0     C23979   6.871   3.977   8.070  0.4798 -0.7514  0.0454
  919MOL0     C23980   6.817   3.889   7.987 -0.0220  1.0337  0.0316
  919MOL0     N23981   6.742   3.480   7.284 -0.6633 -0.6082  0.7951
  919MOL0     N23982   6.729   3.536   7.174  0.7168 -0.2459  0.4657
  919MOL0     C23983   6.637   3.303   6.099 -0.3670 -0.0450 -1.0275
  919MOL0     C23984   6.700   3.204   6.007  0.2015 -0.7941 -0.3351
  919MOL0     C23985   6.789   2.876   5.736 -0.2036 -0.5238  0.2600
  919MOL0     C23986   6.780   2.887   5.594  0.5165 -0.0411  0.8469
  919MOL0     C23987   6.820   2.779   5.510 -0.1660 -1.3111  0.1572
  919MOL0     C23988   6.863   2.665   5.570 -0.7694 -1.3962 -0.9895
  919MOL0     O23989   6.907   2.556   5.498  0.3626  0.3706  0.0354
  919MOL0     C23990   6.889   2.534   5.355 -0.0581 -0.1973 -0.7183
  919MOL0     C23991   6.742   2.513   5.320  0.2316 -0.1322  0.1757
  919MOL0     C23992   6.672   2.398   5.397  0.0679 -0.5073 -0.6090
  919MOL0     C23993   6.554   2.449   5.487 -0.5652  0.0529 -0.0628
  919MOL0     C23994   6.454   2.539   5.428 -0.7186 -0.3818  0.8194
  919MOL0     C23995   6.391   2.623   5.366  0.6624 -0.2565 -0.8154
  919MOL0     C23996   6.871   2.656   5.710  0.9180 -0.0164 -0.3235
  919MOL0     C23997   6.841   2.759   5.791 -0.2092  0.7309  0.2083
  919MOL0     H23998   6.728   2.948   6.227  1.1908 -0.4530  0.4748
  919MOL0     H23999   6.615   3.108   6.368 -0.1376 -3.7750 -1.3067
  919MOL0     H24000   6.389   3.417   6.376  0.2133 -0.8285 -2.7725
  919MOL0     H24001   6.409   3.253   6.366 -1.1333  1.6359 -2.8766
  919MOL0     H24002   6.433   3.324   6.608  0.5730 -0.1833 -0.3256
  919MOL0     H24003   6.586   3.271   6.553 -0.4617  0.1043 -0.2407
  919MOL0     H24004   6.633   3.529   6.517  0.1633 -1.0067 -0.4411
  919MOL0     H24005   6.473   3.570   6.578 -0.5056 -0.0603 -0.9981
  919MOL0     H24006   6.555   3.448   6.807 -2.3336 -0.1773 -3.1374
  919MOL0     H24007   6.712   3.459   6.727  0.1056 -0.4617  1.9203
  919MOL0     H24008   6.660   3.707   6.696  2.4746  0.5556  0.8647
  919MOL0     H24009   6.540   3.686   6.817  0.4888 -0.6156 -0.5763
  919MOL0     H24010   6.761   3.560   6.938 -3.1756 -1.4408 -0.3871
  919MOL0     H24011   6.832   3.686   6.838  0.8554 -1.3694  0.1135
  919MOL0     H24012   6.790   3.788   7.068  1.7183 -0.2097 -0.6717
  919MOL0     H24013   6.687   3.860   6.955 -1.5482  0.0572  1.8768
  919MOL0     H24014   6.505   3.684   7.028  1.1760 -1.2504  0.0801
  919MOL0     H24015   6.544   3.809   7.143 -2.5473 -0.3756  0.4452
  919MOL0     H24016   6.477   3.644   7.353 -1.2545 -2.4246  0.6342
  919MOL0     H24017   6.522   3.444   7.511  0.8198 -1.5553  0.0620
  919MOL0     H24018   6.685   3.384   7.549 -2.3621 -3.6593 -2.7072
  919MOL0     H24019   6.637   3.687   7.567 -0.3890 -0.6441 -3.3353
  919MOL0     H24020   6.785   3.601   7.560 -0.7405 -2.7372 -1.3072
  919MOL0     H24021   6.751   3.491   7.766  2.1739  1.8229 -1.0484
  919MOL0     H24022   6.571   3.534   7.765  0.3124  1.3116  5.2429
  919MOL0     H24023   6.684   3.643   7.938  1.8800 -1.4688 -0.1753
  919MOL0     H24024   6.625   3.763   7.829 -1.8916 -1.6814  2.8361
  919MOL0     H24025   7.079   3.737   7.860  0.5869 -1.5536  1.8695
  919MOL0     H24026   7.289   3.849   7.940 -2.8673  0.6423 -2.3570
  919MOL0     H24027   7.278   4.001   8.029 -3.7737  1.2612 -0.1310
  919MOL0     H24028   7.274   3.848   8.124  5.1187  0.5636 -0.7709
  919MOL0     H24029   6.803   4.152   8.439  1.0246 -0.4562  0.6119
  919MOL0     H24030   6.816   4.294   8.664  0.4552  1.0406  1.8662
  919MOL0     H24031   7.171   4.412   8.773 -0.1721 -0.5352 -0.1493
  919MOL0     H24032   7.150   4.589   8.764 -0.8511  0.5302  0.3733
  919MOL0     H24033   6.995   4.613   8.917 -0.5426 -0.3185 -0.1400
  919MOL0     H24034   7.015   4.428   8.944 -0.7697 -0.4875 -3.7856
  919MOL0     H24035   7.230   4.642   8.998 -1.7238  0.9160 -1.1067
  919MOL0     H24036   7.232   4.465   9.028 -2.5427 -1.5050 -3.1982
  919MOL0     H24037   7.067   4.679   9.166 -0.0147 -0.3720  2.5796
  919MOL0     H24038   7.052   4.496   9.183  1.3421 -1.1474 -0.0937
  919MOL0     H24039   7.278   4.687   9.250 -0.7253 -0.1406  2.4889
  919MOL0     H24040   7.305   4.511   9.245  0.7907 -0.6168  0.9249
  919MOL0     H24041   7.105   4.664   9.415 -0.9416 -1.5575  1.3373
  919MOL0     H24042   7.121   4.493   9.415 -0.3222  0.3289  0.4648
  919MOL0     H24043   7.385   4.590   9.495  0.3785 -2.0444 -1.2671
  919MOL0     H24044   7.269   4.499   9.579 -0.0522 -1.0748 -2.3428
  919MOL0     H24045   7.143   4.667   9.685 -1.9667  1.6985 -1.8377
  919MOL0     H24046   7.210   4.792   9.602 -2.3512 -1.0171  1.4662
  919MOL0     H24047   7.159   4.493   8.504 -1.6469  0.6472  2.0242
  919MOL0     H24048   7.137   4.358   8.290  3.1701 -3.2877  1.4621
  919MOL0     H24049   6.798   4.038   8.123 -0.8652 -4.1359  2.4583
  919MOL0     H24050   6.708   3.891   7.985 -0.1280 -0.7630  1.2571
  919MOL0     H24051   6.605   3.398   6.057  1.4268  1.1853  0.2582
  919MOL0     H24052   6.719   3.233   5.904  2.4751 -2.3245 -0.4163
  919MOL0     H24053   6.719   2.970   5.559  1.2909  0.0454 -0.3732
  919MOL0     H24054   6.806   2.784   5.402 -0.3196 -2.1230  0.1350
  919MOL0     H24055   6.942   2.603   5.290  1.3565 -0.8401 -0.2950
  919MOL0     H24056   6.941   2.441   5.331  0.4391  0.0609 -0.6450
  919MOL0     H24057   6.732   2.484   5.214 -2.3644  4.2492 -1.0152
  919MOL0     H24058   6.695   2.610   5.337  2.6274  1.0514  0.5550
  919MOL0     H24059   6.744   2.352   5.467 -1.0657 -1.4995 -0.0500
  919MOL0     H24060   6.625   2.318   5.340 -0.9586 -0.3896  0.0521
  919MOL0     H24061   6.602   2.510   5.564 -1.8635  0.9216  0.0839
  919MOL0     H24062   6.520   2.357   5.535  1.2447 -1.6464 -1.8321
  919MOL0     H24063   6.327   2.696   5.321  1.2347 -0.3503 -1.8035
  919MOL0     H24064   6.914   2.566   5.751 -0.3247  1.0133  3.6397
  919MOL0     H24065   6.842   2.736   5.897  3.4930 -0.0157  0.1328
  920MOL0     O24066   5.561   1.231   2.128  0.3857 -0.0151  0.0242
  920MOL0     C24067   5.654   1.254   2.053 -0.3464 -0.8836  0.0327
  920MOL0     O24068   5.778   1.195   2.061  0.4774  0.1419  0.0299
  920MOL0     C24069   5.808   1.118   2.169  0.3992  0.6868 -0.1455
  920MOL0     C24070   5.852   1.188   2.281 -0.0170  0.0329  0.3849
  920MOL0     C24071   5.860   1.124   2.410  0.2005 -0.2560  1.0469
  920MOL0     C24072   5.841   0.980   2.413  0.4808 -0.1656  0.2340
  920MOL0     O24073   5.867   0.900   2.525  0.0468  0.4229 -0.5243
  920MOL0     C24074   5.831   0.949   2.661  1.2044  0.6998  0.3389
  920MOL0     C24075   5.958   0.978   2.738  0.3764  0.0533 -0.7080
  920MOL0     C24076   5.932   1.008   2.885 -0.4884 -0.2007 -0.8842
  920MOL0     C24077   5.905   0.885   2.968 -0.0818 -0.2591 -0.3835
  920MOL0     C24078   5.789   0.915   3.070 -0.3151  0.3247 -0.2746
  920MOL0     C24079   5.724   0.798   3.146  0.5291  0.3455 -0.3005
  920MOL0     C24080   5.638   0.855   3.261 -0.0498  0.4720 -0.3448
  920MOL0     C24081   5.699   0.954   3.363 -0.5514 -0.8415  0.4037
  920MOL0     N24082   5.596   1.002   3.465  0.3353 -0.6537 -0.1126
  920MOL0     C24083   5.481   1.067   3.438  0.3458  0.1067  0.4134
  920MOL0     C24084   5.438   1.109   3.561  1.2206 -0.1558  0.2729
  920MOL0     C24085   5.326   1.194   3.601  0.4746  0.5855  1.2572
  920MOL0     C24086   5.233   1.239   3.487 -0.3721  0.8201 -0.3549
  920MOL0     C24087   5.105   1.314   3.542  0.5473  0.0183  0.3735
  920MOL0     C24088   5.136   1.451   3.587 -0.2393 -0.4131  0.5701
  920MOL0     O24089   5.146   1.533   3.471  0.1334 -0.7341 -0.5733
  920MOL0     C24090   5.230   1.640   3.494  0.0754 -0.3048 -0.7387
  920MOL0     C24091   5.202   1.734   3.602 -0.2322 -0.0201 -0.9731
  920MOL0     C24092   5.287   1.849   3.621  0.6818 -0.5315  0.0949
  920MOL0     C24093   5.279   1.935   3.743 -0.2314 -0.6769 -0.1006
  920MOL0     C24094   5.389   1.879   3.520 -0.4203 -0.8060 -0.3138
  920MOL0     C24095   5.472   2.003   3.519 -0.8057  0.4569  0.4448
  920MOL0     O24096   5.529   2.040   3.406  0.2176 -0.5455 -0.0617
  920MOL0     C24097   5.622   2.146   3.411  0.2554 -0.2270 -0.0103
  920MOL0     C24098   5.760   2.125   3.415 -1.7128  0.1844  0.1659
  920MOL0     C24099   5.849   2.229   3.395  0.5314 -0.4305 -0.9349
  920MOL0     C24100   5.809   2.360   3.391 -0.2173 -0.2652 -0.4144
  920MOL0     O24101   5.909   2.462   3.385  0.8781  0.0161 -0.0079
  920MOL0     C24102   5.876   2.608   3.393  0.5088 -0.3806  0.0569
  920MOL0     C24103   6.017   2.680   3.436 -0.9469  0.2222 -0.0095
  920MOL0     C24104   6.129   2.632   3.339 -0.2276  0.6169 -0.3297
  920MOL0     C24105   6.265   2.700   3.360 -0.0594 -0.9835  0.0529
  920MOL0     C24106   6.359   2.718   3.227  0.4355 -0.1165  0.0918
  920MOL0     C24107   6.482   2.818   3.263 -0.5533  1.0091 -0.0824
  920MOL0     C24108   6.551   2.832   3.120 -1.2744 -0.3802  0.0020
  920MOL0     C24109   6.664   2.935   3.127  0.7295 -0.6489  0.6437
  920MOL0    Cl24110   6.766   2.959   2.985 -0.2489 -0.2741 -0.0248
  920MOL0     C24111   5.669   2.389   3.385 -0.9623 -0.2444 -0.4422
  920MOL0     C24112   5.582   2.280   3.407  1.1149 -0.1812 -0.1001
  920MOL0     O24113   5.472   2.074   3.619 -0.2217  0.1365 -0.8867
  920MOL0     C24114   5.400   1.792   3.414  0.0021  0.6633  0.1755
  920MOL0     C24115   5.323   1.676   3.400  1.4659  0.3399  0.1152
  920MOL0     N24116   5.517   1.055   3.654 -0.3895  0.9060 -0.1526
  920MOL0     N24117   5.608   0.989   3.604 -0.4882 -0.4493 -0.0410
  920MOL0     C24118   5.812   0.916   2.290 -0.6174 -0.1413  0.4052
  920MOL0     C24119   5.793   0.983   2.178  0.2437  0.3219  0.2815
  920MOL0     C24120   5.634   1.363   1.953 -0.4058 -0.1553  0.5200
  920MOL0     C24121   5.515   1.422   1.904 -0.5260  0.7331  1.0387
  920MOL0     C24122   5.523   1.530   1.811 -0.0429 -0.0942 -0.4660
  920MOL0     C24123   5.644   1.581   1.766 -0.1165 -1.5000  0.6869
  920MOL0     O24124   5.662   1.677   1.663  0.5270 -0.2763 -0.0777
  920MOL0     C24125   5.543   1.759   1.626 -0.8433  0.8630  0.5553
  920MOL0     C24126   5.564   1.905   1.675 -0.1999  0.1300  1.0154
  920MOL0     C24127   5.674   1.974   1.602  0.1191  0.3855 -0.1656
  920MOL0     C24128   5.625   2.037   1.472  0.1726  0.2818 -0.4644
  920MOL0     C24129   5.513   2.131   1.486  0.4898 -0.1754 -1.0867
  920MOL0     C24130   5.416   2.209   1.504  0.8512 -0.4009 -0.3160
  920MOL0     C24131   5.753   1.522   1.813  0.3122 -0.3645  0.6019
  920MOL0     C24132   5.752   1.423   1.908  0.7538  0.8422 -0.4291
  920MOL0     H24133   5.867   1.295   2.276 -1.5376  0.2236 -1.4163
  920MOL0     H24134   5.894   1.177   2.499  2.2820  0.0422  0.1418
  920MOL0     H24135   5.768   1.039   2.664  0.4193  0.1291  2.7056
  920MOL0     H24136   5.782   0.866   2.712 -2.9195  1.5026 -1.8483
  920MOL0     H24137   6.023   0.890   2.732 -0.4608 -0.5109 -1.8171
  920MOL0     H24138   6.012   1.064   2.700  0.7678 -1.1726 -3.0895
  920MOL0     H24139   6.026   1.054   2.920 -1.0529  0.4814 -0.2257
  920MOL0     H24140   5.854   1.084   2.893 -0.8780 -0.8235  2.6993
  920MOL0     H24141   5.857   0.809   2.905  2.0774 -0.1897 -2.2079
  920MOL0     H24142   6.001   0.853   3.009  0.8815  0.4926 -1.9544
  920MOL0     H24143   5.829   0.990   3.139 -2.2121 -1.7366  3.3117
  920MOL0     H24144   5.710   0.970   3.018 -0.8442  0.9603  1.1736
  920MOL0     H24145   5.652   0.750   3.080  0.2034  0.4781 -0.0443
  920MOL0     H24146   5.799   0.736   3.196 -2.3410 -0.5681  3.3248
  920MOL0     H24147   5.560   0.911   3.209  0.6771  1.7851 -0.0547
  920MOL0     H24148   5.597   0.770   3.318  1.2100  1.1773  1.7347
  920MOL0     H24149   5.735   1.041   3.307 -3.1842 -1.1442 -2.0381
  920MOL0     H24150   5.782   0.897   3.407  0.3288 -1.1947 -1.6006
  920MOL0     H24151   5.435   1.096   3.343 -1.2302 -2.2971  0.3680
  920MOL0     H24152   5.266   1.144   3.678 -1.3110 -2.2626 -1.7394
  920MOL0     H24153   5.375   1.286   3.633  2.1324  0.5884 -1.0470
  920MOL0     H24154   5.208   1.143   3.442 -0.0345  0.4719  0.2042
  920MOL0     H24155   5.290   1.308   3.423 -2.3627  3.9567  1.0229
  920MOL0     H24156   5.073   1.265   3.635 -0.1294  1.4620  0.9387
  920MOL0     H24157   5.015   1.317   3.480  0.5904 -0.5032  0.2808
  920MOL0     H24158   5.224   1.443   3.652 -0.8657 -1.4877  1.3086
  920MOL0     H24159   5.051   1.489   3.644  0.2791  1.8203 -0.0657
  920MOL0     H24160   5.124   1.724   3.677 -1.9969  1.9886 -2.4296
  920MOL0     H24161   5.261   2.040   3.719 -4.5919 -0.4794  2.7964
  920MOL0     H24162   5.198   1.911   3.813  1.2029  0.3488  2.0147
  920MOL0     H24163   5.372   1.922   3.799  1.4260  3.4483 -1.5107
  920MOL0     H24164   5.802   2.027   3.437 -0.3526  0.6801 -0.1226
  920MOL0     H24165   5.955   2.210   3.382  1.5001  3.8241 -0.6982
  920MOL0     H24166   5.854   2.632   3.288  0.1765 -1.9691 -0.2694
  920MOL0     H24167   5.790   2.646   3.449 -1.5485  2.7289 -4.5249
  920MOL0     H24168   5.995   2.785   3.416  0.7985  0.1597 -2.7348
  920MOL0     H24169   6.056   2.656   3.536 -0.4541 -0.0732 -0.2671
  920MOL0     H24170   6.095   2.653   3.238 -0.7487  1.6668  0.0474
  920MOL0     H24171   6.146   2.524   3.339 -2.2301  0.2306  1.4673
  920MOL0     H24172   6.250   2.801   3.399  3.7109 -0.6456  1.0500
  920MOL0     H24173   6.318   2.643   3.436 -0.0503 -2.0915 -0.7647
  920MOL0     H24174   6.309   2.762   3.140  0.1678 -2.6749 -1.1555
  920MOL0     H24175   6.386   2.617   3.194 -2.0548 -0.4634 -1.1409
  920MOL0     H24176   6.453   2.916   3.303  2.3832  1.8761  0.1186
  920MOL0     H24177   6.541   2.772   3.342  0.2984  1.4024 -0.4742
  920MOL0     H24178   6.475   2.863   3.047  0.2227 -0.4855 -1.6623
  920MOL0     H24179   6.585   2.736   3.081  2.0496  0.1462  1.2966
  920MOL0     H24180   6.719   2.924   3.222 -1.6718  1.5071  2.4330
  920MOL0     H24181   6.622   3.034   3.144  3.8966  0.9318  0.1380
  920MOL0     H24182   5.620   2.484   3.373  1.5588  1.0053 -1.6366
  920MOL0     H24183   5.473   2.286   3.402  1.2039  0.9707 -1.1084
  920MOL0     H24184   5.467   1.808   3.331 -3.2183 -1.3137 -3.0598
  920MOL0     H24185   5.347   1.630   3.305  1.2750  2.5504 -1.0675
  920MOL0     H24186   5.817   0.807   2.290 -0.5868 -0.1811  2.6106
  920MOL0     H24187   5.748   0.917   2.104  0.2332 -2.1444  2.3463
  920MOL0     H24188   5.414   1.390   1.926 -1.3257  1.5359 -1.1242
  920MOL0     H24189   5.425   1.562   1.777 -0.4386  0.3363  0.9937
  920MOL0     H24190   5.547   1.747   1.518  0.3924  1.1252  0.5550
  920MOL0     H24191   5.446   1.714   1.650  0.4491 -1.9902  0.8197
  920MOL0     H24192   5.597   1.912   1.779 -0.2387  5.5599  0.9351
  920MOL0     H24193   5.468   1.954   1.656  0.2905 -0.0776 -2.7648
  920MOL0     H24194   5.760   1.909   1.583 -0.5340 -0.9742  1.3875
  920MOL0     H24195   5.695   2.053   1.675 -3.9064  0.0384  1.5788
  920MOL0     H24196   5.598   1.961   1.398 -2.2594  0.2039  0.3916
  920MOL0     H24197   5.713   2.092   1.438 -0.9898  2.3936 -0.1808
  920MOL0     H24198   5.355   2.296   1.517  1.8311  0.1866  0.5300
  920MOL0     H24199   5.849   1.556   1.775  2.0610 -2.0815  3.1662
  920MOL0     H24200   5.852   1.395   1.940  0.6997  0.5625 -0.4960
  921MOL0     O24201   1.893   8.929   9.209  0.4394  0.5346  0.6322
  921MOL0     C24202   1.801   8.925   9.123  1.1170 -0.2196 -0.2655
  921MOL0     O24203   1.665   8.925   9.164 -0.3002 -0.0212  0.5827
  921MOL0     C24204   1.631   8.966   9.290  0.1130 -0.5778  0.5151
  921MOL0     C24205   1.533   8.895   9.354  0.0636 -0.5970 -0.0550
  921MOL0     C24206   1.491   8.914   9.490 -0.0704 -0.1424  0.9847
  921MOL0     C24207   1.557   9.026   9.556  1.5879 -0.5286 -0.4482
  921MOL0     O24208   1.526   9.041   9.686  0.3289  0.3738  0.1808
  921MOL0     C24209   1.598   8.930   9.762  0.5951  0.0487  0.6941
  921MOL0     C24210   1.583   8.962   9.912  0.2677 -0.1915  0.4605
  921MOL0     C24211   1.661   8.851   9.984  0.1548  0.0170 -0.3060
  921MOL0     C24212   1.654   8.891  10.134  0.0898 -0.0583 -0.1635
  921MOL0     C24213   1.766   8.817  10.212 -0.9687 -0.2856 -0.4284
  921MOL0     C24214   1.740   8.789  10.352  0.1229  0.1535  0.7224
  921MOL0     C24215   1.746   8.921  10.438  0.2411 -0.3055  1.3568
  921MOL0     C24216   1.758   8.906  10.580  0.3534  0.5584 -0.3058
  921MOL0     N24217   1.651   8.824  10.629  0.4621  0.2178 -0.5013
  921MOL0     C24218   1.519   8.823  10.593 -0.3011 -0.8482  0.6812
  921MOL0     C24219   1.463   8.714  10.641  0.0360  0.2944 -0.2955
  921MOL0     C24220   1.317   8.670  10.648  0.3226 -0.1023 -0.4456
  921MOL0     C24221   1.239   8.794  10.666 -0.7687  0.1694  0.9125
  921MOL0     C24222   1.098   8.744  10.652  0.6501  0.3553 -0.2874
  921MOL0     C24223   1.017   8.848  10.721 -0.4564 -0.6206  1.2288
  921MOL0     O24224   1.041   8.978  10.668 -0.3798  0.5536 -0.7837
  921MOL0     C24225   0.916   9.039  10.636 -0.1980  0.0739  0.0318
  921MOL0     C24226   0.862   9.135  10.720  0.2112  0.1521 -0.9329
  921MOL0     C24227   0.747   9.207  10.690 -0.4443  0.5160 -1.4272
  921MOL0     C24228   0.699   9.308  10.786  0.7039  0.2890 -1.2485
  921MOL0     C24229   0.679   9.183  10.567  0.2125 -0.2652  0.0653
  921MOL0     C24230   0.558   9.249  10.515 -0.4287 -0.5984 -0.5357
  921MOL0     O24231   0.469   9.172  10.440  0.0571  0.1106  0.1598
  921MOL0     C24232   0.338   9.210  10.437 -0.1979  0.1141 -0.0107
  921MOL0     C24233   0.256   9.229  10.549 -0.7807 -0.2405  0.0733
  921MOL0     C24234   0.123   9.276  10.536  0.2876 -0.4402 -0.1959
  921MOL0     C24235   0.075   9.318  10.407 -0.7941  0.3087 -0.7340
  921MOL0     O24236  -0.038   9.389  10.392  0.3860 -0.3459  0.6719
  921MOL0     C24237  -0.169   9.328  10.417 -0.4544  0.3880 -0.6770
  921MOL0     C24238  -0.214   9.223  10.316  0.7965 -0.5017  0.6721
  921MOL0     C24239  -0.355   9.159  10.341 -0.3929 -0.1042  0.5566
  921MOL0     C24240  -0.353   9.056  10.457  0.6079  0.0610 -0.5125
  921MOL0     C24241  -0.489   9.017  10.490  0.0312  0.7550 -0.0058
  921MOL0     C24242  -0.553   8.928  10.375  0.0778 -0.1398  0.4339
  921MOL0     C24243  -0.684   8.862  10.416  1.0054  0.2125  0.3756
  921MOL0     C24244  -0.798   8.966  10.419  0.0376  0.5917 -0.6238
  921MOL0    Cl24245  -0.930   8.886  10.503  0.2781 -0.0486  0.0331
  921MOL0     C24246   0.156   9.299  10.298  0.3308 -0.4077  0.1345
  921MOL0     C24247   0.282   9.248  10.311  0.7045 -0.4196 -0.3292
  921MOL0     O24248   0.551   9.371  10.535 -0.5640 -0.9582  0.4877
  921MOL0     C24249   0.741   9.091  10.487  0.6266 -0.6918 -0.0806
  921MOL0     C24250   0.857   9.021  10.520 -0.2277 -0.4857  1.1550
  921MOL0     N24251   1.554   8.644  10.715 -0.3036  0.0197  0.2628
  921MOL0     N24252   1.663   8.709  10.707  0.1073 -0.6715  0.1757
  921MOL0     C24253   1.641   9.115   9.488 -0.3816 -0.3670 -0.0852
  921MOL0     C24254   1.683   9.081   9.357 -0.5881 -0.1654 -0.2365
  921MOL0     C24255   1.835   8.931   8.978 -0.1395 -0.0626 -0.9381
  921MOL0     C24256   1.735   8.945   8.885 -0.0707  0.0384 -0.7575
  921MOL0     C24257   1.768   8.930   8.751  1.3396 -0.1949  0.3882
  921MOL0     C24258   1.894   8.903   8.701 -0.0110 -0.5627  0.2465
  921MOL0     O24259   1.941   8.911   8.567 -0.9893 -0.0631  0.4141
  921MOL0     C24260   1.885   9.017   8.488 -0.7723  0.9889 -0.3194
  921MOL0     C24261   1.981   9.138   8.482 -0.3712  0.0412 -0.1162
  921MOL0     C24262   2.102   9.111   8.397 -0.8969  0.2387  1.1503
  921MOL0     C24263   2.085   9.091   8.244  1.0331  0.0308 -0.0879
  921MOL0     C24264   2.004   9.202   8.191 -0.3232  0.7085  0.5687
  921MOL0     C24265   1.960   9.289   8.128 -0.4199 -0.1326  0.3872
  921MOL0     C24266   1.994   8.881   8.801 -0.7813 -0.5933  0.5875
  921MOL0     C24267   1.967   8.900   8.934  0.6872  0.2717 -0.7854
  921MOL0     H24268   1.484   8.814   9.303 -0.3570  0.4836 -1.4224
  921MOL0     H24269   1.449   8.828   9.542  2.5950 -2.5417 -0.5161
  921MOL0     H24270   1.552   8.831   9.758 -0.7810  0.4220  4.0365
  921MOL0     H24271   1.705   8.937   9.741  1.6665  0.2377  5.2355
  921MOL0     H24272   1.618   9.064   9.930 -1.4869  0.6449 -0.6277
  921MOL0     H24273   1.477   8.953   9.938  0.2763 -0.0375  0.5498
  921MOL0     H24274   1.627   8.750   9.961 -0.0836  0.0147  0.0518
  921MOL0     H24275   1.764   8.872   9.954 -0.4072  1.9511 -1.0935
  921MOL0     H24276   1.654   9.000  10.142 -3.2229 -0.0570  1.8773
  921MOL0     H24277   1.555   8.871  10.176 -0.0816 -0.1395 -0.5996
  921MOL0     H24278   1.778   8.712  10.183 -0.8211 -0.6723  0.9567
  921MOL0     H24279   1.861   8.868  10.196  0.4302 -2.5076  0.2844
  921MOL0     H24280   1.639   8.749  10.364 -0.8331  2.3615  0.5073
  921MOL0     H24281   1.803   8.708  10.392 -1.5394 -0.2649  2.7017
  921MOL0     H24282   1.838   8.973  10.410 -0.6220  0.4217 -0.2259
  921MOL0     H24283   1.671   8.996  10.411  1.8770  1.0975  0.5550
  921MOL0     H24284   1.758   9.002  10.632  0.2351  0.6704 -0.5096
  921MOL0     H24285   1.851   8.853  10.605  0.8763  0.7114 -1.8086
  921MOL0     H24286   1.473   8.901  10.532 -1.0802 -0.6643  1.4886
  921MOL0     H24287   1.301   8.612  10.557  1.2249  0.6568 -1.1093
  921MOL0     H24288   1.297   8.599  10.729 -0.9726  0.5419 -0.1645
  921MOL0     H24289   1.247   8.856  10.576 -0.7708 -0.0978  0.7292
  921MOL0     H24290   1.264   8.843  10.761  1.0650 -0.6068  0.8563
  921MOL0     H24291   1.075   8.649  10.700  1.1403 -0.3787 -1.4678
  921MOL0     H24292   1.082   8.735  10.545  2.7009  0.4145 -0.6286
  921MOL0     H24293   1.041   8.851  10.827  3.5347  1.5344  0.4292
  921MOL0     H24294   0.909   8.834  10.706 -0.3589  0.8109 -1.3633
  921MOL0     H24295   0.911   9.146  10.816 -0.3320 -3.0779 -0.1662
  921MOL0     H24296   0.752   9.403  10.782  0.9524  0.2588  0.7203
  921MOL0     H24297   0.593   9.334  10.776 -0.2423 -1.4755  2.4927
  921MOL0     H24298   0.726   9.276  10.886 -1.5312  0.8755 -0.3887
  921MOL0     H24299   0.270   9.191  10.650 -0.8426  0.6660  0.4373
  921MOL0     H24300   0.063   9.275  10.626  1.4237  0.9936  0.6141
  921MOL0     H24301  -0.157   9.270  10.509  4.6235 -2.9127 -2.9534
  921MOL0     H24302  -0.251   9.400  10.417 -1.1522 -0.3522 -2.4652
  921MOL0     H24303  -0.227   9.271  10.219 -2.1386  1.2500  1.8180
  921MOL0     H24304  -0.138   9.143  10.319 -0.0333 -1.2924  1.0109
  921MOL0     H24305  -0.378   9.106  10.248  2.4414 -0.1993 -0.2049
  921MOL0     H24306  -0.429   9.236  10.364  0.8339  1.2363  0.1665
  921MOL0     H24307  -0.283   8.975  10.435 -2.0264 -2.7958  0.7920
  921MOL0     H24308  -0.297   9.093  10.543  0.6988  1.2996 -1.0735
  921MOL0     H24309  -0.548   9.110  10.488  1.8181  1.9589  0.8993
  921MOL0     H24310  -0.491   8.969  10.588 -0.0755  0.4559 -0.1539
  921MOL0     H24311  -0.569   8.996  10.291  2.7644  1.2136  0.9329
  921MOL0     H24312  -0.472   8.857  10.356 -0.8133 -0.8078 -1.0673
  921MOL0     H24313  -0.678   8.825  10.519  1.8873  2.6824  1.2725
  921MOL0     H24314  -0.709   8.782  10.345  1.9402 -0.0946  0.3794
  921MOL0     H24315  -0.819   9.011  10.322 -4.5845  1.4885  0.5127
  921MOL0     H24316  -0.766   9.049  10.483 -1.6367  0.8112  0.0024
  921MOL0     H24317   0.121   9.338  10.203 -0.5722 -0.3970  0.4676
  921MOL0     H24318   0.353   9.232  10.230  1.3040 -2.2018  0.4858
  921MOL0     H24319   0.700   9.077  10.387 -0.6273  0.7763  0.1986
  921MOL0     H24320   0.905   8.955  10.448 -1.6775 -0.3152 -0.0142
  921MOL0     H24321   1.673   9.213   9.522 -2.8712  1.4375 -2.4947
  921MOL0     H24322   1.745   9.153   9.304  3.1758 -1.8901  1.4781
  921MOL0     H24323   1.636   8.972   8.920 -0.2776 -0.3786 -1.0106
  921MOL0     H24324   1.690   8.945   8.676  1.0971 -0.2813  0.6192
  921MOL0     H24325   1.867   8.988   8.384 -0.5215  0.3433 -0.1887
  921MOL0     H24326   1.783   9.044   8.518 -0.5767 -0.0580  1.4039
  921MOL0     H24327   2.016   9.166   8.581 -1.4845 -1.3516  0.7102
  921MOL0     H24328   1.920   9.223   8.451 -2.2495 -0.8411  0.9546
  921MOL0     H24329   2.151   9.021   8.435  1.9169  0.6126 -1.1878
  921MOL0     H24330   2.170   9.195   8.415 -0.2335 -0.5944  2.6749
  921MOL0     H24331   2.024   9.002   8.227 -0.5360  0.8393  1.0268
  921MOL0     H24332   2.184   9.084   8.199  1.8883 -0.2617  1.7338
  921MOL0     H24333   1.903   9.357   8.067  2.8670  2.2003 -0.3494
  921MOL0     H24334   2.089   8.845   8.763  0.7633 -0.1659  3.6810
  921MOL0     H24335   2.048   8.895   9.007  0.3170 -0.5135 -0.4235
  922MOL0     O24336   5.590   2.197  11.162 -0.1379  0.2314  0.5459
  922MOL0     C24337   5.496   2.186  11.240  0.3342 -0.4420 -0.0373
  922MOL0     O24338   5.371   2.187  11.196 -0.0436  0.8710 -0.6891
  922MOL0     C24339   5.346   2.173  11.061 -0.2840  0.7856 -0.5640
  922MOL0     C24340   5.400   2.249  10.959  0.1468  0.1231 -0.6312
  922MOL0     C24341   5.382   2.217  10.823 -0.4041  0.8160  0.0515
  922MOL0     C24342   5.302   2.106  10.793  0.2107  0.3354 -1.0511
  922MOL0     O24343   5.298   2.078  10.664  1.1720 -0.5738  0.5038
  922MOL0     C24344   5.283   1.941  10.622 -0.2225  0.3142 -0.5657
  922MOL0     C24345   5.358   1.895  10.496  0.7436 -0.0457  0.1112
  922MOL0     C24346   5.284   1.955  10.381  0.6227  0.4441  0.3952
  922MOL0     C24347   5.376   1.918  10.257  0.7412 -0.7266  0.1176
  922MOL0     C24348   5.314   1.939  10.120 -0.4564 -0.3832  0.2582
  922MOL0     C24349   5.213   1.828  10.085  0.3627  0.3386  0.2785
  922MOL0     C24350   5.183   1.834   9.929 -0.3868  0.2550 -0.5367
  922MOL0     C24351   5.050   1.769   9.895  0.3713  0.1447  0.9970
  922MOL0     N24352   5.046   1.621   9.885  0.0371 -0.7330  0.3220
  922MOL0     C24353   4.978   1.555   9.785  0.8225 -0.2599  0.7847
  922MOL0     C24354   5.019   1.433   9.782 -0.1802 -0.6034  0.3253
  922MOL0     C24355   4.983   1.345   9.671  1.1568  0.7762 -0.0363
  922MOL0     C24356   4.852   1.257   9.694 -0.0886 -0.0490  0.0854
  922MOL0     C24357   4.803   1.210   9.558  0.2069  0.5909  0.4773
  922MOL0     C24358   4.877   1.079   9.507 -0.8777 -0.5375  0.2992
  922MOL0     O24359   4.823   1.036   9.385  1.1036 -0.9170  0.0883
  922MOL0     C24360   4.868   0.919   9.327 -0.0575  0.2775  0.8368
  922MOL0     C24361   4.951   0.824   9.393  0.2617 -0.8004  0.6567
  922MOL0     C24362   4.995   0.715   9.323 -0.0481  0.0467  0.6055
  922MOL0     C24363   5.085   0.618   9.399  0.0405  0.4640  0.2850
  922MOL0     C24364   4.945   0.685   9.192 -1.2453 -0.2259 -0.2470
  922MOL0     C24365   4.971   0.563   9.104  0.0066  0.0662  0.1305
  922MOL0     O24366   4.911   0.561   8.984 -0.3107  0.2572  0.5411
  922MOL0     C24367   4.915   0.448   8.911  0.1715  0.3420 -0.3413
  922MOL0     C24368   4.794   0.376   8.902  0.2877  0.5567 -0.3392
  922MOL0     C24369   4.790   0.249   8.843  0.0610 -1.2090 -0.8880
  922MOL0     C24370   4.910   0.194   8.798 -0.2952  0.1636  0.4268
  922MOL0     O24371   4.887   0.065   8.750 -0.2402 -0.7199 -0.2774
  922MOL0     C24372   5.006   0.003   8.696  0.2308  0.4221 -1.2828
  922MOL0     C24373   4.960  -0.142   8.671 -0.6496 -0.4009 -0.1355
  922MOL0     C24374   5.069  -0.234   8.603 -0.5240  0.3521  0.1693
  922MOL0     C24375   5.030  -0.384   8.593  0.5661  0.1938  0.5436
  922MOL0     C24376   5.143  -0.485   8.563 -0.2068 -0.4981 -0.1525
  922MOL0     C24377   5.111  -0.600   8.468 -0.1711  0.5020  0.5960
  922MOL0     C24378   5.239  -0.683   8.419  0.7338 -0.1296 -0.3758
  922MOL0     C24379   5.286  -0.779   8.531 -0.3735  0.2999 -1.2611
  922MOL0    Cl24380   5.386  -0.894   8.446 -0.2440  0.0039 -0.4696
  922MOL0     C24381   5.030   0.273   8.799  0.0506  0.4659 -0.8084
  922MOL0     C24382   5.034   0.397   8.854 -0.7167 -0.4371 -1.0667
  922MOL0     O24383   5.059   0.481   9.135 -0.8454  0.2663 -0.5997
  922MOL0     C24384   4.872   0.785   9.124 -0.3940  1.1528 -1.0783
  922MOL0     C24385   4.827   0.902   9.189  0.1271 -0.3082  0.0622
  922MOL0     N24386   5.125   1.423   9.867 -0.5693  1.8101 -0.7939
  922MOL0     N24387   5.145   1.536   9.932 -0.3127 -0.5912  0.5400
  922MOL0     C24388   5.248   2.030  10.896  0.1149  0.3121 -1.3677
  922MOL0     C24389   5.261   2.068  11.030 -0.3832  0.3066 -0.9764
  922MOL0     C24390   5.521   2.164  11.382 -0.0795  0.2243 -0.1410
  922MOL0     C24391   5.415   2.173  11.476  0.4523 -0.5315  0.5405
  922MOL0     C24392   5.448   2.146  11.613  0.2447  0.9480 -0.3295
  922MOL0     C24393   5.577   2.121  11.654 -0.6405 -0.0475  0.6024
  922MOL0     O24394   5.595   2.083  11.782 -0.4034  0.9936  0.0243
  922MOL0     C24395   5.659   2.181  11.865 -0.5904  0.9380  0.6458
  922MOL0     C24396   5.812   2.174  11.848 -0.8388 -0.3550  0.5454
  922MOL0     C24397   5.879   2.276  11.929 -0.2492 -0.4987 -0.8388
  922MOL0     C24398   6.032   2.249  11.952 -0.4904  0.4545  0.0201
  922MOL0     C24399   6.120   2.301  11.848 -0.2145  0.0321 -0.6913
  922MOL0     C24400   6.194   2.349  11.758  0.1745 -0.0043 -0.0926
  922MOL0     C24401   5.675   2.108  11.555 -0.2503  0.2882 -0.4207
  922MOL0     C24402   5.649   2.121  11.421 -0.1877 -0.3845 -0.4167
  922MOL0     H24403   5.462   2.337  10.971  1.8350 -0.7099 -2.4377
  922MOL0     H24404   5.418   2.283  10.744 -0.5395  0.2624 -0.4802
  922MOL0     H24405   5.297   1.879  10.711 -1.4179  0.8598  0.0369
  922MOL0     H24406   5.177   1.918  10.607  0.0741  0.5508 -3.5706
  922MOL0     H24407   5.458   1.937  10.485  2.3215 -3.4648  0.2301
  922MOL0     H24408   5.367   1.786  10.497  3.4502  0.1040  1.5463
  922MOL0     H24409   5.187   1.910  10.359  1.5002 -1.1040 -0.5324
  922MOL0     H24410   5.264   2.061  10.396 -4.8958  0.6077 -4.3874
  922MOL0     H24411   5.462   1.985  10.252  0.0581  0.0838 -1.6865
  922MOL0     H24412   5.420   1.818  10.254  0.4428 -0.8400 -1.5864
  922MOL0     H24413   5.272   2.038  10.101 -1.7784 -0.6678  1.5418
  922MOL0     H24414   5.392   1.926  10.044 -0.9456 -2.7160  0.0622
  922MOL0     H24415   5.256   1.735  10.122 -1.2599  0.2450  2.0947
  922MOL0     H24416   5.117   1.836  10.137  0.3115 -3.0791  0.9247
  922MOL0     H24417   5.181   1.940   9.901 -0.5947  0.6169  0.7683
  922MOL0     H24418   5.265   1.783   9.878  0.8870  0.8868  0.7844
  922MOL0     H24419   5.019   1.802   9.796  0.5715 -1.8489  0.2320
  922MOL0     H24420   4.975   1.805   9.966  1.3833  2.8165  0.8409
  922MOL0     H24421   4.930   1.609   9.704  1.6943 -1.9186 -0.9024
  922MOL0     H24422   4.971   1.405   9.580  0.2867  0.9571  0.1922
  922MOL0     H24423   5.058   1.267   9.652  1.1807 -0.1918  3.3788
  922MOL0     H24424   4.775   1.313   9.747 -1.2393  0.2962 -1.8944
  922MOL0     H24425   4.872   1.169   9.756 -1.4077  1.2830  2.5427
  922MOL0     H24426   4.796   1.292   9.486  0.2234 -0.6600 -1.0320
  922MOL0     H24427   4.699   1.175   9.559 -1.3683  3.9669 -4.2857
  922MOL0     H24428   4.857   1.004   9.583 -3.2952 -1.1741 -0.8782
  922MOL0     H24429   4.984   1.096   9.489 -0.7942 -1.0092  0.3315
  922MOL0     H24430   4.997   0.852   9.487  2.9093 -1.5172 -0.3168
  922MOL0     H24431   5.059   0.514   9.377  2.9564  0.2293 -2.8646
  922MOL0     H24432   5.191   0.626   9.373  0.0501 -4.0114 -1.8552
  922MOL0     H24433   5.073   0.634   9.507  0.9509  1.4187  0.2610
  922MOL0     H24434   4.698   0.415   8.936 -0.5949 -0.9397 -1.0080
  922MOL0     H24435   4.696   0.196   8.834 -0.9140  0.0364  1.2617
  922MOL0     H24436   5.032   0.058   8.605  2.6393  2.0989  0.3014
  922MOL0     H24437   5.094   0.006   8.760 -0.9642 -3.1092  0.8159
  922MOL0     H24438   4.935  -0.185   8.769  2.2813 -1.8928  0.0645
  922MOL0     H24439   4.877  -0.129   8.601  0.2808 -0.0076 -1.1971
  922MOL0     H24440   5.163  -0.225   8.658  0.1038  1.5034 -1.0610
  922MOL0     H24441   5.090  -0.208   8.499  1.7644 -1.0131  0.2169
  922MOL0     H24442   4.969  -0.410   8.680  0.7725 -2.3980  0.0140
  922MOL0     H24443   4.959  -0.390   8.510  0.1478  0.0939  0.9027
  922MOL0     H24444   5.191  -0.511   8.658 -1.8887 -0.5445  0.7149
  922MOL0     H24445   5.205  -0.419   8.501 -1.2935  0.4661 -0.2417
  922MOL0     H24446   5.036  -0.659   8.520  3.2843 -1.0907  4.3329
  922MOL0     H24447   5.072  -0.552   8.377 -2.2655 -0.0041  1.1784
  922MOL0     H24448   5.324  -0.623   8.384 -1.2328  1.5769 -2.6029
  922MOL0     H24449   5.197  -0.738   8.334 -2.5665  1.3114  0.1809
  922MOL0     H24450   5.207  -0.835   8.582  0.6106 -0.8876 -1.0093
  922MOL0     H24451   5.338  -0.725   8.610  3.3984 -2.8657 -1.3039
  922MOL0     H24452   5.129   0.232   8.779  0.5974  0.3012  1.9491
  922MOL0     H24453   5.129   0.450   8.860 -0.1195 -1.5457 -0.5041
  922MOL0     H24454   4.830   0.764   9.027 -1.1094  1.5682 -0.8604
  922MOL0     H24455   4.749   0.962   9.142 -2.4256 -2.0751  1.8100
  922MOL0     H24456   5.185   1.946  10.871 -0.2401 -0.1087  0.7200
  922MOL0     H24457   5.199   2.019  11.105  0.2235  2.5810  1.1424
  922MOL0     H24458   5.317   2.207  11.446  1.2304  3.4322  1.8254
  922MOL0     H24459   5.369   2.151  11.687  0.1436  3.3068 -0.5271
  922MOL0     H24460   5.622   2.281  11.841 -0.0204  1.0328  0.1578
  922MOL0     H24461   5.628   2.160  11.968 -0.6602 -1.5046  0.2087
  922MOL0     H24462   5.839   2.196  11.744 -0.3256  1.5573  1.0396
  922MOL0     H24463   5.861   2.079  11.867  3.3483  1.4857 -0.0526
  922MOL0     H24464   5.832   2.276  12.028  0.0675  0.1082 -0.6834
  922MOL0     H24465   5.859   2.376  11.888  0.4739  0.6071  1.3436
  922MOL0     H24466   6.053   2.142  11.964 -1.2007  0.4839  1.8771
  922MOL0     H24467   6.059   2.312  12.038  1.2208 -0.7728  0.4377
  922MOL0     H24468   6.238   2.403  11.676 -1.1614  0.1621 -0.7326
  922MOL0     H24469   5.779   2.084  11.576 -1.0394 -1.3557  2.2517
  922MOL0     H24470   5.722   2.106  11.342  0.0293 -2.6144  0.1631
  923MOL0     O24471   1.293   2.432   5.423  0.1338  0.1206  0.2418
  923MOL0     C24472   1.412   2.459   5.386  0.2531  0.9988  0.0883
  923MOL0     O24473   1.519   2.472   5.469 -0.1669  0.3817  0.1122
  923MOL0     C24474   1.519   2.395   5.582  0.1326  0.0010 -0.6321
  923MOL0     C24475   1.557   2.446   5.704 -0.6752  0.3174  0.2498
  923MOL0     C24476   1.568   2.356   5.811 -0.2033  0.5941 -0.4127
  923MOL0     C24477   1.533   2.213   5.789 -0.7443 -0.0121 -0.3829
  923MOL0     O24478   1.552   2.119   5.890  0.5163 -0.4761  0.3378
  923MOL0     C24479   1.463   2.134   6.000  0.7504 -0.5309 -0.3197
  923MOL0     C24480   1.526   2.061   6.111 -0.7265 -0.7239 -0.5344
  923MOL0     C24481   1.645   2.142   6.174  1.0819  0.8792 -0.9915
  923MOL0     C24482   1.686   2.062   6.298 -0.0256  0.1672  0.2667
  923MOL0     C24483   1.777   2.150   6.392 -0.2155 -0.0055 -0.3817
  923MOL0     C24484   1.916   2.167   6.322 -0.3040  0.5945 -0.2840
  923MOL0     C24485   2.002   2.276   6.392  0.5849  0.4165 -0.4006
  923MOL0     C24486   2.006   2.256   6.555  0.1725 -0.3856 -0.5037
  923MOL0     N24487   2.118   2.332   6.597  0.2501 -0.1118  0.1826
  923MOL0     C24488   2.129   2.466   6.568  0.4236  0.0753 -0.6719
  923MOL0     C24489   2.234   2.513   6.640 -0.8245 -0.5006  0.7001
  923MOL0     C24490   2.294   2.653   6.646 -0.2247  1.0061  0.4879
  923MOL0     C24491   2.323   2.700   6.798  1.0189  0.0524 -0.0427
  923MOL0     C24492   2.367   2.842   6.817 -0.7896  0.0910  0.0870
  923MOL0     C24493   2.528   2.846   6.780  0.5278  0.4844  0.7240
  923MOL0     O24494   2.591   2.974   6.805 -0.5116 -0.7993  0.1277
  923MOL0     C24495   2.563   3.029   6.930 -0.5564  0.1681 -0.2035
  923MOL0     C24496   2.558   2.957   7.053  0.4598  0.4638  0.6423
  923MOL0     C24497   2.511   3.026   7.167  0.2515  0.7044 -0.5209
  923MOL0     C24498   2.515   2.957   7.297 -0.0351  0.5948 -1.0030
  923MOL0     C24499   2.473   3.165   7.165  0.3229 -0.2454  0.2744
  923MOL0     C24500   2.392   3.236   7.277  0.0422  0.1640  0.1424
  923MOL0     O24501   2.405   3.215   7.414  0.1508  0.4481 -0.2679
  923MOL0     C24502   2.326   3.274   7.501  1.1737 -0.0697  0.8985
  923MOL0     C24503   2.198   3.223   7.527 -0.1641  1.0462 -0.4501
  923MOL0     C24504   2.112   3.297   7.609 -0.9673  0.6839 -0.7706
  923MOL0     C24505   2.149   3.418   7.667  0.2186  0.6316 -0.4990
  923MOL0     O24506   2.050   3.462   7.751  1.1800  0.0647 -0.0416
  923MOL0     C24507   2.053   3.393   7.880 -0.6438 -0.7385  0.5459
  923MOL0     C24508   1.941   3.296   7.897 -0.0427 -0.1867 -0.2596
  923MOL0     C24509   1.906   3.284   8.048  0.2869 -0.3191 -0.0373
  923MOL0     C24510   1.956   3.148   8.101  0.0789 -0.9576  0.1491
  923MOL0     C24511   1.906   3.129   8.238  0.6203  0.0271 -0.3742
  923MOL0     C24512   1.990   3.012   8.304 -0.0706  1.2134  0.1530
  923MOL0     C24513   2.008   2.886   8.203 -0.3807 -0.2550 -0.4312
  923MOL0     C24514   2.088   2.770   8.268 -0.6225  0.4321  0.3118
  923MOL0    Cl24515   1.972   2.696   8.383  0.6507 -0.3861  0.3314
  923MOL0     C24516   2.273   3.469   7.639  0.7062 -0.0734 -1.0052
  923MOL0     C24517   2.360   3.399   7.551  1.0525 -0.1259  0.4618
  923MOL0     O24518   2.325   3.334   7.237  0.9772 -0.8341 -0.4124
  923MOL0     C24519   2.491   3.234   7.042  0.3644 -0.4052 -0.0943
  923MOL0     C24520   2.541   3.168   6.922  0.6771 -1.1701 -1.0044
  923MOL0     N24521   2.281   2.400   6.705 -0.7063 -0.2025 -0.0970
  923MOL0     N24522   2.207   2.298   6.689 -0.3497  0.3838  0.0244
  923MOL0     C24523   1.495   2.166   5.668  0.4767 -0.5679  0.8021
  923MOL0     C24524   1.483   2.265   5.566  0.5251 -0.6320 -0.1029
  923MOL0     C24525   1.437   2.486   5.236  0.1933 -0.3409 -0.0921
  923MOL0     C24526   1.329   2.505   5.144  0.6633 -0.0024 -0.0901
  923MOL0     C24527   1.352   2.518   5.004  0.0169  0.4411  0.2814
  923MOL0     C24528   1.483   2.510   4.951  0.2479  0.4880  0.6519
  923MOL0     O24529   1.507   2.532   4.815 -0.3609  0.6127  0.1790
  923MOL0     C24530   1.411   2.556   4.719 -0.9190 -0.3151 -0.2855
  923MOL0     C24531   1.366   2.706   4.730  0.7987  0.2806  0.1180
  923MOL0     C24532   1.452   2.816   4.675  0.6058 -0.8385 -0.0021
  923MOL0     C24533   1.461   2.810   4.518 -0.1001 -0.3642 -0.6491
  923MOL0     C24534   1.572   2.895   4.469  0.0031 -0.1992 -0.1727
  923MOL0     C24535   1.665   2.949   4.421 -0.5385  0.2855 -0.8823
  923MOL0     C24536   1.590   2.499   5.039 -0.2312 -0.2581  0.3425
  923MOL0     C24537   1.559   2.487   5.176  0.0688  0.0123 -0.7366
  923MOL0     H24538   1.581   2.550   5.719 -1.6532  0.5185  0.5507
  923MOL0     H24539   1.608   2.374   5.910 -1.6528 -0.8212  0.4818
  923MOL0     H24540   1.435   2.236   6.029 -2.2763 -0.8491 -1.7480
  923MOL0     H24541   1.366   2.084   5.993  0.4894 -0.2080  0.8284
  923MOL0     H24542   1.443   2.044   6.180 -1.9606 -1.2505 -2.0998
  923MOL0     H24543   1.569   1.966   6.078  2.8369  0.7219 -0.5013
  923MOL0     H24544   1.728   2.155   6.103  1.8652 -0.1417 -0.2803
  923MOL0     H24545   1.621   2.248   6.192  0.1928  0.9822 -2.6258
  923MOL0     H24546   1.593   2.038   6.352 -1.4702 -0.0438 -2.1780
  923MOL0     H24547   1.741   1.971   6.277 -1.8928 -1.1559  0.8253
  923MOL0     H24548   1.722   2.244   6.404 -3.0570 -1.8456  3.1199
  923MOL0     H24549   1.784   2.110   6.494  1.1957 -1.5023 -1.0339
  923MOL0     H24550   1.973   2.075   6.309  0.0137  0.8165 -0.4794
  923MOL0     H24551   1.902   2.199   6.218 -1.6911 -2.2160 -1.0434
  923MOL0     H24552   2.106   2.269   6.360  0.4920 -0.0433 -0.6075
  923MOL0     H24553   1.960   2.373   6.363 -0.1177 -0.4556 -2.4814
  923MOL0     H24554   2.017   2.153   6.589  1.6000  0.3352  1.3594
  923MOL0     H24555   1.918   2.297   6.606 -1.1834 -1.3222 -1.9826
  923MOL0     H24556   2.077   2.525   6.494 -2.4889  2.3989  2.8867
  923MOL0     H24557   2.382   2.663   6.582 -1.9949  3.2350 -1.8315
  923MOL0     H24558   2.220   2.718   6.597 -0.5937  1.6693  1.8774
  923MOL0     H24559   2.396   2.636   6.848  1.2040 -0.5259 -1.0183
  923MOL0     H24560   2.228   2.694   6.853  0.8799  2.0354 -0.0039
  923MOL0     H24561   2.361   2.881   6.919  2.0378 -1.8884  1.1483
  923MOL0     H24562   2.299   2.905   6.759  0.7893 -1.2054 -3.5102
  923MOL0     H24563   2.522   2.824   6.673  1.4537 -0.7889  0.9152
  923MOL0     H24564   2.588   2.771   6.832  0.5709 -0.7924 -1.0936
  923MOL0     H24565   2.574   2.851   7.069 -1.7982 -0.2879 -1.4844
  923MOL0     H24566   2.572   3.019   7.367 -0.7772 -2.2591  2.4321
  923MOL0     H24567   2.413   2.948   7.337 -1.2392 -3.0591 -4.3061
  923MOL0     H24568   2.566   2.861   7.297 -1.6330 -0.2950 -0.7091
  923MOL0     H24569   2.157   3.129   7.492 -2.5041  0.9942  2.0655
  923MOL0     H24570   2.026   3.237   7.638 -0.4690 -1.5516 -3.5448
  923MOL0     H24571   2.148   3.342   7.901  2.0915  3.7812  0.5949
  923MOL0     H24572   2.059   3.467   7.961  0.3190 -0.7355  0.4840
  923MOL0     H24573   1.855   3.336   7.844  1.6677 -0.0598 -3.1594
  923MOL0     H24574   1.978   3.204   7.850  2.2431  0.5474 -0.0243
  923MOL0     H24575   1.797   3.296   8.054  0.4812  1.0175  1.1986
  923MOL0     H24576   1.944   3.365   8.110 -2.8661  0.0375  1.6491
  923MOL0     H24577   1.938   3.063   8.035 -0.3213 -0.0070 -0.9980
  923MOL0     H24578   2.063   3.171   8.099 -0.0486 -0.3485 -1.4579
  923MOL0     H24579   1.805   3.088   8.237  1.7302 -3.0484  1.2437
  923MOL0     H24580   1.893   3.222   8.294  1.0892 -0.6727  0.9328
  923MOL0     H24581   2.078   3.067   8.336  0.4197  2.3990 -2.8950
  923MOL0     H24582   1.934   2.978   8.392  0.2552 -0.8132 -0.3605
  923MOL0     H24583   2.065   2.913   8.113  1.6336 -0.4359  0.7137
  923MOL0     H24584   1.909   2.857   8.168  0.3571 -0.4486 -2.5110
  923MOL0     H24585   2.174   2.819   8.314  0.2199  2.0860 -2.7532
  923MOL0     H24586   2.132   2.711   8.187 -1.2243  0.7096 -0.2270
  923MOL0     H24587   2.306   3.557   7.693  1.8804 -0.7870 -0.5317
  923MOL0     H24588   2.455   3.433   7.511  0.7748  0.8986  0.6588
  923MOL0     H24589   2.461   3.337   7.028  0.6025 -0.6920 -3.8879
  923MOL0     H24590   2.560   3.232   6.837  1.6356  0.2243  0.1951
  923MOL0     H24591   1.447   2.074   5.638  0.6205  0.1443 -1.9268
  923MOL0     H24592   1.456   2.233   5.466 -1.3474 -0.1300  0.2024
  923MOL0     H24593   1.227   2.513   5.180  0.7022  3.4313 -0.4129
  923MOL0     H24594   1.271   2.549   4.938 -0.6083  1.8973  1.6601
  923MOL0     H24595   1.459   2.530   4.624  1.9418  0.8310  0.7550
  923MOL0     H24596   1.317   2.503   4.739 -1.1149  0.4015  0.7492
  923MOL0     H24597   1.344   2.727   4.835 -0.4209 -1.0287  0.1392
  923MOL0     H24598   1.271   2.708   4.678  0.3144  2.0193  0.9720
  923MOL0     H24599   1.551   2.818   4.722  0.7722 -1.0415 -0.3412
  923MOL0     H24600   1.395   2.905   4.702 -0.4927 -1.6805  0.5216
  923MOL0     H24601   1.368   2.837   4.467 -2.0581 -2.0983  1.7809
  923MOL0     H24602   1.465   2.708   4.478 -2.0466 -0.5307 -0.5050
  923MOL0     H24603   1.742   3.017   4.389  0.5920 -0.8245 -0.6113
  923MOL0     H24604   1.695   2.501   5.011 -0.6421 -4.5566 -2.6609
  923MOL0     H24605   1.645   2.494   5.242 -2.1248  1.6369  2.1774
  924MOL0     O24606   1.991   8.592   6.247  0.6858 -0.1963 -0.3632
  924MOL0     C24607   2.089   8.662   6.228  0.4427  0.1574 -0.0223
  924MOL0     O24608   2.097   8.747   6.120  0.8831 -0.6635 -0.0806
  924MOL0     C24609   2.006   8.729   6.020 -0.2347 -0.7121  0.2578
  924MOL0     C24610   1.990   8.610   5.947  0.0496  0.1508  0.1337
  924MOL0     C24611   1.888   8.593   5.848 -0.9021 -0.3668 -0.8220
  924MOL0     C24612   1.830   8.706   5.792 -1.1279  0.5105 -0.3293
  924MOL0     O24613   1.749   8.701   5.680  0.1973 -0.0088 -0.0734
  924MOL0     C24614   1.807   8.623   5.568 -0.1576 -0.1324 -0.1540
  924MOL0     C24615   1.773   8.712   5.446  0.9701 -0.5085  0.2456
  924MOL0     C24616   1.617   8.688   5.419  0.3466  0.3464 -0.5342
  924MOL0     C24617   1.569   8.745   5.289  0.0220 -0.1239  0.7103
  924MOL0     C24618   1.409   8.744   5.293  0.7597 -1.3508  0.8177
  924MOL0     C24619   1.335   8.614   5.287  1.1109 -0.4820  0.7809
  924MOL0     C24620   1.194   8.626   5.350 -0.1439 -0.0566  0.5654
  924MOL0     C24621   1.105   8.694   5.239 -0.3028 -0.7001 -0.2514
  924MOL0     N24622   0.981   8.735   5.309 -0.2851 -0.3204  0.0713
  924MOL0     C24623   0.885   8.635   5.359  0.3291 -1.3833  0.1063
  924MOL0     C24624   0.812   8.716   5.455  0.1778  0.4340  0.3765
  924MOL0     C24625   0.695   8.674   5.534  0.1555  0.6059  0.6827
  924MOL0     C24626   0.601   8.779   5.583 -0.0984  0.0326 -0.6858
  924MOL0     C24627   0.458   8.733   5.632  0.0046 -0.7845 -0.2823
  924MOL0     C24628   0.371   8.866   5.642 -0.5059  0.8345 -0.0449
  924MOL0     O24629   0.269   8.847   5.754  0.4797  0.0165 -0.4532
  924MOL0     C24630   0.215   8.970   5.790 -0.3094  0.6724 -0.0375
  924MOL0     C24631   0.187   9.013   5.923 -0.0451  0.1192  0.0730
  924MOL0     C24632   0.108   9.119   5.965  0.2600  0.4623 -0.6856
  924MOL0     C24633   0.086   9.144   6.110 -0.4161  0.9299  0.0430
  924MOL0     C24634   0.059   9.201   5.866  1.0411 -0.1127  0.0231
  924MOL0     C24635  -0.048   9.307   5.893 -0.4299  0.1083  0.0151
  924MOL0     O24636  -0.127   9.278   5.996  0.4884 -0.6573 -0.0597
  924MOL0     C24637  -0.178   9.379   6.075  0.8831  0.7506 -0.8235
  924MOL0     C24638  -0.127   9.512   6.084 -0.6400  0.1856 -0.1766
  924MOL0     C24639  -0.211   9.607   6.147  0.4116 -0.4553  0.1878
  924MOL0     C24640  -0.323   9.576   6.204  0.1691 -0.3494 -0.4898
  924MOL0     O24641  -0.401   9.682   6.255  0.7200 -0.3682  0.0962
  924MOL0     C24642  -0.541   9.674   6.217 -0.0997 -0.0641  1.2403
  924MOL0     C24643  -0.575   9.674   6.061  0.0157 -0.5910 -0.7636
  924MOL0     C24644  -0.547   9.549   5.984  0.0061  0.4838  0.4761
  924MOL0     C24645  -0.614   9.554   5.858 -0.1089 -0.2345 -0.0308
  924MOL0     C24646  -0.576   9.441   5.761  0.4350 -0.8363  0.4194
  924MOL0     C24647  -0.585   9.466   5.603  0.9667 -0.4177 -0.2651
  924MOL0     C24648  -0.707   9.552   5.560  0.5862  0.8398 -0.7627
  924MOL0     C24649  -0.843   9.499   5.604 -0.3801  0.3609 -0.5017
  924MOL0    Cl24650  -0.897   9.351   5.505 -0.9324  0.3966 -0.0526
  924MOL0     C24651  -0.359   9.446   6.226 -0.2280 -0.2370  0.1586
  924MOL0     C24652  -0.293   9.339   6.156  0.1793 -0.5069  0.0132
  924MOL0     O24653  -0.046   9.416   5.827 -0.1009  0.7125  0.5654
  924MOL0     C24654   0.093   9.171   5.732  0.7471 -0.6202 -1.2274
  924MOL0     C24655   0.166   9.061   5.694 -0.4485  0.2374 -1.5991
  924MOL0     N24656   0.865   8.848   5.458 -0.0042 -0.2927 -0.1237
  924MOL0     N24657   0.956   8.860   5.369  0.6373 -0.3834 -0.1474
  924MOL0     C24658   1.846   8.827   5.853 -0.4694 -0.5720  0.0888
  924MOL0     C24659   1.938   8.837   5.967 -0.5322  0.2323 -0.5862
  924MOL0     C24660   2.216   8.640   6.316  0.2184 -0.0024 -0.4486
  924MOL0     C24661   2.211   8.551   6.425  0.6889 -0.2246 -0.3933
  924MOL0     C24662   2.323   8.537   6.508  1.3238  0.5406 -0.0580
  924MOL0     C24663   2.434   8.613   6.496  0.2176  0.1383  0.4299
  924MOL0     O24664   2.537   8.585   6.590  0.4649  0.9354 -0.0671
  924MOL0     C24665   2.665   8.636   6.561 -0.0763 -0.2729  0.0328
  924MOL0     C24666   2.728   8.581   6.438  0.1549 -0.6265  0.8846
  924MOL0     C24667   2.742   8.430   6.440 -0.4042  1.3871 -0.2744
  924MOL0     C24668   2.614   8.353   6.394 -0.6548  1.2562 -0.0778
  924MOL0     C24669   2.648   8.212   6.378 -0.2319  0.0394  0.2226
  924MOL0     C24670   2.670   8.094   6.374  0.0958 -1.3837 -0.0091
  924MOL0     C24671   2.435   8.715   6.400 -0.8174 -0.1084  1.1816
  924MOL0     C24672   2.330   8.718   6.306  0.4964  0.9275 -0.1984
  924MOL0     H24673   2.038   8.514   5.965  2.9610  0.6900 -3.4415
  924MOL0     H24674   1.862   8.491   5.821 -1.0065 -1.1078  1.8017
  924MOL0     H24675   1.915   8.609   5.576 -0.3604 -2.8950 -1.3583
  924MOL0     H24676   1.757   8.526   5.561 -0.3050 -0.2036  1.5963
  924MOL0     H24677   1.802   8.817   5.453  2.9836 -1.0853  1.7426
  924MOL0     H24678   1.814   8.676   5.351  0.6665  0.5604 -0.3008
  924MOL0     H24679   1.581   8.586   5.437 -0.7312  1.2583  3.5010
  924MOL0     H24680   1.558   8.745   5.492 -2.0504 -1.4136 -0.9854
  924MOL0     H24681   1.614   8.845   5.285  1.5748 -0.7881  0.7760
  924MOL0     H24682   1.604   8.688   5.203 -1.2601 -0.2685  0.2636
  924MOL0     H24683   1.384   8.795   5.386  2.8557 -2.8000  2.2520
  924MOL0     H24684   1.373   8.800   5.205 -1.0847 -2.9137  0.5102
  924MOL0     H24685   1.332   8.575   5.185 -1.6007 -0.7224  0.8828
  924MOL0     H24686   1.385   8.549   5.360 -2.3850 -1.8056  2.2244
  924MOL0     H24687   1.162   8.522   5.360  0.5957 -0.6147 -2.0698
  924MOL0     H24688   1.190   8.686   5.441 -1.0791 -1.5268  1.5327
  924MOL0     H24689   1.093   8.621   5.158  2.2577 -0.7956 -0.6292
  924MOL0     H24690   1.153   8.784   5.199  1.6907 -1.9923 -0.9116
  924MOL0     H24691   0.878   8.531   5.330  2.0961 -1.2312 -1.0158
  924MOL0     H24692   0.633   8.602   5.480 -0.4760 -0.4053  2.6236
  924MOL0     H24693   0.738   8.619   5.619  2.1083  1.0552  0.0424
  924MOL0     H24694   0.593   8.854   5.504 -0.4749  3.1390  2.0571
  924MOL0     H24695   0.650   8.841   5.660  1.3115 -0.2991 -1.2750
  924MOL0     H24696   0.473   8.685   5.729  1.4165  0.5959  0.2378
  924MOL0     H24697   0.417   8.661   5.561 -3.3739  0.5003  0.2123
  924MOL0     H24698   0.322   8.896   5.548 -2.7164  1.6475  1.2994
  924MOL0     H24699   0.431   8.955   5.660  2.4854 -0.1587 -3.7628
  924MOL0     H24700   0.240   8.956   5.999  2.1920  1.8990 -0.0413
  924MOL0     H24701  -0.006   9.103   6.153 -0.9113  2.7353  0.7848
  924MOL0     H24702   0.165   9.099   6.171 -0.9645 -0.7940 -0.4502
  924MOL0     H24703   0.080   9.250   6.136 -2.3896  0.9843 -0.4673
  924MOL0     H24704  -0.033   9.540   6.038  1.2803 -2.2016  2.0358
  924MOL0     H24705  -0.177   9.710   6.151 -0.7361 -0.0308 -0.5915
  924MOL0     H24706  -0.585   9.584   6.261 -0.6858  0.6407  2.1213
  924MOL0     H24707  -0.590   9.756   6.270  0.5125  0.8371  0.4517
  924MOL0     H24708  -0.683   9.684   6.046  0.2856  6.1012 -0.8725
  924MOL0     H24709  -0.516   9.758   6.024 -0.1655 -1.8457 -4.2783
  924MOL0     H24710  -0.586   9.468   6.047 -0.2311  0.0160 -0.2550
  924MOL0     H24711  -0.441   9.532   5.965  1.0918  3.1369  3.3801
  924MOL0     H24712  -0.723   9.562   5.865 -0.2505 -1.3016 -0.8267
  924MOL0     H24713  -0.577   9.644   5.807  1.5239 -1.2295 -0.6846
  924MOL0     H24714  -0.643   9.359   5.788 -0.1187 -0.1110  1.3072
  924MOL0     H24715  -0.472   9.410   5.774  0.6450 -0.3933 -0.1494
  924MOL0     H24716  -0.501   9.525   5.564  1.1501 -0.6622 -0.2400
  924MOL0     H24717  -0.577   9.379   5.537  1.3043 -0.0716 -0.6911
  924MOL0     H24718  -0.693   9.572   5.454 -3.2890  2.0801 -1.1771
  924MOL0     H24719  -0.698   9.654   5.601 -0.5963 -0.1724  2.3187
  924MOL0     H24720  -0.913   9.583   5.605  0.1464  0.9621  3.9032
  924MOL0     H24721  -0.840   9.485   5.712  0.5737  0.0315 -0.5557
  924MOL0     H24722  -0.435   9.414   6.297 -0.3177  1.0707  0.6823
  924MOL0     H24723  -0.340   9.242   6.161 -2.6880  0.8032  0.8127
  924MOL0     H24724   0.060   9.245   5.660  1.7297 -1.2100 -2.3305
  924MOL0     H24725   0.181   9.038   5.589  3.0236 -0.9143 -0.9825
  924MOL0     H24726   1.796   8.916   5.816  0.6694 -0.3476 -0.9550
  924MOL0     H24727   1.957   8.935   6.009  0.1593 -0.6117  1.1889
  924MOL0     H24728   2.115   8.515   6.460  0.3549 -0.8741 -1.8978
  924MOL0     H24729   2.319   8.466   6.590 -2.0820  2.0863  1.2798
  924MOL0     H24730   2.670   8.745   6.566  3.5155 -0.3696  1.7799
  924MOL0     H24731   2.733   8.603   6.640  1.2726 -0.3411 -1.1280
  924MOL0     H24732   2.819   8.636   6.415 -0.8417  0.7840  0.1783
  924MOL0     H24733   2.675   8.607   6.346  3.2903 -1.2781 -1.2618
  924MOL0     H24734   2.765   8.393   6.541 -1.7667  0.3333 -0.3133
  924MOL0     H24735   2.807   8.397   6.359 -1.6797  0.5723 -1.0165
  924MOL0     H24736   2.581   8.403   6.302 -0.2117  4.5765  1.4285
  924MOL0     H24737   2.531   8.357   6.464  0.2872  0.0872  1.1760
  924MOL0     H24738   2.701   7.994   6.350 -0.2541 -1.0818 -1.8227
  924MOL0     H24739   2.524   8.776   6.410 -1.0600 -0.1332  7.1491
  924MOL0     H24740   2.330   8.794   6.229  3.2781 -0.4755 -1.7522
  925MOL0     O24741  11.096   7.902   1.988  0.2638  0.0099 -0.1455
  925MOL0     C24742  11.156   7.809   2.038  0.5364  0.0919  0.9763
  925MOL0     O24743  11.114   7.690   2.054 -0.1862  1.0930 -0.1997
  925MOL0     C24744  10.992   7.665   2.006 -0.4725 -0.0425  0.3801
  925MOL0     C24745  10.897   7.612   2.097 -0.5760  0.1214  0.1375
  925MOL0     C24746  10.778   7.567   2.056  0.7292  0.2112  0.4531
  925MOL0     C24747  10.728   7.584   1.923  0.7213 -0.0130 -0.6741
  925MOL0     O24748  10.608   7.540   1.894  0.0348 -0.4497  0.2486
  925MOL0     C24749  10.600   7.457   1.773 -0.3532  0.0692 -0.0235
  925MOL0     C24750  10.510   7.340   1.809  1.0181  0.5593 -0.3019
  925MOL0     C24751  10.491   7.246   1.692  0.0096 -0.2276  0.5473
  925MOL0     C24752  10.401   7.138   1.730  0.9896  0.3946 -0.0237
  925MOL0     C24753  10.376   7.029   1.621 -0.8535 -0.5581  0.1303
  925MOL0     C24754  10.305   6.905   1.675 -0.0840 -0.1602  0.4449
  925MOL0     C24755  10.393   6.818   1.772 -0.9820  0.6205  0.3207
  925MOL0     C24756  10.325   6.686   1.819  0.1882  0.3686  0.2792
  925MOL0     N24757  10.411   6.611   1.911 -0.1759 -0.2619  0.7960
  925MOL0     C24758  10.445   6.647   2.043  0.0070  0.2863  0.0569
  925MOL0     C24759  10.529   6.551   2.082  0.3747 -0.4105  0.4513
  925MOL0     C24760  10.603   6.540   2.220 -0.1874  0.0235 -0.2965
  925MOL0     C24761  10.494   6.477   2.321 -0.2093  0.6043 -0.0814
  925MOL0     C24762  10.529   6.328   2.341  0.7513 -0.4514 -0.6598
  925MOL0     C24763  10.426   6.253   2.436 -0.1625  0.6306 -0.2886
  925MOL0     O24764  10.435   6.320   2.562  0.9842  0.6376 -0.3040
  925MOL0     C24765  10.496   6.250   2.662  0.8366  0.5672  0.0879
  925MOL0     C24766  10.579   6.328   2.736  0.2905  0.3817  0.3260
  925MOL0     C24767  10.643   6.260   2.843  0.7046  1.1517 -0.1825
  925MOL0     C24768  10.732   6.343   2.927 -0.1940 -0.1238 -0.2766
  925MOL0     C24769  10.619   6.126   2.876 -0.3902  0.6589 -0.3530
  925MOL0     C24770  10.702   6.043   2.972 -1.0254 -0.6255 -0.5939
  925MOL0     O24771  10.634   5.941   3.033 -0.8190  0.1322 -0.5089
  925MOL0     C24772  10.693   5.837   3.106  0.6534 -1.1286  0.1307
  925MOL0     C24773  10.641   5.711   3.104  0.0756 -0.9913 -0.6459
  925MOL0     C24774  10.699   5.607   3.185  0.3072 -0.5934  1.0359
  925MOL0     C24775  10.821   5.625   3.246  0.0200  0.1653 -0.7768
  925MOL0     O24776  10.893   5.536   3.315  0.1158  0.6803  0.1178
  925MOL0     C24777  10.837   5.473   3.433  0.7165 -0.1111 -1.0004
  925MOL0     C24778  10.805   5.582   3.533  0.0428  0.3275  0.3048
  925MOL0     C24779  10.736   5.510   3.654 -0.2661  0.3096 -0.0575
  925MOL0     C24780  10.591   5.523   3.649  0.4098  0.1607  0.4239
  925MOL0     C24781  10.512   5.424   3.729 -0.6261  0.6057  0.9361
  925MOL0     C24782  10.563   5.414   3.880 -0.5405 -0.1235  1.0048
  925MOL0     C24783  10.484   5.299   3.950  0.2067  0.6246  0.1202
  925MOL0     C24784  10.521   5.278   4.101 -0.1381  0.0719 -1.5100
  925MOL0    Cl24785  10.411   5.158   4.161  0.0023 -0.0209 -0.0473
  925MOL0     C24786  10.863   5.762   3.262  0.2381  0.5389 -0.1446
  925MOL0     C24787  10.804   5.860   3.192 -0.5560  0.5355 -0.4010
  925MOL0     O24788  10.822   6.075   2.995  0.5038  0.4300  0.5353
  925MOL0     C24789  10.527   6.057   2.801 -0.1789  0.3982  0.3051
  925MOL0     C24790  10.460   6.121   2.691  0.6386 -0.9828 -0.9863
  925MOL0     N24791  10.546   6.455   1.978 -0.4136  0.4357 -0.5518
  925MOL0     N24792  10.467   6.491   1.883 -0.0616 -0.2332  0.1876
  925MOL0     C24793  10.818   7.638   1.835 -0.4168  0.3417 -0.9175
  925MOL0     C24794  10.957   7.672   1.871  1.0044 -1.2578 -0.6661
  925MOL0     C24795  11.295   7.837   2.076 -0.0711 -0.5111 -0.1797
  925MOL0     C24796  11.392   7.739   2.081 -0.6925  0.5559 -0.5688
  925MOL0     C24797  11.528   7.770   2.098 -0.2940 -0.2791  0.3032
  925MOL0     C24798  11.572   7.903   2.092  0.4268  0.5691 -0.1248
  925MOL0     O24799  11.708   7.927   2.087 -0.7643 -0.2163 -0.1078
  925MOL0     C24800  11.755   8.062   2.078  0.0931 -0.3267  0.6455
  925MOL0     C24801  11.904   8.061   2.040 -0.6489  0.0122 -0.5132
  925MOL0     C24802  11.952   8.203   2.004 -0.1591 -0.1253 -0.0227
  925MOL0     C24803  11.934   8.321   2.102 -0.1346 -0.0076 -0.1090
  925MOL0     C24804  11.998   8.442   2.046 -1.0868 -0.1683 -0.2555
  925MOL0     C24805  12.039   8.542   1.987 -0.3751 -1.1614  0.6219
  925MOL0     C24806  11.474   8.002   2.084 -0.5210 -0.0978  0.6807
  925MOL0     C24807  11.337   7.970   2.082 -0.3656  0.8994  0.3187
  925MOL0     H24808  10.939   7.600   2.196  1.3742 -3.1031 -0.9111
  925MOL0     H24809  10.711   7.515   2.124  4.4423 -1.8214  2.9005
  925MOL0     H24810  10.548   7.497   1.685  0.2034  2.4861  0.6851
  925MOL0     H24811  10.695   7.417   1.736 -0.5367  1.2522 -1.9155
  925MOL0     H24812  10.567   7.293   1.889 -1.4811 -1.6311  0.3442
  925MOL0     H24813  10.408   7.366   1.840  0.7966 -2.6574  2.1240
  925MOL0     H24814  10.448   7.298   1.606  0.0800  2.7858  2.1830
  925MOL0     H24815  10.582   7.208   1.645 -0.9395  0.7362 -2.2316
  925MOL0     H24816  10.436   7.103   1.827 -0.6600 -1.5643 -0.0621
  925MOL0     H24817  10.302   7.172   1.760  0.8902 -0.6988  0.9867
  925MOL0     H24818  10.331   7.069   1.530 -1.9321 -2.5440 -0.2661
  925MOL0     H24819  10.473   6.990   1.586 -1.4127 -0.6869 -1.3787
  925MOL0     H24820  10.206   6.923   1.718 -1.5321 -0.6032 -2.4453
  925MOL0     H24821  10.285   6.838   1.591  4.6806 -0.4587 -0.7339
  925MOL0     H24822  10.487   6.804   1.718 -0.1762 -0.4197  1.9015
  925MOL0     H24823  10.427   6.871   1.862  2.9856  0.7038 -1.0321
  925MOL0     H24824  10.311   6.617   1.735 -2.4725  2.2634 -0.9810
  925MOL0     H24825  10.230   6.702   1.870 -0.4991  1.1091 -1.1715
  925MOL0     H24826  10.412   6.734   2.098  0.7952 -0.5931  2.0587
  925MOL0     H24827  10.693   6.479   2.211  0.1588  0.3424  0.7808
  925MOL0     H24828  10.630   6.641   2.253  1.6466 -1.1232  1.9482
  925MOL0     H24829  10.393   6.492   2.284 -0.3504 -2.7848 -1.4236
  925MOL0     H24830  10.515   6.524   2.418  0.2183 -0.3042  0.2759
  925MOL0     H24831  10.629   6.306   2.378  1.2966  0.3959 -1.6022
  925MOL0     H24832  10.516   6.269   2.250  0.6022  0.4829 -1.2661
  925MOL0     H24833  10.449   6.146   2.438  4.5698  1.4407  1.0956
  925MOL0     H24834  10.322   6.269   2.407  0.0118  3.9290  0.4848
  925MOL0     H24835  10.609   6.429   2.711 -2.2231  1.3049  0.8436
  925MOL0     H24836  10.838   6.319   2.909  0.3129  0.8805  1.1273
  925MOL0     H24837  10.718   6.449   2.902 -2.7262 -0.2362  0.4157
  925MOL0     H24838  10.710   6.318   3.031 -0.5922 -0.8519 -0.5301
  925MOL0     H24839  10.548   5.690   3.052  1.4835 -3.4529 -2.4066
  925MOL0     H24840  10.666   5.508   3.156  1.5870 -1.0947  1.2260
  925MOL0     H24841  10.742   5.422   3.412  0.0079  0.2907  1.0082
  925MOL0     H24842  10.899   5.404   3.491 -0.7186  0.9182  1.9532
  925MOL0     H24843  10.907   5.618   3.548  2.1268 -2.2428 -5.0631
  925MOL0     H24844  10.739   5.657   3.489  0.8302  0.0345 -1.4626
  925MOL0     H24845  10.765   5.551   3.750  1.7255 -1.3101  0.0971
  925MOL0     H24846  10.760   5.403   3.656 -0.0130  0.3775  0.8072
  925MOL0     H24847  10.562   5.622   3.685 -1.3704  0.8494 -2.5080
  925MOL0     H24848  10.548   5.522   3.548 -1.5654 -1.3848  1.2100
  925MOL0     H24849  10.524   5.325   3.684  0.4841  0.1061  2.2532
  925MOL0     H24850  10.406   5.447   3.719 -1.1214 -1.4849  0.9476
  925MOL0     H24851  10.667   5.380   3.882  0.4664  2.0982 -2.9972
  925MOL0     H24852  10.559   5.513   3.927  1.5436  2.6897 -3.8710
  925MOL0     H24853  10.506   5.207   3.895  2.5113  1.9414 -1.3387
  925MOL0     H24854  10.377   5.317   3.937 -0.6120 -1.5481  2.6969
  925MOL0     H24855  10.502   5.366   4.163  0.7518 -0.0497 -1.0403
  925MOL0     H24856  10.628   5.254   4.104 -0.1393 -0.0443 -2.2592
  925MOL0     H24857  10.957   5.772   3.315  0.9493  0.1990 -1.3072
  925MOL0     H24858  10.845   5.959   3.209 -2.8427  1.8926 -2.1912
  925MOL0     H24859  10.515   5.950   2.815  1.6652 -0.1145 -1.5054
  925MOL0     H24860  10.400   6.072   2.615  0.4083 -1.1244 -0.7178
  925MOL0     H24861  10.789   7.632   1.730 -0.6617  0.9279 -0.8851
  925MOL0     H24862  11.026   7.701   1.793 -1.3853  0.2861 -2.3330
  925MOL0     H24863  11.366   7.634   2.079  2.8452 -0.5345  1.5430
  925MOL0     H24864  11.593   7.682   2.100 -0.0240 -0.0649  1.0892
  925MOL0     H24865  11.697   8.113   2.001  0.4149  0.1981  0.7516
  925MOL0     H24866  11.748   8.114   2.174  0.8608 -1.5891  1.4291
  925MOL0     H24867  11.911   7.999   1.951 -0.0188  1.1678 -1.2846
  925MOL0     H24868  11.962   8.021   2.124 -0.1586  4.0694  1.3240
  925MOL0     H24869  11.911   8.215   1.904 -1.2108 -0.7157  0.3247
  925MOL0     H24870  12.059   8.182   1.988  0.1413  1.3098 -0.0173
  925MOL0     H24871  11.990   8.295   2.192  0.1817  1.7729  0.2394
  925MOL0     H24872  11.828   8.340   2.122 -0.1486  0.3764 -0.5221
  925MOL0     H24873  12.085   8.615   1.923 -2.2623 -0.4931 -0.0440
  925MOL0     H24874  11.504   8.106   2.072  1.1420 -0.3908  1.8872
  925MOL0     H24875  11.266   8.050   2.070 -1.8146 -0.6639 -2.7274
  926MOL0     O24876   3.632   8.982   7.897  0.4756 -0.1299  0.3193
  926MOL0     C24877   3.525   8.952   7.842  0.2001 -0.0220 -0.8403
  926MOL0     O24878   3.398   9.017   7.849  0.1460 -0.3176 -0.1627
  926MOL0     C24879   3.386   9.145   7.899 -0.7771 -0.1790 -0.1737
  926MOL0     C24880   3.312   9.244   7.830 -1.0139  0.2182 -0.3193
  926MOL0     C24881   3.289   9.371   7.881 -0.5944  0.7804  1.0388
  926MOL0     C24882   3.361   9.415   7.994  0.5051 -0.7614  0.6912
  926MOL0     O24883   3.335   9.544   8.029 -0.5675  0.0671  0.6491
  926MOL0     C24884   3.453   9.622   8.026  0.1460 -0.3069 -0.0875
  926MOL0     C24885   3.425   9.775   8.060  0.5788  0.0012  0.5698
  926MOL0     C24886   3.298   9.840   7.998  0.6940  0.4283  0.4904
  926MOL0     C24887   3.275   9.840   7.845  0.4197  1.1865 -0.8443
  926MOL0     C24888   3.135   9.786   7.807 -0.5967  0.6141 -0.1452
  926MOL0     C24889   3.102   9.829   7.664  0.2037 -0.6410  1.2128
  926MOL0     C24890   3.209   9.793   7.567 -0.3356  0.1710 -0.6204
  926MOL0     C24891   3.159   9.810   7.419 -0.0383  0.7229 -0.8542
  926MOL0     N24892   3.283   9.837   7.347 -0.3920  0.4805 -0.2916
  926MOL0     C24893   3.364   9.755   7.288  0.0006 -0.4585  1.3104
  926MOL0     C24894   3.453   9.832   7.217 -0.0423  0.3348  0.3078
  926MOL0     C24895   3.571   9.806   7.132  0.3391 -0.3799  0.0708
  926MOL0     C24896   3.549   9.677   7.044 -0.7060 -0.4470  0.4711
  926MOL0     C24897   3.667   9.655   6.933 -0.2658 -0.7119 -0.1825
  926MOL0     C24898   3.655   9.529   6.859  1.8913  0.4081  0.3916
  926MOL0     O24899   3.510   9.505   6.815 -0.1900  0.2457  0.3624
  926MOL0     C24900   3.478   9.436   6.696  0.0725  0.0313 -0.4859
  926MOL0     C24901   3.565   9.368   6.610 -0.1652 -0.0166 -0.1602
  926MOL0     C24902   3.521   9.293   6.494 -0.2448  0.6908  0.3697
  926MOL0     C24903   3.623   9.217   6.401  0.7520  0.3693 -0.2907
  926MOL0     C24904   3.383   9.276   6.481 -0.3458  0.4938  0.4698
  926MOL0     C24905   3.312   9.178   6.394  0.5352  0.9832  0.9453
  926MOL0     O24906   3.181   9.166   6.427 -0.2904 -0.1435 -0.0477
  926MOL0     C24907   3.092   9.095   6.342  1.0386  0.7528  0.2500
  926MOL0     C24908   3.000   9.015   6.410 -0.6655  0.6207 -0.9508
  926MOL0     C24909   2.906   8.938   6.341 -0.5012  0.7451 -0.1586
  926MOL0     C24910   2.898   8.941   6.203 -0.9271  0.3292  0.2015
  926MOL0     O24911   2.810   8.850   6.147 -1.0306 -0.7373 -0.0757
  926MOL0     C24912   2.758   8.883   6.010  0.1305  1.2117 -0.6739
  926MOL0     C24913   2.704   9.020   5.993  0.3838 -0.7958 -0.3651
  926MOL0     C24914   2.588   9.041   5.898  0.3612 -0.5395 -0.4944
  926MOL0     C24915   2.587   9.178   5.837  0.2950 -0.1239  1.2610
  926MOL0     C24916   2.470   9.204   5.747  0.7220  1.0473 -0.4869
  926MOL0     C24917   2.396   9.330   5.774  0.0818  0.1393 -0.3306
  926MOL0     C24918   2.279   9.358   5.682 -0.2806  0.4125  0.3292
  926MOL0     C24919   2.213   9.487   5.715  0.4664 -0.8733 -0.6247
  926MOL0    Cl24920   2.271   9.635   5.621 -0.3582 -0.2050  0.1739
  926MOL0     C24921   2.992   9.015   6.135 -0.0357  0.0512 -0.2032
  926MOL0     C24922   3.099   9.094   6.200  0.2941  0.3453  0.1861
  926MOL0     O24923   3.372   9.110   6.309  0.0076  0.4601  0.9413
  926MOL0     C24924   3.295   9.357   6.558 -0.0565  0.4146 -0.5392
  926MOL0     C24925   3.344   9.429   6.666 -0.2392 -0.1198 -0.4189
  926MOL0     N24926   3.405   9.959   7.222 -0.4615  0.1410  0.3153
  926MOL0     N24927   3.304   9.962   7.293 -0.3414 -0.5236 -0.2744
  926MOL0     C24928   3.439   9.325   8.060  0.1291  0.1646 -1.6036
  926MOL0     C24929   3.449   9.187   8.023  0.4572  1.5077  0.3052
  926MOL0     C24930   3.524   8.829   7.762  0.2628 -1.2003  0.2393
  926MOL0     C24931   3.640   8.752   7.733  0.8381 -0.1661  0.7011
  926MOL0     C24932   3.622   8.630   7.657  0.2084  1.1877 -0.6790
  926MOL0     C24933   3.490   8.581   7.623 -0.1987  0.5954 -0.2959
  926MOL0     O24934   3.458   8.458   7.569 -0.2291 -0.2823  0.0389
  926MOL0     C24935   3.550   8.368   7.507  0.1490  0.5202  0.0768
  926MOL0     C24936   3.652   8.422   7.402 -0.1258 -0.5255 -0.5354
  926MOL0     C24937   3.712   8.305   7.318 -0.5003 -0.3046 -0.1944
  926MOL0     C24938   3.799   8.370   7.217 -0.9398  0.1512  0.9783
  926MOL0     C24939   3.858   8.261   7.137 -0.3009 -0.2220  0.4930
  926MOL0     C24940   3.924   8.173   7.086  0.0753  0.6575  0.4457
  926MOL0     C24941   3.378   8.648   7.665  0.6903 -1.0244  0.3551
  926MOL0     C24942   3.393   8.775   7.731 -0.6377 -0.1707  0.3997
  926MOL0     H24943   3.257   9.220   7.740  1.4151 -0.0524 -1.8209
  926MOL0     H24944   3.219   9.427   7.820  0.6583 -0.4519 -1.7071
  926MOL0     H24945   3.531   9.578   8.090 -0.5687  0.3024  1.2332
  926MOL0     H24946   3.499   9.627   7.927 -0.6628 -0.6381 -0.4882
  926MOL0     H24947   3.412   9.772   8.168  0.9857  2.3594  0.7529
  926MOL0     H24948   3.516   9.834   8.044  1.1531 -1.0260 -0.0246
  926MOL0     H24949   3.209   9.792   8.041  1.6440  0.4553  2.5865
  926MOL0     H24950   3.304   9.945   8.028  4.1391  1.4366 -2.9771
  926MOL0     H24951   3.286   9.944   7.812  1.3592  1.0698 -0.9414
  926MOL0     H24952   3.355   9.785   7.795 -0.6023  0.0069 -1.2273
  926MOL0     H24953   3.145   9.678   7.793 -1.3147  0.6392 -0.9297
  926MOL0     H24954   3.058   9.804   7.882  0.6157 -1.2350  1.6376
  926MOL0     H24955   3.014   9.768   7.640  0.5476 -0.6628 -0.0657
  926MOL0     H24956   3.073   9.932   7.641  1.8119 -0.7768 -2.1263
  926MOL0     H24957   3.293   9.859   7.592 -1.8741  0.8458  3.6911
  926MOL0     H24958   3.239   9.688   7.573  1.1448  0.6212  0.6936
  926MOL0     H24959   3.089   9.894   7.412  0.3202  0.9127 -2.8720
  926MOL0     H24960   3.113   9.714   7.393 -0.4673  0.6943 -0.0149
  926MOL0     H24961   3.364   9.648   7.306 -0.7358 -0.4859  1.1881
  926MOL0     H24962   3.596   9.883   7.058 -0.4564 -1.5754 -1.5224
  926MOL0     H24963   3.665   9.778   7.181  2.1838  0.7600 -2.5735
  926MOL0     H24964   3.468   9.698   6.974  0.7741  0.8300 -0.9478
  926MOL0     H24965   3.536   9.586   7.104  1.5237  0.7280  2.9621
  926MOL0     H24966   3.769   9.662   6.972 -1.0651 -0.7265  2.0651
  926MOL0     H24967   3.665   9.741   6.865 -0.2092 -0.3880  0.2231
  926MOL0     H24968   3.677   9.443   6.923 -2.3528  0.9651  2.9487
  926MOL0     H24969   3.725   9.528   6.775  0.6294 -1.8317 -0.7365
  926MOL0     H24970   3.671   9.355   6.631  0.5273  1.0153 -2.6587
  926MOL0     H24971   3.640   9.115   6.434 -2.6867 -0.3415 -0.3663
  926MOL0     H24972   3.591   9.212   6.297 -1.0611  1.7697  0.1429
  926MOL0     H24973   3.723   9.262   6.400  0.3011  1.4077 -0.2448
  926MOL0     H24974   3.003   9.018   6.518  1.2414  2.3078 -1.0005
  926MOL0     H24975   2.826   8.887   6.394 -1.7746  1.5146 -1.2666
  926MOL0     H24976   2.836   8.863   5.935 -1.9267 -2.2926 -2.1362
  926MOL0     H24977   2.680   8.808   5.995 -2.3499  3.5649 -0.2673
  926MOL0     H24978   2.663   9.053   6.089 -2.3154 -1.6057 -1.1612
  926MOL0     H24979   2.788   9.080   5.957  1.9124  0.8506  5.0380
  926MOL0     H24980   2.494   9.025   5.951 -0.3949  1.5377 -1.1411
  926MOL0     H24981   2.596   8.969   5.816 -1.0917 -1.6337  0.2800
  926MOL0     H24982   2.592   9.264   5.904 -2.9153 -1.0399  2.9099
  926MOL0     H24983   2.672   9.184   5.769 -2.1655 -1.9610 -2.3272
  926MOL0     H24984   2.393   9.127   5.754 -0.9156  2.5891 -0.9228
  926MOL0     H24985   2.493   9.214   5.640 -2.7533 -0.9833 -1.5616
  926MOL0     H24986   2.373   9.347   5.879  2.1180  2.2707 -0.1369
  926MOL0     H24987   2.473   9.406   5.758 -2.7031  3.5556  1.2170
  926MOL0     H24988   2.212   9.274   5.704  0.3830 -0.4251 -0.7554
  926MOL0     H24989   2.308   9.356   5.577  0.4229  3.1572  0.3828
  926MOL0     H24990   2.223   9.509   5.821 -1.7776 -1.1988 -0.2937
  926MOL0     H24991   2.105   9.486   5.694 -0.1916  7.9114 -1.4085
  926MOL0     H24992   2.990   9.020   6.027 -4.8136 -0.8912 -0.3378
  926MOL0     H24993   3.166   9.159   6.146  2.1900  0.0114  1.9990
  926MOL0     H24994   3.189   9.355   6.534 -0.4332  0.5592  1.0058
  926MOL0     H24995   3.266   9.479   6.722 -2.2826  0.5355 -3.6174
  926MOL0     H24996   3.500   9.360   8.143 -1.0677  2.5049 -1.6455
  926MOL0     H24997   3.525   9.129   8.073 -1.7288 -0.3789  1.6547
  926MOL0     H24998   3.737   8.800   7.749  1.9423 -1.4864 -1.4944
  926MOL0     H24999   3.709   8.569   7.637  2.1533  3.4801  0.3136
  926MOL0     H25000   3.610   8.330   7.590  0.6694  0.5852 -0.2693
  926MOL0     H25001   3.485   8.292   7.463  0.3993  0.1046  0.4171
  926MOL0     H25002   3.740   8.475   7.441 -0.3556  0.4740 -1.3510
  926MOL0     H25003   3.609   8.489   7.328  1.8201  5.9659  3.4057
  926MOL0     H25004   3.634   8.239   7.279 -0.2522  0.0740 -1.3782
  926MOL0     H25005   3.774   8.251   7.391 -1.6362  1.2157  2.0008
  926MOL0     H25006   3.873   8.439   7.257 -2.0401  1.9686 -0.0025
  926MOL0     H25007   3.738   8.432   7.150 -0.0836  0.0577  0.0836
  926MOL0     H25008   3.989   8.105   7.035  1.5787  1.1634  1.6359
  926MOL0     H25009   3.284   8.600   7.640  1.7362 -1.9125 -2.2529
  926MOL0     H25010   3.301   8.829   7.751 -2.1354 -2.2120 -0.6186
  927MOL0     O25011   7.689   0.323   5.512 -0.7332  0.7367 -0.3568
  927MOL0     C25012   7.739   0.433   5.509 -0.0698 -0.0141 -0.5238
  927MOL0     O25013   7.779   0.494   5.620 -0.2849 -0.0732  0.3352
  927MOL0     C25014   7.793   0.426   5.738  0.0186  1.5886  0.5085
  927MOL0     C25015   7.908   0.444   5.822 -0.4925  0.5974 -0.1133
  927MOL0     C25016   7.921   0.376   5.948  0.5240  0.6116  0.0803
  927MOL0     C25017   7.814   0.296   5.990 -0.6528 -0.2749 -0.6836
  927MOL0     O25018   7.814   0.228   6.107  0.6672  0.0904 -0.7535
  927MOL0     C25019   7.945   0.207   6.163 -0.8154  0.3629  0.2235
  927MOL0     C25020   7.946   0.086   6.266 -0.1574  0.6744 -1.2229
  927MOL0     C25021   7.916  -0.057   6.216  0.3672  0.0326  0.2340
  927MOL0     C25022   7.756  -0.075   6.210 -0.2213  0.8445  0.1080
  927MOL0     C25023   7.706  -0.219   6.199 -0.8002 -0.5688  0.3375
  927MOL0     C25024   7.686  -0.250   6.046 -0.6690  0.6981  0.2492
  927MOL0     C25025   7.678  -0.401   6.029 -1.4600  0.1206  0.0633
  927MOL0     C25026   7.539  -0.451   6.062 -0.0595 -0.9271 -0.4988
  927MOL0     N25027   7.516  -0.598   6.054  1.0019  1.6210  0.2735
  927MOL0     C25028   7.598  -0.703   6.092  0.2649 -0.4314 -0.7510
  927MOL0     C25029   7.513  -0.805   6.090 -0.0958  0.8650  0.1520
  927MOL0     C25030   7.546  -0.945   6.109 -0.3300  0.6814  0.0958
  927MOL0     C25031   7.429  -1.043   6.098 -0.7962  0.0361 -0.1587
  927MOL0     C25032   7.406  -1.106   5.959  0.4397  0.2856  0.3451
  927MOL0     C25033   7.255  -1.126   5.930  0.3940  0.1443 -0.0126
  927MOL0     O25034   7.251  -1.178   5.796  0.2131  0.0515  0.3839
  927MOL0     C25035   7.304  -1.301   5.766  0.1626 -0.4060 -0.0664
  927MOL0     C25036   7.274  -1.421   5.841 -0.1358 -0.5546 -0.0635
  927MOL0     C25037   7.336  -1.544   5.805 -0.2139 -0.3185 -0.4939
  927MOL0     C25038   7.306  -1.662   5.898  0.5249  0.1771  0.6437
  927MOL0     C25039   7.430  -1.556   5.705  0.4239 -0.6938  0.4422
  927MOL0     C25040   7.510  -1.674   5.673  0.1522  0.0805  0.4203
  927MOL0     O25041   7.591  -1.716   5.773  0.8573 -0.3813 -0.3005
  927MOL0     C25042   7.687  -1.804   5.750 -1.0639 -0.6004 -0.2482
  927MOL0     C25043   7.658  -1.943   5.735 -0.0133 -0.6607 -0.3448
  927MOL0     C25044   7.758  -2.027   5.696  0.0397 -0.2868  0.4392
  927MOL0     C25045   7.893  -1.992   5.676 -0.7453 -0.7913  0.4452
  927MOL0     O25046   8.005  -2.062   5.641  0.1051 -0.6036 -0.0865
  927MOL0     C25047   7.994  -2.206   5.615 -0.4634  1.2018  1.1174
  927MOL0     C25048   8.125  -2.287   5.640  0.1939 -0.6147  0.0798
  927MOL0     C25049   8.223  -2.285   5.518 -0.2401  0.5192  0.2669
  927MOL0     C25050   8.281  -2.148   5.499  0.7574 -0.3938  0.9615
  927MOL0     C25051   8.390  -2.159   5.393 -0.4939 -0.2495  0.2067
  927MOL0     C25052   8.472  -2.032   5.379  0.2184  0.6998 -0.3542
  927MOL0     C25053   8.601  -2.051   5.301  0.7281  0.7859  0.6911
  927MOL0     C25054   8.577  -2.108   5.163  0.3417  0.2457 -1.1362
  927MOL0    Cl25055   8.449  -2.014   5.072 -0.0940  0.2172 -0.2147
  927MOL0     C25056   7.918  -1.853   5.698 -0.5556 -0.0799 -0.7185
  927MOL0     C25057   7.818  -1.758   5.726 -0.3164 -0.1925  0.2680
  927MOL0     O25058   7.503  -1.709   5.559  0.3886  0.3675  0.6991
  927MOL0     C25059   7.452  -1.442   5.634 -0.0190 -0.3709 -0.4921
  927MOL0     C25060   7.391  -1.318   5.660  0.3859 -0.1473  0.6786
  927MOL0     N25061   7.396  -0.770   6.027 -0.3824  1.1180 -0.4716
  927MOL0     N25062   7.395  -0.644   6.016 -0.4265 -0.4493 -0.1758
  927MOL0     C25063   7.699   0.283   5.917 -0.0367 -0.0488 -0.3540
  927MOL0     C25064   7.687   0.347   5.792  0.1271 -0.0949  0.3124
  927MOL0     C25065   7.750   0.510   5.382 -0.4583  0.2387  0.0270
  927MOL0     C25066   7.694   0.464   5.267 -0.0105 -0.2681 -0.1414
  927MOL0     C25067   7.731   0.529   5.143  0.1189  0.1366 -0.3012
  927MOL0     C25068   7.794   0.651   5.141 -0.2379  0.5013  0.8476
  927MOL0     O25069   7.794   0.731   5.029 -0.0300  0.1699 -0.5476
  927MOL0     C25070   7.704   0.710   4.913 -0.7198  0.3190 -0.7495
  927MOL0     C25071   7.798   0.644   4.818 -0.3645 -0.1697 -0.3685
  927MOL0     C25072   7.709   0.603   4.697  0.1028 -0.3729 -0.0736
  927MOL0     C25073   7.813   0.558   4.591 -0.3397  0.0783 -0.9128
  927MOL0     C25074   7.749   0.492   4.480  0.7430  0.7684 -0.2548
  927MOL0     C25075   7.683   0.445   4.386  0.2015  0.1194 -0.9839
  927MOL0     C25076   7.858   0.697   5.255  0.5384  0.1600 -0.1020
  927MOL0     C25077   7.827   0.632   5.375 -0.0683  0.2277  0.1731
  927MOL0     H25078   8.000   0.493   5.791 -0.9455  2.7426  1.6903
  927MOL0     H25079   8.019   0.393   5.991  1.8922 -2.4991 -1.4645
  927MOL0     H25080   8.011   0.176   6.081  1.8887  0.8542  2.0606
  927MOL0     H25081   7.990   0.297   6.205 -0.8751  1.0283 -1.0845
  927MOL0     H25082   8.040   0.086   6.321 -1.4293  0.4210  1.0657
  927MOL0     H25083   7.888   0.107   6.356  3.3544  1.7345  1.0068
  927MOL0     H25084   7.961  -0.082   6.119  2.5333  0.2876  1.1212
  927MOL0     H25085   7.950  -0.125   6.293 -0.2689 -0.7176 -0.1351
  927MOL0     H25086   7.703  -0.029   6.294 -3.3419  0.6251 -1.5727
  927MOL0     H25087   7.712  -0.028   6.121  0.7826  1.0543 -0.2931
  927MOL0     H25088   7.784  -0.277   6.248 -2.1475 -1.2992  1.6816
  927MOL0     H25089   7.609  -0.228   6.249  0.1595  0.0935  2.4200
  927MOL0     H25090   7.595  -0.208   6.001 -1.6350 -1.9049 -0.3779
  927MOL0     H25091   7.775  -0.225   5.988  1.0415  1.5817  3.0248
  927MOL0     H25092   7.693  -0.410   5.921  0.8021  1.4505  0.1820
  927MOL0     H25093   7.765  -0.451   6.072 -0.3456  1.2517 -0.8088
  927MOL0     H25094   7.469  -0.398   5.997  0.5314  1.8157  0.9456
  927MOL0     H25095   7.511  -0.429   6.165 -0.9354 -2.5219 -0.3612
  927MOL0     H25096   7.699  -0.695   6.130 -0.4899  2.1371  0.9600
  927MOL0     H25097   7.623  -0.968   6.034 -2.3240 -2.1465 -1.2462
  927MOL0     H25098   7.599  -0.928   6.204  0.3110  0.6612 -0.2491
  927MOL0     H25099   7.340  -0.986   6.126 -2.3699 -3.1009  1.8785
  927MOL0     H25100   7.432  -1.119   6.177 -1.9219  1.2680  1.1095
  927MOL0     H25101   7.455  -1.200   5.931 -1.9099 -0.0810 -3.2247
  927MOL0     H25102   7.441  -1.039   5.880 -4.3989  1.4660 -1.1630
  927MOL0     H25103   7.191  -1.038   5.945 -1.3752 -1.3961  2.2243
  927MOL0     H25104   7.201  -1.193   5.997 -3.8251  1.8923 -1.3373
  927MOL0     H25105   7.224  -1.419   5.937 -0.2118  1.9610 -0.0948
  927MOL0     H25106   7.392  -1.717   5.937 -0.8312 -1.5861  1.2418
  927MOL0     H25107   7.250  -1.637   5.988 -0.1907  1.0466 -0.0202
  927MOL0     H25108   7.257  -1.745   5.846 -2.8431  1.3072  1.7497
  927MOL0     H25109   7.554  -1.970   5.753  0.9028 -3.0182  2.0594
  927MOL0     H25110   7.752  -2.133   5.674  1.6874 -1.0213  3.0397
  927MOL0     H25111   7.915  -2.262   5.667 -0.8882  1.4329  0.7320
  927MOL0     H25112   7.962  -2.221   5.511  1.9574 -0.5646  0.5533
  927MOL0     H25113   8.178  -2.247   5.728  0.3831 -1.0545  0.1662
  927MOL0     H25114   8.095  -2.389   5.663 -1.5020  0.3132  2.3930
  927MOL0     H25115   8.166  -2.300   5.426 -0.2927  1.4998  0.1287
  927MOL0     H25116   8.293  -2.368   5.523 -1.9329 -0.9284  1.1521
  927MOL0     H25117   8.203  -2.083   5.457  1.2506 -2.4058 -3.6866
  927MOL0     H25118   8.321  -2.113   5.594 -0.6072  3.2574  0.3601
  927MOL0     H25119   8.357  -2.195   5.295  2.5591  2.3036 -1.9410
  927MOL0     H25120   8.460  -2.235   5.430  1.0639  0.8486 -0.3686
  927MOL0     H25121   8.413  -1.953   5.333 -0.6053  1.2108  1.4915
  927MOL0     H25122   8.501  -1.995   5.478 -1.6471  2.2361 -0.3449
  927MOL0     H25123   8.667  -2.116   5.359 -0.2488 -0.0595  0.8890
  927MOL0     H25124   8.643  -1.952   5.281 -0.6539  2.0127  3.3361
  927MOL0     H25125   8.544  -2.210   5.187 -0.7569  1.5564  4.0354
  927MOL0     H25126   8.670  -2.109   5.106  0.4414  2.0387 -1.0699
  927MOL0     H25127   8.019  -1.827   5.670  0.4144  1.3270  3.4097
  927MOL0     H25128   7.836  -1.652   5.717  0.1936 -0.4443 -2.8618
  927MOL0     H25129   7.519  -1.428   5.550  0.0059  0.8653 -0.2825
  927MOL0     H25130   7.415  -1.238   5.590  0.1230 -0.6953 -0.0627
  927MOL0     H25131   7.615   0.232   5.964  0.9917 -2.2081 -0.7157
  927MOL0     H25132   7.593   0.348   5.737  1.8591  0.6526 -2.8570
  927MOL0     H25133   7.637   0.372   5.268  0.9364 -0.8770  1.2780
  927MOL0     H25134   7.702   0.478   5.052 -3.2956  3.9628 -1.6581
  927MOL0     H25135   7.608   0.658   4.924 -0.9095  0.4596 -1.6597
  927MOL0     H25136   7.684   0.810   4.873 -0.8993 -0.1989 -1.9859
  927MOL0     H25137   7.843   0.563   4.876 -0.3572  1.7325  2.4972
  927MOL0     H25138   7.881   0.709   4.788  0.4169 -0.4053  1.2180
  927MOL0     H25139   7.659   0.686   4.646 -1.3457 -1.4117 -0.4220
  927MOL0     H25140   7.634   0.527   4.721  0.5526 -1.1028 -0.9325
  927MOL0     H25141   7.885   0.493   4.642 -0.4378  2.2439  2.2991
  927MOL0     H25142   7.862   0.642   4.540  0.7440 -0.9216 -1.5586
  927MOL0     H25143   7.623   0.425   4.300  0.3655  0.9011 -1.2878
  927MOL0     H25144   7.920   0.784   5.273  4.3356 -2.3547  0.1405
  927MOL0     H25145   7.877   0.678   5.460 -2.9616  0.5695  1.8199
  928MOL0     O25146   7.794   1.012   4.413 -0.0983  0.1668 -0.5737
  928MOL0     C25147   7.875   0.919   4.405 -0.8644 -0.2911 -0.6451
  928MOL0     O25148   7.996   0.916   4.470  0.2571  0.4023  1.0532
  928MOL0     C25149   7.996   0.979   4.593 -0.4818  0.2105  1.0620
  928MOL0     C25150   8.132   1.024   4.621  0.0152 -0.6296 -1.2535
  928MOL0     C25151   8.159   1.095   4.741  0.2903  0.0549  0.6364
  928MOL0     C25152   8.057   1.112   4.832  0.0033 -0.2097 -0.0409
  928MOL0     O25153   8.106   1.158   4.954  0.5121  0.7346 -0.9581
  928MOL0     C25154   8.018   1.236   5.038 -0.1729 -0.1282  0.2960
  928MOL0     C25155   8.052   1.204   5.182  0.6201 -0.1807 -0.0109
  928MOL0     C25156   7.963   1.275   5.287 -0.0863 -0.0525  0.5053
  928MOL0     C25157   7.999   1.417   5.328 -0.2091  0.3463  1.2488
  928MOL0     C25158   7.917   1.483   5.439 -0.5884 -0.0584 -0.1735
  928MOL0     C25159   7.923   1.633   5.458 -0.2483 -0.5057 -0.2078
  928MOL0     C25160   7.794   1.674   5.531  0.4265 -0.3874  0.0500
  928MOL0     C25161   7.814   1.822   5.572  0.6393  0.2148  0.8987
  928MOL0     N25162   7.675   1.885   5.572  0.4623 -0.1744  0.5106
  928MOL0     C25163   7.584   1.856   5.669 -0.8943  0.2468  0.7730
  928MOL0     C25164   7.482   1.942   5.641 -0.1986 -0.0092  0.4559
  928MOL0     C25165   7.354   1.938   5.722 -0.4067 -0.5041 -0.0685
  928MOL0     C25166   7.365   1.990   5.872  0.2951 -0.0670  0.8712
  928MOL0     C25167   7.383   2.144   5.893 -0.3668  0.2041 -0.3822
  928MOL0     C25168   7.509   2.202   5.842 -0.2131  0.3782  0.0095
  928MOL0     O25169   7.546   2.320   5.911  1.2197 -0.0841 -0.3152
  928MOL0     C25170   7.503   2.441   5.865  0.3222 -0.3423  0.7852
  928MOL0     C25171   7.371   2.483   5.867  1.2489  0.4983 -0.2665
  928MOL0     C25172   7.331   2.608   5.822  0.5852 -0.9646 -0.9202
  928MOL0     C25173   7.178   2.638   5.838  0.6548  0.9720 -0.2410
  928MOL0     C25174   7.431   2.706   5.779 -0.2345  0.3440  0.4128
  928MOL0     C25175   7.406   2.851   5.763  0.0011  0.1127 -0.6543
  928MOL0     O25176   7.513   2.935   5.768  0.0407 -0.2953 -0.2232
  928MOL0     C25177   7.484   3.061   5.728  0.7573 -0.1175  0.1597
  928MOL0     C25178   7.418   3.143   5.815  0.1523  0.3279  0.4395
  928MOL0     C25179   7.389   3.274   5.787 -1.3658 -0.5067 -0.8598
  928MOL0     C25180   7.416   3.315   5.659  0.3503  0.9946 -0.2501
  928MOL0     O25181   7.378   3.436   5.603  0.7312 -0.2520 -0.5599
  928MOL0     C25182   7.322   3.542   5.688  0.1039  0.1237  0.3681
  928MOL0     C25183   7.309   3.666   5.597  0.1366 -1.0680 -0.4154
  928MOL0     C25184   7.217   3.642   5.484 -0.4925 -0.0060  0.0109
  928MOL0     C25185   7.207   3.764   5.397 -0.6062  0.1724  0.6145
  928MOL0     C25186   7.086   3.770   5.301  0.2943 -0.4212  0.3476
  928MOL0     C25187   6.955   3.791   5.368 -0.2535 -0.3447  0.2842
  928MOL0     C25188   6.856   3.674   5.371  0.3059  0.6713  0.4049
  928MOL0     C25189   6.793   3.631   5.240  0.0881 -0.1093  0.0684
  928MOL0    Cl25190   6.657   3.733   5.175 -0.0720  0.1185  0.3062
  928MOL0     C25191   7.473   3.227   5.567 -0.7015  0.3891 -0.2074
  928MOL0     C25192   7.520   3.098   5.600  1.3360 -0.7456 -1.0278
  928MOL0     O25193   7.294   2.882   5.712  0.2701  0.4016 -0.4236
  928MOL0     C25194   7.562   2.663   5.782  0.0407 -0.6216  0.6071
  928MOL0     C25195   7.593   2.529   5.814  0.8083  0.2334 -0.8019
  928MOL0     N25196   7.527   2.026   5.532 -0.0023 -0.0145  0.0511
  928MOL0     N25197   7.650   1.989   5.490 -0.0721  0.2670  0.1993
  928MOL0     C25198   7.923   1.071   4.804  0.8550 -0.0550  0.1413
  928MOL0     C25199   7.891   0.995   4.688  0.7133 -0.8742  0.0359
  928MOL0     C25200   7.848   0.817   4.303  0.2030  0.1268  0.1173
  928MOL0     C25201   7.937   0.707   4.292  0.1040 -0.5907  0.6313
  928MOL0     C25202   7.907   0.617   4.189  0.9217 -0.1853  0.7003
  928MOL0     C25203   7.808   0.623   4.095 -0.1318  0.4286  0.6404
  928MOL0     O25204   7.799   0.528   3.998  0.5950 -0.3898 -0.9003
  928MOL0     C25205   7.697   0.533   3.897 -0.4507 -0.0679 -0.5933
  928MOL0     C25206   7.592   0.434   3.924  0.3533  0.3781 -0.6651
  928MOL0     C25207   7.497   0.429   3.813  0.0204 -1.0263  0.6430
  928MOL0     C25208   7.397   0.307   3.815 -0.5118 -0.0481  0.4930
  928MOL0     C25209   7.488   0.193   3.806  0.9577  0.2227  0.2119
  928MOL0     C25210   7.560   0.093   3.785 -0.0504 -0.0396  0.1055
  928MOL0     C25211   7.709   0.719   4.126 -0.0926  0.3747 -0.5868
  928MOL0     C25212   7.736   0.821   4.221 -0.0716  0.1497  0.2277
  928MOL0     H25213   8.209   1.010   4.545 -0.4838 -0.0885 -1.8792
  928MOL0     H25214   8.256   1.141   4.758  0.6780 -1.0576  1.5397
  928MOL0     H25215   8.035   1.342   5.019  1.0157 -0.7051 -2.1530
  928MOL0     H25216   7.913   1.211   5.017  0.2018 -1.5981  0.0167
  928MOL0     H25217   8.069   1.096   5.183  2.5197  0.0695 -0.0868
  928MOL0     H25218   8.149   1.251   5.201 -0.1921  1.6998 -0.2675
  928MOL0     H25219   7.855   1.265   5.270 -0.5424 -0.2473  3.0818
  928MOL0     H25220   7.964   1.212   5.377 -0.4787  1.9895  2.0287
  928MOL0     H25221   8.106   1.417   5.352  0.9844  5.2391 -2.5621
  928MOL0     H25222   8.004   1.489   5.246  2.1693  2.1910  2.8427
  928MOL0     H25223   7.813   1.450   5.434 -2.2116  3.9934  2.4120
  928MOL0     H25224   7.950   1.439   5.534 -4.5298 -0.5007  1.1810
  928MOL0     H25225   8.011   1.664   5.515 -1.8835  2.2519  1.0424
  928MOL0     H25226   7.921   1.686   5.362  2.4903 -0.6414 -0.4126
  928MOL0     H25227   7.715   1.670   5.456  2.6937 -0.4157 -2.4734
  928MOL0     H25228   7.767   1.614   5.619  0.5111  2.1668  1.9681
  928MOL0     H25229   7.864   1.881   5.495 -0.4338 -0.0090 -0.0011
  928MOL0     H25230   7.863   1.827   5.670 -1.0971  1.9528  1.7682
  928MOL0     H25231   7.595   1.781   5.747  0.8956 -0.8741 -0.4679
  928MOL0     H25232   7.283   2.002   5.669  0.4629  0.3693 -0.1909
  928MOL0     H25233   7.309   1.839   5.729 -2.2555  0.2505 -0.6524
  928MOL0     H25234   7.453   1.945   5.919  1.6472  1.9291  0.3936
  928MOL0     H25235   7.270   1.963   5.918  0.5047  0.9550  1.9287
  928MOL0     H25236   7.373   2.168   5.999  1.1968 -5.1702  1.3254
  928MOL0     H25237   7.310   2.199   5.835  0.7286  1.1756 -0.8881
  928MOL0     H25238   7.502   2.225   5.736 -0.0991  0.5896  0.0471
  928MOL0     H25239   7.596   2.137   5.854  0.9316  2.0692  1.3624
  928MOL0     H25240   7.290   2.411   5.875  0.8908  0.7729 -1.2477
  928MOL0     H25241   7.159   2.721   5.907 -0.4833  0.5364 -0.0017
  928MOL0     H25242   7.143   2.658   5.736 -0.6373 -2.0695 -0.4998
  928MOL0     H25243   7.113   2.558   5.875 -0.0103 -0.0263 -3.3099
  928MOL0     H25244   7.400   3.108   5.916 -1.5198  3.2950  1.3076
  928MOL0     H25245   7.351   3.336   5.868  3.5578  1.0027  0.7219
  928MOL0     H25246   7.218   3.530   5.720  0.6784  1.4852  3.0981
  928MOL0     H25247   7.384   3.558   5.777 -2.0942 -0.8914  2.2042
  928MOL0     H25248   7.264   3.745   5.657  1.1525  0.1043 -1.1678
  928MOL0     H25249   7.398   3.711   5.552  0.1714 -0.1187  0.5600
  928MOL0     H25250   7.120   3.607   5.518 -1.1456  1.3435 -0.3966
  928MOL0     H25251   7.258   3.560   5.423  0.7210  1.3882 -1.1189
  928MOL0     H25252   7.203   3.849   5.466  1.2438  0.7863  0.0479
  928MOL0     H25253   7.305   3.766   5.349 -0.5350  0.3069  0.7623
  928MOL0     H25254   7.089   3.678   5.242  1.9902  2.8958 -5.6069
  928MOL0     H25255   7.092   3.849   5.225  0.6962 -1.9805 -1.3128
  928MOL0     H25256   6.970   3.829   5.469  2.6181 -0.9253  0.1631
  928MOL0     H25257   6.915   3.883   5.326 -3.6699 -0.8654  1.9957
  928MOL0     H25258   6.773   3.707   5.434 -1.2357 -0.6773 -0.8361
  928MOL0     H25259   6.894   3.585   5.423  0.8430 -0.1716 -1.3700
  928MOL0     H25260   6.747   3.532   5.249 -0.7192  0.0623 -1.6176
  928MOL0     H25261   6.870   3.628   5.162  1.3228 -1.6035  1.2987
  928MOL0     H25262   7.497   3.263   5.467  0.0340  0.6701  0.0602
  928MOL0     H25263   7.564   3.033   5.525  1.1979  0.8412 -2.5550
  928MOL0     H25264   7.646   2.727   5.760 -0.6839  0.8434  1.9121
  928MOL0     H25265   7.698   2.501   5.823  0.1328 -2.2637  0.0935
  928MOL0     H25266   7.850   1.096   4.881  2.5294 -0.5938  1.9771
  928MOL0     H25267   7.792   0.955   4.671  1.0596 -1.3675 -0.9250
  928MOL0     H25268   8.030   0.705   4.348  0.7657  2.1178 -0.2442
  928MOL0     H25269   7.982   0.540   4.174 -0.3587 -2.0782  3.2291
  928MOL0     H25270   7.662   0.637   3.897 -1.5549 -0.4137 -1.5669
  928MOL0     H25271   7.749   0.506   3.805  1.1846  0.5318  0.1154
  928MOL0     H25272   7.559   0.464   4.024  0.9189 -3.7026  0.9341
  928MOL0     H25273   7.641   0.338   3.942  0.8467  0.8250  0.4844
  928MOL0     H25274   7.557   0.419   3.723 -1.4659  2.1787 -0.8718
  928MOL0     H25275   7.450   0.528   3.814  3.8575  1.0131 -1.3203
  928MOL0     H25276   7.329   0.315   3.729  0.4995  1.7460 -0.1903
  928MOL0     H25277   7.351   0.294   3.914 -2.3013  1.1297 -0.1269
  928MOL0     H25278   7.617   0.005   3.768 -0.8807  0.0441 -4.3013
  928MOL0     H25279   7.612   0.713   4.077 -1.0658 -2.8683  1.4450
  928MOL0     H25280   7.655   0.891   4.235 -0.4463 -0.2409  0.0553
  929MOL0     O25281   2.053   4.192  10.430 -0.2911 -0.4540 -0.2444
  929MOL0     C25282   1.994   4.142  10.525 -0.3991  0.3841  0.5773
  929MOL0     O25283   2.052   4.097  10.643 -0.5417 -0.1933 -1.0463
  929MOL0     C25284   2.184   4.084  10.652 -0.7959 -1.0057 -0.3841
  929MOL0     C25285   2.267   4.025  10.552 -1.0290 -0.0987 -0.9866
  929MOL0     C25286   2.405   4.010  10.557 -0.1042 -0.0062 -0.0164
  929MOL0     C25287   2.472   4.056  10.666  0.8910 -0.4424 -0.1452
  929MOL0     O25288   2.604   4.039  10.681  0.4167 -0.8970  0.0048
  929MOL0     C25289   2.665   3.924  10.623 -0.2904  0.0741  0.3310
  929MOL0     C25290   2.811   3.920  10.681 -0.2110 -0.2765  0.2700
  929MOL0     C25291   2.918   3.988  10.599  0.4846 -0.0782 -0.2234
  929MOL0     C25292   2.885   4.132  10.610  0.4888  0.6852 -0.8353
  929MOL0     C25293   2.995   4.214  10.547  0.0093 -1.3194 -0.4214
  929MOL0     C25294   2.943   4.356  10.507  0.7582  0.7378 -0.6137
  929MOL0     C25295   3.030   4.401  10.389 -0.3371 -0.9410  0.6972
  929MOL0     C25296   3.175   4.421  10.436 -0.5553 -1.1522 -0.1072
  929MOL0     N25297   3.273   4.358  10.356  0.9544  0.2129 -0.2991
  929MOL0     C25298   3.313   4.405  10.231  0.5199 -0.4845  0.3274
  929MOL0     C25299   3.414   4.314  10.201 -0.3096 -0.7535  0.2779
  929MOL0     C25300   3.501   4.294  10.088  0.1642 -0.1713  0.5090
  929MOL0     C25301   3.604   4.412  10.081  1.6797  0.8509  1.1299
  929MOL0     C25302   3.723   4.374  10.171  0.6550  0.9236  0.1713
  929MOL0     C25303   3.823   4.488  10.186  0.2527 -1.4015  0.5231
  929MOL0     O25304   3.932   4.461  10.272 -0.4471  0.2446  0.2279
  929MOL0     C25305   3.981   4.559  10.357  0.1102 -1.0640  0.8998
  929MOL0     C25306   4.015   4.684  10.304  0.5834 -0.4369 -0.5408
  929MOL0     C25307   4.081   4.783  10.394 -0.6209  0.6242  0.4000
  929MOL0     C25308   4.125   4.906  10.323  0.3202  0.4039 -0.2537
  929MOL0     C25309   4.125   4.740  10.530  1.1205 -0.8107 -0.7370
  929MOL0     C25310   4.219   4.829  10.615 -0.3097  0.2609  0.5094
  929MOL0     O25311   4.274   4.949  10.571 -0.3565  0.1528  0.9065
  929MOL0     C25312   4.343   5.009  10.663 -0.7561  0.2994  0.2102
  929MOL0     C25313   4.484   5.030  10.638 -0.2466  0.1554  0.1270
  929MOL0     C25314   4.554   5.081  10.737 -0.2004  0.0749 -0.7334
  929MOL0     C25315   4.502   5.138  10.857 -0.9981  0.6509  0.7656
  929MOL0     O25316   4.597   5.200  10.940  0.3017  0.4860  0.4525
  929MOL0     C25317   4.559   5.240  11.071  0.3165  0.0578  1.1151
  929MOL0     C25318   4.502   5.378  11.088  0.6157  0.3675 -0.3633
  929MOL0     C25319   4.409   5.376  11.208 -0.5584  0.1700  0.0094
  929MOL0     C25320   4.342   5.518  11.229 -0.2692  0.6418  0.4721
  929MOL0     C25321   4.227   5.546  11.134 -1.2692  0.2875 -0.6022
  929MOL0     C25322   4.140   5.428  11.102 -0.5891 -0.4040 -1.0701
  929MOL0     C25323   4.025   5.462  11.006  0.0343  0.5539 -0.5556
  929MOL0     C25324   3.951   5.342  10.949 -1.4531 -0.7831 -0.6862
  929MOL0    Cl25325   4.059   5.249  10.837  0.2460 -0.3192  0.2825
  929MOL0     C25326   4.370   5.121  10.873 -0.1298 -0.7755  0.0234
  929MOL0     C25327   4.291   5.061  10.782 -0.6705  0.7349  0.1992
  929MOL0     O25328   4.229   4.786  10.731 -1.2516  1.3698 -0.0371
  929MOL0     C25329   4.078   4.613  10.576  0.4772 -0.6421 -0.3105
  929MOL0     C25330   4.010   4.524  10.490 -0.0282 -0.9942  0.1979
  929MOL0     N25331   3.429   4.229  10.306  1.0574 -0.9184  0.0679
  929MOL0     N25332   3.342   4.253  10.394  0.6714  0.0002  0.1858
  929MOL0     C25333   2.407   4.121  10.773 -0.4643  0.3664 -0.3863
  929MOL0     C25334   2.260   4.133  10.766 -0.7694 -0.7027 -0.3729
  929MOL0     C25335   1.846   4.143  10.511  0.0662  0.5874  0.1003
  929MOL0     C25336   1.774   4.103  10.627  0.9198 -0.5675 -0.1957
  929MOL0     C25337   1.638   4.123  10.632 -0.0073 -0.3392 -0.2302
  929MOL0     C25338   1.567   4.175  10.517 -0.4373  0.2874  0.7541
  929MOL0     O25339   1.432   4.196  10.504 -0.4580  0.5430 -0.2904
  929MOL0     C25340   1.357   4.183  10.628  0.0742  0.0816  1.2774
  929MOL0     C25341   1.228   4.263  10.591  0.8875 -0.0557 -1.5636
  929MOL0     C25342   1.121   4.255  10.704 -0.4757  0.3575 -0.9733
  929MOL0     C25343   1.075   4.113  10.748  0.4540 -2.0160  0.4090
  929MOL0     C25344   1.011   4.035  10.643  0.2590 -0.0561  0.0960
  929MOL0     C25345   0.963   3.960  10.557  0.2299 -1.6425 -0.3231
  929MOL0     C25346   1.637   4.208  10.401 -0.2594 -0.3692 -0.5065
  929MOL0     C25347   1.778   4.196  10.399 -0.0348 -0.4533  0.3119
  929MOL0     H25348   2.221   4.009  10.455 -0.5313  0.3765 -1.3102
  929MOL0     H25349   2.453   3.972  10.467 -1.2355  0.8563 -1.0010
  929MOL0     H25350   2.618   3.834  10.661  0.5143 -1.0481 -1.2069
  929MOL0     H25351   2.650   3.922  10.514  0.4269 -1.9400  0.2393
  929MOL0     H25352   2.804   3.952  10.785 -1.3476 -1.2215  0.5091
  929MOL0     H25353   2.842   3.816  10.687  2.2565  0.4525  1.5043
  929MOL0     H25354   3.017   3.963  10.637  1.3365 -0.8233 -2.7034
  929MOL0     H25355   2.921   3.945  10.498  0.8160  1.4899 -0.9186
  929MOL0     H25356   2.797   4.147  10.547 -0.3277  2.2157  0.5784
  929MOL0     H25357   2.866   4.163  10.713  1.4378  1.0074 -0.7437
  929MOL0     H25358   3.088   4.217  10.604  0.5406  3.7548 -1.1533
  929MOL0     H25359   3.015   4.170  10.448 -0.1852  1.8272 -1.9757
  929MOL0     H25360   2.838   4.365  10.480  0.9145 -2.2791 -2.6897
  929MOL0     H25361   2.951   4.425  10.592 -1.6911  2.8707 -1.9727
  929MOL0     H25362   3.018   4.328  10.308  0.2949  0.0338 -0.3025
  929MOL0     H25363   2.989   4.492  10.346 -0.0864 -1.6302 -1.1100
  929MOL0     H25364   3.198   4.396  10.540  3.3434  1.8653 -0.0029
  929MOL0     H25365   3.209   4.525  10.437  3.3270 -2.1318  3.9732
  929MOL0     H25366   3.284   4.485  10.163 -0.3418 -0.3374  0.8520
  929MOL0     H25367   3.542   4.193  10.096 -1.8026 -1.3533 -2.3297
  929MOL0     H25368   3.424   4.302  10.010  0.5146  1.3330  0.2871
  929MOL0     H25369   3.559   4.508  10.108 -2.7046 -0.8404  0.6795
  929MOL0     H25370   3.638   4.411   9.977  0.6965  1.7206  0.7775
  929MOL0     H25371   3.781   4.294  10.124 -0.1866  0.0150  0.6589
  929MOL0     H25372   3.687   4.354  10.272  3.6402  5.3148  2.4713
  929MOL0     H25373   3.776   4.581  10.218  0.3347 -1.0181 -0.4257
  929MOL0     H25374   3.857   4.503  10.083  1.3367  0.9032  1.1441
  929MOL0     H25375   3.997   4.704  10.199 -0.6841  0.4941 -0.1657
  929MOL0     H25376   4.065   4.987  10.365 -0.7190  0.9629 -2.6746
  929MOL0     H25377   4.232   4.930  10.335  0.3172  0.2809  0.0377
  929MOL0     H25378   4.115   4.892  10.215 -0.1605  1.2473 -0.3237
  929MOL0     H25379   4.529   5.000  10.544  1.4287  0.3384  0.8307
  929MOL0     H25380   4.661   5.087  10.720  0.1164 -0.9524  0.7450
  929MOL0     H25381   4.495   5.164  11.116  0.4725 -1.4929 -1.1416
  929MOL0     H25382   4.651   5.231  11.130  0.2274  0.1572  1.2705
  929MOL0     H25383   4.575   5.458  11.107  0.0236  1.1937 -1.4495
  929MOL0     H25384   4.454   5.418  10.998  0.9981  0.9084 -0.3363
  929MOL0     H25385   4.463   5.359  11.302  0.5467 -0.4606 -0.7183
  929MOL0     H25386   4.336   5.294  11.202  0.8029 -1.0156 -1.0737
  929MOL0     H25387   4.306   5.531  11.332 -1.8496  0.3704 -0.0189
  929MOL0     H25388   4.419   5.596  11.231 -1.5081  2.3174 -4.1738
  929MOL0     H25389   4.264   5.598  11.045 -1.8745  0.2156 -0.9035
  929MOL0     H25390   4.164   5.619  11.186 -0.0848 -0.7324  2.5117
  929MOL0     H25391   4.205   5.353  11.055  2.8604  1.5536  0.2700
  929MOL0     H25392   4.119   5.375  11.195  1.8042  0.2875 -0.0625
  929MOL0     H25393   4.061   5.515  10.918 -1.3420 -0.5178 -1.8045
  929MOL0     H25394   3.952   5.530  11.050 -2.4696 -1.2692 -1.6459
  929MOL0     H25395   3.865   5.377  10.892 -2.3214 -0.3317  0.8416
  929MOL0     H25396   3.929   5.274  11.032  0.8854  1.0440  1.6023
  929MOL0     H25397   4.328   5.158  10.966  1.4749 -1.4840  1.0632
  929MOL0     H25398   4.189   5.056  10.818 -0.2099 -4.4939  1.6512
  929MOL0     H25399   4.097   4.579  10.677  0.6761  1.5658  0.4472
  929MOL0     H25400   3.968   4.431  10.527 -3.3399  0.6656  1.0158
  929MOL0     H25401   2.462   4.161  10.858  1.1801 -2.4881  0.0062
  929MOL0     H25402   2.215   4.193  10.844 -0.2507 -2.0796  1.0340
  929MOL0     H25403   1.823   4.058  10.712 -0.5496 -1.1195  0.3864
  929MOL0     H25404   1.605   4.100  10.732 -2.6127  2.9319 -0.1760
  929MOL0     H25405   1.341   4.078  10.655 -1.1068  0.1680  0.9544
  929MOL0     H25406   1.414   4.240  10.701  1.9686  0.7444 -0.6268
  929MOL0     H25407   1.194   4.212  10.501  0.7918 -0.4345 -1.3158
  929MOL0     H25408   1.258   4.366  10.571  0.9479  0.1168 -0.6382
  929MOL0     H25409   1.032   4.308  10.669 -1.7293 -1.0383 -0.0302
  929MOL0     H25410   1.157   4.309  10.792 -3.0145 -1.8608  1.6326
  929MOL0     H25411   1.001   4.125  10.828 -0.1403 -0.0564 -0.3891
  929MOL0     H25412   1.164   4.059  10.783  2.2141 -1.6031 -3.0703
  929MOL0     H25413   0.929   3.891  10.482 -0.2465 -1.2081 -0.5173
  929MOL0     H25414   1.582   4.242  10.314  1.0244  1.7754 -0.5425
  929MOL0     H25415   1.825   4.218  10.304  0.1395 -3.5916 -0.4273
  930MOL0     O25416   4.013  10.566   1.257  0.4456  0.3486  0.0542
  930MOL0     C25417   4.003  10.685   1.240 -0.7830 -1.0138 -0.1892
  930MOL0     O25418   3.972  10.746   1.119  0.4802 -0.3593  0.6014
  930MOL0     C25419   3.972  10.678   0.999 -0.2523 -0.0576 -0.5875
  930MOL0     C25420   4.087  10.603   0.968  0.2923 -0.3327  0.6486
  930MOL0     C25421   4.101  10.529   0.843 -0.0371 -1.1412 -0.1094
  930MOL0     C25422   3.997  10.541   0.744  0.3917 -0.5556 -1.0456
  930MOL0     O25423   4.012  10.470   0.631  0.6166 -0.5436 -0.4927
  930MOL0     C25424   3.919  10.480   0.524  1.5493  0.1843 -0.1454
  930MOL0     C25425   3.925  10.369   0.433  0.5796 -0.0801 -0.0134
  930MOL0     C25426   3.873  10.234   0.490  0.1098 -0.4492 -0.1877
  930MOL0     C25427   3.756  10.154   0.418  0.6033 -0.0691 -0.0046
  930MOL0     C25428   3.758   9.999   0.442 -0.4461  0.0048 -0.2876
  930MOL0     C25429   3.694   9.913   0.330  0.3118 -0.3482  0.2785
  930MOL0     C25430   3.660   9.770   0.360 -0.3483 -0.0763 -1.0567
  930MOL0     C25431   3.542   9.743   0.443  0.0511  0.6698 -0.0946
  930MOL0     N25432   3.501   9.605   0.437  1.0119  0.5211  0.0264
  930MOL0     C25433   3.448   9.534   0.550 -0.5284 -0.3334 -0.4551
  930MOL0     C25434   3.411   9.412   0.496 -0.4204  0.6317 -0.1564
  930MOL0     C25435   3.347   9.308   0.581 -0.2778  0.2339 -0.9834
  930MOL0     C25436   3.304   9.171   0.520 -0.6887 -0.2790 -0.4643
  930MOL0     C25437   3.428   9.079   0.517 -0.6792 -0.2461 -0.0176
  930MOL0     C25438   3.452   9.014   0.654 -0.0743  0.2668  0.5255
  930MOL0     O25439   3.534   9.106   0.733 -0.5057 -0.2667  0.0955
  930MOL0     C25440   3.666   9.109   0.702 -0.2695  0.6746  0.3023
  930MOL0     C25441   3.728   9.225   0.646 -0.2520  0.7588  0.4470
  930MOL0     C25442   3.863   9.238   0.616  0.1915 -0.2554 -0.2891
  930MOL0     C25443   3.913   9.362   0.549  0.1765 -0.5479 -0.5231
  930MOL0     C25444   3.939   9.124   0.641 -0.3232 -0.1842  0.2325
  930MOL0     C25445   4.080   9.110   0.614 -0.1209  0.2695 -0.1375
  930MOL0     O25446   4.167   9.160   0.704 -0.1856 -0.1743 -0.2555
  930MOL0     C25447   4.285   9.199   0.661 -0.4811  0.9546 -0.0899
  930MOL0     C25448   4.375   9.111   0.593 -0.0346  0.1368  0.0434
  930MOL0     C25449   4.515   9.143   0.582  0.6972  0.2844  0.3443
  930MOL0     C25450   4.564   9.259   0.650  0.3080 -0.0403  0.2283
  930MOL0     O25451   4.694   9.282   0.672  1.2333 -0.7182 -0.6956
  930MOL0     C25452   4.786   9.267   0.558  0.1940  0.4622  1.1255
  930MOL0     C25453   4.926   9.311   0.602  0.2523 -0.0453 -1.1373
  930MOL0     C25454   4.980   9.200   0.689  0.2446  0.4793 -0.1613
  930MOL0     C25455   5.016   9.071   0.609 -0.2732 -0.0116 -0.4306
  930MOL0     C25456   5.139   9.006   0.683 -0.1797  0.0363 -0.3631
  930MOL0     C25457   5.166   8.865   0.636  0.3149 -0.8726  0.0517
  930MOL0     C25458   5.299   8.818   0.684 -0.8248 -0.1229 -0.1607
  930MOL0     C25459   5.369   8.708   0.617  0.3082  0.5111 -1.2217
  930MOL0    Cl25460   5.495   8.642   0.732 -0.1673 -0.1765 -0.3104
  930MOL0     C25461   4.479   9.348   0.705 -0.0280  0.0826  0.0430
  930MOL0     C25462   4.346   9.323   0.710  0.7474 -0.7435 -0.1266
  930MOL0     O25463   4.096   9.100   0.490  0.0727 -0.4189 -0.0705
  930MOL0     C25464   3.883   9.006   0.692  0.3059 -0.1811  1.3454
  930MOL0     C25465   3.748   8.999   0.713  1.4530 -0.3141 -0.4823
  930MOL0     N25466   3.451   9.407   0.359  0.3148 -0.5093 -0.4689
  930MOL0     N25467   3.493   9.525   0.324  0.2518 -0.2663 -0.6080
  930MOL0     C25468   3.891  10.629   0.779  0.3653 -0.0723  1.0486
  930MOL0     C25469   3.880  10.707   0.904 -0.8750 -0.3026  0.2137
  930MOL0     C25470   3.999  10.775   1.355 -0.0128 -0.4018  0.4040
  930MOL0     C25471   4.085  10.742   1.463 -0.4376 -1.2800 -0.7105
  930MOL0     C25472   4.091  10.815   1.580  0.1316  0.4851  0.3222
  930MOL0     C25473   4.006  10.926   1.592 -0.1982  0.7816 -0.7376
  930MOL0     O25474   3.998  11.009   1.703 -0.3587  0.0939 -0.8673
  930MOL0     C25475   4.105  10.995   1.800  0.1030  0.5905 -0.0941
  930MOL0     C25476   4.087  11.085   1.913  0.8888 -0.2266  0.8229
  930MOL0     C25477   4.065  11.237   1.892  0.7795 -0.2046  0.4049
  930MOL0     C25478   4.194  11.309   1.912 -0.5786 -0.5283 -0.3703
  930MOL0     C25479   4.245  11.290   2.047 -0.2752  0.5805 -1.1765
  930MOL0     C25480   4.300  11.285   2.156 -0.7069  0.1110 -0.0441
  930MOL0     C25481   3.928  10.963   1.478  0.5620 -0.1643  0.2817
  930MOL0     C25482   3.917  10.887   1.360  0.1242  0.0782  0.0294
  930MOL0     H25483   4.157  10.589   1.050  0.9630  4.3112  1.1558
  930MOL0     H25484   4.188  10.467   0.825  0.6356 -0.2487 -0.0197
  930MOL0     H25485   3.819  10.497   0.564  2.6172  1.6240  2.0982
  930MOL0     H25486   3.945  10.567   0.463  1.4307 -0.0696 -0.5626
  930MOL0     H25487   3.864  10.402   0.349  2.2497  0.8253 -0.9121
  930MOL0     H25488   4.031  10.372   0.407  0.6549  2.4022  0.3695
  930MOL0     H25489   3.960  10.167   0.489  1.5227  1.2403 -2.0959
  930MOL0     H25490   3.850  10.251   0.595 -0.6391  2.2455 -0.7080
  930MOL0     H25491   3.659  10.197   0.443  0.8044 -1.0437  2.7572
  930MOL0     H25492   3.768  10.169   0.310  1.8338  0.0225  0.1276
  930MOL0     H25493   3.860   9.961   0.448 -0.4009 -0.0457 -1.2027
  930MOL0     H25494   3.706   9.979   0.536 -0.3169 -0.2754 -0.2756
  930MOL0     H25495   3.610   9.964   0.284  0.8740  1.8510  1.5309
  930MOL0     H25496   3.769   9.917   0.250  1.1685  1.1911  1.1207
  930MOL0     H25497   3.647   9.735   0.257  1.6015 -0.9322 -1.0491
  930MOL0     H25498   3.750   9.724   0.401  0.6937  2.0175 -0.8951
  930MOL0     H25499   3.461   9.806   0.404  1.1440  3.1281  1.3631
  930MOL0     H25500   3.567   9.759   0.548  1.1091 -2.7218  0.2667
  930MOL0     H25501   3.417   9.586   0.640 -0.5750  2.1421 -1.8197
  930MOL0     H25502   3.412   9.307   0.670 -0.6075 -0.1733 -0.7441
  930MOL0     H25503   3.250   9.347   0.614  1.5287  4.0611  0.4935
  930MOL0     H25504   3.268   9.188   0.419 -0.8331 -4.4094 -1.2859
  930MOL0     H25505   3.227   9.122   0.581  1.2502 -1.3983  1.2032
  930MOL0     H25506   3.516   9.139   0.491  0.4826 -1.8615 -0.0111
  930MOL0     H25507   3.410   9.004   0.440  1.2395 -2.4952  1.5310
  930MOL0     H25508   3.497   8.914   0.644 -3.2625 -1.3509  1.0894
  930MOL0     H25509   3.355   8.993   0.700  0.0817  2.9791  2.2996
  930MOL0     H25510   3.663   9.304   0.610  0.8129  1.4379 -0.0267
  930MOL0     H25511   3.920   9.444   0.621 -1.7596 -0.2435 -0.6179
  930MOL0     H25512   4.016   9.346   0.517  1.3622 -1.8409  3.3275
  930MOL0     H25513   3.850   9.393   0.466  0.4551  2.5607  0.3095
  930MOL0     H25514   4.322   9.022   0.562  2.2371 -1.7672  1.3341
  930MOL0     H25515   4.594   9.077   0.546 -0.7709 -0.5761 -1.4452
  930MOL0     H25516   4.801   9.163   0.529  2.5972  0.9868  0.2972
  930MOL0     H25517   4.751   9.319   0.468 -0.0137 -1.4050  0.0732
  930MOL0     H25518   4.989   9.337   0.516  1.5074 -0.7282 -0.4587
  930MOL0     H25519   4.926   9.405   0.659  2.5261  0.4060 -1.7886
  930MOL0     H25520   4.901   9.178   0.761  1.5870 -1.5917  0.7941
  930MOL0     H25521   5.067   9.239   0.743 -1.1402  1.7362  1.2945
  930MOL0     H25522   4.921   9.017   0.607 -2.0091  2.8209 -0.2380
  930MOL0     H25523   5.043   9.099   0.507 -3.2572 -1.7773 -1.8274
  930MOL0     H25524   5.142   9.006   0.793  3.1245  1.6434 -0.3267
  930MOL0     H25525   5.226   9.067   0.658 -0.8905  0.9543 -0.6499
  930MOL0     H25526   5.076   8.815   0.672  0.7793  0.2729  3.1114
  930MOL0     H25527   5.170   8.857   0.527  0.9808 -0.4429  0.0377
  930MOL0     H25528   5.271   8.788   0.786 -1.4634 -1.1516 -0.6153
  930MOL0     H25529   5.370   8.900   0.695 -0.8449 -0.1736  0.3787
  930MOL0     H25530   5.418   8.744   0.526 -1.0723  0.2782 -2.0751
  930MOL0     H25531   5.299   8.628   0.594  2.4923 -1.5245 -1.1645
  930MOL0     H25532   4.516   9.435   0.760  1.3396  0.0819 -0.8228
  930MOL0     H25533   4.284   9.391   0.767  0.7888 -1.2278  0.5035
  930MOL0     H25534   3.934   8.911   0.705  3.3130  0.9686 -0.8965
  930MOL0     H25535   3.705   8.903   0.740  1.6203 -0.3859 -0.4692
  930MOL0     H25536   3.818  10.642   0.700  0.5352 -1.4013  0.6593
  930MOL0     H25537   3.804  10.780   0.931  0.6476  1.3998  0.0780
  930MOL0     H25538   4.154  10.659   1.454 -0.7135 -1.7105  0.8211
  930MOL0     H25539   4.152  10.780   1.663 -1.4526  0.0847  1.3843
  930MOL0     H25540   4.110  10.894   1.841  0.6176  0.5511 -0.2440
  930MOL0     H25541   4.200  11.021   1.753  0.1347  1.1214  0.2584
  930MOL0     H25542   4.170  11.068   1.982  0.0434 -1.9194  1.4723
  930MOL0     H25543   3.999  11.058   1.973  1.0371  0.2588  1.2718
  930MOL0     H25544   3.990  11.275   1.962 -0.4642  2.2881 -2.0531
  930MOL0     H25545   4.038  11.253   1.787  3.3328  1.3836 -0.0922
  930MOL0     H25546   4.193  11.412   1.874  0.9294 -0.7098 -0.9727
  930MOL0     H25547   4.271  11.262   1.850 -0.7235  1.4203 -2.1626
  930MOL0     H25548   4.331  11.296   2.257 -1.2986  0.8492  0.0685
  930MOL0     H25549   3.866  11.050   1.500 -3.7830 -2.4756 -1.6539
  930MOL0     H25550   3.854  10.927   1.282 -0.9764  1.1360  1.4006
  931MOL0     O25551   5.881   7.920   7.207 -0.2609 -0.6844 -0.4360
  931MOL0     C25552   5.948   7.967   7.301  0.5650  0.0622  0.4969
  931MOL0     O25553   5.893   8.026   7.416  0.3208 -0.8616  0.1336
  931MOL0     C25554   5.759   8.037   7.437  0.5676  0.2540  0.1371
  931MOL0     C25555   5.658   8.051   7.338  0.2791  1.0529 -0.2680
  931MOL0     C25556   5.523   8.054   7.369 -0.0361 -1.3590 -0.6458
  931MOL0     C25557   5.480   8.058   7.503 -0.2796  0.7681 -0.6634
  931MOL0     O25558   5.345   8.062   7.534  0.4163 -0.7780 -0.3937
  931MOL0     C25559   5.294   8.122   7.651  1.3402 -0.0094 -0.4906
  931MOL0     C25560   5.192   8.044   7.738  0.4190  0.4521  0.2617
  931MOL0     C25561   5.223   7.897   7.763 -0.7795  0.1010  0.1797
  931MOL0     C25562   5.124   7.829   7.859  0.6324  0.4623  0.2043
  931MOL0     C25563   5.137   7.888   8.003  0.3744  0.2604  1.3748
  931MOL0     C25564   5.273   7.863   8.065  0.1924 -0.2732  0.3591
  931MOL0     C25565   5.262   7.894   8.212 -0.4124 -0.6025  0.5093
  931MOL0     C25566   5.359   7.806   8.301  1.3584  0.5450 -0.0042
  931MOL0     N25567   5.493   7.809   8.257 -1.6866  0.6502 -0.3759
  931MOL0     C25568   5.541   7.740   8.139 -0.2701 -0.1296  0.8130
  931MOL0     C25569   5.663   7.797   8.116 -0.8453  0.0270  0.8127
  931MOL0     C25570   5.762   7.778   8.000 -0.6224 -0.5612  0.6369
  931MOL0     C25571   5.725   7.663   7.906  0.5683 -1.0707  0.6266
  931MOL0     C25572   5.618   7.691   7.796  0.1659  0.3578 -0.2540
  931MOL0     C25573   5.634   7.595   7.681  0.8552  1.1500 -0.1803
  931MOL0     O25574   5.522   7.513   7.660  0.0395 -0.6941  0.2903
  931MOL0     C25575   5.409   7.562   7.585 -0.3420  0.3494  0.0342
  931MOL0     C25576   5.284   7.508   7.609 -1.6298 -0.7583 -0.3246
  931MOL0     C25577   5.166   7.551   7.557 -0.6112 -0.6042 -0.2369
  931MOL0     C25578   5.037   7.498   7.618 -0.0114 -0.4906  0.4650
  931MOL0     C25579   5.167   7.662   7.466  0.2551  0.4311  0.3201
  931MOL0     C25580   5.047   7.718   7.393  0.6684 -0.4906  0.0563
  931MOL0     O25581   5.079   7.798   7.279 -0.6008  0.7885  0.0899
  931MOL0     C25582   4.993   7.885   7.215 -1.4558 -1.1331 -0.4804
  931MOL0     C25583   4.970   7.873   7.082  1.1278  0.8608 -0.5743
  931MOL0     C25584   4.886   7.961   7.014  0.1889  0.0811 -0.1130
  931MOL0     C25585   4.844   8.082   7.080 -0.3183  0.6003 -0.0582
  931MOL0     O25586   4.799   8.181   7.004  0.1220 -0.7860  0.8549
  931MOL0     C25587   4.859   8.199   6.874  0.0260 -0.0892  0.9271
  931MOL0     C25588   4.891   8.341   6.850 -0.9769 -1.0515  0.6334
  931MOL0     C25589   4.773   8.417   6.789 -0.1122 -1.1665 -0.1096
  931MOL0     C25590   4.795   8.573   6.797 -0.2151  0.8133  0.3375
  931MOL0     C25591   4.885   8.635   6.691 -0.0985 -0.5807 -0.2894
  931MOL0     C25592   4.944   8.757   6.757  0.2723 -0.1451  0.3265
  931MOL0     C25593   4.844   8.869   6.764  0.3416  0.4514 -0.9005
  931MOL0     C25594   4.847   8.949   6.632 -0.1299  0.0009  0.4456
  931MOL0    Cl25595   4.706   9.066   6.648 -0.0814 -0.5677 -0.1031
  931MOL0     C25596   4.840   8.073   7.216 -0.3247 -0.4030  0.7160
  931MOL0     C25597   4.912   7.978   7.290 -0.7654  0.7645  0.9811
  931MOL0     O25598   4.934   7.712   7.444  0.0236 -0.1752  0.2648
  931MOL0     C25599   5.291   7.713   7.437  0.4622 -0.2134  0.1769
  931MOL0     C25600   5.407   7.667   7.493  0.5511 -0.8322  0.4444
  931MOL0     N25601   5.690   7.881   8.225  0.2537  0.5070 -0.3061
  931MOL0     N25602   5.595   7.879   8.315  0.5381 -0.2920 -0.5008
  931MOL0     C25603   5.584   8.050   7.600  1.1254  1.2531 -0.0177
  931MOL0     C25604   5.718   8.035   7.569 -0.3064 -0.6583 -0.2892
  931MOL0     C25605   6.092   7.948   7.292  0.3954 -0.1020  0.0089
  931MOL0     C25606   6.156   7.951   7.163 -0.2096  0.2633  0.2995
  931MOL0     C25607   6.294   7.955   7.170  0.0766  0.2528  0.4254
  931MOL0     C25608   6.367   7.935   7.286 -0.1992  0.1301  0.6006
  931MOL0     O25609   6.506   7.927   7.280 -1.2034 -0.1333 -0.4027
  931MOL0     C25610   6.567   8.013   7.387 -1.2703 -0.8575  0.2274
  931MOL0     C25611   6.705   8.062   7.346 -0.4613 -0.5916 -0.5278
  931MOL0     C25612   6.695   8.193   7.265 -1.2571  0.2337 -0.6464
  931MOL0     C25613   6.652   8.180   7.121 -0.4420  0.1624 -0.3783
  931MOL0     C25614   6.515   8.213   7.089 -0.0485  0.6519 -0.6803
  931MOL0     C25615   6.402   8.250   7.051 -0.1510 -0.2799  0.0777
  931MOL0     C25616   6.302   7.927   7.404 -0.3465 -0.8425 -0.4112
  931MOL0     C25617   6.162   7.939   7.405  0.4240 -0.0949 -0.4669
  931MOL0     H25618   5.680   8.056   7.232  0.3230 -1.1870 -0.4021
  931MOL0     H25619   5.454   8.067   7.286 -1.2957 -1.3097  0.3707
  931MOL0     H25620   5.382   8.142   7.713  1.8865 -0.0178 -1.2468
  931MOL0     H25621   5.243   8.216   7.626  0.9600 -0.3633 -1.0703
  931MOL0     H25622   5.181   8.090   7.836 -2.8434 -0.5716  0.4924
  931MOL0     H25623   5.092   8.052   7.692  0.8499  2.4253 -0.4641
  931MOL0     H25624   5.224   7.840   7.670 -0.8333 -0.8150  0.7215
  931MOL0     H25625   5.321   7.893   7.812 -1.3104 -1.6680  1.1985
  931MOL0     H25626   5.020   7.847   7.832 -0.7860  0.4453  4.8298
  931MOL0     H25627   5.131   7.720   7.864 -1.0117  0.3864  1.6317
  931MOL0     H25628   5.100   7.990   8.007  1.1609  0.5936  0.4766
  931MOL0     H25629   5.065   7.829   8.062  1.4081 -3.2342 -0.5522
  931MOL0     H25630   5.302   7.757   8.058  1.5347 -0.1427  2.9908
  931MOL0     H25631   5.352   7.930   8.030  2.4470 -1.4303  2.8679
  931MOL0     H25632   5.297   7.997   8.223  1.8258 -1.3676  1.0069
  931MOL0     H25633   5.158   7.900   8.244 -0.3563  0.1052  0.5731
  931MOL0     H25634   5.333   7.699   8.301  0.7040  0.6766  1.5285
  931MOL0     H25635   5.358   7.835   8.406  0.7106 -0.8222  0.3967
  931MOL0     H25636   5.499   7.676   8.062 -1.0380  0.9952  0.2709
  931MOL0     H25637   5.775   7.870   7.943  1.2962 -1.7603 -0.9815
  931MOL0     H25638   5.861   7.753   8.041  1.1157 -1.6035 -3.6809
  931MOL0     H25639   5.690   7.576   7.963 -2.6951 -1.2012 -1.2989
  931MOL0     H25640   5.815   7.629   7.854  0.2254 -1.8021  0.4954
  931MOL0     H25641   5.632   7.792   7.756  1.8109  0.8176  1.3391
  931MOL0     H25642   5.521   7.670   7.841  1.1945 -0.5609  1.6496
  931MOL0     H25643   5.722   7.532   7.697  1.6990  2.4392  0.4386
  931MOL0     H25644   5.653   7.642   7.584  0.7825  1.1445 -0.1971
  931MOL0     H25645   5.290   7.434   7.689 -0.1664  2.0344  2.3497
  931MOL0     H25646   5.047   7.399   7.663 -0.3258 -1.8790 -2.3045
  931MOL0     H25647   5.002   7.564   7.697  3.1264 -0.5135  2.0241
  931MOL0     H25648   4.958   7.488   7.543 -0.2521 -0.1897  0.6762
  931MOL0     H25649   5.013   7.791   7.024 -1.2645 -0.7534 -0.2398
  931MOL0     H25650   4.858   7.951   6.910  1.1904  0.9311 -0.4817
  931MOL0     H25651   4.948   8.138   6.860  0.4435  1.0752 -2.8711
  931MOL0     H25652   4.789   8.162   6.799 -0.1920 -2.5973  2.2729
  931MOL0     H25653   4.917   8.386   6.947 -1.3334  1.0129 -0.1803
  931MOL0     H25654   4.981   8.351   6.789 -2.3135  3.2682 -1.0035
  931MOL0     H25655   4.681   8.390   6.841 -1.3322 -3.1715 -3.0045
  931MOL0     H25656   4.762   8.384   6.685 -0.8981 -2.0593  0.2465
  931MOL0     H25657   4.695   8.603   6.767 -0.7091  0.3382  1.4583
  931MOL0     H25658   4.813   8.604   6.900 -0.3817  0.9016  0.3388
  931MOL0     H25659   4.835   8.644   6.595 -1.3685  1.3838  0.4809
  931MOL0     H25660   4.964   8.560   6.686  1.8727  1.2326  1.3126
  931MOL0     H25661   4.976   8.732   6.859 -1.6536  1.0602  1.2654
  931MOL0     H25662   5.030   8.789   6.698  0.1302  1.1482  0.8050
  931MOL0     H25663   4.866   8.932   6.851 -1.5014  0.5154 -0.4390
  931MOL0     H25664   4.746   8.829   6.794  0.0571  0.1037 -2.2387
  931MOL0     H25665   4.821   8.887   6.545  1.3799 -0.0913  0.0328
  931MOL0     H25666   4.943   8.998   6.612 -0.6408 -0.0224 -2.6532
  931MOL0     H25667   4.798   8.149   7.281  2.2374  0.5208  1.4243
  931MOL0     H25668   4.926   7.983   7.398  0.6662 -3.4297  1.1449
  931MOL0     H25669   5.305   7.787   7.359  0.2955 -1.7437 -1.3747
  931MOL0     H25670   5.492   7.729   7.467 -0.3980  0.4750  0.3521
  931MOL0     H25671   5.566   8.038   7.706 -2.3268 -4.0702 -0.8487
  931MOL0     H25672   5.783   8.021   7.656 -0.9385 -0.7068  0.1831
  931MOL0     H25673   6.110   7.951   7.064  4.2286  2.1257 -2.0386
  931MOL0     H25674   6.345   7.970   7.076  0.9918  4.1591  1.3629
  931MOL0     H25675   6.508   8.104   7.405 -0.4917 -0.4414  0.7384
  931MOL0     H25676   6.572   7.958   7.482 -0.5035 -1.6329 -0.2456
  931MOL0     H25677   6.767   7.980   7.309 -0.3437 -2.2921  3.0409
  931MOL0     H25678   6.761   8.097   7.433 -1.0974  3.3280 -1.4824
  931MOL0     H25679   6.802   8.217   7.259 -0.0773 -2.8773  3.4512
  931MOL0     H25680   6.649   8.283   7.307 -1.6515 -0.7243  1.0686
  931MOL0     H25681   6.662   8.074   7.099  2.7273  1.0354 -4.4553
  931MOL0     H25682   6.724   8.227   7.053  0.6804 -4.3666 -2.6643
  931MOL0     H25683   6.299   8.255   7.024 -0.2046 -1.0502  0.1368
  931MOL0     H25684   6.344   7.916   7.503  2.6716  2.4721 -1.1010
  931MOL0     H25685   6.104   7.948   7.496  2.4763  3.2257  0.6938
  932MOL0     O25686   3.279   0.843   7.719  0.1560  0.4300 -0.3364
  932MOL0     C25687   3.397   0.818   7.706  0.2577 -0.4780 -0.0817
  932MOL0     O25688   3.449   0.697   7.706  0.8147  0.0686  0.1435
  932MOL0     C25689   3.375   0.589   7.741 -0.0294  0.3655  0.2137
  932MOL0     C25690   3.302   0.578   7.856  0.9138  0.2514 -0.1607
  932MOL0     C25691   3.239   0.470   7.899 -0.4700  0.3320  0.1843
  932MOL0     C25692   3.224   0.353   7.824  0.5995 -1.3391 -0.0900
  932MOL0     O25693   3.145   0.252   7.881  0.2157 -0.2228  0.1541
  932MOL0     C25694   3.118   0.132   7.802  0.4162 -0.7618  0.1052
  932MOL0     C25695   3.006   0.042   7.866  0.2357  0.0090 -0.9290
  932MOL0     C25696   3.018   0.034   8.020 -0.3250 -0.1795 -1.0442
  932MOL0     C25697   2.898  -0.018   8.100  0.1894  0.2321  0.5322
  932MOL0     C25698   2.818  -0.128   8.031  1.3912 -0.4273 -0.5096
  932MOL0     C25699   2.700  -0.196   8.111  0.4348  0.6908  0.0636
  932MOL0     C25700   2.587  -0.085   8.153  0.2835  0.0872 -0.1667
  932MOL0     C25701   2.448  -0.139   8.173 -0.2144  0.5137  0.0841
  932MOL0     N25702   2.364  -0.173   8.064  1.1384  0.3173 -0.1933
  932MOL0     C25703   2.235  -0.223   8.081 -0.8609  0.4082  0.0362
  932MOL0     C25704   2.166  -0.187   7.963 -0.0680 -0.4617 -0.2768
  932MOL0     C25705   2.022  -0.204   7.928 -0.7387  0.2023  0.1089
  932MOL0     C25706   1.985  -0.362   7.927 -0.3856  0.0686  0.3614
  932MOL0     C25707   1.839  -0.373   7.888  0.0307 -0.6953 -0.1298
  932MOL0     C25708   1.794  -0.520   7.888  0.0253  0.4844 -0.1567
  932MOL0     O25709   1.649  -0.524   7.902 -0.2450 -0.1325  0.5600
  932MOL0     C25710   1.591  -0.652   7.908  0.2521  0.0929 -0.1090
  932MOL0     C25711   1.465  -0.650   7.967  0.5387 -0.1888 -0.9552
  932MOL0     C25712   1.387  -0.762   7.983  0.4751  0.0068 -0.5902
  932MOL0     C25713   1.271  -0.762   8.067  0.4008  0.5422 -0.4670
  932MOL0     C25714   1.434  -0.883   7.922  0.3847 -1.2274 -0.6452
  932MOL0     C25715   1.379  -1.016   7.947  0.4388  1.0787 -0.2276
  932MOL0     O25716   1.444  -1.122   7.886  0.9907 -0.6512  0.3076
  932MOL0     C25717   1.402  -1.249   7.907  0.3344  1.1270 -1.0622
  932MOL0     C25718   1.334  -1.322   7.802  0.0955  0.3212  0.2813
  932MOL0     C25719   1.292  -1.452   7.833  0.1382 -0.8464 -0.9411
  932MOL0     C25720   1.300  -1.504   7.969 -0.7622  0.5580  0.0439
  932MOL0     O25721   1.268  -1.639   7.991 -0.3143 -0.3377  0.5633
  932MOL0     C25722   1.315  -1.711   8.096 -0.1242  0.4704 -0.7293
  932MOL0     C25723   1.344  -1.855   8.041 -0.6050 -0.5196  1.0676
  932MOL0     C25724   1.216  -1.930   8.053  0.4790  0.2402 -0.5589
  932MOL0     C25725   1.231  -2.060   7.973  0.2523 -1.3982  1.1776
  932MOL0     C25726   1.097  -2.131   7.976  0.0328  1.0960 -0.1357
  932MOL0     C25727   1.110  -2.263   7.890  0.0795  0.0179  0.0058
  932MOL0     C25728   0.990  -2.343   7.910  0.8779 -0.1375 -0.0382
  932MOL0     C25729   0.998  -2.474   7.834 -0.2385  0.5470 -0.5279
  932MOL0    Cl25730   1.135  -2.572   7.901 -0.3874  0.2641 -0.2347
  932MOL0     C25731   1.344  -1.415   8.073 -0.0374  0.9020 -1.1927
  932MOL0     C25732   1.400  -1.293   8.040 -0.3066 -0.5149  0.3898
  932MOL0     O25733   1.285  -1.031   8.016  0.7140 -0.1507  0.3008
  932MOL0     C25734   1.554  -0.883   7.847  0.3033 -0.6238 -0.9458
  932MOL0     C25735   1.630  -0.769   7.846  0.0167  0.1952  0.1110
  932MOL0     N25736   2.265  -0.138   7.881  0.6757 -0.6347 -0.4553
  932MOL0     N25737   2.379  -0.135   7.935  0.2508  0.1229 -0.1411
  932MOL0     C25738   3.286   0.360   7.698  0.7294 -0.2553  0.8106
  932MOL0     C25739   3.367   0.475   7.660 -0.5462  0.7603 -0.3922
  932MOL0     C25740   3.492   0.928   7.699  1.1198  0.9717 -0.2671
  932MOL0     C25741   3.604   0.920   7.614  0.4462  0.7168 -0.3232
  932MOL0     C25742   3.681   1.033   7.586 -1.1809 -0.1974  0.4853
  932MOL0     C25743   3.663   1.148   7.661 -0.2014  0.4727  0.8692
  932MOL0     O25744   3.743   1.261   7.637  0.4966 -0.4908  0.0499
  932MOL0     C25745   3.725   1.326   7.510 -0.1621 -0.4926  0.2473
  932MOL0     C25746   3.824   1.441   7.506 -0.3297  0.2555 -0.3277
  932MOL0     C25747   3.866   1.469   7.363 -0.8718 -1.3521 -0.5913
  932MOL0     C25748   3.973   1.579   7.355  0.2542 -0.8981 -0.8988
  932MOL0     C25749   3.989   1.585   7.212 -0.6165  0.9640  0.0589
  932MOL0     C25750   4.015   1.596   7.093 -0.4309 -0.1250  0.0028
  932MOL0     C25751   3.553   1.161   7.753 -0.5551 -0.2082 -0.5790
  932MOL0     C25752   3.468   1.053   7.766  0.0005  0.0255 -0.7751
  932MOL0     H25753   3.305   0.660   7.926 -0.8304 -0.6798  1.0902
  932MOL0     H25754   3.198   0.471   8.000 -1.6609  0.3502 -0.2842
  932MOL0     H25755   3.087   0.147   7.698  2.1057 -0.8181 -0.4279
  932MOL0     H25756   3.213   0.079   7.803  2.0758  1.7829 -2.9997
  932MOL0     H25757   2.905   0.083   7.853  0.9024  2.6143  1.1892
  932MOL0     H25758   3.021  -0.060   7.829 -0.7664 -0.6351  0.3415
  932MOL0     H25759   3.090  -0.044   8.045 -2.0727 -1.3660  0.6020
  932MOL0     H25760   3.043   0.128   8.071 -2.3589  0.1082 -0.4562
  932MOL0     H25761   2.927  -0.065   8.194  1.9209  2.5084  1.2161
  932MOL0     H25762   2.832   0.065   8.127  1.4850  2.4464 -2.4880
  932MOL0     H25763   2.780  -0.090   7.936  0.2936  0.5022  0.2759
  932MOL0     H25764   2.874  -0.217   7.999  0.7743 -0.5708 -1.2277
  932MOL0     H25765   2.654  -0.267   8.041  3.1559  0.4216 -1.5813
  932MOL0     H25766   2.745  -0.248   8.196  2.9738 -0.6670 -1.9673
  932MOL0     H25767   2.621  -0.049   8.251  1.6763 -0.9880 -0.2214
  932MOL0     H25768   2.594  -0.007   8.077 -2.6880 -2.7463 -3.7241
  932MOL0     H25769   2.397  -0.065   8.235  1.1950  0.9843  0.7307
  932MOL0     H25770   2.454  -0.240   8.216  0.0072 -0.2742 -1.7285
  932MOL0     H25771   2.201  -0.281   8.166  1.7766 -2.1079 -0.4639
  932MOL0     H25772   1.964  -0.161   8.010  1.7347  0.7511  1.6493
  932MOL0     H25773   1.995  -0.148   7.838 -0.4783  1.6529  0.9119
  932MOL0     H25774   2.012  -0.407   8.023 -1.9261 -2.6542 -0.3838
  932MOL0     H25775   2.049  -0.415   7.856 -0.0292  0.7172  0.1851
  932MOL0     H25776   1.829  -0.325   7.790 -0.9352  2.0137  1.1867
  932MOL0     H25777   1.781  -0.315   7.961  1.9327  1.8440 -0.5156
  932MOL0     H25778   1.843  -0.563   7.976 -0.4584  2.3042  1.0623
  932MOL0     H25779   1.827  -0.574   7.799 -1.6591 -2.0841  0.6433
  932MOL0     H25780   1.426  -0.559   8.013 -1.3299 -0.1627 -2.4525
  932MOL0     H25781   1.277  -0.845   8.138  2.0813 -0.6541 -1.9301
  932MOL0     H25782   1.261  -0.666   8.120  1.0856  0.6125 -0.4518
  932MOL0     H25783   1.190  -0.776   7.996  1.3170 -1.3781 -1.1995
  932MOL0     H25784   1.316  -1.281   7.703 -2.0987 -2.1458 -0.4632
  932MOL0     H25785   1.250  -1.502   7.747  1.2072  1.9654 -3.2530
  932MOL0     H25786   1.409  -1.667   8.131 -0.2878 -0.5488  1.1453
  932MOL0     H25787   1.260  -1.717   8.190 -1.0451 -0.7215 -1.3258
  932MOL0     H25788   1.368  -1.849   7.935 -0.0946 -0.9235  1.1533
  932MOL0     H25789   1.420  -1.916   8.091  0.5386 -1.5815 -1.8060
  932MOL0     H25790   1.131  -1.867   8.023  3.2071  4.0446 -1.1264
  932MOL0     H25791   1.211  -1.945   8.161  1.0779 -1.0648 -0.6942
  932MOL0     H25792   1.246  -2.033   7.869 -1.5483  1.3248  1.5281
  932MOL0     H25793   1.320  -2.117   8.003  0.6525 -2.1734 -1.2520
  932MOL0     H25794   1.016  -2.070   7.935  0.6914  1.3815 -1.0290
  932MOL0     H25795   1.074  -2.151   8.081 -0.1248  0.4371 -0.2870
  932MOL0     H25796   1.106  -2.242   7.783 -0.9207 -0.6302 -0.0986
  932MOL0     H25797   1.201  -2.318   7.913  0.1324  0.6364  1.3585
  932MOL0     H25798   0.902  -2.294   7.868 -0.4976 -2.3126  0.1943
  932MOL0     H25799   0.970  -2.361   8.016  1.9661  1.6610  0.5325
  932MOL0     H25800   0.995  -2.476   7.725 -3.0187 -2.1461 -0.5316
  932MOL0     H25801   0.902  -2.518   7.861 -1.1693  1.1472 -2.6594
  932MOL0     H25802   1.348  -1.453   8.174  0.4889  1.1537 -1.1166
  932MOL0     H25803   1.424  -1.237   8.129 -2.0791 -0.3424  0.8066
  932MOL0     H25804   1.598  -0.972   7.804  3.5682  0.9877 -1.2876
  932MOL0     H25805   1.723  -0.761   7.791  0.0398  2.7095  0.3956
  932MOL0     H25806   3.288   0.272   7.634 -2.2268 -0.2179  0.5020
  932MOL0     H25807   3.413   0.471   7.562 -4.3837 -1.4387 -2.3120
  932MOL0     H25808   3.608   0.835   7.545  4.0899  0.5431 -0.1022
  932MOL0     H25809   3.746   1.031   7.500 -0.7044 -0.6470  0.8500
  932MOL0     H25810   3.757   1.253   7.436  0.6689  1.0898 -1.0392
  932MOL0     H25811   3.625   1.368   7.497  0.9193  2.0116 -0.7512
  932MOL0     H25812   3.917   1.415   7.558 -0.2664  2.9877  1.1382
  932MOL0     H25813   3.793   1.532   7.559  3.2082  1.1768  0.4346
  932MOL0     H25814   3.779   1.491   7.300 -1.6014  4.1432  1.7352
  932MOL0     H25815   3.916   1.374   7.345  1.6838 -0.5520  1.6828
  932MOL0     H25816   4.067   1.559   7.405 -1.6773 -2.1427  2.5544
  932MOL0     H25817   3.924   1.674   7.381  2.0400  0.3791 -2.0019
  932MOL0     H25818   4.056   1.608   6.995 -3.0952  1.7540 -1.0112
  932MOL0     H25819   3.539   1.263   7.787 -0.0230 -0.1729 -0.4572
  932MOL0     H25820   3.376   1.051   7.824  1.3055 -2.4126  1.3912
  933MOL0     O25821   7.537   6.952   1.538  0.3890 -0.7127 -0.2886
  933MOL0     C25822   7.448   7.028   1.582 -0.1623  0.4107 -0.2306
  933MOL0     O25823   7.308   6.994   1.589  0.3095  0.7227  0.0128
  933MOL0     C25824   7.269   6.873   1.535  0.1109  0.8522 -0.4794
  933MOL0     C25825   7.225   6.769   1.623  0.1635 -0.8125 -0.1392
  933MOL0     C25826   7.180   6.644   1.565  0.1481  0.0358 -1.3159
  933MOL0     C25827   7.197   6.624   1.426 -0.0484 -0.5743  0.1348
  933MOL0     O25828   7.176   6.507   1.361  0.3710 -0.1413 -0.4735
  933MOL0     C25829   7.059   6.427   1.396 -0.8936  0.2142 -0.6707
  933MOL0     C25830   7.053   6.305   1.302  0.0227  1.0082 -0.4714
  933MOL0     C25831   7.073   6.337   1.150  0.2839 -0.8362  0.7313
  933MOL0     C25832   6.965   6.439   1.101  0.1519  1.0178 -0.3689
  933MOL0     C25833   7.003   6.583   1.055  0.2978  0.0303 -0.0850
  933MOL0     C25834   6.909   6.633   0.939 -0.9872  0.3075 -0.7983
  933MOL0     C25835   6.923   6.781   0.905 -0.5169 -0.9769 -0.9671
  933MOL0     C25836   6.795   6.834   0.835 -0.1596 -0.7056  0.0349
  933MOL0     N25837   6.780   6.980   0.853  0.0683  0.3741  0.0673
  933MOL0     C25838   6.739   7.064   0.764  0.0956 -1.1216 -0.0372
  933MOL0     C25839   6.764   7.183   0.814  0.4335 -0.5497  0.8660
  933MOL0     C25840   6.741   7.311   0.735  0.5525  0.8977 -0.0628
  933MOL0     C25841   6.609   7.390   0.766  0.4515  0.4842 -0.4012
  933MOL0     C25842   6.608   7.533   0.694  0.5914 -0.5972  0.1011
  933MOL0     C25843   6.702   7.643   0.740  0.0545 -0.5418 -0.5903
  933MOL0     O25844   6.646   7.762   0.779 -0.1794  0.0946 -1.3677
  933MOL0     C25845   6.697   7.846   0.868 -0.6585  0.1846  0.0794
  933MOL0     C25846   6.625   7.951   0.932  0.4901 -0.1177  0.1607
  933MOL0     C25847   6.683   8.053   1.016 -0.4028  1.0183  1.3421
  933MOL0     C25848   6.594   8.158   1.077 -0.3132 -0.2184  0.6406
  933MOL0     C25849   6.823   8.038   1.033  0.8286  0.1438  0.8655
  933MOL0     C25850   6.902   8.133   1.119 -0.0742  0.5410  0.8369
  933MOL0     O25851   7.025   8.168   1.068  0.1520  0.3592  1.2001
  933MOL0     C25852   7.092   8.277   1.117  0.0825  0.1730  0.8433
  933MOL0     C25853   7.077   8.400   1.055 -0.3731  0.3145  0.0958
  933MOL0     C25854   7.156   8.505   1.091 -0.2453  0.2620  0.4361
  933MOL0     C25855   7.242   8.490   1.191 -0.2575  0.2777 -0.0066
  933MOL0     O25856   7.317   8.600   1.202  0.5780 -0.5440  0.4415
  933MOL0     C25857   7.438   8.597   1.289  0.6729  0.2386  0.4840
  933MOL0     C25858   7.532   8.712   1.266 -0.3599  0.2499 -0.1029
  933MOL0     C25859   7.512   8.817   1.384  1.2357 -0.1279  0.3281
  933MOL0     C25860   7.616   8.927   1.359  0.3098  0.0053  0.6367
  933MOL0     C25861   7.631   9.036   1.471  0.7133 -0.7535  0.2534
  933MOL0     C25862   7.489   9.098   1.507 -0.1784 -0.4559  1.3855
  933MOL0     C25863   7.502   9.201   1.619  1.4493 -1.0443  0.0684
  933MOL0     C25864   7.396   9.306   1.596  0.1204 -0.1812 -0.1947
  933MOL0    Cl25865   7.436   9.434   1.727  0.4588  0.3538  0.0913
  933MOL0     C25866   7.249   8.374   1.274  1.1082 -0.3406 -0.5237
  933MOL0     C25867   7.177   8.260   1.224 -0.3800 -0.8355 -1.1837
  933MOL0     O25868   6.858   8.176   1.223 -0.1958  0.3054 -0.1443
  933MOL0     C25869   6.893   7.934   0.975 -0.3640 -0.3018 -0.4968
  933MOL0     C25870   6.834   7.836   0.892  0.2453 -0.6978 -0.1693
  933MOL0     N25871   6.801   7.178   0.948  0.1774  0.2767 -0.3255
  933MOL0     N25872   6.820   7.045   0.964  0.7786 -0.2505 -0.0683
  933MOL0     C25873   7.240   6.725   1.344 -0.0332 -1.5596 -0.3717
  933MOL0     C25874   7.275   6.848   1.397  0.3484  0.3891  0.4952
  933MOL0     C25875   7.480   7.154   1.638 -0.3665 -0.5332  0.1046
  933MOL0     C25876   7.622   7.200   1.630  0.2779  0.7253 -0.2299
  933MOL0     C25877   7.664   7.305   1.717 -0.7722 -0.2490 -0.9877
  933MOL0     C25878   7.573   7.370   1.796  0.2392  0.2798  0.1469
  933MOL0     O25879   7.628   7.452   1.893  0.1557  0.0171  1.4329
  933MOL0     C25880   7.580   7.430   2.023 -0.0611 -0.4761  0.2035
  933MOL0     C25881   7.610   7.288   2.073  0.3832  0.4935  0.0085
  933MOL0     C25882   7.558   7.247   2.212  0.2866 -0.2182 -0.2274
  933MOL0     C25883   7.401   7.269   2.221 -0.3420  0.7804 -0.1147
  933MOL0     C25884   7.342   7.219   2.349  0.6078 -0.1296  0.8117
  933MOL0     C25885   7.281   7.190   2.450 -0.1377  0.2943 -0.4236
  933MOL0     C25886   7.435   7.333   1.795  0.0817 -0.1976  0.4955
  933MOL0     C25887   7.384   7.226   1.715  0.6655  1.1702  0.2500
  933MOL0     H25888   7.207   6.782   1.729 -0.2002  3.4937 -0.5517
  933MOL0     H25889   7.135   6.563   1.621  3.3830 -2.1279 -1.5873
  933MOL0     H25890   7.041   6.389   1.497 -1.1482 -0.8780 -1.1059
  933MOL0     H25891   6.967   6.483   1.377 -1.4375 -1.5234 -3.9365
  933MOL0     H25892   7.133   6.234   1.321 -0.2221  1.7357  4.6009
  933MOL0     H25893   6.961   6.250   1.325  1.3965 -0.3894  2.0163
  933MOL0     H25894   7.174   6.367   1.122 -1.4416  0.8003 -4.9070
  933MOL0     H25895   7.041   6.247   1.097 -3.7546 -2.2929  4.9372
  933MOL0     H25896   6.922   6.389   1.013  0.3255 -0.5922  0.4258
  933MOL0     H25897   6.881   6.443   1.170  0.9049 -0.4808  0.6836
  933MOL0     H25898   7.004   6.642   1.147 -2.4394  2.2042 -1.2850
  933MOL0     H25899   7.105   6.584   1.017  2.0722 -2.9765  3.9423
  933MOL0     H25900   6.924   6.576   0.847 -0.5302  0.2836 -0.7074
  933MOL0     H25901   6.808   6.612   0.976 -0.3338  1.4437  1.9057
  933MOL0     H25902   6.952   6.838   0.994 -1.3724  0.0109 -1.3037
  933MOL0     H25903   7.007   6.785   0.835 -0.3804  2.4889 -0.7989
  933MOL0     H25904   6.706   6.785   0.876 -0.5831 -1.4424 -1.6657
  933MOL0     H25905   6.792   6.814   0.727  1.0893 -2.0791  0.2312
  933MOL0     H25906   6.711   7.043   0.661 -5.2881 -0.9849  1.0851
  933MOL0     H25907   6.818   7.384   0.761  0.8868  0.6680 -0.3952
  933MOL0     H25908   6.738   7.280   0.630 -1.1117 -0.3171  0.2926
  933MOL0     H25909   6.604   7.415   0.872 -0.8730 -0.9587 -0.0979
  933MOL0     H25910   6.523   7.336   0.725 -1.3837  3.7184 -1.1512
  933MOL0     H25911   6.509   7.578   0.706  0.6007  0.0415 -1.8617
  933MOL0     H25912   6.622   7.516   0.587 -0.1796  3.8475 -0.9086
  933MOL0     H25913   6.767   7.676   0.659 -0.2926  0.5453 -0.4318
  933MOL0     H25914   6.764   7.602   0.821 -0.2112  2.2126  1.1427
  933MOL0     H25915   6.520   7.956   0.906  1.0548  0.2110 -2.2537
  933MOL0     H25916   6.620   8.173   1.182  2.0855 -1.4890  0.3008
  933MOL0     H25917   6.595   8.254   1.024 -0.0237 -0.7903 -0.4342
  933MOL0     H25918   6.499   8.104   1.077 -0.7636  0.5206  2.5896
  933MOL0     H25919   7.027   8.406   0.959  0.6066  2.9094 -0.3271
  933MOL0     H25920   7.145   8.602   1.042  0.3176  0.2853  0.3485
  933MOL0     H25921   7.408   8.598   1.395  1.2463 -0.3923  0.6597
  933MOL0     H25922   7.493   8.507   1.262  5.6280  3.2666 -0.8526
  933MOL0     H25923   7.639   8.687   1.267  0.2598  2.5939 -0.1737
  933MOL0     H25924   7.514   8.740   1.162 -0.9812 -2.2892 -0.7254
  933MOL0     H25925   7.537   8.773   1.482 -1.9726 -0.4018  1.1230
  933MOL0     H25926   7.411   8.858   1.374  0.0460 -3.3633 -3.1707
  933MOL0     H25927   7.715   8.882   1.350 -0.1329 -1.4196  2.4854
  933MOL0     H25928   7.596   8.977   1.263 -2.6357 -3.0287 -0.5132
  933MOL0     H25929   7.698   9.120   1.450 -0.2421  0.6678  2.4781
  933MOL0     H25930   7.667   8.980   1.557  0.3361  1.1351  1.7225
  933MOL0     H25931   7.455   9.142   1.413  1.5621 -1.9748 -0.0417
  933MOL0     H25932   7.426   9.013   1.536  2.6551 -2.9089  0.7637
  933MOL0     H25933   7.602   9.246   1.615 -0.1026  2.7437 -4.0149
  933MOL0     H25934   7.495   9.154   1.718  1.8665  2.0271  1.6951
  933MOL0     H25935   7.297   9.261   1.602  1.0296 -2.1967  0.9943
  933MOL0     H25936   7.417   9.352   1.499  2.9127 -0.4299  0.1857
  933MOL0     H25937   7.311   8.373   1.363  1.8970 -1.1444 -1.0695
  933MOL0     H25938   7.157   8.179   1.293 -1.1889  2.7774  3.2981
  933MOL0     H25939   7.001   7.929   0.983 -0.2056 -1.4378 -2.5743
  933MOL0     H25940   6.900   7.760   0.853  0.6081 -0.2754 -0.3881
  933MOL0     H25941   7.255   6.710   1.237  4.7252  0.4452 -0.2509
  933MOL0     H25942   7.303   6.931   1.332 -2.2702 -0.1218 -1.4285
  933MOL0     H25943   7.683   7.155   1.554  0.5267  1.7085 -0.6259
  933MOL0     H25944   7.768   7.331   1.731 -1.0477  0.2550  0.1447
  933MOL0     H25945   7.629   7.503   2.088 -1.5656  2.1535 -1.4263
  933MOL0     H25946   7.477   7.464   2.036  0.3745  0.3183  1.7409
  933MOL0     H25947   7.717   7.264   2.079  0.1960 -1.3590 -2.5964
  933MOL0     H25948   7.578   7.218   1.995  1.9032  0.8307 -0.9716
  933MOL0     H25949   7.600   7.320   2.282 -2.9593  1.8090 -0.1737
  933MOL0     H25950   7.585   7.144   2.235  2.4173  0.2472 -0.3650
  933MOL0     H25951   7.351   7.203   2.149 -1.9138 -3.2106  4.1706
  933MOL0     H25952   7.378   7.374   2.197 -0.7038  0.1837 -2.7467
  933MOL0     H25953   7.231   7.155   2.537 -0.6143 -0.3528 -0.9527
  933MOL0     H25954   7.365   7.385   1.859 -3.9308  1.3009 -4.4301
  933MOL0     H25955   7.280   7.202   1.734  0.5078 -0.5625 -2.3643
  934MOL0     O25956   7.812   8.435   1.341 -0.2644 -0.0826 -0.9471
  934MOL0     C25957   7.761   8.497   1.435 -0.0025  0.5900 -0.2024
  934MOL0     O25958   7.818   8.601   1.500 -0.2366 -0.3645 -0.8637
  934MOL0     C25959   7.922   8.675   1.450  0.4811 -0.5282 -0.0833
  934MOL0     C25960   8.014   8.738   1.537 -0.1405  0.1931  0.2468
  934MOL0     C25961   8.117   8.820   1.488 -0.2717  0.1381  0.5025
  934MOL0     C25962   8.134   8.838   1.351 -0.3365  0.5422  0.5758
  934MOL0     O25963   8.233   8.915   1.300  0.0983  0.7392 -0.7111
  934MOL0     C25964   8.368   8.894   1.346  1.2144 -0.5975 -0.0815
  934MOL0     C25965   8.440   9.028   1.321 -0.2516  0.3590 -0.4127
  934MOL0     C25966   8.389   9.160   1.377  0.8097  0.0623 -0.5074
  934MOL0     C25967   8.388   9.150   1.532 -0.3312  0.8148 -0.9515
  934MOL0     C25968   8.374   9.285   1.612  0.2771  0.2414  0.2173
  934MOL0     C25969   8.482   9.386   1.557  0.3685  0.4936 -0.2467
  934MOL0     C25970   8.504   9.502   1.654 -0.3732 -0.7057 -0.7692
  934MOL0     C25971   8.620   9.483   1.756 -0.0816 -0.5937  0.7912
  934MOL0     N25972   8.650   9.618   1.815  0.7652  0.5601  0.3045
  934MOL0     C25973   8.561   9.686   1.885 -0.5835 -0.2453  0.4887
  934MOL0     C25974   8.632   9.791   1.921  0.4317 -0.0695  0.0969
  934MOL0     C25975   8.577   9.884   2.024  0.2830  0.3113  0.7569
  934MOL0     C25976   8.499   9.992   1.952 -0.1820  0.1465 -0.9315
  934MOL0     C25977   8.489  10.127   2.040 -0.6711  1.2961  0.3199
  934MOL0     C25978   8.377  10.121   2.142  0.3059 -1.1488  0.6918
  934MOL0     O25979   8.247  10.122   2.077 -0.4382  0.0358 -0.3106
  934MOL0     C25980   8.208  10.237   2.011 -0.8214  0.0700  0.6790
  934MOL0     C25981   8.098  10.249   1.936  0.6041 -0.4474 -0.3466
  934MOL0     C25982   8.034  10.372   1.897 -0.5127 -0.4311  0.4089
  934MOL0     C25983   7.900  10.355   1.825 -0.7110  0.0437 -0.2447
  934MOL0     C25984   8.101  10.491   1.919  1.0134  0.0052 -0.1447
  934MOL0     C25985   8.059  10.628   1.870 -0.9326 -0.1611  0.0405
  934MOL0     O25986   8.108  10.735   1.934 -0.1574  0.0063  0.1640
  934MOL0     C25987   8.081  10.857   1.879 -0.0497 -0.7845 -0.6617
  934MOL0     C25988   8.032  10.960   1.958 -0.0208 -0.5657  0.2798
  934MOL0     C25989   8.015  11.084   1.907  0.2133 -0.2262  0.3082
  934MOL0     C25990   8.053  11.111   1.781 -0.5909 -0.0162  0.1489
  934MOL0     O25991   8.030  11.229   1.717 -0.1369 -0.3645  0.0597
  934MOL0     C25992   7.992  11.350   1.796  0.3922 -0.2709  0.3299
  934MOL0     C25993   7.972  11.472   1.699  0.0984  0.1336  0.0273
  934MOL0     C25994   7.865  11.449   1.595 -0.5965  0.3307  0.2343
  934MOL0     C25995   7.816  11.574   1.522 -0.4335 -0.5690  0.0830
  934MOL0     C25996   7.718  11.538   1.408 -0.0101  0.2073  0.7105
  934MOL0     C25997   7.777  11.482   1.277 -0.6772 -0.8778  0.9168
  934MOL0     C25998   7.864  11.573   1.189  0.5794  0.1444 -0.5313
  934MOL0     C25999   7.910  11.510   1.056 -0.0087 -0.2182 -0.3223
  934MOL0    Cl26000   8.006  11.611   0.953 -0.0564 -0.1905 -0.2243
  934MOL0     C26001   8.105  11.014   1.697  0.7056 -0.5334  0.8068
  934MOL0     C26002   8.117  10.882   1.743 -0.4383  0.0362 -1.2595
  934MOL0     O26003   7.982  10.631   1.778  0.1032 -0.2279  1.2582
  934MOL0     C26004   8.215  10.482   2.004  0.4054  0.5328 -0.5325
  934MOL0     C26005   8.273  10.360   2.043  0.0295  0.9772 -0.0775
  934MOL0     N26006   8.770   9.775   1.888  0.3689 -0.0827 -1.4254
  934MOL0     N26007   8.777   9.672   1.815  0.5103 -0.6492  0.5054
  934MOL0     C26008   8.043   8.783   1.261  1.0245  0.1764  0.1524
  934MOL0     C26009   7.941   8.705   1.311  0.0178  0.3687 -0.7357
  934MOL0     C26010   7.637   8.433   1.499 -0.4293  0.6263  0.4965
  934MOL0     C26011   7.591   8.303   1.454  0.0215 -0.5456 -0.6142
  934MOL0     C26012   7.489   8.240   1.526  0.8154  0.8909  0.4791
  934MOL0     C26013   7.427   8.306   1.630  1.0293 -0.0845 -0.2936
  934MOL0     O26014   7.322   8.252   1.707  0.2425 -0.1234  0.2336
  934MOL0     C26015   7.213   8.211   1.622  0.8696 -0.7246  0.2266
  934MOL0     C26016   7.139   8.100   1.694 -0.5315  0.1367 -0.8549
  934MOL0     C26017   6.992   8.109   1.688  0.4915  0.8578 -0.9696
  934MOL0     C26018   6.933   8.066   1.559 -0.4540 -0.0101 -0.0070
  934MOL0     C26019   6.947   7.929   1.514  0.3871  0.7640 -0.0085
  934MOL0     C26020   6.947   7.814   1.473 -0.9137  0.2254 -0.0016
  934MOL0     C26021   7.480   8.424   1.679  0.1344  0.3619 -0.0395
  934MOL0     C26022   7.586   8.487   1.619  0.0138 -0.0876 -0.3659
  934MOL0     H26023   8.000   8.731   1.645  3.7339  2.8672  1.1520
  934MOL0     H26024   8.181   8.865   1.563 -0.7590 -1.2497  1.8184
  934MOL0     H26025   8.372   8.864   1.451  0.1576 -0.7457 -0.0762
  934MOL0     H26026   8.429   8.830   1.282 -0.2403  0.0428 -2.1930
  934MOL0     H26027   8.543   9.017   1.353 -0.8264 -0.3502  1.2905
  934MOL0     H26028   8.440   9.049   1.213 -0.5466 -1.0329 -0.7061
  934MOL0     H26029   8.454   9.242   1.345  4.7069 -1.7544  1.9684
  934MOL0     H26030   8.287   9.177   1.342  0.2612 -0.8672  0.5751
  934MOL0     H26031   8.317   9.072   1.562 -2.8780  2.1019 -3.1156
  934MOL0     H26032   8.485   9.121   1.572 -0.5351  2.7109  1.1450
  934MOL0     H26033   8.280   9.342   1.609 -0.1853 -0.4032  1.5135
  934MOL0     H26034   8.398   9.274   1.718  0.6005  0.6315  0.1882
  934MOL0     H26035   8.571   9.327   1.531 -0.8478 -1.0632 -1.1021
  934MOL0     H26036   8.466   9.428   1.458  1.2072  0.7196 -0.2939
  934MOL0     H26037   8.531   9.586   1.589  0.6261 -0.4557 -0.0448
  934MOL0     H26038   8.410   9.521   1.706 -0.2262  3.2169 -1.6316
  934MOL0     H26039   8.716   9.454   1.714 -0.7709  0.6181 -1.8127
  934MOL0     H26040   8.582   9.408   1.827 -1.8198  0.5841  1.1883
  934MOL0     H26041   8.462   9.656   1.916 -1.0019  1.6333  1.1206
  934MOL0     H26042   8.518   9.832   2.100 -1.8716 -1.2378 -1.7991
  934MOL0     H26043   8.663   9.935   2.069  1.9498 -0.1767 -1.6663
  934MOL0     H26044   8.406   9.957   1.905  0.2951 -0.7539 -1.2132
  934MOL0     H26045   8.560  10.034   1.872 -1.7354  0.9630 -1.7478
  934MOL0     H26046   8.482  10.212   1.971 -2.1070 -0.9595 -2.5420
  934MOL0     H26047   8.587  10.137   2.087  0.8568 -0.7448 -2.1459
  934MOL0     H26048   8.374  10.205   2.212 -0.4993 -0.9852  0.4746
  934MOL0     H26049   8.380  10.024   2.192  4.1640 -1.8666 -0.5630
  934MOL0     H26050   8.051  10.152   1.921 -0.3105 -0.0958  0.2129
  934MOL0     H26051   7.828  10.412   1.885 -0.7637 -0.0075 -0.2581
  934MOL0     H26052   7.921  10.382   1.721 -0.9951  0.8973 -0.0892
  934MOL0     H26053   7.870  10.250   1.834  2.6986 -0.8659  2.5267
  934MOL0     H26054   7.999  10.947   2.061 -0.1556  1.9443  0.6002
  934MOL0     H26055   7.967  11.158   1.970 -0.4376 -0.8908  0.6150
  934MOL0     H26056   7.898  11.335   1.851  0.5985 -0.5968  0.5935
  934MOL0     H26057   8.074  11.379   1.862  0.5978  2.3248 -0.8999
  934MOL0     H26058   7.940  11.553   1.764  1.1900 -0.1281  0.9305
  934MOL0     H26059   8.066  11.490   1.644  0.8911  0.0354  1.3094
  934MOL0     H26060   7.785  11.393   1.644  1.6571 -4.9964 -1.4348
  934MOL0     H26061   7.919  11.393   1.519  2.1177  3.0580 -0.0085
  934MOL0     H26062   7.760  11.641   1.589  3.0859  1.2536  1.4710
  934MOL0     H26063   7.896  11.646   1.502 -0.8991  0.1351  0.6591
  934MOL0     H26064   7.669  11.631   1.375  1.5758  1.2491  1.2056
  934MOL0     H26065   7.634  11.476   1.440 -2.6238  1.6883 -2.5602
  934MOL0     H26066   7.838  11.392   1.294  0.5525 -0.6005 -1.5229
  934MOL0     H26067   7.694  11.451   1.213  0.0156 -0.3383 -0.2780
  934MOL0     H26068   7.956  11.592   1.244  0.7689 -0.7893 -0.5112
  934MOL0     H26069   7.813  11.667   1.168  0.1180 -0.6049 -3.1497
  934MOL0     H26070   7.831  11.456   1.001 -0.4916 -3.5661  3.2216
  934MOL0     H26071   7.975  11.427   1.086 -0.1792 -1.2029 -2.4553
  934MOL0     H26072   8.149  11.033   1.600  0.7946 -0.0244  0.9435
  934MOL0     H26073   8.150  10.800   1.679  2.8730  0.2158  0.0019
  934MOL0     H26074   8.270  10.572   2.031 -1.1467  1.3588 -0.0380
  934MOL0     H26075   8.354  10.380   2.112  1.5767  4.2016 -2.5685
  934MOL0     H26076   8.056   8.786   1.153  1.5681 -1.6766  0.1408
  934MOL0     H26077   7.880   8.652   1.238  1.9531 -2.1189 -0.6804
  934MOL0     H26078   7.633   8.261   1.363 -0.8223  2.0154 -2.2730
  934MOL0     H26079   7.465   8.136   1.505  3.0703  0.0912  1.4642
  934MOL0     H26080   7.141   8.290   1.596  0.7844 -0.7409  0.4139
  934MOL0     H26081   7.244   8.170   1.525 -0.3459 -1.4743  0.1301
  934MOL0     H26082   7.167   8.099   1.800 -0.5434 -0.3057 -0.8536
  934MOL0     H26083   7.179   8.007   1.652 -3.3154 -0.6680 -1.9182
  934MOL0     H26084   6.966   8.214   1.701 -0.8545  0.3468  0.7349
  934MOL0     H26085   6.951   8.041   1.763  2.2465 -3.3946 -3.4880
  934MOL0     H26086   6.963   8.125   1.472  0.7867 -1.3669 -0.5369
  934MOL0     H26087   6.826   8.083   1.576 -1.0224 -1.2004 -2.0217
  934MOL0     H26088   6.938   7.710   1.453 -1.0229  0.0467  0.9035
  934MOL0     H26089   7.445   8.467   1.772 -0.5750 -1.7571  0.7190
  934MOL0     H26090   7.623   8.578   1.664  0.9736 -0.2724 -0.7447
  935MOL0     O26091   9.566   2.536   2.397 -0.4040 -0.5139  0.3134
  935MOL0     C26092   9.539   2.536   2.520  0.2261 -0.2755  0.7250
  935MOL0     O26093   9.492   2.636   2.597  0.9599 -0.4516 -0.5001
  935MOL0     C26094   9.443   2.743   2.534 -1.0310 -0.6995 -0.7545
  935MOL0     C26095   9.471   2.869   2.588  0.7253  0.2677  0.9284
  935MOL0     C26096   9.453   2.984   2.508  0.2912  0.7011  0.0781
  935MOL0     C26097   9.380   2.978   2.391  0.4184 -0.2262  0.3612
  935MOL0     O26098   9.363   3.090   2.314 -0.2049  0.3997  0.3741
  935MOL0     C26099   9.418   3.218   2.353  0.1851  0.4074  0.4693
  935MOL0     C26100   9.391   3.326   2.246 -0.1345 -0.4760 -0.6598
  935MOL0     C26101   9.483   3.453   2.260 -0.4431 -0.0399 -0.6877
  935MOL0     C26102   9.423   3.570   2.357 -0.2099  0.8936 -0.6199
  935MOL0     C26103   9.394   3.534   2.507 -0.1601 -0.4720 -0.5075
  935MOL0     C26104   9.344   3.655   2.583  0.0914 -0.4000  0.7117
  935MOL0     C26105   9.272   3.625   2.721  1.0511 -0.6185  0.2569
  935MOL0     C26106   9.228   3.742   2.811  0.6427  0.5964 -0.9036
  935MOL0     N26107   9.341   3.817   2.867  0.4103  0.5634 -0.8375
  935MOL0     C26108   9.415   3.918   2.812 -1.5033 -0.3834  0.2706
  935MOL0     C26109   9.506   3.959   2.903  0.0101 -0.7584 -0.1929
  935MOL0     C26110   9.611   4.063   2.891 -0.1882  0.1925 -0.1123
  935MOL0     C26111   9.710   4.029   2.790 -0.9105 -0.7910 -0.0409
  935MOL0     C26112   9.784   3.893   2.808 -0.2957 -0.3771  0.3782
  935MOL0     C26113   9.865   3.869   2.678 -0.0906 -0.0203 -0.1560
  935MOL0     O26114   9.980   3.960   2.688 -0.4934  0.0712 -0.5021
  935MOL0     C26115  10.018   4.012   2.563  0.0030  0.3555  0.2572
  935MOL0     C26116   9.967   4.122   2.497  0.5550  0.7819  0.5065
  935MOL0     C26117  10.003   4.152   2.365  0.5820 -0.4832  0.1942
  935MOL0     C26118   9.932   4.270   2.298  0.5106  0.6874 -0.0035
  935MOL0     C26119  10.090   4.068   2.290 -0.5398  0.0086  0.7707
  935MOL0     C26120  10.149   4.104   2.151 -0.3457 -0.4237 -0.2807
  935MOL0     O26121  10.165   4.240   2.121  0.7413  0.9853 -0.0744
  935MOL0     C26122  10.218   4.274   2.009  0.0224 -0.4195  0.5539
  935MOL0     C26123  10.355   4.289   1.998 -0.2289  0.4711 -0.4391
  935MOL0     C26124  10.412   4.320   1.872  1.0204  1.1303  0.0373
  935MOL0     C26125  10.327   4.344   1.767  0.5223 -0.3925  0.9526
  935MOL0     O26126  10.390   4.352   1.651 -0.7333  1.0642  0.2674
  935MOL0     C26127  10.334   4.422   1.540 -0.7523  0.7462  0.1015
  935MOL0     C26128  10.448   4.408   1.434 -0.4369  0.2856 -0.5980
  935MOL0     C26129  10.480   4.268   1.407 -0.2614 -0.1272 -0.1046
  935MOL0     C26130  10.572   4.251   1.291  0.0418  0.9232  0.6442
  935MOL0     C26131  10.650   4.117   1.290 -0.4502 -1.2409  0.3707
  935MOL0     C26132  10.566   4.000   1.249 -0.1803 -0.1941  1.2540
  935MOL0     C26133  10.544   3.998   1.094 -0.9330 -0.3056  0.4447
  935MOL0     C26134  10.641   3.905   1.024  0.2027  0.2141  0.0764
  935MOL0    Cl26135  10.811   3.920   1.068  0.0120 -0.0626 -0.2459
  935MOL0     C26136  10.189   4.332   1.774  0.3245  0.0695 -0.7912
  935MOL0     C26137  10.130   4.303   1.899 -0.2232  0.6116 -0.5315
  935MOL0     O26138  10.162   4.011   2.068  0.0191 -0.2024 -0.0487
  935MOL0     C26139  10.142   3.959   2.363 -0.6774  0.0280  0.3457
  935MOL0     C26140  10.113   3.931   2.500  0.3480  0.0299 -0.2673
  935MOL0     N26141   9.493   3.878   3.012 -0.7486  0.0387 -0.5052
  935MOL0     N26142   9.392   3.802   2.995  0.3290 -0.1782  0.0169
  935MOL0     C26143   9.334   2.854   2.346  0.2940  0.0252 -0.1626
  935MOL0     C26144   9.367   2.737   2.416  0.9525 -0.1835 -0.3476
  935MOL0     C26145   9.577   2.403   2.586  0.2068  0.4998  0.9985
  935MOL0     C26146   9.605   2.378   2.719 -0.8376 -0.4147  0.6977
  935MOL0     C26147   9.625   2.246   2.767 -0.3399 -1.0243 -0.3280
  935MOL0     C26148   9.625   2.137   2.690  0.9480  0.4253 -0.3743
  935MOL0     O26149   9.646   2.014   2.742 -0.4684 -0.1351  0.4553
  935MOL0     C26150   9.542   1.968   2.821 -0.3330  0.0016  0.2214
  935MOL0     C26151   9.421   1.926   2.736 -0.2654  0.3474 -0.4329
  935MOL0     C26152   9.456   1.823   2.638 -0.2744  0.0961 -0.6718
  935MOL0     C26153   9.361   1.776   2.536  0.9103  1.0938 -0.2271
  935MOL0     C26154   9.401   1.652   2.467 -0.2351  0.7510  1.5017
  935MOL0     C26155   9.455   1.553   2.417  0.0101 -0.7490  0.0654
  935MOL0     C26156   9.599   2.161   2.555  0.7151  0.8387 -0.4233
  935MOL0     C26157   9.573   2.286   2.502 -0.5758  0.1572 -0.6086
  935MOL0     H26158   9.527   2.884   2.680 -0.1563 -0.8722  1.6718
  935MOL0     H26159   9.482   3.081   2.547 -1.1922  0.6644  1.3440
  935MOL0     H26160   9.371   3.249   2.448 -0.8111 -3.4222  1.4079
  935MOL0     H26161   9.526   3.208   2.367 -0.1961 -1.3684  2.8827
  935MOL0     H26162   9.396   3.280   2.148 -2.1308 -1.6659 -0.2616
  935MOL0     H26163   9.285   3.355   2.248 -0.1758 -0.6060 -0.9440
  935MOL0     H26164   9.581   3.425   2.299 -0.4198  2.2012  1.0595
  935MOL0     H26165   9.506   3.480   2.156  1.4969 -0.3827 -0.3735
  935MOL0     H26166   9.495   3.651   2.368  0.7216 -0.2055  2.1382
  935MOL0     H26167   9.324   3.593   2.317 -0.3325 -0.8305 -1.4368
  935MOL0     H26168   9.317   3.457   2.507 -1.4626  0.7777 -0.0832
  935MOL0     H26169   9.483   3.500   2.561  0.1389 -0.2254 -0.8339
  935MOL0     H26170   9.425   3.727   2.602 -0.9809  1.5162 -1.5668
  935MOL0     H26171   9.267   3.692   2.516  0.9849 -2.1328 -1.3829
  935MOL0     H26172   9.179   3.573   2.699  0.8818  0.6038 -2.2202
  935MOL0     H26173   9.322   3.552   2.786  1.8035  1.4994  2.2120
  935MOL0     H26174   9.167   3.698   2.890  1.3890  0.9843 -0.1043
  935MOL0     H26175   9.167   3.805   2.746  1.2624  3.6592  1.2767
  935MOL0     H26176   9.402   3.965   2.715  0.4713 -0.8557 -0.2763
  935MOL0     H26177   9.558   4.157   2.874 -0.8702 -0.4164 -1.5124
  935MOL0     H26178   9.662   4.077   2.987 -1.0086  0.4528  0.2902
  935MOL0     H26179   9.780   4.113   2.788 -3.6787  1.6460 -1.5787
  935MOL0     H26180   9.658   4.030   2.694 -1.0606 -3.7041 -0.0856
  935MOL0     H26181   9.718   3.805   2.815  2.3546 -2.5204  0.0616
  935MOL0     H26182   9.852   3.907   2.892  1.0052 -1.3091 -0.4731
  935MOL0     H26183   9.802   3.877   2.589 -2.3476 -2.1666  1.1001
  935MOL0     H26184   9.888   3.762   2.681 -0.4530 -0.1363 -1.3402
  935MOL0     H26185   9.877   4.166   2.539  0.1464 -0.7063  1.2506
  935MOL0     H26186   9.990   4.362   2.308 -0.6048  1.5992 -1.6374
  935MOL0     H26187   9.918   4.231   2.197 -0.9479  0.9791  0.0672
  935MOL0     H26188   9.832   4.283   2.339 -0.1561 -0.8109 -1.0701
  935MOL0     H26189  10.418   4.298   2.085 -0.7460  2.2901 -0.2095
  935MOL0     H26190  10.516   4.321   1.839  0.7335  2.7975 -0.9368
  935MOL0     H26191  10.244   4.379   1.496 -1.9426  3.7418 -0.6319
  935MOL0     H26192  10.318   4.529   1.557  0.7596  1.1274 -0.6483
  935MOL0     H26193  10.433   4.452   1.335  0.3338 -0.1474 -0.9203
  935MOL0     H26194  10.530   4.472   1.469  0.7563 -0.0863 -2.5126
  935MOL0     H26195  10.393   4.201   1.402  0.6452 -1.6288  2.4092
  935MOL0     H26196  10.538   4.241   1.496 -2.3387 -0.7479  1.1418
  935MOL0     H26197  10.506   4.247   1.203 -3.4225  2.6435  2.9302
  935MOL0     H26198  10.647   4.330   1.282  1.2127 -0.0545  1.5647
  935MOL0     H26199  10.706   4.111   1.384 -1.7277  1.1258  1.3387
  935MOL0     H26200  10.725   4.133   1.212  0.3003  1.7200  1.5795
  935MOL0     H26201  10.613   3.904   1.276 -1.5157 -0.6402  2.0556
  935MOL0     H26202  10.465   4.003   1.290 -0.5278 -2.6279  0.7470
  935MOL0     H26203  10.560   4.096   1.048 -0.4379  0.4614  2.1695
  935MOL0     H26204  10.441   3.982   1.061 -1.7798  3.9393  0.4926
  935MOL0     H26205  10.649   3.914   0.915  3.2708 -5.7173 -0.5900
  935MOL0     H26206  10.611   3.803   1.046  2.9468 -0.9518 -1.1504
  935MOL0     H26207  10.137   4.327   1.679  1.0152  2.7869 -1.3999
  935MOL0     H26208  10.022   4.289   1.906  0.1479 -2.9703 -0.2965
  935MOL0     H26209  10.215   3.888   2.326 -1.0897 -0.7530  0.9739
  935MOL0     H26210  10.163   3.846   2.547  4.1770  2.6914  0.9291
  935MOL0     H26211   9.272   2.871   2.259  1.8324  0.8650 -1.1442
  935MOL0     H26212   9.328   2.652   2.362  0.4068  0.0497 -0.3268
  935MOL0     H26213   9.601   2.469   2.779 -3.7223  1.6600 -2.3370
  935MOL0     H26214   9.649   2.225   2.871  2.4228  1.6136 -0.2965
  935MOL0     H26215   9.578   1.882   2.878  0.4888 -0.8952 -1.5912
  935MOL0     H26216   9.524   2.042   2.900  1.8587  2.4250 -1.3891
  935MOL0     H26217   9.378   2.015   2.688  0.1599  0.0009 -1.4613
  935MOL0     H26218   9.337   1.882   2.792 -1.4044 -1.2350 -3.2027
  935MOL0     H26219   9.480   1.737   2.702 -1.4221 -1.6253 -2.4275
  935MOL0     H26220   9.547   1.853   2.585 -1.3387  2.5560 -1.2402
  935MOL0     H26221   9.350   1.860   2.467 -0.8066  2.0882  1.1719
  935MOL0     H26222   9.264   1.758   2.582  1.9032  1.3033  2.1326
  935MOL0     H26223   9.485   1.458   2.378  1.6291  0.4321 -1.7260
  935MOL0     H26224   9.588   2.067   2.502 -0.0869 -0.2180  1.5189
  935MOL0     H26225   9.559   2.293   2.395  1.7460 -0.8133 -1.0405
  936MOL0     O26226   0.140   4.916  11.286 -0.7068 -0.7483  0.8616
  936MOL0     C26227   0.221   4.872  11.366 -0.6854  0.3112  0.8463
  936MOL0     O26228   0.195   4.763  11.448  0.0530  0.4908  0.2163
  936MOL0     C26229   0.092   4.672  11.425  0.2569 -0.0470 -0.1984
  936MOL0     C26230   0.008   4.656  11.314 -0.5570 -0.5544  0.1432
  936MOL0     C26231  -0.103   4.574  11.315 -0.0075  0.3227 -1.8298
  936MOL0     C26232  -0.124   4.497  11.432 -0.4298 -0.1911 -0.6276
  936MOL0     O26233  -0.213   4.402  11.445  0.0630  0.4290 -0.6315
  936MOL0     C26234  -0.275   4.341  11.336  0.2850  0.4090  0.9554
  936MOL0     C26235  -0.331   4.208  11.385  0.7124  0.3957  0.5019
  936MOL0     C26236  -0.248   4.089  11.325  0.6406  0.1328 -0.1200
  936MOL0     C26237  -0.319   3.951  11.352 -0.3469  0.0095 -0.5630
  936MOL0     C26238  -0.252   3.822  11.299  0.2266 -1.5084  0.3597
  936MOL0     C26239  -0.204   3.713  11.392  0.4608  0.2334  0.3657
  936MOL0     C26240  -0.146   3.585  11.326 -0.7442  0.3670 -1.1842
  936MOL0     C26241  -0.221   3.532  11.204 -0.6030  0.4001  0.2424
  936MOL0     N26242  -0.146   3.417  11.153  0.1400 -0.4496 -0.2270
  936MOL0     C26243  -0.196   3.287  11.136 -0.0141 -0.4715 -0.0497
  936MOL0     C26244  -0.099   3.223  11.061 -0.5645  0.4048 -0.5310
  936MOL0     C26245  -0.111   3.081  11.020  1.0669 -0.6559  0.4592
  936MOL0     C26246  -0.068   2.968  11.121 -0.0763  0.1267  0.5827
  936MOL0     C26247   0.085   2.977  11.136  0.2812 -0.0987 -0.0333
  936MOL0     C26248   0.120   2.885  11.251 -0.5616 -0.1793  0.5748
  936MOL0     O26249   0.089   2.939  11.381  0.1400  0.3768  0.3341
  936MOL0     C26250   0.142   2.876  11.498  0.1004  0.6449  0.2773
  936MOL0     C26251   0.239   2.777  11.501  0.8040  0.1508 -1.3626
  936MOL0     C26252   0.287   2.722  11.632 -0.0747  0.6283 -0.1830
  936MOL0     C26253   0.401   2.618  11.616  0.4679 -0.5987  0.8474
  936MOL0     C26254   0.226   2.774  11.752  0.3338  0.4203  0.3055
  936MOL0     C26255   0.249   2.715  11.885  0.1571 -1.7235  0.4312
  936MOL0     O26256   0.240   2.798  11.992 -0.0509  0.0696  0.1039
  936MOL0     C26257   0.240   2.757  12.121 -0.4950 -0.2013  0.8297
  936MOL0     C26258   0.212   2.623  12.170  0.3953 -0.8739 -0.1593
  936MOL0     C26259   0.195   2.592  12.307  0.5957  1.0149 -0.1569
  936MOL0     C26260   0.209   2.687  12.407  0.3277 -0.1176 -0.2977
  936MOL0     O26261   0.194   2.644  12.536  0.6925 -0.3461  1.0529
  936MOL0     C26262   0.317   2.594  12.599 -0.2595 -0.0475 -1.3541
  936MOL0     C26263   0.259   2.507  12.714 -0.1905  0.7755 -0.2720
  936MOL0     C26264   0.353   2.391  12.754  0.4975 -0.1853 -0.0401
  936MOL0     C26265   0.300   2.300  12.876  0.1529  1.1165  0.5384
  936MOL0     C26266   0.388   2.179  12.882 -0.2213 -0.2106 -0.4003
  936MOL0     C26267   0.320   2.057  12.956  0.0351 -0.1381  0.0635
  936MOL0     C26268   0.418   1.944  12.958  0.0192  0.1147 -0.2667
  936MOL0     C26269   0.348   1.811  12.990 -0.5245  0.0683 -0.7157
  936MOL0    Cl26270   0.238   1.811  13.139  0.4928 -0.1189  0.4123
  936MOL0     C26271   0.242   2.819  12.370 -0.0515 -0.1781 -0.2562
  936MOL0     C26272   0.251   2.850  12.231  0.4408  0.2214  0.2655
  936MOL0     O26273   0.274   2.600  11.883 -0.1635  0.4796  1.1211
  936MOL0     C26274   0.140   2.882  11.738  0.0922 -0.3567 -0.9781
  936MOL0     C26275   0.100   2.932  11.619  0.0001  1.0534  0.5613
  936MOL0     N26276   0.005   3.317  11.032 -0.8550  0.6816  0.4461
  936MOL0     N26277  -0.026   3.426  11.089 -0.3649 -0.4858  0.3829
  936MOL0     C26278  -0.040   4.516  11.540  0.1738 -0.2030 -0.5946
  936MOL0     C26279   0.072   4.608  11.544 -0.3439  0.8104  0.5917
  936MOL0     C26280   0.356   4.939  11.385  1.2494  0.3529 -0.1124
  936MOL0     C26281   0.434   4.920  11.495  0.0798  0.7932 -0.3149
  936MOL0     C26282   0.554   4.984  11.509 -0.1295  1.0398  0.0875
  936MOL0     C26283   0.598   5.054  11.402  0.2712  0.0902  0.2678
  936MOL0     O26284   0.733   5.085  11.399 -0.5664 -0.5024 -0.8081
  936MOL0     C26285   0.813   5.080  11.284  0.7482  0.5509  0.3197
  936MOL0     C26286   0.960   5.050  11.320 -0.4052 -0.0067  0.3289
  936MOL0     C26287   1.024   5.126  11.429 -1.3390 -0.1201  0.4450
  936MOL0     C26288   1.160   5.075  11.461  0.2637 -0.2320 -0.4909
  936MOL0     C26289   1.251   5.111  11.363 -0.3020 -0.2163 -0.3237
  936MOL0     C26290   1.324   5.127  11.265 -0.8681 -0.7133  0.4275
  936MOL0     C26291   0.519   5.087  11.295 -1.2926  0.7434  0.2435
  936MOL0     C26292   0.400   5.017  11.282  0.1547 -0.0607 -0.3030
  936MOL0     H26293   0.030   4.699  11.217 -2.1183  2.3563  0.9571
  936MOL0     H26294  -0.174   4.582  11.233 -0.9651  1.8543 -0.8909
  936MOL0     H26295  -0.354   4.406  11.299 -0.2681 -0.1434  1.1482
  936MOL0     H26296  -0.201   4.331  11.256 -1.8159  1.4477 -1.2418
  936MOL0     H26297  -0.328   4.204  11.494 -0.6032  3.2665  0.7398
  936MOL0     H26298  -0.435   4.192  11.353  0.8221  0.4807  0.0922
  936MOL0     H26299  -0.226   4.110  11.220  1.0136  5.2429  0.7252
  936MOL0     H26300  -0.152   4.081  11.375  0.7633  3.0900  0.3284
  936MOL0     H26301  -0.311   3.948  11.461 -0.3435 -0.6162 -0.5759
  936MOL0     H26302  -0.424   3.967  11.327 -0.3784  3.4742  1.1343
  936MOL0     H26303  -0.318   3.774  11.226 -0.6452 -1.2236  0.9476
  936MOL0     H26304  -0.156   3.851  11.255  1.9679 -2.5019  3.2507
  936MOL0     H26305  -0.126   3.747  11.461  2.1172 -4.8965  1.4928
  936MOL0     H26306  -0.291   3.678  11.449 -1.3027  1.6226 -1.3110
  936MOL0     H26307  -0.041   3.597  11.298  0.3469 -1.3688  1.7819
  936MOL0     H26308  -0.152   3.506  11.401  0.6756  3.1921  2.1335
  936MOL0     H26309  -0.215   3.607  11.124 -1.8304 -1.3700 -1.6260
  936MOL0     H26310  -0.323   3.502  11.229 -1.6130  1.6845 -1.9871
  936MOL0     H26311  -0.296   3.251  11.158 -1.7258  3.8085  0.1185
  936MOL0     H26312  -0.219   3.068  11.002  0.3889  3.2069  1.0030
  936MOL0     H26313  -0.048   3.059  10.933  0.1068 -1.2065 -0.1219
  936MOL0     H26314  -0.096   2.871  11.079  0.0801  0.7086 -0.9416
  936MOL0     H26315  -0.125   2.986  11.212  0.3587  2.2673  0.4920
  936MOL0     H26316   0.120   3.075  11.171  2.1602 -0.3445 -1.1124
  936MOL0     H26317   0.135   2.943  11.045  1.8588 -0.9460  1.0924
  936MOL0     H26318   0.225   2.862  11.233 -1.2717 -3.3228 -0.0875
  936MOL0     H26319   0.060   2.794  11.244  2.1138 -1.9207 -1.7240
  936MOL0     H26320   0.271   2.720  11.414  1.9589 -0.1021 -0.7868
  936MOL0     H26321   0.341   2.530  11.591 -1.3033  1.0887 -1.2073
  936MOL0     H26322   0.469   2.647  11.536  2.0485 -0.0921  2.3030
  936MOL0     H26323   0.456   2.620  11.711  4.0320  1.2693 -1.0770
  936MOL0     H26324   0.184   2.540  12.107 -1.4851 -0.1694 -0.3080
  936MOL0     H26325   0.149   2.496  12.324  3.6553 -0.7342 -1.0409
  936MOL0     H26326   0.399   2.548  12.543  4.6896  1.4029  3.7301
  936MOL0     H26327   0.381   2.671  12.643  0.3950 -1.9569  1.2878
  936MOL0     H26328   0.243   2.572  12.801  2.5942 -1.3643  2.0535
  936MOL0     H26329   0.157   2.475  12.694 -0.3768 -0.4144  2.1789
  936MOL0     H26330   0.454   2.427  12.775  1.0514 -1.1308 -0.9775
  936MOL0     H26331   0.371   2.331  12.664  4.0435 -0.1725  0.5194
  936MOL0     H26332   0.302   2.352  12.971 -3.6809 -1.2321  2.1223
  936MOL0     H26333   0.202   2.264  12.844  1.1792 -0.0387 -1.5193
  936MOL0     H26334   0.484   2.209  12.926  0.2732 -3.5271  1.0720
  936MOL0     H26335   0.406   2.141  12.781 -2.2544 -1.8282 -0.2151
  936MOL0     H26336   0.299   2.097  13.056 -3.5846  0.2240 -0.7003
  936MOL0     H26337   0.225   2.026  12.912 -2.4875  1.8150  3.5397
  936MOL0     H26338   0.483   1.959  13.044  0.0843 -0.8093 -0.1512
  936MOL0     H26339   0.487   1.941  12.873 -0.9063  0.8586 -1.0863
  936MOL0     H26340   0.423   1.737  13.019 -0.5857 -0.2121 -1.2521
  936MOL0     H26341   0.293   1.785  12.899 -0.1198  0.4314 -1.0670
  936MOL0     H26342   0.258   2.896  12.444 -1.2276  2.3939 -2.4970
  936MOL0     H26343   0.276   2.953  12.205  2.3219 -0.5070 -0.9921
  936MOL0     H26344   0.091   2.908  11.831  0.0579  0.0391 -1.1054
  936MOL0     H26345   0.022   3.007  11.616  1.7753  2.9763 -0.3418
  936MOL0     H26346  -0.058   4.454  11.627 -2.5111  1.4473  0.1812
  936MOL0     H26347   0.135   4.620  11.631 -0.5394 -0.6493  0.9711
  936MOL0     H26348   0.394   4.852  11.570  0.8237  2.2921  1.5262
  936MOL0     H26349   0.624   4.965  11.590 -0.1080 -0.9746 -0.3435
  936MOL0     H26350   0.764   5.009  11.217 -0.2141  0.1615  1.3970
  936MOL0     H26351   0.802   5.176  11.233  2.4138  0.2390 -0.6870
  936MOL0     H26352   1.008   5.061  11.222 -3.9744  1.1657 -1.4750
  936MOL0     H26353   0.968   4.942  11.339  1.9154 -0.1167 -0.9891
  936MOL0     H26354   0.960   5.126  11.518 -1.1442 -2.6215  0.6356
  936MOL0     H26355   1.025   5.229  11.392  0.7124 -0.8439 -1.7202
  936MOL0     H26356   1.157   4.966  11.472  0.1033 -0.1899 -0.1063
  936MOL0     H26357   1.190   5.121  11.555 -3.0817  1.1691  0.0348
  936MOL0     H26358   1.378   5.126  11.172  0.4479 -1.2661  1.1855
  936MOL0     H26359   0.546   5.157  11.217  1.2957 -1.5861 -1.1486
  936MOL0     H26360   0.327   5.044  11.206 -1.6909  3.9547  2.5542
  937MOL0     O26361   2.015   4.508   7.363 -0.5138 -0.2121 -0.4180
  937MOL0     C26362   1.988   4.390   7.400  0.2775 -0.8245  0.5619
  937MOL0     O26363   1.930   4.296   7.330  0.3357  0.8406 -0.3452
  937MOL0     C26364   1.883   4.301   7.203 -0.0760 -0.2636  1.4260
  937MOL0     C26365   1.921   4.407   7.109 -0.2052  0.0579 -0.6003
  937MOL0     C26366   1.869   4.420   6.981 -0.5865 -0.3191 -0.9923
  937MOL0     C26367   1.781   4.329   6.934  0.5618  1.0782  0.1351
  937MOL0     O26368   1.744   4.309   6.804  0.2408 -0.1551  0.2618
  937MOL0     C26369   1.733   4.416   6.714 -0.2307  0.3808 -0.0055
  937MOL0     C26370   1.652   4.376   6.586  0.1701  0.3909 -0.3357
  937MOL0     C26371   1.720   4.261   6.508  0.5023 -0.0991 -0.3666
  937MOL0     C26372   1.665   4.223   6.365  0.6073  0.1410  1.1546
  937MOL0     C26373   1.769   4.156   6.288  0.2677  1.1484 -0.0704
  937MOL0     C26374   1.713   4.083   6.164  0.3289 -0.1940  1.4559
  937MOL0     C26375   1.817   3.975   6.115  0.7983 -0.7173 -0.3810
  937MOL0     C26376   1.957   4.038   6.100 -0.8757  0.2272 -0.3197
  937MOL0     N26377   1.961   4.120   5.975  0.3517 -0.0776 -0.1224
  937MOL0     C26378   1.941   4.261   5.956  0.2538 -0.2804  0.7082
  937MOL0     C26379   1.981   4.295   5.831 -0.3019 -0.7585  0.5535
  937MOL0     C26380   1.993   4.426   5.763 -0.4676  0.5450 -0.5393
  937MOL0     C26381   2.071   4.524   5.862 -0.1295  0.8968  0.1221
  937MOL0     C26382   2.116   4.648   5.771 -0.4777 -0.1069 -0.2125
  937MOL0     C26383   2.252   4.612   5.705 -0.3269 -0.7867  0.1297
  937MOL0     O26384   2.282   4.745   5.652  0.4652  0.1049  0.2983
  937MOL0     C26385   2.407   4.796   5.644 -0.0891  0.3063  1.4125
  937MOL0     C26386   2.400   4.926   5.619  0.3572  0.0033 -0.5058
  937MOL0     C26387   2.514   5.006   5.593 -0.0506 -0.6925  0.5274
  937MOL0     C26388   2.497   5.157   5.578  0.4885  0.7201 -0.6448
  937MOL0     C26389   2.645   4.947   5.606 -0.4815  0.1659  0.1587
  937MOL0     C26390   2.780   5.012   5.604  0.2093 -0.3847  0.1495
  937MOL0     O26391   2.882   4.924   5.628 -0.1995 -0.6648  0.4983
  937MOL0     C26392   3.011   4.959   5.600 -0.2942  0.3073  0.6074
  937MOL0     C26393   3.109   4.959   5.690  0.1258  0.6726 -0.4898
  937MOL0     C26394   3.240   4.999   5.669 -0.4014  0.1628 -0.2345
  937MOL0     C26395   3.289   5.025   5.540  1.6583 -0.0645  0.1884
  937MOL0     O26396   3.411   5.067   5.503 -0.1707  0.7166  0.5418
  937MOL0     C26397   3.421   5.190   5.428  0.5149 -0.2210 -0.4670
  937MOL0     C26398   3.558   5.254   5.453  0.0748  0.6661 -0.9552
  937MOL0     C26399   3.670   5.162   5.389  0.7734 -0.7300 -1.3308
  937MOL0     C26400   3.808   5.204   5.434  0.3284 -0.5182 -1.0522
  937MOL0     C26401   3.927   5.186   5.333  0.0398 -0.2887 -1.1663
  937MOL0     C26402   4.073   5.226   5.387  0.0561 -0.3004  0.5445
  937MOL0     C26403   4.081   5.384   5.420 -0.2400 -0.1754 -0.1238
  937MOL0     C26404   4.073   5.488   5.311  0.1887  0.0263 -0.2340
  937MOL0    Cl26405   4.202   5.479   5.201  0.2446  0.3878  0.0694
  937MOL0     C26406   3.191   5.015   5.437  0.1534 -0.1826 -0.4051
  937MOL0     C26407   3.057   4.989   5.463 -0.0933 -0.0874 -0.4018
  937MOL0     O26408   2.795   5.131   5.586  0.5088  0.0610  0.0689
  937MOL0     C26409   2.643   4.802   5.622  0.7088 -1.4654 -1.3098
  937MOL0     C26410   2.523   4.725   5.635 -0.5306  0.2395 -1.0248
  937MOL0     N26411   2.037   4.178   5.772 -0.1005 -0.6487  0.1318
  937MOL0     N26412   2.011   4.073   5.853 -1.0364 -0.7416  0.5345
  937MOL0     C26413   1.750   4.227   7.020  0.8340 -0.3662 -0.6963
  937MOL0     C26414   1.791   4.213   7.158 -0.6921  0.0510  0.3636
  937MOL0     C26415   2.051   4.360   7.531  0.5132  0.6767  0.2884
  937MOL0     C26416   2.138   4.445   7.598 -0.7131  0.6689  0.6073
  937MOL0     C26417   2.181   4.403   7.723 -0.4228  0.5219  0.6898
  937MOL0     C26418   2.166   4.277   7.780  1.4825 -0.8880  0.5365
  937MOL0     O26419   2.225   4.263   7.902 -0.0268 -0.0830 -0.1551
  937MOL0     C26420   2.239   4.127   7.955  0.5231 -0.0335  0.7250
  937MOL0     C26421   2.290   4.135   8.095 -0.2032 -1.1682 -0.8388
  937MOL0     C26422   2.325   3.999   8.155 -0.2216 -0.5335  0.3323
  937MOL0     C26423   2.379   4.002   8.306 -0.0438  0.4151 -0.2251
  937MOL0     C26424   2.276   4.047   8.397  0.4867  0.5044 -0.1752
  937MOL0     C26425   2.200   4.083   8.486 -0.5948  0.5973  0.0870
  937MOL0     C26426   2.081   4.194   7.713 -0.6531 -1.1800  0.0137
  937MOL0     C26427   2.025   4.237   7.592 -0.0242 -0.5986 -0.0859
  937MOL0     H26428   1.985   4.492   7.131 -0.0374  0.0611 -1.0995
  937MOL0     H26429   1.901   4.504   6.921  0.3074 -0.2691 -0.4582
  937MOL0     H26430   1.675   4.493   6.767 -0.4978  0.1112  0.0955
  937MOL0     H26431   1.829   4.460   6.686 -0.0860  0.0756  0.0198
  937MOL0     H26432   1.547   4.358   6.609  0.9131  1.0661  4.9304
  937MOL0     H26433   1.665   4.464   6.522  4.7480 -0.3546 -0.8166
  937MOL0     H26434   1.819   4.303   6.491  1.2144 -2.3828 -2.3616
  937MOL0     H26435   1.727   4.176   6.576  1.1685 -0.8993 -1.3994
  937MOL0     H26436   1.577   4.159   6.382  0.3716  0.3457  0.7424
  937MOL0     H26437   1.633   4.309   6.305 -0.7958 -1.6124 -0.7811
  937MOL0     H26438   1.840   4.233   6.257 -2.8953  3.9359 -0.9643
  937MOL0     H26439   1.816   4.076   6.347 -0.8775  1.6446  1.5719
  937MOL0     H26440   1.612   4.043   6.172 -0.9024  0.5510 -4.9251
  937MOL0     H26441   1.701   4.157   6.085  1.9529  1.9947  3.1358
  937MOL0     H26442   1.822   3.894   6.187 -4.7179 -1.6100 -0.5768
  937MOL0     H26443   1.771   3.935   6.024 -0.3120 -0.1232 -0.0978
  937MOL0     H26444   2.027   3.953   6.102  0.0370  0.8427 -2.4667
  937MOL0     H26445   1.989   4.088   6.191 -2.5003  0.8662 -0.0748
  937MOL0     H26446   1.897   4.329   6.028 -0.2258  0.8247 -0.5737
  937MOL0     H26447   2.052   4.412   5.672  2.7309 -2.2968  1.7094
  937MOL0     H26448   1.890   4.456   5.744 -0.4886  0.2249 -0.9220
  937MOL0     H26449   2.157   4.472   5.905 -0.9211 -0.1798  0.4628
  937MOL0     H26450   2.004   4.549   5.944 -0.0200  0.6151  0.2990
  937MOL0     H26451   2.135   4.728   5.842  0.1719 -3.6689  4.0623
  937MOL0     H26452   2.035   4.674   5.703  0.3350 -0.2955 -1.2807
  937MOL0     H26453   2.229   4.551   5.617  0.9844  2.0506 -2.3340
  937MOL0     H26454   2.329   4.569   5.769  1.4342 -0.6146 -1.7605
  937MOL0     H26455   2.304   4.978   5.623  0.7307  0.6174  1.9800
  937MOL0     H26456   2.400   5.195   5.611  0.2834 -0.0848 -0.2823
  937MOL0     H26457   2.562   5.211   5.648 -1.9427  0.1835  2.2391
  937MOL0     H26458   2.514   5.194   5.477 -2.6837  3.1803 -0.4404
  937MOL0     H26459   3.078   4.918   5.786 -2.3345  1.5888 -0.8092
  937MOL0     H26460   3.306   5.012   5.755 -3.4827  0.2668  2.2980
  937MOL0     H26461   3.410   5.182   5.320  2.4549  2.8757 -1.0231
  937MOL0     H26462   3.344   5.264   5.455  0.8925 -0.1895  0.5548
  937MOL0     H26463   3.552   5.350   5.402 -1.4488  0.4071 -1.3399
  937MOL0     H26464   3.580   5.264   5.559 -0.0319 -1.2261 -0.7168
  937MOL0     H26465   3.665   5.166   5.280 -0.6047 -5.3459 -1.6561
  937MOL0     H26466   3.660   5.057   5.417  2.0834 -1.9699 -4.8533
  937MOL0     H26467   3.804   5.310   5.459  1.0230 -0.6284 -0.4483
  937MOL0     H26468   3.829   5.151   5.527  1.1660  3.4029  1.1880
  937MOL0     H26469   3.899   5.250   5.249 -0.5129 -1.8379 -2.2125
  937MOL0     H26470   3.928   5.086   5.289 -1.8773 -1.2630  0.8148
  937MOL0     H26471   4.105   5.171   5.475  1.3471 -0.6121 -0.0927
  937MOL0     H26472   4.143   5.210   5.304 -2.1978  3.4442 -2.4456
  937MOL0     H26473   4.172   5.402   5.478 -0.4661  0.8688 -0.0886
  937MOL0     H26474   3.992   5.398   5.482 -1.1827 -3.3624 -0.5421
  937MOL0     H26475   4.059   5.587   5.356 -0.2285 -0.1203 -0.0408
  937MOL0     H26476   3.981   5.464   5.256  0.2097 -2.4566  0.6952
  937MOL0     H26477   3.220   5.034   5.334 -2.8132  0.3944 -1.2563
  937MOL0     H26478   2.979   4.988   5.389  0.2362 -0.9746 -0.7506
  937MOL0     H26479   2.736   4.747   5.616  1.0583 -1.1929  0.6682
  937MOL0     H26480   2.518   4.617   5.626  1.9675 -0.1084  0.8143
  937MOL0     H26481   1.678   4.155   6.982 -0.1910  0.9382 -1.3097
  937MOL0     H26482   1.746   4.136   7.219 -2.1941  1.4538  1.1191
  937MOL0     H26483   2.170   4.544   7.568  0.6527 -0.1823 -0.9071
  937MOL0     H26484   2.246   4.474   7.773 -0.4171  0.4170  0.8342
  937MOL0     H26485   2.143   4.074   7.949 -0.1785  1.0278  1.9642
  937MOL0     H26486   2.315   4.075   7.897 -1.5749 -2.2139 -0.2627
  937MOL0     H26487   2.199   4.159   8.150  0.8085 -1.3250  1.0066
  937MOL0     H26488   2.376   4.204   8.087 -1.7812  0.7996 -1.7712
  937MOL0     H26489   2.405   3.970   8.087 -1.3251  0.8710 -1.6857
  937MOL0     H26490   2.243   3.928   8.145 -1.6859  0.7115  2.6098
  937MOL0     H26491   2.470   4.061   8.302  1.1454 -1.2391  1.0419
  937MOL0     H26492   2.410   3.905   8.344  1.7652  1.1618  0.2954
  937MOL0     H26493   2.140   4.122   8.565  1.9533  2.8348  1.0640
  937MOL0     H26494   2.049   4.096   7.746  1.9709 -1.9365  0.5658
  937MOL0     H26495   1.939   4.187   7.547 -0.5138  0.8498 -0.8232
  938MOL0     O26496   0.496   2.545  10.805  0.3166 -0.2201  0.1423
  938MOL0     C26497   0.549   2.458  10.737 -0.3396  0.0796  0.2582
  938MOL0     O26498   0.683   2.420  10.753 -1.1864 -0.0503 -0.2416
  938MOL0     C26499   0.771   2.502  10.824  0.1277 -0.0069 -0.3248
  938MOL0     C26500   0.839   2.438  10.922  0.1525  0.4543  0.2227
  938MOL0     C26501   0.927   2.502  11.000 -0.4084  0.0717  0.2227
  938MOL0     C26502   0.939   2.644  10.995  0.2225  0.7362 -0.3465
  938MOL0     O26503   1.005   2.695  11.109  0.5489  0.0776  0.6893
  938MOL0     C26504   1.046   2.835  11.106  0.7301 -0.1735  0.0901
  938MOL0     C26505   1.132   2.870  11.230  0.0164  1.2223 -0.2456
  938MOL0     C26506   1.045   2.830  11.351 -0.4136  0.3675  0.0329
  938MOL0     C26507   1.120   2.900  11.472  0.3869 -0.2075  0.5502
  938MOL0     C26508   1.088   2.837  11.601  0.6491 -0.2268  0.5600
  938MOL0     C26509   1.126   2.686  11.608 -0.9173  0.4005  0.1633
  938MOL0     C26510   1.118   2.629  11.750 -0.0151 -0.3281  0.8668
  938MOL0     C26511   0.990   2.669  11.833 -0.5839 -0.4613 -0.1584
  938MOL0     N26512   0.991   2.605  11.956 -0.3199  0.7189 -0.3438
  938MOL0     C26513   1.014   2.677  12.075 -0.0898 -0.6694  0.2027
  938MOL0     C26514   1.003   2.585  12.166  0.1716  0.3643 -0.7170
  938MOL0     C26515   1.022   2.604  12.315  0.3224 -0.3885 -0.4592
  938MOL0     C26516   1.151   2.522  12.352  0.1844  0.4572 -0.2606
  938MOL0     C26517   1.177   2.498  12.499 -0.2390  0.2171  0.6325
  938MOL0     C26518   1.245   2.360  12.523  0.1791  0.5109  0.3830
  938MOL0     O26519   1.221   2.329  12.663 -0.2542  0.0339 -0.0159
  938MOL0     C26520   1.143   2.220  12.698  0.3028 -0.6399  1.0626
  938MOL0     C26521   1.183   2.096  12.687 -0.7862 -0.1746  0.7654
  938MOL0     C26522   1.099   1.984  12.706 -0.6342  0.4468 -0.7995
  938MOL0     C26523   1.172   1.848  12.696 -0.0356  0.3590  0.1289
  938MOL0     C26524   0.966   1.999  12.744  0.0639 -0.6047 -0.0919
  938MOL0     C26525   0.873   1.888  12.775  0.0283 -1.0647 -0.1841
  938MOL0     O26526   0.923   1.784  12.838 -0.6400  0.7110  0.4718
  938MOL0     C26527   0.845   1.688  12.912 -0.3351 -0.7075 -0.5879
  938MOL0     C26528   0.898   1.562  12.922 -0.2677  0.0519  0.1305
  938MOL0     C26529   0.829   1.475  13.001  0.4285 -0.4030 -0.3291
  938MOL0     C26530   0.727   1.506  13.083  0.1791 -0.9047  0.1240
  938MOL0     O26531   0.684   1.408  13.164 -0.4182  0.0315  0.2177
  938MOL0     C26532   0.571   1.411  13.243 -0.4791 -0.0213 -0.5305
  938MOL0     C26533   0.546   1.265  13.284 -0.2094  0.4339 -0.0600
  938MOL0     C26534   0.487   1.180  13.172 -0.7984  0.7205  0.6261
  938MOL0     C26535   0.470   1.030  13.198 -0.2041  0.2155  0.5072
  938MOL0     C26536   0.603   0.957  13.185 -0.9126  0.5339 -0.7720
  938MOL0     C26537   0.596   0.805  13.187 -0.1288 -0.3480 -0.2146
  938MOL0     C26538   0.580   0.750  13.044  0.6171 -1.0493 -1.5470
  938MOL0     C26539   0.632   0.612  13.029 -0.5851 -0.9163  0.0252
  938MOL0    Cl26540   0.812   0.619  13.053  0.1230  0.3616  0.7060
  938MOL0     C26541   0.682   1.637  13.077  0.2953 -0.3093 -0.9250
  938MOL0     C26542   0.733   1.729  12.987 -0.8536  0.7633 -0.1999
  938MOL0     O26543   0.756   1.904  12.743  0.5306  0.4696 -0.7666
  938MOL0     C26544   0.918   2.137  12.763  0.2909 -0.3085  0.6424
  938MOL0     C26545   1.009   2.237  12.741  0.4043 -0.7203  0.3337
  938MOL0     N26546   0.980   2.460  12.102  0.6875 -0.2759 -0.7766
  938MOL0     N26547   0.973   2.472  11.974  0.5559 -0.0806  0.2123
  938MOL0     C26548   0.873   2.714  10.893  0.3286  0.0888 -0.2130
  938MOL0     C26549   0.793   2.642  10.798 -1.0813 -0.1144  0.1421
  938MOL0     C26550   0.464   2.389  10.641 -0.0795 -0.0934  0.9872
  938MOL0     C26551   0.527   2.317  10.537 -0.8163  0.0239  0.7746
  938MOL0     C26552   0.447   2.247  10.436 -0.6754 -0.4427  1.4121
  938MOL0     C26553   0.307   2.274  10.428 -1.0798 -0.0260  0.3905
  938MOL0     O26554   0.236   2.211  10.329  0.4386 -0.6198 -0.3283
  938MOL0     C26555   0.136   2.297  10.277  0.2852  0.5946  0.2332
  938MOL0     C26556  -0.003   2.229  10.284 -0.3196  0.9780 -0.1086
  938MOL0     C26557  -0.109   2.339  10.231 -0.1990 -0.8662  0.1981
  938MOL0     C26558  -0.226   2.279  10.143 -0.3202 -0.3195 -0.8674
  938MOL0     C26559  -0.169   2.214  10.018 -0.5301 -0.5770  0.0563
  938MOL0     C26560  -0.130   2.173   9.915  0.2787 -0.0568  0.1570
  938MOL0     C26561   0.249   2.345  10.533  1.0587 -0.0237 -0.2877
  938MOL0     C26562   0.319   2.396  10.642  0.4986  0.5291  0.1746
  938MOL0     H26563   0.820   2.331  10.919 -1.5184  0.6797  1.4631
  938MOL0     H26564   0.978   2.455  11.083 -1.0543  1.5406  1.5304
  938MOL0     H26565   1.104   2.847  11.014  4.1068  0.6440  2.1663
  938MOL0     H26566   0.959   2.899  11.090 -2.7171 -4.5134 -0.4633
  938MOL0     H26567   1.221   2.806  11.237 -1.3237 -0.6345  0.6355
  938MOL0     H26568   1.145   2.978  11.237 -2.5416  1.5983 -0.4769
  938MOL0     H26569   0.945   2.872  11.341 -0.8455 -0.4310  0.8883
  938MOL0     H26570   1.031   2.722  11.358  1.2121  0.2140  1.6843
  938MOL0     H26571   1.229   2.899  11.459  0.5369  0.5696  1.6554
  938MOL0     H26572   1.089   3.004  11.491 -2.2940 -1.3835  3.5120
  938MOL0     H26573   1.140   2.892  11.680 -0.5126 -0.9416  1.8525
  938MOL0     H26574   0.981   2.856  11.615  0.1732 -2.9517  1.1553
  938MOL0     H26575   1.070   2.610  11.553  0.2526 -1.9737  2.0817
  938MOL0     H26576   1.233   2.672  11.594 -0.9950 -1.0303  0.7978
  938MOL0     H26577   1.132   2.521  11.756 -0.0235 -0.4390 -0.7576
  938MOL0     H26578   1.204   2.672  11.803 -2.8695  3.2313  3.1081
  938MOL0     H26579   0.898   2.632  11.786 -0.8800  1.5539 -1.2744
  938MOL0     H26580   0.976   2.777  11.841  0.0010 -0.2592 -1.5200
  938MOL0     H26581   1.049   2.779  12.083 -2.9721  0.5481 -1.0872
  938MOL0     H26582   1.036   2.710  12.338 -2.2671  1.0962 -4.6312
  938MOL0     H26583   0.928   2.571  12.359  0.5951  0.2370  0.6414
  938MOL0     H26584   1.227   2.587  12.310  2.4412 -0.9778  1.3358
  938MOL0     H26585   1.164   2.430  12.294 -1.4617  0.8875 -1.3675
  938MOL0     H26586   1.081   2.504  12.552 -0.5244 -0.2314  0.1799
  938MOL0     H26587   1.246   2.578  12.526 -1.1830  0.8203  1.3311
  938MOL0     H26588   1.348   2.369  12.490 -0.8260  1.2772 -2.9363
  938MOL0     H26589   1.206   2.273  12.469 -0.2179 -0.8686  2.7664
  938MOL0     H26590   1.284   2.075  12.654 -1.0653 -4.6107  2.0198
  938MOL0     H26591   1.114   1.770  12.645 -1.4621  0.3118  1.7169
  938MOL0     H26592   1.265   1.840  12.640 -1.1028 -1.4543 -1.4948
  938MOL0     H26593   1.194   1.802  12.793 -2.0107 -2.1077 -0.4697
  938MOL0     H26594   0.984   1.562  12.855 -1.8339  3.9082 -2.2224
  938MOL0     H26595   0.870   1.375  13.001 -4.3032 -2.6038 -0.4307
  938MOL0     H26596   0.592   1.484  13.322 -0.7271 -0.3335 -0.1732
  938MOL0     H26597   0.480   1.440  13.190 -1.9106 -1.9462  0.7279
  938MOL0     H26598   0.642   1.227  13.319 -1.3014 -0.6847  1.9460
  938MOL0     H26599   0.483   1.269  13.374  0.4111  1.0307  0.3559
  938MOL0     H26600   0.559   1.190  13.090  1.1312  2.5254  2.4134
  938MOL0     H26601   0.393   1.232  13.155 -0.5042  2.2369  3.1266
  938MOL0     H26602   0.424   1.016  13.297 -0.5291  0.7555  0.4343
  938MOL0     H26603   0.399   0.976  13.135 -1.2285  1.2577  0.7263
  938MOL0     H26604   0.644   0.978  13.285 -3.0516  1.1648  0.0355
  938MOL0     H26605   0.669   1.006  13.112 -0.3095  0.9387  0.0206
  938MOL0     H26606   0.681   0.757  13.236  0.5644  1.4492  0.4383
  938MOL0     H26607   0.511   0.782  13.253 -0.2317  0.6675  0.0261
  938MOL0     H26608   0.625   0.814  12.968 -0.2461  0.6981 -0.6332
  938MOL0     H26609   0.473   0.746  13.025  0.3604  0.8297 -0.6713
  938MOL0     H26610   0.610   0.580  12.926  3.8051 -1.8996 -0.8198
  938MOL0     H26611   0.578   0.544  13.095 -1.2061 -0.0593  0.4113
  938MOL0     H26612   0.602   1.667  13.144  2.4469 -0.3976  1.8785
  938MOL0     H26613   0.705   1.833  12.987  2.8459  1.9135  0.5169
  938MOL0     H26614   0.819   2.162  12.799 -0.9222 -1.1156 -1.8812
  938MOL0     H26615   0.977   2.340  12.753 -0.4038 -0.9552  0.2606
  938MOL0     H26616   0.874   2.822  10.883 -1.9444  0.1311 -0.6609
  938MOL0     H26617   0.746   2.686  10.710  0.9707  2.4252  0.1982
  938MOL0     H26618   0.632   2.290  10.524 -1.3738 -0.9855 -2.4380
  938MOL0     H26619   0.499   2.190  10.360 -0.3808 -0.6777  1.7907
  938MOL0     H26620   0.123   2.396  10.322 -1.6514  0.6469 -0.3663
  938MOL0     H26621   0.171   2.321  10.176 -2.5152  1.4056 -0.6155
  938MOL0     H26622  -0.038   2.201  10.383  1.1011  3.4517  1.1690
  938MOL0     H26623  -0.004   2.139  10.221 -0.6740  0.5454  0.5056
  938MOL0     H26624  -0.055   2.421  10.184  0.7746 -0.4229  1.9791
  938MOL0     H26625  -0.162   2.389  10.313  1.5100  1.2567  0.0877
  938MOL0     H26626  -0.289   2.364  10.113  1.5114  0.9340 -1.3480
  938MOL0     H26627  -0.295   2.213  10.196  0.5560 -0.8902 -0.4291
  938MOL0     H26628  -0.109   2.116   9.826 -3.5705 -2.2512  0.4094
  938MOL0     H26629   0.143   2.368  10.535  0.7884 -1.0015 -1.8488
  938MOL0     H26630   0.265   2.459  10.712 -0.1952 -1.4626  1.5348
  939MOL0     O26631   3.184  10.336   6.784 -0.8150  0.5020 -0.8125
  939MOL0     C26632   3.263  10.278   6.864 -1.2544 -0.0108  0.9115
  939MOL0     O26633   3.323  10.151   6.849 -0.2747  0.5655 -0.2526
  939MOL0     C26634   3.314  10.070   6.742 -0.4017  0.4255 -0.1271
  939MOL0     C26635   3.372   9.942   6.762 -0.5089  0.4725 -0.0914
  939MOL0     C26636   3.372   9.858   6.649 -0.6811 -0.1288 -0.4251
  939MOL0     C26637   3.330   9.897   6.520 -0.1306  0.8739  0.0052
  939MOL0     O26638   3.337   9.817   6.403 -0.2612  0.2674  0.7426
  939MOL0     C26639   3.462   9.744   6.386 -0.1263 -0.3829  0.3337
  939MOL0     C26640   3.431   9.667   6.257 -0.0829 -0.4477 -0.0527
  939MOL0     C26641   3.508   9.535   6.250 -0.4452 -0.6121  0.6057
  939MOL0     C26642   3.489   9.471   6.110  0.9372 -0.9975 -0.0665
  939MOL0     C26643   3.566   9.545   6.000 -0.1432  0.1991  0.1003
  939MOL0     C26644   3.559   9.493   5.868  0.1460 -0.3517  0.9134
  939MOL0     C26645   3.639   9.362   5.865 -0.2620  0.2226  0.5330
  939MOL0     C26646   3.629   9.300   5.729  0.5752  1.3509 -0.1375
  939MOL0     N26647   3.715   9.368   5.634 -0.1163 -0.9814 -0.6794
  939MOL0     C26648   3.854   9.359   5.632 -0.1479 -0.3049  0.2607
  939MOL0     C26649   3.892   9.455   5.542 -1.2909  0.6566  0.2348
  939MOL0     C26650   4.029   9.518   5.521  0.3395 -0.6431 -0.7856
  939MOL0     C26651   4.025   9.606   5.399  0.5171 -0.4944 -0.2219
  939MOL0     C26652   4.013   9.524   5.270  0.0353 -0.7112 -0.3006
  939MOL0     C26653   3.997   9.611   5.145  0.0902  0.0572 -0.6354
  939MOL0     O26654   4.023   9.526   5.034  0.2077  0.2498 -0.3027
  939MOL0     C26655   4.148   9.505   4.989 -0.8415 -0.6680  1.0266
  939MOL0     C26656   4.271   9.554   5.025 -0.6350  0.0007 -0.3088
  939MOL0     C26657   4.394   9.525   4.967  0.1834 -1.1388 -0.0099
  939MOL0     C26658   4.511   9.603   5.014 -0.2895 -0.0454  0.2566
  939MOL0     C26659   4.389   9.422   4.863  0.1254 -0.0488 -0.3221
  939MOL0     C26660   4.507   9.372   4.790 -0.1026 -0.2795 -0.3459
  939MOL0     O26661   4.531   9.237   4.788 -0.3996  0.1361 -0.1727
  939MOL0     C26662   4.585   9.185   4.669  0.2004 -0.3104  0.2097
  939MOL0     C26663   4.713   9.146   4.665  0.0668  0.3474 -1.0640
  939MOL0     C26664   4.764   9.077   4.556 -0.3026  0.1146  0.7577
  939MOL0     C26665   4.692   9.042   4.444  0.5538  1.5342 -0.0601
  939MOL0     O26666   4.720   8.973   4.326  0.0598 -0.2618  0.0018
  939MOL0     C26667   4.831   8.885   4.321 -0.4178  0.5237 -1.0750
  939MOL0     C26668   4.962   8.939   4.267  0.1804 -0.4161  0.0872
  939MOL0     C26669   5.084   8.843   4.295 -0.5973 -0.4845  0.3902
  939MOL0     C26670   5.131   8.855   4.430  0.1469  0.3159  0.0695
  939MOL0     C26671   5.283   8.843   4.447  0.0377 -0.0246 -0.8248
  939MOL0     C26672   5.322   8.697   4.441  0.0508  1.0536 -0.1569
  939MOL0     C26673   5.460   8.660   4.507  0.4020 -0.6838  0.3640
  939MOL0     C26674   5.467   8.509   4.511 -0.1234  0.4486 -0.9999
  939MOL0    Cl26675   5.367   8.475   4.657 -0.1230  0.2229  0.2413
  939MOL0     C26676   4.558   9.099   4.445  0.1180  0.0625  0.5625
  939MOL0     C26677   4.505   9.158   4.561 -0.0796  0.2900  0.8334
  939MOL0     O26678   4.590   9.454   4.749  0.0682 -0.3002  0.5167
  939MOL0     C26679   4.264   9.361   4.829 -1.0067 -0.1360 -0.1632
  939MOL0     C26680   4.150   9.413   4.885 -0.3456 -0.7165  0.3716
  939MOL0     N26681   3.771   9.502   5.486  0.1166  0.8530  1.0087
  939MOL0     N26682   3.664   9.436   5.532 -0.0262  0.2175 -0.5491
  939MOL0     C26683   3.267  10.014   6.505  0.0655  0.4154  0.2753
  939MOL0     C26684   3.282  10.105   6.613  0.6427 -1.0459 -0.3049
  939MOL0     C26685   3.290  10.354   6.992 -0.8966  0.1038  0.4339
  939MOL0     C26686   3.398  10.303   7.081 -0.3971 -0.6572  0.0190
  939MOL0     C26687   3.416  10.355   7.206 -0.5414 -0.3820  0.0963
  939MOL0     C26688   3.339  10.469   7.251 -0.3385  0.1288 -0.3652
  939MOL0     O26689   3.380  10.534   7.368  0.4795  0.6077  0.7062
  939MOL0     C26690   3.299  10.641   7.414 -0.2929  0.5319  0.6349
  939MOL0     C26691   3.337  10.693   7.550  0.0917  0.4173  0.0946
  939MOL0     C26692   3.314  10.608   7.666 -0.6093 -0.1468  0.2072
  939MOL0     C26693   3.400  10.646   7.793  0.0605 -0.5313  0.2393
  939MOL0     C26694   3.371  10.791   7.828 -0.5582  0.0959 -0.7665
  939MOL0     C26695   3.357  10.902   7.868 -0.5464 -0.5112 -0.0206
  939MOL0     C26696   3.245  10.517   7.158 -0.3597  0.4739 -0.2524
  939MOL0     C26697   3.209  10.466   7.035  0.0584  1.4456  0.0889
  939MOL0     H26698   3.406   9.902   6.857  0.3683 -0.9966 -0.9765
  939MOL0     H26699   3.406   9.756   6.665 -2.0391 -0.5382  0.0064
  939MOL0     H26700   3.540   9.814   6.356 -2.2739  1.2905 -1.7209
  939MOL0     H26701   3.499   9.683   6.469  4.0779  2.1448  0.5503
  939MOL0     H26702   3.324   9.648   6.250 -0.5098  1.7177  0.0815
  939MOL0     H26703   3.466   9.717   6.166  0.1318 -0.1985  0.1673
  939MOL0     H26704   3.610   9.547   6.288  0.0483 -0.0631 -0.8038
  939MOL0     H26705   3.447   9.461   6.303 -1.2380 -3.7136 -4.0110
  939MOL0     H26706   3.513   9.365   6.118 -1.7649 -1.6356  0.6796
  939MOL0     H26707   3.384   9.475   6.079  0.6256  1.1392  1.0889
  939MOL0     H26708   3.532   9.648   5.987 -0.2699 -0.1336 -3.2825
  939MOL0     H26709   3.668   9.547   6.039 -0.9142 -2.9591  2.7241
  939MOL0     H26710   3.455   9.482   5.836  0.0469 -0.7793  1.3590
  939MOL0     H26711   3.600   9.565   5.797 -1.0837  0.6437  1.1915
  939MOL0     H26712   3.744   9.361   5.897 -0.2104 -0.3831  0.3496
  939MOL0     H26713   3.593   9.285   5.928  1.2079 -1.3150 -0.1845
  939MOL0     H26714   3.522   9.294   5.710  0.0827 -1.1089  2.5680
  939MOL0     H26715   3.664   9.197   5.740 -0.4651  0.4781 -3.7626
  939MOL0     H26716   3.918   9.315   5.707  0.9243  2.2792  0.9332
  939MOL0     H26717   4.068   9.562   5.613  0.0435 -2.9668  0.5432
  939MOL0     H26718   4.101   9.440   5.493 -1.5756 -2.1111 -1.8695
  939MOL0     H26719   4.112   9.671   5.405 -0.8833  1.3241  3.2775
  939MOL0     H26720   3.937   9.668   5.417 -0.3926 -1.9453  0.5973
  939MOL0     H26721   3.924   9.461   5.267  0.8339 -1.8329 -2.6038
  939MOL0     H26722   4.100   9.461   5.251  0.6355  0.4342 -1.5343
  939MOL0     H26723   4.065   9.697   5.144  0.7232 -0.4204  0.0123
  939MOL0     H26724   3.894   9.645   5.137  0.5806  1.0854 -3.9333
  939MOL0     H26725   4.272   9.629   5.103 -0.7341 -2.2071  1.9673
  939MOL0     H26726   4.593   9.531   5.012 -1.1596 -1.0540 -0.7340
  939MOL0     H26727   4.535   9.687   4.947 -3.0283 -0.3970 -1.3297
  939MOL0     H26728   4.493   9.635   5.117 -0.7743 -1.7965  0.7508
  939MOL0     H26729   4.781   9.162   4.748  1.3824  2.5381 -2.4486
  939MOL0     H26730   4.872   9.069   4.545 -0.2670  0.4031  0.8783
  939MOL0     H26731   4.856   8.843   4.419 -1.2419 -1.1160 -1.5174
  939MOL0     H26732   4.799   8.802   4.257 -1.0980  0.7569 -1.0527
  939MOL0     H26733   4.958   8.948   4.158  0.7325 -0.1018  0.0848
  939MOL0     H26734   4.986   9.043   4.290  0.8384 -0.1453 -1.6185
  939MOL0     H26735   5.156   8.871   4.218  1.0547  0.3737  2.1668
  939MOL0     H26736   5.046   8.743   4.272 -0.9942 -0.5684  1.3736
  939MOL0     H26737   5.088   8.946   4.472 -0.0614  0.9018 -1.3732
  939MOL0     H26738   5.075   8.780   4.487  2.5940 -1.0282  0.8229
  939MOL0     H26739   5.318   8.874   4.546 -0.8796 -0.3136 -0.3954
  939MOL0     H26740   5.330   8.898   4.365  2.0283  0.7992  0.7895
  939MOL0     H26741   5.238   8.640   4.481 -2.5153  2.7177 -2.7029
  939MOL0     H26742   5.330   8.669   4.336  0.5392 -3.7011  0.9392
  939MOL0     H26743   5.471   8.710   4.603  0.7881  4.1616 -1.8797
  939MOL0     H26744   5.540   8.686   4.437  0.6789  0.0926  0.9567
  939MOL0     H26745   5.567   8.476   4.539  0.1854 -1.1367 -3.6657
  939MOL0     H26746   5.426   8.462   4.421 -3.1249  0.9027 -0.0062
  939MOL0     H26747   4.500   9.073   4.357  0.1461  2.3355 -0.1752
  939MOL0     H26748   4.400   9.182   4.577 -0.8172 -3.6824  3.3411
  939MOL0     H26749   4.267   9.291   4.746 -0.7942  1.1040 -1.2337
  939MOL0     H26750   4.055   9.381   4.845 -1.3110  1.1904  0.9993
  939MOL0     H26751   3.240  10.035   6.403 -3.4559 -0.9902  0.7786
  939MOL0     H26752   3.239  10.202   6.590  0.2965 -1.4496 -1.4625
  939MOL0     H26753   3.444  10.206   7.067 -0.0021 -0.7809  1.8594
  939MOL0     H26754   3.496  10.302   7.256 -0.0638 -0.2343 -0.4969
  939MOL0     H26755   3.302  10.728   7.347  1.1105 -1.1931 -1.7098
  939MOL0     H26756   3.197  10.603   7.414  0.1762 -1.1022  4.1377
  939MOL0     H26757   3.281  10.787   7.555 -0.4101  0.1740 -0.6946
  939MOL0     H26758   3.440  10.730   7.548  0.2806  0.3218  3.1840
  939MOL0     H26759   3.326  10.506   7.628 -2.4441  1.0465 -4.1826
  939MOL0     H26760   3.213  10.638   7.696  1.0097  4.7902  1.7090
  939MOL0     H26761   3.506  10.654   7.768  0.2019  0.9698  1.2209
  939MOL0     H26762   3.366  10.572   7.867 -0.9189 -2.0224 -1.5992
  939MOL0     H26763   3.348  11.002   7.905  0.8734  0.2889 -1.6915
  939MOL0     H26764   3.202  10.615   7.175 -1.2546  0.6511 -3.0084
  939MOL0     H26765   3.125  10.506   6.978 -1.5631 -2.0960 -0.2851
  940MOL0     O26766   8.797  10.239   8.701  0.0793  0.0036  0.4683
  940MOL0     C26767   8.789  10.133   8.646 -0.5077  0.0536  0.0051
  940MOL0     O26768   8.900  10.077   8.581  0.3446  0.1674  0.6984
  940MOL0     C26769   9.022  10.068   8.632 -0.7512  0.8286  0.2929
  940MOL0     C26770   9.129  10.051   8.548 -0.0033 -0.1118 -0.6094
  940MOL0     C26771   9.259  10.015   8.599 -0.2900  0.2299  0.5446
  940MOL0     C26772   9.285  10.005   8.734 -0.6368 -0.5491 -0.6473
  940MOL0     O26773   9.405   9.988   8.792 -0.3394  0.4769  0.3113
  940MOL0     C26774   9.527  10.040   8.727 -0.7015 -0.7507  0.4388
  940MOL0     C26775   9.641  10.057   8.831 -0.2316 -0.1189 -0.6447
  940MOL0     C26776   9.763  10.136   8.782 -0.6896 -0.6563  0.1445
  940MOL0     C26777   9.853  10.154   8.898  0.8541  0.3098  0.4000
  940MOL0     C26778   9.998  10.203   8.874  0.4866 -0.6516 -0.7679
  940MOL0     C26779  10.102  10.139   8.781  0.3962 -0.1785 -0.3449
  940MOL0     C26780  10.170  10.246   8.696  0.0184  0.2569  0.6155
  940MOL0     C26781  10.267  10.183   8.596  0.0058 -0.7134  0.4627
  940MOL0     N26782  10.197  10.148   8.473  1.4147 -0.6020  0.0018
  940MOL0     C26783  10.140  10.027   8.447 -0.8424  0.3899 -0.1831
  940MOL0     C26784  10.061  10.046   8.343 -0.1487  0.0290 -0.6749
  940MOL0     C26785   9.951   9.949   8.301  0.4076  0.2497  0.5321
  940MOL0     C26786  10.002   9.871   8.183  0.7511  0.3733 -0.1303
  940MOL0     C26787  10.108   9.763   8.224 -0.7786  0.1881 -0.2268
  940MOL0     C26788  10.111   9.659   8.108  0.1440 -0.2839  0.0227
  940MOL0     O26789  10.170   9.548   8.178  0.1875 -0.1793 -0.4068
  940MOL0     C26790  10.210   9.424   8.120  1.1624  0.3327  0.1031
  940MOL0     C26791  10.209   9.401   7.988  0.3958  0.9150  0.7772
  940MOL0     C26792  10.258   9.283   7.929  0.4609 -0.9617 -0.9183
  940MOL0     C26793  10.243   9.286   7.779  0.0446  0.2206 -0.7777
  940MOL0     C26794  10.314   9.189   8.017  0.2731 -0.2116 -0.7550
  940MOL0     C26795  10.363   9.063   7.961  0.7454  0.6635  0.1099
  940MOL0     O26796  10.358   9.045   7.832 -0.0716 -0.2181  0.5200
  940MOL0     C26797  10.428   8.950   7.772  1.0681 -0.4798  0.4042
  940MOL0     C26798  10.388   8.815   7.780 -0.3617 -1.4145  0.0702
  940MOL0     C26799  10.465   8.710   7.720 -0.2079  0.3528  0.2586
  940MOL0     C26800  10.580   8.739   7.648  0.2280 -0.1917 -0.3702
  940MOL0     O26801  10.671   8.651   7.597  0.0665  0.8394  0.5719
  940MOL0     C26802  10.615   8.573   7.484 -0.2363 -0.0160 -0.3044
  940MOL0     C26803  10.688   8.454   7.438 -0.0773  0.4072  0.3465
  940MOL0     C26804  10.714   8.347   7.539 -0.2480  0.3282  0.4540
  940MOL0     C26805  10.597   8.317   7.642 -0.3100  0.6038  0.2962
  940MOL0     C26806  10.598   8.167   7.670  1.6422  0.9914 -0.1324
  940MOL0     C26807  10.478   8.099   7.733  0.2431 -0.5424  0.5548
  940MOL0     C26808  10.497   8.062   7.881  1.8107  0.7936  0.5803
  940MOL0     C26809  10.367   8.015   7.942 -0.3795 -0.4052 -0.9084
  940MOL0    Cl26810  10.372   7.923   8.096 -0.4167 -0.1902  0.0925
  940MOL0     C26811  10.601   8.879   7.633 -0.7233 -0.3374  0.1278
  940MOL0     C26812  10.521   8.983   7.685  0.0780 -0.2292 -0.5590
  940MOL0     O26813  10.425   8.996   8.041 -0.2605 -0.1904  0.1824
  940MOL0     C26814  10.316   9.213   8.158 -0.8045 -0.3500  0.1060
  940MOL0     C26815  10.262   9.331   8.202 -0.1754 -0.0989  0.4029
  940MOL0     N26816  10.091  10.169   8.295 -0.0932 -0.6004  0.4431
  940MOL0     N26817  10.174  10.227   8.371  0.3894  0.8091  0.0663
  940MOL0     C26818   9.180  10.025   8.820  0.9466 -0.0132  0.7931
  940MOL0     C26819   9.046  10.050   8.774  0.5056 -0.6027  0.7219
  940MOL0     C26820   8.683  10.047   8.678 -0.6389 -0.4425 -0.6969
  940MOL0     C26821   8.695   9.910   8.674  0.2176  0.3539 -0.0860
  940MOL0     C26822   8.575   9.833   8.673 -0.3028  1.2919 -0.4928
  940MOL0     C26823   8.445   9.881   8.707  0.8745  1.0696  0.6224
  940MOL0     O26824   8.335   9.798   8.705 -0.1373  1.0189 -0.1744
  940MOL0     C26825   8.214   9.824   8.778  0.0757 -0.4591 -0.2036
  940MOL0     C26826   8.102   9.705   8.774 -0.0179 -0.1946  0.5362
  940MOL0     C26827   8.000   9.736   8.659 -0.3349  0.8094  0.3168
  940MOL0     C26828   8.075   9.728   8.524 -0.5396 -0.6560 -0.3810
  940MOL0     C26829   7.996   9.691   8.406 -0.2931 -1.7010  0.4471
  940MOL0     C26830   7.933   9.644   8.313  0.1895 -0.2574  0.4314
  940MOL0     C26831   8.441  10.015   8.725 -0.0995  0.1965 -1.2393
  940MOL0     C26832   8.554  10.095   8.721 -0.2456 -0.4155 -0.0994
  940MOL0     H26833   9.108  10.064   8.443 -1.7042  2.2277 -0.0554
  940MOL0     H26834   9.345  10.001   8.534 -0.6951  2.6336 -0.6473
  940MOL0     H26835   9.558   9.969   8.651 -2.1628 -2.0879  1.0386
  940MOL0     H26836   9.513  10.137   8.677  1.5575 -0.6564 -0.1619
  940MOL0     H26837   9.607  10.116   8.917  2.2305  2.8199 -1.5306
  940MOL0     H26838   9.664   9.959   8.874 -0.6907 -0.3852 -1.0004
  940MOL0     H26839   9.809  10.080   8.701 -2.4206  1.5938 -2.6014
  940MOL0     H26840   9.743  10.241   8.755  1.2702  0.1433  1.5528
  940MOL0     H26841   9.813  10.236   8.960 -0.0373  1.4805 -1.6189
  940MOL0     H26842   9.854  10.063   8.959  0.2505  1.1636  1.7501
  940MOL0     H26843   9.980  10.307   8.845 -0.4098 -1.0051 -1.5403
  940MOL0     H26844  10.047  10.218   8.970  1.3090  0.0746 -1.2901
  940MOL0     H26845  10.178  10.091   8.843  0.5683  0.2288 -0.2400
  940MOL0     H26846  10.067  10.060   8.713  0.8320  1.0191 -2.0417
  940MOL0     H26847  10.092  10.295   8.637 -0.8629 -1.2387  0.4742
  940MOL0     H26848  10.216  10.306   8.774 -1.8912 -0.5222  2.4547
  940MOL0     H26849  10.322  10.098   8.637  1.1539  1.9663  5.1941
  940MOL0     H26850  10.345  10.258   8.576 -0.3079  0.4011  3.0070
  940MOL0     H26851  10.130   9.937   8.508 -0.7641  0.0972 -0.5996
  940MOL0     H26852   9.896   9.894   8.378 -3.6619  1.5340 -1.1653
  940MOL0     H26853   9.870  10.011   8.259  2.2355  1.2219 -1.8213
  940MOL0     H26854  10.048   9.933   8.105  0.6481 -0.9033 -1.2381
  940MOL0     H26855   9.911   9.839   8.132  0.9904  0.1329 -0.4090
  940MOL0     H26856  10.088   9.715   8.321  1.6335 -0.0723  0.2170
  940MOL0     H26857  10.207   9.807   8.241 -0.1372 -1.2005 -0.2288
  940MOL0     H26858  10.174   9.703   8.030 -1.2434  1.4819 -0.1703
  940MOL0     H26859  10.012   9.629   8.072 -0.0601  1.0853 -0.6399
  940MOL0     H26860  10.156   9.472   7.925  0.3974  0.4792  0.2805
  940MOL0     H26861  10.151   9.231   7.758 -0.4869  0.8963 -0.2721
  940MOL0     H26862  10.235   9.389   7.743 -1.3707 -0.5488 -2.8230
  940MOL0     H26863  10.330   9.246   7.727  1.9465  2.0484  0.7941
  940MOL0     H26864  10.300   8.786   7.836 -0.9650 -1.6653 -0.9903
  940MOL0     H26865  10.429   8.607   7.726  1.1385 -0.2571 -1.3370
  940MOL0     H26866  10.515   8.544   7.516  1.2624 -1.2296  4.0022
  940MOL0     H26867  10.606   8.639   7.398  2.0553 -0.5175 -1.0083
  940MOL0     H26868  10.626   8.400   7.366  0.7103  1.2747 -1.0159
  940MOL0     H26869  10.779   8.492   7.390  0.4367 -2.0918 -0.8411
  940MOL0     H26870  10.804   8.371   7.597  2.2734 -2.5919 -1.8884
  940MOL0     H26871  10.743   8.254   7.488 -0.8416 -0.0094  0.7179
  940MOL0     H26872  10.616   8.380   7.729 -1.2435  0.4505  0.6220
  940MOL0     H26873  10.499   8.344   7.602  0.6565 -1.2102 -3.7502
  940MOL0     H26874  10.677   8.136   7.740 -1.3638 -2.3574  2.1850
  940MOL0     H26875  10.617   8.116   7.575  0.5612  0.0964  0.1057
  940MOL0     H26876  10.395   8.170   7.730  2.6713  2.5113  0.7100
  940MOL0     H26877  10.455   8.008   7.677  0.1655 -0.6656  0.7840
  940MOL0     H26878  10.549   8.139   7.939  1.3906 -0.4561  2.6983
  940MOL0     H26879  10.561   7.973   7.886 -0.6852 -1.0173  2.5188
  940MOL0     H26880  10.321   7.947   7.869  1.6269 -2.2832 -0.5217
  940MOL0     H26881  10.304   8.102   7.960  1.7135  0.7522  1.6340
  940MOL0     H26882  10.682   8.916   7.569 -0.8510  0.7637  0.5775
  940MOL0     H26883  10.533   9.090   7.679 -3.1186  0.1576 -1.4441
  940MOL0     H26884  10.356   9.147   8.235  0.0078 -0.0425 -0.0541
  940MOL0     H26885  10.266   9.363   8.305 -1.4098  0.2034  0.3729
  940MOL0     H26886   9.190   9.995   8.924 -1.5080  0.5463  1.2543
  940MOL0     H26887   8.960  10.055   8.840 -0.8862  2.7459 -1.1178
  940MOL0     H26888   8.786   9.851   8.662  1.7126  1.8860  2.6558
  940MOL0     H26889   8.579   9.725   8.673 -0.4375  1.2688 -1.9893
  940MOL0     H26890   8.239   9.848   8.882 -0.1517 -0.6597 -0.1012
  940MOL0     H26891   8.165   9.918   8.752  1.4028  0.1939 -0.4214
  940MOL0     H26892   8.051   9.703   8.870  0.5849 -1.1951  0.8604
  940MOL0     H26893   8.160   9.613   8.756  3.1459  1.3832  1.8161
  940MOL0     H26894   7.953   9.834   8.669 -2.8061 -0.4667  2.5836
  940MOL0     H26895   7.911   9.673   8.669 -0.5016  1.1062  0.8035
  940MOL0     H26896   8.160   9.659   8.524 -1.1947 -1.6594 -3.8122
  940MOL0     H26897   8.114   9.828   8.500  0.9074 -1.8555 -3.6536
  940MOL0     H26898   7.864   9.601   8.244 -1.1566  2.1976  0.1402
  940MOL0     H26899   8.347  10.068   8.735 -1.0299 -1.5084 -0.4622
  940MOL0     H26900   8.529  10.201   8.721  0.6963 -0.1854  0.0019
  941MOL0     O26901   2.316  11.462   4.452 -0.1026  0.2596 -0.3611
  941MOL0     C26902   2.309  11.421   4.341 -0.0825  0.1179  1.1441
  941MOL0     O26903   2.373  11.468   4.233 -0.6197  0.0287  0.1939
  941MOL0     C26904   2.459  11.571   4.245 -1.1326  0.6520 -0.7698
  941MOL0     C26905   2.596  11.548   4.230 -0.2287 -0.3101  0.4869
  941MOL0     C26906   2.693  11.642   4.259 -0.7613 -0.9678 -0.3563
  941MOL0     C26907   2.653  11.762   4.312 -0.1159  0.0511  0.0215
  941MOL0     O26908   2.748  11.846   4.355 -0.4395 -0.2491 -0.3714
  941MOL0     C26909   2.731  11.914   4.482  0.3498 -0.4666 -0.4608
  941MOL0     C26910   2.844  12.006   4.504 -0.0884  0.5321 -0.9023
  941MOL0     C26911   2.799  12.150   4.476 -0.2245  0.1335  0.0800
  941MOL0     C26912   2.903  12.228   4.553 -0.0751  0.6210 -0.7079
  941MOL0     C26913   2.879  12.378   4.558  0.0233 -0.5500  1.0085
  941MOL0     C26914   2.981  12.465   4.645 -0.5963  0.8926  0.0752
  941MOL0     C26915   2.974  12.613   4.608  0.1139 -0.0061  0.6786
  941MOL0     C26916   3.061  12.683   4.707  0.2987 -0.1235  0.2596
  941MOL0     N26917   3.190  12.631   4.720  0.0671  0.0706 -0.4124
  941MOL0     C26918   3.235  12.550   4.824 -0.2973 -0.2589 -0.0370
  941MOL0     C26919   3.370  12.539   4.803 -0.1569  0.5412  0.0906
  941MOL0     C26920   3.467  12.465   4.893 -1.5832 -0.3001  0.1359
  941MOL0     C26921   3.401  12.351   4.976  0.4303  0.4161  0.1214
  941MOL0     C26922   3.506  12.284   5.061 -0.6076  0.1598 -0.9249
  941MOL0     C26923   3.446  12.178   5.157 -0.5457 -0.8008 -0.1023
  941MOL0     O26924   3.392  12.234   5.276 -0.0797 -0.5740 -0.4525
  941MOL0     C26925   3.486  12.275   5.378  0.6816  1.0162  0.1816
  941MOL0     C26926   3.438  12.344   5.487  1.1904 -0.1125  0.2287
  941MOL0     C26927   3.523  12.416   5.575 -0.0143  0.7531 -0.0435
  941MOL0     C26928   3.444  12.484   5.688  1.1682 -1.5427  0.9368
  941MOL0     C26929   3.659  12.431   5.549 -0.6433  0.1867  0.2554
  941MOL0     C26930   3.735  12.532   5.605  0.4940 -0.4757  0.4075
  941MOL0     O26931   3.846  12.572   5.544  0.7984  0.3122 -0.1561
  941MOL0     C26932   3.945  12.627   5.618 -0.2954 -0.1018 -0.8075
  941MOL0     C26933   3.951  12.764   5.641  0.9159 -0.6728 -0.2469
  941MOL0     C26934   4.036  12.817   5.738 -0.5253 -0.0863  0.5670
  941MOL0     C26935   4.143  12.734   5.792 -0.3088 -0.4627 -0.8607
  941MOL0     O26936   4.248  12.776   5.873 -0.1093 -0.0528 -0.1287
  941MOL0     C26937   4.265  12.917   5.899 -1.9226  0.3668 -0.5112
  941MOL0     C26938   4.380  12.940   6.003 -0.7257  0.0575  0.9421
  941MOL0     C26939   4.344  12.890   6.144  0.3668  0.3875 -0.8673
  941MOL0     C26940   4.435  12.948   6.254  0.8857  0.0462 -0.3483
  941MOL0     C26941   4.414  12.874   6.395  0.8346 -1.1523 -0.7580
  941MOL0     C26942   4.449  12.737   6.417  0.6273  0.4784 -0.7261
  941MOL0     C26943   4.516  12.694   6.543 -0.1935 -0.2630 -0.4176
  941MOL0     C26944   4.423  12.725   6.664 -0.6739  0.6086  0.8863
  941MOL0    Cl26945   4.255  12.696   6.635 -0.3836  0.0707 -0.3290
  941MOL0     C26946   4.147  12.602   5.759  0.2979  0.4779  0.2355
  941MOL0     C26947   4.039  12.547   5.682 -0.3407 -0.3053  0.0556
  941MOL0     O26948   3.698  12.575   5.717 -0.2374  0.3046  0.4550
  941MOL0     C26949   3.715  12.350   5.448  0.3521 -0.8838  0.1376
  941MOL0     C26950   3.630  12.269   5.367 -0.1341 -0.5137 -0.7317
  941MOL0     N26951   3.401  12.611   4.687 -0.0420  0.4959 -0.7265
  941MOL0     N26952   3.300  12.674   4.644  0.2466 -0.3836  0.3709
  941MOL0     C26953   2.512  11.788   4.329 -0.4218  0.1124 -0.2407
  941MOL0     C26954   2.418  11.694   4.286 -0.9514  0.2994  0.6837
  941MOL0     C26955   2.220  11.306   4.303  0.1007  1.2061  0.5175
  941MOL0     C26956   2.135  11.250   4.404  0.0101 -0.3907 -0.2751
  941MOL0     C26957   2.050  11.142   4.376 -0.2192  0.2812  0.5087
  941MOL0     C26958   2.054  11.086   4.244  0.3747  1.3725 -0.2148
  941MOL0     O26959   1.974  10.982   4.205 -0.4288 -0.3180 -0.0158
  941MOL0     C26960   1.882  10.912   4.290 -1.3893  0.2912  0.5709
  941MOL0     C26961   1.750  10.984   4.314  0.5910  0.1550 -0.5200
  941MOL0     C26962   1.680  11.023   4.182 -0.5969  0.4405  0.1122
  941MOL0     C26963   1.563  10.924   4.154  0.0596 -0.4376  0.5911
  941MOL0     C26964   1.519  10.938   4.009 -0.4227 -0.5981 -1.3218
  941MOL0     C26965   1.486  10.958   3.895  0.7421  0.9315  0.1656
  941MOL0     C26966   2.132  11.146   4.153  0.7508  0.0827  0.4770
  941MOL0     C26967   2.206  11.251   4.177 -0.3108 -0.6069  0.3926
  941MOL0     H26968   2.631  11.449   4.204 -2.6418 -1.2830  0.7310
  941MOL0     H26969   2.798  11.616   4.251 -0.5005  0.2959 -1.6473
  941MOL0     H26970   2.638  11.971   4.488 -0.1684 -1.4620  2.4893
  941MOL0     H26971   2.742  11.839   4.561  1.9586  0.4481  0.2367
  941MOL0     H26972   2.855  11.989   4.612  1.6653  0.1266 -1.1175
  941MOL0     H26973   2.937  11.971   4.459 -0.4132 -0.5005 -0.8117
  941MOL0     H26974   2.808  12.183   4.372 -0.2948  0.8693  0.2992
  941MOL0     H26975   2.699  12.170   4.515  0.7024 -0.4509  3.0059
  941MOL0     H26976   2.899  12.191   4.656  0.4817 -1.0733 -1.2639
  941MOL0     H26977   3.005  12.207   4.518 -1.2924 -2.9339 -2.5685
  941MOL0     H26978   2.869  12.422   4.458 -1.4865 -1.9006  0.5105
  941MOL0     H26979   2.776  12.398   4.589 -0.8870  0.4246 -2.2186
  941MOL0     H26980   2.966  12.434   4.749  0.1928 -2.8083 -0.7620
  941MOL0     H26981   3.079  12.439   4.603 -1.1182  0.1554 -0.7258
  941MOL0     H26982   3.005  12.630   4.505 -0.8855 -1.3694  0.1161
  941MOL0     H26983   2.873  12.654   4.624  0.1815  0.0931  0.8560
  941MOL0     H26984   3.008  12.681   4.803 -0.5602  0.5433 -0.1841
  941MOL0     H26985   3.070  12.787   4.674  1.2241  0.8888  3.3388
  941MOL0     H26986   3.176  12.523   4.911 -3.0163  1.5597 -1.1835
  941MOL0     H26987   3.554  12.432   4.837 -0.9910 -0.4942  1.1392
  941MOL0     H26988   3.511  12.533   4.967  3.2471 -1.8355 -0.9872
  941MOL0     H26989   3.360  12.284   4.900  1.7844 -0.9351  0.5407
  941MOL0     H26990   3.324  12.386   5.046  3.0013 -0.0855  3.4463
  941MOL0     H26991   3.575  12.353   5.111 -0.3386 -2.3442  2.4782
  941MOL0     H26992   3.568  12.232   4.987 -0.9419 -2.8655  0.7711
  941MOL0     H26993   3.530  12.114   5.187  0.0277  1.2114  3.1479
  941MOL0     H26994   3.368  12.125   5.101 -0.8473 -0.9571  0.4524
  941MOL0     H26995   3.331  12.345   5.506  0.9447 -1.6070 -0.8485
  941MOL0     H26996   3.478  12.463   5.790  0.5722 -0.7499  1.3072
  941MOL0     H26997   3.449  12.592   5.672  0.7584 -1.1733  3.0016
  941MOL0     H26998   3.339  12.453   5.681  0.9529 -1.8998  4.1893
  941MOL0     H26999   3.885  12.837   5.596  2.3439  0.1593 -1.1023
  941MOL0     H27000   4.044  12.923   5.757 -0.7555  0.3098 -1.3165
  941MOL0     H27001   4.288  12.988   5.819  2.0867  0.7979  0.8325
  941MOL0     H27002   4.169  12.945   5.944 -1.5007 -3.5919  3.6131
  941MOL0     H27003   4.473  12.891   5.972  0.6856  3.9617 -1.7733
  941MOL0     H27004   4.398  13.048   6.003 -0.1613 -0.0325  1.2738
  941MOL0     H27005   4.355  12.781   6.135  2.3056  0.4276  0.5403
  941MOL0     H27006   4.242  12.910   6.179  0.3686  0.6517 -1.0106
  941MOL0     H27007   4.540  12.943   6.224  1.4710  0.2651  1.5007
  941MOL0     H27008   4.406  13.053   6.264 -0.6386 -0.0794 -2.8023
  941MOL0     H27009   4.309  12.888   6.423  1.2057  0.8623 -0.2197
  941MOL0     H27010   4.469  12.937   6.466 -1.4247  1.6211 -1.2870
  941MOL0     H27011   4.353  12.684   6.410  0.3184  0.6133  1.6306
  941MOL0     H27012   4.505  12.704   6.329  0.9993  1.9074 -1.0498
  941MOL0     H27013   4.608  12.751   6.556  0.5332 -1.4741 -0.0727
  941MOL0     H27014   4.532  12.586   6.543 -0.0401 -0.2558 -1.6363
  941MOL0     H27015   4.433  12.831   6.689  3.2199  0.9487 -1.3537
  941MOL0     H27016   4.458  12.654   6.740  0.4666 -0.9104 -0.9598
  941MOL0     H27017   4.231  12.538   5.786  1.3334  0.7015 -2.1637
  941MOL0     H27018   4.045  12.441   5.659  1.0063 -0.2318 -0.0222
  941MOL0     H27019   3.822  12.353   5.427  0.3490  3.2745 -0.1353
  941MOL0     H27020   3.681  12.211   5.291 -2.0489 -3.7874  0.2998
  941MOL0     H27021   2.483  11.887   4.364  1.0727  0.3634  0.3446
  941MOL0     H27022   2.312  11.713   4.302 -1.2259 -0.0267 -0.6304
  941MOL0     H27023   2.139  11.290   4.505  0.2649 -0.1008 -0.3994
  941MOL0     H27024   1.996  11.084   4.451  1.0713 -2.5698 -0.6306
  941MOL0     H27025   1.866  10.818   4.238 -1.4483  2.0789 -2.9467
  941MOL0     H27026   1.939  10.896   4.382  0.0206  2.0496  0.0783
  941MOL0     H27027   1.776  11.077   4.365  2.6648  0.3476 -1.8111
  941MOL0     H27028   1.687  10.932   4.386  2.3032  0.1376  1.0607
  941MOL0     H27029   1.754  11.018   4.101 -0.0057 -3.6827  0.7082
  941MOL0     H27030   1.648  11.128   4.189  2.0717  1.4917 -1.7950
  941MOL0     H27031   1.483  10.935   4.227  2.8327 -0.3431  3.8631
  941MOL0     H27032   1.599  10.822   4.165 -3.4156 -2.3735 -3.3573
  941MOL0     H27033   1.462  10.984   3.793  0.1036  0.5865  0.2216
  941MOL0     H27034   2.120  11.099   4.055  3.5493  0.1182  0.0292
  941MOL0     H27035   2.277  11.282   4.101  1.7863 -2.0228  1.6513
  942MOL0     O27036   6.304   5.180   7.773  0.3495  0.3412  0.9181
  942MOL0     C27037   6.221   5.243   7.708  0.7875 -0.2148 -0.0855
  942MOL0     O27038   6.123   5.190   7.627  0.0168 -1.1971 -0.1090
  942MOL0     C27039   6.145   5.063   7.579 -0.4385 -0.2424 -0.0092
  942MOL0     C27040   6.078   4.950   7.626 -0.5238  0.5451  0.5079
  942MOL0     C27041   6.101   4.824   7.565  0.8556 -0.1373  0.1772
  942MOL0     C27042   6.198   4.814   7.468  0.2865 -0.5288  0.3289
  942MOL0     O27043   6.209   4.683   7.417 -0.8560  0.1651  0.1861
  942MOL0     C27044   6.353   4.661   7.394  0.3920 -0.4308  0.6251
  942MOL0     C27045   6.378   4.515   7.395  0.7595  0.0840  0.5261
  942MOL0     C27046   6.514   4.471   7.354 -0.4176  0.2450  0.7099
  942MOL0     C27047   6.610   4.504   7.466 -0.0699  0.7190 -0.6229
  942MOL0     C27048   6.754   4.499   7.416  1.1932 -0.3336 -0.4928
  942MOL0     C27049   6.787   4.373   7.337 -0.8772 -0.9631 -0.5468
  942MOL0     C27050   6.940   4.387   7.312  0.1355  0.3419  0.3908
  942MOL0     C27051   6.986   4.277   7.211 -0.4913  0.3885  0.4190
  942MOL0     N27052   7.129   4.302   7.162 -0.1323 -0.5277 -0.0354
  942MOL0     C27053   7.179   4.410   7.097  0.9714  0.4180 -1.1629
  942MOL0     C27054   7.308   4.395   7.069 -0.3495 -0.1782 -0.0861
  942MOL0     C27055   7.396   4.501   7.005 -0.0642  0.7735 -0.3053
  942MOL0     C27056   7.375   4.518   6.848  0.4358  0.1378 -0.5582
  942MOL0     C27057   7.360   4.388   6.771 -0.3636  0.3665 -0.6916
  942MOL0     C27058   7.474   4.282   6.778 -0.1104  0.1382  0.4244
  942MOL0     O27059   7.459   4.171   6.697 -0.7376  0.3791  0.5181
  942MOL0     C27060   7.549   4.069   6.699  0.4735  0.6227 -0.8985
  942MOL0     C27061   7.692   4.092   6.693 -0.1049  0.0506  0.4933
  942MOL0     C27062   7.775   3.988   6.729  0.1686  0.2828 -0.0315
  942MOL0     C27063   7.931   4.016   6.726  0.4359  0.3234 -0.6134
  942MOL0     C27064   7.726   3.859   6.772 -0.5915  0.8020 -0.3547
  942MOL0     C27065   7.804   3.741   6.807  0.1402  0.7280  0.0598
  942MOL0     O27066   7.741   3.617   6.789 -0.6289  0.3189 -0.2017
  942MOL0     C27067   7.774   3.514   6.876  0.1223 -0.6389 -0.0414
  942MOL0     C27068   7.670   3.470   6.956  0.1082 -0.0932  0.2697
  942MOL0     C27069   7.671   3.345   7.032 -0.3414 -0.4977 -0.6987
  942MOL0     C27070   7.795   3.284   7.042 -1.2919 -1.4533  0.7622
  942MOL0     O27071   7.831   3.180   7.121  0.2680  0.3740 -0.7659
  942MOL0     C27072   7.748   3.140   7.231 -0.3199  0.1664  0.0077
  942MOL0     C27073   7.834   3.056   7.331  0.2442  0.7924  0.1559
  942MOL0     C27074   7.903   2.925   7.269  0.0204 -0.8848 -0.7455
  942MOL0     C27075   7.943   2.827   7.376 -0.2341  0.0567  0.3483
  942MOL0     C27076   8.081   2.757   7.328  0.8709 -0.4798  0.1717
  942MOL0     C27077   8.083   2.679   7.193  1.0579  0.4100 -0.6488
  942MOL0     C27078   8.000   2.551   7.201 -0.6409  0.1917  0.9771
  942MOL0     C27079   7.960   2.498   7.056 -0.1337  0.6128  0.2427
  942MOL0    Cl27080   7.862   2.620   6.956 -0.1371  0.0851  0.2042
  942MOL0     C27081   7.905   3.338   6.967 -0.3668  0.1756 -0.0003
  942MOL0     C27082   7.901   3.448   6.884  0.0752  0.0057 -0.3050
  942MOL0     O27083   7.925   3.755   6.827 -0.0936  0.6937 -0.1213
  942MOL0     C27084   7.592   3.839   6.767  0.1746  0.5814 -0.2356
  942MOL0     C27085   7.501   3.945   6.742  0.3121  0.1647 -0.2825
  942MOL0     N27086   7.336   4.259   7.104 -0.6918 -0.0744  0.2106
  942MOL0     N27087   7.234   4.215   7.177 -1.2554 -0.4165 -0.1378
  942MOL0     C27088   6.263   4.931   7.419  0.5700  0.0937 -0.2544
  942MOL0     C27089   6.235   5.050   7.474 -0.2393 -0.0928  0.5963
  942MOL0     C27090   6.230   5.387   7.717 -0.0521 -0.0134 -0.2050
  942MOL0     C27091   6.222   5.456   7.594 -0.1538  0.5258 -0.8819
  942MOL0     C27092   6.230   5.602   7.597  0.5250  0.4815 -0.9285
  942MOL0     C27093   6.250   5.671   7.715 -0.1896 -0.7507 -0.2625
  942MOL0     O27094   6.244   5.814   7.713 -0.6536  0.0163  0.3816
  942MOL0     C27095   6.381   5.875   7.728 -0.1917  0.6977  0.0789
  942MOL0     C27096   6.422   5.946   7.597 -0.8148 -0.5117  0.4312
  942MOL0     C27097   6.518   5.865   7.514 -0.4910  0.3136  0.0672
  942MOL0     C27098   6.623   5.955   7.443  0.0414  0.4270 -0.5613
  942MOL0     C27099   6.549   6.033   7.342 -0.3578 -0.0571 -0.4394
  942MOL0     C27100   6.501   6.109   7.262 -0.5104  0.7708  0.7230
  942MOL0     C27101   6.257   5.601   7.832 -0.3806 -0.0032 -0.6584
  942MOL0     C27102   6.263   5.463   7.834 -0.3605  0.1930 -0.3699
  942MOL0     H27103   6.019   4.971   7.715  2.1167 -1.6326  2.9328
  942MOL0     H27104   6.039   4.744   7.605 -3.3206  2.3434 -0.7539
  942MOL0     H27105   6.368   4.713   7.299 -1.6104  2.5063  1.7264
  942MOL0     H27106   6.427   4.713   7.455  1.7888  0.8610 -1.9959
  942MOL0     H27107   6.350   4.473   7.492 -1.7045 -1.8883 -0.9176
  942MOL0     H27108   6.303   4.462   7.336  0.9377 -0.1040  0.4666
  942MOL0     H27109   6.514   4.364   7.329 -0.7062  0.6247 -1.0380
  942MOL0     H27110   6.541   4.517   7.258 -1.0599 -1.7252 -0.4780
  942MOL0     H27111   6.587   4.604   7.503 -2.4308  0.9533 -2.4477
  942MOL0     H27112   6.582   4.436   7.547 -1.3037  0.6671 -1.0819
  942MOL0     H27113   6.765   4.586   7.351 -1.8696  0.5855  0.0469
  942MOL0     H27114   6.826   4.501   7.499  0.1704 -0.2398  0.4190
  942MOL0     H27115   6.768   4.284   7.396 -0.3787 -2.1187 -2.0665
  942MOL0     H27116   6.730   4.379   7.244 -1.7670  1.0558  0.0603
  942MOL0     H27117   6.951   4.483   7.262 -4.3656  0.2140 -1.3331
  942MOL0     H27118   7.002   4.389   7.402  1.3874  2.6045 -0.4312
  942MOL0     H27119   6.919   4.262   7.125  1.5001  1.5684 -1.4431
  942MOL0     H27120   6.982   4.176   7.254 -1.8800  0.0712 -0.3887
  942MOL0     H27121   7.119   4.494   7.062 -1.2761  0.0383  1.4128
  942MOL0     H27122   7.363   4.597   7.046  3.0684  0.3501  3.9319
  942MOL0     H27123   7.499   4.479   7.036 -0.7647 -2.7939 -0.0490
  942MOL0     H27124   7.462   4.576   6.813  1.6533 -0.0418  1.9903
  942MOL0     H27125   7.286   4.582   6.838  0.9979  1.4523  2.0710
  942MOL0     H27126   7.356   4.407   6.663 -1.0039 -0.4420 -0.8209
  942MOL0     H27127   7.269   4.332   6.795  0.1043 -1.5061 -2.8674
  942MOL0     H27128   7.469   4.234   6.876  0.1002 -0.9334 -0.0803
  942MOL0     H27129   7.576   4.320   6.769  0.8061 -1.7032  2.3425
  942MOL0     H27130   7.732   4.191   6.673  0.7455 -0.4650 -0.3998
  942MOL0     H27131   7.966   4.016   6.829 -1.9502  1.0386  0.2591
  942MOL0     H27132   7.995   3.942   6.677  1.8119 -2.2630  4.3994
  942MOL0     H27133   7.946   4.115   6.682  0.7731  0.4931 -0.1231
  942MOL0     H27134   7.566   3.501   6.946 -1.0385 -3.0694  1.6924
  942MOL0     H27135   7.583   3.315   7.088  1.5120  2.9851  4.8269
  942MOL0     H27136   7.712   3.234   7.273 -2.3540 -0.9412  0.9118
  942MOL0     H27137   7.673   3.075   7.184 -0.4218  0.4604 -0.2403
  942MOL0     H27138   7.910   3.120   7.376  2.0458 -0.2206 -1.2993
  942MOL0     H27139   7.754   3.030   7.401  0.9772  0.2190  0.8052
  942MOL0     H27140   7.989   2.962   7.212  1.3614 -1.5139  0.7947
  942MOL0     H27141   7.829   2.886   7.199 -0.2770  3.5368 -3.2917
  942MOL0     H27142   7.949   2.877   7.473 -1.4723  1.1266 -0.1098
  942MOL0     H27143   7.883   2.738   7.395 -0.6739  0.7404  2.4497
  942MOL0     H27144   8.110   2.681   7.402 -1.5729 -1.8703 -0.1942
  942MOL0     H27145   8.153   2.838   7.317 -1.1834  1.1643 -1.9787
  942MOL0     H27146   8.056   2.753   7.118  3.7179  0.3395 -1.7826
  942MOL0     H27147   8.183   2.641   7.171  1.8459  1.3844  1.1365
  942MOL0     H27148   7.903   2.555   7.250 -0.3760 -1.1670  1.6612
  942MOL0     H27149   8.061   2.479   7.256  2.3590  0.7387 -1.3308
  942MOL0     H27150   7.910   2.401   7.070  2.8524 -1.0798  0.0090
  942MOL0     H27151   8.056   2.490   7.004 -0.5567 -1.7768 -0.3287
  942MOL0     H27152   7.996   3.280   6.970 -0.9154 -0.6851  2.4218
  942MOL0     H27153   7.988   3.493   6.838  0.3358 -0.2217 -0.0388
  942MOL0     H27154   7.546   3.744   6.793  1.9772  0.7801  4.7212
  942MOL0     H27155   7.397   3.916   6.747 -0.3289  2.3961  4.0907
  942MOL0     H27156   6.339   4.927   7.341  2.0083 -0.0898  1.1086
  942MOL0     H27157   6.279   5.143   7.438  2.8669 -1.8599 -0.5734
  942MOL0     H27158   6.197   5.410   7.499 -0.9569 -3.2404  0.9707
  942MOL0     H27159   6.219   5.661   7.507 -2.3879 -0.0313 -1.0013
  942MOL0     H27160   6.365   5.941   7.815 -3.8939 -1.7383  1.4797
  942MOL0     H27161   6.453   5.802   7.763 -0.0074 -0.1005 -1.8508
  942MOL0     H27162   6.488   6.028   7.629 -1.3023 -0.3343  1.0111
  942MOL0     H27163   6.336   5.983   7.541  0.0123  1.5720  0.4272
  942MOL0     H27164   6.449   5.837   7.434 -0.6946  3.4445 -0.9765
  942MOL0     H27165   6.572   5.787   7.569  3.0608  2.3464 -0.2627
  942MOL0     H27166   6.700   5.902   7.386  2.0770  1.9435  0.6505
  942MOL0     H27167   6.678   6.009   7.520 -0.6545 -0.9625  0.9833
  942MOL0     H27168   6.455   6.181   7.198  0.6470  3.2666  2.5444
  942MOL0     H27169   6.293   5.662   7.914  0.7305  0.3409 -1.3733
  942MOL0     H27170   6.276   5.415   7.931  1.3076 -0.9607 -1.1279
  943MOL0     O27171   3.636   9.423  11.290  0.5393  0.5041 -0.4873
  943MOL0     C27172   3.696   9.519  11.242  0.6152 -0.9722  0.2112
  943MOL0     O27173   3.759   9.517  11.122 -0.3005  0.1381  0.0023
  943MOL0     C27174   3.809   9.396  11.081 -0.7520 -1.0406  0.9916
  943MOL0     C27175   3.802   9.366  10.945 -0.5717  0.9525  0.1488
  943MOL0     C27176   3.843   9.237  10.895  0.5987 -0.3702  0.4267
  943MOL0     C27177   3.889   9.135  10.982  0.4305  0.7972 -0.3271
  943MOL0     O27178   3.917   9.007  10.936  0.4367 -0.1612 -0.8807
  943MOL0     C27179   3.898   8.900  11.030  0.7375  0.2654  0.0429
  943MOL0     C27180   3.861   8.763  10.979 -0.0839 -0.0966 -0.8375
  943MOL0     C27181   3.834   8.690  11.113 -0.2952 -0.8706 -0.0034
  943MOL0     C27182   3.807   8.541  11.085  0.3174  0.8967 -0.6125
  943MOL0     C27183   3.778   8.483  11.227  0.8881 -0.4744 -0.0316
  943MOL0     C27184   3.750   8.331  11.206 -0.0667  0.5479 -0.5408
  943MOL0     C27185   3.698   8.274  11.342 -0.1836 -0.0231  0.4385
  943MOL0     C27186   3.716   8.122  11.331 -0.4854  0.6183 -0.8703
  943MOL0     N27187   3.695   8.063  11.470 -0.8036 -0.5044  0.0653
  943MOL0     C27188   3.576   8.044  11.523 -0.0150  0.1438  0.0527
  943MOL0     C27189   3.602   7.999  11.640 -0.6802  0.4543 -0.5459
  943MOL0     C27190   3.512   7.924  11.750 -0.5318  0.1200  0.6702
  943MOL0     C27191   3.363   7.916  11.709  0.3357 -0.6003  0.2645
  943MOL0     C27192   3.269   7.865  11.813 -0.1111 -0.1370 -0.7344
  943MOL0     C27193   3.131   7.861  11.767 -0.1036 -0.0993  0.4798
  943MOL0     O27194   3.064   7.761  11.850  0.7491  0.1639  0.2253
  943MOL0     C27195   2.933   7.714  11.822 -0.5140 -0.4143 -1.0937
  943MOL0     C27196   2.873   7.613  11.900  0.0168  0.7095  0.1303
  943MOL0     C27197   2.740   7.578  11.886 -0.8398 -0.2854 -0.2216
  943MOL0     C27198   2.689   7.480  11.986 -0.0668 -0.2746  0.3291
  943MOL0     C27199   2.667   7.645  11.786  0.1689 -0.1990 -0.5361
  943MOL0     C27200   2.527   7.611  11.764 -0.3036  0.2649  0.2682
  943MOL0     O27201   2.457   7.711  11.707 -0.0943  0.0038  0.5613
  943MOL0     C27202   2.323   7.692  11.678  0.7680 -0.3301 -0.0987
  943MOL0     C27203   2.243   7.706  11.789  0.5742 -1.1302  0.4290
  943MOL0     C27204   2.111   7.703  11.775 -0.1589  0.7169  0.4565
  943MOL0     C27205   2.048   7.683  11.650 -0.9582  1.0181 -0.3085
  943MOL0     O27206   1.911   7.690  11.633  0.4918  0.3402  0.4576
  943MOL0     C27207   1.837   7.570  11.667 -0.2105  0.3938 -0.6786
  943MOL0     C27208   1.867   7.463  11.568  0.0257  1.0456  0.4011
  943MOL0     C27209   1.976   7.367  11.621  0.3828  0.5944 -0.6848
  943MOL0     C27210   2.006   7.232  11.546  1.0598  0.1355 -0.2090
  943MOL0     C27211   2.074   7.147  11.649 -0.0816  0.6712  0.5610
  943MOL0     C27212   2.199   7.214  11.720  0.3939 -0.2793  0.8235
  943MOL0     C27213   2.306   7.115  11.762 -0.1029  1.0877  0.0533
  943MOL0     C27214   2.430   7.185  11.820  0.4194  0.0022  0.7027
  943MOL0    Cl27215   2.546   7.063  11.880  0.0476 -0.1585  0.2681
  943MOL0     C27216   2.139   7.669  11.534  0.7711  0.4771  0.5438
  943MOL0     C27217   2.276   7.673  11.545 -0.0476  1.1365 -0.5678
  943MOL0     O27218   2.476   7.508  11.808 -0.2981  0.2928 -0.3681
  943MOL0     C27219   2.731   7.741  11.703  0.0807 -0.0145  0.1775
  943MOL0     C27220   2.852   7.776  11.721  0.3995  0.1744  0.5619
  943MOL0     N27221   3.738   8.013  11.665  0.1031  0.5373  0.4349
  943MOL0     N27222   3.799   8.027  11.549  0.8587 -0.1290 -0.0565
  943MOL0     C27223   3.913   9.181  11.114 -0.3762 -0.0969  0.2394
  943MOL0     C27224   3.870   9.308  11.162 -0.5942 -0.0185  0.6688
  943MOL0     C27225   3.698   9.660  11.300 -0.1962  0.1373 -0.3535
  943MOL0     C27226   3.656   9.680  11.434  0.2808  0.6269 -0.8275
  943MOL0     C27227   3.659   9.811  11.490  0.8939  1.0234  0.1215
  943MOL0     C27228   3.708   9.921  11.419 -0.2716 -0.1561 -0.9566
  943MOL0     O27229   3.702  10.045  11.481  0.2019 -0.9041 -0.2064
  943MOL0     C27230   3.755  10.163  11.403  0.4452  0.1185  0.4554
  943MOL0     C27231   3.904  10.156  11.400  0.5607 -0.1976 -0.4440
  943MOL0     C27232   3.956  10.212  11.532 -0.6490 -0.4002  0.8782
  943MOL0     C27233   4.116  10.227  11.528 -0.6216  0.5518  0.4274
  943MOL0     C27234   4.162  10.317  11.422  0.1080  0.3276  0.3372
  943MOL0     C27235   4.196  10.385  11.325 -0.4469  0.4133 -0.2970
  943MOL0     C27236   3.753   9.901  11.293  0.1119 -0.2024  0.4387
  943MOL0     C27237   3.741   9.775  11.230 -0.0722 -0.0062 -0.5236
  943MOL0     H27238   3.749   9.430  10.875  0.6502  1.1635 -0.6050
  943MOL0     H27239   3.826   9.215  10.790 -0.3434 -1.6844  0.8236
  943MOL0     H27240   3.987   8.896  11.093  2.1933  2.5643 -1.6792
  943MOL0     H27241   3.820   8.933  11.100 -1.6863 -2.0708 -1.3731
  943MOL0     H27242   3.771   8.778  10.919 -2.1040 -1.1651  1.7272
  943MOL0     H27243   3.945   8.730  10.917  0.9240  1.1270 -0.1734
  943MOL0     H27244   3.921   8.686  11.180 -0.5483 -2.0303  0.2793
  943MOL0     H27245   3.749   8.734  11.166  0.7217 -1.1742  1.9915
  943MOL0     H27246   3.727   8.544  11.010  1.0394 -1.2875 -1.5589
  943MOL0     H27247   3.882   8.486  11.028 -1.2822 -0.9344 -1.0572
  943MOL0     H27248   3.861   8.503  11.295  2.8882 -2.2817 -1.7705
  943MOL0     H27249   3.688   8.525  11.272  2.6632  2.8583  0.7393
  943MOL0     H27250   3.677   8.316  11.126 -0.5865  1.2987 -0.2176
  943MOL0     H27251   3.849   8.284  11.195  0.9524  2.0251  1.5427
  943MOL0     H27252   3.762   8.319  11.419  1.0675 -0.3664 -0.3787
  943MOL0     H27253   3.595   8.308  11.356 -0.0093  1.6701 -1.9153
  943MOL0     H27254   3.817   8.090  11.306 -1.6695 -3.1996 -1.4130
  943MOL0     H27255   3.648   8.067  11.266 -0.2917 -2.5114  1.3518
  943MOL0     H27256   3.492   8.046  11.455 -0.2361 -1.5311  0.2461
  943MOL0     H27257   3.538   7.818  11.757 -2.7972 -0.5882 -0.5327
  943MOL0     H27258   3.522   7.954  11.855 -1.2888  3.7153 -0.1559
  943MOL0     H27259   3.356   7.838  11.632  1.8634 -0.0908 -0.4549
  943MOL0     H27260   3.327   8.014  11.676 -0.8482 -0.1446  2.7113
  943MOL0     H27261   3.262   7.937  11.896 -1.2567  0.1667 -1.0816
  943MOL0     H27262   3.317   7.772  11.843  4.9332  2.3412  0.0725
  943MOL0     H27263   3.126   7.838  11.660  3.1066 -0.2961  0.2634
  943MOL0     H27264   3.083   7.959  11.774 -1.5664 -0.8087  0.6823
  943MOL0     H27265   2.924   7.570  11.985  1.4488  1.6908 -0.1962
  943MOL0     H27266   2.690   7.377  11.949  2.5334  0.0164 -0.6630
  943MOL0     H27267   2.747   7.484  12.078 -1.0895  2.2562  0.9521
  943MOL0     H27268   2.587   7.509  12.010  0.8557 -0.4630  5.6639
  943MOL0     H27269   2.287   7.713  11.888  0.1413 -0.0164  0.5619
  943MOL0     H27270   2.044   7.727  11.857 -1.5339 -0.2745 -0.3308
  943MOL0     H27271   1.859   7.531  11.767  2.0010  1.2637 -0.7652
  943MOL0     H27272   1.731   7.598  11.666 -1.1938 -2.8894 -0.8821
  943MOL0     H27273   1.779   7.400  11.554  0.6583  0.5877 -1.9617
  943MOL0     H27274   1.900   7.511  11.476  0.7752  0.4148  0.3328
  943MOL0     H27275   1.948   7.346  11.724 -2.9560  2.1306 -1.1400
  943MOL0     H27276   2.059   7.439  11.626 -1.2679  2.6787 -1.4606
  943MOL0     H27277   1.917   7.175  11.518  0.9104  0.8581 -1.2801
  943MOL0     H27278   2.070   7.251  11.460 -2.7857  0.3906 -3.2921
  943MOL0     H27279   2.117   7.062  11.593  1.7871  0.5803  2.0188
  943MOL0     H27280   2.004   7.096  11.715  1.5818 -0.0927  1.8119
  943MOL0     H27281   2.249   7.277  11.645  0.5583  0.7346  1.7618
  943MOL0     H27282   2.176   7.278  11.806 -1.5924 -1.1095  0.9449
  943MOL0     H27283   2.347   7.061  11.676 -0.9419  0.5706 -0.0391
  943MOL0     H27284   2.265   7.039  11.830  0.7000  2.5359  2.2617
  943MOL0     H27285   2.400   7.244  11.907  0.7381  0.1367  0.7225
  943MOL0     H27286   2.478   7.248  11.745  1.9445  1.5716  2.8639
  943MOL0     H27287   2.093   7.658  11.436  2.4489 -1.9456 -0.0598
  943MOL0     H27288   2.340   7.670  11.458  0.8128  1.1589  0.0598
  943MOL0     H27289   2.679   7.792  11.622 -2.0539 -2.6029 -0.2735
  943MOL0     H27290   2.896   7.858  11.667 -2.9219  1.0832 -1.0106
  943MOL0     H27291   3.964   9.119  11.187  4.4490  4.4472  1.3474
  943MOL0     H27292   3.878   9.333  11.267 -1.0058  2.3742  0.1702
  943MOL0     H27293   3.615   9.602  11.498  0.7156  0.0013 -1.3089
  943MOL0     H27294   3.614   9.833  11.586  1.7907  1.8778  0.3673
  943MOL0     H27295   3.725  10.157  11.298 -5.5817  0.9544  1.7643
  943MOL0     H27296   3.718  10.254  11.450 -0.8174  0.4923 -1.1743
  943MOL0     H27297   3.931  10.216  11.313  2.5781  1.7979  1.4316
  943MOL0     H27298   3.944  10.055  11.384 -0.8731 -0.9764  0.6342
  943MOL0     H27299   3.934  10.161  11.627 -3.9409  4.8819  3.4382
  943MOL0     H27300   3.918  10.312  11.556  2.1255  1.3953 -1.6228
  943MOL0     H27301   4.170  10.133  11.520  1.4598  1.7026  0.0309
  943MOL0     H27302   4.143  10.269  11.626 -1.1985  2.4077 -0.1556
  943MOL0     H27303   4.227  10.447  11.243 -2.3180  3.1560  0.8942
  943MOL0     H27304   3.785   9.981  11.227 -1.9749 -1.8227 -2.7820
  943MOL0     H27305   3.782   9.771  11.130 -0.3799  4.1430 -1.0017
  944MOL0     O27306   3.203   7.259   6.533  0.0602  0.1824 -0.4664
  944MOL0     C27307   3.164   7.307   6.432 -0.5980  0.7678  0.0131
  944MOL0     O27308   3.170   7.244   6.313  0.1857  0.0224  0.2579
  944MOL0     C27309   3.206   7.111   6.328  0.3078 -0.4740  0.2394
  944MOL0     C27310   3.314   7.051   6.267 -0.8533  0.0867  0.3914
  944MOL0     C27311   3.348   6.919   6.281  0.3437  0.2150  0.4621
  944MOL0     C27312   3.259   6.833   6.359 -1.0355 -0.6198 -0.8149
  944MOL0     O27313   3.301   6.698   6.375  0.5302  0.3902 -0.2455
  944MOL0     C27314   3.201   6.617   6.424 -0.4297  0.3279  0.1339
  944MOL0     C27315   3.259   6.479   6.425 -0.4287 -0.8868  0.0827
  944MOL0     C27316   3.134   6.377   6.431 -0.2810  0.5603  0.0994
  944MOL0     C27317   3.201   6.237   6.448 -0.7571  0.3292 -0.2918
  944MOL0     C27318   3.254   6.183   6.311 -0.3712  0.2468 -0.1381
  944MOL0     C27319   3.364   6.084   6.342  0.3736  0.0214  0.0864
  944MOL0     C27320   3.483   6.109   6.250  0.2437  0.1805 -0.1271
  944MOL0     C27321   3.589   6.008   6.257 -1.0013 -0.2751 -0.0479
  944MOL0     N27322   3.678   6.005   6.133 -0.6658  0.2184  0.0923
  944MOL0     C27323   3.644   6.036   6.004 -0.3540  0.0267 -0.3415
  944MOL0     C27324   3.759   6.018   5.939  0.0758 -0.7130 -1.1937
  944MOL0     C27325   3.782   6.050   5.798 -0.2574  0.0645  0.2422
  944MOL0     C27326   3.784   5.926   5.702  0.3870 -0.1263  0.4908
  944MOL0     C27327   3.927   5.854   5.722  0.0249  0.6114  0.5595
  944MOL0     C27328   3.983   5.791   5.597 -0.7296 -0.4816  0.7326
  944MOL0     O27329   3.899   5.688   5.541 -0.5368  1.2103  0.1103
  944MOL0     C27330   3.811   5.713   5.445  0.1945 -0.3842 -0.4264
  944MOL0     C27331   3.813   5.795   5.340 -0.5097  0.1132  0.2668
  944MOL0     C27332   3.708   5.803   5.243  0.5891 -0.1859  0.2326
  944MOL0     C27333   3.752   5.894   5.124 -0.1020  1.1846  0.0177
  944MOL0     C27334   3.587   5.736   5.255  0.9989 -0.6135  0.9898
  944MOL0     C27335   3.471   5.761   5.174 -0.6889  0.3687 -0.7946
  944MOL0     O27336   3.469   5.882   5.105  0.3478  0.2565 -0.4160
  944MOL0     C27337   3.369   5.900   5.010 -0.2388  0.8797 -1.0513
  944MOL0     C27338   3.429   5.947   4.892  0.8718  1.0488 -0.2903
  944MOL0     C27339   3.343   5.983   4.785  1.7080  1.1891  0.4654
  944MOL0     C27340   3.205   5.940   4.782 -0.8693  0.2261  0.1275
  944MOL0     O27341   3.122   5.977   4.676 -0.4501  0.4089  0.3699
  944MOL0     C27342   3.154   6.072   4.580 -0.8726  0.1035 -0.2961
  944MOL0     C27343   3.034   6.100   4.481  0.7059  0.0951 -0.3000
  944MOL0     C27344   2.909   6.166   4.547  0.1765 -0.0767  0.1127
  944MOL0     C27345   2.804   6.217   4.438 -0.6774 -0.0071 -0.3021
  944MOL0     C27346   2.840   6.358   4.384 -0.0962  0.3503 -0.6779
  944MOL0     C27347   2.758   6.402   4.258  1.0698  1.1128 -0.5538
  944MOL0     C27348   2.755   6.301   4.139  0.8142 -0.2899 -0.6600
  944MOL0     C27349   2.793   6.374   4.011 -0.2253 -0.3201 -0.9383
  944MOL0    Cl27350   2.963   6.447   4.014 -0.0939  0.0125  0.4936
  944MOL0     C27351   3.153   5.894   4.900 -0.2474  0.9197  0.5964
  944MOL0     C27352   3.236   5.854   5.012  0.3156  0.2837  0.5907
  944MOL0     O27353   3.387   5.673   5.171  0.6817 -0.2008  0.0790
  944MOL0     C27354   3.582   5.665   5.370  0.3061 -0.0278  0.2938
  944MOL0     C27355   3.692   5.637   5.456 -1.2569  0.4760  0.2870
  944MOL0     N27356   3.860   5.993   6.033  0.1329  1.0600 -0.4941
  944MOL0     N27357   3.811   5.973   6.151 -0.2545 -0.0804  0.3739
  944MOL0     C27358   3.139   6.887   6.399  0.5770  0.2199  0.1876
  944MOL0     C27359   3.116   7.022   6.391  0.7509  0.2859  0.1416
  944MOL0     C27360   3.109   7.441   6.430  0.2050 -0.8519  0.5444
  944MOL0     C27361   3.082   7.508   6.546  0.8084 -0.5575 -0.6079
  944MOL0     C27362   3.024   7.642   6.549 -0.1995 -1.1539  0.1373
  944MOL0     C27363   3.015   7.708   6.427 -0.0822  0.3339 -0.3468
  944MOL0     O27364   2.977   7.839   6.430  0.5640  0.1624  0.1398
  944MOL0     C27365   3.090   7.925   6.425 -0.1211 -1.0002 -0.3252
  944MOL0     C27366   3.172   7.949   6.554 -0.4650 -0.9266  0.1006
  944MOL0     C27367   3.073   8.014   6.662  0.4611  0.2323 -0.9777
  944MOL0     C27368   3.157   8.064   6.783  0.7847 -0.5140 -0.7817
  944MOL0     C27369   3.212   7.948   6.853  1.5744 -0.1928  0.6456
  944MOL0     C27370   3.235   7.843   6.910  0.0921  0.2186  0.7749
  944MOL0     C27371   3.042   7.641   6.305 -0.0949  0.2737 -0.5194
  944MOL0     C27372   3.095   7.511   6.309  0.3539  0.4242  0.1240
  944MOL0     H27373   3.375   7.102   6.193 -0.0218  2.7917  2.7745
  944MOL0     H27374   3.438   6.876   6.238 -0.7380 -1.4592 -0.2066
  944MOL0     H27375   3.170   6.648   6.524  1.0870  0.2499  0.6533
  944MOL0     H27376   3.109   6.618   6.364 -1.4884  0.4869  1.7051
  944MOL0     H27377   3.313   6.456   6.332 -0.8704 -0.2451 -0.3447
  944MOL0     H27378   3.322   6.455   6.511  0.6514  2.1387  0.2654
  944MOL0     H27379   3.083   6.399   6.525 -1.9177  3.0028 -1.2610
  944MOL0     H27380   3.055   6.383   6.356 -1.2550  0.1824  1.0712
  944MOL0     H27381   3.284   6.247   6.518  0.6954  3.5399 -2.2412
  944MOL0     H27382   3.120   6.165   6.466  0.5155 -1.7348 -2.2537
  944MOL0     H27383   3.181   6.138   6.243  0.8716 -2.2402  0.0733
  944MOL0     H27384   3.310   6.252   6.247  3.0296 -2.3257 -0.1668
  944MOL0     H27385   3.400   6.101   6.444 -1.5427  2.2039  0.4806
  944MOL0     H27386   3.320   5.986   6.325  0.7113  0.1073 -1.4398
  944MOL0     H27387   3.450   6.132   6.148 -2.1579 -0.1083  0.5217
  944MOL0     H27388   3.539   6.196   6.285 -0.0777  0.7107 -0.8883
  944MOL0     H27389   3.551   5.907   6.278 -4.2615  1.4396  3.4857
  944MOL0     H27390   3.659   6.040   6.334 -1.3641  2.0186 -0.6201
  944MOL0     H27391   3.545   6.069   5.975 -1.0790 -0.3030  1.5828
  944MOL0     H27392   3.720   6.138   5.774  1.8689  2.3190  2.3977
  944MOL0     H27393   3.880   6.097   5.797 -1.3153  2.4054 -0.6884
  944MOL0     H27394   3.757   5.974   5.607 -0.1328  1.0123  1.1893
  944MOL0     H27395   3.699   5.861   5.725  1.3986 -1.4646  0.5980
  944MOL0     H27396   3.915   5.775   5.796  1.0021  0.2744  0.3652
  944MOL0     H27397   3.995   5.928   5.765 -2.3946  2.8799  0.7718
  944MOL0     H27398   4.085   5.756   5.615 -0.1935 -0.1294 -1.3443
  944MOL0     H27399   4.003   5.863   5.517  0.2316  0.2755  1.6135
  944MOL0     H27400   3.902   5.851   5.317  0.4625 -0.9468  1.2984
  944MOL0     H27401   3.854   5.880   5.088 -0.9527  1.1366 -2.5505
  944MOL0     H27402   3.698   5.868   5.032  2.7897 -0.2359 -1.3901
  944MOL0     H27403   3.733   5.998   5.153  0.7418  1.4199 -0.2500
  944MOL0     H27404   3.534   5.977   4.885  1.8681 -1.3231  2.4380
  944MOL0     H27405   3.383   6.035   4.699  3.9260  0.3603  0.9363
  944MOL0     H27406   3.174   6.166   4.632 -1.2831  0.7574 -1.2994
  944MOL0     H27407   3.241   6.031   4.526 -1.9731  1.8405 -3.6582
  944MOL0     H27408   3.083   6.171   4.414  0.9476 -0.1612 -0.3991
  944MOL0     H27409   3.007   6.007   4.430 -2.0046  1.5093 -1.6345
  944MOL0     H27410   2.956   6.252   4.595  2.0677 -0.0297 -1.6751
  944MOL0     H27411   2.860   6.100   4.619  0.2592  0.4307  0.6355
  944MOL0     H27412   2.805   6.151   4.351  0.6244  0.4265 -0.6389
  944MOL0     H27413   2.701   6.221   4.476 -0.3996 -0.9516  0.5742
  944MOL0     H27414   2.947   6.370   4.361 -0.2873 -1.4942 -2.8825
  944MOL0     H27415   2.833   6.433   4.464  0.9460 -1.1508  0.9104
  944MOL0     H27416   2.661   6.432   4.299  1.5327  0.3558  1.2287
  944MOL0     H27417   2.803   6.494   4.221  4.5966 -0.0645  0.3751
  944MOL0     H27418   2.656   6.256   4.131  1.0544 -1.6422  2.5863
  944MOL0     H27419   2.826   6.219   4.153  1.3931  0.4790  1.1670
  944MOL0     H27420   2.718   6.449   3.984 -1.1601 -0.5260  0.8905
  944MOL0     H27421   2.776   6.303   3.929 -0.9165  0.1791 -1.2386
  944MOL0     H27422   3.046   5.878   4.913 -0.2356 -0.1260 -0.4241
  944MOL0     H27423   3.193   5.796   5.093  0.6628  1.1960  1.4526
  944MOL0     H27424   3.486   5.618   5.391  0.4736  0.3667  2.1229
  944MOL0     H27425   3.697   5.579   5.547 -0.3258 -1.5310 -0.9625
  944MOL0     H27426   3.063   6.823   6.441 -0.5243  0.6610 -1.0611
  944MOL0     H27427   3.027   7.062   6.439  0.3253  1.4038 -1.4956
  944MOL0     H27428   3.073   7.445   6.634  1.7939  0.8092  0.5189
  944MOL0     H27429   2.978   7.682   6.639 -1.0535 -1.5254 -0.1218
  944MOL0     H27430   3.163   7.890   6.352  0.1332 -2.3399  0.5326
  944MOL0     H27431   3.050   8.022   6.396 -2.2118 -1.4120  0.9990
  944MOL0     H27432   3.259   8.013   6.534  0.4569 -1.8670  0.9717
  944MOL0     H27433   3.220   7.858   6.592  0.8420 -0.3044 -0.0192
  944MOL0     H27434   2.986   7.956   6.692  2.7234 -1.6413  2.8084
  944MOL0     H27435   3.034   8.101   6.609 -1.8557  0.2937  0.6867
  944MOL0     H27436   3.107   8.134   6.851  0.5601 -1.2026 -0.2313
  944MOL0     H27437   3.239   8.119   6.735 -0.1752 -0.1814 -2.1091
  944MOL0     H27438   3.253   7.764   6.980  1.0338 -0.1026  0.2032
  944MOL0     H27439   3.039   7.696   6.212  0.8793 -0.1872 -0.8469
  944MOL0     H27440   3.134   7.470   6.216 -0.6683  1.2620 -0.7080
  945MOL0     O27441   2.405   8.100   6.726 -0.5090 -0.9848  0.4763
  945MOL0     C27442   2.465   8.039   6.810 -0.3196  0.2215  0.7181
  945MOL0     O27443   2.453   7.906   6.844 -0.2070  0.4591  0.8536
  945MOL0     C27444   2.384   7.809   6.764 -0.6665  0.1008  0.6259
  945MOL0     C27445   2.420   7.673   6.766 -0.2044 -1.1634 -0.0513
  945MOL0     C27446   2.349   7.575   6.705 -0.4305 -0.0083  0.2244
  945MOL0     C27447   2.237   7.619   6.627  0.1884 -0.3434 -0.4071
  945MOL0     O27448   2.170   7.517   6.564  0.0902 -0.3691 -0.4958
  945MOL0     C27449   2.224   7.480   6.435  1.0313 -0.5408 -0.2023
  945MOL0     C27450   2.167   7.588   6.341  0.0237 -0.6385  0.5339
  945MOL0     C27451   2.161   7.535   6.196  0.2145 -0.1528 -0.3076
  945MOL0     C27452   2.092   7.631   6.096  0.0589  0.4210 -0.2059
  945MOL0     C27453   2.101   7.573   5.955 -0.7410  0.4887  0.6453
  945MOL0     C27454   2.035   7.668   5.852 -0.3738  0.3960 -0.5447
  945MOL0     C27455   2.140   7.749   5.787  0.0447 -0.9258 -0.6306
  945MOL0     C27456   2.162   7.888   5.842 -0.5993  0.9389 -0.5636
  945MOL0     N27457   2.067   7.983   5.779  0.5387 -0.5414 -1.0550
  945MOL0     C27458   1.938   7.963   5.764  0.2026 -0.2281 -0.4883
  945MOL0     C27459   1.892   8.073   5.703 -0.7421 -0.9217 -0.4122
  945MOL0     C27460   1.757   8.084   5.656  0.1396  0.8830 -0.3488
  945MOL0     C27461   1.720   8.221   5.599  0.4504 -0.2645 -0.0881
  945MOL0     C27462   1.739   8.246   5.448  1.3054  1.3704  0.6597
  945MOL0     C27463   1.645   8.149   5.360  1.6331 -0.8074 -1.7457
  945MOL0     O27464   1.548   8.227   5.286  0.0090  0.4056  0.0258
  945MOL0     C27465   1.455   8.157   5.214 -0.4377  0.4595 -0.1123
  945MOL0     C27466   1.370   8.248   5.151  0.0498  0.7715 -0.6297
  945MOL0     C27467   1.270   8.197   5.069  0.2000 -0.5809 -0.0276
  945MOL0     C27468   1.167   8.306   5.020 -1.1193 -0.7132 -0.2691
  945MOL0     C27469   1.253   8.056   5.052  0.0296  0.4023  0.7361
  945MOL0     C27470   1.137   7.996   4.972 -0.7664 -0.3649  0.2070
  945MOL0     O27471   1.051   8.081   4.909  0.8860  0.3344 -0.7762
  945MOL0     C27472   0.978   8.030   4.807 -0.0555  0.6368  0.3324
  945MOL0     C27473   0.848   8.073   4.801  1.2929  0.2374 -0.3256
  945MOL0     C27474   0.758   8.016   4.713  0.8083 -0.5788  0.3346
  945MOL0     C27475   0.789   7.910   4.623  0.7059  0.7671 -0.9259
  945MOL0     O27476   0.695   7.886   4.534 -0.2013  0.4261  0.6600
  945MOL0     C27477   0.694   7.758   4.478  0.5229  0.7756 -0.0237
  945MOL0     C27478   0.576   7.746   4.384 -0.0627  0.1711  0.9336
  945MOL0     C27479   0.545   7.861   4.277 -0.2327 -0.2120  0.3624
  945MOL0     C27480   0.394   7.838   4.228 -0.3077  0.5871  0.6601
  945MOL0     C27481   0.364   7.950   4.128  0.5380 -0.3233 -0.0890
  945MOL0     C27482   0.217   7.951   4.095 -0.5920  0.5192  0.2931
  945MOL0     C27483   0.208   8.045   3.978  0.0550 -0.1237 -0.4331
  945MOL0     C27484   0.240   7.982   3.846 -0.3463 -0.4714  1.0650
  945MOL0    Cl27485   0.100   7.888   3.778  0.6235 -0.2644  0.1478
  945MOL0     C27486   0.918   7.861   4.635 -0.0730 -0.5268  0.5367
  945MOL0     C27487   1.011   7.920   4.726 -0.4994 -0.7898 -0.2521
  945MOL0     O27488   1.125   7.869   4.986 -0.2117 -0.8262  0.7239
  945MOL0     C27489   1.340   7.971   5.119 -0.9449  0.0063  0.9057
  945MOL0     C27490   1.445   8.019   5.198 -0.4511 -0.1591  0.6212
  945MOL0     N27491   2.000   8.161   5.680 -0.4083 -0.2019 -0.2572
  945MOL0     N27492   2.106   8.106   5.741  0.0581 -0.2053 -0.2716
  945MOL0     C27493   2.194   7.751   6.623 -0.5610  0.4635  0.0461
  945MOL0     C27494   2.272   7.844   6.683 -0.0603 -0.0294 -0.0228
  945MOL0     C27495   2.544   8.124   6.899 -0.3811  1.0027  0.2591
  945MOL0     C27496   2.562   8.269   6.884  0.9054 -0.0586  0.4765
  945MOL0     C27497   2.630   8.347   6.985 -0.3274  0.7048  0.4452
  945MOL0     C27498   2.702   8.285   7.086 -0.7919  0.2792 -0.4285
  945MOL0     O27499   2.771   8.366   7.172  0.4651  0.1794 -0.0284
  945MOL0     C27500   2.904   8.318   7.208 -0.1697 -0.3386 -0.8509
  945MOL0     C27501   3.001   8.334   7.099 -0.2511  0.7125 -0.4604
  945MOL0     C27502   3.051   8.478   7.086 -1.0678  0.2812 -0.4132
  945MOL0     C27503   3.122   8.538   7.212 -0.4616  0.1059 -0.2427
  945MOL0     C27504   3.207   8.649   7.171 -0.9626  0.1192 -0.2588
  945MOL0     C27505   3.287   8.737   7.132 -0.5550 -0.5934  0.1407
  945MOL0     C27506   2.685   8.144   7.098 -0.2066  0.0784  0.1410
  945MOL0     C27507   2.609   8.058   7.012 -0.6250 -0.8446  0.9064
  945MOL0     H27508   2.507   7.645   6.826 -1.3230 -3.0953  0.7554
  945MOL0     H27509   2.386   7.473   6.704 -1.8779 -0.5558  0.0231
  945MOL0     H27510   2.333   7.472   6.434  1.2144  0.6506  2.3635
  945MOL0     H27511   2.181   7.385   6.399  0.6334 -0.0937 -0.9323
  945MOL0     H27512   2.068   7.618   6.377  0.2063  2.4175 -1.1729
  945MOL0     H27513   2.224   7.679   6.364  1.7687 -1.5833  0.1496
  945MOL0     H27514   2.267   7.527   6.173  0.8015  3.0047  0.8080
  945MOL0     H27515   2.112   7.437   6.198 -3.5298  1.5501  1.7473
  945MOL0     H27516   1.989   7.658   6.119  0.9881  1.7518  3.0583
  945MOL0     H27517   2.158   7.718   6.104  3.2942 -1.7115 -1.3800
  945MOL0     H27518   2.205   7.550   5.928 -0.9122 -1.2782  1.3757
  945MOL0     H27519   2.056   7.473   5.955  1.6792 -0.6850  0.7428
  945MOL0     H27520   1.982   7.606   5.779 -5.0460  2.7194  0.5043
  945MOL0     H27521   1.950   7.713   5.906  1.0816 -0.2491  2.5075
  945MOL0     H27522   2.240   7.705   5.790  0.0984 -0.7670  1.2401
  945MOL0     H27523   2.122   7.769   5.681 -1.4519 -0.5094 -0.3260
  945MOL0     H27524   2.263   7.924   5.823 -0.3327 -0.0809 -1.1388
  945MOL0     H27525   2.147   7.886   5.950  0.6088 -1.6007 -0.3733
  945MOL0     H27526   1.879   7.876   5.790 -1.0084  0.6947 -0.0750
  945MOL0     H27527   1.736   8.018   5.571  1.4995  0.3080 -0.2678
  945MOL0     H27528   1.690   8.060   5.738 -0.2022 -1.9946 -1.3725
  945MOL0     H27529   1.770   8.306   5.646  2.8040 -0.9870 -1.1664
  945MOL0     H27530   1.613   8.231   5.618  0.2824  1.1976 -1.6022
  945MOL0     H27531   1.845   8.224   5.432  1.5535  1.7339  1.6955
  945MOL0     H27532   1.722   8.353   5.438 -0.6381  0.9880 -0.7692
  945MOL0     H27533   1.579   8.088   5.422  0.9289  0.5470 -1.1193
  945MOL0     H27534   1.705   8.089   5.291  3.5161 -0.3568 -0.5678
  945MOL0     H27535   1.396   8.351   5.173 -2.0223  1.4010 -0.9081
  945MOL0     H27536   1.159   8.311   4.911 -0.5727  0.1124 -0.2785
  945MOL0     H27537   1.069   8.287   5.064 -1.6251  3.1592  0.5871
  945MOL0     H27538   1.192   8.404   5.063 -0.4947 -1.3465  0.8927
  945MOL0     H27539   0.816   8.150   4.871 -0.6723 -2.0556  1.5038
  945MOL0     H27540   0.663   8.063   4.691  2.8322  1.6676 -5.4325
  945MOL0     H27541   0.785   7.737   4.422 -0.3963  0.2418 -1.3589
  945MOL0     H27542   0.680   7.680   4.554 -0.4787  0.3790 -0.5958
  945MOL0     H27543   0.570   7.648   4.337 -1.1091 -0.4683  2.3297
  945MOL0     H27544   0.498   7.760   4.459  1.6582  2.1638  2.4899
  945MOL0     H27545   0.602   7.858   4.184 -4.1623 -0.3763 -2.2835
  945MOL0     H27546   0.546   7.959   4.327  2.5843  0.1582 -0.2638
  945MOL0     H27547   0.389   7.748   4.167 -0.6023 -0.5140  2.2656
  945MOL0     H27548   0.314   7.845   4.302 -2.0215  3.7743 -1.2239
  945MOL0     H27549   0.429   7.940   4.041  0.6982  2.1755 -0.3453
  945MOL0     H27550   0.388   8.046   4.176  1.1459 -1.2132  1.4540
  945MOL0     H27551   0.183   7.852   4.065 -0.9685  0.1378  1.9042
  945MOL0     H27552   0.169   7.996   4.182  2.2073 -0.2561  2.3558
  945MOL0     H27553   0.267   8.137   3.992  1.4728 -1.1871  0.9700
  945MOL0     H27554   0.105   8.079   3.966 -0.5226 -2.3516 -2.3915
  945MOL0     H27555   0.325   7.914   3.854 -1.5622 -2.1926  0.0812
  945MOL0     H27556   0.271   8.065   3.782  0.0806 -0.3222  1.4614
  945MOL0     H27557   0.940   7.778   4.568  1.2617  0.4464 -0.3028
  945MOL0     H27558   1.115   7.890   4.734 -0.1201 -0.2367 -2.4843
  945MOL0     H27559   1.332   7.863   5.132  2.1044 -0.5410 -0.8153
  945MOL0     H27560   1.520   7.957   5.246  0.9510  0.5642 -0.5560
  945MOL0     H27561   2.103   7.785   6.575 -0.2286 -2.2614 -2.8464
  945MOL0     H27562   2.234   7.945   6.681 -2.1634 -0.7507  0.2439
  945MOL0     H27563   2.514   8.308   6.795  0.7690 -2.9796 -0.8423
  945MOL0     H27564   2.647   8.454   6.974  1.2133  0.5577  1.2431
  945MOL0     H27565   2.942   8.366   7.299 -1.6968 -1.1071  0.2500
  945MOL0     H27566   2.897   8.214   7.241  1.7874 -0.0862  0.5709
  945MOL0     H27567   2.961   8.303   7.002 -0.0177  2.7849 -1.2582
  945MOL0     H27568   3.092   8.276   7.118 -0.0711  1.0352 -0.3264
  945MOL0     H27569   2.963   8.537   7.060 -2.5359 -0.4906  2.3890
  945MOL0     H27570   3.126   8.477   7.006 -2.7072 -0.3277 -2.0234
  945MOL0     H27571   3.195   8.466   7.250  2.3844  2.1846 -1.3878
  945MOL0     H27572   3.050   8.583   7.280 -0.7275  1.7560 -1.5440
  945MOL0     H27573   3.355   8.818   7.113  0.4544 -1.5530 -0.4822
  945MOL0     H27574   2.728   8.100   7.187 -0.6841 -1.6009 -0.4231
  945MOL0     H27575   2.596   7.955   7.042 -0.7468 -0.2510  3.0770
  946MOL0     O27576  10.523   0.956  11.396  0.0783 -0.1922 -0.4971
  946MOL0     C27577  10.476   1.069  11.393  1.2209 -0.3673  0.6153
  946MOL0     O27578  10.505   1.174  11.475  0.2978  0.2175  0.3984
  946MOL0     C27579  10.627   1.184  11.538 -0.7667  0.2367 -0.2200
  946MOL0     C27580  10.639   1.280  11.629  0.7110 -0.1446  0.0115
  946MOL0     C27581  10.762   1.328  11.669  0.2492 -0.1644  0.1830
  946MOL0     C27582  10.878   1.288  11.607 -1.3892 -1.1687 -0.3660
  946MOL0     O27583  11.002   1.333  11.644 -0.0284 -0.2475 -0.0146
  946MOL0     C27584  11.010   1.406  11.763 -0.3742 -0.1786 -0.3021
  946MOL0     C27585  10.986   1.319  11.894  0.1361 -0.6570 -0.1287
  946MOL0     C27586  10.996   1.416  12.013  0.3375 -0.2041 -0.0687
  946MOL0     C27587  10.948   1.350  12.143 -0.4273  0.1419 -0.1151
  946MOL0     C27588  11.027   1.383  12.264 -0.7755 -0.3806 -0.6023
  946MOL0     C27589  11.179   1.327  12.267  0.2252 -0.2411  0.5266
  946MOL0     C27590  11.271   1.352  12.395  0.4716  0.6296  0.5302
  946MOL0     C27591  11.283   1.494  12.430 -0.5354  0.3687 -0.6759
  946MOL0     N27592  11.407   1.517  12.512  0.1957  0.1117  0.1845
  946MOL0     C27593  11.427   1.453  12.636  0.2736 -0.5494  0.9184
  946MOL0     C27594  11.536   1.513  12.678 -0.5501  1.2971 -0.0235
  946MOL0     C27595  11.604   1.479  12.813 -0.2643  0.2237  0.3929
  946MOL0     C27596  11.753   1.453  12.778  0.2951 -0.4918 -0.2129
  946MOL0     C27597  11.835   1.366  12.873  0.2478  0.3839 -0.3309
  946MOL0     C27598  11.988   1.379  12.843 -0.1248  0.9426 -0.3855
  946MOL0     O27599  12.014   1.348  12.703  0.1781  0.5874  0.0854
  946MOL0     C27600  12.138   1.352  12.655  0.4226 -0.8710 -0.2957
  946MOL0     C27601  12.179   1.477  12.612  0.3445 -0.5286 -0.9197
  946MOL0     C27602  12.311   1.506  12.581  0.9482  0.1024  0.0318
  946MOL0     C27603  12.337   1.648  12.549  0.2062  0.6142 -0.1830
  946MOL0     C27604  12.410   1.403  12.581  0.1947  0.4142  0.4342
  946MOL0     C27605  12.545   1.415  12.532 -0.0531  0.0832  0.1491
  946MOL0     O27606  12.598   1.540  12.507 -0.2641 -0.9783  0.0489
  946MOL0     C27607  12.733   1.551  12.476 -0.3440  0.9319 -0.2439
  946MOL0     C27608  12.760   1.645  12.374 -0.7124 -0.3581  0.4964
  946MOL0     C27609  12.897   1.674  12.333 -0.1663 -0.9145 -0.0810
  946MOL0     C27610  13.002   1.610  12.389  0.3078  0.4055  0.1536
  946MOL0     O27611  13.133   1.619  12.324  0.5096 -0.3965 -0.6286
  946MOL0     C27612  13.238   1.627  12.422  1.0176 -0.5355 -1.0294
  946MOL0     C27613  13.349   1.709  12.369  0.1630 -0.1574  0.5883
  946MOL0     C27614  13.419   1.644  12.251  0.5688 -0.4852  0.1224
  946MOL0     C27615  13.563   1.692  12.228 -0.4154 -0.2539 -0.6706
  946MOL0     C27616  13.623   1.616  12.105 -0.0810 -0.0763 -0.4215
  946MOL0     C27617  13.751   1.663  12.047  0.4283 -0.5998 -0.1139
  946MOL0     C27618  13.721   1.774  11.941  0.2981  0.2525 -0.6976
  946MOL0     C27619  13.666   1.903  12.005  0.0122 -0.1942  0.1852
  946MOL0    Cl27620  13.652   2.032  11.889  0.2525 -0.2813  0.0190
  946MOL0     C27621  12.974   1.527  12.497  0.0876 -0.0129 -0.3536
  946MOL0     C27622  12.847   1.496  12.536 -0.2481  0.0992 -0.5917
  946MOL0     O27623  12.607   1.313  12.514 -1.4570  0.4876 -0.0780
  946MOL0     C27624  12.360   1.275  12.616 -0.5471  0.1234 -0.0296
  946MOL0     C27625  12.227   1.249  12.644  0.1684 -0.4314 -0.0902
  946MOL0     N27626  11.575   1.615  12.585  1.2856 -0.2817 -0.5751
  946MOL0     N27627  11.501   1.602  12.475  0.2000  0.3459  0.1723
  946MOL0     C27628  10.874   1.174  11.522 -0.3610 -0.1288 -0.1175
  946MOL0     C27629  10.747   1.120  11.500 -0.8959 -0.1509  0.2797
  946MOL0     C27630  10.367   1.089  11.296  0.4033  0.5821 -0.0756
  946MOL0     C27631  10.305   1.212  11.288  0.5192  0.8846  0.5540
  946MOL0     C27632  10.211   1.234  11.196 -0.3187 -0.3953  0.8312
  946MOL0     C27633  10.155   1.133  11.119 -0.0542  0.3088  0.0512
  946MOL0     O27634  10.046   1.168  11.040 -0.6292  0.0874 -0.2238
  946MOL0     C27635   9.986   1.076  10.954 -0.5187 -0.3033 -0.1743
  946MOL0     C27636   9.899   1.157  10.864  0.7364 -0.2406 -0.1756
  946MOL0     C27637   9.833   1.063  10.754  0.4147  0.3202 -0.6243
  946MOL0     C27638   9.683   1.037  10.789 -0.3339 -0.0618  1.6649
  946MOL0     C27639   9.617   0.966  10.681 -0.0700 -0.3646 -1.4042
  946MOL0     C27640   9.538   0.931  10.598  0.2319  0.1062  0.1454
  946MOL0     C27641  10.218   1.016  11.119 -0.6424 -0.0383 -0.5353
  946MOL0     C27642  10.327   0.988  11.205 -0.2855 -0.5183 -0.2149
  946MOL0     H27643  10.550   1.330  11.665  0.6442 -0.4192  0.2306
  946MOL0     H27644  10.751   1.414  11.734 -3.6844  0.0009 -0.4559
  946MOL0     H27645  11.115   1.437  11.765  0.3325 -2.4378 -0.5488
  946MOL0     H27646  10.955   1.501  11.765 -1.9307 -1.0528  1.7653
  946MOL0     H27647  10.892   1.262  11.888 -1.5386  1.6775  1.8626
  946MOL0     H27648  11.069   1.249  11.901  1.0733  0.2700 -1.5163
  946MOL0     H27649  11.097   1.451  12.038  0.5990 -0.2096 -1.0830
  946MOL0     H27650  10.931   1.503  12.005  2.3223  1.3157 -0.5852
  946MOL0     H27651  10.844   1.381  12.158 -0.0125  2.8132 -2.1142
  946MOL0     H27652  10.950   1.241  12.134  0.1911  0.2265 -1.0948
  946MOL0     H27653  11.026   1.492  12.276  1.6374 -0.0700 -2.5052
  946MOL0     H27654  10.977   1.333  12.347 -2.1060 -1.6867 -2.1220
  946MOL0     H27655  11.178   1.220  12.244  2.0464  0.3200 -2.8775
  946MOL0     H27656  11.238   1.373  12.188  3.0896  1.0323  3.1878
  946MOL0     H27657  11.238   1.293  12.482  0.5856 -1.0847 -0.5391
  946MOL0     H27658  11.367   1.312  12.361  0.5793 -1.4989  2.9422
  946MOL0     H27659  11.201   1.527  12.495  0.3250  2.2932 -0.5016
  946MOL0     H27660  11.277   1.560  12.343 -0.5577  0.5163 -0.5637
  946MOL0     H27661  11.368   1.372  12.677  2.8168 -2.2778  1.3568
  946MOL0     H27662  11.596   1.564  12.881 -0.8498  0.5228 -0.0417
  946MOL0     H27663  11.565   1.390  12.863  1.7289 -1.6732 -1.2018
  946MOL0     H27664  11.795   1.554  12.776 -1.4685  0.3711  2.2133
  946MOL0     H27665  11.757   1.419  12.674 -1.0969 -0.7529 -0.1968
  946MOL0     H27666  11.802   1.262  12.884  1.9378 -0.7037 -3.9803
  946MOL0     H27667  11.824   1.408  12.974  1.7355 -1.5014  0.6842
  946MOL0     H27668  12.044   1.305  12.902 -1.8897 -0.5983 -0.5228
  946MOL0     H27669  12.006   1.483  12.872 -1.0792  0.5797  1.6864
  946MOL0     H27670  12.105   1.556  12.602 -0.9493 -1.5247  0.3233
  946MOL0     H27671  12.360   1.655  12.442  1.1791 -1.0967 -0.1068
  946MOL0     H27672  12.248   1.713  12.555 -0.0742  0.2365 -0.2320
  946MOL0     H27673  12.422   1.694  12.600  1.8857 -3.3626  0.9510
  946MOL0     H27674  12.682   1.704  12.328 -0.0928  0.6595  0.7064
  946MOL0     H27675  12.920   1.742  12.252  2.3808 -2.6655 -0.9429
  946MOL0     H27676  13.204   1.665  12.519  0.4240 -1.2696 -0.9444
  946MOL0     H27677  13.271   1.526  12.445 -0.9790 -0.8716  0.7002
  946MOL0     H27678  13.314   1.808  12.338  3.8971  0.3929 -2.6108
  946MOL0     H27679  13.424   1.723  12.448  0.5584 -2.4250  0.6789
  946MOL0     H27680  13.360   1.666  12.162 -1.5046 -0.3098  1.4876
  946MOL0     H27681  13.421   1.535  12.264 -1.0025 -0.4807  0.5204
  946MOL0     H27682  13.564   1.800  12.210 -1.0194  0.0480  0.9346
  946MOL0     H27683  13.628   1.667  12.313  0.9550  0.9773 -1.3133
  946MOL0     H27684  13.541   1.612  12.033 -2.0999  0.5030  1.7499
  946MOL0     H27685  13.644   1.514  12.140  1.5741  0.5762  0.6194
  946MOL0     H27686  13.820   1.696  12.125  0.6102 -0.3376 -0.3837
  946MOL0     H27687  13.815   1.591  11.995  2.1019  1.2781 -0.8076
  946MOL0     H27688  13.651   1.744  11.863 -1.9982  1.4697  0.7769
  946MOL0     H27689  13.818   1.798  11.898 -0.3786 -0.9364 -3.0435
  946MOL0     H27690  13.706   1.929  12.103 -0.9616 -0.6705  0.7179
  946MOL0     H27691  13.561   1.874  12.016 -0.0749 -2.7867 -4.5338
  946MOL0     H27692  13.054   1.468  12.541 -1.8825 -0.8213  2.4484
  946MOL0     H27693  12.819   1.415  12.604 -0.7650 -0.0510 -0.9737
  946MOL0     H27694  12.428   1.191  12.620 -2.6307 -2.0640 -4.0265
  946MOL0     H27695  12.184   1.160  12.689 -2.0622  1.3764  1.6608
  946MOL0     H27696  10.973   1.135  11.500  1.8737  2.3694  4.1784
  946MOL0     H27697  10.747   1.050  11.417  5.1363  2.0614 -2.1423
  946MOL0     H27698  10.334   1.307  11.333  1.7890  1.7943 -1.9583
  946MOL0     H27699  10.188   1.338  11.172  0.0425 -0.2389  1.1468
  946MOL0     H27700  10.057   1.022  10.891 -3.3029 -1.2906 -2.7004
  946MOL0     H27701   9.926   1.004  11.011  0.4368 -0.6807  0.3690
  946MOL0     H27702   9.968   1.229  10.820 -0.5810  1.3121  0.1859
  946MOL0     H27703   9.821   1.212  10.919  0.8834  2.2659 -2.2803
  946MOL0     H27704   9.886   0.967  10.750  0.6631  0.5132 -2.6862
  946MOL0     H27705   9.832   1.104  10.653 -0.7801  1.8355 -0.0390
  946MOL0     H27706   9.626   1.130  10.802 -4.5820 -1.8214 -1.8919
  946MOL0     H27707   9.680   0.994  10.890  1.2761  1.4220  2.3914
  946MOL0     H27708   9.480   0.880  10.523  2.0366 -0.6608 -0.8123
  946MOL0     H27709  10.191   0.931  11.058  0.9329  0.5805 -2.1882
  946MOL0     H27710  10.357   0.887  11.227  2.7034  0.4158  0.3569
  947MOL0     O27711   8.118   2.281   1.779  0.1292 -0.3921  0.5168
  947MOL0     C27712   8.209   2.356   1.803  1.2520 -0.6519  0.9196
  947MOL0     O27713   8.201   2.457   1.893 -0.1661 -0.3347 -0.3391
  947MOL0     C27714   8.100   2.463   1.982 -0.6754 -0.4164  0.1080
  947MOL0     C27715   8.153   2.485   2.111  0.5904  0.1693 -0.6875
  947MOL0     C27716   8.062   2.525   2.209  0.5017  0.4952 -0.2954
  947MOL0     C27717   7.925   2.529   2.182 -0.1327  1.3370 -0.4268
  947MOL0     O27718   7.841   2.572   2.287  0.0573  0.0688  0.6047
  947MOL0     C27719   7.715   2.631   2.247 -0.0584 -0.7711 -0.1897
  947MOL0     C27720   7.668   2.740   2.355 -0.8023 -0.5462 -0.6831
  947MOL0     C27721   7.558   2.830   2.308  0.7396 -0.6518  0.2379
  947MOL0     C27722   7.469   2.870   2.422  0.4395 -0.3236  0.1947
  947MOL0     C27723   7.346   2.958   2.392 -0.6287 -0.6310 -0.2200
  947MOL0     C27724   7.246   2.942   2.512  0.1665  0.6177 -0.0249
  947MOL0     C27725   7.137   3.054   2.498  0.7591  0.2570 -0.8323
  947MOL0     C27726   7.022   3.028   2.589  0.1463  0.0740 -0.4647
  947MOL0     N27727   6.957   3.147   2.646 -0.0742  1.0189  0.4016
  947MOL0     C27728   7.016   3.215   2.754  0.1024 -0.5969  0.6511
  947MOL0     C27729   6.916   3.305   2.785 -0.3111  0.5616  1.4920
  947MOL0     C27730   6.904   3.407   2.895 -0.2763  0.2076  0.3594
  947MOL0     C27731   6.758   3.447   2.948 -0.5889  0.7705  1.0676
  947MOL0     C27732   6.717   3.335   3.050  0.0822 -0.8399  0.1650
  947MOL0     C27733   6.563   3.327   3.074  0.4639 -0.0236  0.9086
  947MOL0     O27734   6.549   3.303   3.213  0.0953 -0.0822 -0.1191
  947MOL0     C27735   6.424   3.272   3.259 -0.0189 -0.1299  0.2111
  947MOL0     C27736   6.425   3.192   3.369  0.7638  0.1930 -0.0516
  947MOL0     C27737   6.299   3.153   3.422  0.3400 -0.3485 -0.8435
  947MOL0     C27738   6.305   3.065   3.535  0.0649  0.3860 -0.2380
  947MOL0     C27739   6.173   3.185   3.365  0.2216 -0.0376 -0.0809
  947MOL0     C27740   6.028   3.139   3.398  0.0479  0.3897  0.0243
  947MOL0     O27741   6.024   3.030   3.478  0.2167  0.2433  0.3497
  947MOL0     C27742   5.921   3.008   3.570 -0.0208  0.1127  0.0828
  947MOL0     C27743   5.798   3.000   3.524 -0.1574  0.4710  0.1559
  947MOL0     C27744   5.690   2.965   3.605 -0.9635  0.4748  0.4407
  947MOL0     C27745   5.713   2.947   3.743 -0.0903  0.1021  0.8592
  947MOL0     O27746   5.607   2.912   3.824  0.4144  0.6812  0.1211
  947MOL0     C27747   5.574   3.019   3.914 -0.7700  0.1894 -0.0214
  947MOL0     C27748   5.457   3.108   3.851 -0.7648 -0.4932  0.1956
  947MOL0     C27749   5.434   3.236   3.932 -0.6943  0.2932  0.6072
  947MOL0     C27750   5.318   3.319   3.853 -0.8699 -0.0896  1.2917
  947MOL0     C27751   5.309   3.476   3.881  0.6054 -0.6733  0.4303
  947MOL0     C27752   5.268   3.503   4.027  0.2331 -0.0040 -0.8792
  947MOL0     C27753   5.278   3.650   4.054 -0.1392 -0.6883  0.0418
  947MOL0     C27754   5.196   3.687   4.171  0.6495 -0.1125  0.0931
  947MOL0    Cl27755   5.277   3.833   4.239 -0.2446 -0.3709 -0.7339
  947MOL0     C27756   5.854   2.952   3.788  0.0050  0.8287  0.5610
  947MOL0     C27757   5.954   2.967   3.699  0.5399 -0.6803  0.4895
  947MOL0     O27758   5.935   3.211   3.372 -0.0010 -0.8612  0.4723
  947MOL0     C27759   6.182   3.265   3.254  0.5245  0.4892 -0.6547
  947MOL0     C27760   6.303   3.307   3.200 -0.2964  0.4395 -0.4633
  947MOL0     N27761   6.805   3.274   2.712  0.0324 -0.0581 -0.1060
  947MOL0     N27762   6.824   3.179   2.639  0.2117 -0.1846  0.0407
  947MOL0     C27763   7.877   2.514   2.053 -0.3046  0.1011  0.0085
  947MOL0     C27764   7.965   2.471   1.950  0.0137  0.4861  0.0788
  947MOL0     C27765   8.333   2.346   1.729  0.7147  0.2377  0.4656
  947MOL0     C27766   8.352   2.246   1.638 -0.4902 -0.2409 -1.2593
  947MOL0     C27767   8.469   2.226   1.568  0.6895  0.0321 -0.2823
  947MOL0     C27768   8.566   2.326   1.570  0.5392  0.1857  0.9256
  947MOL0     O27769   8.690   2.319   1.512 -0.0050 -0.1277 -0.1481
  947MOL0     C27770   8.737   2.203   1.462 -1.1100  0.1110 -0.1927
  947MOL0     C27771   8.761   2.094   1.562  0.0936 -0.2681  0.6336
  947MOL0     C27772   8.864   2.149   1.653 -0.8176  0.2288  0.3496
  947MOL0     C27773   8.904   2.044   1.748 -0.3599  0.5269 -0.5056
  947MOL0     C27774   8.973   2.093   1.866  0.6754 -0.7486  0.5757
  947MOL0     C27775   9.012   2.148   1.966 -0.4643  0.2901  0.3346
  947MOL0     C27776   8.533   2.440   1.641 -0.0810  0.1332 -0.2120
  947MOL0     C27777   8.421   2.449   1.717 -0.0788 -0.3234 -0.4191
  947MOL0     H27778   8.258   2.491   2.137  0.5019  2.2221 -0.6667
  947MOL0     H27779   8.098   2.546   2.309  2.2722  1.7679 -1.1288
  947MOL0     H27780   7.741   2.691   2.159 -0.3049  0.9365  0.8572
  947MOL0     H27781   7.638   2.559   2.219 -0.4634  1.1456 -4.9663
  947MOL0     H27782   7.639   2.687   2.447  0.7699 -0.4683 -0.1195
  947MOL0     H27783   7.745   2.809   2.389 -1.2491 -0.6427  0.5923
  947MOL0     H27784   7.599   2.920   2.261  1.8004 -1.1472  0.1875
  947MOL0     H27785   7.508   2.782   2.223  2.2882  2.4980 -2.7063
  947MOL0     H27786   7.438   2.781   2.479 -0.8802 -0.0806 -0.1155
  947MOL0     H27787   7.535   2.931   2.485 -0.5040  0.4335  0.4727
  947MOL0     H27788   7.380   3.059   2.368  0.5739 -1.1093 -0.5854
  947MOL0     H27789   7.295   2.922   2.303 -0.1825  2.0766 -1.6778
  947MOL0     H27790   7.193   2.846   2.510 -1.4292  1.4520 -2.2018
  947MOL0     H27791   7.307   2.947   2.603 -0.3737 -1.4581  0.5086
  947MOL0     H27792   7.184   3.150   2.524  0.6958 -0.1144  0.7551
  947MOL0     H27793   7.098   3.052   2.396  0.5043  0.5737 -0.7422
  947MOL0     H27794   7.061   2.979   2.679 -1.3827 -2.7490 -1.2181
  947MOL0     H27795   6.955   2.962   2.534 -1.8682  2.7994 -1.4910
  947MOL0     H27796   7.117   3.213   2.794  2.0504  1.9464 -3.5264
  947MOL0     H27797   6.960   3.369   2.982 -0.5194  1.3487  1.0296
  947MOL0     H27798   6.955   3.498   2.864 -2.2578  0.8077 -1.3455
  947MOL0     H27799   6.681   3.453   2.870 -0.0589  1.2753  0.5687
  947MOL0     H27800   6.769   3.545   2.996  0.3956  0.4812  1.4544
  947MOL0     H27801   6.778   3.365   3.135  1.1226 -1.0374 -0.4972
  947MOL0     H27802   6.748   3.241   3.005  1.0221 -1.0911  1.3111
  947MOL0     H27803   6.525   3.239   3.022 -0.8413  1.0096  0.0461
  947MOL0     H27804   6.515   3.418   3.036  2.0438  0.5889  0.2937
  947MOL0     H27805   6.511   3.157   3.425 -0.3592 -1.4301  0.7453
  947MOL0     H27806   6.407   3.024   3.534 -0.1460 -0.2890  1.5150
  947MOL0     H27807   6.281   3.120   3.626 -1.0733 -2.2189  1.1336
  947MOL0     H27808   6.241   2.978   3.520 -1.2569  1.2552  0.2565
  947MOL0     H27809   5.790   3.016   3.417  2.1809 -1.9694 -0.5017
  947MOL0     H27810   5.592   2.966   3.558 -1.6246  0.5922  1.7956
  947MOL0     H27811   5.549   2.963   4.005 -3.1110 -2.7966 -2.3214
  947MOL0     H27812   5.666   3.076   3.935  0.2782 -1.1466 -0.8071
  947MOL0     H27813   5.477   3.134   3.746  1.3214  1.4266  0.9802
  947MOL0     H27814   5.364   3.051   3.851 -0.7816 -0.5346  2.3398
  947MOL0     H27815   5.528   3.291   3.930 -1.8624  2.4744 -2.5077
  947MOL0     H27816   5.402   3.222   4.036 -0.3184 -1.1751  0.5531
  947MOL0     H27817   5.316   3.316   3.744 -0.1859  3.0911  1.1082
  947MOL0     H27818   5.217   3.285   3.879 -0.7664 -0.1637  1.6087
  947MOL0     H27819   5.241   3.530   3.814 -0.1168 -1.2479  0.6887
  947MOL0     H27820   5.410   3.519   3.874 -0.0196  0.6358 -0.9860
  947MOL0     H27821   5.163   3.477   4.043  0.6508 -1.0591  0.2809
  947MOL0     H27822   5.320   3.438   4.098 -1.1487 -0.3238 -0.1188
  947MOL0     H27823   5.252   3.715   3.970 -0.3971  0.6441  1.1160
  947MOL0     H27824   5.384   3.670   4.075 -0.1114  1.5064 -1.7994
  947MOL0     H27825   5.200   3.603   4.241 -0.5596 -0.2526  0.0206
  947MOL0     H27826   5.093   3.701   4.136 -1.0453 -2.8502  3.3555
  947MOL0     H27827   5.879   2.937   3.893  1.9797  1.7944  0.2600
  947MOL0     H27828   6.057   2.962   3.732  0.0851 -1.5957  1.8738
  947MOL0     H27829   6.090   3.297   3.205  1.1919 -0.0038 -2.3142
  947MOL0     H27830   6.299   3.364   3.108 -3.0730  0.2359 -0.5573
  947MOL0     H27831   7.772   2.531   2.032 -0.1883 -1.2191 -1.8789
  947MOL0     H27832   7.925   2.439   1.854 -3.0098  0.3122  1.2602
  947MOL0     H27833   8.288   2.158   1.634  1.6875 -2.1957  2.0289
  947MOL0     H27834   8.469   2.135   1.507 -0.7438 -0.8865  1.0260
  947MOL0     H27835   8.680   2.151   1.385  0.9814  0.0705 -1.7778
  947MOL0     H27836   8.836   2.221   1.420 -1.7692  0.8526 -1.4739
  947MOL0     H27837   8.794   2.003   1.511  2.0818  1.5998 -1.6691
  947MOL0     H27838   8.668   2.080   1.619 -0.4610  0.1266 -0.1491
  947MOL0     H27839   8.830   2.231   1.717 -0.4224  1.2871 -0.7606
  947MOL0     H27840   8.954   2.175   1.597  0.9142 -1.1075  2.3746
  947MOL0     H27841   8.965   1.971   1.693 -0.9978  0.6560 -1.4126
  947MOL0     H27842   8.818   1.988   1.786 -0.8822  2.3561  1.1103
  947MOL0     H27843   9.048   2.171   2.064 -0.6428  2.4471 -0.0555
  947MOL0     H27844   8.600   2.521   1.669 -0.8072  1.5866 -2.3629
  947MOL0     H27845   8.398   2.537   1.777 -2.4172 -0.4145 -1.0673
  948MOL0     O27846   7.803   6.231  11.034  0.0527  0.0642 -0.1499
  948MOL0     C27847   7.922   6.229  11.072 -0.1329  0.2870 -0.1071
  948MOL0     O27848   7.971   6.285  11.187  0.6239 -0.7100  0.0462
  948MOL0     C27849   7.891   6.358  11.271  0.0767 -0.4512  0.2070
  948MOL0     C27850   7.898   6.322  11.405 -0.7282  0.3877 -0.3749
  948MOL0     C27851   7.827   6.392  11.500  0.2190 -0.2160  0.1187
  948MOL0     C27852   7.750   6.502  11.457 -0.3325 -0.2491  0.1805
  948MOL0     O27853   7.674   6.567  11.556  0.7515 -0.1597 -0.0449
  948MOL0     C27854   7.630   6.704  11.527 -0.5898  0.5999 -0.6319
  948MOL0     C27855   7.580   6.762  11.655  0.0319 -0.2205 -0.3538
  948MOL0     C27856   7.529   6.913  11.664  0.8602 -0.7718 -1.0169
  948MOL0     C27857   7.447   6.951  11.797 -0.0655 -0.0574  0.3364
  948MOL0     C27858   7.546   6.945  11.905 -0.1800 -0.6190 -0.2283
  948MOL0     C27859   7.485   6.981  12.048  1.3580  0.0642  0.0475
  948MOL0     C27860   7.597   7.012  12.144 -0.3887 -1.2030 -0.3877
  948MOL0     C27861   7.593   7.152  12.205 -0.3422  0.1884 -0.3491
  948MOL0     N27862   7.660   7.252  12.115 -0.5225  0.6434 -0.4102
  948MOL0     C27863   7.785   7.291  12.122 -0.1088 -0.4040  0.0575
  948MOL0     C27864   7.805   7.385  12.030 -0.6984  0.6351 -0.1462
  948MOL0     C27865   7.931   7.465  11.994  0.7349  0.4637  0.0167
  948MOL0     C27866   7.906   7.612  12.027  0.7915 -1.3986  0.7317
  948MOL0     C27867   8.021   7.713  12.021  0.2225  0.1506  0.5488
  948MOL0     C27868   8.109   7.704  12.133  0.5647 -0.0814 -0.3436
  948MOL0     O27869   8.176   7.578  12.133 -0.8635  0.1564 -0.1168
  948MOL0     C27870   8.298   7.560  12.203  0.0226  0.3318  0.1989
  948MOL0     C27871   8.369   7.436  12.178 -0.7196 -0.2245 -0.2185
  948MOL0     C27872   8.496   7.420  12.238  0.6588  0.2158 -0.0833
  948MOL0     C27873   8.569   7.288  12.206 -0.3475 -0.3137 -0.1599
  948MOL0     C27874   8.546   7.517  12.330  0.3962  0.4734 -0.1958
  948MOL0     C27875   8.686   7.519  12.380 -0.8626  0.6081 -1.1646
  948MOL0     O27876   8.698   7.566  12.508  0.0176  0.3211  0.2543
  948MOL0     C27877   8.809   7.649  12.529 -0.6471 -0.1697  1.0079
  948MOL0     C27878   8.887   7.638  12.647  0.2714  0.3661 -0.8980
  948MOL0     C27879   8.992   7.725  12.683  0.0046 -0.0658 -0.4242
  948MOL0     C27880   9.018   7.824  12.598 -0.2944 -0.1503  0.6641
  948MOL0     O27881   9.137   7.900  12.606  0.4021 -0.1171 -0.1851
  948MOL0     C27882   9.162   7.964  12.734  0.0658 -0.5960 -0.8509
  948MOL0     C27883   9.304   8.020  12.754  0.6645 -0.2035  0.9225
  948MOL0     C27884   9.336   8.144  12.667  0.5024 -0.0565  0.0310
  948MOL0     C27885   9.467   8.214  12.724 -0.5005 -0.0413  0.1175
  948MOL0     C27886   9.487   8.351  12.662 -0.0148 -0.4627 -0.2589
  948MOL0     C27887   9.516   8.352  12.514  0.3836 -0.3798  0.9419
  948MOL0     C27888   9.556   8.495  12.473  0.2923  0.3500 -0.2400
  948MOL0     C27889   9.595   8.500  12.329  0.3452  0.2905  0.2496
  948MOL0    Cl27890   9.685   8.649  12.319 -0.1636 -0.1697  0.2604
  948MOL0     C27891   8.947   7.842  12.477  0.6277  0.2754  0.5614
  948MOL0     C27892   8.839   7.757  12.444  1.2480 -0.5254  0.5753
  948MOL0     O27893   8.774   7.469  12.314  0.6408 -0.9840  0.2061
  948MOL0     C27894   8.462   7.628  12.363 -0.7539  0.1981  0.0804
  948MOL0     C27895   8.346   7.649  12.296 -1.0104  0.4781  1.3329
  948MOL0     N27896   7.682   7.404  11.978  0.5531  0.5320 -0.4428
  948MOL0     N27897   7.593   7.328  12.030 -0.2072 -0.0415 -0.5454
  948MOL0     C27898   7.745   6.535  11.322  0.1015 -0.5606  0.4198
  948MOL0     C27899   7.814   6.460  11.229 -0.0183 -1.3447 -0.4011
  948MOL0     C27900   8.022   6.142  10.991  0.3580  0.4842  0.1423
  948MOL0     C27901   8.142   6.111  11.050 -0.7581  0.6971  0.0748
  948MOL0     C27902   8.239   6.053  10.974 -0.2974  0.4029  0.8234
  948MOL0     C27903   8.218   6.025  10.836  0.0515 -1.0540  0.2238
  948MOL0     O27904   8.315   5.965  10.754 -0.6151 -0.0178  0.7464
  948MOL0     C27905   8.406   6.052  10.699 -0.1987  0.6701 -0.2944
  948MOL0     C27906   8.486   5.983  10.579  0.3336 -0.0059  0.0477
  948MOL0     C27907   8.615   6.066  10.529  0.6347 -0.0077  0.1224
  948MOL0     C27908   8.712   5.990  10.430 -0.0367  0.2047 -0.0451
  948MOL0     C27909   8.797   6.093  10.368  0.9846  0.3164 -0.3009
  948MOL0     C27910   8.870   6.156  10.301 -0.1903 -0.9199  0.6931
  948MOL0     C27911   8.093   6.059  10.780 -1.2779  0.0427 -0.0882
  948MOL0     C27912   7.991   6.115  10.853 -0.5703  1.0896  0.2303
  948MOL0     H27913   7.963   6.241  11.437 -0.1413  0.3287 -1.6681
  948MOL0     H27914   7.826   6.370  11.607  2.5184  3.2716  1.0325
  948MOL0     H27915   7.705   6.766  11.477  0.1344  0.6435  0.4864
  948MOL0     H27916   7.542   6.706  11.461 -3.2980  0.5216  2.7035
  948MOL0     H27917   7.500   6.691  11.677  1.1411 -0.6435  3.0302
  948MOL0     H27918   7.665   6.749  11.723  0.2719  4.0470  0.4326
  948MOL0     H27919   7.611   6.984  11.652  1.4601 -1.5597 -1.6748
  948MOL0     H27920   7.460   6.909  11.580 -0.2441 -3.1237 -0.1099
  948MOL0     H27921   7.408   7.053  11.795  1.9426  0.7319 -0.6094
  948MOL0     H27922   7.359   6.886  11.798 -2.1285  2.1687 -4.4125
  948MOL0     H27923   7.586   6.843  11.907  0.4655 -0.4024 -1.2460
  948MOL0     H27924   7.628   7.012  11.879 -0.0938 -1.0271 -1.0531
  948MOL0     H27925   7.426   7.072  12.048 -3.8872 -2.8829  2.4392
  948MOL0     H27926   7.427   6.896  12.085  2.4290 -0.1928  1.2034
  948MOL0     H27927   7.605   6.936  12.223 -1.3525 -2.4006 -1.3991
  948MOL0     H27928   7.686   6.999  12.083 -1.9379 -2.1936 -2.5637
  948MOL0     H27929   7.660   7.153  12.292  0.0112  1.7767 -0.6043
  948MOL0     H27930   7.496   7.187  12.241  0.9024  1.5174  1.9893
  948MOL0     H27931   7.867   7.260  12.186  1.0664  0.2929 -1.0727
  948MOL0     H27932   8.021   7.416  12.033  0.4200 -3.6347 -3.6673
  948MOL0     H27933   7.949   7.457  11.887 -0.3218 -2.1841 -0.0382
  948MOL0     H27934   7.862   7.627  12.126  0.4402 -1.7053  0.6232
  948MOL0     H27935   7.833   7.643  11.951  2.3493 -1.9185 -1.0690
  948MOL0     H27936   7.981   7.815  12.017 -2.2411 -0.7920 -1.4561
  948MOL0     H27937   8.082   7.698  11.931 -1.8591  1.1139 -1.1175
  948MOL0     H27938   8.059   7.703  12.230  1.3275  1.4539  0.0884
  948MOL0     H27939   8.168   7.796  12.133  1.2303 -0.5010 -0.2968
  948MOL0     H27940   8.332   7.351  12.122 -3.8537 -0.3456  1.8323
  948MOL0     H27941   8.504   7.205  12.180 -0.3361 -0.7057  0.9894
  948MOL0     H27942   8.627   7.306  12.115  0.9947 -0.5485  0.6071
  948MOL0     H27943   8.651   7.265  12.276  1.9454  2.4663 -1.6996
  948MOL0     H27944   8.873   7.547  12.704  0.7956  1.2437  0.6725
  948MOL0     H27945   9.055   7.718  12.771  1.2224 -1.0966 -1.3333
  948MOL0     H27946   9.102   8.055  12.745 -0.6242 -0.5538 -4.1189
  948MOL0     H27947   9.144   7.899  12.821  4.6679  0.4771  1.2268
  948MOL0     H27948   9.321   8.051  12.858  1.5581  1.6232  0.2654
  948MOL0     H27949   9.384   7.947  12.739  4.3806  2.3400  5.5005
  948MOL0     H27950   9.258   8.215  12.643  1.1420  0.0566 -1.8712
  948MOL0     H27951   9.359   8.121  12.562 -0.6028  4.0483 -1.2694
  948MOL0     H27952   9.442   8.224  12.830 -1.9790  2.1022 -0.3672
  948MOL0     H27953   9.553   8.149  12.707 -1.4720 -1.5058  0.5891
  948MOL0     H27954   9.576   8.398  12.705  1.8531 -0.1573 -4.0354
  948MOL0     H27955   9.395   8.403  12.688 -0.3045 -1.1499  0.1036
  948MOL0     H27956   9.593   8.279  12.488  0.3961  0.4049 -1.5981
  948MOL0     H27957   9.424   8.329  12.459 -0.2060  3.5047  0.0182
  948MOL0     H27958   9.646   8.517  12.531 -0.4116 -0.1164  1.0586
  948MOL0     H27959   9.479   8.567  12.503  3.0941  4.0032 -1.0365
  948MOL0     H27960   9.499   8.516  12.279 -0.0502  2.1145  1.4739
  948MOL0     H27961   9.645   8.409  12.295  1.1821  0.4088  1.1167
  948MOL0     H27962   8.968   7.915  12.399 -0.5136 -1.0023 -0.9995
  948MOL0     H27963   8.771   7.788  12.365 -2.2970  0.3404  3.6907
  948MOL0     H27964   8.480   7.695  12.446  2.5275  1.1121 -1.2070
  948MOL0     H27965   8.276   7.728  12.323 -1.5982 -0.3138  2.1715
  948MOL0     H27966   7.690   6.621  11.286 -1.1939 -0.6380  2.0946
  948MOL0     H27967   7.807   6.486  11.124  1.1819 -0.4239 -0.2795
  948MOL0     H27968   8.153   6.124  11.157  4.4069 -0.9026  0.0318
  948MOL0     H27969   8.326   6.014  11.027 -2.3142 -2.6350  2.1677
  948MOL0     H27970   8.354   6.141  10.661  0.8641  0.6826 -1.7881
  948MOL0     H27971   8.481   6.082  10.773 -0.3010 -1.3901  0.7081
  948MOL0     H27972   8.416   5.977  10.496  1.0849 -0.6623 -0.5503
  948MOL0     H27973   8.514   5.880  10.601  2.0798  0.2099 -0.9137
  948MOL0     H27974   8.664   6.104  10.619 -1.5452  0.0116  1.3627
  948MOL0     H27975   8.576   6.153  10.476 -0.5057  1.1172  2.6407
  948MOL0     H27976   8.659   5.930  10.356 -0.3600 -0.1511  0.4627
  948MOL0     H27977   8.775   5.922  10.489 -0.5214 -0.0866  0.1463
  948MOL0     H27978   8.927   6.206  10.225  2.1085 -0.9596  2.2585
  948MOL0     H27979   8.093   6.043  10.673  2.8995  1.8933 -0.5693
  948MOL0     H27980   7.895   6.130  10.806 -1.8765 -0.6835  2.1656
  949MOL0     O27981   9.457  10.340   7.042 -0.4745 -0.0762 -0.1353
  949MOL0     C27982   9.478  10.241   6.978 -0.4050 -0.1319 -0.4682
  949MOL0     O27983   9.493  10.233   6.843  0.8082  0.4040  0.0905
  949MOL0     C27984   9.454  10.339   6.766 -0.5368  0.3008 -0.4574
  949MOL0     C27985   9.325  10.403   6.775 -1.2033  0.5994 -0.3964
  949MOL0     C27986   9.297  10.533   6.734 -0.0972 -0.2388  0.7834
  949MOL0     C27987   9.405  10.610   6.679  0.6117  0.3392 -0.4682
  949MOL0     O27988   9.392  10.735   6.623 -0.4335 -0.2702  0.4636
  949MOL0     C27989   9.325  10.842   6.699 -0.6823  0.7237 -0.1557
  949MOL0     C27990   9.333  10.973   6.629 -0.6796  0.7642  0.2697
  949MOL0     C27991   9.266  11.088   6.707 -0.3727 -0.0597  0.2912
  949MOL0     C27992   9.120  11.103   6.673  1.3930  0.3185 -1.0321
  949MOL0     C27993   9.044  11.193   6.779 -0.4988  0.8103 -1.0154
  949MOL0     C27994   9.068  11.344   6.739  0.2666  0.1737  0.2343
  949MOL0     C27995   9.029  11.440   6.860 -0.7840 -0.3171  0.0719
  949MOL0     C27996   9.091  11.586   6.847  0.4454 -0.6889  0.2238
  949MOL0     N27997   9.037  11.671   6.738  0.8857  0.1279 -1.1478
  949MOL0     C27998   9.082  11.677   6.610  0.1658 -0.2149 -0.0283
  949MOL0     C27999   9.031  11.793   6.560 -0.1979  0.3686  0.7885
  949MOL0     C28000   9.070  11.845   6.420 -0.5291  0.3605 -0.1068
  949MOL0     C28001   9.042  11.736   6.318  0.2147  0.6473 -0.4979
  949MOL0     C28002   8.927  11.639   6.321 -1.6711  0.3694 -0.2690
  949MOL0     C28003   8.788  11.704   6.307 -0.7277  0.3728  0.9075
  949MOL0     O28004   8.708  11.595   6.259  0.7724  1.1837 -0.2853
  949MOL0     C28005   8.692  11.489   6.342  0.1515 -0.1241 -0.0497
  949MOL0     C28006   8.708  11.493   6.486  0.4871 -0.2815  0.4852
  949MOL0     C28007   8.686  11.379   6.560 -0.1873 -0.5781  0.0876
  949MOL0     C28008   8.700  11.401   6.712 -0.3221 -0.2157  0.2612
  949MOL0     C28009   8.647  11.255   6.498 -0.4653  0.1751 -0.0598
  949MOL0     C28010   8.613  11.137   6.592 -0.3146 -0.1598  0.1515
  949MOL0     O28011   8.559  11.026   6.535  0.8886  0.4277  0.0030
  949MOL0     C28012   8.522  10.905   6.603 -1.6708 -0.4971 -0.0023
  949MOL0     C28013   8.505  10.791   6.524 -0.4370  0.7675 -0.5354
  949MOL0     C28014   8.462  10.664   6.571  0.3484 -0.6927  1.6367
  949MOL0     C28015   8.445  10.651   6.707 -0.6674  0.1263 -0.8645
  949MOL0     O28016   8.411  10.538   6.779  0.1770 -0.3976 -0.0529
  949MOL0     C28017   8.405  10.417   6.703 -0.6251 -0.4481 -0.7422
  949MOL0     C28018   8.261  10.392   6.646 -0.9510 -0.0840 -0.3409
  949MOL0     C28019   8.271  10.329   6.502 -0.8847  0.4469 -0.4399
  949MOL0     C28020   8.345  10.200   6.510  0.6171 -0.6894  0.8260
  949MOL0     C28021   8.318  10.121   6.383  1.2501  0.2189  1.3726
  949MOL0     C28022   8.382  10.174   6.256  0.1490 -0.5716 -0.1603
  949MOL0     C28023   8.343  10.092   6.129  0.7553 -0.4343  0.2503
  949MOL0     C28024   8.197  10.126   6.096 -0.1130 -0.8888  0.9276
  949MOL0    Cl28025   8.145  10.050   5.939 -0.1293 -0.1799  0.2363
  949MOL0     C28026   8.465  10.762   6.792  0.4665  1.4635 -1.0183
  949MOL0     C28027   8.499  10.885   6.740 -0.4571 -0.9706 -0.4397
  949MOL0     O28028   8.651  11.136   6.708  0.1290 -0.3522 -0.1565
  949MOL0     C28029   8.646  11.255   6.357  0.3995  0.3679 -0.0045
  949MOL0     C28030   8.677  11.370   6.275 -0.2381  0.3034 -0.4538
  949MOL0     N28031   8.949  11.853   6.652  0.4022  0.4304 -0.4127
  949MOL0     N28032   8.958  11.780   6.763  0.5586 -0.1656  0.8142
  949MOL0     C28033   9.520  10.540   6.655 -0.2559 -0.7958 -0.3652
  949MOL0     C28034   9.548  10.415   6.692 -0.6143  0.3163  0.3098
  949MOL0     C28035   9.512  10.124   7.053 -0.4839 -0.1808  0.8472
  949MOL0     C28036   9.501  10.123   7.195  0.6778 -0.0340 -0.4462
  949MOL0     C28037   9.524  10.006   7.265 -0.1035 -0.5820  0.3887
  949MOL0     C28038   9.570   9.889   7.200  0.7919 -0.1702 -0.5836
  949MOL0     O28039   9.624   9.792   7.279 -0.3399  0.1046 -0.7225
  949MOL0     C28040   9.615   9.787   7.424 -0.3461 -0.0504  0.0024
  949MOL0     C28041   9.711   9.680   7.477  0.4322  0.4477 -1.6139
  949MOL0     C28042   9.855   9.667   7.414 -0.4234 -0.2201  0.6776
  949MOL0     C28043   9.950   9.567   7.478 -0.1230  0.6111 -0.0328
  949MOL0     C28044   9.953   9.541   7.626 -0.3281 -0.2002 -0.5379
  949MOL0     C28045   9.956   9.528   7.748 -0.1769 -0.7122  0.1199
  949MOL0     C28046   9.589   9.905   7.057  0.6179  0.2830 -0.6127
  949MOL0     C28047   9.553  10.011   6.984  0.4775 -0.3081 -0.5392
  949MOL0     H28048   9.245  10.364   6.838 -2.0328  2.8833  0.0378
  949MOL0     H28049   9.201  10.584   6.738  1.8701  3.9633 -0.4790
  949MOL0     H28050   9.222  10.807   6.700 -0.1411 -0.9356  1.1487
  949MOL0     H28051   9.358  10.837   6.803 -0.9979 -2.9442 -0.1014
  949MOL0     H28052   9.438  10.998   6.610  0.2379 -2.5454  0.4273
  949MOL0     H28053   9.284  10.973   6.531 -1.7857  2.6775  0.7785
  949MOL0     H28054   9.296  11.069   6.811  1.8164  0.1354 -0.2684
  949MOL0     H28055   9.315  11.182   6.683  0.2926  0.4420  3.2472
  949MOL0     H28056   9.089  11.131   6.572 -1.3179 -1.2183 -0.7154
  949MOL0     H28057   9.077  11.004   6.693  1.0246  0.7103  0.2232
  949MOL0     H28058   8.937  11.168   6.779 -0.2185 -1.9034  4.1903
  949MOL0     H28059   9.094  11.156   6.870 -0.1828 -3.2340 -2.6133
  949MOL0     H28060   9.168  11.370   6.704 -0.3062 -1.3812 -3.0157
  949MOL0     H28061   8.996  11.369   6.660  3.2945 -0.6683 -3.0974
  949MOL0     H28062   8.921  11.454   6.871 -0.6619  3.0929 -1.8671
  949MOL0     H28063   9.062  11.389   6.952 -0.6666 -1.5841 -0.6464
  949MOL0     H28064   9.198  11.576   6.828  0.5671 -2.4101  1.5857
  949MOL0     H28065   9.072  11.645   6.938 -0.4905 -2.6219  1.3366
  949MOL0     H28066   9.147  11.611   6.555  0.5996  1.0829 -1.1094
  949MOL0     H28067   9.010  11.935   6.414 -2.2011 -0.7249 -0.2571
  949MOL0     H28068   9.178  11.860   6.427  0.3363 -4.3589  0.1377
  949MOL0     H28069   9.132  11.673   6.326 -0.6499 -0.3840  3.7082
  949MOL0     H28070   9.038  11.778   6.218 -2.6138  2.0669  0.1150
  949MOL0     H28071   8.941  11.588   6.416  1.6210  1.4877 -0.0190
  949MOL0     H28072   8.950  11.577   6.233  2.2460  0.7846  0.2611
  949MOL0     H28073   8.779  11.777   6.226 -0.3626 -0.4936  0.0633
  949MOL0     H28074   8.748  11.750   6.398  0.3317 -0.4653  1.8376
  949MOL0     H28075   8.730  11.577   6.551 -0.5441 -1.5699  2.6019
  949MOL0     H28076   8.782  11.341   6.752  0.8249 -0.1346 -1.8682
  949MOL0     H28077   8.714  11.502   6.754 -2.9562 -0.0029  0.8075
  949MOL0     H28078   8.616  11.360   6.769 -0.2404 -0.7024  0.0336
  949MOL0     H28079   8.507  10.804   6.416 -0.1065  0.2507 -0.5927
  949MOL0     H28080   8.429  10.582   6.509  0.1393 -2.8369  4.3871
  949MOL0     H28081   8.491  10.406   6.636  2.2028  1.2628  2.3212
  949MOL0     H28082   8.422  10.339   6.778  1.0282  0.2102 -0.3766
  949MOL0     H28083   8.208  10.329   6.718  0.4979  2.3975  3.2233
  949MOL0     H28084   8.199  10.482   6.644  1.4807  1.7567  0.6745
  949MOL0     H28085   8.316  10.398   6.430 -1.1438 -0.8634 -1.9127
  949MOL0     H28086   8.165  10.320   6.475 -1.2660 -0.0316  1.1240
  949MOL0     H28087   8.452  10.220   6.523  1.0678 -2.1373 -0.4002
  949MOL0     H28088   8.314  10.155   6.605 -1.7902 -0.3343  0.2663
  949MOL0     H28089   8.209  10.123   6.374  0.9038 -5.1005  1.1541
  949MOL0     H28090   8.338  10.014   6.396  0.3308 -0.0251  0.9140
  949MOL0     H28091   8.357  10.278   6.232  2.2164  0.3420  1.3510
  949MOL0     H28092   8.489  10.169   6.278  0.3117  0.0822 -0.8000
  949MOL0     H28093   8.354   9.985   6.152 -0.7424 -0.6598  0.0425
  949MOL0     H28094   8.408  10.134   6.052 -1.3402  0.5881 -1.0360
  949MOL0     H28095   8.191  10.234   6.087 -2.1669 -0.8857  1.6482
  949MOL0     H28096   8.140  10.082   6.178 -0.5418  0.2690  1.2666
  949MOL0     H28097   8.445  10.737   6.896  0.8021  2.1447 -0.7840
  949MOL0     H28098   8.494  10.976   6.800 -0.4935 -1.3253  0.1041
  949MOL0     H28099   8.626  11.158   6.314  0.1849 -0.5618  2.0748
  949MOL0     H28100   8.693  11.361   6.168  3.3597 -2.2213  0.0970
  949MOL0     H28101   9.602  10.588   6.602 -0.0295  2.3913  2.5070
  949MOL0     H28102   9.652  10.386   6.679 -0.1747  1.5963  0.7850
  949MOL0     H28103   9.469  10.215   7.243 -0.5606 -0.6923  0.0398
  949MOL0     H28104   9.516  10.027   7.371 -1.8734 -0.1103  0.1948
  949MOL0     H28105   9.636   9.886   7.466  0.3579  0.2823 -1.0864
  949MOL0     H28106   9.515   9.765   7.462 -0.6032 -2.5972 -1.9540
  949MOL0     H28107   9.657   9.585   7.475  1.3722 -0.3960  2.5618
  949MOL0     H28108   9.717   9.702   7.584 -0.3025  3.3841 -2.0850
  949MOL0     H28109   9.915   9.758   7.402 -2.4080  0.8573 -2.4297
  949MOL0     H28110   9.843   9.624   7.315  1.1836 -0.2236  0.4494
  949MOL0     H28111  10.048   9.605   7.447 -0.5030  1.0812 -0.6762
  949MOL0     H28112   9.933   9.469   7.434 -3.9597  1.9728 -2.0055
  949MOL0     H28113   9.947   9.511   7.853 -5.1182  1.4998  0.3555
  949MOL0     H28114   9.622   9.815   7.007  2.8864 -0.1287  1.4596
  949MOL0     H28115   9.550   9.997   6.876  2.6142  0.3171 -0.7284
  950MOL0     O28116   8.655   9.283   9.935 -0.7270  0.1763  0.3934
  950MOL0     C28117   8.541   9.238   9.944  0.1675  0.9818 -0.4399
  950MOL0     O28118   8.428   9.302   9.928 -0.2263  0.4319  0.2780
  950MOL0     C28119   8.399   9.384  10.040  0.7000  1.0005 -0.3536
  950MOL0     C28120   8.407   9.345  10.177 -0.2672  0.0396  0.2988
  950MOL0     C28121   8.366   9.423  10.282  0.3498 -0.1857  0.2143
  950MOL0     C28122   8.323   9.560  10.252 -0.4654  0.0969 -0.0390
  950MOL0     O28123   8.303   9.639  10.361 -0.0654 -0.7021 -0.0699
  950MOL0     C28124   8.214   9.756  10.346 -0.0625  0.6611 -0.5232
  950MOL0     C28125   8.200   9.824  10.491  0.4742 -0.7646  0.1532
  950MOL0     C28126   8.336   9.875  10.552 -0.1338  0.3452 -0.5255
  950MOL0     C28127   8.440   9.911  10.452 -0.1788  0.4563 -0.9740
  950MOL0     C28128   8.563   9.945  10.536  0.0559  0.4289 -0.5732
  950MOL0     C28129   8.681   9.994  10.461  1.3189  0.5259  0.2901
  950MOL0     C28130   8.778  10.094  10.533  0.3977  0.3908 -0.4250
  950MOL0     C28131   8.906  10.112  10.454  0.0536 -0.2822  0.1933
  950MOL0     N28132   8.881  10.198  10.341  0.2396  0.2771  0.2598
  950MOL0     C28133   8.882  10.336  10.366  0.0124  0.4913 -0.4316
  950MOL0     C28134   8.856  10.387  10.243 -0.3247  0.1239 -0.3925
  950MOL0     C28135   8.847  10.540  10.218 -0.4070 -0.0498  0.3287
  950MOL0     C28136   8.703  10.606  10.225  0.1237  0.0931 -0.3126
  950MOL0     C28137   8.694  10.756  10.218 -0.0169 -0.4884  0.7704
  950MOL0     C28138   8.578  10.805  10.298 -0.0802 -0.3488 -0.0474
  950MOL0     O28139   8.448  10.769  10.244 -0.2558  0.4793  0.2692
  950MOL0     C28140   8.356  10.725  10.338  0.3116  0.1333  1.0928
  950MOL0     C28141   8.244  10.667  10.287  1.2481 -0.1901  0.3709
  950MOL0     C28142   8.127  10.634  10.366  0.8307 -0.3576 -0.2480
  950MOL0     C28143   7.999  10.593  10.300  0.0039  0.5395  0.4759
  950MOL0     C28144   8.149  10.638  10.509 -0.5493 -0.1120  0.5383
  950MOL0     C28145   8.060  10.582  10.610  1.2981 -0.2446  0.9899
  950MOL0     O28146   8.120  10.530  10.724 -0.3800 -0.2648  0.6042
  950MOL0     C28147   8.053  10.447  10.817  0.8635 -1.4518  0.4692
  950MOL0     C28148   8.065  10.474  10.957  0.2686 -0.5373  0.0539
  950MOL0     C28149   7.993  10.393  11.049 -0.1617  0.0494 -0.5425
  950MOL0     C28150   7.926  10.279  11.004 -0.1566  0.5514  0.7497
  950MOL0     O28151   7.872  10.201  11.098 -0.0805 -0.4975 -0.4192
  950MOL0     C28152   7.823  10.073  11.060 -0.8082  0.7365 -0.0073
  950MOL0     C28153   7.679  10.077  11.004  0.6414  0.4462  0.2519
  950MOL0     C28154   7.594   9.958  11.043  0.6923  0.5972 -0.4952
  950MOL0     C28155   7.481   9.931  10.941 -0.3400  1.6553  0.0730
  950MOL0     C28156   7.404   9.800  10.958  0.7553 -0.4705  0.6627
  950MOL0     C28157   7.343   9.772  11.090 -0.1093 -0.2010  0.3598
  950MOL0     C28158   7.265   9.632  11.087 -1.0224  0.8987 -0.0058
  950MOL0     C28159   7.230   9.586  11.226  0.2275 -0.3482 -0.7062
  950MOL0    Cl28160   7.152   9.433  11.216 -0.1738 -0.2622 -0.2865
  950MOL0     C28161   7.928  10.243  10.868  0.1052 -0.7287  0.2094
  950MOL0     C28162   7.991  10.320  10.775 -0.1899 -1.2666 -0.1084
  950MOL0     O28163   7.937  10.564  10.588  0.4314  1.4607  0.3668
  950MOL0     C28164   8.257  10.717  10.552 -0.2652 -0.0668  0.5966
  950MOL0     C28165   8.360  10.752  10.473 -0.0482 -0.4794 -0.4055
  950MOL0     N28166   8.847  10.290  10.148 -0.1140  0.3383 -0.7338
  950MOL0     N28167   8.858  10.178  10.207 -0.4621 -0.4402 -0.5271
  950MOL0     C28168   8.303   9.601  10.118  0.6718  0.6326  0.1495
  950MOL0     C28169   8.334   9.505  10.015  0.6887  0.0580  0.0303
  950MOL0     C28170   8.545   9.085   9.949  0.4931 -0.1064  0.1563
  950MOL0     C28171   8.622   9.031  10.041 -0.5382  0.4041 -0.3843
  950MOL0     C28172   8.611   8.892  10.069 -0.0279 -0.0094 -0.7318
  950MOL0     C28173   8.513   8.810  10.009 -0.2641 -0.1257 -0.1091
  950MOL0     O28174   8.501   8.670  10.022 -0.0526 -0.7546  0.5015
  950MOL0     C28175   8.600   8.591  10.077  0.3682  0.1424 -1.0958
  950MOL0     C28176   8.687   8.515   9.973  0.4680  0.1531  0.0725
  950MOL0     C28177   8.811   8.449  10.034 -0.3024 -0.3801  0.2268
  950MOL0     C28178   8.887   8.372   9.929  0.2157  0.3140 -0.1726
  950MOL0     C28179   8.996   8.307   9.996 -0.3428  0.5719  1.1125
  950MOL0     C28180   9.092   8.243  10.045  0.5643 -0.6833  0.4344
  950MOL0     C28181   8.423   8.882   9.933  0.6814 -0.5769 -0.0676
  950MOL0     C28182   8.442   9.015   9.896 -0.6629 -0.6394 -1.5038
  950MOL0     H28183   8.433   9.242  10.198 -1.3050 -0.1520  0.7437
  950MOL0     H28184   8.390   9.384  10.380 -0.8936 -3.2243 -0.5815
  950MOL0     H28185   8.238   9.819  10.259 -0.0496  0.6272 -0.5435
  950MOL0     H28186   8.116   9.714  10.322  0.8065 -0.1261 -3.0157
  950MOL0     H28187   8.141   9.915  10.474  2.3072  0.8124  1.7656
  950MOL0     H28188   8.150   9.770  10.570  1.3045  2.6059  3.2675
  950MOL0     H28189   8.311   9.948  10.630 -2.0574 -1.6128  0.8096
  950MOL0     H28190   8.368   9.787  10.608 -1.1591  0.5799  0.4585
  950MOL0     H28191   8.470   9.830  10.384  1.8931  0.9062 -0.6588
  950MOL0     H28192   8.422  10.005  10.400 -1.0715  0.2670 -1.0227
  950MOL0     H28193   8.543  10.026  10.606  0.3514 -1.0709  1.3213
  950MOL0     H28194   8.595   9.855  10.590  3.8989  1.6424 -0.5255
  950MOL0     H28195   8.732   9.912  10.409  2.8072  0.3517  1.9288
  950MOL0     H28196   8.634  10.057  10.385 -0.3204 -1.1725 -0.1510
  950MOL0     H28197   8.729  10.192  10.528  1.1026  0.7032 -2.5461
  950MOL0     H28198   8.802  10.065  10.635 -0.0790 -1.0526 -0.6998
  950MOL0     H28199   8.940  10.012  10.423 -0.2385 -0.0233 -1.0416
  950MOL0     H28200   8.974  10.167  10.518 -1.9694  2.1883  0.3732
  950MOL0     H28201   8.881  10.393  10.459  3.2942  1.8885 -1.1225
  950MOL0     H28202   8.913  10.594  10.286 -1.0574  4.0545 -1.9778
  950MOL0     H28203   8.894  10.569  10.124  1.6152  1.4228  1.7018
  950MOL0     H28204   8.646  10.563  10.307 -1.1534 -1.9474 -2.1433
  950MOL0     H28205   8.652  10.571  10.134 -1.9901  3.7971 -0.7553
  950MOL0     H28206   8.679  10.788  10.115 -5.5689 -5.2482 -0.4975
  950MOL0     H28207   8.789  10.792  10.259 -0.9617  0.8974  1.8523
  950MOL0     H28208   8.576  10.912  10.319  0.1017  0.2290 -2.5847
  950MOL0     H28209   8.594  10.763  10.398 -0.8668  0.4051  0.4016
  950MOL0     H28210   8.250  10.654  10.180 -0.8485 -1.7640  0.3816
  950MOL0     H28211   7.912  10.658  10.315 -1.1361 -0.8381  0.0504
  950MOL0     H28212   8.008  10.615  10.193 -2.3735 -0.2201  0.0594
  950MOL0     H28213   7.963  10.490  10.308 -3.4195  1.4464 -1.3200
  950MOL0     H28214   8.116  10.560  10.998  5.1918 -0.4996 -4.7921
  950MOL0     H28215   8.008  10.416  11.154 -0.0351 -0.4408 -0.4511
  950MOL0     H28216   7.889  10.011  10.999 -0.1196  1.8903 -0.4634
  950MOL0     H28217   7.817  10.017  11.154 -2.9681 -0.5071 -0.8053
  950MOL0     H28218   7.632  10.169  11.040  0.6363 -0.8762  4.0553
  950MOL0     H28219   7.689  10.085  10.896 -3.9561  1.4467 -0.2890
  950MOL0     H28220   7.547   9.985  11.138  0.3728  3.2011 -1.3209
  950MOL0     H28221   7.651   9.865  11.055  0.6839  0.2594 -2.6466
  950MOL0     H28222   7.417  10.019  10.942 -0.0680  1.8541  0.2601
  950MOL0     H28223   7.520   9.947  10.840 -0.7275  0.5844 -0.2642
  950MOL0     H28224   7.473   9.718  10.934  1.7141 -0.2385  2.4467
  950MOL0     H28225   7.330   9.806  10.878  0.7254  1.0281  0.7754
  950MOL0     H28226   7.426   9.761  11.160 -1.1380 -0.2950  1.6163
  950MOL0     H28227   7.294   9.862  11.128 -1.5363 -0.4639 -0.7706
  950MOL0     H28228   7.310   9.548  11.033 -3.6947  0.9225 -2.4846
  950MOL0     H28229   7.169   9.645  11.036 -1.0937  0.1450 -0.0669
  950MOL0     H28230   7.155   9.655  11.266  0.2806 -1.7403  1.9746
  950MOL0     H28231   7.315   9.580  11.295  0.9020  0.4908 -1.4322
  950MOL0     H28232   7.881  10.161  10.816  1.4529 -0.2397 -1.9076
  950MOL0     H28233   8.009  10.296  10.671 -1.0433 -0.3314 -0.4851
  950MOL0     H28234   8.262  10.741  10.658 -1.5535 -0.0332  0.6571
  950MOL0     H28235   8.442  10.815  10.505  0.9320 -2.2667  0.7574
  950MOL0     H28236   8.250   9.691  10.088  0.1078  0.3805  0.3856
  950MOL0     H28237   8.318   9.542   9.914  0.0966 -1.4000 -0.4401
  950MOL0     H28238   8.696   9.089  10.096 -1.0779 -0.2199  1.0510
  950MOL0     H28239   8.681   8.854  10.143  0.6140 -1.1565 -1.8880
  950MOL0     H28240   8.663   8.650  10.144  0.2114  2.8301 -3.1746
  950MOL0     H28241   8.550   8.512  10.134  3.1582 -0.1572  1.1628
  950MOL0     H28242   8.721   8.580   9.892  3.5376  0.6496  1.6000
  950MOL0     H28243   8.628   8.448   9.911 -1.0634  2.9710 -1.7098
  950MOL0     H28244   8.790   8.391  10.124  0.3763  0.1041  0.7088
  950MOL0     H28245   8.872   8.531  10.072 -2.2217  0.5577  1.4451
  950MOL0     H28246   8.922   8.442   9.852 -2.0212 -0.2563 -1.7971
  950MOL0     H28247   8.832   8.293   9.878 -1.5834  2.6646 -2.0862
  950MOL0     H28248   9.174   8.204  10.101  1.0021  2.0392  1.8704
  950MOL0     H28249   8.341   8.831   9.883  0.1741 -0.6156  0.7957
  950MOL0     H28250   8.369   9.064   9.833  2.1056  0.1658 -4.3129
  951MOL0     O28251   5.473   9.009   6.605 -0.4667  1.0955 -0.9263
  951MOL0     C28252   5.427   9.008   6.491  0.1500  0.3018  0.1955
  951MOL0     O28253   5.365   9.114   6.427 -0.0594 -0.2272  0.3433
  951MOL0     C28254   5.376   9.247   6.465 -0.5904 -0.3065 -0.1527
  951MOL0     C28255   5.283   9.344   6.441 -0.1473 -0.5704 -0.5897
  951MOL0     C28256   5.307   9.482   6.447  0.1242 -0.7562  0.1372
  951MOL0     C28257   5.432   9.529   6.494 -0.6151 -0.0345 -0.7764
  951MOL0     O28258   5.456   9.662   6.512 -0.0928  0.1878 -0.1403
  951MOL0     C28259   5.504   9.716   6.390 -0.9453  0.2751 -0.5142
  951MOL0     C28260   5.497   9.861   6.384  0.4437  0.9750  0.8395
  951MOL0     C28261   5.363   9.914   6.424  0.5274 -0.3271  0.2737
  951MOL0     C28262   5.353  10.072   6.421 -0.1750 -0.2763  0.0148
  951MOL0     C28263   5.212  10.121   6.386 -0.2339 -0.1620 -0.3835
  951MOL0     C28264   5.173  10.259   6.448  0.7625 -0.2263 -0.6605
  951MOL0     C28265   5.049  10.329   6.393  0.0074  0.3207 -0.7700
  951MOL0     C28266   5.058  10.485   6.401  0.0304  0.2016  0.0642
  951MOL0     N28267   5.007  10.552   6.520 -0.3889  0.6542 -0.1044
  951MOL0     C28268   5.087  10.551   6.631  0.8194 -0.5787 -0.2875
  951MOL0     C28269   5.035  10.642   6.712  0.2628  0.1006  0.5306
  951MOL0     C28270   5.105  10.698   6.833 -0.3214  0.9235  0.0071
  951MOL0     C28271   5.043  10.631   6.954  0.6911  0.3435 -0.2280
  951MOL0     C28272   5.102  10.697   7.081  0.3620 -0.5038 -1.4686
  951MOL0     C28273   5.062  10.626   7.202  0.1211 -0.1830 -0.9013
  951MOL0     O28274   4.938  10.664   7.259 -0.2772  0.1233  0.6087
  951MOL0     C28275   4.922  10.768   7.348 -0.1461 -0.3871 -0.0160
  951MOL0     C28276   5.029  10.838   7.395  0.4556  0.3658 -0.7832
  951MOL0     C28277   5.012  10.933   7.500 -0.9019  0.1976  0.2957
  951MOL0     C28278   5.140  10.983   7.551  0.5870  0.6392 -1.5006
  951MOL0     C28279   4.885  10.977   7.543 -0.0397 -0.0570  0.1631
  951MOL0     C28280   4.857  11.097   7.639 -0.4774  0.4374 -0.3865
  951MOL0     O28281   4.732  11.100   7.686  0.0665 -0.5670 -0.2289
  951MOL0     C28282   4.673  11.202   7.761 -0.5677  0.7969 -0.6696
  951MOL0     C28283   4.552  11.163   7.815 -0.7030 -0.4212  0.1807
  951MOL0     C28284   4.465  11.254   7.891  0.1300  0.4740  1.3675
  951MOL0     C28285   4.516  11.380   7.932  1.0446  0.4804 -0.4144
  951MOL0     O28286   4.456  11.463   8.020 -0.3652 -0.3910  0.0426
  951MOL0     C28287   4.318  11.455   8.053  0.2645 -0.7424  0.4345
  951MOL0     C28288   4.279  11.600   8.073  0.3922  0.0756 -0.7757
  951MOL0     C28289   4.184  11.612   8.191  0.0003  0.6659  0.0032
  951MOL0     C28290   4.126  11.743   8.222  0.2650 -0.0981 -0.6903
  951MOL0     C28291   4.046  11.749   8.349 -0.8545  0.1886  0.2900
  951MOL0     C28292   3.910  11.676   8.328 -0.4338 -0.5316  0.1899
  951MOL0     C28293   3.830  11.665   8.455  0.3939 -0.2435  0.4155
  951MOL0     C28294   3.686  11.604   8.436 -0.4637 -0.4914 -0.0283
  951MOL0    Cl28295   3.613  11.599   8.609  0.1546 -0.0226 -0.5629
  951MOL0     C28296   4.642  11.407   7.887 -0.8850 -0.0511  0.0837
  951MOL0     C28297   4.720  11.329   7.796  0.1107  1.0074 -0.1924
  951MOL0     O28298   4.948  11.169   7.659  0.2954  0.7060 -1.3158
  951MOL0     C28299   4.777  10.906   7.493 -1.2480  0.2312 -0.8588
  951MOL0     C28300   4.788  10.813   7.383 -0.6694  0.3613 -0.6300
  951MOL0     N28301   4.919  10.694   6.654  0.6901 -0.0356 -0.1111
  951MOL0     N28302   4.910  10.643   6.536  0.2834 -0.3608 -0.2800
  951MOL0     C28303   5.527   9.430   6.522  0.8105 -0.0511 -0.0404
  951MOL0     C28304   5.501   9.298   6.511 -0.3770  0.4392 -0.6983
  951MOL0     C28305   5.451   8.886   6.405  0.7160  0.5528 -0.0691
  951MOL0     C28306   5.551   8.785   6.445  0.0424 -0.2438 -0.4125
  951MOL0     C28307   5.578   8.685   6.359 -0.7886  0.3150 -0.1912
  951MOL0     C28308   5.527   8.685   6.228 -0.1637  0.4651 -0.9359
  951MOL0     O28309   5.553   8.592   6.132 -0.9406 -0.0848 -0.1944
  951MOL0     C28310   5.620   8.470   6.171 -0.3276 -0.7323  0.7617
  951MOL0     C28311   5.609   8.369   6.054 -0.1971  0.0109  0.1232
  951MOL0     C28312   5.700   8.246   6.065  0.0373 -0.8035 -0.6954
  951MOL0     C28313   5.649   8.134   5.975 -0.0759  0.8673 -0.0364
  951MOL0     C28314   5.738   8.017   6.004 -0.2303 -0.7115 -0.3711
  951MOL0     C28315   5.823   7.937   6.038  0.1110 -0.2718 -0.6413
  951MOL0     C28316   5.429   8.771   6.198 -0.2377 -0.3392 -1.2268
  951MOL0     C28317   5.393   8.872   6.285 -0.7230 -0.6472 -0.1554
  951MOL0     H28318   5.186   9.311   6.406 -1.7403 -0.2984  3.1502
  951MOL0     H28319   5.235   9.558   6.419  0.3846 -0.8839 -0.9330
  951MOL0     H28320   5.611   9.692   6.396 -1.2952 -1.3592 -0.3088
  951MOL0     H28321   5.452   9.666   6.309  0.7827 -2.9874  0.1850
  951MOL0     H28322   5.566   9.896   6.462  2.6540  0.1839 -0.6650
  951MOL0     H28323   5.530   9.893   6.285  3.6094 -2.4796  0.5499
  951MOL0     H28324   5.287   9.876   6.356 -0.0218  0.6128  0.3492
  951MOL0     H28325   5.332   9.877   6.522 -3.0685 -1.0645 -0.9890
  951MOL0     H28326   5.398  10.112   6.513  0.0291  2.1074 -1.0479
  951MOL0     H28327   5.421  10.116   6.348  0.0500 -0.1534  0.2956
  951MOL0     H28328   5.192  10.130   6.279 -1.2409  2.3435 -0.0571
  951MOL0     H28329   5.146  10.047   6.433 -0.8669 -0.5480 -1.8254
  951MOL0     H28330   5.160  10.241   6.556  0.7770 -1.6091 -0.8647
  951MOL0     H28331   5.262  10.321   6.437 -0.0368  0.6008 -2.9580
  951MOL0     H28332   5.040  10.308   6.286 -0.0037  1.3599 -0.9857
  951MOL0     H28333   4.960  10.294   6.445 -1.1639  2.8109 -0.9357
  951MOL0     H28334   5.007  10.524   6.312 -2.1931 -1.2228  0.6468
  951MOL0     H28335   5.165  10.506   6.395  0.4686 -1.9311 -0.4921
  951MOL0     H28336   5.184  10.503   6.637  1.1263  0.2071  3.8742
  951MOL0     H28337   5.211  10.681   6.815 -0.0879  1.9915  0.3081
  951MOL0     H28338   5.080  10.805   6.836  2.0326  1.5307  0.1893
  951MOL0     H28339   5.059  10.523   6.950 -2.0826 -0.1861  0.3314
  951MOL0     H28340   4.935  10.634   6.976  1.2300  1.6271  2.8070
  951MOL0     H28341   5.065  10.800   7.084 -2.2354 -1.3704 -1.3436
  951MOL0     H28342   5.211  10.695   7.075  0.4640 -0.9757  0.2317
  951MOL0     H28343   5.143  10.628   7.276  0.2730  1.9296 -1.0743
  951MOL0     H28344   5.059  10.519   7.178 -0.3539  0.0294 -1.7943
  951MOL0     H28345   5.126  10.813   7.355  0.7827  0.0043  0.1992
  951MOL0     H28346   5.147  11.014   7.656  0.8135 -1.5692 -0.8189
  951MOL0     H28347   5.219  10.907   7.546 -1.3444 -1.5466 -0.4874
  951MOL0     H28348   5.168  11.074   7.497  1.5605  1.3844  0.1695
  951MOL0     H28349   4.507  11.069   7.784  0.2815 -0.2330 -1.9840
  951MOL0     H28350   4.369  11.209   7.913 -0.0293 -0.6221 -1.1810
  951MOL0     H28351   4.259  11.424   7.966  0.3236 -1.6742  0.7154
  951MOL0     H28352   4.304  11.401   8.147  6.4397 -2.3949  0.8270
  951MOL0     H28353   4.372  11.649   8.104  0.6825 -2.1501  2.3442
  951MOL0     H28354   4.238  11.653   7.986  4.1174  0.3418 -2.5629
  951MOL0     H28355   4.233  11.580   8.284  1.3070  0.6008 -0.6781
  951MOL0     H28356   4.104  11.542   8.168  1.5060 -0.5439 -1.8230
  951MOL0     H28357   4.206  11.817   8.233 -1.3068  1.3351  1.9851
  951MOL0     H28358   4.070  11.772   8.132  1.5835 -0.0682 -1.5291
  951MOL0     H28359   4.032  11.857   8.366 -0.3328  0.1662  0.8780
  951MOL0     H28360   4.093  11.711   8.440 -1.3673  0.3155  0.6142
  951MOL0     H28361   3.844  11.732   8.262 -0.2701 -1.6167 -0.9312
  951MOL0     H28362   3.919  11.576   8.284 -0.0335 -1.0211  1.3297
  951MOL0     H28363   3.824  11.761   8.506  1.4836  0.4367 -0.6816
  951MOL0     H28364   3.891  11.607   8.526 -0.2877 -2.8587 -1.0063
  951MOL0     H28365   3.681  11.509   8.383 -0.5034 -1.4772  1.6555
  951MOL0     H28366   3.630  11.679   8.380  0.6663  1.6104  1.4788
  951MOL0     H28367   4.694  11.495   7.925  0.8173 -0.8461 -0.2824
  951MOL0     H28368   4.819  11.352   7.757  1.1994 -3.1354 -0.4237
  951MOL0     H28369   4.676  10.925   7.527 -1.0089  0.9071 -0.5060
  951MOL0     H28370   4.697  10.769   7.343 -1.0432  0.8179 -0.2874
  951MOL0     H28371   5.631   9.460   6.537  0.6872  1.4302 -1.8468
  951MOL0     H28372   5.591   9.236   6.508 -1.1001 -0.6118 -1.8231
  951MOL0     H28373   5.589   8.784   6.546 -4.5016 -1.5540  1.5524
  951MOL0     H28374   5.654   8.609   6.377  0.4493  1.0555 -2.0226
  951MOL0     H28375   5.724   8.493   6.197 -0.9065  3.5470 -0.0346
  951MOL0     H28376   5.563   8.437   6.259  2.0490 -2.9434  1.6259
  951MOL0     H28377   5.625   8.418   5.958  0.4348  1.7430  1.0635
  951MOL0     H28378   5.508   8.328   6.057 -0.0990 -0.2586 -0.1978
  951MOL0     H28379   5.694   8.214   6.170 -0.5610 -0.7897 -0.7203
  951MOL0     H28380   5.802   8.283   6.056  0.3032 -0.4528  2.5429
  951MOL0     H28381   5.647   8.167   5.871  2.3937 -2.9454 -1.5394
  951MOL0     H28382   5.550   8.095   6.001 -0.0019  0.5262 -0.2606
  951MOL0     H28383   5.907   7.876   6.065 -0.3156 -0.1952  0.9910
  951MOL0     H28384   5.381   8.764   6.101 -1.0613  0.5067 -0.9035
  951MOL0     H28385   5.317   8.946   6.258  1.0192  1.4070  0.3160
  952MOL0     O28386   0.351   3.656  10.983  0.0369 -0.1134 -0.8066
  952MOL0     C28387   0.384   3.696  11.096 -0.7627  0.3777  0.6140
  952MOL0     O28388   0.452   3.811  11.121  0.3475 -0.5225 -1.2703
  952MOL0     C28389   0.491   3.890  11.014 -0.2250  0.2892 -0.5009
  952MOL0     C28390   0.422   3.991  10.963  0.3498 -0.6512 -0.1496
  952MOL0     C28391   0.477   4.090  10.878  0.6072 -0.4422 -0.0474
  952MOL0     C28392   0.609   4.073  10.835  0.0313  0.2148 -0.1624
  952MOL0     O28393   0.669   4.160  10.744 -0.4733  0.1401 -0.2077
  952MOL0     C28394   0.653   4.157  10.602  0.1117  0.3870 -0.1740
  952MOL0     C28395   0.506   4.210  10.566  0.5158 -0.2056  0.0141
  952MOL0     C28396   0.499   4.364  10.561  0.0729 -1.0389  0.5418
  952MOL0     C28397   0.608   4.428  10.468  0.6528  0.1747  0.0141
  952MOL0     C28398   0.573   4.565  10.429  0.5844 -0.0564 -0.3010
  952MOL0     C28399   0.666   4.624  10.315 -0.1055 -0.5958 -1.1223
  952MOL0     C28400   0.603   4.736  10.236  0.2879  0.0940  0.3773
  952MOL0     C28401   0.589   4.871  10.313  0.2276  0.8334  0.0787
  952MOL0     N28402   0.543   4.990  10.242 -0.4410  0.0495  0.1655
  952MOL0     C28403   0.609   5.111  10.225  0.4197  0.1888  0.1988
  952MOL0     C28404   0.528   5.178  10.130  0.4036 -0.4360 -0.0407
  952MOL0     C28405   0.562   5.306  10.040 -0.5764 -0.2033  0.5411
  952MOL0     C28406   0.680   5.285   9.943  0.2035 -0.2656 -0.3518
  952MOL0     C28407   0.792   5.396   9.965  0.1190  0.2707 -0.9565
  952MOL0     C28408   0.889   5.362  10.079  0.9117  0.0420  0.2383
  952MOL0     O28409   0.979   5.471  10.080  0.0133  0.3543 -0.2657
  952MOL0     C28410   1.112   5.436  10.113  0.3204  0.6547  0.8832
  952MOL0     C28411   1.140   5.376  10.232  0.3346  0.1456  0.4310
  952MOL0     C28412   1.267   5.354  10.283 -0.7965 -0.9616 -0.2010
  952MOL0     C28413   1.272   5.303  10.433  0.7288  0.3377 -0.3241
  952MOL0     C28414   1.376   5.406  10.207 -0.5850  0.5849 -0.1256
  952MOL0     C28415   1.520   5.399  10.252  0.7363  0.2995  0.4195
  952MOL0     O28416   1.607   5.438  10.158  0.0658 -0.1262  0.5614
  952MOL0     C28417   1.729   5.502  10.182 -0.3506 -0.2900 -0.3213
  952MOL0     C28418   1.832   5.484  10.092 -0.1299  0.2514 -0.1998
  952MOL0     C28419   1.950   5.560  10.103 -1.1135  0.3716  0.0959
  952MOL0     C28420   1.980   5.651  10.210  0.2640 -0.2021 -0.0967
  952MOL0     O28421   2.099   5.693  10.252 -0.7070 -0.6661 -0.1370
  952MOL0     C28422   2.217   5.640  10.214 -0.7175 -0.0249  0.0729
  952MOL0     C28423   2.310   5.692  10.095  0.1105 -0.5137  0.1845
  952MOL0     C28424   2.452   5.626  10.106  0.2264  0.5204 -0.4519
  952MOL0     C28425   2.530   5.637   9.974  0.5516 -0.2114 -0.6359
  952MOL0     C28426   2.654   5.550   9.971 -0.3413  0.7159 -0.4713
  952MOL0     C28427   2.786   5.604   9.900  0.6727 -0.1328  0.3667
  952MOL0     C28428   2.896   5.492   9.926 -0.0125 -0.5435  0.4843
  952MOL0     C28429   3.039   5.537   9.897 -0.1830  0.4213  0.2568
  952MOL0    Cl28430   3.031   5.612   9.746  0.2264 -0.2330 -0.5742
  952MOL0     C28431   1.864   5.676  10.297 -0.1697 -0.6187 -0.3597
  952MOL0     C28432   1.748   5.603  10.284  0.4833  0.8141  0.4469
  952MOL0     O28433   1.566   5.359  10.360  0.4174  0.5928 -0.6998
  952MOL0     C28434   1.351   5.449  10.083  0.6226 -0.7789 -0.7479
  952MOL0     C28435   1.215   5.465  10.036 -0.0347 -0.0109  1.1175
  952MOL0     N28436   0.405   5.119  10.125  0.5621 -0.5291  0.3942
  952MOL0     N28437   0.419   5.000  10.178  0.6090 -0.6952  0.3577
  952MOL0     C28438   0.672   3.951  10.866  0.4219 -0.2563  0.2607
  952MOL0     C28439   0.613   3.858  10.958  0.2952  0.0381  0.3352
  952MOL0     C28440   0.346   3.615  11.215  0.1975  0.0466 -0.7329
  952MOL0     C28441   0.284   3.492  11.204 -0.7249 -0.5153 -0.2557
  952MOL0     C28442   0.236   3.422  11.321  0.2461  0.5915  0.4852
  952MOL0     C28443   0.260   3.464  11.455  0.2690  0.0817 -0.0346
  952MOL0     O28444   0.223   3.396  11.565  0.1603 -0.3383  0.3202
  952MOL0     C28445   0.329   3.318  11.623  0.9495 -0.3508 -0.4596
  952MOL0     C28446   0.334   3.324  11.770 -0.5986 -1.3464 -0.5223
  952MOL0     C28447   0.374   3.184  11.821 -0.7893  0.7425 -0.5077
  952MOL0     C28448   0.357   3.180  11.977 -0.1803  0.0308 -0.2064
  952MOL0     C28449   0.218   3.132  12.007 -0.8846  0.5294 -0.3250
  952MOL0     C28450   0.119   3.077  12.045  0.2529  0.7053 -0.0003
  952MOL0     C28451   0.333   3.583  11.459  0.3683 -1.1013 -0.2332
  952MOL0     C28452   0.365   3.656  11.345 -0.7134  0.0976  0.2067
  952MOL0     H28453   0.318   3.992  10.994  0.9929  1.8932  2.3449
  952MOL0     H28454   0.422   4.183  10.867 -1.4903 -1.6541 -0.2531
  952MOL0     H28455   0.733   4.208  10.549  0.9936 -2.0586 -1.3293
  952MOL0     H28456   0.665   4.053  10.572  1.6928  1.0045 -1.8172
  952MOL0     H28457   0.484   4.184  10.462 -1.2433  2.7798 -0.4815
  952MOL0     H28458   0.435   4.164  10.635  0.2215  1.0379  0.5729
  952MOL0     H28459   0.403   4.407  10.531  1.3564  0.7523 -1.2765
  952MOL0     H28460   0.523   4.398  10.662  1.1308  1.3642 -0.4283
  952MOL0     H28461   0.693   4.436  10.536  0.2424  1.0832  0.4368
  952MOL0     H28462   0.639   4.369  10.382 -2.3633  0.5079 -1.4534
  952MOL0     H28463   0.470   4.565  10.393  0.2410 -0.0946  0.6551
  952MOL0     H28464   0.572   4.631  10.517 -0.3809  0.5135 -0.7190
  952MOL0     H28465   0.764   4.655  10.353 -0.4245  0.4579 -1.1470
  952MOL0     H28466   0.677   4.537  10.249  0.2765 -0.8385 -0.7510
  952MOL0     H28467   0.659   4.742  10.142 -1.3303 -0.8596 -0.6798
  952MOL0     H28468   0.505   4.710  10.196  1.0966  1.1921 -2.5605
  952MOL0     H28469   0.691   4.898  10.339  0.7291 -1.6524  1.0106
  952MOL0     H28470   0.521   4.854  10.397  1.7040 -2.9077  0.7312
  952MOL0     H28471   0.706   5.126  10.271  0.8749 -0.6327 -0.4629
  952MOL0     H28472   0.475   5.330   9.978  1.1329  1.3285 -1.3792
  952MOL0     H28473   0.577   5.390  10.109  0.8717  0.3541 -0.4138
  952MOL0     H28474   0.637   5.303   9.844 -1.3747  0.0517  0.3710
  952MOL0     H28475   0.716   5.181   9.941 -2.4311 -1.2796 -3.1396
  952MOL0     H28476   0.744   5.488  10.000  0.2975 -0.4044  1.1941
  952MOL0     H28477   0.833   5.417   9.865  1.8622  0.5041 -0.2276
  952MOL0     H28478   0.945   5.270  10.061 -1.0741 -1.0362 -0.8445
  952MOL0     H28479   0.852   5.357  10.181  2.9348  2.6060  1.1933
  952MOL0     H28480   1.052   5.357  10.293 -0.9616  1.4430 -0.9462
  952MOL0     H28481   1.201   5.225  10.461  0.1962  1.3282  1.2102
  952MOL0     H28482   1.367   5.251  10.451  0.0759 -0.3917  1.1701
  952MOL0     H28483   1.268   5.392  10.497 -2.8178  0.3047 -0.3299
  952MOL0     H28484   1.808   5.422  10.006 -4.3579  0.0718  0.8832
  952MOL0     H28485   2.023   5.555  10.023  0.6778 -1.5764  1.7574
  952MOL0     H28486   2.289   5.641  10.296  1.3858 -0.0289 -1.7048
  952MOL0     H28487   2.213   5.531  10.202  3.0213 -0.1698 -1.0941
  952MOL0     H28488   2.266   5.666   9.999  0.7736  2.3054 -1.0105
  952MOL0     H28489   2.304   5.802  10.098 -3.6656 -0.5253 -1.4205
  952MOL0     H28490   2.437   5.518  10.120  0.4561  0.1864 -2.3760
  952MOL0     H28491   2.513   5.673  10.183 -1.1074  0.9362  0.3670
  952MOL0     H28492   2.471   5.607   9.887 -0.5111 -1.2773  0.4150
  952MOL0     H28493   2.548   5.744   9.963 -0.4167  0.5576  3.5497
  952MOL0     H28494   2.622   5.455   9.927  0.2917  0.0577  0.4525
  952MOL0     H28495   2.691   5.519  10.069  2.6482  0.8220 -1.4547
  952MOL0     H28496   2.752   5.620   9.797 -0.4820  2.3922  1.0715
  952MOL0     H28497   2.815   5.704   9.931  4.6095  0.0757 -3.0441
  952MOL0     H28498   2.873   5.418   9.849  2.7206  1.4085 -2.4533
  952MOL0     H28499   2.882   5.450  10.026  0.0962 -0.9298  0.3387
  952MOL0     H28500   3.112   5.459   9.874 -0.4782  0.6864 -1.7583
  952MOL0     H28501   3.080   5.597   9.979  1.2428  0.4028 -0.4079
  952MOL0     H28502   1.868   5.758  10.367 -4.0975  1.8908 -2.6874
  952MOL0     H28503   1.665   5.627  10.349 -0.3781  2.8494 -1.2852
  952MOL0     H28504   1.417   5.487  10.006 -0.9148 -2.2189 -2.8645
  952MOL0     H28505   1.191   5.520   9.946  1.5876 -3.7049 -1.8351
  952MOL0     H28506   0.769   3.923  10.826  1.0466 -2.8226  3.2071
  952MOL0     H28507   0.658   3.764  10.989 -1.2301 -1.7161 -2.4029
  952MOL0     H28508   0.242   3.470  11.106  1.0410 -3.5639 -0.4458
  952MOL0     H28509   0.183   3.332  11.290 -1.6793  2.7718 -3.4309
  952MOL0     H28510   0.311   3.216  11.588  1.6737 -0.3476 -0.8629
  952MOL0     H28511   0.429   3.350  11.592  1.5973  1.0298  2.7007
  952MOL0     H28512   0.233   3.355  11.799  0.1063  1.7561 -0.9319
  952MOL0     H28513   0.400   3.409  11.791  1.2126 -2.9047  0.3868
  952MOL0     H28514   0.482   3.175  11.803 -0.9904 -1.2172 -0.9141
  952MOL0     H28515   0.328   3.099  11.770 -1.6074  1.9470 -1.8891
  952MOL0     H28516   0.361   3.276  12.030 -0.1756 -0.2963  0.3969
  952MOL0     H28517   0.424   3.107  12.024  1.6150  1.2343 -0.7533
  952MOL0     H28518   0.031   3.027  12.080  2.5829 -0.8975  4.3508
  952MOL0     H28519   0.359   3.631  11.553 -2.3626  2.2299 -0.9829
  952MOL0     H28520   0.421   3.748  11.358  1.4365 -1.3397  1.8895
  953MOL0     O28521   6.731   7.380   0.353 -0.3752  1.3906 -1.1132
  953MOL0     C28522   6.746   7.426   0.238 -0.3283 -0.5034 -1.0406
  953MOL0     O28523   6.813   7.535   0.209  0.2628 -0.4206 -0.3348
  953MOL0     C28524   6.873   7.612   0.309 -0.3400 -0.6403  0.1782
  953MOL0     C28525   6.958   7.562   0.400  0.1827  0.5007 -0.2385
  953MOL0     C28526   7.009   7.646   0.509 -1.3427  0.3665  0.2729
  953MOL0     C28527   6.986   7.780   0.500 -0.3318  1.0070 -0.2356
  953MOL0     O28528   7.044   7.868   0.582 -0.2578 -0.5892  0.2355
  953MOL0     C28529   7.141   7.828   0.676 -1.3707 -0.5255 -0.9542
  953MOL0     C28530   7.197   7.961   0.745  1.2884  0.5425 -0.5144
  953MOL0     C28531   7.325   8.009   0.679 -0.4615 -0.0178 -0.1086
  953MOL0     C28532   7.371   8.147   0.717  0.9271 -0.1077 -0.1348
  953MOL0     C28533   7.482   8.190   0.614 -0.3602  0.1081  0.5200
  953MOL0     C28534   7.481   8.343   0.596  0.1978 -0.5213 -0.4915
  953MOL0     C28535   7.601   8.399   0.511  0.6705  0.4932  0.3410
  953MOL0     C28536   7.632   8.544   0.565 -0.4273  0.6556  0.2853
  953MOL0     N28537   7.749   8.605   0.493 -1.0847  0.2020 -0.2367
  953MOL0     C28538   7.802   8.730   0.514  0.8388  0.5134 -0.3580
  953MOL0     C28539   7.929   8.728   0.457  0.2991 -0.9959 -0.0445
  953MOL0     C28540   8.020   8.845   0.438  0.8041 -0.1466  0.3728
  953MOL0     C28541   7.944   8.962   0.373  0.0312  0.1898  0.0611
  953MOL0     C28542   7.890   9.071   0.465  0.6174  0.8088 -0.0519
  953MOL0     C28543   7.852   9.195   0.388 -0.9873 -0.6275 -0.3666
  953MOL0     O28544   7.956   9.309   0.386  0.5777  0.0684  0.2363
  953MOL0     C28545   8.067   9.275   0.316 -0.1493 -0.4693 -0.6391
  953MOL0     C28546   8.189   9.225   0.379 -0.8376 -0.4067 -0.2950
  953MOL0     C28547   8.298   9.188   0.307 -0.2537 -0.1178 -0.3624
  953MOL0     C28548   8.423   9.151   0.396  0.0738  0.2892  0.4135
  953MOL0     C28549   8.299   9.185   0.164 -0.3282 -1.3209 -0.3709
  953MOL0     C28550   8.411   9.146   0.075  0.0980 -0.5757 -0.8302
  953MOL0     O28551   8.525   9.090   0.134 -0.2489 -0.1417  0.1177
  953MOL0     C28552   8.648   9.078   0.085  0.7376 -0.2835  0.6309
  953MOL0     C28553   8.695   9.118  -0.048  0.3479  0.6411 -0.3569
  953MOL0     C28554   8.831   9.103  -0.093  0.3075 -0.3716 -0.0878
  953MOL0     C28555   8.926   9.058   0.002  0.1783 -0.9393  1.1008
  953MOL0     O28556   9.059   9.045  -0.019  0.2124 -0.5532  0.9992
  953MOL0     C28557   9.111   9.076  -0.156  1.2442  1.3371 -0.9724
  953MOL0     C28558   9.256   9.038  -0.149 -0.5818 -0.1739 -0.5832
  953MOL0     C28559   9.278   8.900  -0.083 -0.2728 -0.8564  0.2661
  953MOL0     C28560   9.425   8.839  -0.094  0.9180 -0.2965 -0.2282
  953MOL0     C28561   9.420   8.694  -0.059 -0.3341  0.1049  0.7790
  953MOL0     C28562   9.543   8.621  -0.123  0.1376 -1.0037 -0.6248
  953MOL0     C28563   9.551   8.469  -0.096  0.2324 -0.5193 -0.3785
  953MOL0     C28564   9.673   8.410  -0.168  0.3563  0.1016  0.6600
  953MOL0    Cl28565   9.675   8.235  -0.133 -0.2647 -0.1590 -0.3154
  953MOL0     C28566   8.885   9.030   0.130 -0.6515 -0.6154 -0.2936
  953MOL0     C28567   8.751   9.038   0.171  0.3511  0.4102  0.7824
  953MOL0     O28568   8.403   9.182  -0.040  0.1010  0.3807  0.3660
  953MOL0     C28569   8.171   9.228   0.110  0.4632  0.5126  0.3158
  953MOL0     C28570   8.060   9.284   0.176  0.0645  0.2908  0.6300
  953MOL0     N28571   7.949   8.607   0.405  0.5502  0.2485  0.2587
  953MOL0     N28572   7.847   8.526   0.432 -0.4645  0.7235 -0.2212
  953MOL0     C28573   6.892   7.824   0.405 -0.6808 -0.3488 -0.3095
  953MOL0     C28574   6.838   7.744   0.310  0.2402 -0.0842  0.5068
  953MOL0     C28575   6.681   7.364   0.127  0.6248 -0.9955 -0.4294
  953MOL0     C28576   6.619   7.234   0.143  0.0749 -0.2587 -0.0254
  953MOL0     C28577   6.543   7.171   0.046 -0.1382  0.0239 -0.2463
  953MOL0     C28578   6.514   7.224  -0.071  1.0073 -0.1538 -0.3948
  953MOL0     O28579   6.421   7.169  -0.157  0.2226  1.3376  0.8366
  953MOL0     C28580   6.404   7.197  -0.294 -0.1142 -0.4524  0.1050
  953MOL0     C28581   6.284   7.119  -0.354 -1.1009  0.1746  0.3564
  953MOL0     C28582   6.155   7.187  -0.306  0.5132 -0.4178 -0.3039
  953MOL0     C28583   6.045   7.076  -0.312 -0.4380 -0.3603 -0.5055
  953MOL0     C28584   6.038   7.003  -0.183  0.2436 -0.3852 -0.6564
  953MOL0     C28585   6.030   6.940  -0.075  0.5542 -0.3751  0.4256
  953MOL0     C28586   6.575   7.348  -0.093  1.1811 -0.5295 -0.0386
  953MOL0     C28587   6.656   7.421   0.000 -0.3152  0.2158 -0.2530
  953MOL0     H28588   7.005   7.465   0.382 -3.1730 -0.9258 -2.1508
  953MOL0     H28589   7.077   7.599   0.580 -1.1633  1.8929  1.1685
  953MOL0     H28590   7.101   7.778   0.765  0.2425  0.8535  0.6372
  953MOL0     H28591   7.223   7.778   0.625 -0.1919  2.1347 -1.8616
  953MOL0     H28592   7.124   8.041   0.731 -0.4994 -1.2899 -2.4582
  953MOL0     H28593   7.207   7.945   0.852  1.7992  0.4752 -0.5710
  953MOL0     H28594   7.397   7.935   0.713  0.1699  0.9919  0.8122
  953MOL0     H28595   7.313   8.002   0.570 -0.3414 -0.0737 -0.1184
  953MOL0     H28596   7.288   8.218   0.713  0.8606 -0.2149 -0.6476
  953MOL0     H28597   7.414   8.140   0.818 -0.2927  2.9318  0.7009
  953MOL0     H28598   7.571   8.152   0.665  0.4963  0.8818 -0.3576
  953MOL0     H28599   7.480   8.139   0.517  1.9291  1.0071 -0.0763
  953MOL0     H28600   7.389   8.385   0.553  0.7999 -0.7754 -2.1167
  953MOL0     H28601   7.487   8.388   0.695  0.2096 -4.3043  1.4292
  953MOL0     H28602   7.687   8.331   0.514 -0.8732 -1.5806 -0.2701
  953MOL0     H28603   7.582   8.411   0.404  0.2310 -2.2036  0.0492
  953MOL0     H28604   7.648   8.540   0.673  2.3263 -0.4057 -0.0781
  953MOL0     H28605   7.546   8.611   0.548 -0.5442  0.1666 -1.2079
  953MOL0     H28606   7.775   8.810   0.582  1.4411  1.0841 -0.7766
  953MOL0     H28607   8.078   8.872   0.527 -2.5284  0.2378  2.6182
  953MOL0     H28608   8.089   8.818   0.358  0.9558  3.2995 -0.8029
  953MOL0     H28609   7.853   8.926   0.325  0.8554 -0.7628 -0.8375
  953MOL0     H28610   8.015   9.006   0.301 -0.7855  0.1328 -0.7907
  953MOL0     H28611   7.968   9.097   0.537 -0.7071  2.1402  0.9714
  953MOL0     H28612   7.795   9.045   0.514  0.7266  0.3991 -0.0588
  953MOL0     H28613   7.768   9.246   0.435  0.2061  0.0172  1.1745
  953MOL0     H28614   7.813   9.170   0.290 -1.4263 -1.9992  0.1345
  953MOL0     H28615   8.192   9.238   0.486 -1.5446  2.2078 -0.5035
  953MOL0     H28616   8.413   9.203   0.492  0.5257  1.7888 -0.3156
  953MOL0     H28617   8.413   9.045   0.421 -2.6722 -0.2482 -2.3800
  953MOL0     H28618   8.523   9.166   0.357  1.2750  0.1001  3.1874
  953MOL0     H28619   8.628   9.177  -0.110  1.0834  2.6460  0.6810
  953MOL0     H28620   8.871   9.142  -0.186 -2.3572  2.5407 -0.1594
  953MOL0     H28621   9.055   9.010  -0.223  1.7937 -1.2461  0.9496
  953MOL0     H28622   9.111   9.181  -0.185  2.8979  1.5501 -0.3017
  953MOL0     H28623   9.296   9.027  -0.250 -0.3122  1.0735 -0.6302
  953MOL0     H28624   9.317   9.112  -0.098 -0.8491 -0.5550  0.3072
  953MOL0     H28625   9.204   8.837  -0.133 -1.4222  2.6596 -2.9476
  953MOL0     H28626   9.246   8.893   0.021 -0.0089 -1.5690  0.3035
  953MOL0     H28627   9.465   8.856  -0.194  1.3320  1.1435  0.1536
  953MOL0     H28628   9.490   8.897  -0.027 -2.6152  2.1525  1.4201
  953MOL0     H28629   9.323   8.661  -0.098 -0.3492  0.8140  0.1781
  953MOL0     H28630   9.418   8.691   0.050  0.3480  1.4106  0.8440
  953MOL0     H28631   9.531   8.635  -0.230 -1.5409  1.2309 -0.2209
  953MOL0     H28632   9.641   8.663  -0.098  1.1100 -2.8747 -1.0836
  953MOL0     H28633   9.462   8.429  -0.145  0.2733  0.0667 -0.9557
  953MOL0     H28634   9.556   8.448   0.011 -2.0983  0.1120 -0.1040
  953MOL0     H28635   9.759   8.464  -0.125  1.1460 -0.2545 -0.4302
  953MOL0     H28636   9.665   8.423  -0.276 -1.5185  0.8320  0.8549
  953MOL0     H28637   8.953   8.993   0.205 -2.6998 -3.5802  0.3153
  953MOL0     H28638   8.721   9.009   0.271  0.6968 -0.5178  0.6282
  953MOL0     H28639   8.164   9.232   0.002 -3.1553  1.0208  0.4490
  953MOL0     H28640   7.967   9.310   0.128 -1.1897 -1.9029  1.7448
  953MOL0     H28641   6.868   7.930   0.399 -1.5689 -0.2686  2.8539
  953MOL0     H28642   6.771   7.782   0.233  0.3601 -3.7785 -1.6628
  953MOL0     H28643   6.644   7.180   0.233  0.0382  1.0223  0.7789
  953MOL0     H28644   6.499   7.077   0.078  3.0458 -0.9160  1.8080
  953MOL0     H28645   6.378   7.301  -0.316  1.7191 -0.1269 -0.7243
  953MOL0     H28646   6.496   7.170  -0.347  0.2740 -1.1556  1.0947
  953MOL0     H28647   6.294   7.017  -0.315 -1.4550 -0.9778 -2.2876
  953MOL0     H28648   6.288   7.107  -0.463  2.6897  0.5819  0.3263
  953MOL0     H28649   6.117   7.273  -0.362 -0.5811 -1.2843 -0.9380
  953MOL0     H28650   6.155   7.214  -0.200  0.6769  1.5804 -0.7601
  953MOL0     H28651   6.065   7.011  -0.398 -2.6550  0.6855 -1.8997
  953MOL0     H28652   5.951   7.128  -0.332  1.1863  2.8196 -0.5363
  953MOL0     H28653   6.029   6.887   0.018 -3.1686  2.4126  2.2169
  953MOL0     H28654   6.559   7.398  -0.188 -1.0547 -1.7867 -0.3888
  953MOL0     H28655   6.678   7.524  -0.027  0.6545 -0.4439 -2.1350
  954MOL0     O28656   9.115   4.568   3.189 -0.1167  0.0988  0.2818
  954MOL0     C28657   9.154   4.531   3.078 -0.2079  0.1381 -0.0021
  954MOL0     O28658   9.264   4.456   3.052 -0.0210 -0.3544 -0.3507
  954MOL0     C28659   9.330   4.383   3.147 -0.1801 -0.5220 -0.1974
  954MOL0     C28660   9.324   4.240   3.140  0.0908 -0.0434 -0.6818
  954MOL0     C28661   9.412   4.165   3.227  0.4550  1.1067  0.9259
  954MOL0     C28662   9.508   4.234   3.309 -0.7457  0.2092  0.6561
  954MOL0     O28663   9.581   4.165   3.397  0.4109  0.8093  0.1451
  954MOL0     C28664   9.697   4.119   3.337 -0.8313  0.6741 -0.1075
  954MOL0     C28665   9.801   4.105   3.448  0.8508  0.8297  1.3914
  954MOL0     C28666   9.861   4.242   3.492 -0.4500 -1.0206  0.1945
  954MOL0     C28667   9.935   4.216   3.626 -1.0154 -0.0078 -0.5723
  954MOL0     C28668   9.986   4.352   3.689 -0.2192  0.4771 -0.2991
  954MOL0     C28669  10.057   4.310   3.819  0.6119  0.9701  0.1039
  954MOL0     C28670  10.074   4.424   3.916 -0.1335  0.5801  0.1692
  954MOL0     C28671  10.200   4.388   4.001 -0.8090 -1.1911 -1.1967
  954MOL0     N28672  10.199   4.267   4.085  0.2273  0.6713 -0.0826
  954MOL0     C28673  10.218   4.132   4.047  0.3641  0.6892  0.2316
  954MOL0     C28674  10.246   4.064   4.163  0.2315  0.2950  0.1305
  954MOL0     C28675  10.252   3.908   4.181  0.7872 -0.2004 -0.3079
  954MOL0     C28676  10.111   3.840   4.212 -1.1097 -0.3761 -0.0595
  954MOL0     C28677  10.084   3.686   4.167 -0.3369  0.4345 -0.7523
  954MOL0     C28678   9.961   3.618   4.232 -0.6447  0.3012 -0.0665
  954MOL0     O28679   9.867   3.585   4.134 -0.2697 -0.1878  0.8495
  954MOL0     C28680   9.744   3.535   4.171 -0.2995  0.1632  0.3394
  954MOL0     C28681   9.731   3.428   4.263 -0.4517 -0.6521  0.0678
  954MOL0     C28682   9.601   3.382   4.300  0.5455 -1.0687  0.6579
  954MOL0     C28683   9.587   3.262   4.392  0.1430 -0.2438  0.3934
  954MOL0     C28684   9.485   3.456   4.250 -0.3476 -0.1421  0.2333
  954MOL0     C28685   9.347   3.422   4.276  0.4168  0.2036  0.3017
  954MOL0     O28686   9.305   3.292   4.261 -0.0327  0.2627 -0.1765
  954MOL0     C28687   9.165   3.270   4.271  0.2627  0.8190 -0.3691
  954MOL0     C28688   9.117   3.170   4.354 -0.8788  0.9928 -0.4182
  954MOL0     C28689   8.982   3.134   4.364 -0.4350 -0.0410  0.1653
  954MOL0     C28690   8.886   3.210   4.295  1.0949  0.2431  0.2958
  954MOL0     O28691   8.746   3.169   4.307 -0.1142  0.3291  0.3043
  954MOL0     C28692   8.654   3.245   4.240  0.7830  0.2183  0.4416
  954MOL0     C28693   8.523   3.181   4.259 -0.5910 -0.3016 -0.7404
  954MOL0     C28694   8.424   3.231   4.159  0.1501  0.1738 -0.1936
  954MOL0     C28695   8.283   3.222   4.223 -0.4710 -0.6451  0.7411
  954MOL0     C28696   8.171   3.233   4.106 -1.2561 -0.1742 -0.2171
  954MOL0     C28697   8.184   3.334   3.995  0.4211 -0.9937 -0.7267
  954MOL0     C28698   8.058   3.312   3.905 -0.6060 -1.3186 -0.6954
  954MOL0     C28699   8.051   3.439   3.812  0.6655  0.6879 -0.4633
  954MOL0    Cl28700   8.011   3.595   3.900  0.0178 -0.1139  0.6560
  954MOL0     C28701   8.932   3.324   4.222  0.0427  0.4118  0.0859
  954MOL0     C28702   9.075   3.346   4.205  0.7408 -0.4690 -0.6877
  954MOL0     O28703   9.278   3.511   4.322  0.2431  0.3615  0.3931
  954MOL0     C28704   9.503   3.558   4.159 -0.1207  0.3891  0.6185
  954MOL0     C28705   9.626   3.605   4.127  0.7526 -0.3991 -0.0844
  954MOL0     N28706  10.249   4.155   4.268  0.0934  0.5492 -0.3436
  954MOL0     N28707  10.211   4.273   4.221 -0.5381 -0.0293  0.0082
  954MOL0     C28708   9.516   4.377   3.318  1.2913 -0.3800  0.4619
  954MOL0     C28709   9.424   4.453   3.230  0.8044  0.4800 -0.8491
  954MOL0     C28710   9.094   4.593   2.957  1.0775  0.0356 -0.3048
  954MOL0     C28711   8.977   4.664   2.957  0.1161 -1.2574 -0.1833
  954MOL0     C28712   8.917   4.721   2.848  0.2401 -0.7815 -0.3845
  954MOL0     C28713   8.980   4.719   2.726  0.0186  0.8090  0.5081
  954MOL0     O28714   8.927   4.758   2.608 -0.7884 -0.7928  0.1589
  954MOL0     C28715   8.810   4.847   2.603 -0.2190  0.4004 -0.7232
  954MOL0     C28716   8.844   4.953   2.499  0.2769 -0.1844  0.0083
  954MOL0     C28717   8.860   4.889   2.364 -0.9188 -0.0107  0.4653
  954MOL0     C28718   8.918   4.968   2.256 -0.1893  0.0406  0.5426
  954MOL0     C28719   8.832   5.090   2.226 -0.9150  0.3306  1.1639
  954MOL0     C28720   8.753   5.180   2.205 -0.4958 -0.4933 -0.2956
  954MOL0     C28721   9.108   4.661   2.723  0.5906  0.5443  0.4279
  954MOL0     C28722   9.159   4.590   2.830 -0.7213 -0.5632 -0.2503
  954MOL0     H28723   9.267   4.191   3.063  0.1419  0.7042 -1.2060
  954MOL0     H28724   9.401   4.057   3.231 -1.9162  1.1617 -1.1885
  954MOL0     H28725   9.682   4.016   3.304  2.6056 -0.8227  2.3745
  954MOL0     H28726   9.729   4.184   3.255  1.2987 -3.2584 -2.7435
  954MOL0     H28727   9.757   4.047   3.530 -0.3685 -2.3674 -1.2686
  954MOL0     H28728   9.880   4.036   3.416 -0.6744 -1.1547  1.7132
  954MOL0     H28729   9.923   4.278   3.410 -0.1641 -1.2838  0.2926
  954MOL0     H28730   9.787   4.316   3.523  0.9657 -0.3773  2.2837
  954MOL0     H28731   9.867   4.162   3.694  1.3884 -0.0572  1.9475
  954MOL0     H28732  10.015   4.148   3.594 -0.5883  0.9438 -1.5827
  954MOL0     H28733  10.054   4.401   3.618 -0.4609 -2.3177 -2.6643
  954MOL0     H28734   9.896   4.410   3.710 -2.3603 -2.1989 -1.5035
  954MOL0     H28735   9.999   4.228   3.862  2.2049 -0.4044 -0.2673
  954MOL0     H28736  10.154   4.270   3.787  0.6949  2.8851 -2.3364
  954MOL0     H28737  10.067   4.522   3.870 -0.9319 -0.2598 -1.5837
  954MOL0     H28738   9.994   4.418   3.991 -1.1624 -4.6345 -0.9015
  954MOL0     H28739  10.238   4.476   4.054  0.2201 -2.2914 -0.0455
  954MOL0     H28740  10.274   4.359   3.926  1.2622 -0.6064  0.5409
  954MOL0     H28741  10.209   4.092   3.946  0.0079 -3.3621  1.6961
  954MOL0     H28742  10.284   3.871   4.083 -0.0997 -0.4159 -0.5255
  954MOL0     H28743  10.332   3.887   4.254 -0.4260  1.1135  1.4814
  954MOL0     H28744  10.028   3.899   4.173  0.7851 -0.0723 -4.1647
  954MOL0     H28745  10.107   3.831   4.321 -1.3450 -0.7379 -0.0994
  954MOL0     H28746  10.173   3.624   4.184 -0.6808 -0.1213 -0.9541
  954MOL0     H28747  10.071   3.685   4.059 -0.8671  1.2616 -0.7059
  954MOL0     H28748   9.922   3.691   4.304 -1.2192 -1.2923  1.3053
  954MOL0     H28749   9.998   3.544   4.304 -3.5136  0.7533  2.0727
  954MOL0     H28750   9.823   3.393   4.309 -0.9272  1.6597  3.1350
  954MOL0     H28751   9.674   3.265   4.458  1.4826  1.9850 -1.3054
  954MOL0     H28752   9.494   3.280   4.446 -0.5862 -0.9201 -0.5901
  954MOL0     H28753   9.581   3.174   4.328  3.3541  1.1133 -2.0617
  954MOL0     H28754   9.187   3.099   4.396 -1.8100  0.8763  1.0393
  954MOL0     H28755   8.956   3.057   4.436  1.2855  1.1848  2.2475
  954MOL0     H28756   8.663   3.347   4.279  2.9426  0.9019 -1.5342
  954MOL0     H28757   8.691   3.245   4.137 -1.9170  3.5114 -0.7447
  954MOL0     H28758   8.531   3.071   4.255 -0.8247 -0.6556  3.7390
  954MOL0     H28759   8.500   3.204   4.363 -0.1217 -1.4551 -0.3582
  954MOL0     H28760   8.433   3.172   4.067 -0.3264 -0.5973  0.2391
  954MOL0     H28761   8.438   3.337   4.138 -2.0486  0.4405 -0.5862
  954MOL0     H28762   8.263   3.121   4.258 -1.0875 -0.2028  1.7251
  954MOL0     H28763   8.262   3.294   4.303  1.5222  0.5957  0.1998
  954MOL0     H28764   8.080   3.239   4.166 -0.8823  0.2075  0.3224
  954MOL0     H28765   8.181   3.138   4.051  0.0690  0.6178 -1.4198
  954MOL0     H28766   8.209   3.433   4.033  3.2941 -1.6652 -0.6356
  954MOL0     H28767   8.264   3.298   3.930  0.5125 -1.0736 -0.5720
  954MOL0     H28768   7.963   3.302   3.958  0.6190 -1.3002  1.6420
  954MOL0     H28769   8.067   3.219   3.847 -1.3399 -2.0609  0.3406
  954MOL0     H28770   7.988   3.416   3.725 -2.5366 -1.8767  2.2884
  954MOL0     H28771   8.151   3.463   3.773  0.0672 -1.8028 -4.0600
  954MOL0     H28772   8.863   3.399   4.185 -2.2165 -2.0222 -0.9262
  954MOL0     H28773   9.107   3.429   4.142 -1.4458 -0.5229 -1.9973
  954MOL0     H28774   9.412   3.604   4.122 -0.3500  0.1316  0.8641
  954MOL0     H28775   9.633   3.694   4.065 -2.6230  0.5882  0.7680
  954MOL0     H28776   9.593   4.431   3.371  1.0398  1.2670 -0.7924
  954MOL0     H28777   9.424   4.561   3.222 -2.0721  0.6899  0.5535
  954MOL0     H28778   8.916   4.663   3.047  0.1889 -1.9759 -0.1365
  954MOL0     H28779   8.810   4.744   2.850  0.1690 -1.1726  0.5997
  954MOL0     H28780   8.717   4.790   2.596 -0.2254  0.4063 -0.6899
  954MOL0     H28781   8.787   4.889   2.701  1.1541 -2.1410  0.8030
  954MOL0     H28782   8.930   5.014   2.529 -0.5165  0.8790  0.2191
  954MOL0     H28783   8.757   5.020   2.504 -0.7068 -1.4066 -0.2469
  954MOL0     H28784   8.761   4.864   2.326 -1.4225  1.7044  0.5528
  954MOL0     H28785   8.922   4.800   2.379  0.2978  0.9162  1.1251
  954MOL0     H28786   8.910   4.911   2.163 -1.9735  2.5171 -0.9359
  954MOL0     H28787   9.021   4.994   2.281 -0.3315  1.0059  0.2051
  954MOL0     H28788   8.685   5.263   2.199  0.9081  0.7067 -0.1963
  954MOL0     H28789   9.160   4.670   2.628 -0.9531  1.5032 -0.3687
  954MOL0     H28790   9.253   4.536   2.822  1.3534  2.7867 -0.1823
  955MOL0     O28791  11.381   3.228   6.955 -0.4467  0.0426 -0.0872
  955MOL0     C28792  11.506   3.232   6.938  1.4587  0.5437  0.0682
  955MOL0     O28793  11.565   3.316   6.853  0.1504  0.5743 -0.3933
  955MOL0     C28794  11.515   3.360   6.731  0.2427  0.7917 -0.3120
  955MOL0     C28795  11.378   3.364   6.697  0.1780 -0.0725  0.6221
  955MOL0     C28796  11.348   3.415   6.569 -0.3516 -0.1872  0.6759
  955MOL0     C28797  11.446   3.467   6.483  0.3680  0.0799 -0.3809
  955MOL0     O28798  11.415   3.508   6.350  0.5592 -0.4226 -0.6235
  955MOL0     C28799  11.280   3.505   6.301 -0.0443 -0.5292 -0.4881
  955MOL0     C28800  11.263   3.570   6.154  0.3271 -0.0467  0.0297
  955MOL0     C28801  11.310   3.716   6.142  0.0388  0.1105  0.0827
  955MOL0     C28802  11.235   3.789   6.025  0.4135 -0.4189  0.6427
  955MOL0     C28803  11.316   3.826   5.895 -0.7701 -0.5535  0.0439
  955MOL0     C28804  11.241   3.825   5.761  0.6178  0.6120 -0.7593
  955MOL0     C28805  11.335   3.825   5.641  0.9303 -0.3695  0.0896
  955MOL0     C28806  11.421   3.707   5.607  0.0444 -1.2583  0.6521
  955MOL0     N28807  11.346   3.581   5.613  0.0217  0.4187 -1.3705
  955MOL0     C28808  11.235   3.547   5.536 -0.5619 -0.9048  0.0951
  955MOL0     C28809  11.194   3.430   5.600 -0.0073 -0.5369 -1.0126
  955MOL0     C28810  11.055   3.362   5.580 -0.0372  0.9236  0.1966
  955MOL0     C28811  11.042   3.282   5.451 -0.0222 -0.9346 -0.0320
  955MOL0     C28812  10.927   3.184   5.461 -0.6233  0.2619  0.1444
  955MOL0     C28813  10.786   3.252   5.476 -0.3484  0.2849  0.1938
  955MOL0     O28814  10.690   3.176   5.402 -0.2703 -0.1708  0.2303
  955MOL0     C28815  10.558   3.217   5.413 -0.3864 -0.0168  0.0215
  955MOL0     C28816  10.515   3.337   5.490 -0.0071  0.5789 -0.5011
  955MOL0     C28817  10.377   3.372   5.492  0.7831 -0.4759 -1.1220
  955MOL0     C28818  10.338   3.481   5.584 -0.4565  0.1534  0.2800
  955MOL0     C28819  10.291   3.302   5.402 -0.6844  0.4079 -0.4352
  955MOL0     C28820  10.148   3.337   5.394 -0.2085 -0.4481  0.2038
  955MOL0     O28821  10.115   3.467   5.401 -0.0572 -0.3388 -0.1002
  955MOL0     C28822   9.992   3.523   5.369 -0.3037 -0.0084  1.2881
  955MOL0     C28823   9.989   3.664   5.353  0.3211 -0.1467 -0.4958
  955MOL0     C28824   9.874   3.736   5.312 -0.2572 -0.4176  0.2626
  955MOL0     C28825   9.753   3.666   5.294 -0.0841  0.1661  0.6067
  955MOL0     O28826   9.645   3.741   5.256 -0.6246  0.0960  0.3289
  955MOL0     C28827   9.653   3.772   5.112  0.3308 -0.6075  0.1183
  955MOL0     C28828   9.513   3.780   5.053  0.4723  0.5812  0.2803
  955MOL0     C28829   9.498   3.799   4.895 -0.9701 -0.3584  0.3435
  955MOL0     C28830   9.608   3.726   4.811  0.6306 -0.1009 -0.0452
  955MOL0     C28831   9.581   3.699   4.666  0.0817  0.6973 -0.2408
  955MOL0     C28832   9.511   3.807   4.586 -0.1201 -0.5791 -0.2831
  955MOL0     C28833   9.479   3.756   4.438 -0.2814  0.2587 -0.1465
  955MOL0     C28834   9.351   3.817   4.377 -0.1960 -1.0303 -0.6983
  955MOL0    Cl28835   9.373   4.004   4.341  0.1465  0.2191  0.0780
  955MOL0     C28836   9.743   3.528   5.312 -1.0320 -0.8487 -0.0622
  955MOL0     C28837   9.863   3.453   5.348 -0.0855 -0.3671 -0.2521
  955MOL0     O28838  10.066   3.245   5.368 -0.0434 -0.1260 -0.5554
  955MOL0     C28839  10.345   3.206   5.312  0.8362 -1.1462  0.0029
  955MOL0     C28840  10.476   3.163   5.314  0.0076 -0.0103  0.0468
  955MOL0     N28841  11.283   3.401   5.705  0.2832  0.9163 -0.7435
  955MOL0     N28842  11.369   3.493   5.709 -0.0661  0.1501  0.2421
  955MOL0     C28843  11.583   3.461   6.534  0.7251 -0.1458  1.2508
  955MOL0     C28844  11.613   3.409   6.655 -0.7129  0.2017  0.2500
  955MOL0     C28845  11.587   3.131   7.011  0.3925 -0.2486 -0.1996
  955MOL0     C28846  11.542   3.104   7.141  0.2641 -0.0231  0.7445
  955MOL0     C28847  11.624   3.010   7.211  0.0986  0.6399  0.4981
  955MOL0     C28848  11.740   2.957   7.157 -0.7226 -0.4174  0.3228
  955MOL0     O28849  11.801   2.869   7.236 -0.1445 -0.6284  0.3076
  955MOL0     C28850  11.937   2.831   7.208 -0.5103  0.5277 -0.0779
  955MOL0     C28851  12.002   2.803   7.353  0.1969  0.3115  0.0355
  955MOL0     C28852  12.140   2.735   7.319  1.0103 -0.5773  0.2243
  955MOL0     C28853  12.210   2.667   7.432 -0.3369  0.3836 -0.2349
  955MOL0     C28854  12.340   2.607   7.388 -0.4568 -0.0308 -0.0558
  955MOL0     C28855  12.438   2.557   7.343  0.1227  0.1221  0.9088
  955MOL0     C28856  11.792   3.004   7.032  0.5863 -0.1311  0.8332
  955MOL0     C28857  11.704   3.088   6.959  0.0352 -0.1766 -0.2570
  955MOL0     H28858  11.302   3.342   6.771  0.9846 -1.1153  1.1689
  955MOL0     H28859  11.247   3.392   6.538 -0.0988 -0.8498  0.3236
  955MOL0     H28860  11.274   3.397   6.288  0.4431 -0.6315  0.0717
  955MOL0     H28861  11.208   3.537   6.376 -0.3352  0.2780 -1.0963
  955MOL0     H28862  11.328   3.514   6.085  0.0161 -0.6445  0.2093
  955MOL0     H28863  11.161   3.551   6.117  1.0205 -2.3465 -0.9205
  955MOL0     H28864  11.290   3.778   6.229  1.9368  6.6119 -3.4712
  955MOL0     H28865  11.419   3.727   6.134  0.2243 -1.9007 -0.8484
  955MOL0     H28866  11.153   3.724   5.993  2.1251 -0.8020 -3.5556
  955MOL0     H28867  11.197   3.886   6.058  0.4745  0.5358 -1.8763
  955MOL0     H28868  11.376   3.917   5.904 -0.3846 -0.8234  0.2267
  955MOL0     H28869  11.388   3.745   5.877  0.6236  0.8421 -0.9718
  955MOL0     H28870  11.161   3.750   5.756  0.3102  0.8817 -0.0407
  955MOL0     H28871  11.183   3.917   5.762  0.5299  0.5603 -1.0336
  955MOL0     H28872  11.270   3.840   5.554 -0.0041  2.4529  1.1483
  955MOL0     H28873  11.405   3.907   5.658 -0.4605  1.2331 -1.4778
  955MOL0     H28874  11.500   3.703   5.683 -0.6487 -0.7997  1.4067
  955MOL0     H28875  11.476   3.724   5.514  2.5425 -0.1943  2.2102
  955MOL0     H28876  11.198   3.597   5.447  0.0351  1.3684  1.0500
  955MOL0     H28877  11.033   3.295   5.663  0.1584 -4.2398 -3.4353
  955MOL0     H28878  10.974   3.435   5.584 -0.1779  0.7812 -0.0354
  955MOL0     H28879  11.128   3.223   5.419 -1.2190 -2.4950 -0.5250
  955MOL0     H28880  11.027   3.352   5.369  1.7554 -0.6230 -0.1162
  955MOL0     H28881  10.949   3.106   5.534  2.1075 -0.7408 -1.6029
  955MOL0     H28882  10.925   3.130   5.367  1.3051 -0.0625  0.2498
  955MOL0     H28883  10.786   3.348   5.423  1.0253 -0.4557 -1.2590
  955MOL0     H28884  10.753   3.266   5.579 -1.6615  0.2720 -0.2116
  955MOL0     H28885  10.593   3.386   5.548  3.4235 -2.4995 -2.0704
  955MOL0     H28886  10.236   3.455   5.613 -0.8493  1.6183  0.2860
  955MOL0     H28887  10.399   3.475   5.675 -0.3486 -3.5497  0.1403
  955MOL0     H28888  10.336   3.581   5.540  3.0355 -0.2521 -1.1627
  955MOL0     H28889  10.085   3.712   5.371 -1.2076  2.6304  0.9114
  955MOL0     H28890   9.883   3.843   5.296 -1.4995 -0.4468 -0.8282
  955MOL0     H28891   9.700   3.870   5.125 -2.2664  0.3545  4.1681
  955MOL0     H28892   9.725   3.710   5.057  2.0123  1.4429 -0.1505
  955MOL0     H28893   9.470   3.682   5.078  0.5421  0.1590 -1.1398
  955MOL0     H28894   9.473   3.869   5.101  1.7487  2.3211 -1.7176
  955MOL0     H28895   9.512   3.905   4.873 -0.3430 -0.5506 -0.2185
  955MOL0     H28896   9.400   3.774   4.854 -2.3484 -0.6968  3.4961
  955MOL0     H28897   9.688   3.800   4.817 -0.1866  0.7893  0.0914
  955MOL0     H28898   9.634   3.637   4.869  2.3679  0.9175  0.8228
  955MOL0     H28899   9.528   3.604   4.655 -0.9497  1.3709 -1.4111
  955MOL0     H28900   9.678   3.681   4.618 -0.2832 -4.9354  0.4298
  955MOL0     H28901   9.412   3.820   4.630 -0.8244 -4.0555 -0.5834
  955MOL0     H28902   9.561   3.904   4.591  0.5784 -0.9757  2.1719
  955MOL0     H28903   9.459   3.649   4.438 -1.2205  0.4097 -1.8655
  955MOL0     H28904   9.562   3.778   4.370  0.4060  1.1797  0.9351
  955MOL0     H28905   9.266   3.793   4.442 -1.6985  0.6072 -1.9612
  955MOL0     H28906   9.337   3.768   4.280 -0.4051 -2.2544 -0.0779
  955MOL0     H28907   9.642   3.489   5.305 -1.6054  0.5899 -0.0735
  955MOL0     H28908   9.843   3.348   5.366 -1.3089 -0.1474 -0.2476
  955MOL0     H28909  10.275   3.156   5.246 -1.3439  1.9687 -0.2859
  955MOL0     H28910  10.502   3.089   5.239  0.9223  0.6224 -0.2745
  955MOL0     H28911  11.663   3.498   6.472  0.0967  0.0521  0.5525
  955MOL0     H28912  11.715   3.410   6.691 -0.5152 -1.6797 -0.1374
  955MOL0     H28913  11.453   3.147   7.185  0.4914 -0.1984  1.3857
  955MOL0     H28914  11.593   2.983   7.312 -1.0503 -0.5711 -0.1466
  955MOL0     H28915  11.935   2.742   7.144 -1.0936 -1.1235  2.0787
  955MOL0     H28916  11.992   2.908   7.155  2.3152 -1.6057 -0.4925
  955MOL0     H28917  11.942   2.737   7.417 -0.8801  1.3944  0.1646
  955MOL0     H28918  12.013   2.899   7.405 -1.9282  0.3059  0.5763
  955MOL0     H28919  12.206   2.809   7.274 -1.5230  1.5306 -0.2741
  955MOL0     H28920  12.130   2.660   7.239  1.9176 -0.6511  0.1729
  955MOL0     H28921  12.146   2.586   7.468 -1.3892  1.8915  1.4778
  955MOL0     H28922  12.230   2.733   7.517 -0.0975  0.3824 -0.2899
  955MOL0     H28923  12.534   2.522   7.312 -1.0849 -0.9205 -1.9326
  955MOL0     H28924  11.882   2.961   6.989  0.6090 -1.1644  1.8717
  955MOL0     H28925  11.738   3.117   6.860  1.5951 -3.9022 -0.9921
  956MOL0     O28926   8.258   8.327  10.806  0.0140 -0.5467  0.5047
  956MOL0     C28927   8.288   8.443  10.776 -0.1455 -0.5088 -0.6960
  956MOL0     O28928   8.340   8.488  10.650  0.2773  0.7351 -0.1743
  956MOL0     C28929   8.384   8.404  10.550  0.3352  1.3914 -1.1653
  956MOL0     C28930   8.332   8.277  10.527  0.5716 -1.0185  0.4278
  956MOL0     C28931   8.382   8.202  10.420  0.7222  0.3834  0.5279
  956MOL0     C28932   8.487   8.252  10.341 -0.9435  1.0896 -0.4237
  956MOL0     O28933   8.537   8.187  10.230  0.1041  0.5612 -0.2937
  956MOL0     C28934   8.482   8.054  10.197 -0.3948 -0.5175 -0.6144
  956MOL0     C28935   8.557   7.985  10.076  0.5389 -1.3507 -0.2862
  956MOL0     C28936   8.692   7.909  10.112  0.4431 -0.0839  0.6888
  956MOL0     C28937   8.823   7.956  10.043 -0.3831  1.8105  0.7929
  956MOL0     C28938   8.929   7.844  10.051 -1.4444 -0.5350  0.2867
  956MOL0     C28939   9.046   7.886   9.950  0.2643 -0.0385 -0.4484
  956MOL0     C28940   9.038   7.862   9.795  0.6086 -0.6789 -0.5015
  956MOL0     C28941   9.143   7.954   9.727 -0.1282 -0.6749  0.4077
  956MOL0     N28942   9.283   7.935   9.753 -0.4869  0.3261 -1.1779
  956MOL0     C28943   9.366   7.848   9.696 -0.1753  0.2194  0.8926
  956MOL0     C28944   9.483   7.864   9.747 -0.4847 -0.4924 -0.1051
  956MOL0     C28945   9.614   7.803   9.693 -1.1519  0.6326  0.0813
  956MOL0     C28946   9.635   7.686   9.781  0.3851  0.1052  0.3422
  956MOL0     C28947   9.675   7.725   9.925 -0.5209 -0.3806 -0.2212
  956MOL0     C28948   9.832   7.727   9.938  0.3175 -0.2839 -0.0264
  956MOL0     O28949   9.914   7.601   9.961  0.2820 -0.4750 -0.1568
  956MOL0     C28950   9.977   7.555   9.849  0.7881  0.1135  0.0508
  956MOL0     C28951   9.970   7.418   9.832 -1.0447  0.4644  0.8926
  956MOL0     C28952  10.026   7.357   9.722  0.6680 -0.0056 -0.2119
  956MOL0     C28953  10.013   7.205   9.717 -0.2174 -0.2264 -0.3226
  956MOL0     C28954  10.079   7.439   9.616 -0.6590 -0.2524  0.0786
  956MOL0     C28955  10.142   7.372   9.493  0.6484 -0.5950 -0.0831
  956MOL0     O28956  10.242   7.448   9.429  0.6307 -0.1263  0.1816
  956MOL0     C28957  10.286   7.401   9.309 -0.6412 -1.0396  0.7004
  956MOL0     C28958  10.223   7.435   9.190  0.4460 -0.1474  0.2135
  956MOL0     C28959  10.263   7.388   9.063  0.4137 -0.0339 -0.7731
  956MOL0     C28960  10.374   7.298   9.061 -0.3669 -0.5705  0.1350
  956MOL0     O28961  10.414   7.232   8.942 -0.5376 -1.2245  0.1874
  956MOL0     C28962  10.548   7.187   8.932  0.0261  0.6470  0.2423
  956MOL0     C28963  10.588   7.155   8.789 -0.0048 -0.2714  1.0684
  956MOL0     C28964  10.583   7.003   8.753 -0.2200  0.1329  1.2904
  956MOL0     C28965  10.691   6.927   8.828  0.3676  0.3304 -0.2382
  956MOL0     C28966  10.736   6.795   8.769  0.1009  0.3023  0.4193
  956MOL0     C28967  10.845   6.717   8.850 -0.7138  0.3683 -0.0887
  956MOL0     C28968  10.883   6.587   8.777  0.6441 -0.0233 -0.4133
  956MOL0     C28969  10.763   6.487   8.764 -0.6981  0.4687 -0.7045
  956MOL0    Cl28970  10.810   6.318   8.731 -0.3012 -0.0509 -0.5461
  956MOL0     C28971  10.446   7.281   9.181  0.9722  0.5231 -0.2432
  956MOL0     C28972  10.408   7.330   9.307 -0.0342  0.1541  0.0153
  956MOL0     O28973  10.086   7.281   9.444  1.1728  0.3812 -0.4867
  956MOL0     C28974  10.092   7.576   9.637 -0.2828 -0.0312 -0.5909
  956MOL0     C28975  10.040   7.643   9.751  0.5627  0.1393  0.5389
  956MOL0     N28976   9.475   7.962   9.844 -0.6457 -0.2828  1.4045
  956MOL0     N28977   9.353   8.010   9.840 -0.7188  0.2033 -0.2289
  956MOL0     C28978   8.546   8.375  10.379  0.2354  1.1580 -0.0688
  956MOL0     C28979   8.497   8.448  10.481  0.3393 -0.3073 -1.3432
  956MOL0     C28980   8.254   8.549  10.879  0.7246  1.4325  0.1146
  956MOL0     C28981   8.233   8.679  10.843  0.3032 -0.4829 -0.0954
  956MOL0     C28982   8.230   8.790  10.927  0.8871 -0.2775 -0.2795
  956MOL0     C28983   8.237   8.759  11.069 -0.2927  0.2130  0.2501
  956MOL0     O28984   8.225   8.860  11.153 -0.0686 -0.0980 -0.6439
  956MOL0     C28985   8.336   8.923  11.212  0.6926 -1.0001 -0.7229
  956MOL0     C28986   8.405   8.853  11.336  0.5010 -0.2753  1.5736
  956MOL0     C28987   8.293   8.828  11.437 -1.1491 -0.2290 -0.5466
  956MOL0     C28988   8.346   8.760  11.566 -0.7808 -1.4765 -0.9162
  956MOL0     C28989   8.241   8.674  11.617  0.1227 -0.1971  0.0654
  956MOL0     C28990   8.144   8.620  11.661 -0.6027  0.5012  0.8971
  956MOL0     C28991   8.239   8.625  11.113 -0.1110  1.1846 -0.0850
  956MOL0     C28992   8.247   8.521  11.017  0.5974  0.3895  0.1246
  956MOL0     H28993   8.242   8.247  10.580  1.4179 -0.2706  2.3545
  956MOL0     H28994   8.328   8.108  10.413  0.5704  0.4660  0.6020
  956MOL0     H28995   8.485   7.986  10.282  0.1081 -2.3192 -2.0103
  956MOL0     H28996   8.378   8.075  10.169  0.1198  0.5102 -1.8695
  956MOL0     H28997   8.483   7.921  10.027 -1.3557 -0.4373  1.2379
  956MOL0     H28998   8.578   8.067  10.006  2.6744 -1.5556  0.0401
  956MOL0     H28999   8.711   7.909  10.220 -0.9788  0.2987  0.9658
  956MOL0     H29000   8.688   7.805  10.080  1.8417  0.1173 -0.2401
  956MOL0     H29001   8.791   7.989   9.944 -0.8337  2.2329  1.0756
  956MOL0     H29002   8.851   8.051  10.090  4.5816  0.4122  1.3418
  956MOL0     H29003   8.976   7.856  10.149 -1.0582 -1.3824  0.2101
  956MOL0     H29004   8.890   7.743  10.036 -1.3061 -0.2138 -3.0898
  956MOL0     H29005   9.053   7.995   9.955  1.1757 -0.1058 -0.1120
  956MOL0     H29006   9.137   7.851   9.999 -0.4181 -0.1317  0.8018
  956MOL0     H29007   9.057   7.755   9.783  0.2936 -0.6717 -1.0776
  956MOL0     H29008   8.940   7.884   9.753 -0.0662 -3.5612 -0.6618
  956MOL0     H29009   9.138   8.055   9.768  0.9176 -1.3378  2.3042
  956MOL0     H29010   9.118   7.953   9.620 -3.5834 -1.3659  1.1080
  956MOL0     H29011   9.331   7.780   9.619  0.4406  3.6161 -2.7411
  956MOL0     H29012   9.614   7.772   9.588 -1.0670 -1.9765  0.7846
  956MOL0     H29013   9.700   7.869   9.704  0.4482 -0.9969 -1.8230
  956MOL0     H29014   9.683   7.608   9.721 -1.1939 -3.0381  2.8308
  956MOL0     H29015   9.533   7.646   9.783  0.0922  0.6684 -1.5407
  956MOL0     H29016   9.622   7.660   9.996 -1.8986  0.8690 -0.0536
  956MOL0     H29017   9.648   7.828   9.952 -0.4544 -1.0627  2.8026
  956MOL0     H29018   9.848   7.779  10.033 -2.2337 -0.7909  0.7427
  956MOL0     H29019   9.864   7.793   9.857  0.3973 -2.2393 -1.6692
  956MOL0     H29020   9.929   7.351   9.907 -1.1410 -1.2226 -0.6181
  956MOL0     H29021   9.925   7.174   9.659 -1.2741 -1.7496  1.9068
  956MOL0     H29022  10.105   7.156   9.684  0.8936 -0.9095  3.2656
  956MOL0     H29023  10.010   7.165   9.819 -2.9595 -2.2842 -1.0817
  956MOL0     H29024  10.129   7.490   9.195  0.6364  0.4079 -1.4906
  956MOL0     H29025  10.203   7.421   8.979  0.3848  0.1736 -0.6729
  956MOL0     H29026  10.620   7.263   8.962  2.4154 -1.5014  0.3312
  956MOL0     H29027  10.567   7.097   8.992  0.4023  1.4479  1.3567
  956MOL0     H29028  10.523   7.208   8.719  1.7728  1.7969  0.8632
  956MOL0     H29029  10.687   7.199   8.773 -0.9696  1.5013 -0.3204
  956MOL0     H29030  10.606   6.996   8.647  2.2303  1.3302  1.6571
  956MOL0     H29031  10.484   6.959   8.768  0.0045 -0.5956  0.6365
  956MOL0     H29032  10.786   6.982   8.821  2.7422 -3.5931 -2.6273
  956MOL0     H29033  10.661   6.908   8.931 -1.4964  1.5929 -0.5117
  956MOL0     H29034  10.785   6.826   8.676 -3.2791 -0.6861 -1.9040
  956MOL0     H29035  10.647   6.732   8.756 -1.3946  1.9622  2.1309
  956MOL0     H29036  10.935   6.778   8.860 -0.8134  0.3235  1.2315
  956MOL0     H29037  10.806   6.688   8.948  1.5917 -0.9577  0.5102
  956MOL0     H29038  10.980   6.545   8.804 -0.3197 -0.9490  1.9293
  956MOL0     H29039  10.890   6.613   8.672 -3.1644  1.8541 -0.3790
  956MOL0     H29040  10.694   6.514   8.684 -2.3660 -1.2589  0.0963
  956MOL0     H29041  10.709   6.487   8.859  1.1113  0.1151  0.3785
  956MOL0     H29042  10.536   7.221   9.193  0.1856 -0.7861 -0.7334
  956MOL0     H29043  10.472   7.308   9.391  1.5578  0.1142 -1.1578
  956MOL0     H29044  10.127   7.648   9.564 -1.2234 -0.9748 -2.0193
  956MOL0     H29045  10.042   7.751   9.747  2.1049  0.2053  2.2169
  956MOL0     H29046   8.639   8.408  10.332 -0.3055  1.3474 -1.0227
  956MOL0     H29047   8.555   8.530  10.521 -2.0724  2.5229 -3.2099
  956MOL0     H29048   8.232   8.704  10.737  0.3798 -0.1821 -0.0267
  956MOL0     H29049   8.206   8.890  10.894 -2.2063 -1.2429 -1.2455
  956MOL0     H29050   8.403   8.954  11.131 -1.2634  2.3812 -1.2669
  956MOL0     H29051   8.297   9.021  11.242 -0.2039 -1.8966  1.1865
  956MOL0     H29052   8.487   8.912  11.377  1.5748 -2.5734  2.9517
  956MOL0     H29053   8.450   8.758  11.306  0.5566 -0.0782  1.0213
  956MOL0     H29054   8.211   8.770  11.393  0.0710 -3.3991  1.0782
  956MOL0     H29055   8.245   8.917  11.480  0.9453 -0.4227  2.4977
  956MOL0     H29056   8.369   8.828  11.649 -1.8797 -0.4135 -1.4483
  956MOL0     H29057   8.431   8.696  11.538  0.8815 -0.2070  0.9624
  956MOL0     H29058   8.054   8.580  11.702 -0.4443 -0.9024 -0.0759
  956MOL0     H29059   8.241   8.597  11.218 -1.3278 -0.7186 -0.5109
  956MOL0     H29060   8.263   8.420  11.055  1.4487  1.0897  1.7174
  957MOL0     O29061   6.111   1.347   3.343  0.5639  0.0606 -0.8153
  957MOL0     C29062   6.032   1.277   3.408 -0.3607 -0.3763  0.5253
  957MOL0     O29063   6.043   1.146   3.446 -0.8281  0.1710 -0.0211
  957MOL0     C29064   6.123   1.065   3.371  0.4919  0.0194  1.0211
  957MOL0     C29065   6.203   0.973   3.446  0.1850  0.5370 -0.6376
  957MOL0     C29066   6.289   0.886   3.380  0.2010  0.5773 -0.3123
  957MOL0     C29067   6.291   0.891   3.239 -0.2070  0.1936  0.3412
  957MOL0     O29068   6.365   0.807   3.156 -0.4058  1.0695 -0.4901
  957MOL0     C29069   6.401   0.672   3.202 -0.7207 -0.1098 -0.8724
  957MOL0     C29070   6.291   0.570   3.174  0.4551  0.7720  0.5075
  957MOL0     C29071   6.326   0.415   3.177  0.6899 -0.3803 -0.8941
  957MOL0     C29072   6.445   0.370   3.261  0.5336 -0.5387  0.7552
  957MOL0     C29073   6.512   0.239   3.224  0.6720 -0.3550 -0.1583
  957MOL0     C29074   6.638   0.264   3.138  0.2169 -0.1600 -0.2733
  957MOL0     C29075   6.713   0.128   3.122  0.3948  0.3085  0.3210
  957MOL0     C29076   6.851   0.137   3.067 -0.0811  0.1871  1.0756
  957MOL0     N29077   6.928   0.016   3.058 -0.0318  0.3999 -0.4130
  957MOL0     C29078   7.051   0.011   3.001 -0.4414 -0.9082 -0.5998
  957MOL0     C29079   7.099  -0.115   3.032 -0.4237 -0.3026 -0.6249
  957MOL0     C29080   7.236  -0.161   2.992 -0.1047  0.5054 -0.8143
  957MOL0     C29081   7.349  -0.146   3.107  0.2850  0.4171  0.6828
  957MOL0     C29082   7.483  -0.221   3.066  0.1624 -0.4323 -0.0360
  957MOL0     C29083   7.541  -0.185   2.932 -1.3234  0.6803  0.4410
  957MOL0     O29084   7.659  -0.264   2.934  0.6745 -0.8932  0.5449
  957MOL0     C29085   7.768  -0.222   2.999 -0.3541  0.1084 -0.0224
  957MOL0     C29086   7.879  -0.309   3.002  0.9260 -0.2629 -0.5065
  957MOL0     C29087   7.998  -0.275   3.076 -0.5425  0.2400  0.0610
  957MOL0     C29088   8.118  -0.353   3.049  0.0177  0.1240 -0.3406
  957MOL0     C29089   7.999  -0.161   3.157  0.1724  0.2714 -0.0349
  957MOL0     C29090   8.118  -0.114   3.228 -0.0988 -0.8985 -0.7179
  957MOL0     O29091   8.201  -0.034   3.150 -0.1105  0.2627  0.4385
  957MOL0     C29092   8.302   0.037   3.210 -0.6038  0.3563  0.0501
  957MOL0     C29093   8.270   0.130   3.309 -0.2253  0.6172 -0.3522
  957MOL0     C29094   8.366   0.222   3.346  0.4166  0.3458 -0.0814
  957MOL0     C29095   8.492   0.224   3.296 -0.4709 -0.1878  0.1176
  957MOL0     O29096   8.566   0.330   3.334  1.0080 -0.1580 -0.1502
  957MOL0     C29097   8.709   0.321   3.328  0.0918  0.2460  0.7671
  957MOL0     C29098   8.771   0.421   3.440  0.8786 -0.4356 -1.0538
  957MOL0     C29099   8.925   0.423   3.460  0.3700 -0.0072 -0.4001
  957MOL0     C29100   9.019   0.370   3.354 -0.6601 -0.2891  0.6824
  957MOL0     C29101   9.177   0.365   3.392  0.4996  1.1853  0.4847
  957MOL0     C29102   9.205   0.293   3.525 -0.1148 -0.1345 -0.7355
  957MOL0     C29103   9.187   0.149   3.519 -0.5888 -0.1429 -0.5757
  957MOL0     C29104   9.230   0.086   3.662  0.2187  0.1602  0.6151
  957MOL0    Cl29105   9.187  -0.087   3.668 -0.3196  0.0659 -0.1020
  957MOL0     C29106   8.532   0.123   3.210  0.5744  0.4404  1.2900
  957MOL0     C29107   8.437   0.024   3.165 -0.1653 -0.3958  0.2943
  957MOL0     O29108   8.131  -0.142   3.343 -1.0170  0.0782 -0.7570
  957MOL0     C29109   7.884  -0.081   3.156  0.1034 -0.2748 -0.4154
  957MOL0     C29110   7.772  -0.107   3.086  0.3974 -0.3603  0.4377
  957MOL0     N29111   7.008  -0.185   3.108 -0.1194 -0.3233  0.1916
  957MOL0     N29112   6.907  -0.102   3.122 -1.6016  0.0234 -0.1489
  957MOL0     C29113   6.207   0.980   3.164  0.3105 -0.0673  0.8682
  957MOL0     C29114   6.125   1.069   3.236 -0.2528  0.3833  0.5614
  957MOL0     C29115   5.924   1.346   3.483  0.2596 -0.3871  0.3427
  957MOL0     C29116   5.821   1.271   3.544  0.6445 -0.6002 -0.7091
  957MOL0     C29117   5.706   1.341   3.583 -0.1807 -0.3445 -0.0099
  957MOL0     C29118   5.693   1.480   3.572 -0.4282  0.2681  0.8840
  957MOL0     O29119   5.572   1.530   3.596  0.3137 -0.0174 -0.4782
  957MOL0     C29120   5.564   1.604   3.714 -0.1784  0.3495  0.7038
  957MOL0     C29121   5.436   1.571   3.789 -0.1594 -0.7719 -0.0853
  957MOL0     C29122   5.462   1.457   3.893 -0.9170 -0.1894 -0.5441
  957MOL0     C29123   5.338   1.420   3.965 -0.0374  0.8034 -0.3130
  957MOL0     C29124   5.303   1.528   4.053 -1.2952  0.4053  0.6328
  957MOL0     C29125   5.269   1.628   4.112  0.1594 -0.4925 -0.2905
  957MOL0     C29126   5.797   1.554   3.534  0.1205 -0.2372 -0.0735
  957MOL0     C29127   5.915   1.484   3.483  0.2856 -0.3033 -0.9127
  957MOL0     H29128   6.208   0.970   3.554 -0.7952  0.7138 -0.5782
  957MOL0     H29129   6.339   0.820   3.450 -2.1046  0.9117  1.7667
  957MOL0     H29130   6.483   0.634   3.139  0.3117  0.1216  0.2996
  957MOL0     H29131   6.430   0.670   3.307 -0.1197 -1.3689 -1.0396
  957MOL0     H29132   6.212   0.599   3.244 -0.3881 -3.0852  1.4028
  957MOL0     H29133   6.257   0.592   3.073 -0.6887 -0.1206  0.6673
  957MOL0     H29134   6.233   0.370   3.214  0.2516 -1.2727 -2.9187
  957MOL0     H29135   6.343   0.394   3.071  2.5864  1.1780 -0.9399
  957MOL0     H29136   6.527   0.441   3.243  1.4584 -2.2270 -2.4205
  957MOL0     H29137   6.425   0.387   3.368 -0.2821  0.2900  0.4764
  957MOL0     H29138   6.534   0.171   3.307  1.7636  0.2482  0.0716
  957MOL0     H29139   6.433   0.189   3.167  0.2283  1.2288 -0.9996
  957MOL0     H29140   6.594   0.300   3.045  0.0422 -0.3429 -0.2614
  957MOL0     H29141   6.713   0.335   3.174  0.6918  1.0059 -3.2517
  957MOL0     H29142   6.708   0.060   3.208 -1.0128 -1.6169 -1.1981
  957MOL0     H29143   6.655   0.077   3.045  3.6324 -2.6818 -0.4273
  957MOL0     H29144   6.903   0.217   3.120 -1.8499  2.7892 -0.8902
  957MOL0     H29145   6.833   0.173   2.966 -3.1097  1.6888  2.0106
  957MOL0     H29146   7.098   0.091   2.945 -0.3689  0.3390  1.1871
  957MOL0     H29147   7.224  -0.267   2.968 -1.0664  0.3402  0.3530
  957MOL0     H29148   7.270  -0.099   2.908  1.9318  1.6881  0.7872
  957MOL0     H29149   7.318  -0.191   3.202  2.3771  2.1266  2.2940
  957MOL0     H29150   7.373  -0.043   3.137  3.2097 -0.4489  1.6213
  957MOL0     H29151   7.471  -0.330   3.068  2.2368 -0.6849  0.7096
  957MOL0     H29152   7.556  -0.201   3.145  0.9989 -2.9666 -0.0866
  957MOL0     H29153   7.569  -0.082   2.908 -2.7255  0.4874 -2.3705
  957MOL0     H29154   7.472  -0.211   2.852  1.8663  1.4786 -2.8406
  957MOL0     H29155   7.886  -0.405   2.951  1.4685 -0.1203 -0.7123
  957MOL0     H29156   8.143  -0.351   2.943  2.6909  4.6963  0.1128
  957MOL0     H29157   8.211  -0.315   3.091  0.2966  0.7382 -1.4789
  957MOL0     H29158   8.114  -0.458   3.081  1.8217 -0.7237 -2.6089
  957MOL0     H29159   8.168   0.124   3.344 -1.3621  0.6290 -3.3835
  957MOL0     H29160   8.357   0.293   3.428  1.8400 -0.4109  0.7608
  957MOL0     H29161   8.751   0.222   3.346 -1.6864 -0.4293  1.4560
  957MOL0     H29162   8.723   0.353   3.224  2.9354 -1.9030  0.3842
  957MOL0     H29163   8.731   0.523   3.440  2.4185  0.2210  0.0062
  957MOL0     H29164   8.727   0.374   3.528  0.6550  1.8672  0.1444
  957MOL0     H29165   8.932   0.368   3.555 -0.6912  2.4847  1.2158
  957MOL0     H29166   8.962   0.522   3.490 -1.2487  0.5377 -0.1388
  957MOL0     H29167   8.998   0.268   3.321  2.1053 -0.3533 -1.2319
  957MOL0     H29168   9.016   0.439   3.269  3.3870 -1.2810 -0.5152
  957MOL0     H29169   9.214   0.468   3.389 -0.5798  1.6282 -2.9693
  957MOL0     H29170   9.233   0.321   3.309 -1.3361  2.2186 -1.4360
  957MOL0     H29171   9.309   0.307   3.557  0.2407 -1.0656 -1.4551
  957MOL0     H29172   9.146   0.343   3.603  1.8358  0.7330  0.2508
  957MOL0     H29173   9.253   0.112   3.440 -0.1171  0.9336 -0.7025
  957MOL0     H29174   9.080   0.133   3.507 -0.4817 -2.0189  0.5126
  957MOL0     H29175   9.190   0.143   3.747  1.7842  0.4578  1.1861
  957MOL0     H29176   9.338   0.098   3.672  0.1764  0.0276  1.2747
  957MOL0     H29177   8.630   0.130   3.164  0.4823  0.9590  1.1568
  957MOL0     H29178   8.473  -0.039   3.085  2.0326  1.4813 -0.3292
  957MOL0     H29179   7.888   0.004   3.223 -0.9639 -0.4734 -0.0905
  957MOL0     H29180   7.688  -0.041   3.103  0.3354  0.2392 -1.9491
  957MOL0     H29181   6.208   0.980   3.055  1.4359 -0.9214  0.8673
  957MOL0     H29182   6.050   1.130   3.186  1.3514  1.6617 -0.3608
  957MOL0     H29183   5.820   1.162   3.552 -1.4712 -0.6150 -0.6449
  957MOL0     H29184   5.623   1.285   3.625  3.3409 -3.4447  3.6939
  957MOL0     H29185   5.649   1.605   3.783  0.0600  5.9867  0.8097
  957MOL0     H29186   5.557   1.711   3.690 -1.4462  0.5338  1.8091
  957MOL0     H29187   5.350   1.553   3.724 -0.4772  0.1911  0.0501
  957MOL0     H29188   5.403   1.656   3.849  0.9400  1.2018 -2.1356
  957MOL0     H29189   5.538   1.478   3.969 -0.3802  0.8666 -1.3561
  957MOL0     H29190   5.505   1.370   3.842  0.6846  1.9424 -3.0300
  957MOL0     H29191   5.362   1.335   4.029 -1.5592 -0.1337 -0.9325
  957MOL0     H29192   5.256   1.393   3.898 -2.7539 -0.2185  3.1063
  957MOL0     H29193   5.228   1.704   4.175  2.5906  2.4463 -1.9720
  957MOL0     H29194   5.792   1.661   3.515 -0.8790 -0.1362  0.6651
  957MOL0     H29195   5.989   1.549   3.437 -0.8065  1.2474 -0.5610
  958MOL0     O29196   5.583   0.511   3.566  0.0907  0.1915 -0.2534
  958MOL0     C29197   5.475   0.498   3.623  0.0985  0.2277 -0.1240
  958MOL0     O29198   5.455   0.478   3.758 -0.0854 -0.2191  0.4591
  958MOL0     C29199   5.564   0.437   3.832  0.7674  0.1980  0.4744
  958MOL0     C29200   5.576   0.296   3.834  0.8204 -0.2836  0.6221
  958MOL0     C29201   5.671   0.234   3.907 -0.3037  0.2016 -0.3611
  958MOL0     C29202   5.760   0.312   3.979  0.2560 -1.4486  0.5007
  958MOL0     O29203   5.859   0.247   4.047 -0.6951 -0.2241 -0.4920
  958MOL0     C29204   5.808   0.162   4.156  0.4345 -0.6195  0.7747
  958MOL0     C29205   5.858   0.219   4.285 -0.6327 -0.5361 -2.0382
  958MOL0     C29206   5.808   0.140   4.406  0.6057  0.1353 -1.1429
  958MOL0     C29207   5.860   0.202   4.536 -0.7925  0.0487 -0.0075
  958MOL0     C29208   5.793   0.159   4.667  0.0613 -0.0280  0.3829
  958MOL0     C29209   5.794   0.001   4.678  0.8635 -0.9754  0.3871
  958MOL0     C29210   5.659  -0.065   4.698 -0.4681  0.1959  0.2976
  958MOL0     C29211   5.674  -0.225   4.729 -1.2368 -0.2381  0.9109
  958MOL0     N29212   5.736  -0.256   4.854 -0.1736 -0.4781 -0.2372
  958MOL0     C29213   5.662  -0.276   4.964 -1.2207 -0.5118 -0.0057
  958MOL0     C29214   5.742  -0.312   5.061  0.2789  0.6062  0.4836
  958MOL0     C29215   5.684  -0.331   5.206  0.4718  0.6997  0.4680
  958MOL0     C29216   5.772  -0.277   5.317  0.1176 -0.5285  0.4523
  958MOL0     C29217   5.906  -0.354   5.335  0.9396 -1.2845  0.5854
  958MOL0     C29218   6.044  -0.281   5.338  0.0755  0.6368  0.4543
  958MOL0     O29219   6.089  -0.278   5.471 -0.1168 -0.2086  0.4878
  958MOL0     C29220   6.196  -0.184   5.495 -0.1768  1.1583 -1.1362
  958MOL0     C29221   6.186  -0.080   5.570 -0.4355 -0.2176 -0.2118
  958MOL0     C29222   6.292   0.013   5.607 -0.3888 -0.0000  0.2863
  958MOL0     C29223   6.258   0.131   5.709  0.3704  0.1092  0.3380
  958MOL0     C29224   6.424  -0.017   5.555  0.6352  1.1647 -0.4553
  958MOL0     C29225   6.546   0.060   5.580 -1.1508 -0.0768 -0.2400
  958MOL0     O29226   6.671   0.003   5.553  0.1747  0.4998 -0.2350
  958MOL0     C29227   6.788   0.052   5.586 -1.4625 -0.0917 -0.6594
  958MOL0     C29228   6.902  -0.029   5.567 -0.2015  1.6085 -0.4616
  958MOL0     C29229   7.027   0.019   5.602 -0.1850 -0.0675  0.5155
  958MOL0     C29230   7.043   0.144   5.664  0.6805  0.8050  1.1619
  958MOL0     O29231   7.174   0.171   5.684  0.3377  0.4857  0.0536
  958MOL0     C29232   7.189   0.297   5.757 -0.3109 -0.6464  0.0926
  958MOL0     C29233   7.196   0.423   5.665 -0.0701  0.3798  0.1274
  958MOL0     C29234   7.280   0.419   5.535  0.0032 -0.4889  0.7605
  958MOL0     C29235   7.211   0.346   5.422 -0.8895 -0.4896  0.4590
  958MOL0     C29236   7.309   0.355   5.306 -0.7264  0.7408  0.5735
  958MOL0     C29237   7.277   0.245   5.207 -0.0927 -0.2736  0.1692
  958MOL0     C29238   7.152   0.277   5.114  0.0698 -0.1831 -0.0683
  958MOL0     C29239   7.031   0.183   5.135  0.0201  0.1037 -0.0399
  958MOL0    Cl29240   6.924   0.236   5.277 -0.1860  0.3326 -0.8846
  958MOL0     C29241   6.936   0.228   5.670  0.0259  1.1200 -0.7541
  958MOL0     C29242   6.806   0.183   5.637 -0.5308  0.0655 -0.4764
  958MOL0     O29243   6.522   0.182   5.583 -1.1798 -0.6236  0.2706
  958MOL0     C29244   6.437  -0.136   5.483 -0.5271  0.4671  1.3114
  958MOL0     C29245   6.321  -0.209   5.439 -0.1869  0.1900 -1.0457
  958MOL0     N29246   5.865  -0.327   5.001  0.8761 -0.2571 -0.3688
  958MOL0     N29247   5.863  -0.284   4.882  1.2685 -0.7731  0.1045
  958MOL0     C29248   5.752   0.451   3.970 -0.6841  0.4579 -0.3551
  958MOL0     C29249   5.653   0.513   3.900  0.9093  0.1188 -0.6620
  958MOL0     C29250   5.360   0.491   3.527  0.0753  1.1960 -1.5575
  958MOL0     C29251   5.230   0.451   3.566 -0.2974 -0.3403 -0.4182
  958MOL0     C29252   5.135   0.409   3.475 -0.6052  0.2646 -0.6523
  958MOL0     C29253   5.156   0.413   3.337 -0.7134  0.0996 -0.7017
  958MOL0     O29254   5.054   0.347   3.262 -0.1227 -0.4418  0.1602
  958MOL0     C29255   5.077   0.341   3.117  1.0219 -0.0858 -0.5427
  958MOL0     C29256   4.939   0.347   3.048  0.0955  0.2567  0.6687
  958MOL0     C29257   4.865   0.478   3.062 -0.2321 -0.4165  0.8251
  958MOL0     C29258   4.729   0.486   2.993  0.6211  0.6283  0.2734
  958MOL0     C29259   4.713   0.460   2.853  0.6429  0.1228  0.1338
  958MOL0     C29260   4.682   0.457   2.736  0.2581 -0.6454 -0.5398
  958MOL0     C29261   5.287   0.453   3.299 -0.1573 -0.8634 -0.1959
  958MOL0     C29262   5.388   0.484   3.395 -0.6395  0.5991  0.6293
  958MOL0     H29263   5.518   0.237   3.763  0.8920 -0.4985  0.7420
  958MOL0     H29264   5.684   0.126   3.904  2.3366  0.4008  1.0345
  958MOL0     H29265   5.702   0.140   4.142  0.8553 -2.1578 -0.2584
  958MOL0     H29266   5.848   0.061   4.160 -0.8221 -1.1033  2.1718
  958MOL0     H29267   5.965   0.244   4.287 -0.4600 -1.2804 -1.3417
  958MOL0     H29268   5.806   0.314   4.301  0.1061 -0.5720  1.0539
  958MOL0     H29269   5.701   0.118   4.408  0.8676 -1.8766  3.9285
  958MOL0     H29270   5.836   0.035   4.397  1.6247  0.2405  0.4036
  958MOL0     H29271   5.963   0.164   4.535 -0.7264  0.2261 -0.8317
  958MOL0     H29272   5.850   0.311   4.531  1.0009  0.2278 -0.4027
  958MOL0     H29273   5.832   0.209   4.756 -0.2278 -1.7074  1.4870
  958MOL0     H29274   5.693   0.202   4.658  0.2747  0.9365  2.1752
  958MOL0     H29275   5.833  -0.036   4.582 -1.4179  0.8718 -1.3748
  958MOL0     H29276   5.863  -0.028   4.757 -1.4267 -4.8619  1.1994
  958MOL0     H29277   5.597  -0.019   4.776 -0.3702  0.0985  0.4319
  958MOL0     H29278   5.600  -0.042   4.608 -0.1953  0.0725  0.0892
  958MOL0     H29279   5.724  -0.276   4.647  0.2524  0.9832  1.0117
  958MOL0     H29280   5.574  -0.270   4.736 -0.2166 -2.4689  2.7152
  958MOL0     H29281   5.557  -0.251   4.975 -1.1906 -0.8328  1.0536
  958MOL0     H29282   5.591  -0.272   5.205 -0.5260 -0.8293 -0.0498
  958MOL0     H29283   5.646  -0.430   5.232 -2.1909  2.1389  2.7240
  958MOL0     H29284   5.721  -0.251   5.410  0.0599  1.3819 -0.0834
  958MOL0     H29285   5.796  -0.172   5.298  0.5596 -0.5275  0.9825
  958MOL0     H29286   5.911  -0.419   5.247  1.0098 -0.2090 -0.2216
  958MOL0     H29287   5.905  -0.423   5.421  0.2420 -1.6233  0.3128
  958MOL0     H29288   6.032  -0.175   5.311  3.3802  2.8412  5.9489
  958MOL0     H29289   6.110  -0.320   5.260 -0.7150  2.0528 -0.9770
  958MOL0     H29290   6.089  -0.058   5.614 -0.6017 -2.1336  0.5054
  958MOL0     H29291   6.236   0.214   5.641  1.6735  0.0908 -0.1318
  958MOL0     H29292   6.171   0.111   5.773  0.0211  2.3610  0.6367
  958MOL0     H29293   6.345   0.163   5.766  0.3432 -1.2374  1.1833
  958MOL0     H29294   6.885  -0.124   5.518  0.0735  2.2674 -1.8971
  958MOL0     H29295   7.116  -0.036   5.574 -1.3833 -0.9647 -1.8570
  958MOL0     H29296   7.106   0.312   5.826 -0.4570  1.3513 -0.4735
  958MOL0     H29297   7.280   0.298   5.817 -1.1157  0.5059  1.3336
  958MOL0     H29298   7.091   0.443   5.640 -0.4015 -1.3150  0.0011
  958MOL0     H29299   7.241   0.506   5.720 -1.3071  2.1206 -1.3909
  958MOL0     H29300   7.374   0.368   5.555  1.6461  0.2364 -3.8290
  958MOL0     H29301   7.297   0.524   5.508  2.7438 -1.0921 -0.1588
  958MOL0     H29302   7.205   0.241   5.453  1.5173 -1.1582 -1.0604
  958MOL0     H29303   7.113   0.387   5.398 -3.1712 -3.8146  3.1274
  958MOL0     H29304   7.411   0.339   5.341 -1.4503  0.6632  2.7800
  958MOL0     H29305   7.301   0.457   5.266 -0.5862  0.9813  1.1479
  958MOL0     H29306   7.360   0.236   5.136  0.4276 -0.2345  0.7647
  958MOL0     H29307   7.256   0.151   5.257 -2.7322  1.4629  2.6691
  958MOL0     H29308   7.188   0.284   5.011 -4.0702 -1.1567 -1.8090
  958MOL0     H29309   7.120   0.379   5.137  0.6843  0.0106 -0.0631
  958MOL0     H29310   7.055   0.078   5.156 -1.9089 -0.6450 -1.3161
  958MOL0     H29311   6.963   0.182   5.050 -3.4486  1.1415  2.4947
  958MOL0     H29312   6.938   0.333   5.696 -2.9189  0.6335  2.0999
  958MOL0     H29313   6.722   0.247   5.662 -0.7029 -0.4709  0.3407
  958MOL0     H29314   6.525  -0.153   5.421 -3.3542  2.7201 -4.0500
  958MOL0     H29315   6.341  -0.296   5.378  0.1409  0.1946 -0.9487
  958MOL0     H29316   5.818   0.523   4.018 -0.8698  1.0233 -0.9445
  958MOL0     H29317   5.646   0.620   3.883 -0.8734  0.1894  0.3619
  958MOL0     H29318   5.226   0.427   3.672  2.4272 -0.0023 -0.1598
  958MOL0     H29319   5.051   0.365   3.529 -0.7947 -0.5355 -1.5749
  958MOL0     H29320   5.138   0.430   3.098 -1.0409  2.5984  3.7981
  958MOL0     H29321   5.126   0.252   3.076  1.5136  0.6987 -1.7032
  958MOL0     H29322   4.880   0.269   3.097  1.5525 -1.2386  0.1281
  958MOL0     H29323   4.942   0.309   2.945 -0.4987 -0.9808  1.0909
  958MOL0     H29324   4.928   0.560   3.026  0.3114 -1.0612  0.2815
  958MOL0     H29325   4.849   0.508   3.166 -2.2371 -2.5867  1.2176
  958MOL0     H29326   4.695   0.586   3.021 -0.2250  0.8213 -1.3668
  958MOL0     H29327   4.672   0.413   3.051 -0.6348  1.5584  0.2601
  958MOL0     H29328   4.635   0.437   2.642 -1.1113  1.9260 -0.4891
  958MOL0     H29329   5.310   0.456   3.193  0.5565  3.3868 -0.0696
  958MOL0     H29330   5.487   0.506   3.356 -0.9177 -0.7828 -1.0080
  959MOL0     O29331   8.603   5.036   9.602 -0.2845  0.1698  0.0086
  959MOL0     C29332   8.707   5.069   9.548  0.2089 -0.6076 -0.2793
  959MOL0     O29333   8.824   5.005   9.560  0.2065  0.2516 -0.7177
  959MOL0     C29334   8.844   4.881   9.622 -0.1866 -0.5203 -0.7896
  959MOL0     C29335   8.745   4.787   9.636  0.2514 -0.6336  0.0163
  959MOL0     C29336   8.762   4.662   9.695  1.2486 -0.0300 -0.1308
  959MOL0     C29337   8.891   4.623   9.735  0.4981  0.0851  0.1611
  959MOL0     O29338   8.887   4.510   9.806 -0.4076  0.3757 -0.4654
  959MOL0     C29339   9.017   4.455   9.829  0.1260  0.2320  0.2288
  959MOL0     C29340   9.000   4.304   9.858 -0.0783 -0.3624 -0.4286
  959MOL0     C29341   8.962   4.230   9.731  0.3248  0.4260  0.0416
  959MOL0     C29342   8.969   4.074   9.773  0.8582  0.5046  0.0294
  959MOL0     C29343   8.927   3.966   9.672  0.2381  0.6440 -0.1742
  959MOL0     C29344   8.958   3.823   9.725  0.8897  0.1203 -0.4270
  959MOL0     C29345   8.925   3.710   9.627 -0.8446  1.0282  0.3575
  959MOL0     C29346   8.772   3.691   9.598 -0.9751 -0.5439  0.2074
  959MOL0     N29347   8.733   3.616   9.477 -0.0653 -0.2974  0.8235
  959MOL0     C29348   8.780   3.494   9.443  0.6453  0.4746  0.2976
  959MOL0     C29349   8.750   3.475   9.310  0.1390 -1.1148 -0.5277
  959MOL0     C29350   8.773   3.357   9.221  0.1498 -0.1993 -0.1301
  959MOL0     C29351   8.880   3.258   9.257 -0.1374  0.0835 -0.1226
  959MOL0     C29352   9.025   3.314   9.268  0.5719 -0.0699  0.0675
  959MOL0     C29353   9.074   3.407   9.155 -0.1322 -0.2829 -0.6776
  959MOL0     O29354   9.027   3.369   9.024 -0.1354 -1.0736  0.2340
  959MOL0     C29355   9.080   3.441   8.918 -0.2541 -0.0645  0.4039
  959MOL0     C29356   9.064   3.368   8.801 -0.1516 -0.2389 -0.3957
  959MOL0     C29357   9.125   3.398   8.678 -0.3622 -0.0555 -0.8422
  959MOL0     C29358   9.116   3.316   8.557  0.8702  0.7294 -0.4376
  959MOL0     C29359   9.192   3.524   8.673  0.5128 -0.1406  0.1692
  959MOL0     C29360   9.245   3.579   8.547 -0.2237 -0.6669 -0.8845
  959MOL0     O29361   9.167   3.593   8.446 -0.8463 -0.3501 -0.0824
  959MOL0     C29362   9.193   3.651   8.327 -0.2526  0.7428  1.0435
  959MOL0     C29363   9.298   3.734   8.308  0.1455 -0.5227  0.2698
  959MOL0     C29364   9.309   3.811   8.185 -0.4496 -0.8035 -0.1257
  959MOL0     C29365   9.212   3.811   8.091  0.6180 -0.4835 -0.2635
  959MOL0     O29366   9.204   3.900   7.990 -0.1040  0.0878 -0.3270
  959MOL0     C29367   9.317   3.945   7.927  0.5494 -0.1506  0.2522
  959MOL0     C29368   9.259   4.039   7.812 -0.0672 -0.2020  0.0050
  959MOL0     C29369   9.366   4.148   7.787 -0.5676  0.0264 -0.3123
  959MOL0     C29370   9.372   4.212   7.647 -1.5305 -0.0383  0.1363
  959MOL0     C29371   9.482   4.318   7.646  0.5428  0.0829 -0.4090
  959MOL0     C29372   9.443   4.446   7.719  0.6564  0.3650 -0.3501
  959MOL0     C29373   9.551   4.548   7.738  0.3220  0.1045 -0.5465
  959MOL0     C29374   9.503   4.672   7.816 -0.1785  0.3301 -0.8268
  959MOL0    Cl29375   9.359   4.747   7.735 -0.0164  0.0837 -0.3418
  959MOL0     C29376   9.095   3.727   8.109 -0.2612  0.3983 -0.7159
  959MOL0     C29377   9.094   3.645   8.229  0.0979 -0.7427 -0.4004
  959MOL0     O29378   9.368   3.589   8.540 -0.1804 -0.3651 -1.1142
  959MOL0     C29379   9.204   3.598   8.788  0.2614  0.6868 -0.4817
  959MOL0     C29380   9.155   3.554   8.910  0.5107  0.1181 -0.4887
  959MOL0     N29381   8.682   3.585   9.270  0.4352 -0.5360  0.2215
  959MOL0     N29382   8.677   3.671   9.362  0.5815  0.1328 -0.4357
  959MOL0     C29383   8.992   4.722   9.723 -0.0340 -0.4160 -0.3316
  959MOL0     C29384   8.971   4.844   9.664 -0.5174 -0.0107 -0.0178
  959MOL0     C29385   8.696   5.179   9.444 -0.1342 -0.0229 -0.5276
  959MOL0     C29386   8.574   5.243   9.418 -0.4437 -0.5654  0.4403
  959MOL0     C29387   8.570   5.346   9.331  0.0578 -0.6092 -0.2285
  959MOL0     C29388   8.687   5.400   9.267 -0.5902  0.3277 -0.0385
  959MOL0     O29389   8.700   5.510   9.192 -0.1727  0.3241 -0.0823
  959MOL0     C29390   8.587   5.599   9.173  0.1930 -0.2884  0.1118
  959MOL0     C29391   8.571   5.693   9.289  0.0901  0.1524  0.0674
  959MOL0     C29392   8.439   5.774   9.282 -0.1220  0.5389  0.3567
  959MOL0     C29393   8.436   5.885   9.391  0.5396  0.1166  0.1860
  959MOL0     C29394   8.374   6.015   9.355  0.1368  0.8490 -0.5999
  959MOL0     C29395   8.325   6.129   9.334 -1.1385 -0.1087  0.1430
  959MOL0     C29396   8.809   5.329   9.283  0.5756 -0.1404  0.0896
  959MOL0     C29397   8.807   5.223   9.369  0.2412  0.4191  1.2784
  959MOL0     H29398   8.643   4.811   9.609  0.1789 -0.9332  0.0168
  959MOL0     H29399   8.682   4.593   9.717 -0.1746  1.0012 -1.8102
  959MOL0     H29400   9.084   4.469   9.745 -1.2525 -2.7318 -1.5089
  959MOL0     H29401   9.059   4.490   9.924 -1.4542 -0.8075  1.3623
  959MOL0     H29402   9.096   4.263   9.891  1.8349  1.7875 -2.8527
  959MOL0     H29403   8.922   4.295   9.934 -1.8001 -0.3441 -2.1326
  959MOL0     H29404   8.863   4.257   9.694  0.2793 -1.8959 -1.7092
  959MOL0     H29405   9.043   4.238   9.659  2.4484  0.4907  2.3181
  959MOL0     H29406   9.071   4.042   9.795  0.6872 -0.1470 -0.1107
  959MOL0     H29407   8.925   4.063   9.873  1.8887 -0.1498  0.4265
  959MOL0     H29408   8.827   3.981   9.632  1.1993  1.2603 -2.4716
  959MOL0     H29409   8.994   3.979   9.587  1.7141 -1.9850  0.4596
  959MOL0     H29410   9.062   3.809   9.755  0.7739 -0.9440 -0.5053
  959MOL0     H29411   8.897   3.817   9.815  1.8302 -0.8142  0.1607
  959MOL0     H29412   8.986   3.726   9.538  0.2037 -1.2876  0.6050
  959MOL0     H29413   8.966   3.618   9.669 -0.4119 -0.4190 -2.9800
  959MOL0     H29414   8.718   3.786   9.591  0.9619  0.9450  3.3964
  959MOL0     H29415   8.729   3.637   9.683 -2.3446 -0.6547 -0.5180
  959MOL0     H29416   8.829   3.415   9.500  1.2470  1.4088  1.1209
  959MOL0     H29417   8.675   3.307   9.228  0.9970 -1.9930 -0.5432
  959MOL0     H29418   8.786   3.378   9.114  0.0172 -4.4085 -1.1397
  959MOL0     H29419   8.871   3.179   9.182 -2.8762  2.4255 -2.4717
  959MOL0     H29420   8.849   3.203   9.347 -4.6382 -0.5067 -1.8221
  959MOL0     H29421   9.076   3.217   9.262 -0.1382 -0.3636 -2.3111
  959MOL0     H29422   9.029   3.369   9.362  0.4317  0.0725 -0.0109
  959MOL0     H29423   9.183   3.399   9.149 -0.1838 -1.6730 -0.1251
  959MOL0     H29424   9.036   3.508   9.171 -3.3497 -1.6783  1.5964
  959MOL0     H29425   9.000   3.281   8.808 -2.8003  1.7108  3.0232
  959MOL0     H29426   9.215   3.299   8.513  0.8451 -0.2392 -0.1330
  959MOL0     H29427   9.071   3.223   8.594  1.6209  1.5397  2.9266
  959MOL0     H29428   9.052   3.367   8.484 -1.4938 -0.9141  0.3751
  959MOL0     H29429   9.382   3.747   8.376 -0.7687 -1.1433  1.5620
  959MOL0     H29430   9.397   3.875   8.177 -1.3417  0.3708 -0.9297
  959MOL0     H29431   9.381   4.005   7.994 -1.4295  2.1016  0.2500
  959MOL0     H29432   9.372   3.860   7.886  0.5895 -0.6921  1.3675
  959MOL0     H29433   9.241   3.975   7.725 -0.9710 -1.7704  1.2860
  959MOL0     H29434   9.163   4.087   7.835  1.8299  3.3303  1.3536
  959MOL0     H29435   9.466   4.105   7.804 -0.4604  0.4520  0.1420
  959MOL0     H29436   9.345   4.231   7.854 -1.9355  1.6412 -2.5867
  959MOL0     H29437   9.396   4.146   7.563 -1.2812  1.3154 -0.8964
  959MOL0     H29438   9.274   4.253   7.620 -0.3301  1.4886 -2.2578
  959MOL0     H29439   9.505   4.344   7.542  1.0412 -0.5499 -0.4639
  959MOL0     H29440   9.573   4.277   7.691 -0.6469 -0.6526  1.4448
  959MOL0     H29441   9.359   4.473   7.655 -1.7994 -0.2949  2.3833
  959MOL0     H29442   9.392   4.429   7.814 -1.1235  1.2238 -1.1092
  959MOL0     H29443   9.594   4.582   7.643 -0.9439  1.5188 -0.6532
  959MOL0     H29444   9.636   4.511   7.795 -0.3012 -3.3506 -1.6270
  959MOL0     H29445   9.581   4.749   7.821 -0.6438  0.8334 -1.2238
  959MOL0     H29446   9.473   4.638   7.916  3.0701 -1.0185 -0.1805
  959MOL0     H29447   9.018   3.716   8.034 -0.5486 -1.3554 -0.2075
  959MOL0     H29448   9.007   3.589   8.260 -0.7665  1.4817  1.4954
  959MOL0     H29449   9.249   3.696   8.775 -0.5863  1.0640 -0.6430
  959MOL0     H29450   9.156   3.619   8.997 -0.0720 -0.7542  0.1883
  959MOL0     H29451   9.095   4.702   9.748  0.2597  0.1033 -1.1055
  959MOL0     H29452   9.054   4.913   9.655 -1.1332  0.5168 -2.7713
  959MOL0     H29453   8.482   5.193   9.445 -1.2191 -0.6285 -2.0481
  959MOL0     H29454   8.474   5.394   9.315  0.3603 -0.1786 -0.8061
  959MOL0     H29455   8.610   5.659   9.084  1.3095  0.0998  0.6449
  959MOL0     H29456   8.496   5.544   9.147 -0.9720  2.4859 -2.4071
  959MOL0     H29457   8.647   5.769   9.308 -2.8269  4.2258 -2.7547
  959MOL0     H29458   8.559   5.624   9.373  0.6563 -0.8347 -0.6344
  959MOL0     H29459   8.359   5.701   9.301  0.8239 -0.5544  0.2575
  959MOL0     H29460   8.430   5.813   9.180 -0.2194  2.6567  1.1408
  959MOL0     H29461   8.536   5.908   9.427  2.1801 -1.7860 -2.7402
  959MOL0     H29462   8.377   5.847   9.476 -0.2056  0.3615 -0.2097
  959MOL0     H29463   8.270   6.219   9.314  1.0042  1.4657  0.9236
  959MOL0     H29464   8.893   5.366   9.224  0.9244  1.3038  1.4226
  959MOL0     H29465   8.900   5.174   9.398 -0.1600 -0.9607  0.3330
  960MOL0     O29466   1.134   6.483   5.591 -0.1273  0.5666  0.4426
  960MOL0     C29467   1.025   6.436   5.614 -0.0426 -0.0067  0.0746
  960MOL0     O29468   0.918   6.499   5.664  0.0619  0.1863  0.0743
  960MOL0     C29469   0.925   6.554   5.790 -0.8706 -0.3957  0.1834
  960MOL0     C29470   1.044   6.582   5.866  0.5634  0.0122  0.1852
  960MOL0     C29471   1.040   6.621   6.005  0.0176 -0.2175  0.7359
  960MOL0     C29472   0.920   6.617   6.070 -0.4583 -0.0726 -0.0273
  960MOL0     O29473   0.926   6.649   6.206 -0.1260  0.4853 -0.1084
  960MOL0     C29474   1.011   6.568   6.279 -0.4658 -0.1289  0.2985
  960MOL0     C29475   0.987   6.591   6.435  0.4867  0.5163  0.6419
  960MOL0     C29476   0.843   6.572   6.461  0.3184  0.2264 -0.6828
  960MOL0     C29477   0.815   6.614   6.608 -0.2014  0.4627 -0.7092
  960MOL0     C29478   0.670   6.571   6.639 -0.2988  0.9104  0.3955
  960MOL0     C29479   0.624   6.599   6.777 -0.2408  0.2256 -0.2124
  960MOL0     C29480   0.487   6.674   6.795 -1.4051 -0.4011  0.7415
  960MOL0     C29481   0.372   6.587   6.759  0.0283 -0.7486  0.9271
  960MOL0     N29482   0.302   6.537   6.875 -1.8874  0.0334 -0.1859
  960MOL0     C29483   0.171   6.527   6.891 -1.2344  0.9696  0.3621
  960MOL0     C29484   0.155   6.471   7.018 -0.3228 -0.4924  0.1502
  960MOL0     C29485   0.024   6.437   7.081  1.3419  0.3020  0.8007
  960MOL0     C29486   0.051   6.401   7.233  1.1531  0.2188  0.0456
  960MOL0     C29487   0.113   6.260   7.252  0.5283 -0.0567  0.0949
  960MOL0     C29488   0.038   6.160   7.336  0.5397  0.5042 -0.4200
  960MOL0     O29489  -0.063   6.088   7.262 -0.4170  0.8830  0.0895
  960MOL0     C29490  -0.148   6.015   7.337 -0.4275  0.2113  0.6679
  960MOL0     C29491  -0.115   5.882   7.349  1.0107  1.2493 -0.6120
  960MOL0     C29492  -0.181   5.800   7.446  0.1988 -0.3892  0.2495
  960MOL0     C29493  -0.127   5.661   7.465 -1.0244 -0.3676  0.0123
  960MOL0     C29494  -0.293   5.854   7.521 -1.3848  0.3626  1.1048
  960MOL0     C29495  -0.338   5.786   7.643  0.8621 -0.3583 -0.9891
  960MOL0     O29496  -0.366   5.876   7.742  0.0640 -0.5463 -0.3635
  960MOL0     C29497  -0.423   5.829   7.854  1.6156  0.6709 -1.5547
  960MOL0     C29498  -0.382   5.724   7.931  0.2021  0.4418 -0.2245
  960MOL0     C29499  -0.462   5.682   8.035  1.2670  1.1817  0.0708
  960MOL0     C29500  -0.578   5.753   8.085 -1.6776  0.4063 -0.5333
  960MOL0     O29501  -0.616   5.706   8.213  0.0396  0.2760 -0.4690
  960MOL0     C29502  -0.709   5.789   8.288  0.1590 -0.0301 -0.6442
  960MOL0     C29503  -0.733   5.729   8.423  0.5322  0.0625  0.6671
  960MOL0     C29504  -0.872   5.766   8.481  1.0655  0.8483  0.5628
  960MOL0     C29505  -0.877   5.693   8.623  0.2302 -0.2382  0.1344
  960MOL0     C29506  -1.011   5.711   8.700 -0.6535 -0.2766  0.9384
  960MOL0     C29507  -1.046   5.578   8.771 -1.0584  0.1680 -0.3604
  960MOL0     C29508  -0.977   5.563   8.902 -0.5928 -0.0968 -0.5940
  960MOL0     C29509  -1.018   5.431   8.973  0.4435  0.4353 -0.3300
  960MOL0    Cl29510  -1.185   5.442   9.027 -0.3038  0.1738  0.9476
  960MOL0     C29511  -0.602   5.858   8.009  0.6601 -0.3254  0.1714
  960MOL0     C29512  -0.537   5.898   7.898  0.0390 -0.1286  0.1139
  960MOL0     O29513  -0.343   5.663   7.655  0.1531 -0.8482  0.7506
  960MOL0     C29514  -0.334   5.987   7.504 -0.1319  0.1735 -0.2675
  960MOL0     C29515  -0.263   6.066   7.408 -0.9535 -0.1848  0.5003
  960MOL0     N29516   0.276   6.438   7.067 -0.5600 -0.3130  0.1133
  960MOL0     N29517   0.361   6.480   6.983 -0.5317 -0.5897  0.3102
  960MOL0     C29518   0.805   6.590   6.009 -0.1360  0.7205  1.0753
  960MOL0     C29519   0.809   6.563   5.865 -0.3694 -0.2341 -1.1432
  960MOL0     C29520   1.001   6.303   5.547 -0.6899  0.1547  0.9527
  960MOL0     C29521   1.082   6.246   5.452  0.2199 -0.7944 -0.0870
  960MOL0     C29522   1.071   6.118   5.404 -0.6629 -0.5932  0.6868
  960MOL0     C29523   0.978   6.038   5.473  0.1342  0.1212  1.0541
  960MOL0     O29524   0.964   5.911   5.443 -0.1999  0.8067  0.0798
  960MOL0     C29525   0.877   5.882   5.330  0.2249 -0.5734 -0.0436
  960MOL0     C29526   0.791   5.767   5.379 -0.6607 -0.0223 -0.1232
  960MOL0     C29527   0.729   5.686   5.254 -0.5753 -0.1188 -0.4618
  960MOL0     C29528   0.638   5.577   5.286 -0.6579 -0.3045  0.1945
  960MOL0     C29529   0.693   5.473   5.370 -0.1210  0.7672 -1.0514
  960MOL0     C29530   0.745   5.390   5.443 -0.9156 -1.2520  0.0932
  960MOL0     C29531   0.889   6.085   5.568  0.4896  0.5787  0.4018
  960MOL0     C29532   0.897   6.223   5.602  0.4232  0.4245 -0.4906
  960MOL0     H29533   1.138   6.576   5.813 -1.3792 -0.6057 -3.5207
  960MOL0     H29534   1.134   6.647   6.055  0.2570  0.6980 -0.1517
  960MOL0     H29535   0.990   6.463   6.260 -3.2474  0.0009  2.0425
  960MOL0     H29536   1.113   6.586   6.245 -1.5927  1.8144 -2.3532
  960MOL0     H29537   1.058   6.530   6.490  1.3806  1.5691  0.6924
  960MOL0     H29538   1.009   6.694   6.466 -1.4963  1.0760  0.3439
  960MOL0     H29539   0.796   6.654   6.406  1.6194  2.0619  0.8112
  960MOL0     H29540   0.820   6.472   6.423  1.1890  0.0398 -0.7438
  960MOL0     H29541   0.877   6.557   6.678 -1.1534 -0.2232 -0.3934
  960MOL0     H29542   0.836   6.720   6.624  2.5086  0.0304 -0.9571
  960MOL0     H29543   0.594   6.602   6.566 -0.4589  0.4871  0.3807
  960MOL0     H29544   0.675   6.465   6.614 -2.0602  0.4755  1.6405
  960MOL0     H29545   0.619   6.495   6.813  1.1395 -0.7917 -2.7504
  960MOL0     H29546   0.707   6.639   6.836  0.3199 -2.1065  0.6895
  960MOL0     H29547   0.476   6.725   6.891  0.4420  2.5631 -0.5011
  960MOL0     H29548   0.488   6.755   6.722 -1.1066  0.0838  1.2840
  960MOL0     H29549   0.405   6.504   6.697 -2.2221  0.5830 -2.3441
  960MOL0     H29550   0.298   6.644   6.701 -1.1851 -0.8994  2.2634
  960MOL0     H29551   0.097   6.562   6.820  0.5497 -0.4920 -2.3988
  960MOL0     H29552  -0.033   6.529   7.067  3.1373  1.1329 -2.0203
  960MOL0     H29553  -0.021   6.351   7.031  2.0561 -0.6708  1.7941
  960MOL0     H29554  -0.043   6.410   7.287  1.0329  4.2926 -0.5134
  960MOL0     H29555   0.122   6.471   7.279  1.6383  1.6158 -2.6389
  960MOL0     H29556   0.206   6.271   7.309 -0.2385  1.9861  1.0551
  960MOL0     H29557   0.133   6.225   7.150  0.2920 -0.2987  0.1341
  960MOL0     H29558  -0.009   6.210   7.421 -2.5162 -1.2228 -0.9356
  960MOL0     H29559   0.100   6.083   7.384 -1.4569 -0.2175  1.1630
  960MOL0     H29560  -0.025   5.850   7.299  0.3739  1.2564 -1.8106
  960MOL0     H29561  -0.096   5.636   7.567 -1.6101 -1.1925 -0.0023
  960MOL0     H29562  -0.209   5.592   7.443 -2.1985  0.6830  0.9670
  960MOL0     H29563  -0.044   5.644   7.395 -1.3406 -0.3637 -0.3731
  960MOL0     H29564  -0.278   5.697   7.914  0.6556  2.0493 -0.1269
  960MOL0     H29565  -0.435   5.596   8.096 -2.2434 -2.5636 -3.0421
  960MOL0     H29566  -0.670   5.891   8.299 -1.9455  0.7959 -0.4465
  960MOL0     H29567  -0.801   5.788   8.229 -0.2867  0.2129  0.0312
  960MOL0     H29568  -0.733   5.622   8.398  0.3567  0.3010 -0.3919
  960MOL0     H29569  -0.645   5.742   8.486  3.1056 -0.1720 -2.5897
  960MOL0     H29570  -0.951   5.729   8.415  3.6030 -0.3337 -1.9839
  960MOL0     H29571  -0.872   5.875   8.492 -0.0246  1.2081 -2.2601
  960MOL0     H29572  -0.857   5.587   8.608 -0.6760 -0.5229  0.8037
  960MOL0     H29573  -0.796   5.727   8.688  0.7222 -3.1351  1.1770
  960MOL0     H29574  -1.096   5.736   8.636 -0.1686 -1.1616 -0.0919
  960MOL0     H29575  -1.007   5.797   8.769 -2.2337  0.8019 -0.2372
  960MOL0     H29576  -1.150   5.594   8.801 -0.2127  1.6451  2.0980
  960MOL0     H29577  -1.044   5.488   8.710 -2.9180  1.4039 -2.4063
  960MOL0     H29578  -1.005   5.642   8.973  4.0528 -0.7755  2.4282
  960MOL0     H29579  -0.867   5.570   8.899 -0.4729  1.6636  2.5314
  960MOL0     H29580  -0.955   5.430   9.063 -2.1258  5.0388  1.9248
  960MOL0     H29581  -1.006   5.348   8.904  1.5523  2.4958 -2.7578
  960MOL0     H29582  -0.690   5.915   8.037 -0.0576 -0.5052 -1.5731
  960MOL0     H29583  -0.577   5.975   7.833 -1.3038 -1.2751 -0.4829
  960MOL0     H29584  -0.425   6.025   7.549 -0.2989 -2.1953  1.5945
  960MOL0     H29585  -0.276   6.171   7.384  0.6176  0.2584  1.4417
  960MOL0     H29586   0.713   6.599   6.066 -1.6713 -2.0446 -0.7014
  960MOL0     H29587   0.714   6.521   5.834 -0.2655 -0.0574 -1.7125
  960MOL0     H29588   1.154   6.316   5.412 -0.7692  1.1748  1.3891
  960MOL0     H29589   1.140   6.071   5.334  1.6870  0.4469  2.1480
  960MOL0     H29590   0.814   5.971   5.319  1.5786  0.2669 -1.2714
  960MOL0     H29591   0.942   5.855   5.246 -0.3652  4.5745 -2.5321
  960MOL0     H29592   0.716   5.793   5.455  0.2002  0.1747  0.6816
  960MOL0     H29593   0.857   5.695   5.429 -1.0913  1.2897  2.5239
  960MOL0     H29594   0.819   5.648   5.205  0.5751  2.5652 -0.6161
  960MOL0     H29595   0.690   5.759   5.183  2.3081 -2.2273 -4.6115
  960MOL0     H29596   0.590   5.523   5.204 -0.6742 -2.1747  1.3883
  960MOL0     H29597   0.559   5.630   5.340  0.9189  1.0480  1.2599
  960MOL0     H29598   0.789   5.322   5.512 -0.7171  0.6197  1.9215
  960MOL0     H29599   0.816   6.021   5.616  0.0769 -0.3398 -1.3666
  960MOL0     H29600   0.833   6.257   5.683  0.1198 -0.7473 -0.2186
  961MOL0     O29601   8.337   7.597   4.816 -0.3894  0.1615  0.2724
  961MOL0     C29602   8.279   7.706   4.808 -1.0955  0.0922 -0.7008
  961MOL0     O29603   8.293   7.788   4.709  0.5325 -0.9756 -0.2259
  961MOL0     C29604   8.422   7.792   4.648 -0.4356 -0.8323 -0.0461
  961MOL0     C29605   8.513   7.890   4.678  0.3915 -0.6292 -0.3974
  961MOL0     C29606   8.617   7.922   4.598  0.2519 -0.6640 -0.5328
  961MOL0     C29607   8.648   7.845   4.488  0.5571 -0.8188 -0.4123
  961MOL0     O29608   8.746   7.869   4.401 -0.2982  0.0275 -0.6509
  961MOL0     C29609   8.873   7.854   4.468 -0.1526 -0.3586  0.1822
  961MOL0     C29610   8.986   7.899   4.376  0.5186  0.1792  0.0769
  961MOL0     C29611   8.977   7.825   4.237  0.1147  0.2821 -0.1792
  961MOL0     C29612   9.094   7.877   4.161  0.4683  0.9823  0.1033
  961MOL0     C29613   9.145   7.792   4.043 -0.4482 -0.1049 -1.3204
  961MOL0     C29614   9.033   7.758   3.944 -0.3186 -0.2964  0.1939
  961MOL0     C29615   9.083   7.695   3.817  0.0652  0.1508 -0.4512
  961MOL0     C29616   9.145   7.556   3.825  0.6865 -0.3096 -0.4655
  961MOL0     N29617   9.225   7.513   3.700 -0.0530 -0.9264 -0.2635
  961MOL0     C29618   9.357   7.557   3.679  1.1152 -0.0956  0.4942
  961MOL0     C29619   9.382   7.519   3.546 -0.3098  0.2611  0.3987
  961MOL0     C29620   9.512   7.553   3.464  0.3299 -0.5654  0.5350
  961MOL0     C29621   9.631   7.454   3.491 -0.1708 -0.3047  0.5439
  961MOL0     C29622   9.771   7.525   3.480  0.1240  0.2372 -0.5555
  961MOL0     C29623   9.808   7.600   3.355  0.8057 -0.1709  0.8008
  961MOL0     O29624   9.925   7.672   3.377 -0.8105 -0.1358 -0.2719
  961MOL0     C29625   9.946   7.764   3.283 -0.0794  0.2205  0.8733
  961MOL0     C29626   9.868   7.879   3.284 -0.2130 -0.2969 -0.4776
  961MOL0     C29627   9.888   7.984   3.195 -1.6131 -0.1729  1.2241
  961MOL0     C29628   9.795   8.102   3.204  0.1481  0.5744 -0.9243
  961MOL0     C29629   9.979   7.964   3.092 -0.5864 -0.1372  0.5934
  961MOL0     C29630  10.004   8.067   2.983  1.1347 -0.1962  0.0322
  961MOL0     O29631   9.998   8.202   3.017 -0.0128  0.3989 -0.4982
  961MOL0     C29632  10.030   8.304   2.935  0.5927 -0.3092  0.1547
  961MOL0     C29633  10.109   8.309   2.817 -1.0036 -0.1267  0.1434
  961MOL0     C29634  10.158   8.424   2.757  0.6132  0.9964  0.2732
  961MOL0     C29635  10.122   8.551   2.806 -0.3596  0.6141 -0.3436
  961MOL0     O29636  10.166   8.666   2.750  0.3849  0.2438  0.3227
  961MOL0     C29637  10.285   8.674   2.653 -0.0038  0.6755 -1.0441
  961MOL0     C29638  10.416   8.648   2.727  0.2851  0.0564  0.5058
  961MOL0     C29639  10.435   8.746   2.843  0.4634 -0.0553 -0.2469
  961MOL0     C29640  10.579   8.755   2.885 -0.9230 -0.8061 -0.7580
  961MOL0     C29641  10.593   8.847   3.004 -0.1667  0.2348 -0.1898
  961MOL0     C29642  10.734   8.850   3.053  0.5432 -0.0106 -0.7263
  961MOL0     C29643  10.771   8.721   3.115  0.9138 -0.0405 -0.1158
  961MOL0     C29644  10.863   8.742   3.238 -0.1860  0.7123  0.2219
  961MOL0    Cl29645  11.024   8.802   3.173  0.1111 -0.0690 -0.3617
  961MOL0     C29646  10.035   8.552   2.920 -0.3593 -0.2235 -0.4447
  961MOL0     C29647   9.998   8.438   2.986 -0.1097 -0.4168 -0.7443
  961MOL0     O29648  10.025   8.026   2.867  0.7399  0.0782  0.2646
  961MOL0     C29649  10.055   7.845   3.083  0.2799  0.1272 -1.2113
  961MOL0     C29650  10.045   7.749   3.184 -0.3925  0.3342 -0.1442
  961MOL0     N29651   9.258   7.465   3.504  0.1130  0.3156 -0.0797
  961MOL0     N29652   9.169   7.462   3.590  0.0921 -0.1666  0.1498
  961MOL0     C29653   8.565   7.734   4.467  0.1482 -0.4739  0.4548
  961MOL0     C29654   8.455   7.711   4.545 -0.1859  1.2519  0.6784
  961MOL0     C29655   8.181   7.738   4.907  0.5049 -0.0647  0.2327
  961MOL0     C29656   8.108   7.855   4.908  0.0605 -0.1851  0.7411
  961MOL0     C29657   8.021   7.882   5.004 -0.4893 -0.2579  0.2289
  961MOL0     C29658   7.995   7.788   5.111  0.5278 -0.2473 -0.3457
  961MOL0     O29659   7.903   7.841   5.202 -0.6112 -0.2550  0.4355
  961MOL0     C29660   7.883   7.770   5.325 -0.2921  0.1442  0.6441
  961MOL0     C29661   7.762   7.827   5.400  0.4398  1.1024  0.0079
  961MOL0     C29662   7.725   7.738   5.528 -0.0171 -0.6562 -0.2120
  961MOL0     C29663   7.572   7.773   5.565 -0.5656 -0.9595  0.3852
  961MOL0     C29664   7.553   7.726   5.701 -0.2380 -0.1232 -0.3995
  961MOL0     C29665   7.582   7.672   5.807  0.1396 -0.6561  0.6965
  961MOL0     C29666   8.076   7.671   5.116 -0.0840 -0.3715  0.5391
  961MOL0     C29667   8.161   7.644   5.012 -0.6772  0.8626 -0.0271
  961MOL0     H29668   8.502   7.951   4.766 -0.7829 -2.4362  0.7728
  961MOL0     H29669   8.668   8.012   4.632  0.7781 -1.6538  1.4675
  961MOL0     H29670   8.880   7.910   4.561 -0.0385 -0.1394  0.0434
  961MOL0     H29671   8.895   7.751   4.496  0.3602  0.0622  1.3924
  961MOL0     H29672   8.975   8.008   4.369  1.5541  0.2734 -0.3521
  961MOL0     H29673   9.081   7.877   4.426  1.8051  1.6539 -1.5899
  961MOL0     H29674   8.977   7.716   4.249 -0.4629  0.1566 -1.1603
  961MOL0     H29675   8.881   7.837   4.186 -0.9536 -4.1403  0.3268
  961MOL0     H29676   9.065   7.975   4.122 -0.0463  2.5541  3.9913
  961MOL0     H29677   9.174   7.909   4.228 -1.0721  0.6919  2.1919
  961MOL0     H29678   9.226   7.847   3.995  2.8323 -0.3942  3.2898
  961MOL0     H29679   9.180   7.695   4.081  1.7538  1.0195 -0.3211
  961MOL0     H29680   8.956   7.697   3.994  0.4624  0.6155  2.6463
  961MOL0     H29681   8.991   7.856   3.918 -0.8874 -0.4729  0.4116
  961MOL0     H29682   9.000   7.702   3.746  0.7378  2.0021 -1.1148
  961MOL0     H29683   9.170   7.749   3.780  1.1380 -0.1628  1.5143
  961MOL0     H29684   9.063   7.485   3.843  0.3885 -0.0758 -0.9064
  961MOL0     H29685   9.215   7.555   3.910  0.2667 -0.6760 -0.1223
  961MOL0     H29686   9.426   7.611   3.742 -0.7614  1.2138  1.5317
  961MOL0     H29687   9.508   7.550   3.355  1.4956 -0.4469  0.4686
  961MOL0     H29688   9.543   7.653   3.494 -2.6939  0.0964  1.7102
  961MOL0     H29689   9.641   7.370   3.421 -0.5265 -1.1533  1.4757
  961MOL0     H29690   9.619   7.410   3.591  1.3999 -0.4688  0.6806
  961MOL0     H29691   9.839   7.442   3.501 -0.3825 -0.1704 -0.4992
  961MOL0     H29692   9.782   7.591   3.567  3.3115 -2.2183  1.1434
  961MOL0     H29693   9.719   7.661   3.336  2.1787  2.2322  1.5949
  961MOL0     H29694   9.820   7.529   3.273  1.6812 -1.7527  2.2294
  961MOL0     H29695   9.801   7.900   3.367 -2.5160  1.6490 -2.6407
  961MOL0     H29696   9.822   8.157   3.295 -0.1384 -0.7850  0.0065
  961MOL0     H29697   9.802   8.174   3.122  0.2531  0.5574 -0.9306
  961MOL0     H29698   9.692   8.065   3.215  1.3046 -2.5931  0.3344
  961MOL0     H29699  10.143   8.216   2.774 -0.7980 -0.0515  0.1421
  961MOL0     H29700  10.225   8.424   2.672 -1.3112  1.0214 -1.3022
  961MOL0     H29701  10.271   8.607   2.568 -0.5726 -0.8896  0.2279
  961MOL0     H29702  10.292   8.776   2.615  0.9327  1.5174  1.1805
  961MOL0     H29703  10.414   8.546   2.767 -1.0523 -0.5857 -1.1023
  961MOL0     H29704  10.506   8.641   2.665  1.7573 -0.5954  2.6183
  961MOL0     H29705  10.381   8.714   2.932  1.3647 -0.8053  0.0402
  961MOL0     H29706  10.398   8.846   2.817 -1.2598 -1.8499 -6.7439
  961MOL0     H29707  10.618   8.659   2.918  2.4741  1.4109  2.4298
  961MOL0     H29708  10.644   8.807   2.814 -1.0452  2.3173  1.2089
  961MOL0     H29709  10.535   8.822   3.093  1.0288  0.5890  0.7043
  961MOL0     H29710  10.572   8.949   2.973  1.6885  0.1355 -1.9481
  961MOL0     H29711  10.802   8.869   2.969  0.1014  3.1715 -0.5154
  961MOL0     H29712  10.743   8.929   3.129 -2.3388 -1.4349  1.2780
  961MOL0     H29713  10.823   8.643   3.059 -0.8698 -2.6785  1.6361
  961MOL0     H29714  10.687   8.663   3.157  1.8239 -1.6440 -0.4435
  961MOL0     H29715  10.878   8.643   3.282 -4.7811  0.6537  2.2139
  961MOL0     H29716  10.822   8.803   3.318  3.2822  0.6709  2.2155
  961MOL0     H29717  10.017   8.645   2.974  3.2748 -1.8227  4.2576
  961MOL0     H29718   9.947   8.460   3.079 -0.1078  1.0797 -1.0658
  961MOL0     H29719  10.125   7.831   3.001  1.0060 -0.6701 -0.4823
  961MOL0     H29720  10.111   7.664   3.197  0.2689  1.1261  2.2658
  961MOL0     H29721   8.579   7.659   4.389  0.8490 -2.6948  2.5633
  961MOL0     H29722   8.392   7.624   4.530  0.7814  0.1722  2.5432
  961MOL0     H29723   8.120   7.928   4.828 -0.7562  0.2998  1.0395
  961MOL0     H29724   7.957   7.969   4.999  0.6184  0.6556  1.1355
  961MOL0     H29725   7.857   7.667   5.300 -0.8500 -0.1475  2.3438
  961MOL0     H29726   7.975   7.762   5.383  1.4809 -1.5682 -2.1383
  961MOL0     H29727   7.677   7.825   5.331 -0.7999 -1.4865  1.4651
  961MOL0     H29728   7.790   7.927   5.435 -1.8191  0.9180  2.6235
  961MOL0     H29729   7.793   7.772   5.606 -0.0860  1.0479 -0.8515
  961MOL0     H29730   7.734   7.630   5.513 -3.8762 -0.8397 -2.6247
  961MOL0     H29731   7.495   7.738   5.494 -2.2038  0.1079  1.5580
  961MOL0     H29732   7.560   7.882   5.559 -5.8187 -1.1080  2.5928
  961MOL0     H29733   7.591   7.613   5.896 -0.4150 -2.3519 -0.3312
  961MOL0     H29734   8.074   7.616   5.209  3.3847 -0.4147  0.7342
  961MOL0     H29735   8.221   7.555   5.022  0.2602  1.4391 -0.3947
  962MOL0     O29736   8.442   2.898   7.984 -0.6410 -0.3713 -0.2848
  962MOL0     C29737   8.456   3.009   7.956 -0.8128 -0.6520  0.2977
  962MOL0     O29738   8.536   3.103   8.031  0.0245 -0.4461  0.3448
  962MOL0     C29739   8.621   3.055   8.134 -0.4429  0.4389  0.5181
  962MOL0     C29740   8.693   2.938   8.118 -0.3816 -1.0914  0.6942
  962MOL0     C29741   8.766   2.879   8.218 -0.0389  0.4503 -1.2600
  962MOL0     C29742   8.766   2.942   8.348 -0.6698 -0.0118 -0.3897
  962MOL0     O29743   8.835   2.870   8.437 -0.2056 -0.1289  0.7737
  962MOL0     C29744   8.903   2.931   8.551 -0.5944  0.2291 -0.7213
  962MOL0     C29745   8.986   2.830   8.625  0.4489 -0.9155 -0.1583
  962MOL0     C29746   9.112   2.799   8.545 -0.2194 -0.4521 -0.2798
  962MOL0     C29747   9.232   2.762   8.641  0.7453  0.1869 -0.8949
  962MOL0     C29748   9.192   2.637   8.717  0.3429 -0.2693  0.5593
  962MOL0     C29749   9.298   2.607   8.818  1.0328 -0.0111 -0.0342
  962MOL0     C29750   9.282   2.462   8.864 -0.4097  0.6682  0.5298
  962MOL0     C29751   9.372   2.444   8.976 -0.8287  0.5128 -0.3410
  962MOL0     N29752   9.518   2.448   8.942  0.0485 -0.4868 -0.5134
  962MOL0     C29753   9.570   2.362   8.857 -0.2892  1.0750  0.3850
  962MOL0     C29754   9.692   2.407   8.824  0.2716  0.3662  0.5532
  962MOL0     C29755   9.781   2.324   8.730  0.8384 -0.2619  0.0715
  962MOL0     C29756   9.924   2.341   8.770 -0.4633  0.4171 -0.0885
  962MOL0     C29757  10.039   2.275   8.689 -0.4173 -1.0645 -0.7676
  962MOL0     C29758   9.999   2.268   8.533  0.0938 -0.8641  0.9111
  962MOL0     O29759  10.100   2.197   8.455  0.1562 -0.6304  0.9817
  962MOL0     C29760  10.040   2.146   8.339  0.0504 -0.4004  0.3673
  962MOL0     C29761   9.925   2.184   8.280  0.4650  0.4946  0.7592
  962MOL0     C29762   9.873   2.112   8.170  0.4058 -1.1334  1.1248
  962MOL0     C29763   9.749   2.171   8.109  1.0792  0.9354 -0.5015
  962MOL0     C29764   9.939   2.005   8.107 -0.0357  0.1330  0.2096
  962MOL0     C29765   9.896   1.925   7.991 -0.1220 -0.4136  0.5282
  962MOL0     O29766   9.760   1.928   7.966  0.4617  0.2074 -0.8391
  962MOL0     C29767   9.708   1.901   7.837  0.4584  0.9160 -0.0378
  962MOL0     C29768   9.572   1.927   7.828  0.5504  0.8947  0.0019
  962MOL0     C29769   9.509   1.899   7.715  0.1934  0.3382 -0.4080
  962MOL0     C29770   9.571   1.860   7.595 -0.0693  0.6512 -0.0123
  962MOL0     O29771   9.500   1.821   7.486 -1.0872 -0.1315  0.2067
  962MOL0     C29772   9.406   1.922   7.442 -0.0668 -0.2729  0.0206
  962MOL0     C29773   9.309   1.850   7.346 -0.6160 -0.8388  0.0201
  962MOL0     C29774   9.210   1.948   7.280  0.6142  0.3049  0.0971
  962MOL0     C29775   9.275   2.050   7.187  0.0356 -0.2913  0.4846
  962MOL0     C29776   9.327   2.006   7.045  0.4877 -0.3702 -0.0214
  962MOL0     C29777   9.334   2.114   6.944 -0.0465  0.2473  0.2057
  962MOL0     C29778   9.419   2.064   6.831 -0.0522  0.1715  0.5241
  962MOL0     C29779   9.404   2.166   6.717 -0.0439  0.2468  0.6080
  962MOL0    Cl29780   9.480   2.113   6.563 -0.2892 -0.0646 -0.1376
  962MOL0     C29781   9.708   1.835   7.597 -0.6098 -0.6518 -1.2566
  962MOL0     C29782   9.773   1.858   7.722 -0.5433 -0.0592 -0.5238
  962MOL0     O29783   9.979   1.851   7.935  0.3110  0.4214  0.4274
  962MOL0     C29784  10.063   1.972   8.170  0.2695 -0.3110 -0.2789
  962MOL0     C29785  10.111   2.046   8.278 -0.4631 -0.5719 -0.0711
  962MOL0     N29786   9.712   2.527   8.887 -0.4479 -0.5846  0.5955
  962MOL0     N29787   9.603   2.550   8.959  0.6623  0.1538  0.2970
  962MOL0     C29788   8.707   3.065   8.361  0.2914 -0.4864  0.1329
  962MOL0     C29789   8.629   3.121   8.259  0.6531  0.5501  1.1456
  962MOL0     C29790   8.393   3.062   7.837  0.3819  1.1196  0.6930
  962MOL0     C29791   8.289   2.995   7.775  0.7016 -0.5625 -1.0625
  962MOL0     C29792   8.243   3.043   7.654 -0.3078  0.5504  0.4943
  962MOL0     C29793   8.291   3.158   7.592 -0.7939 -0.7850  0.8419
  962MOL0     O29794   8.235   3.175   7.466  1.0867 -0.1850  0.4068
  962MOL0     C29795   8.290   3.278   7.376 -0.2122 -0.4935  0.2655
  962MOL0     C29796   8.244   3.251   7.237 -0.1488  0.1864  0.6663
  962MOL0     C29797   8.277   3.104   7.200 -0.4010 -1.0263  0.4504
  962MOL0     C29798   8.257   3.071   7.054  0.2020 -0.6960 -1.2040
  962MOL0     C29799   8.322   2.948   7.015  0.1647 -0.4707 -1.0405
  962MOL0     C29800   8.378   2.840   7.011 -0.2824 -0.2016  0.2403
  962MOL0     C29801   8.382   3.238   7.667  0.4926  0.3289 -0.6604
  962MOL0     C29802   8.432   3.187   7.782  0.1124  0.4103 -0.9571
  962MOL0     H29803   8.703   2.892   8.020  2.7347 -1.5083  1.0827
  962MOL0     H29804   8.828   2.790   8.209 -1.1123 -0.6177  1.0648
  962MOL0     H29805   8.958   3.022   8.523 -0.4226  0.3957  0.1212
  962MOL0     H29806   8.816   2.963   8.610 -1.9424 -0.2284 -2.3599
  962MOL0     H29807   9.020   2.878   8.717 -1.1470 -1.3164  0.6660
  962MOL0     H29808   8.925   2.746   8.657 -1.1373 -0.7990 -2.6117
  962MOL0     H29809   9.094   2.706   8.490 -3.8369 -0.2208  0.2514
  962MOL0     H29810   9.136   2.877   8.471 -0.8013 -0.6463 -0.6901
  962MOL0     H29811   9.321   2.755   8.577 -1.4053  0.0608 -4.1567
  962MOL0     H29812   9.248   2.837   8.719 -2.2133  0.1425 -0.1296
  962MOL0     H29813   9.095   2.647   8.766 -1.3763 -0.1726 -2.5986
  962MOL0     H29814   9.176   2.552   8.650  0.6551  1.5539 -1.9673
  962MOL0     H29815   9.395   2.617   8.770  1.5337 -0.7811  0.7924
  962MOL0     H29816   9.290   2.687   8.893  0.0260  0.7180 -0.8953
  962MOL0     H29817   9.179   2.440   8.892 -0.7431  0.9462 -0.4489
  962MOL0     H29818   9.314   2.403   8.778  3.1990  0.0451  2.1031
  962MOL0     H29819   9.356   2.345   9.021  5.8080 -1.3231 -0.8403
  962MOL0     H29820   9.362   2.506   9.065 -1.2067 -2.1211  1.5676
  962MOL0     H29821   9.512   2.275   8.829  2.0957 -0.5487  0.2180
  962MOL0     H29822   9.751   2.219   8.736  4.3176 -1.4481 -0.9362
  962MOL0     H29823   9.749   2.358   8.631 -4.0785  0.0866  1.5061
  962MOL0     H29824   9.933   2.316   8.876 -3.5616  1.3833  0.4926
  962MOL0     H29825   9.944   2.449   8.774 -1.0266  0.6857 -2.6087
  962MOL0     H29826  10.047   2.172   8.726  1.4390 -0.3696  0.9638
  962MOL0     H29827  10.136   2.323   8.706  0.7640 -3.5412  0.1083
  962MOL0     H29828   9.997   2.371   8.497 -0.6815  0.1981  3.6869
  962MOL0     H29829   9.904   2.215   8.524  1.9674 -4.1373 -1.6584
  962MOL0     H29830   9.865   2.264   8.319  0.9465  3.1018 -3.2465
  962MOL0     H29831   9.764   2.185   8.001 -0.8986  0.3517 -0.8956
  962MOL0     H29832   9.666   2.103   8.132  2.4202 -0.4014  0.5004
  962MOL0     H29833   9.721   2.272   8.142  0.3093  0.4491  0.3580
  962MOL0     H29834   9.520   1.943   7.922  0.0048 -4.9902  1.1202
  962MOL0     H29835   9.401   1.908   7.723 -0.4190 -1.6293 -4.1691
  962MOL0     H29836   9.351   1.965   7.527 -1.7974 -0.3092 -1.0451
  962MOL0     H29837   9.457   2.003   7.390 -2.4448  1.0840 -0.3616
  962MOL0     H29838   9.359   1.807   7.259 -0.1718 -1.9723  0.8187
  962MOL0     H29839   9.251   1.774   7.398 -2.6566  1.6647  1.6267
  962MOL0     H29840   9.150   2.002   7.353  0.1537 -1.9265  1.4749
  962MOL0     H29841   9.133   1.904   7.215 -0.8597  2.0733  0.5609
  962MOL0     H29842   9.200   2.125   7.161  1.7436 -0.0998 -5.1515
  962MOL0     H29843   9.354   2.104   7.241  1.3340 -1.2552 -0.3864
  962MOL0     H29844   9.260   1.928   7.008  0.7602 -1.4088  1.5678
  962MOL0     H29845   9.423   1.954   7.059 -0.0124 -1.4392 -0.4361
  962MOL0     H29846   9.241   2.149   6.899  0.8756  1.8424 -0.5534
  962MOL0     H29847   9.385   2.199   6.989 -0.9241  1.8441 -1.6758
  962MOL0     H29848   9.394   1.966   6.788 -2.0402  1.4660 -1.5142
  962MOL0     H29849   9.525   2.044   6.848  0.1600  0.2233 -0.6602
  962MOL0     H29850   9.460   2.254   6.749  0.0590  1.2490 -2.0417
  962MOL0     H29851   9.300   2.196   6.698 -0.7777 -0.9125  2.5789
  962MOL0     H29852   9.765   1.819   7.506  2.7202  1.9897  0.1356
  962MOL0     H29853   9.881   1.855   7.718 -0.4140  2.5947 -0.5343
  962MOL0     H29854  10.129   1.891   8.141  0.7995 -0.6405  1.7195
  962MOL0     H29855  10.208   2.013   8.316 -0.6896 -2.1305 -0.7463
  962MOL0     H29856   8.720   3.122   8.452  1.3077  0.8770 -0.8213
  962MOL0     H29857   8.558   3.201   8.276 -0.2782 -0.3433  1.5949
  962MOL0     H29858   8.253   2.906   7.826 -1.0970  0.2283 -0.8511
  962MOL0     H29859   8.178   2.971   7.604  2.5337 -1.1902 -0.9685
  962MOL0     H29860   8.281   3.379   7.416  1.4791 -1.6036  3.8871
  962MOL0     H29861   8.398   3.264   7.373 -0.3528 -1.6862  0.0316
  962MOL0     H29862   8.277   3.329   7.168 -1.6729  0.2019 -0.0897
  962MOL0     H29863   8.134   3.257   7.242 -0.1686 -0.3665  0.8878
  962MOL0     H29864   8.214   3.028   7.246  0.8316 -2.5100 -0.2101
  962MOL0     H29865   8.382   3.090   7.228 -0.1052 -0.7862 -0.4833
  962MOL0     H29866   8.307   3.151   6.998 -1.4689  0.6516 -0.8629
  962MOL0     H29867   8.152   3.085   7.027 -0.0074  0.1902 -0.0022
  962MOL0     H29868   8.416   2.740   7.021 -0.4004 -0.0306  3.3712
  962MOL0     H29869   8.404   3.337   7.628  2.3659 -0.5522 -2.0052
  962MOL0     H29870   8.502   3.252   7.834 -0.0706 -2.9492  4.2207
  963MOL0     O29871   6.056   4.067  10.797  0.1707 -0.5161 -0.6295
  963MOL0     C29872   6.026   4.189  10.782 -0.8761  0.3172  0.1298
  963MOL0     O29873   5.930   4.234  10.693  0.4195  0.2819 -0.3856
  963MOL0     C29874   5.836   4.146  10.637 -0.1672  0.2972 -0.6791
  963MOL0     C29875   5.787   4.152  10.503  1.2389  0.3502 -0.0079
  963MOL0     C29876   5.687   4.064  10.463 -0.6070  0.2425  0.2627
  963MOL0     C29877   5.624   3.984  10.550  0.3198  0.5831 -0.6135
  963MOL0     O29878   5.524   3.899  10.499  0.3309 -0.2655  0.7183
  963MOL0     C29879   5.389   3.907  10.555  0.2630  0.6220 -0.1309
  963MOL0     C29880   5.284   3.808  10.495 -0.4955 -0.0254  0.5658
  963MOL0     C29881   5.298   3.791  10.340  0.6845 -0.0990 -0.6679
  963MOL0     C29882   5.397   3.679  10.309  0.3151  0.2457 -0.1519
  963MOL0     C29883   5.408   3.659  10.160  0.6604  0.2342 -0.0621
  963MOL0     C29884   5.497   3.525  10.150 -0.0103  0.3107 -0.3567
  963MOL0     C29885   5.570   3.492  10.012 -0.1881  0.2185 -0.1642
  963MOL0     C29886   5.595   3.335  10.001  0.2477  0.5826  0.0111
  963MOL0     N29887   5.694   3.304  10.105  0.0307  0.8447 -0.5235
  963MOL0     C29888   5.691   3.193  10.191  0.5414 -0.3972  1.2642
  963MOL0     C29889   5.819   3.176  10.243 -0.1999  0.1139  0.6418
  963MOL0     C29890   5.869   3.057  10.323 -0.1982 -0.3669 -0.0191
  963MOL0     C29891   5.877   2.925  10.250  0.7546 -0.1928  0.8770
  963MOL0     C29892   6.000   2.902  10.159 -0.7490 -0.8828 -1.0950
  963MOL0     C29893   6.133   2.896  10.242 -0.6564  0.4483 -0.3554
  963MOL0     O29894   6.251   2.858  10.162  1.1367 -0.7007  0.2012
  963MOL0     C29895   6.271   2.937  10.047 -0.1134  0.3846 -0.7001
  963MOL0     C29896   6.317   2.878   9.935 -0.6479  0.6125 -0.7038
  963MOL0     C29897   6.338   2.967   9.829  0.2113 -0.2312 -0.5423
  963MOL0     C29898   6.381   2.889   9.705 -0.3416  0.1940  0.4680
  963MOL0     C29899   6.324   3.111   9.840 -0.3158  0.6490 -0.0633
  963MOL0     C29900   6.365   3.215   9.736 -0.7973 -0.0489  0.3325
  963MOL0     O29901   6.340   3.348   9.766 -0.0764  0.1393 -0.8263
  963MOL0     C29902   6.395   3.442   9.689  1.1054  0.6133  0.1476
  963MOL0     C29903   6.533   3.464   9.687 -0.6601 -0.1410  0.0577
  963MOL0     C29904   6.587   3.575   9.619  0.0094 -0.0218  0.1438
  963MOL0     C29905   6.506   3.661   9.553  0.8810  0.2042 -0.5145
  963MOL0     O29906   6.566   3.783   9.521 -0.5741  0.1190 -0.0348
  963MOL0     C29907   6.506   3.875   9.423  0.7337  0.1105 -0.1221
  963MOL0     C29908   6.618   3.930   9.326  0.3455  0.5184 -0.1352
  963MOL0     C29909   6.719   4.011   9.410 -0.2206  0.1006  0.1899
  963MOL0     C29910   6.659   4.147   9.461 -0.1242  0.2265 -0.1489
  963MOL0     C29911   6.781   4.230   9.506  0.0050  0.0034  0.5968
  963MOL0     C29912   6.740   4.370   9.539  1.1408 -0.1485  0.4658
  963MOL0     C29913   6.863   4.448   9.590  0.5355  0.3513 -0.1981
  963MOL0     C29914   6.836   4.583   9.647  0.5235 -0.1587 -0.1192
  963MOL0    Cl29915   6.795   4.688   9.505  0.0133  0.3294  0.0233
  963MOL0     C29916   6.367   3.638   9.552 -0.6252 -0.3717 -0.0269
  963MOL0     C29917   6.310   3.530   9.619 -0.3425  0.0701 -0.4333
  963MOL0     O29918   6.408   3.172   9.625  0.4979 -0.3522 -0.1318
  963MOL0     C29919   6.294   3.167   9.961 -0.2088  1.0184  0.7921
  963MOL0     C29920   6.281   3.078  10.068  0.0461  0.1419  0.3333
  963MOL0     N29921   5.891   3.290  10.192 -0.3009  0.4923  0.4240
  963MOL0     N29922   5.815   3.362  10.120 -0.3870 -1.3673 -0.8385
  963MOL0     C29923   5.676   3.970  10.671  0.5713 -1.2129 -1.6622
  963MOL0     C29924   5.781   4.045  10.718 -0.0358 -0.4037 -0.1752
  963MOL0     C29925   6.107   4.300  10.841  0.9203  0.4270 -0.6695
  963MOL0     C29926   6.073   4.426  10.818 -0.1992 -0.7955  0.7103
  963MOL0     C29927   6.157   4.536  10.859 -0.5911 -0.3877  0.0784
  963MOL0     C29928   6.270   4.512  10.944  1.1630 -0.2217  0.2631
  963MOL0     O29929   6.331   4.625  10.996 -0.0199 -0.4290  1.1396
  963MOL0     C29930   6.295   4.642  11.136  0.1896 -0.5474 -0.0854
  963MOL0     C29931   6.147   4.676  11.157  0.0276  0.3404 -0.6146
  963MOL0     C29932   6.093   4.797  11.076  0.3186  0.7168  0.3439
  963MOL0     C29933   6.114   4.935  11.140  0.1340  1.0358  0.5714
  963MOL0     C29934   6.255   4.966  11.120 -0.7307 -0.4264 -0.2314
  963MOL0     C29935   6.369   5.001  11.098 -0.0960  0.4091  0.1898
  963MOL0     C29936   6.294   4.378  10.979 -0.4121 -0.0717  0.9315
  963MOL0     C29937   6.223   4.270  10.920  0.5090  0.2805 -0.2768
  963MOL0     H29938   5.830   4.224  10.435  2.5417 -1.7659 -1.5803
  963MOL0     H29939   5.665   4.066  10.357  1.9435  1.2354 -0.3282
  963MOL0     H29940   5.405   3.897  10.663  1.4974 -4.2634 -0.5346
  963MOL0     H29941   5.348   4.004  10.527 -2.5534 -1.7976 -6.1547
  963MOL0     H29942   5.283   3.715  10.553  0.7410  0.5962  1.6526
  963MOL0     H29943   5.189   3.860  10.511  0.3480  1.5898  0.5520
  963MOL0     H29944   5.199   3.756  10.310  0.0211  0.8544  0.2964
  963MOL0     H29945   5.330   3.885  10.294  1.4559 -0.9106 -1.8479
  963MOL0     H29946   5.493   3.697  10.358 -1.3663 -1.9605  4.5853
  963MOL0     H29947   5.349   3.592  10.355 -0.8904 -0.1093 -1.9545
  963MOL0     H29948   5.307   3.638  10.123  0.0681  1.1800  0.9643
  963MOL0     H29949   5.456   3.746  10.114 -0.6521  2.9323  3.3026
  963MOL0     H29950   5.574   3.515  10.228  0.4219 -4.3915 -1.1347
  963MOL0     H29951   5.420   3.452  10.174 -1.0306  1.5233  0.1972
  963MOL0     H29952   5.505   3.523   9.929  0.8458  2.9188 -0.0500
  963MOL0     H29953   5.663   3.547   9.997 -0.9844  1.2312 -1.6986
  963MOL0     H29954   5.626   3.315   9.898 -2.3182 -4.7609 -0.0878
  963MOL0     H29955   5.501   3.286  10.029 -0.5649  3.3826  2.7943
  963MOL0     H29956   5.600   3.137  10.208  0.4956  0.1256  2.9207
  963MOL0     H29957   5.966   3.087  10.365  1.6264  0.6529 -4.4049
  963MOL0     H29958   5.800   3.040  10.406 -1.0930  0.5326 -0.5616
  963MOL0     H29959   5.792   2.918  10.181  1.8320  0.7561 -0.6026
  963MOL0     H29960   5.865   2.837  10.314 -0.0163 -1.1706 -0.5686
  963MOL0     H29961   6.015   2.984  10.088 -3.3839 -1.0222 -1.9226
  963MOL0     H29962   5.988   2.804  10.111  1.0066 -1.9933  0.5970
  963MOL0     H29963   6.122   2.814  10.314  0.2992  1.6585  1.2633
  963MOL0     H29964   6.163   2.984  10.301 -0.2478 -0.5031  0.8975
  963MOL0     H29965   6.325   2.770   9.947 -1.0344  0.5008 -1.3842
  963MOL0     H29966   6.296   2.825   9.678 -0.3122 -1.6846  4.1814
  963MOL0     H29967   6.423   2.953   9.627 -0.5007 -0.6967 -0.3663
  963MOL0     H29968   6.464   2.821   9.726 -1.5291 -2.1358 -1.8117
  963MOL0     H29969   6.609   3.415   9.747 -1.3838  0.5383  1.5921
  963MOL0     H29970   6.695   3.582   9.628  0.4706 -3.0473 -1.4273
  963MOL0     H29971   6.427   3.834   9.360  1.8697 -1.9825 -0.2955
  963MOL0     H29972   6.460   3.954   9.482  1.1119  2.1610 -2.4361
  963MOL0     H29973   6.664   3.850   9.267 -1.9389 -0.9427 -0.0569
  963MOL0     H29974   6.571   3.996   9.252 -5.2270 -1.1107  1.4567
  963MOL0     H29975   6.813   4.032   9.357  0.3461 -1.3825  0.5555
  963MOL0     H29976   6.757   3.961   9.499 -0.2835  1.5021  1.0440
  963MOL0     H29977   6.619   4.204   9.377  1.3623  1.1399 -0.2636
  963MOL0     H29978   6.585   4.134   9.541 -0.3433  1.7955 -0.0769
  963MOL0     H29979   6.870   4.233   9.442  0.6828 -2.5808  1.2888
  963MOL0     H29980   6.804   4.188   9.604 -1.3803 -0.5935  0.6931
  963MOL0     H29981   6.707   4.414   9.444 -1.2522 -1.7189  0.4810
  963MOL0     H29982   6.661   4.358   9.614  0.4490  2.0858  0.1837
  963MOL0     H29983   6.935   4.459   9.508  1.8668 -2.1891  0.5108
  963MOL0     H29984   6.908   4.386   9.668 -0.4699  0.9539  0.8896
  963MOL0     H29985   6.921   4.614   9.708 -0.4804  1.0857  0.6928
  963MOL0     H29986   6.754   4.576   9.719  1.8314 -2.6218  1.2850
  963MOL0     H29987   6.305   3.717   9.511  2.8008  0.9478 -3.1514
  963MOL0     H29988   6.204   3.508   9.624 -0.7276  2.0511  1.7948
  963MOL0     H29989   6.277   3.269   9.992  0.3663  0.6043  2.6057
  963MOL0     H29990   6.269   3.124  10.165  0.4720  3.1943 -0.9605
  963MOL0     H29991   5.637   3.896  10.740 -1.4275  3.4722  2.8581
  963MOL0     H29992   5.814   4.036  10.821 -1.6975  0.6846  0.5123
  963MOL0     H29993   5.988   4.447  10.753 -0.8070  1.8106  2.1972
  963MOL0     H29994   6.128   4.638  10.835 -1.5419 -1.0495 -1.8710
  963MOL0     H29995   6.319   4.550  11.189 -0.5684 -0.6663  0.0627
  963MOL0     H29996   6.356   4.726  11.172 -1.3219  1.3593 -1.7088
  963MOL0     H29997   6.135   4.703  11.262 -0.4750 -2.1182  0.0118
  963MOL0     H29998   6.092   4.587  11.127  1.0759  0.1253 -2.0134
  963MOL0     H29999   5.987   4.781  11.056  0.7369 -0.6118 -0.9975
  963MOL0     H30000   6.130   4.798  10.973 -0.6921  0.8465 -0.0300
  963MOL0     H30001   6.103   4.925  11.248  4.8104 -2.2159  1.0379
  963MOL0     H30002   6.052   5.016  11.100 -1.0170  0.5414  1.3133
  963MOL0     H30003   6.459   5.058  11.091 -0.5510  0.9242 -2.0669
  963MOL0     H30004   6.378   4.360  11.045  1.3991 -2.1831 -1.7077
  963MOL0     H30005   6.241   4.166  10.945 -0.6736  0.3272  0.8898
  964MOL0     O30006   2.078  11.151   5.149 -0.1292 -0.2100 -0.3495
  964MOL0     C30007   2.179  11.127   5.081  0.3347 -0.1500 -0.3274
  964MOL0     O30008   2.261  11.229   5.027 -0.0038 -0.3751 -0.2869
  964MOL0     C30009   2.252  11.362   5.065  0.3109 -0.2078  0.3379
  964MOL0     C30010   2.216  11.408   5.195  0.2542 -0.4371  0.5466
  964MOL0     C30011   2.195  11.548   5.205  0.2341  0.0263  0.3012
  964MOL0     C30012   2.213  11.631   5.101 -0.5971  0.0136 -0.9753
  964MOL0     O30013   2.198  11.762   5.130  0.6567 -0.1173 -0.3213
  964MOL0     C30014   2.262  11.866   5.051  1.0149 -0.1858  0.1585
  964MOL0     C30015   2.284  12.001   5.112  0.3969  0.2884 -0.7132
  964MOL0     C30016   2.427  12.010   5.160  0.6533  0.3365  0.3767
  964MOL0     C30017   2.443  12.147   5.234  0.4792 -0.6712  0.0160
  964MOL0     C30018   2.580  12.154   5.299  0.0959  0.5036 -0.0636
  964MOL0     C30019   2.703  12.214   5.218 -0.1623  0.2515  0.4405
  964MOL0     C30020   2.827  12.223   5.297 -0.3939 -0.2561 -0.6396
  964MOL0     C30021   2.954  12.256   5.232 -0.0766 -0.1799  0.5227
  964MOL0     N30022   2.953  12.404   5.204 -1.2471  1.4344 -0.5993
  964MOL0     C30023   3.012  12.500   5.281 -0.4791  0.5896  0.7608
  964MOL0     C30024   2.994  12.612   5.207  0.9363 -0.5560 -0.0715
  964MOL0     C30025   3.061  12.747   5.224  0.2435  0.2406  0.4498
  964MOL0     C30026   3.197  12.740   5.288  0.2256  0.0706 -0.1933
  964MOL0     C30027   3.308  12.678   5.204 -0.3275 -0.0716 -0.1379
  964MOL0     C30028   3.375  12.781   5.115  0.1114 -0.0869 -0.8894
  964MOL0     O30029   3.510  12.754   5.096 -0.2312 -0.0707  0.2325
  964MOL0     C30030   3.583  12.856   5.045 -0.0989 -0.8326 -0.4960
  964MOL0     C30031   3.639  12.828   4.923  0.1104 -0.5070 -0.4622
  964MOL0     C30032   3.715  12.927   4.860 -1.0390  0.8446 -0.0453
  964MOL0     C30033   3.778  12.878   4.736  1.1949 -0.3119 -0.2211
  964MOL0     C30034   3.732  13.053   4.922 -1.4103 -1.3048  0.2093
  964MOL0     C30035   3.806  13.162   4.854 -0.3952  0.2259 -0.8484
  964MOL0     O30036   3.851  13.256   4.930 -0.8493  0.2025  0.4665
  964MOL0     C30037   3.884  13.379   4.883  0.1645 -0.0072  0.3374
  964MOL0     C30038   4.015  13.418   4.886 -0.1183  0.5375 -1.8816
  964MOL0     C30039   4.073  13.534   4.836  0.8491 -0.0712 -0.4442
  964MOL0     C30040   3.992  13.630   4.781  0.0754  0.5103 -0.4636
  964MOL0     O30041   4.049  13.743   4.730 -0.5338 -0.8050  0.3860
  964MOL0     C30042   3.962  13.851   4.708 -0.2398  0.5642 -0.3170
  964MOL0     C30043   4.051  13.980   4.693 -0.8039 -0.2476 -0.1432
  964MOL0     C30044   4.131  14.018   4.816  0.5261 -0.2271  0.3781
  964MOL0     C30045   4.257  14.108   4.787 -0.5001 -0.0213 -0.1261
  964MOL0     C30046   4.336  14.151   4.912 -0.1932 -0.6386  0.2522
  964MOL0     C30047   4.455  14.235   4.855  0.6967 -0.6725 -0.1604
  964MOL0     C30048   4.518  14.312   4.977  0.2962  0.8514 -0.2975
  964MOL0     C30049   4.650  14.383   4.926  0.0965 -0.4087 -0.1935
  964MOL0    Cl30050   4.765  14.263   4.859  0.1474 -0.3966  0.0726
  964MOL0     C30051   3.856  13.594   4.770 -0.5513 -0.1578 -0.3278
  964MOL0     C30052   3.795  13.474   4.820  0.0680  0.6169 -0.6888
  964MOL0     O30053   3.827  13.157   4.732  0.9458  0.2038 -0.2787
  964MOL0     C30054   3.677  13.074   5.046 -0.0621  0.4899 -0.0549
  964MOL0     C30055   3.602  12.976   5.104  0.2010 -0.8503 -0.1420
  964MOL0     N30056   2.916  12.587   5.101 -0.0565 -0.2026  0.1343
  964MOL0     N30057   2.891  12.463   5.097 -0.8347  0.2276  0.4302
  964MOL0     C30058   2.260  11.588   4.985 -0.0599 -0.6802  0.4146
  964MOL0     C30059   2.283  11.450   4.968  1.0923 -0.7620  0.8782
  964MOL0     C30060   2.215  10.989   5.060 -0.4532 -0.2627 -0.4373
  964MOL0     C30061   2.136  10.874   5.105  1.0712  0.3832  0.6094
  964MOL0     C30062   2.176  10.733   5.096 -0.1480  0.3526  0.3754
  964MOL0     C30063   2.303  10.707   5.037  0.1951  0.8986 -0.2799
  964MOL0     O30064   2.335  10.581   5.018  0.6146 -0.3117  0.3581
  964MOL0     C30065   2.444  10.551   4.927  0.3165 -0.5171  0.6010
  964MOL0     C30066   2.463  10.400   4.939  0.1820  0.4339 -0.5250
  964MOL0     C30067   2.330  10.327   4.907 -0.0090 -0.4635  0.2233
  964MOL0     C30068   2.357  10.175   4.885  0.5096 -0.0845  0.1806
  964MOL0     C30069   2.246  10.109   4.815  0.9506  0.3272  0.8420
  964MOL0     C30070   2.153  10.045   4.766  0.5256 -0.3642  0.1545
  964MOL0     C30071   2.384  10.816   4.996 -0.6668  0.1087  0.0955
  964MOL0     C30072   2.343  10.948   5.008  0.2748 -0.5499 -0.5830
  964MOL0     H30073   2.204  11.347   5.284  2.4860 -3.4697 -1.0636
  964MOL0     H30074   2.164  11.592   5.299 -1.5844  2.1474 -1.2045
  964MOL0     H30075   2.358  11.830   5.012  0.9289 -0.5643  0.2930
  964MOL0     H30076   2.198  11.880   4.963 -1.8724  0.1874  2.1756
  964MOL0     H30077   2.272  12.081   5.039 -2.1698  0.7305  0.0820
  964MOL0     H30078   2.209  12.036   5.183  0.9849  3.6871 -1.5831
  964MOL0     H30079   2.440  11.927   5.232 -1.3282 -1.9245 -1.7044
  964MOL0     H30080   2.483  11.992   5.068 -1.3306 -1.5885 -0.5458
  964MOL0     H30081   2.429  12.226   5.160  0.0508  2.6678  3.3176
  964MOL0     H30082   2.360  12.165   5.303  0.3024  0.7373 -0.5315
  964MOL0     H30083   2.568  12.201   5.397  1.7578  3.1732 -1.0080
  964MOL0     H30084   2.616  12.053   5.318  1.1708  0.7700 -0.5799
  964MOL0     H30085   2.724  12.144   5.137 -2.9823 -0.0169 -0.1780
  964MOL0     H30086   2.672  12.308   5.169  0.3464 -0.3062 -1.0117
  964MOL0     H30087   2.819  12.293   5.381  2.8020 -0.9700  0.4163
  964MOL0     H30088   2.851  12.120   5.328 -0.2242  0.2196  0.9199
  964MOL0     H30089   2.975  12.201   5.141  1.3759  0.2408  0.5762
  964MOL0     H30090   3.040  12.247   5.299  0.6691 -0.8575 -0.4995
  964MOL0     H30091   3.070  12.488   5.372  2.6233 -2.2264 -1.3541
  964MOL0     H30092   3.064  12.789   5.123  2.4765  1.5527  1.0003
  964MOL0     H30093   2.995  12.801   5.293 -1.3991 -0.9251 -0.1199
  964MOL0     H30094   3.194  12.689   5.385  1.7819 -0.3058 -0.3262
  964MOL0     H30095   3.217  12.842   5.323 -2.8342  0.0073  2.2522
  964MOL0     H30096   3.275  12.591   5.145  0.1176  0.6103 -1.4377
  964MOL0     H30097   3.390  12.657   5.272 -0.4499  2.1158  0.7424
  964MOL0     H30098   3.363  12.881   5.156 -1.7595  0.2588 -2.1571
  964MOL0     H30099   3.324  12.784   5.018 -0.8728 -0.7960 -0.4085
  964MOL0     H30100   3.622  12.731   4.876 -2.2820 -0.9957  1.2394
  964MOL0     H30101   3.766  12.946   4.651 -0.3616 -0.9389 -0.5537
  964MOL0     H30102   3.884  12.857   4.749  2.2539  2.1190 -3.7550
  964MOL0     H30103   3.728  12.788   4.697 -1.7835  0.7844  0.7216
  964MOL0     H30104   4.093  13.354   4.927 -2.0081  1.1438  3.3336
  964MOL0     H30105   4.179  13.549   4.855  1.0579 -0.7579 -1.0182
  964MOL0     H30106   3.901  13.855   4.617  0.6287 -0.9749 -1.0183
  964MOL0     H30107   3.893  13.863   4.792 -1.6760  1.5268 -1.5759
  964MOL0     H30108   4.112  13.945   4.609  2.5282  0.1580  1.9217
  964MOL0     H30109   3.983  14.062   4.667 -0.7242  0.1672  0.9142
  964MOL0     H30110   4.176  13.925   4.853  0.0062  0.2336  2.3237
  964MOL0     H30111   4.063  14.076   4.880 -1.9221 -2.7102  0.2171
  964MOL0     H30112   4.321  14.046   4.724 -0.2503 -0.5610  0.6462
  964MOL0     H30113   4.228  14.183   4.713  1.8494 -1.8518 -3.1024
  964MOL0     H30114   4.368  14.061   4.965  0.6841 -0.9508 -0.7796
  964MOL0     H30115   4.266  14.212   4.971 -1.0130  0.7336 -2.0050
  964MOL0     H30116   4.528  14.174   4.802  0.3990 -0.3819 -0.9176
  964MOL0     H30117   4.416  14.312   4.787  2.3081  1.3994  1.1096
  964MOL0     H30118   4.534  14.246   5.063  1.8592  1.6485  0.0500
  964MOL0     H30119   4.442  14.386   5.003  0.2320  1.3171 -1.7315
  964MOL0     H30120   4.690  14.423   5.019  1.2091 -0.7669 -0.5003
  964MOL0     H30121   4.614  14.462   4.859 -5.5277 -2.7163 -0.4173
  964MOL0     H30122   3.790  13.662   4.717  3.6002  3.0680 -1.9548
  964MOL0     H30123   3.689  13.451   4.828 -0.4121  2.5878 -0.7585
  964MOL0     H30124   3.678  13.166   5.103  1.2495  0.4910 -0.0423
  964MOL0     H30125   3.562  12.991   5.204 -1.4306 -0.8616 -0.7612
  964MOL0     H30126   2.288  11.660   4.909 -1.1561  3.1283  3.2901
  964MOL0     H30127   2.314  11.413   4.871 -1.8546  0.2571 -0.5842
  964MOL0     H30128   2.045  10.910   5.152  1.0247  2.2541 -0.8124
  964MOL0     H30129   2.123  10.646   5.132 -0.6345  0.6675  0.4399
  964MOL0     H30130   2.433  10.577   4.822  2.1313  1.6876  0.8733
  964MOL0     H30131   2.538  10.600   4.956  0.5531  0.3046 -1.3962
  964MOL0     H30132   2.495  10.372   5.040 -4.4578  0.5896  1.2184
  964MOL0     H30133   2.539  10.369   4.866 -1.0124 -1.0388 -1.1922
  964MOL0     H30134   2.298  10.358   4.807  1.5155  1.0131  0.1409
  964MOL0     H30135   2.257  10.344   4.986 -1.0070 -1.6905 -0.4028
  964MOL0     H30136   2.358  10.141   4.989  0.1785  1.0195  0.5537
  964MOL0     H30137   2.449  10.160   4.827 -1.0634 -0.4068 -2.4076
  964MOL0     H30138   2.075   9.989   4.718 -0.1167 -2.6032  3.5235
  964MOL0     H30139   2.476  10.786   4.946 -2.1618 -1.1001 -2.1257
  964MOL0     H30140   2.422  11.011   4.969  2.4720 -4.8562 -4.1520
  965MOL0     O30141   1.103   0.726   0.222  0.6568  1.0113  0.4873
  965MOL0     C30142   1.052   0.616   0.198 -0.6018  0.4126 -0.4304
  965MOL0     O30143   1.087   0.502   0.270  0.5444  0.0062  0.0387
  965MOL0     C30144   1.159   0.512   0.385  0.0822 -0.4356 -0.4975
  965MOL0     C30145   1.279   0.466   0.379 -0.5957  0.5663  0.0664
  965MOL0     C30146   1.373   0.473   0.479  0.7094  0.1726  0.1349
  965MOL0     C30147   1.343   0.547   0.595 -0.2209  0.2238  0.1366
  965MOL0     O30148   1.457   0.564   0.687  0.0781  0.3581 -0.2398
  965MOL0     C30149   1.435   0.647   0.805 -0.2947 -0.3781 -0.2106
  965MOL0     C30150   1.538   0.598   0.902  0.3241 -0.8168 -0.4375
  965MOL0     C30151   1.532   0.679   1.031  0.3808  1.1713  0.1023
  965MOL0     C30152   1.651   0.636   1.126 -0.2273 -0.3474 -0.1596
  965MOL0     C30153   1.655   0.714   1.265 -0.2758  0.0686  0.8789
  965MOL0     C30154   1.519   0.707   1.341  0.4332  0.4865 -0.8997
  965MOL0     C30155   1.536   0.738   1.485 -0.0317 -0.0376 -0.2048
  965MOL0     C30156   1.420   0.807   1.563 -0.6028  0.7476  0.3699
  965MOL0     N30157   1.461   0.827   1.710 -0.3098 -0.1557 -0.1225
  965MOL0     C30158   1.460   0.725   1.804 -0.5856  1.2409  0.0863
  965MOL0     C30159   1.481   0.780   1.922 -0.2321 -0.5762 -0.8186
  965MOL0     C30160   1.487   0.716   2.065  0.0815 -0.2656 -0.9394
  965MOL0     C30161   1.621   0.656   2.099  0.6535  0.7744  0.5627
  965MOL0     C30162   1.744   0.736   2.074  0.0763 -0.4049 -0.4369
  965MOL0     C30163   1.748   0.861   2.157 -0.6355  0.2210 -0.9860
  965MOL0     O30164   1.781   0.830   2.295 -0.0720 -0.1805 -0.2243
  965MOL0     C30165   1.694   0.863   2.387  0.7086 -0.5441  0.4454
  965MOL0     C30166   1.605   0.972   2.396 -0.5193  0.4349 -0.0664
  965MOL0     C30167   1.528   0.983   2.510  0.1933  0.1456  0.6699
  965MOL0     C30168   1.431   1.101   2.509  0.1438  0.5233 -0.4415
  965MOL0     C30169   1.537   0.906   2.627 -0.3147 -0.2741 -0.4030
  965MOL0     C30170   1.453   0.921   2.739 -0.5651  0.8781  0.2265
  965MOL0     O30171   1.402   0.808   2.793  0.6907  0.0438  0.1096
  965MOL0     C30172   1.346   0.826   2.915 -0.1485  0.1947  1.0126
  965MOL0     C30173   1.403   0.757   3.026 -0.0404 -0.4204  0.3632
  965MOL0     C30174   1.364   0.782   3.162  0.8701 -0.2393 -0.9922
  965MOL0     C30175   1.251   0.860   3.173 -0.9801 -0.2778  0.5708
  965MOL0     O30176   1.169   0.882   3.281  0.3607  0.2409 -0.3825
  965MOL0     C30177   1.230   0.916   3.407 -0.0374 -0.1074  0.3686
  965MOL0     C30178   1.116   0.968   3.490  0.8503 -0.3037 -0.4256
  965MOL0     C30179   1.023   1.078   3.429 -0.7994  0.3533  0.1687
  965MOL0     C30180   0.965   1.162   3.547 -0.1190 -0.4951  0.0311
  965MOL0     C30181   0.860   1.088   3.620  0.4202  0.0081 -0.6996
  965MOL0     C30182   0.810   1.171   3.744 -0.1692 -0.1944  0.7274
  965MOL0     C30183   0.736   1.303   3.710 -0.1361  0.0142  0.5419
  965MOL0     C30184   0.594   1.263   3.666 -0.6501 -0.4740 -0.9346
  965MOL0    Cl30185   0.481   1.408   3.676 -0.0765 -0.1524 -0.2797
  965MOL0     C30186   1.190   0.924   3.065 -0.3154  0.2541 -0.4198
  965MOL0     C30187   1.240   0.915   2.936  0.3462 -0.7666  0.5176
  965MOL0     O30188   1.446   1.035   2.788  0.4040 -0.1127 -0.4840
  965MOL0     C30189   1.627   0.796   2.610 -0.2503 -0.0278 -0.1222
  965MOL0     C30190   1.696   0.771   2.489 -0.0222 -0.0530 -1.5779
  965MOL0     N30191   1.492   0.918   1.901 -0.4740 -0.3386  0.7165
  965MOL0     N30192   1.470   0.948   1.777  1.1651  0.7791 -0.0080
  965MOL0     C30193   1.214   0.601   0.605 -0.5549  0.2652 -0.4866
  965MOL0     C30194   1.120   0.577   0.509 -0.4531 -0.3459  0.4007
  965MOL0     C30195   0.985   0.600   0.068 -0.1017 -1.2892  0.1864
  965MOL0     C30196   0.917   0.481   0.018 -0.3257 -0.9718  0.4712
  965MOL0     C30197   0.887   0.468  -0.118 -0.3159  0.3137  0.0269
  965MOL0     C30198   0.909   0.573  -0.205  1.0118 -0.0025  0.0846
  965MOL0     O30199   0.889   0.563  -0.343 -0.7337 -0.2867 -0.1495
  965MOL0     C30200   0.866   0.440  -0.403  0.4222  0.0217 -0.4525
  965MOL0     C30201   0.715   0.427  -0.387 -0.7110 -0.3081 -0.5943
  965MOL0     C30202   0.675   0.290  -0.435  0.6765  0.3596  0.0988
  965MOL0     C30203   0.523   0.279  -0.441  0.4127  0.8323 -0.1371
  965MOL0     C30204   0.490   0.136  -0.474  0.3988  0.2129 -0.5712
  965MOL0     C30205   0.459   0.019  -0.486  0.7722  0.1281  0.0969
  965MOL0     C30206   0.962   0.688  -0.156 -0.2850  0.1917  0.5127
  965MOL0     C30207   0.987   0.704  -0.021 -0.0656 -0.2678 -0.3747
  965MOL0     H30208   1.303   0.415   0.286 -0.9642  3.9615 -2.0685
  965MOL0     H30209   1.474   0.440   0.459  0.6729  0.2921 -0.2542
  965MOL0     H30210   1.445   0.755   0.791  3.0066 -0.0148  3.2975
  965MOL0     H30211   1.340   0.624   0.854 -1.4267 -0.1784 -2.2057
  965MOL0     H30212   1.514   0.493   0.923 -0.3119 -0.4437  0.8611
  965MOL0     H30213   1.642   0.612   0.871  1.4116 -1.1550  2.6650
  965MOL0     H30214   1.535   0.788   1.021 -3.3452  1.4160  0.5061
  965MOL0     H30215   1.440   0.660   1.087  0.2778 -0.4141 -0.5460
  965MOL0     H30216   1.638   0.533   1.160 -0.9490  1.2264  5.2005
  965MOL0     H30217   1.738   0.651   1.061 -1.2234  2.9608 -0.9567
  965MOL0     H30218   1.732   0.655   1.318 -0.4868 -0.6100  0.4427
  965MOL0     H30219   1.674   0.821   1.253  2.0476 -0.4915 -1.3675
  965MOL0     H30220   1.463   0.789   1.294 -0.8947 -2.2734 -4.5602
  965MOL0     H30221   1.452   0.621   1.333 -2.3814  2.3892  0.2847
  965MOL0     H30222   1.565   0.641   1.526  2.5156  1.6922  2.4414
  965MOL0     H30223   1.621   0.805   1.494  1.3648 -1.7934  0.1121
  965MOL0     H30224   1.338   0.735   1.566 -1.0201  1.2395  0.8992
  965MOL0     H30225   1.382   0.899   1.520  1.1477  0.4579 -2.0259
  965MOL0     H30226   1.458   0.618   1.788 -0.8929  1.3756 -0.8105
  965MOL0     H30227   1.456   0.789   2.141  0.7737 -1.4410  0.5207
  965MOL0     H30228   1.413   0.636   2.068 -2.9142  2.3054 -0.1509
  965MOL0     H30229   1.636   0.561   2.048 -3.1348  1.0206 -1.3335
  965MOL0     H30230   1.620   0.639   2.207 -0.9514 -1.0227  0.3134
  965MOL0     H30231   1.748   0.774   1.972 -2.6052 -0.4862 -0.6347
  965MOL0     H30232   1.836   0.680   2.094  1.2240  1.2802 -0.7946
  965MOL0     H30233   1.653   0.915   2.157 -0.5963  0.2900 -1.0051
  965MOL0     H30234   1.831   0.923   2.121  1.3489 -0.9986  1.2234
  965MOL0     H30235   1.594   1.052   2.324  2.2063  3.3190  2.4373
  965MOL0     H30236   1.404   1.132   2.407 -1.4953  1.8177  0.3252
  965MOL0     H30237   1.334   1.089   2.558  0.2043  1.8382  0.0273
  965MOL0     H30238   1.464   1.180   2.576 -0.7562 -0.2325  0.9517
  965MOL0     H30239   1.479   0.686   2.996 -0.8477 -1.2645  0.2879
  965MOL0     H30240   1.408   0.723   3.241  0.9956 -2.0049 -2.3224
  965MOL0     H30241   1.279   0.830   3.454  0.3430 -0.3625 -0.4823
  965MOL0     H30242   1.299   0.997   3.387  0.8889 -0.3055  2.4565
  965MOL0     H30243   1.049   0.891   3.529  0.8010 -0.0231  0.0518
  965MOL0     H30244   1.161   1.019   3.576  2.0224 -1.5109 -0.2970
  965MOL0     H30245   0.942   1.029   3.375 -1.4313 -1.6159  2.6951
  965MOL0     H30246   1.090   1.131   3.361  1.5546 -2.0993  0.3987
  965MOL0     H30247   1.044   1.205   3.610  1.9554  1.6780 -3.7014
  965MOL0     H30248   0.913   1.247   3.502 -2.3734 -1.3610  0.8479
  965MOL0     H30249   0.891   0.990   3.657 -1.2576  0.1395  1.2409
  965MOL0     H30250   0.782   1.072   3.546 -0.7832  1.6591  0.1427
  965MOL0     H30251   0.751   1.100   3.803 -1.8854 -0.6296 -1.3773
  965MOL0     H30252   0.892   1.192   3.813  0.5126 -2.6899  0.7716
  965MOL0     H30253   0.778   1.362   3.628  0.6225  1.0636  1.6534
  965MOL0     H30254   0.719   1.363   3.800  0.2875 -0.8607  1.2136
  965MOL0     H30255   0.557   1.179   3.725  3.2862 -1.2393  0.7046
  965MOL0     H30256   0.594   1.236   3.560 -0.0431 -0.8817 -0.8330
  965MOL0     H30257   1.100   0.982   3.082 -0.4410  0.1214 -0.6246
  965MOL0     H30258   1.189   0.975   2.861  1.0118  1.2544  1.6273
  965MOL0     H30259   1.640   0.727   2.692 -2.4734  0.1219  0.4264
  965MOL0     H30260   1.768   0.691   2.478  1.2353  0.6379  0.8965
  965MOL0     H30261   1.191   0.653   0.697  1.1701  0.3572 -0.0610
  965MOL0     H30262   1.016   0.605   0.522 -0.4578 -0.2094  0.0971
  965MOL0     H30263   0.915   0.387   0.073 -0.9028 -1.9217 -1.0936
  965MOL0     H30264   0.853   0.373  -0.158  1.6575 -0.6707  0.5318
  965MOL0     H30265   0.882   0.451  -0.511 -1.3250  0.4334 -0.7042
  965MOL0     H30266   0.920   0.357  -0.355 -2.8290 -0.7913  2.1636
  965MOL0     H30267   0.677   0.508  -0.449  1.2711  1.2163  0.0825
  965MOL0     H30268   0.680   0.450  -0.286  1.6052  3.1550 -0.4180
  965MOL0     H30269   0.715   0.216  -0.365  0.1264  2.2944  2.6419
  965MOL0     H30270   0.719   0.261  -0.531 -0.3740 -1.7831  0.2105
  965MOL0     H30271   0.477   0.353  -0.507 -0.2025  0.8028  0.2471
  965MOL0     H30272   0.488   0.309  -0.342  2.0984  0.3564  0.6376
  965MOL0     H30273   0.433  -0.083  -0.505  2.4597  0.1851 -3.4831
  965MOL0     H30274   0.989   0.765  -0.229  2.3562 -0.5643  0.5872
  965MOL0     H30275   1.053   0.786   0.004 -0.5039  0.4953 -1.6155
  966MOL0     O30276   6.829  11.474  10.308 -0.0687  0.1576 -0.6853
  966MOL0     C30277   6.716  11.525  10.278 -0.1235  1.1582 -0.1707
  966MOL0     O30278   6.605  11.450  10.269  0.4067 -0.6766  0.3131
  966MOL0     C30279   6.602  11.311  10.261  0.3256  0.5999 -0.2687
  966MOL0     C30280   6.711  11.223  10.254 -0.3922  0.1931  0.2516
  966MOL0     C30281   6.689  11.089  10.228  0.0947  0.5202  0.0624
  966MOL0     C30282   6.566  11.036  10.207 -0.1974 -0.5224 -0.3530
  966MOL0     O30283   6.561  10.900  10.167  0.8726 -0.2499  0.1946
  966MOL0     C30284   6.555  10.883  10.024 -0.2200  0.7194 -0.2515
  966MOL0     C30285   6.689  10.887   9.952  0.1616 -0.0810  0.0609
  966MOL0     C30286   6.677  10.903   9.803  0.5187  0.4348 -0.2966
  966MOL0     C30287   6.801  10.854   9.723  0.2030  0.1733  0.1742
  966MOL0     C30288   6.792  10.877   9.572 -0.3510 -0.2376 -0.4704
  966MOL0     C30289   6.927  10.924   9.510  0.3054  0.8137  1.3034
  966MOL0     C30290   6.899  10.980   9.363 -0.0821 -0.2824 -0.0094
  966MOL0     C30291   6.885  10.867   9.264  0.5350 -0.1843  0.5980
  966MOL0     N30292   6.833  10.927   9.144  0.3105 -0.1448  0.1543
  966MOL0     C30293   6.712  10.904   9.085 -0.3851 -0.2121 -0.5873
  966MOL0     C30294   6.722  10.986   8.971 -0.4067  0.4392 -0.7182
  966MOL0     C30295   6.612  11.025   8.886 -0.0966 -0.7484  0.2486
  966MOL0     C30296   6.635  10.978   8.731 -0.1623  0.3844  0.1498
  966MOL0     C30297   6.706  11.073   8.637  0.5055  0.0766  0.1830
  966MOL0     C30298   6.729  11.028   8.496  0.2990  0.3558  0.2427
  966MOL0     O30299   6.812  10.911   8.485  0.0354 -0.3326  0.0604
  966MOL0     C30300   6.901  10.907   8.383 -0.8313  1.1338  0.2228
  966MOL0     C30301   7.041  10.921   8.394 -0.8593 -0.0083 -0.6006
  966MOL0     C30302   7.129  10.921   8.286 -0.1110 -0.4611  0.4158
  966MOL0     C30303   7.276  10.945   8.322  0.4598  0.0181  0.3175
  966MOL0     C30304   7.075  10.914   8.154 -0.8117 -0.1547  0.5991
  966MOL0     C30305   7.148  10.931   8.029 -0.6911  0.2941 -0.0404
  966MOL0     O30306   7.070  10.937   7.918  0.4816  0.1784  0.2335
  966MOL0     C30307   7.133  10.998   7.815  0.3942 -0.3821 -0.0034
  966MOL0     C30308   7.179  10.918   7.712 -0.6031 -0.3343 -0.8605
  966MOL0     C30309   7.234  10.966   7.600 -0.2057  0.7724 -0.5703
  966MOL0     C30310   7.229  11.109   7.579 -0.6837 -0.8033 -0.0695
  966MOL0     O30311   7.267  11.148   7.454  0.2799 -0.8807 -0.4488
  966MOL0     C30312   7.176  11.240   7.377 -0.2677 -1.3297  0.0655
  966MOL0     C30313   7.052  11.156   7.341  0.3641  0.5118  0.1588
  966MOL0     C30314   6.967  11.233   7.236  0.5918 -0.0356 -0.3369
  966MOL0     C30315   6.868  11.128   7.171  0.1543 -0.0038 -0.7016
  966MOL0     C30316   6.785  11.206   7.062  0.7085  0.4851  0.0961
  966MOL0     C30317   6.708  11.108   6.964 -0.7496  0.8970  0.1021
  966MOL0     C30318   6.600  11.019   7.024  0.2242 -0.6840 -0.5005
  966MOL0     C30319   6.462  11.076   7.025  0.5894 -0.1989 -0.4717
  966MOL0    Cl30320   6.451  11.201   7.154 -0.1260  0.6389  0.1699
  966MOL0     C30321   7.181  11.193   7.677  0.5130 -0.7729 -0.6083
  966MOL0     C30322   7.131  11.139   7.799 -0.2408  0.2819 -0.9854
  966MOL0     O30323   7.271  10.951   8.022  0.4097  0.1392 -0.8555
  966MOL0     C30324   6.940  10.892   8.142  0.4766  0.4493 -0.5582
  966MOL0     C30325   6.856  10.889   8.257 -0.4960 -0.9459 -0.3842
  966MOL0     N30326   6.847  11.046   8.968 -0.0437 -0.7004  0.3704
  966MOL0     N30327   6.913  11.010   9.068 -0.1731 -0.4389 -0.6565
  966MOL0     C30328   6.460  11.117  10.197 -0.0308 -0.9434 -0.8233
  966MOL0     C30329   6.478  11.252  10.222 -0.0877  0.6108  0.5163
  966MOL0     C30330   6.696  11.680  10.269  0.7638  0.7305  0.4799
  966MOL0     C30331   6.814  11.755  10.264  0.2197 -0.9713  0.1965
  966MOL0     C30332   6.813  11.895  10.275 -0.4852 -1.1791  0.2025
  966MOL0     C30333   6.695  11.959  10.294  0.4913 -0.8891 -0.7069
  966MOL0     O30334   6.708  12.095  10.275 -0.4913  0.8067 -0.3398
  966MOL0     C30335   6.644  12.190  10.361 -1.2717  0.5292 -0.3861
  966MOL0     C30336   6.540  12.273  10.279  0.4220 -0.6353  0.0817
  966MOL0     C30337   6.467  12.359  10.388  0.5033 -0.3351  0.2771
  966MOL0     C30338   6.350  12.434  10.325  0.1284  0.0240 -0.2291
  966MOL0     C30339   6.383  12.513  10.198  1.0154 -0.5134 -0.3176
  966MOL0     C30340   6.432  12.577  10.110 -0.5996  0.3357  0.0295
  966MOL0     C30341   6.575  11.892  10.312  0.2480  0.2832 -0.3943
  966MOL0     C30342   6.572  11.754  10.311  0.4936  0.6522  0.3026
  966MOL0     H30343   6.814  11.252  10.271 -0.0091 -1.5949  1.3446
  966MOL0     H30344   6.771  11.017  10.229 -0.4408 -0.0992  0.8816
  966MOL0     H30345   6.502  10.790  10.002 -0.2601  1.4029 -3.6085
  966MOL0     H30346   6.497  10.965   9.980 -2.7693  0.2082  1.8557
  966MOL0     H30347   6.751  10.967   9.994  0.5144 -0.6310  0.6072
  966MOL0     H30348   6.750  10.796   9.955  0.7927  0.3457  0.2620
  966MOL0     H30349   6.595  10.847   9.757  2.4040  0.9129 -4.7339
  966MOL0     H30350   6.649  11.006   9.779 -2.5430 -0.3556 -0.5506
  966MOL0     H30351   6.884  10.916   9.756 -0.2503 -0.2016  2.1575
  966MOL0     H30352   6.827  10.749   9.741  0.9985  0.4280  0.5507
  966MOL0     H30353   6.753  10.792   9.515 -0.7552 -0.4212  0.0648
  966MOL0     H30354   6.720  10.958   9.552 -0.2546 -0.3498 -1.2881
  966MOL0     H30355   6.967  11.008   9.567  1.5785  0.9385  0.2779
  966MOL0     H30356   6.998  10.841   9.504 -0.5576 -0.0219  2.3335
  966MOL0     H30357   6.807  11.039   9.369  0.7406  1.0241 -0.1027
  966MOL0     H30358   6.988  11.037   9.336  0.1891 -1.3492 -1.5858
  966MOL0     H30359   6.814  10.796   9.308 -0.0715  1.3744  2.2454
  966MOL0     H30360   6.981  10.825   9.231  1.7627  1.1109  2.3916
  966MOL0     H30361   6.627  10.844   9.116 -0.0671  0.3851  1.6047
  966MOL0     H30362   6.534  10.963   8.931  1.5384 -1.3513  2.4300
  966MOL0     H30363   6.588  11.132   8.889  0.8093 -0.2649 -3.9348
  966MOL0     H30364   6.533  10.962   8.696  0.3519 -2.2901 -0.3215
  966MOL0     H30365   6.682  10.880   8.744 -0.6690  0.2762  1.2011
  966MOL0     H30366   6.805  11.086   8.681 -0.5387  0.5370  2.5875
  966MOL0     H30367   6.645  11.164   8.633  2.3421  1.3178 -1.2064
  966MOL0     H30368   6.778  11.110   8.442  1.8725  0.6522  2.0290
  966MOL0     H30369   6.640  10.996   8.441  2.0151 -2.1579 -1.2921
  966MOL0     H30370   7.080  10.938   8.494  1.2400  2.5166 -1.7477
  966MOL0     H30371   7.295  10.919   8.426  1.1344 -0.4071  0.0924
  966MOL0     H30372   7.338  10.882   8.258 -1.0467 -1.2316  0.0087
  966MOL0     H30373   7.303  11.047   8.293  1.3761  0.1292  1.4820
  966MOL0     H30374   7.154  10.813   7.722 -2.7371  0.2039 -0.0693
  966MOL0     H30375   7.253  10.893   7.522  1.7891  1.9233 -1.2297
  966MOL0     H30376   7.150  11.326   7.440 -3.9661 -0.4249 -2.4027
  966MOL0     H30377   7.238  11.264   7.291  0.4241 -2.7463  0.1346
  966MOL0     H30378   7.082  11.067   7.285 -0.6518  0.8250 -0.9253
  966MOL0     H30379   6.990  11.127   7.426  0.7742 -2.3276 -0.3962
  966MOL0     H30380   7.023  11.294   7.164 -1.4022  2.5157  0.1515
  966MOL0     H30381   6.909  11.307   7.292  0.9724  2.3620 -2.8974
  966MOL0     H30382   6.923  11.045   7.125 -0.6802 -0.7760 -0.3238
  966MOL0     H30383   6.802  11.110   7.256  0.7260  1.5131  0.0906
  966MOL0     H30384   6.859  11.265   7.007  1.7955 -0.2242  0.7488
  966MOL0     H30385   6.720  11.269   7.123 -0.1840 -0.4199  0.1009
  966MOL0     H30386   6.669  11.170   6.883 -0.2937  2.2254  0.8651
  966MOL0     H30387   6.788  11.046   6.922  1.5432  3.8218 -0.2011
  966MOL0     H30388   6.616  10.998   7.130  1.0270 -1.7166 -0.8139
  966MOL0     H30389   6.599  10.925   6.968  2.2057  0.2753 -2.2982
  966MOL0     H30390   6.384  11.001   7.042 -0.2602  0.4044 -1.5728
  966MOL0     H30391   6.439  11.124   6.929  0.0724  3.6232  1.3955
  966MOL0     H30392   7.166  11.297   7.651  1.4280 -1.0223 -2.2547
  966MOL0     H30393   7.098  11.192   7.889  2.4489 -1.4937  1.2159
  966MOL0     H30394   6.886  10.884   8.049 -0.4133 -2.9820  0.1111
  966MOL0     H30395   6.752  10.872   8.232 -0.4062  0.1981 -1.6698
  966MOL0     H30396   6.363  11.081  10.167 -0.9617  0.4152  0.3959
  966MOL0     H30397   6.398  11.321  10.198 -1.5632 -1.3101 -0.3880
  966MOL0     H30398   6.909  11.704  10.248  0.3855 -0.3857 -0.8052
  966MOL0     H30399   6.908  11.948  10.268 -0.5909 -1.0801 -0.4959
  966MOL0     H30400   6.605  12.135  10.447  2.4749 -0.0625  1.1349
  966MOL0     H30401   6.715  12.260  10.408  0.9415 -0.6011 -1.8639
  966MOL0     H30402   6.458  12.218  10.233 -1.7367  1.8081  0.7596
  966MOL0     H30403   6.573  12.328  10.190 -1.2527 -2.3411 -1.6992
  966MOL0     H30404   6.531  12.428  10.443  0.0591  0.9640 -0.7820
  966MOL0     H30405   6.430  12.290  10.465 -0.0578  0.4403  0.7183
  966MOL0     H30406   6.310  12.500  10.402  1.6044 -2.2505  2.6934
  966MOL0     H30407   6.284  12.352  10.296  0.3997 -0.0317 -0.7138
  966MOL0     H30408   6.488  12.644  10.048  0.4798  3.0876  3.6011
  966MOL0     H30409   6.483  11.944  10.333  1.8752  3.1126  0.3243
  966MOL0     H30410   6.483  11.697  10.333  1.1971 -0.7915 -0.4993
  967MOL0     O30411   2.381   5.045   7.980 -0.3078  0.0272 -0.1589
  967MOL0     C30412   2.301   4.955   7.982 -0.2606 -0.6518 -0.2503
  967MOL0     O30413   2.170   4.951   7.929 -0.3882 -0.4192 -0.2073
  967MOL0     C30414   2.109   5.050   7.859  0.4207  0.4994 -0.3448
  967MOL0     C30415   2.155   5.186   7.836 -0.3801  0.4361 -0.7038
  967MOL0     C30416   2.091   5.273   7.735  0.9611 -0.2354  0.2865
  967MOL0     C30417   1.968   5.224   7.684  0.1529  0.9494 -0.3679
  967MOL0     O30418   1.892   5.291   7.588 -0.4801  0.3374 -0.3426
  967MOL0     C30419   1.946   5.295   7.451  0.0201 -0.0203  0.9400
  967MOL0     C30420   1.840   5.301   7.343 -1.0846 -0.8599 -0.2205
  967MOL0     C30421   1.869   5.259   7.198 -0.5964 -0.4674  0.2217
  967MOL0     C30422   1.782   5.344   7.106 -0.2953  0.6132 -0.9155
  967MOL0     C30423   1.843   5.338   6.966 -0.5180  0.0768 -0.6423
  967MOL0     C30424   1.831   5.204   6.893 -0.2792 -0.0274 -0.0960
  967MOL0     C30425   1.881   5.204   6.747  0.4804 -0.2474  0.0509
  967MOL0     C30426   1.775   5.235   6.633  0.2192  0.6048  0.1413
  967MOL0     N30427   1.833   5.216   6.500  1.5709 -0.4910  0.9408
  967MOL0     C30428   1.853   5.100   6.434 -1.2411 -0.6232 -0.3836
  967MOL0     C30429   1.919   5.139   6.320  0.3769 -0.4792  0.5227
  967MOL0     C30430   1.961   5.027   6.225  0.7733 -0.4613 -0.0105
  967MOL0     C30431   1.854   4.918   6.175 -1.0143 -0.2067  0.4976
  967MOL0     C30432   1.898   4.767   6.203  0.6414 -0.6346 -0.4289
  967MOL0     C30433   1.887   4.735   6.358 -1.1130 -0.5007 -0.4973
  967MOL0     O30434   1.756   4.742   6.408  0.1521  0.1225  0.4537
  967MOL0     C30435   1.736   4.761   6.547 -0.1608  0.5813  0.4233
  967MOL0     C30436   1.613   4.812   6.580  0.5250 -0.5213 -0.4897
  967MOL0     C30437   1.568   4.836   6.719 -0.1418 -0.2394  0.5251
  967MOL0     C30438   1.435   4.892   6.738 -0.0466 -0.9124  0.1266
  967MOL0     C30439   1.667   4.812   6.823  0.1815 -0.2340  0.8314
  967MOL0     C30440   1.650   4.838   6.970 -0.0832 -1.0442 -1.4073
  967MOL0     O30441   1.756   4.813   7.053 -0.7374 -0.3864  0.2978
  967MOL0     C30442   1.753   4.841   7.189 -0.1927 -0.5116  0.2040
  967MOL0     C30443   1.668   4.938   7.255 -0.7463  0.4789 -0.0605
  967MOL0     C30444   1.665   4.948   7.397  0.8145  0.9472 -0.8553
  967MOL0     C30445   1.733   4.858   7.482  0.0639  0.3350 -0.4239
  967MOL0     O30446   1.700   4.853   7.613  0.3521  0.5988 -0.5180
  967MOL0     C30447   1.776   4.757   7.705 -0.2732 -0.4904 -0.8779
  967MOL0     C30448   1.681   4.638   7.729  0.2938  0.4642 -1.3417
  967MOL0     C30449   1.759   4.508   7.763 -0.2037 -0.4658  0.2864
  967MOL0     C30450   1.849   4.542   7.882 -0.3565  0.3640  0.4370
  967MOL0     C30451   1.858   4.429   7.982  0.4060  0.8371 -0.0251
  967MOL0     C30452   1.957   4.481   8.083  0.7402 -0.7104 -0.2358
  967MOL0     C30453   1.969   4.371   8.199  0.9809  0.1218 -0.3458
  967MOL0     C30454   2.094   4.391   8.276 -0.4395  0.1478  0.0116
  967MOL0    Cl30455   2.046   4.546   8.363  0.5217  0.3299 -0.1207
  967MOL0     C30456   1.806   4.758   7.410 -0.5457 -0.5381 -0.6292
  967MOL0     C30457   1.819   4.759   7.273  0.2861  0.7068  0.4722
  967MOL0     O30458   1.534   4.864   7.005  0.0280 -0.0384  0.1417
  967MOL0     C30459   1.794   4.765   6.778  0.2554 -0.6851 -0.8330
  967MOL0     C30460   1.829   4.735   6.643  0.1196 -0.6593 -0.4485
  967MOL0     N30461   1.935   5.275   6.320 -0.2009 -0.7178 -0.3341
  967MOL0     N30462   1.888   5.321   6.429 -0.2442  0.2939  0.5199
  967MOL0     C30463   1.917   5.101   7.721 -0.1238  1.5194  0.5152
  967MOL0     C30464   1.988   5.009   7.810  0.6536 -0.1224  0.7071
  967MOL0     C30465   2.349   4.830   8.050  0.5543 -1.0288 -0.2052
  967MOL0     C30466   2.285   4.705   8.015 -0.0593 -0.1135 -0.9143
  967MOL0     C30467   2.342   4.588   8.046  0.0144 -1.0825 -0.8775
  967MOL0     C30468   2.460   4.580   8.114 -0.0058  0.6819 -0.7166
  967MOL0     O30469   2.507   4.462   8.159  0.1768  1.0262  0.2855
  967MOL0     C30470   2.471   4.422   8.296 -0.3400  0.9503 -1.2605
  967MOL0     C30471   2.591   4.421   8.389  0.4390 -0.2792  0.2450
  967MOL0     C30472   2.579   4.319   8.498  0.5455 -0.4946  0.5409
  967MOL0     C30473   2.661   4.185   8.472  0.2406 -0.5434 -0.1520
  967MOL0     C30474   2.620   4.087   8.576 -0.1722  0.4995 -0.7051
  967MOL0     C30475   2.579   4.007   8.656  0.6627  1.0879 -0.2521
  967MOL0     C30476   2.532   4.696   8.144 -0.3939  0.7195  0.6804
  967MOL0     C30477   2.480   4.827   8.113  0.1633  0.3276  0.8085
  967MOL0     H30478   2.247   5.213   7.886 -0.6445 -1.4445  0.9399
  967MOL0     H30479   2.131   5.366   7.697 -0.8912 -0.1618 -1.7026
  967MOL0     H30480   2.021   5.373   7.434 -0.4031 -0.2122 -2.7448
  967MOL0     H30481   2.010   5.207   7.435  0.3952  0.2636  0.8527
  967MOL0     H30482   1.755   5.239   7.373 -1.6678  1.3052  3.0839
  967MOL0     H30483   1.815   5.407   7.347  4.5747  0.8019 -0.3541
  967MOL0     H30484   1.977   5.252   7.180 -0.2146  0.9848  1.6533
  967MOL0     H30485   1.840   5.155   7.180 -0.7694 -0.5716  1.0381
  967MOL0     H30486   1.680   5.305   7.102  0.5260 -1.6720 -4.3955
  967MOL0     H30487   1.783   5.445   7.146 -0.9556 -0.7169  2.8310
  967MOL0     H30488   1.786   5.415   6.914  0.0859  0.1946 -1.1477
  967MOL0     H30489   1.950   5.361   6.975  0.2156 -2.9614 -0.4750
  967MOL0     H30490   1.886   5.118   6.934  0.1972 -0.8458 -2.3071
  967MOL0     H30491   1.725   5.177   6.890  0.1076 -1.6053 -0.6496
  967MOL0     H30492   1.973   5.262   6.733  0.1418 -0.1061 -1.7130
  967MOL0     H30493   1.907   5.100   6.724 -2.3984 -0.4653 -2.8944
  967MOL0     H30494   1.743   5.340   6.636  0.9884  0.9423 -1.7240
  967MOL0     H30495   1.692   5.165   6.645 -0.5668  1.5229  0.1414
  967MOL0     H30496   1.840   4.998   6.470 -0.7689  0.7558  4.3742
  967MOL0     H30497   1.997   5.085   6.140 -1.7171  0.6691 -0.3814
  967MOL0     H30498   2.053   4.979   6.260  0.7054 -0.5599  0.0355
  967MOL0     H30499   1.850   4.928   6.066 -3.7081 -0.3354  0.5063
  967MOL0     H30500   1.747   4.934   6.192 -1.7411  0.0014 -3.4227
  967MOL0     H30501   2.004   4.756   6.181  0.2878 -0.7783 -2.1600
  967MOL0     H30502   1.840   4.694   6.146 -0.3559  1.4208 -2.1768
  967MOL0     H30503   1.955   4.805   6.407 -1.3140  0.7427 -1.9061
  967MOL0     H30504   1.923   4.633   6.371  2.1922  0.6254 -0.0300
  967MOL0     H30505   1.550   4.828   6.493  2.0651  3.1705 -1.0904
  967MOL0     H30506   1.421   4.972   6.811 -2.6048 -2.9769  2.0815
  967MOL0     H30507   1.387   4.932   6.648 -1.5563 -0.1748  1.2028
  967MOL0     H30508   1.382   4.807   6.781  1.6841 -1.8406  0.5278
  967MOL0     H30509   1.605   5.005   7.198  0.2050 -0.1452 -1.9353
  967MOL0     H30510   1.615   5.037   7.434  1.6205  1.1725 -0.2810
  967MOL0     H30511   1.870   4.721   7.661 -0.6589 -2.7004  0.0108
  967MOL0     H30512   1.798   4.816   7.794  2.9395 -1.9402 -0.5605
  967MOL0     H30513   1.604   4.672   7.799  1.4619  1.9215 -0.6956
  967MOL0     H30514   1.629   4.616   7.635 -4.1274 -0.4043  1.0300
  967MOL0     H30515   1.806   4.473   7.671 -0.8411  4.8689 -2.4947
  967MOL0     H30516   1.684   4.438   7.802 -2.1188 -0.0618 -2.3586
  967MOL0     H30517   1.947   4.558   7.838 -0.8866  2.2507 -0.1642
  967MOL0     H30518   1.807   4.625   7.940 -0.6853 -0.0189  0.7562
  967MOL0     H30519   1.880   4.332   7.935  1.4349 -0.0513  2.1567
  967MOL0     H30520   1.758   4.432   8.025 -0.4927  3.0566 -2.0041
  967MOL0     H30521   2.053   4.509   8.038  0.2763 -0.6508 -1.2208
  967MOL0     H30522   1.924   4.575   8.127  1.7787 -0.0839 -0.7312
  967MOL0     H30523   1.965   4.267   8.166 -3.5476  0.3810 -1.2174
  967MOL0     H30524   1.888   4.396   8.267  1.5090  1.7063 -0.2565
  967MOL0     H30525   2.176   4.412   8.208 -0.3454  4.1389  1.1220
  967MOL0     H30526   2.121   4.316   8.351 -0.4621  0.5991  0.4785
  967MOL0     H30527   1.862   4.674   7.449  0.3692  0.6364  0.6801
  967MOL0     H30528   1.887   4.685   7.230 -0.2243  1.7222 -2.2491
  967MOL0     H30529   1.862   4.754   6.862  0.3533  0.3605 -0.7619
  967MOL0     H30530   1.927   4.695   6.621  1.2975 -0.8491  4.0859
  967MOL0     H30531   1.828   5.067   7.669 -0.7783  4.6424 -0.5902
  967MOL0     H30532   1.959   4.907   7.835  0.9570 -0.7436 -1.2562
  967MOL0     H30533   2.185   4.708   7.974 -1.3375  0.4021  2.0000
  967MOL0     H30534   2.288   4.501   8.009 -1.5865 -0.4667 -0.0737
  967MOL0     H30535   2.387   4.476   8.340 -0.2928  0.1352 -0.1432
  967MOL0     H30536   2.430   4.322   8.282 -1.9975  1.1315  1.6176
  967MOL0     H30537   2.617   4.519   8.431 -1.9838  0.2778  0.5720
  967MOL0     H30538   2.674   4.398   8.322 -0.2986 -0.0607 -0.7623
  967MOL0     H30539   2.475   4.284   8.508  1.3388 -3.5087 -0.5714
  967MOL0     H30540   2.607   4.373   8.589  3.4126  1.6150 -1.4385
  967MOL0     H30541   2.769   4.199   8.481  0.1323  1.8711 -1.7337
  967MOL0     H30542   2.631   4.148   8.374 -1.0660 -2.6079  0.9572
  967MOL0     H30543   2.547   3.927   8.720 -0.4918 -0.9342 -3.1480
  967MOL0     H30544   2.631   4.687   8.188  0.0181 -2.6275 -0.5969
  967MOL0     H30545   2.537   4.915   8.140 -0.6371  1.0178  0.2589
  968MOL0     O30546   8.964   3.900   7.214  0.7420 -0.2254  0.4290
  968MOL0     C30547   8.960   3.941   7.333 -0.3069  0.2225 -0.1148
  968MOL0     O30548   8.990   4.077   7.365 -0.3895 -0.0135  0.4080
  968MOL0     C30549   9.008   4.168   7.265 -0.0743  0.2504 -1.3669
  968MOL0     C30550   9.112   4.163   7.171 -0.6010  0.3748  0.4937
  968MOL0     C30551   9.114   4.260   7.068  0.6637  0.1656  0.1439
  968MOL0     C30552   9.017   4.352   7.050 -0.3534 -0.3075  0.8891
  968MOL0     O30553   8.999   4.444   6.950 -0.6732 -0.4582  0.1092
  968MOL0     C30554   9.115   4.510   6.898  0.5647 -0.6499  0.0257
  968MOL0     C30555   9.078   4.647   6.850  0.8046  1.0310 -0.2253
  968MOL0     C30556   9.198   4.699   6.759 -0.5052  0.7250  0.6645
  968MOL0     C30557   9.146   4.814   6.687 -0.3640 -1.4644  0.2017
  968MOL0     C30558   9.232   4.859   6.568  0.6118  0.5747  0.0300
  968MOL0     C30559   9.147   4.909   6.445 -1.0852  0.1771  0.2370
  968MOL0     C30560   9.241   4.929   6.320 -0.7825  1.3633  0.6179
  968MOL0     C30561   9.246   4.798   6.244  0.2883  0.6181  0.3128
  968MOL0     N30562   9.335   4.802   6.126 -0.0401  0.0001 -0.2296
  968MOL0     C30563   9.380   4.922   6.061  0.7088 -0.2582 -0.1887
  968MOL0     C30564   9.466   4.870   5.971  0.1887 -0.0275 -0.4462
  968MOL0     C30565   9.546   4.957   5.878  0.1889 -0.2979  0.2748
  968MOL0     C30566   9.614   5.079   5.955  0.1146  0.0429 -0.4740
  968MOL0     C30567   9.695   5.026   6.079 -0.3451 -0.3432  0.4430
  968MOL0     C30568   9.761   5.149   6.155  0.0022 -0.1005 -0.8209
  968MOL0     O30569   9.666   5.252   6.207 -0.4494  0.3682  0.5949
  968MOL0     C30570   9.639   5.243   6.340  0.0035 -0.6230 -0.3646
  968MOL0     C30571   9.588   5.365   6.385 -0.4494 -0.7994  0.2346
  968MOL0     C30572   9.548   5.395   6.522 -0.2499  0.3535  0.0746
  968MOL0     C30573   9.499   5.534   6.554  0.8668  0.0718 -0.6024
  968MOL0     C30574   9.564   5.287   6.619  0.4844 -0.4704  0.5749
  968MOL0     C30575   9.526   5.296   6.757 -0.4368 -0.3768 -0.0756
  968MOL0     O30576   9.616   5.233   6.841 -0.0211  0.2274  0.3437
  968MOL0     C30577   9.605   5.228   6.983 -0.5315 -0.2392  0.2078
  968MOL0     C30578   9.659   5.113   7.043  0.5475 -0.3292 -0.6431
  968MOL0     C30579   9.653   5.097   7.176 -0.9990 -0.0031 -0.4752
  968MOL0     C30580   9.579   5.183   7.254 -0.0392 -0.8849 -0.6568
  968MOL0     O30581   9.567   5.139   7.388  0.6795 -0.1166 -0.2380
  968MOL0     C30582   9.474   5.204   7.485  0.5371  1.6992  0.8453
  968MOL0     C30583   9.470   5.119   7.605 -0.5216 -0.4525  0.2343
  968MOL0     C30584   9.430   5.186   7.740  0.5191 -0.5278 -0.2380
  968MOL0     C30585   9.316   5.294   7.739  0.4387  0.8904  0.6193
  968MOL0     C30586   9.184   5.241   7.680 -0.2833 -0.5474  0.3828
  968MOL0     C30587   9.066   5.344   7.692 -0.3423 -0.1336  0.1064
  968MOL0     C30588   8.944   5.268   7.624 -0.0738  0.0756 -0.6483
  968MOL0     C30589   8.806   5.298   7.694  0.0159 -0.4644 -0.2890
  968MOL0    Cl30590   8.810   5.212   7.849  0.7858 -0.1263  0.0077
  968MOL0     C30591   9.522   5.303   7.195  0.6441 -0.1547 -0.8192
  968MOL0     C30592   9.538   5.325   7.066 -0.8438  0.2766  0.8813
  968MOL0     O30593   9.412   5.342   6.783  0.3372 -0.3384 -0.0155
  968MOL0     C30594   9.625   5.160   6.573 -0.1607  0.6157  0.3684
  968MOL0     C30595   9.663   5.141   6.429 -1.1692  0.1057 -0.7523
  968MOL0     N30596   9.471   4.732   5.978 -0.0468  0.1055 -0.7716
  968MOL0     N30597   9.402   4.693   6.075  0.0061 -0.6354  0.0746
  968MOL0     C30598   8.918   4.360   7.147  0.1253 -0.7889  0.0360
  968MOL0     C30599   8.925   4.279   7.258  0.7207 -0.3470 -0.4590
  968MOL0     C30600   8.929   3.848   7.448 -0.0201  0.1337  0.3173
  968MOL0     C30601   8.865   3.729   7.423  0.1894 -0.1814 -0.1062
  968MOL0     C30602   8.829   3.646   7.525  0.1049 -0.2926 -0.2652
  968MOL0     C30603   8.867   3.672   7.661 -0.6434  0.1338 -0.6502
  968MOL0     O30604   8.831   3.601   7.773 -1.4066 -0.2912  0.7580
  968MOL0     C30605   8.779   3.477   7.754  0.7561  0.7907 -0.4238
  968MOL0     C30606   8.797   3.392   7.881 -0.0716 -0.6038  0.1169
  968MOL0     C30607   8.957   3.379   7.916  0.7199  0.7059  0.6206
  968MOL0     C30608   8.979   3.279   8.032  1.0051 -0.3951 -0.5227
  968MOL0     C30609   9.107   3.272   8.092  0.1179  0.1978 -0.7493
  968MOL0     C30610   9.217   3.265   8.133 -0.1947  0.2057 -0.3208
  968MOL0     C30611   8.939   3.790   7.683 -0.2635 -0.7606 -0.1866
  968MOL0     C30612   8.968   3.881   7.580  0.9251 -0.0666 -0.8097
  968MOL0     H30613   9.184   4.081   7.170 -1.6625 -0.5848 -0.8516
  968MOL0     H30614   9.195   4.255   6.996 -1.3603  1.5628 -2.3752
  968MOL0     H30615   9.202   4.527   6.963  0.8570 -1.4573 -0.1368
  968MOL0     H30616   9.141   4.445   6.814  3.0955 -2.0092  1.7100
  968MOL0     H30617   8.983   4.650   6.796 -0.2231 -1.5743  1.2582
  968MOL0     H30618   9.071   4.711   6.938  3.0709  1.1355 -0.0454
  968MOL0     H30619   9.285   4.727   6.818 -1.0485 -0.5136  2.1087
  968MOL0     H30620   9.221   4.616   6.691 -1.7656 -0.8734  2.1048
  968MOL0     H30621   9.042   4.792   6.663 -2.0386  1.0409  4.1778
  968MOL0     H30622   9.138   4.898   6.756  2.2450 -1.8227  1.0522
  968MOL0     H30623   9.294   4.939   6.609  1.6917  1.1587 -2.5123
  968MOL0     H30624   9.309   4.786   6.541 -1.9058 -2.7760  1.1396
  968MOL0     H30625   9.066   4.846   6.406 -2.5751  1.0899  1.7581
  968MOL0     H30626   9.101   5.005   6.468 -0.9361  0.5662 -0.9836
  968MOL0     H30627   9.205   5.004   6.249  1.2199 -0.9390 -3.1560
  968MOL0     H30628   9.343   4.951   6.353 -0.9897  0.5401  1.8630
  968MOL0     H30629   9.147   4.768   6.208  0.5088 -0.0112  0.2117
  968MOL0     H30630   9.286   4.717   6.306  1.6015 -1.3383 -2.8155
  968MOL0     H30631   9.326   5.016   6.068  0.7422 -0.2999  0.9828
  968MOL0     H30632   9.625   4.899   5.830 -0.9060 -2.0674  0.5077
  968MOL0     H30633   9.469   4.992   5.808  2.6088 -1.5408 -3.2655
  968MOL0     H30634   9.532   5.143   5.990  1.0031 -0.0521  2.0169
  968MOL0     H30635   9.679   5.141   5.894 -0.4794  0.0715 -1.0816
  968MOL0     H30636   9.775   4.961   6.042 -0.5994 -1.5283  1.8867
  968MOL0     H30637   9.635   4.978   6.156  1.7286 -0.7517  1.8782
  968MOL0     H30638   9.829   5.200   6.085 -1.4913  2.9343 -0.2317
  968MOL0     H30639   9.815   5.122   6.247 -1.2802  3.5726  1.2679
  968MOL0     H30640   9.567   5.426   6.298  1.2820 -0.3906  0.0736
  968MOL0     H30641   9.454   5.596   6.476 -2.7325 -0.9657  0.4462
  968MOL0     H30642   9.420   5.530   6.629 -1.7984 -4.0752 -3.1669
  968MOL0     H30643   9.586   5.587   6.593  1.1496  0.4996 -1.7613
  968MOL0     H30644   9.700   5.037   6.977 -0.9755 -0.5035 -1.4364
  968MOL0     H30645   9.682   5.000   7.214  2.1131 -0.0896 -2.6468
  968MOL0     H30646   9.513   5.301   7.518  0.0513  2.4545 -0.6719
  968MOL0     H30647   9.378   5.214   7.432  1.5892 -2.6615 -2.4348
  968MOL0     H30648   9.392   5.044   7.590 -1.1968  0.0825  1.0192
  968MOL0     H30649   9.562   5.060   7.609 -1.8990 -3.1392 -2.9266
  968MOL0     H30650   9.518   5.243   7.772  0.4664  0.0496 -1.0809
  968MOL0     H30651   9.414   5.112   7.819  1.7901 -0.0114  0.5367
  968MOL0     H30652   9.298   5.338   7.837 -4.3816  0.9225 -0.0494
  968MOL0     H30653   9.359   5.378   7.682  1.2871 -1.0167 -1.7201
  968MOL0     H30654   9.153   5.143   7.718 -1.2127 -0.7177 -0.7499
  968MOL0     H30655   9.199   5.230   7.572  0.4953  7.0496 -0.7943
  968MOL0     H30656   9.038   5.374   7.793 -0.5119 -1.5406  0.4861
  968MOL0     H30657   9.088   5.437   7.637  0.8714  0.2447  1.1743
  968MOL0     H30658   8.960   5.161   7.610  1.8484  0.1936  0.2567
  968MOL0     H30659   8.940   5.313   7.525 -1.3297 -1.4727 -1.3508
  968MOL0     H30660   8.714   5.265   7.646 -2.0657  1.9673  1.6619
  968MOL0     H30661   8.806   5.405   7.718 -2.2353 -0.0360 -1.9138
  968MOL0     H30662   9.483   5.391   7.246  4.2001  1.3118 -0.3062
  968MOL0     H30663   9.513   5.416   7.012 -2.8867 -1.9919 -2.3790
  968MOL0     H30664   9.644   5.085   6.649 -0.6996 -0.3786 -0.4515
  968MOL0     H30665   9.699   5.042   6.406 -1.7808 -0.9309  2.2933
  968MOL0     H30666   8.843   4.437   7.130  2.2230  0.8314 -2.8285
  968MOL0     H30667   8.855   4.285   7.341 -2.1408 -3.9187 -2.3161
  968MOL0     H30668   8.835   3.708   7.321  1.4603  3.4143 -1.3633
  968MOL0     H30669   8.769   3.560   7.499  1.3402 -1.0740 -0.5915
  968MOL0     H30670   8.674   3.501   7.736  0.2513 -1.8033 -1.2359
  968MOL0     H30671   8.834   3.428   7.673 -1.4112 -0.3211 -1.2862
  968MOL0     H30672   8.763   3.289   7.865 -0.1650 -1.1192  3.0184
  968MOL0     H30673   8.756   3.441   7.970  2.3212 -2.6103  2.4717
  968MOL0     H30674   8.996   3.479   7.937 -2.5565  1.8011  2.1995
  968MOL0     H30675   9.008   3.341   7.827  0.4974  0.0012  0.7942
  968MOL0     H30676   8.958   3.176   8.001  1.0846 -1.1341  1.7088
  968MOL0     H30677   8.906   3.309   8.108 -1.3869 -1.6546 -2.1948
  968MOL0     H30678   9.319   3.273   8.162  0.2836  1.2018 -2.1501
  968MOL0     H30679   8.954   3.811   7.788 -4.8390 -2.9461  1.1801
  968MOL0     H30680   9.029   3.967   7.603  0.3878  0.1856 -0.3084
  969MOL0     O30681  10.903   6.151   4.324 -0.5184 -0.3612 -0.3618
  969MOL0     C30682  10.932   6.265   4.293 -0.4741  0.3944 -0.2514
  969MOL0     O30683  10.894   6.321   4.180  0.9021 -0.3559 -0.5237
  969MOL0     C30684  10.806   6.253   4.100  0.3851 -0.1223  0.3977
  969MOL0     C30685  10.671   6.296   4.101  0.0477  0.2218  0.3023
  969MOL0     C30686  10.577   6.226   4.029  0.1109 -0.4822  0.1085
  969MOL0     C30687  10.615   6.120   3.947  0.0957  0.0971 -0.3274
  969MOL0     O30688  10.540   6.052   3.854  0.2471  0.9115  0.1633
  969MOL0     C30689  10.444   6.135   3.783 -0.8185  0.5844 -0.8711
  969MOL0     C30690  10.378   6.045   3.679  0.2575  1.2836 -0.5719
  969MOL0     C30691  10.486   5.986   3.586 -0.6389  1.1484  0.1230
  969MOL0     C30692  10.451   5.854   3.525  0.1430  0.3502 -0.8346
  969MOL0     C30693  10.336   5.877   3.419 -0.7312  0.2284 -1.0945
  969MOL0     C30694  10.302   5.769   3.320  0.5935  0.3308 -0.6728
  969MOL0     C30695  10.232   5.834   3.201 -0.3261  0.3918 -0.5986
  969MOL0     C30696  10.153   5.725   3.122  0.2540  0.4364 -0.0872
  969MOL0     N30697  10.031   5.688   3.196  0.0671  1.0161 -0.2876
  969MOL0     C30698   9.930   5.767   3.244 -0.5478  0.5872 -0.5932
  969MOL0     C30699   9.869   5.696   3.345  1.3151 -0.0553 -0.1215
  969MOL0     C30700   9.748   5.743   3.425 -0.7038  0.2061  0.7821
  969MOL0     C30701   9.643   5.785   3.322 -0.1904 -1.6098 -0.2530
  969MOL0     C30702   9.502   5.790   3.377 -0.1119  0.7659 -0.3460
  969MOL0     C30703   9.394   5.803   3.267 -0.6209  0.3056  0.7045
  969MOL0     O30704   9.401   5.700   3.172 -0.5862  0.1788  0.2722
  969MOL0     C30705   9.346   5.736   3.051 -0.3264 -0.0154  0.4099
  969MOL0     C30706   9.214   5.773   3.040 -0.5940  0.6485  1.2243
  969MOL0     C30707   9.160   5.794   2.913 -1.1684  0.0570 -0.9347
  969MOL0     C30708   9.008   5.820   2.904  0.1719  0.1826 -0.5374
  969MOL0     C30709   9.247   5.790   2.795 -0.6161 -1.0053  0.0195
  969MOL0     C30710   9.201   5.823   2.664 -0.0483 -0.5031  0.4231
  969MOL0     O30711   9.168   5.957   2.657  0.1823  0.0099  0.4193
  969MOL0     C30712   9.123   6.019   2.541  0.0662 -0.9902  0.5307
  969MOL0     C30713   9.055   5.955   2.431  0.4610 -0.3884  0.3640
  969MOL0     C30714   9.029   6.033   2.317 -0.0787  1.0743  0.2690
  969MOL0     C30715   9.048   6.170   2.305  0.9791  0.4308  0.0721
  969MOL0     O30716   8.988   6.234   2.194  0.8752  0.4309  0.7554
  969MOL0     C30717   8.908   6.349   2.218  0.0652 -0.2876  0.1522
  969MOL0     C30718   8.849   6.404   2.091 -0.0334  0.0389 -0.6591
  969MOL0     C30719   8.749   6.300   2.031 -0.2385 -0.5314 -0.7379
  969MOL0     C30720   8.727   6.343   1.896  0.7586  1.1299  0.6642
  969MOL0     C30721   8.615   6.261   1.840 -0.0037 -0.3299 -0.5733
  969MOL0     C30722   8.618   6.260   1.699 -0.4357 -1.0925  0.1858
  969MOL0     C30723   8.582   6.402   1.647 -0.6831  1.7825  0.5407
  969MOL0     C30724   8.430   6.440   1.649  0.3752  0.3458  0.1039
  969MOL0    Cl30725   8.360   6.335   1.510  0.2445  0.0799 -0.6129
  969MOL0     C30726   9.092   6.238   2.423  0.3969  0.4650 -0.7610
  969MOL0     C30727   9.131   6.162   2.534  0.0641 -0.5549 -0.3426
  969MOL0     O30728   9.222   5.751   2.569 -0.6767  0.2374  0.0371
  969MOL0     C30729   9.382   5.750   2.810  0.6953  0.1414  0.3083
  969MOL0     C30730   9.433   5.727   2.935  0.2264  0.3751  0.2424
  969MOL0     N30731   9.927   5.577   3.361  0.0368 -0.0651  0.3575
  969MOL0     N30732  10.018   5.573   3.269  0.0860 -1.0080  0.8375
  969MOL0     C30733  10.740   6.072   3.966 -0.4064 -0.4517  0.3530
  969MOL0     C30734  10.842   6.132   4.032 -0.3634 -0.2322 -0.0481
  969MOL0     C30735  11.009   6.347   4.383 -1.0455 -0.4939 -0.2624
  969MOL0     C30736  11.062   6.290   4.500  0.3609 -0.7534 -0.7217
  969MOL0     C30737  11.134   6.360   4.597 -0.6539 -0.4325  0.8140
  969MOL0     C30738  11.174   6.499   4.570  0.1704  0.0007  0.1422
  969MOL0     O30739  11.263   6.573   4.645  0.2239 -0.0370  0.0904
  969MOL0     C30740  11.382   6.503   4.684 -0.1903 -0.5466 -0.3548
  969MOL0     C30741  11.387   6.486   4.837 -1.4767 -0.0004 -0.1761
  969MOL0     C30742  11.414   6.609   4.924  0.3444 -0.1020 -0.4530
  969MOL0     C30743  11.419   6.556   5.069  0.9084 -0.0510  0.4654
  969MOL0     C30744  11.449   6.669   5.153 -1.1525 -0.1475 -0.3767
  969MOL0     C30745  11.462   6.772   5.207  0.3425  0.0692 -0.4789
  969MOL0     C30746  11.130   6.560   4.456 -0.1171  0.7377  0.6457
  969MOL0     C30747  11.053   6.486   4.364  0.5410  0.5593 -0.5770
  969MOL0     H30748  10.634   6.390   4.141 -1.0566 -0.3067  0.5699
  969MOL0     H30749  10.473   6.256   4.020  0.5462  0.4212 -3.8721
  969MOL0     H30750  10.362   6.172   3.845  2.5988  3.5300  2.3732
  969MOL0     H30751  10.497   6.215   3.731 -2.1115  1.5905 -0.7025
  969MOL0     H30752  10.347   5.960   3.739  3.1191  0.4053 -0.2161
  969MOL0     H30753  10.294   6.093   3.628 -0.6731 -1.3888 -1.7128
  969MOL0     H30754  10.517   6.063   3.514 -0.3616 -1.9498 -3.3521
  969MOL0     H30755  10.578   5.972   3.645 -1.1452 -1.2931  0.4251
  969MOL0     H30756  10.546   5.813   3.488  0.1443  0.3893 -0.8769
  969MOL0     H30757  10.406   5.784   3.597 -0.3963 -0.0078 -1.5045
  969MOL0     H30758  10.247   5.896   3.480  1.3956 -1.6811  3.0417
  969MOL0     H30759  10.366   5.966   3.362  0.8774  0.0169 -0.6308
  969MOL0     H30760  10.399   5.729   3.289  1.6629  3.2504 -1.4366
  969MOL0     H30761  10.238   5.687   3.356  0.7610 -0.6930 -2.5732
  969MOL0     H30762  10.166   5.912   3.241 -1.0577 -1.0264  1.1024
  969MOL0     H30763  10.314   5.862   3.134  2.3707  0.5064  2.5100
  969MOL0     H30764  10.216   5.637   3.106  1.4847  1.2800 -0.0685
  969MOL0     H30765  10.125   5.769   3.025 -3.2765  0.2457  0.7132
  969MOL0     H30766   9.929   5.873   3.225  3.1612  0.8886  0.0543
  969MOL0     H30767   9.707   5.665   3.490  0.2192 -0.6528  0.3533
  969MOL0     H30768   9.784   5.832   3.477  1.4414 -0.1365 -0.0211
  969MOL0     H30769   9.639   5.715   3.238 -0.2353 -1.8272 -0.0702
  969MOL0     H30770   9.675   5.885   3.293 -0.2443 -0.0261  4.3263
  969MOL0     H30771   9.485   5.865   3.454 -1.5262 -0.4521  0.5916
  969MOL0     H30772   9.480   5.692   3.419  2.1405 -0.4635 -1.8297
  969MOL0     H30773   9.414   5.900   3.220  0.1299  0.5682  1.5292
  969MOL0     H30774   9.294   5.800   3.311 -0.1205 -1.0236  1.8160
  969MOL0     H30775   9.155   5.761   3.130 -0.5318 -2.7811  0.9711
  969MOL0     H30776   8.996   5.887   2.818  0.8087  1.7906  0.5894
  969MOL0     H30777   8.963   5.722   2.883  1.9732 -0.8049 -0.0178
  969MOL0     H30778   8.963   5.853   2.998 -2.6616 -1.0577 -1.3454
  969MOL0     H30779   9.035   5.850   2.413 -1.5001  0.4483 -3.1105
  969MOL0     H30780   8.986   5.993   2.226  1.9581  0.8827 -0.6700
  969MOL0     H30781   8.831   6.331   2.293 -0.2084 -3.1384 -0.6770
  969MOL0     H30782   8.968   6.427   2.266  0.5033 -0.0491 -0.7604
  969MOL0     H30783   8.789   6.493   2.109 -1.3632 -1.0430  0.4437
  969MOL0     H30784   8.922   6.441   2.017 -0.6942  0.8363 -0.9341
  969MOL0     H30785   8.654   6.306   2.086  0.1257 -2.3649  0.1699
  969MOL0     H30786   8.788   6.198   2.036 -0.5783 -0.6014  1.0859
  969MOL0     H30787   8.705   6.450   1.888 -2.9093  0.5578  1.3296
  969MOL0     H30788   8.816   6.320   1.838 -1.2884 -2.1675 -1.4660
  969MOL0     H30789   8.523   6.317   1.859 -0.1327 -0.4593 -0.8135
  969MOL0     H30790   8.616   6.156   1.871 -0.1923 -0.0000  0.6164
  969MOL0     H30791   8.719   6.242   1.663  0.4942 -1.9856  2.9812
  969MOL0     H30792   8.555   6.176   1.667 -0.1342 -1.0180 -0.6312
  969MOL0     H30793   8.606   6.404   1.541 -1.0839 -0.4871  0.3611
  969MOL0     H30794   8.657   6.474   1.683 -0.9472  1.9654  0.7330
  969MOL0     H30795   8.417   6.547   1.629  0.7876  0.3019 -0.4348
  969MOL0     H30796   8.381   6.412   1.743 -4.1569  0.7137 -1.8733
  969MOL0     H30797   9.108   6.345   2.427  3.1271  0.1054 -0.1550
  969MOL0     H30798   9.163   6.213   2.625 -2.5507 -1.5806  1.2812
  969MOL0     H30799   9.460   5.734   2.737  0.6489 -1.3634  0.5561
  969MOL0     H30800   9.536   5.693   2.942  0.0284  0.1421  2.7185
  969MOL0     H30801  10.773   5.991   3.901 -0.1408 -0.1677  0.1359
  969MOL0     H30802  10.939   6.085   4.036  1.1270  2.6615  1.2499
  969MOL0     H30803  11.044   6.184   4.512  1.2140 -0.9519 -1.0949
  969MOL0     H30804  11.179   6.302   4.677 -1.2369  0.7992  2.0655
  969MOL0     H30805  11.388   6.404   4.638 -1.8163 -1.7902  1.8848
  969MOL0     H30806  11.462   6.565   4.642 -1.4468  2.6681  1.6136
  969MOL0     H30807  11.473   6.420   4.853  0.1176  1.9422 -0.3553
  969MOL0     H30808  11.293   6.436   4.862 -3.1314  2.0689 -1.7961
  969MOL0     H30809  11.344   6.693   4.925  0.2515 -0.1701  1.3197
  969MOL0     H30810  11.507   6.660   4.898  2.7707 -3.6579  0.6402
  969MOL0     H30811  11.487   6.471   5.073  2.2581  0.8070 -2.3323
  969MOL0     H30812  11.322   6.511   5.091 -0.2034  0.1389 -3.3565
  969MOL0     H30813  11.475   6.872   5.244  1.6907 -0.1922 -0.2095
  969MOL0     H30814  11.156   6.664   4.439 -4.3194  1.5595 -1.8986
  969MOL0     H30815  11.004   6.541   4.284 -1.1941  0.8175  0.6213
  970MOL0     O30816   3.942   5.762   1.595 -0.7492 -0.2092  0.0365
  970MOL0     C30817   3.833   5.798   1.543 -1.0124  0.0905 -0.4525
  970MOL0     O30818   3.752   5.882   1.605  0.0256  0.3272  0.5200
  970MOL0     C30819   3.778   5.957   1.713 -0.4740  0.2919  0.2178
  970MOL0     C30820   3.777   6.090   1.678 -0.3117 -0.8579  0.3243
  970MOL0     C30821   3.815   6.188   1.765 -1.3300  0.1324  0.1978
  970MOL0     C30822   3.871   6.150   1.885  0.6907  0.6481 -0.2883
  970MOL0     O30823   3.915   6.249   1.966 -0.1320 -0.4966  0.0255
  970MOL0     C30824   4.008   6.227   2.074 -0.1890 -0.3297 -0.5976
  970MOL0     C30825   4.076   6.358   2.114 -0.0247  0.5705 -0.2452
  970MOL0     C30826   4.128   6.435   1.995  0.0859  0.9451  0.5195
  970MOL0     C30827   4.206   6.553   2.041  0.0513  0.0680  0.0481
  970MOL0     C30828   4.238   6.617   1.908  1.1224  0.3892 -0.2762
  970MOL0     C30829   4.237   6.768   1.907  0.5906  0.8186  0.1708
  970MOL0     C30830   4.232   6.831   1.773  0.1334  1.2530 -0.4284
  970MOL0     C30831   4.288   6.977   1.755  0.9995 -0.2004  0.8848
  970MOL0     N30832   4.183   7.059   1.804  0.1764 -0.0073  0.9176
  970MOL0     C30833   4.215   7.172   1.880  0.0960 -0.2103 -0.0899
  970MOL0     C30834   4.101   7.247   1.883 -0.0046  0.5118 -0.2448
  970MOL0     C30835   4.076   7.385   1.949 -0.4027  0.3853 -0.7928
  970MOL0     C30836   4.108   7.480   1.842  0.6739  0.1863 -0.1855
  970MOL0     C30837   4.007   7.482   1.717 -0.0234  0.4504 -0.7418
  970MOL0     C30838   4.022   7.613   1.626 -0.6137 -0.0901 -0.2713
  970MOL0     O30839   3.934   7.725   1.666 -0.1324 -0.2120 -0.1222
  970MOL0     C30840   3.910   7.829   1.574 -0.6378 -0.2619 -0.1262
  970MOL0     C30841   3.824   7.933   1.602  0.3443  0.8385  0.3773
  970MOL0     C30842   3.800   8.046   1.512 -0.6143  0.2905  0.5423
  970MOL0     C30843   3.730   8.159   1.577 -0.7020 -0.2084 -0.2682
  970MOL0     C30844   3.843   8.046   1.380 -0.7730  0.5346  0.3435
  970MOL0     C30845   3.831   8.153   1.274 -0.0738 -0.1456  0.2618
  970MOL0     O30846   3.851   8.121   1.138 -1.1185 -0.8179 -0.2833
  970MOL0     C30847   3.792   8.202   1.043 -0.0386 -0.2488  0.3151
  970MOL0     C30848   3.669   8.278   1.051 -0.5678  0.1491 -0.5573
  970MOL0     C30849   3.617   8.334   0.937 -0.7208 -0.3264 -0.5682
  970MOL0     C30850   3.681   8.329   0.812  0.2012  0.4328 -0.0640
  970MOL0     O30851   3.614   8.379   0.703  0.1298 -0.5508 -0.0180
  970MOL0     C30852   3.685   8.434   0.589  0.0880  0.0058 -0.1067
  970MOL0     C30853   3.621   8.573   0.559 -0.3005 -1.1115  0.7869
  970MOL0     C30854   3.665   8.632   0.425 -0.5379  0.0367  0.4923
  970MOL0     C30855   3.641   8.784   0.428 -0.2055  0.3486 -0.4707
  970MOL0     C30856   3.670   8.851   0.295 -0.2565  0.2078 -0.3583
  970MOL0     C30857   3.813   8.831   0.239  0.2572 -0.6327 -0.3838
  970MOL0     C30858   3.921   8.902   0.331 -0.9088  0.5091  0.0968
  970MOL0     C30859   4.061   8.897   0.266  0.6616 -0.3232 -0.1946
  970MOL0    Cl30860   4.110   8.726   0.272  0.4010  0.2625  0.3374
  970MOL0     C30861   3.802   8.260   0.807 -0.1999 -0.1007  0.2210
  970MOL0     C30862   3.858   8.205   0.922 -0.7797  0.6864  0.1292
  970MOL0     O30863   3.790   8.255   1.313  0.7648 -0.5919 -0.0193
  970MOL0     C30864   3.913   7.932   1.340 -0.3266 -0.3041 -0.7981
  970MOL0     C30865   3.944   7.830   1.433 -0.6368  0.8919  0.8788
  970MOL0     N30866   4.011   7.185   1.796  0.4742  0.1331 -0.9506
  970MOL0     N30867   4.061   7.074   1.748  0.1084 -0.6402 -0.3946
  970MOL0     C30868   3.878   6.019   1.924 -0.1107 -0.9072  0.1535
  970MOL0     C30869   3.821   5.921   1.840 -0.4700  0.0684  0.0184
  970MOL0     C30870   3.785   5.736   1.415  0.3059  0.7959  0.1487
  970MOL0     C30871   3.855   5.617   1.369 -0.3942 -1.0821  0.5130
  970MOL0     C30872   3.814   5.555   1.255 -0.7274  0.0891  0.2984
  970MOL0     C30873   3.709   5.604   1.176 -0.1241 -0.2337 -0.0997
  970MOL0     O30874   3.662   5.552   1.057 -0.7978  0.2188  0.4201
  970MOL0     C30875   3.566   5.442   1.074  0.6342 -0.1803  0.1331
  970MOL0     C30876   3.612   5.304   1.117 -0.6645 -0.7004 -0.4686
  970MOL0     C30877   3.724   5.260   1.031 -0.1714 -0.3228  0.6499
  970MOL0     C30878   3.699   5.197   0.889  0.3160 -0.4052  0.3211
  970MOL0     C30879   3.615   5.075   0.895  0.8586  0.8102  0.8648
  970MOL0     C30880   3.547   4.971   0.881  0.0264 -0.4535 -0.3347
  970MOL0     C30881   3.646   5.730   1.214  0.0082  0.3216  1.3403
  970MOL0     C30882   3.674   5.788   1.339  0.3152 -0.6878  0.3178
  970MOL0     H30883   3.753   6.127   1.578 -0.4652  2.2035  1.3893
  970MOL0     H30884   3.834   6.291   1.735 -1.7556  0.3403  0.6276
  970MOL0     H30885   3.963   6.187   2.165  0.8206  1.9367  0.9991
  970MOL0     H30886   4.086   6.160   2.039 -2.0095 -2.1513 -1.3851
  970MOL0     H30887   4.002   6.414   2.172  1.5627  2.5662 -0.0321
  970MOL0     H30888   4.165   6.343   2.176  0.3519  0.3669 -0.8269
  970MOL0     H30889   4.181   6.359   1.938  0.1135  0.4955  1.1407
  970MOL0     H30890   4.037   6.468   1.944  1.6945  1.0058 -2.5761
  970MOL0     H30891   4.154   6.626   2.105  0.0474 -1.2744  1.6580
  970MOL0     H30892   4.295   6.524   2.097 -0.5710  2.4105  2.5140
  970MOL0     H30893   4.335   6.575   1.881 -0.4068 -2.2558 -2.1541
  970MOL0     H30894   4.179   6.578   1.824 -1.4983 -0.1855  1.6971
  970MOL0     H30895   4.156   6.811   1.966 -0.1641 -0.0389 -0.2252
  970MOL0     H30896   4.330   6.807   1.948  1.2307 -1.2597  0.8475
  970MOL0     H30897   4.293   6.767   1.707 -0.6097  3.4435 -3.4838
  970MOL0     H30898   4.130   6.815   1.737  1.2450 -0.9977 -3.0229
  970MOL0     H30899   4.296   7.000   1.649  0.4377  0.7505  1.0345
  970MOL0     H30900   4.384   7.007   1.800  1.6024  2.5755 -1.8847
  970MOL0     H30901   4.305   7.188   1.938  1.5640  2.1524 -2.7972
  970MOL0     H30902   3.978   7.413   1.987  0.0842  0.1645  0.6890
  970MOL0     H30903   4.153   7.398   2.026  1.7352 -3.3206 -2.0571
  970MOL0     H30904   4.204   7.463   1.793  0.1940  3.1024 -2.4370
  970MOL0     H30905   4.114   7.577   1.892  2.9637 -0.3938  0.7788
  970MOL0     H30906   3.907   7.490   1.761  0.3209  1.1387 -0.0634
  970MOL0     H30907   4.014   7.389   1.659 -5.8030 -1.2732  0.6272
  970MOL0     H30908   3.993   7.586   1.524  0.9137  0.9776 -1.0410
  970MOL0     H30909   4.126   7.645   1.613 -0.4587 -0.9124 -1.1942
  970MOL0     H30910   3.784   7.933   1.703  0.6121 -1.8396  0.5689
  970MOL0     H30911   3.705   8.133   1.680  0.5181 -1.3586 -0.2332
  970MOL0     H30912   3.790   8.250   1.575  1.3103 -1.4150  1.3833
  970MOL0     H30913   3.644   8.177   1.512 -1.6315 -2.9858  0.0564
  970MOL0     H30914   3.628   8.297   1.149  0.4302 -0.1248 -0.0631
  970MOL0     H30915   3.535   8.404   0.931  0.1453  0.6795 -1.2518
  970MOL0     H30916   3.791   8.442   0.615 -0.0263 -1.4816  0.9626
  970MOL0     H30917   3.679   8.365   0.505  3.3721 -1.1859  0.4646
  970MOL0     H30918   3.513   8.562   0.547 -0.5640  1.1449  0.7779
  970MOL0     H30919   3.639   8.636   0.646  2.8565 -0.1020 -0.4645
  970MOL0     H30920   3.607   8.584   0.346  1.4755  2.8767 -3.0025
  970MOL0     H30921   3.771   8.609   0.413  0.9554  3.2522  4.7393
  970MOL0     H30922   3.536   8.804   0.450  0.3969  1.2006  1.9372
  970MOL0     H30923   3.699   8.828   0.509 -1.4808  1.8411 -0.3216
  970MOL0     H30924   3.649   8.959   0.295  0.7813  0.4346 -1.4895
  970MOL0     H30925   3.593   8.816   0.226  1.3849 -0.3296 -1.9883
  970MOL0     H30926   3.840   8.728   0.214 -0.2587 -1.7398  3.0851
  970MOL0     H30927   3.804   8.879   0.142 -1.9996 -1.1711 -0.4963
  970MOL0     H30928   3.925   8.839   0.419 -0.2863 -2.1503 -1.7248
  970MOL0     H30929   3.900   9.005   0.362  0.6117  0.8022  0.2371
  970MOL0     H30930   4.134   8.961   0.317 -1.3428  1.6794  0.3439
  970MOL0     H30931   4.062   8.916   0.159  1.4450 -2.8751 -0.6957
  970MOL0     H30932   3.844   8.232   0.711  0.3847  2.1953 -0.2545
  970MOL0     H30933   3.952   8.150   0.918 -0.9254  0.4950 -1.8774
  970MOL0     H30934   3.940   7.924   1.235  1.3594 -0.6956 -0.3670
  970MOL0     H30935   4.017   7.757   1.401  0.1905  0.8902  2.6170
  970MOL0     H30936   3.913   5.988   2.022  0.8774 -0.2684  0.0111
  970MOL0     H30937   3.826   5.816   1.869  1.8449  0.3576  0.8813
  970MOL0     H30938   3.947   5.578   1.410 -0.4583 -4.3940 -2.1080
  970MOL0     H30939   3.866   5.463   1.231 -3.5235 -1.2406 -1.0988
  970MOL0     H30940   3.484   5.475   1.139  2.3751  0.6552  2.0416
  970MOL0     H30941   3.515   5.432   0.978 -1.1075 -0.1802  1.0071
  970MOL0     H30942   3.531   5.231   1.107 -2.3908  0.8136  1.4461
  970MOL0     H30943   3.646   5.312   1.221  2.4632  1.7170 -1.5049
  970MOL0     H30944   3.776   5.181   1.087  0.0078  1.9288  3.8927
  970MOL0     H30945   3.789   5.346   1.014  1.8942 -1.3354  2.8684
  970MOL0     H30946   3.799   5.170   0.853  0.9499 -2.9698  3.5024
  970MOL0     H30947   3.650   5.267   0.821  0.8706  0.8140  1.1467
  970MOL0     H30948   3.477   4.891   0.867 -0.3001 -0.3542  0.6378
  970MOL0     H30949   3.569   5.781   1.156  0.1533 -1.1898 -0.2598
  970MOL0     H30950   3.620   5.880   1.361 -1.7559 -2.0390  1.1138
  971MOL0     O30951   1.599   7.185   8.607  0.5888  0.2399  0.3786
  971MOL0     C30952   1.652   7.290   8.576  0.2371 -0.0510  0.5378
  971MOL0     O30953   1.715   7.313   8.459  0.0597 -0.4703  0.2793
  971MOL0     C30954   1.678   7.235   8.351 -0.2624 -0.9124 -0.8638
  971MOL0     C30955   1.578   7.278   8.264 -0.3209 -0.3885 -0.4499
  971MOL0     C30956   1.528   7.205   8.163  1.0216  0.5481  0.6802
  971MOL0     C30957   1.557   7.072   8.149 -1.1837 -1.0083 -0.2548
  971MOL0     O30958   1.504   6.979   8.061  0.4635 -0.3910 -0.1639
  971MOL0     C30959   1.417   7.028   7.961  0.7322 -0.3992  0.8514
  971MOL0     C30960   1.365   6.901   7.881  0.0953 -0.4303  0.5415
  971MOL0     C30961   1.267   6.939   7.769 -0.3264 -0.4731  1.1270
  971MOL0     C30962   1.157   7.042   7.806  0.9102 -0.2455  0.2873
  971MOL0     C30963   1.061   7.055   7.683 -0.2110  0.1084 -0.0224
  971MOL0     C30964   1.113   7.084   7.547 -0.7202 -0.0999 -0.3833
  971MOL0     C30965   1.020   7.064   7.434  1.1359 -0.8211  0.7430
  971MOL0     C30966   1.095   7.060   7.300  0.0737  0.7493  0.6825
  971MOL0     N30967   1.162   7.178   7.262 -0.5336  0.1109  0.6289
  971MOL0     C30968   1.305   7.207   7.280  1.6891  1.0100 -0.0676
  971MOL0     C30969   1.315   7.333   7.223 -0.1235 -0.1203 -0.0816
  971MOL0     C30970   1.442   7.408   7.218 -0.6360  0.1704 -1.4531
  971MOL0     C30971   1.474   7.509   7.329  0.5267 -0.3311  0.3477
  971MOL0     C30972   1.380   7.630   7.358 -0.0910  0.1315 -0.1637
  971MOL0     C30973   1.345   7.706   7.238  1.3581 -0.1956 -0.8724
  971MOL0     O30974   1.456   7.757   7.155  0.1936 -0.4964  0.4631
  971MOL0     C30975   1.420   7.805   7.030  0.9711  0.8783  0.6300
  971MOL0     C30976   1.395   7.944   7.005  0.2025  0.4480  0.1051
  971MOL0     C30977   1.350   7.995   6.881 -0.5904  0.6087  0.4170
  971MOL0     C30978   1.332   8.147   6.871 -0.2890  0.0459  0.1594
  971MOL0     C30979   1.317   7.901   6.778  0.1185 -0.0885 -0.2825
  971MOL0     C30980   1.242   7.928   6.663  0.2654 -0.0133 -0.2995
  971MOL0     O30981   1.286   7.869   6.551 -0.8653 -0.3838 -0.1944
  971MOL0     C30982   1.221   7.881   6.434 -0.4100 -0.4021  0.1510
  971MOL0     C30983   1.187   8.000   6.383 -0.1929 -0.1395 -0.5965
  971MOL0     C30984   1.114   8.003   6.266  0.3186 -0.6161  0.1626
  971MOL0     C30985   1.067   7.889   6.209  0.4388  0.7107 -0.1684
  971MOL0     O30986   0.986   7.875   6.100  0.0910  0.3993 -0.4431
  971MOL0     C30987   0.981   7.985   6.001 -0.5556 -0.2744 -0.4857
  971MOL0     C30988   0.956   7.934   5.862  0.0933  0.7883  0.9856
  971MOL0     C30989   0.932   8.054   5.771  0.2483  1.0044  1.1111
  971MOL0     C30990   0.777   8.068   5.755 -1.0735  0.0798  0.2504
  971MOL0     C30991   0.723   8.200   5.685 -0.3231  0.2324  0.8725
  971MOL0     C30992   0.785   8.216   5.549  0.0144  0.0160  0.0426
  971MOL0     C30993   0.739   8.131   5.436  0.9734  0.9481  0.2152
  971MOL0     C30994   0.796   8.169   5.308 -0.1653  0.3577 -0.0298
  971MOL0    Cl30995   0.726   8.329   5.241  0.4487 -0.2134 -0.0596
  971MOL0     C30996   1.112   7.768   6.252  0.5384  1.2079 -0.8740
  971MOL0     C30997   1.197   7.762   6.360  0.8289 -0.2709  0.5742
  971MOL0     O30998   1.144   8.000   6.659 -0.0657  0.0555 -0.5402
  971MOL0     C30999   1.333   7.762   6.797 -0.8291  0.2283  0.1609
  971MOL0     C31000   1.386   7.722   6.917 -1.5053  0.5362  0.0125
  971MOL0     N31001   1.190   7.375   7.181 -0.2987  0.6842  0.3759
  971MOL0     N31002   1.108   7.290   7.220  0.5209 -0.9149  0.0202
  971MOL0     C31003   1.655   7.023   8.229 -1.0138 -0.2734  0.4546
  971MOL0     C31004   1.715   7.097   8.332 -0.2092 -1.2621 -0.6234
  971MOL0     C31005   1.646   7.408   8.660 -0.5274 -0.2161  0.1041
  971MOL0     C31006   1.612   7.534   8.592  0.2239  0.3923 -0.3529
  971MOL0     C31007   1.564   7.644   8.665  0.1937  0.7185 -0.0523
  971MOL0     C31008   1.562   7.645   8.802 -0.9132  0.4208 -0.0713
  971MOL0     O31009   1.541   7.761   8.867  0.8088  0.2754 -0.1048
  971MOL0     C31010   1.507   7.753   9.002  0.4396 -0.0948 -0.6290
  971MOL0     C31011   1.485   7.896   9.067 -0.4055  0.3549 -0.6317
  971MOL0     C31012   1.349   7.945   9.022  0.5989  0.3725 -0.5941
  971MOL0     C31013   1.315   8.077   9.098 -0.6951  1.2390  0.2744
  971MOL0     C31014   1.185   8.122   9.048 -0.7331  0.3635 -0.0400
  971MOL0     C31015   1.079   8.152   9.016  0.0843 -1.3407 -0.0022
  971MOL0     C31016   1.614   7.523   8.868 -0.5567 -0.0488  1.1888
  971MOL0     C31017   1.642   7.413   8.796  0.9433  0.0973  0.7602
  971MOL0     H31018   1.538   7.378   8.277 -2.3497 -1.1760 -0.1706
  971MOL0     H31019   1.462   7.257   8.095 -0.3433 -0.2410  1.3426
  971MOL0     H31020   1.329   7.079   8.000  1.9751  1.0671  1.8609
  971MOL0     H31021   1.473   7.095   7.896  3.2699 -0.6845  2.5789
  971MOL0     H31022   1.447   6.846   7.834  1.1429 -0.1280  1.9560
  971MOL0     H31023   1.313   6.842   7.956 -0.5270 -2.2186 -1.2075
  971MOL0     H31024   1.328   6.974   7.685 -2.9077  1.3939 -0.0975
  971MOL0     H31025   1.228   6.840   7.741  3.8209 -1.3653 -2.6921
  971MOL0     H31026   1.112   7.029   7.905  0.5091  1.5114  0.3708
  971MOL0     H31027   1.206   7.140   7.811 -0.8444  0.9162 -2.6839
  971MOL0     H31028   1.007   6.961   7.670  2.0408 -0.9726 -2.5085
  971MOL0     H31029   1.003   7.147   7.695 -1.5862 -0.7811  0.4158
  971MOL0     H31030   1.152   7.186   7.541  0.1191 -0.2805  1.2764
  971MOL0     H31031   1.199   7.019   7.527  0.8350  1.3400  1.2463
  971MOL0     H31032   0.972   6.966   7.446  2.4332 -1.5688 -0.0113
  971MOL0     H31033   0.942   7.141   7.435  1.4022 -0.2132 -4.1662
  971MOL0     H31034   1.025   7.046   7.216  0.1254  2.7317  0.2652
  971MOL0     H31035   1.156   6.969   7.295 -1.8557 -0.7935  2.9703
  971MOL0     H31036   1.381   7.147   7.330  2.7330 -0.8445 -3.5967
  971MOL0     H31037   1.516   7.329   7.229  1.0734  2.0113  1.9142
  971MOL0     H31038   1.447   7.469   7.127  0.1803  2.5078  0.0401
  971MOL0     H31039   1.569   7.559   7.307  0.2601 -0.4458 -1.1420
  971MOL0     H31040   1.487   7.455   7.424  0.8702  1.0425  1.1079
  971MOL0     H31041   1.442   7.696   7.419  0.4164 -0.1507 -0.3649
  971MOL0     H31042   1.290   7.592   7.406 -2.0602  2.5001 -1.7207
  971MOL0     H31043   1.289   7.799   7.254 -1.9812 -2.2590  0.5360
  971MOL0     H31044   1.272   7.645   7.184  1.8005 -2.5623  1.0821
  971MOL0     H31045   1.390   8.018   7.085 -3.2042  0.6387 -0.1322
  971MOL0     H31046   1.432   8.191   6.876 -0.1697 -0.3529  1.6223
  971MOL0     H31047   1.283   8.183   6.780  0.5574 -2.0797 -1.2150
  971MOL0     H31048   1.278   8.176   6.962 -0.7220 -0.6013  0.1175
  971MOL0     H31049   1.220   8.090   6.434 -0.2448  0.0589 -0.9145
  971MOL0     H31050   1.093   8.098   6.220  2.1621 -0.2632 -0.0062
  971MOL0     H31051   0.906   8.057   6.034  0.2312  0.3991 -0.1355
  971MOL0     H31052   1.083   8.026   5.995  1.0017 -3.8572 -1.3115
  971MOL0     H31053   1.048   7.885   5.829 -0.8151 -0.4721  0.2490
  971MOL0     H31054   0.871   7.866   5.863 -1.0286  2.0036  4.7944
  971MOL0     H31055   0.974   8.028   5.673 -0.6873  2.2658  0.3543
  971MOL0     H31056   0.966   8.152   5.806 -0.4197  1.0046  1.7928
  971MOL0     H31057   0.741   7.977   5.705  1.0868 -0.6381 -0.1227
  971MOL0     H31058   0.731   8.061   5.853 -0.0849  0.3643  0.7467
  971MOL0     H31059   0.728   8.295   5.740 -1.8782  1.4982 -1.0356
  971MOL0     H31060   0.618   8.185   5.658  0.5685 -1.4241 -2.0547
  971MOL0     H31061   0.761   8.317   5.514  1.7554  1.7625  3.3923
  971MOL0     H31062   0.894   8.204   5.550 -0.1658 -2.0666  2.1254
  971MOL0     H31063   0.631   8.147   5.428  0.8286 -0.0668  0.0216
  971MOL0     H31064   0.753   8.025   5.458  2.1863  0.8349 -0.9930
  971MOL0     H31065   0.777   8.103   5.223  1.4690  0.2644 -0.3609
  971MOL0     H31066   0.904   8.181   5.320 -0.6196  2.3066  3.2230
  971MOL0     H31067   1.062   7.678   6.219 -0.4136  1.3726  0.0967
  971MOL0     H31068   1.222   7.672   6.416  0.9664  0.7966  2.3137
  971MOL0     H31069   1.299   7.684   6.729  1.3719  1.1214 -2.1155
  971MOL0     H31070   1.402   7.616   6.930  1.5508  0.8924 -0.2112
  971MOL0     H31071   1.706   6.928   8.215  4.2153  2.1958  0.1994
  971MOL0     H31072   1.790   7.045   8.390  1.1118 -0.1860 -1.3199
  971MOL0     H31073   1.606   7.539   8.484  0.0549 -0.3829 -0.3853
  971MOL0     H31074   1.533   7.722   8.597 -0.0178  2.2408  1.6941
  971MOL0     H31075   1.422   7.687   9.023  0.2894  0.1997 -0.3218
  971MOL0     H31076   1.598   7.712   9.045 -0.5628 -2.5897 -0.6929
  971MOL0     H31077   1.561   7.969   9.036 -0.3535  0.5760  0.0172
  971MOL0     H31078   1.497   7.869   9.172  1.5238 -0.5187 -1.0341
  971MOL0     H31079   1.278   7.867   9.047  1.2369 -0.8202 -2.3358
  971MOL0     H31080   1.341   7.966   8.915 -1.3062 -1.1168 -0.7977
  971MOL0     H31081   1.401   8.143   9.079  1.5358 -1.0221  1.8259
  971MOL0     H31082   1.318   8.052   9.204  5.1297 -0.6719  0.0377
  971MOL0     H31083   0.985   8.194   8.986  0.6620 -0.5849 -0.7804
  971MOL0     H31084   1.624   7.520   8.976  2.7623 -0.3857  0.9734
  971MOL0     H31085   1.640   7.315   8.843  2.0128  1.3831  3.7524
  972MOL0     O31086   0.163   5.772   0.733  0.0570  0.4755 -0.7328
  972MOL0     C31087   0.151   5.851   0.641  0.3024 -1.3136 -0.3753
  972MOL0     O31088   0.032   5.888   0.586  0.3567  0.3755 -1.1833
  972MOL0     C31089  -0.068   5.792   0.596  0.1695 -0.4099 -0.7307
  972MOL0     C31090  -0.197   5.852   0.619  0.3610  0.3906  1.5898
  972MOL0     C31091  -0.315   5.772   0.619  0.5131 -0.6415 -0.1447
  972MOL0     C31092  -0.296   5.630   0.628  0.0685 -0.7844 -0.3686
  972MOL0     O31093  -0.407   5.563   0.662  0.1562 -1.5201 -0.2908
  972MOL0     C31094  -0.392   5.455   0.758  0.1247 -0.8562 -0.2636
  972MOL0     C31095  -0.532   5.407   0.801 -0.1393  0.5196 -0.9846
  972MOL0     C31096  -0.535   5.274   0.875 -0.1528 -0.0559  0.3705
  972MOL0     C31097  -0.670   5.264   0.933  0.0045  0.2227 -0.3243
  972MOL0     C31098  -0.711   5.368   1.040  0.3817  0.5150 -0.5394
  972MOL0     C31099  -0.833   5.323   1.114 -0.5125 -0.1241  0.4215
  972MOL0     C31100  -0.878   5.419   1.221 -0.0821 -0.5922 -0.3174
  972MOL0     C31101  -0.966   5.527   1.155  0.3957 -0.1533  0.7037
  972MOL0     N31102  -1.044   5.599   1.247 -0.2108 -0.2869  0.0516
  972MOL0     C31103  -0.991   5.664   1.356  0.2783  0.4506 -0.4466
  972MOL0     C31104  -1.100   5.676   1.437  1.3343  0.3943  0.3591
  972MOL0     C31105  -1.099   5.739   1.573 -0.5292 -0.2643 -0.4031
  972MOL0     C31106  -1.137   5.640   1.689  0.0487 -0.7165  0.6073
  972MOL0     C31107  -1.071   5.506   1.680  0.3127  0.3765 -0.4472
  972MOL0     C31108  -1.136   5.410   1.788  0.0633 -0.0705  0.4983
  972MOL0     O31109  -1.108   5.450   1.923  0.2223 -0.1492  0.3093
  972MOL0     C31110  -1.163   5.390   2.030  0.4705  0.6939  0.2583
  972MOL0     C31111  -1.260   5.288   2.025 -0.5245 -0.0676  0.1254
  972MOL0     C31112  -1.319   5.231   2.136  0.0595  0.4533 -0.7061
  972MOL0     C31113  -1.421   5.113   2.114  0.7593  0.2824  0.8703
  972MOL0     C31114  -1.279   5.266   2.268  0.9687  0.4315  0.9192
  972MOL0     C31115  -1.344   5.216   2.399 -0.1450  0.5083 -0.4905
  972MOL0     O31116  -1.311   5.277   2.508 -0.5574 -0.3544 -0.0952
  972MOL0     C31117  -1.340   5.227   2.635  0.4055 -0.6310 -0.1380
  972MOL0     C31118  -1.249   5.234   2.738  0.3384  0.2060 -0.6517
  972MOL0     C31119  -1.276   5.181   2.867 -0.2206  0.4519 -0.5388
  972MOL0     C31120  -1.404   5.130   2.885  0.6422  0.8273  0.6834
  972MOL0     O31121  -1.443   5.074   3.000 -0.5026  0.4766  0.1704
  972MOL0     C31122  -1.335   5.018   3.082  0.1472 -0.0305  0.3297
  972MOL0     C31123  -1.405   4.945   3.201  0.1935 -0.1379 -0.0477
  972MOL0     C31124  -1.438   4.809   3.155 -0.7881  0.0049 -0.4313
  972MOL0     C31125  -1.569   4.800   3.074  0.6613  0.6903  0.9905
  972MOL0     C31126  -1.597   4.653   3.037 -0.1446 -0.7918  1.1636
  972MOL0     C31127  -1.731   4.633   2.957 -0.4141 -0.3459 -0.5546
  972MOL0     C31128  -1.842   4.658   3.053  0.1131  0.3377 -1.3221
  972MOL0     C31129  -1.970   4.671   2.979  0.7875 -0.2976  0.1592
  972MOL0    Cl31130  -1.989   4.532   2.863  0.0743  0.2299  0.0170
  972MOL0     C31131  -1.504   5.124   2.785 -0.2223 -0.8597  1.2688
  972MOL0     C31132  -1.468   5.181   2.660 -0.3490  0.1757  0.8190
  972MOL0     O31133  -1.405   5.107   2.396 -0.7830 -0.4631  0.0919
  972MOL0     C31134  -1.189   5.364   2.279 -0.5712 -0.0603 -0.4446
  972MOL0     C31135  -1.134   5.423   2.162  0.1388 -1.0600  0.3028
  972MOL0     N31136  -1.211   5.621   1.373  0.0672  0.0681 -0.5446
  972MOL0     N31137  -1.173   5.578   1.257 -0.5339  0.0833 -0.5064
  972MOL0     C31138  -0.172   5.575   0.615 -0.6909  0.1628 -0.2865
  972MOL0     C31139  -0.057   5.652   0.588  0.1864  0.3785  0.2274
  972MOL0     C31140   0.271   5.929   0.626  1.5248 -0.1272  0.1035
  972MOL0     C31141   0.397   5.866   0.630 -0.2970 -0.9432 -0.5038
  972MOL0     C31142   0.517   5.939   0.616  0.4302 -0.2924  0.1150
  972MOL0     C31143   0.515   6.083   0.608 -0.5460  0.0139 -0.4949
  972MOL0     O31144   0.636   6.147   0.606 -0.2940  0.4872  0.2220
  972MOL0     C31145   0.658   6.284   0.565  0.2996  0.1961  0.1439
  972MOL0     C31146   0.642   6.374   0.687 -0.0942  0.6941  0.3702
  972MOL0     C31147   0.719   6.507   0.684 -0.7967  1.2129  1.5902
  972MOL0     C31148   0.650   6.607   0.774 -0.1754  0.3446  0.6750
  972MOL0     C31149   0.700   6.592   0.911  0.1288 -1.2033 -0.6800
  972MOL0     C31150   0.727   6.575   1.029 -0.3110  0.1429  0.5860
  972MOL0     C31151   0.393   6.152   0.615 -0.1644  0.1273 -0.1678
  972MOL0     C31152   0.270   6.073   0.614 -0.4973 -0.4678  1.2806
  972MOL0     H31153  -0.196   5.960   0.624 -2.3646  0.5387  0.4780
  972MOL0     H31154  -0.417   5.808   0.625  1.4444  2.0672  0.4934
  972MOL0     H31155  -0.337   5.368   0.720  3.7048 -0.8186  4.0388
  972MOL0     H31156  -0.332   5.482   0.845 -1.7104 -0.6676  1.0061
  972MOL0     H31157  -0.584   5.488   0.855 -0.4899  0.0854 -0.6632
  972MOL0     H31158  -0.606   5.404   0.720 -2.7222  0.7027  1.1990
  972MOL0     H31159  -0.522   5.197   0.798  1.5662  1.8306 -1.3609
  972MOL0     H31160  -0.462   5.253   0.954 -0.8613  0.0559  1.0665
  972MOL0     H31161  -0.746   5.268   0.854  0.2427 -0.7565 -0.6188
  972MOL0     H31162  -0.663   5.168   0.984 -0.8291 -0.2036 -0.9911
  972MOL0     H31163  -0.628   5.386   1.109 -0.6783 -0.0375  0.9543
  972MOL0     H31164  -0.741   5.464   0.996 -1.3785 -1.2570 -3.5314
  972MOL0     H31165  -0.915   5.291   1.049 -1.5525 -2.6335  2.7765
  972MOL0     H31166  -0.805   5.225   1.154 -1.3337 -0.6641 -0.3063
  972MOL0     H31167  -0.935   5.350   1.284  1.3429 -1.6376 -0.0998
  972MOL0     H31168  -0.800   5.462   1.284 -0.1198  0.0246 -0.6869
  972MOL0     H31169  -1.026   5.478   1.077 -0.0849  3.1237 -1.1964
  972MOL0     H31170  -0.908   5.598   1.095  2.3885 -1.9178  0.4156
  972MOL0     H31171  -0.892   5.709   1.368 -0.0363  2.1695 -3.2913
  972MOL0     H31172  -0.996   5.765   1.599 -0.4575 -0.4255 -0.5278
  972MOL0     H31173  -1.161   5.828   1.590 -0.8898 -0.8070  1.3459
  972MOL0     H31174  -1.246   5.634   1.681 -0.2622  2.0242  1.4881
  972MOL0     H31175  -1.106   5.692   1.780 -0.7279  0.1396  0.4052
  972MOL0     H31176  -0.964   5.518   1.702  0.4751  0.2570 -1.1475
  972MOL0     H31177  -1.077   5.460   1.581  0.5142  2.0784 -1.2873
  972MOL0     H31178  -1.096   5.311   1.767 -1.1872  0.3457 -6.0043
  972MOL0     H31179  -1.245   5.411   1.780 -0.2480  1.9436  3.2166
  972MOL0     H31180  -1.277   5.250   1.925 -0.3801 -1.4398  0.6051
  972MOL0     H31181  -1.512   5.115   2.174  0.8022  1.8566  0.9132
  972MOL0     H31182  -1.449   5.101   2.009  3.1084  2.7359 -0.1627
  972MOL0     H31183  -1.360   5.025   2.136  0.7893  0.2083  0.5025
  972MOL0     H31184  -1.153   5.282   2.720  1.5096  0.4542  4.6324
  972MOL0     H31185  -1.199   5.167   2.942 -0.0962 -0.0071 -0.7487
  972MOL0     H31186  -1.257   4.969   3.023 -0.4591 -0.9337  0.2510
  972MOL0     H31187  -1.277   5.097   3.130  2.2013 -2.5897  2.3205
  972MOL0     H31188  -1.340   4.955   3.288  0.4517 -1.4013 -0.0824
  972MOL0     H31189  -1.490   5.008   3.229  0.7859  1.3793 -1.4986
  972MOL0     H31190  -1.448   4.758   3.251 -2.7796 -1.3888 -1.3146
  972MOL0     H31191  -1.359   4.761   3.095  2.4134 -1.2271  4.2094
  972MOL0     H31192  -1.645   4.845   3.140 -1.5039  2.3087 -2.3084
  972MOL0     H31193  -1.552   4.872   2.994 -0.6414  1.7693  1.6287
  972MOL0     H31194  -1.601   4.597   3.130 -2.6516 -2.1926  0.2950
  972MOL0     H31195  -1.512   4.624   2.975 -0.2557 -4.2756  2.4240
  972MOL0     H31196  -1.738   4.704   2.874  1.1816 -0.9951 -1.2894
  972MOL0     H31197  -1.747   4.532   2.918  1.1241 -0.0852 -1.9648
  972MOL0     H31198  -1.824   4.750   3.110  0.2527 -0.4678 -0.0393
  972MOL0     H31199  -1.845   4.567   3.113  0.4539  2.1991  1.7290
  972MOL0     H31200  -1.964   4.766   2.926 -1.3734 -0.1201  0.1611
  972MOL0     H31201  -2.057   4.686   3.044  1.4831  2.2794  0.6532
  972MOL0     H31202  -1.609   5.113   2.811 -0.6502 -1.1939 -0.5011
  972MOL0     H31203  -1.540   5.158   2.582  1.2207 -3.3371  0.2001
  972MOL0     H31204  -1.154   5.418   2.367 -1.1413 -2.4795  1.3711
  972MOL0     H31205  -1.065   5.505   2.172 -2.0724  1.1165 -1.1084
  972MOL0     H31206  -0.148   5.470   0.603  2.8131  0.9975 -1.8392
  972MOL0     H31207   0.044   5.615   0.580  1.2053  2.8067  1.1073
  972MOL0     H31208   0.400   5.757   0.636 -1.4136 -0.9614 -0.0296
  972MOL0     H31209   0.606   5.879   0.602  0.0967 -0.0387 -4.8585
  972MOL0     H31210   0.762   6.300   0.533  0.9707 -0.8948  1.6057
  972MOL0     H31211   0.594   6.316   0.483  1.0485  0.1129 -0.4894
  972MOL0     H31212   0.690   6.312   0.763  1.1027 -2.4101 -2.6801
  972MOL0     H31213   0.538   6.386   0.721  0.2551  1.4854  1.2153
  972MOL0     H31214   0.719   6.558   0.587 -0.6042  1.8137  1.9037
  972MOL0     H31215   0.820   6.486   0.721 -0.0928  4.2475  1.6067
  972MOL0     H31216   0.545   6.576   0.783 -0.5269  0.6239 -1.7957
  972MOL0     H31217   0.667   6.708   0.737 -0.5159  0.4984  0.9414
  972MOL0     H31218   0.757   6.546   1.128  1.2187  0.9604  0.3993
  972MOL0     H31219   0.397   6.260   0.617 -3.1417  0.3324 -0.6609
  972MOL0     H31220   0.174   6.121   0.603  0.1676  0.4972 -0.6958
  973MOL0     O31221   9.254   0.596   4.287 -0.3755 -0.5702 -0.4460
  973MOL0     C31222   9.284   0.656   4.393  0.0094  0.7317 -1.0248
  973MOL0     O31223   9.202   0.741   4.453  0.0919  0.4673 -0.5351
  973MOL0     C31224   9.094   0.786   4.384 -0.1503  1.0601 -0.5773
  973MOL0     C31225   8.984   0.692   4.360 -0.1497 -1.0756 -0.2093
  973MOL0     C31226   8.867   0.739   4.300 -0.1430  0.4572  0.4604
  973MOL0     C31227   8.861   0.879   4.266  0.7746 -0.1445  0.7392
  973MOL0     O31228   8.751   0.933   4.204 -0.0304 -0.6298  0.3910
  973MOL0     C31229   8.683   0.856   4.114 -0.1315 -0.0811  0.7880
  973MOL0     C31230   8.581   0.946   4.047  0.6985  0.5826  0.3217
  973MOL0     C31231   8.495   1.025   4.153 -0.1706  0.1291  0.4466
  973MOL0     C31232   8.380   1.105   4.092  0.3617 -0.5218 -0.3510
  973MOL0     C31233   8.248   1.104   4.185  0.1028 -0.5259  0.7589
  973MOL0     C31234   8.142   1.182   4.136  0.3249 -0.6066  0.6516
  973MOL0     C31235   8.034   1.194   4.240  0.1257  0.0067 -0.2598
  973MOL0     C31236   7.898   1.251   4.191  0.0309  0.1393  0.6201
  973MOL0     N31237   7.913   1.392   4.156  0.0605  0.0638  0.7308
  973MOL0     C31238   7.927   1.501   4.241 -0.4060  0.0466 -0.3224
  973MOL0     C31239   7.943   1.611   4.162  0.2089 -0.3584  0.6196
  973MOL0     C31240   7.956   1.755   4.216 -0.0923  0.7106 -0.0147
  973MOL0     C31241   7.834   1.846   4.185  0.2917 -0.0028 -0.2854
  973MOL0     C31242   7.856   1.989   4.237 -0.3198 -0.5683  0.8078
  973MOL0     C31243   7.729   2.069   4.211  0.2393 -0.2096 -0.5315
  973MOL0     O31244   7.744   2.207   4.248 -0.6515  0.0815 -0.3982
  973MOL0     C31245   7.682   2.293   4.163  0.5213 -0.6018 -0.3301
  973MOL0     C31246   7.562   2.351   4.210 -1.1674 -0.7174 -0.1587
  973MOL0     C31247   7.483   2.438   4.135 -0.7251  0.1227 -0.0735
  973MOL0     C31248   7.365   2.498   4.200  0.3432 -0.1273  0.1136
  973MOL0     C31249   7.544   2.495   4.013 -0.1568  0.2219  0.4865
  973MOL0     C31250   7.485   2.602   3.927  0.5158  0.6428  0.7110
  973MOL0     O31251   7.415   2.707   3.986  0.0679 -0.9707  0.3212
  973MOL0     C31252   7.351   2.785   3.894  0.5784 -0.4567 -0.1801
  973MOL0     C31253   7.214   2.777   3.876  0.5212  0.7264 -0.2541
  973MOL0     C31254   7.153   2.877   3.795 -0.3068 -0.0997  1.5320
  973MOL0     C31255   7.217   2.989   3.741  0.0349  0.5179 -0.0933
  973MOL0     O31256   7.151   3.091   3.676  0.4607  0.0117 -0.1905
  973MOL0     C31257   7.183   3.128   3.544 -0.0182 -0.4349 -0.5817
  973MOL0     C31258   7.156   3.006   3.452 -0.4782  0.2508 -0.5708
  973MOL0     C31259   7.014   2.948   3.447  0.1254  0.2932 -0.7488
  973MOL0     C31260   6.910   3.054   3.393 -0.1448 -0.0966 -0.7193
  973MOL0     C31261   6.786   3.059   3.482 -0.6090 -0.6567  0.7397
  973MOL0     C31262   6.814   3.106   3.626  0.1389 -0.3395 -1.2577
  973MOL0     C31263   6.680   3.134   3.703 -0.0006  0.2446  0.7303
  973MOL0     C31264   6.707   3.244   3.807 -0.0595  0.0891  1.3465
  973MOL0    Cl31265   6.769   3.166   3.950  0.2176  0.9763  0.1841
  973MOL0     C31266   7.352   2.991   3.756 -0.3434  0.4018 -0.2246
  973MOL0     C31267   7.416   2.891   3.838 -0.2333  0.1977  0.2058
  973MOL0     O31268   7.502   2.586   3.807  0.8859 -0.7009 -0.0821
  973MOL0     C31269   7.677   2.444   3.979 -0.2763 -0.0483 -0.7994
  973MOL0     C31270   7.739   2.346   4.052 -0.6627 -1.0370 -0.6132
  973MOL0     N31271   7.933   1.569   4.031 -0.0217 -0.2584 -0.2659
  973MOL0     N31272   7.926   1.438   4.029  0.6901  0.2539 -0.2289
  973MOL0     C31273   8.964   0.965   4.294  0.6220  0.1030  0.8157
  973MOL0     C31274   9.083   0.918   4.346 -0.0620 -0.5903 -0.2797
  973MOL0     C31275   9.405   0.610   4.463  1.1104  0.1389 -0.1918
  973MOL0     C31276   9.482   0.500   4.420 -1.1562  0.4549 -0.3414
  973MOL0     C31277   9.600   0.469   4.495 -0.1545 -0.0618  0.9859
  973MOL0     C31278   9.651   0.543   4.598 -0.5846 -0.4455  0.2399
  973MOL0     O31279   9.756   0.508   4.683  0.7986  0.6012 -0.3455
  973MOL0     C31280   9.868   0.432   4.636 -0.5037  0.8173 -0.2629
  973MOL0     C31281   9.999   0.495   4.663  0.0213  0.3873 -0.0217
  973MOL0     C31282  10.001   0.585   4.791 -0.1833 -0.2937  0.4757
  973MOL0     C31283  10.144   0.636   4.814 -0.6761  0.5211  0.3850
  973MOL0     C31284  10.163   0.753   4.720 -0.4210  0.3458  0.7115
  973MOL0     C31285  10.165   0.840   4.636  0.1028 -0.3766 -0.3222
  973MOL0     C31286   9.583   0.661   4.622  1.0718 -0.3455 -0.1922
  973MOL0     C31287   9.459   0.692   4.556 -0.0032 -0.1248 -0.4286
  973MOL0     H31288   8.967   0.591   4.396 -5.8535 -1.0011 -1.8022
  973MOL0     H31289   8.783   0.676   4.274  0.2139  0.1619  0.0236
  973MOL0     H31290   8.753   0.836   4.032 -2.1212 -0.4457 -0.8890
  973MOL0     H31291   8.629   0.768   4.150 -5.8617  1.7035 -2.1519
  973MOL0     H31292   8.629   1.024   3.986 -0.1950  1.1646  0.3452
  973MOL0     H31293   8.522   0.883   3.980  1.7296 -0.2351  0.1469
  973MOL0     H31294   8.459   0.948   4.222  2.7292 -1.8985 -0.1348
  973MOL0     H31295   8.565   1.086   4.210  0.4188  0.1600 -0.2892
  973MOL0     H31296   8.404   1.212   4.092 -0.2995 -0.3390  1.2341
  973MOL0     H31297   8.357   1.083   3.988  1.6792  1.3397 -1.0989
  973MOL0     H31298   8.209   1.002   4.190  2.3225 -1.5123 -0.4469
  973MOL0     H31299   8.285   1.138   4.283  1.7036 -1.8508  0.6674
  973MOL0     H31300   8.168   1.288   4.119 -1.8181 -0.0023  0.8827
  973MOL0     H31301   8.103   1.128   4.050 -2.8460  0.9770  0.9366
  973MOL0     H31302   8.013   1.093   4.276  0.3577 -0.4893 -1.4826
  973MOL0     H31303   8.077   1.254   4.322  0.0309 -0.5022  0.1675
  973MOL0     H31304   7.832   1.250   4.278  0.4319  1.6542  0.9761
  973MOL0     H31305   7.857   1.197   4.106 -0.4722  1.8013 -0.2341
  973MOL0     H31306   7.930   1.496   4.350  0.5002  0.6611 -0.3100
  973MOL0     H31307   7.978   1.743   4.322  0.9265 -2.3939 -0.4764
  973MOL0     H31308   8.051   1.795   4.179  0.7406 -0.1325  1.1780
  973MOL0     H31309   7.759   1.801   4.251 -3.5298  1.3257 -3.3497
  973MOL0     H31310   7.810   1.843   4.078  3.9076  0.0494 -1.2292
  973MOL0     H31311   7.928   2.040   4.173 -1.9271  0.5553 -0.1753
  973MOL0     H31312   7.902   1.981   4.336  2.5119 -2.4760 -0.5338
  973MOL0     H31313   7.659   2.025   4.282  0.2789  0.4613 -0.0654
  973MOL0     H31314   7.696   2.055   4.108 -3.9173 -2.9829  0.9506
  973MOL0     H31315   7.523   2.320   4.307 -0.0826 -1.1935  0.1323
  973MOL0     H31316   7.282   2.512   4.130  1.3561 -0.7603 -1.2685
  973MOL0     H31317   7.333   2.448   4.292 -0.3652  2.7087  1.5042
  973MOL0     H31318   7.394   2.598   4.234  3.1479 -1.3328  1.5723
  973MOL0     H31319   7.170   2.689   3.922  2.3657  0.2520  0.7195
  973MOL0     H31320   7.050   2.864   3.764 -0.0762 -2.1549  1.4663
  973MOL0     H31321   7.141   3.221   3.505 -5.2330 -2.1401  0.2515
  973MOL0     H31322   7.290   3.150   3.554 -0.2778 -0.2641  3.1861
  973MOL0     H31323   7.194   3.024   3.351 -1.6598 -2.3643 -1.5741
  973MOL0     H31324   7.217   2.926   3.492  1.3990  2.9721  2.5155
  973MOL0     H31325   6.986   2.922   3.549 -0.0858  3.6076  0.1321
  973MOL0     H31326   7.005   2.858   3.385  0.8974 -0.3214  0.0009
  973MOL0     H31327   6.970   3.146   3.400 -0.2817 -0.0853  0.5897
  973MOL0     H31328   6.879   3.043   3.289  1.7026  0.9358 -1.4505
  973MOL0     H31329   6.744   2.958   3.476  0.6428 -1.1196 -1.2912
  973MOL0     H31330   6.712   3.119   3.429 -2.5403 -2.0970  1.6660
  973MOL0     H31331   6.873   3.024   3.669  0.9676 -1.5386 -4.4443
  973MOL0     H31332   6.871   3.199   3.629  2.6212 -1.7381  2.3028
  973MOL0     H31333   6.651   3.043   3.756  1.4440  0.8303  2.6528
  973MOL0     H31334   6.608   3.177   3.633  1.7606  0.8601 -0.7950
  973MOL0     H31335   6.621   3.304   3.838  1.2735  3.2030 -0.4845
  973MOL0     H31336   6.762   3.329   3.766 -1.3081  0.6606  0.7906
  973MOL0     H31337   7.421   3.068   3.722  0.6619 -1.0127 -1.5255
  973MOL0     H31338   7.522   2.906   3.857 -0.6737  3.3004  0.6237
  973MOL0     H31339   7.737   2.488   3.899 -0.8079  2.3956  0.0399
  973MOL0     H31340   7.843   2.322   4.029 -0.5417 -1.0942 -0.0298
  973MOL0     H31341   8.958   1.070   4.267  3.8756  0.1267 -0.1872
  973MOL0     H31342   9.159   0.990   4.373 -1.5583  0.3259  1.7715
  973MOL0     H31343   9.444   0.442   4.337 -3.4536  0.4162  0.6717
  973MOL0     H31344   9.659   0.381   4.468  1.5537  1.2154  0.3862
  973MOL0     H31345   9.873   0.340   4.694 -1.5266  0.7100 -0.3284
  973MOL0     H31346   9.854   0.414   4.529  0.5394 -0.9508 -0.1382
  973MOL0     H31347  10.022   0.560   4.578 -0.2896  1.5311  0.7462
  973MOL0     H31348  10.082   0.425   4.664  0.3351  0.6066 -3.0349
  973MOL0     H31349   9.970   0.525   4.877 -2.6108  1.0988  0.6606
  973MOL0     H31350   9.929   0.666   4.776 -1.3989 -0.8916  2.6591
  973MOL0     H31351  10.217   0.555   4.821 -3.0355 -1.6104  5.6208
  973MOL0     H31352  10.154   0.674   4.916 -0.1811  0.2274  0.4524
  973MOL0     H31353  10.159   0.928   4.574  0.2492 -0.3118 -0.2450
  973MOL0     H31354   9.624   0.727   4.698  0.3039 -0.4728  0.3489
  973MOL0     H31355   9.399   0.775   4.591  0.8213 -0.1121  1.0405
  974MOL0     O31356   4.096   5.873  10.127 -0.2113 -0.0784 -0.4492
  974MOL0     C31357   4.029   5.952  10.192 -1.4981 -0.9118 -0.1486
  974MOL0     O31358   4.019   6.088  10.163  0.4548 -0.1493 -0.2388
  974MOL0     C31359   4.049   6.135  10.045  0.8685 -0.0560 -0.0514
  974MOL0     C31360   4.182   6.140   9.994 -0.6589  0.5183  0.1101
  974MOL0     C31361   4.210   6.183   9.859 -0.0489  0.4617  0.0780
  974MOL0     C31362   4.100   6.226   9.777 -0.2984 -0.2787  0.0249
  974MOL0     O31363   4.103   6.271   9.642 -0.0641  0.5526 -0.5574
  974MOL0     C31364   4.232   6.309   9.587 -0.6385 -0.1997 -0.6176
  974MOL0     C31365   4.314   6.420   9.659  0.4087 -0.1957 -0.2887
  974MOL0     C31366   4.432   6.468   9.575 -0.0331  0.2385  0.8784
  974MOL0     C31367   4.494   6.604   9.615  0.2405  0.2285 -0.1441
  974MOL0     C31368   4.625   6.641   9.546 -1.0981 -0.2639  0.5716
  974MOL0     C31369   4.602   6.637   9.393 -0.0605 -0.9655 -0.3425
  974MOL0     C31370   4.732   6.684   9.311 -0.1341  0.2900 -0.0288
  974MOL0     C31371   4.829   6.772   9.395 -0.8664 -0.4250  0.4940
  974MOL0     N31372   4.951   6.805   9.319  0.1317 -0.2053 -0.5157
  974MOL0     C31373   4.968   6.918   9.238  0.1154  0.2194 -0.8481
  974MOL0     C31374   5.075   6.883   9.162  0.2567  0.8234  0.8268
  974MOL0     C31375   5.144   6.961   9.060  0.0027  0.0279 -0.1969
  974MOL0     C31376   5.279   7.027   9.105  0.3755  0.4415 -0.6470
  974MOL0     C31377   5.357   7.123   9.013  0.0886 -0.6012 -0.0239
  974MOL0     C31378   5.274   7.256   9.000  0.3526 -0.6374  0.4547
  974MOL0     O31379   5.226   7.316   9.122 -0.6347 -0.4676  0.4705
  974MOL0     C31380   5.134   7.414   9.104  0.1266 -1.2006 -0.7114
  974MOL0     C31381   5.127   7.502   9.205 -0.8167  0.6505 -0.2597
  974MOL0     C31382   5.047   7.612   9.203  0.4193 -0.0100 -0.0985
  974MOL0     C31383   5.062   7.712   9.319  0.1516 -0.6018 -0.2211
  974MOL0     C31384   4.954   7.631   9.089 -0.3998  0.2102  0.1423
  974MOL0     C31385   4.858   7.745   9.059  0.4369  0.0505  0.6442
  974MOL0     O31386   4.788   7.743   8.939 -0.3631  0.3569 -0.3179
  974MOL0     C31387   4.731   7.859   8.891 -0.1267  0.1802  0.4849
  974MOL0     C31388   4.623   7.839   8.808 -0.0862  0.2866  0.8394
  974MOL0     C31389   4.572   7.948   8.748  0.7186  0.9334 -0.0962
  974MOL0     C31390   4.629   8.072   8.749  0.8344  0.1133  0.1043
  974MOL0     O31391   4.584   8.167   8.660 -0.5414 -0.1559 -1.0673
  974MOL0     C31392   4.455   8.219   8.697  0.2230  1.6210  0.1539
  974MOL0     C31393   4.449   8.304   8.827 -0.3718  0.2984 -0.1824
  974MOL0     C31394   4.533   8.437   8.805 -0.7158  0.3901 -0.0634
  974MOL0     C31395   4.544   8.542   8.921  0.2007  0.1300 -0.4133
  974MOL0     C31396   4.409   8.589   8.977  0.3370 -1.0248 -0.1525
  974MOL0     C31397   4.425   8.714   9.055 -0.1593  0.1638  0.4622
  974MOL0     C31398   4.302   8.728   9.138  0.4319  0.8005 -0.3798
  974MOL0     C31399   4.306   8.854   9.221 -0.3323 -0.7914  0.4440
  974MOL0    Cl31400   4.175   8.868   9.333  0.1899 -0.2178  0.2003
  974MOL0     C31401   4.744   8.102   8.822 -0.1541 -0.0486  0.4333
  974MOL0     C31402   4.782   7.994   8.907 -1.2556 -0.1588 -0.0449
  974MOL0     O31403   4.840   7.825   9.149  0.1896  0.3723  0.6898
  974MOL0     C31404   4.961   7.543   8.982  0.0115  0.7108 -0.4598
  974MOL0     C31405   5.048   7.429   8.992 -0.6516  0.4876 -0.2142
  974MOL0     N31406   5.123   6.758   9.213 -0.7193 -0.3083  0.6471
  974MOL0     N31407   5.052   6.718   9.306 -0.1373  0.2780 -0.3315
  974MOL0     C31408   3.972   6.228   9.839 -0.4427 -0.5266  0.7804
  974MOL0     C31409   3.948   6.176   9.964 -0.1335 -0.8969  0.5989
  974MOL0     C31410   3.949   5.905  10.309  0.6704  0.0764 -0.8051
  974MOL0     C31411   3.859   6.001  10.371  0.8175  0.2004  0.3202
  974MOL0     C31412   3.776   5.953  10.475 -0.0825 -0.1627  0.5373
  974MOL0     C31413   3.769   5.822  10.512 -0.5959 -1.0758 -0.4960
  974MOL0     O31414   3.673   5.783  10.603  0.6370  0.2795 -0.2383
  974MOL0     C31415   3.690   5.668  10.681  0.0574 -0.8644  0.1843
  974MOL0     C31416   3.759   5.684  10.816  0.8368 -0.5668 -0.8771
  974MOL0     C31417   3.702   5.778  10.918 -0.1690 -0.2662 -0.1905
  974MOL0     C31418   3.769   5.790  11.052 -1.5593 -0.2178  0.0999
  974MOL0     C31419   3.892   5.873  11.048 -0.3474 -0.1785  0.3108
  974MOL0     C31420   4.002   5.926  11.043  1.7970  0.0551  1.2660
  974MOL0     C31421   3.844   5.734  10.442  1.1469 -0.5441 -0.5927
  974MOL0     C31422   3.943   5.771  10.355 -0.3517 -0.5242  0.4920
  974MOL0     H31423   4.267   6.099  10.047 -0.6366 -0.5038 -0.6868
  974MOL0     H31424   4.312   6.172   9.824 -0.8754 -3.9328 -1.5279
  974MOL0     H31425   4.295   6.220   9.579  2.1342  1.4684  1.1959
  974MOL0     H31426   4.201   6.349   9.490 -2.6223  0.5138  0.2541
  974MOL0     H31427   4.244   6.499   9.686 -1.4113 -2.3989  1.8796
  974MOL0     H31428   4.364   6.380   9.747  2.2960  1.0455 -0.7444
  974MOL0     H31429   4.509   6.391   9.571 -1.2456 -1.0265  1.1117
  974MOL0     H31430   4.391   6.461   9.474 -1.0112 -0.6327  1.3246
  974MOL0     H31431   4.422   6.683   9.597  2.2560  1.7342 -2.1116
  974MOL0     H31432   4.522   6.590   9.720  2.0087 -0.4285 -0.6582
  974MOL0     H31433   4.661   6.739   9.578  3.1408 -0.5269 -2.5224
  974MOL0     H31434   4.699   6.566   9.573  1.2555  1.2873 -1.1302
  974MOL0     H31435   4.576   6.536   9.360 -0.2487 -0.9586 -0.2142
  974MOL0     H31436   4.511   6.693   9.370  1.2515  0.3858 -2.5975
  974MOL0     H31437   4.770   6.588   9.275 -0.1405 -0.4372  1.7563
  974MOL0     H31438   4.713   6.748   9.225  5.1949  0.5174 -1.3626
  974MOL0     H31439   4.864   6.717   9.483  0.9644 -1.7987 -1.0035
  974MOL0     H31440   4.780   6.865   9.426 -0.2697 -0.5063  1.7427
  974MOL0     H31441   4.903   7.004   9.224  0.5289  0.5644 -0.6842
  974MOL0     H31442   5.179   6.894   8.981  3.7890  0.7144  0.6912
  974MOL0     H31443   5.072   7.037   9.029  3.5858  3.4936 -0.8596
  974MOL0     H31444   5.344   6.940   9.115 -4.1505 -3.3051 -0.1387
  974MOL0     H31445   5.256   7.064   9.206  3.5204 -2.9292  1.5619
  974MOL0     H31446   5.383   7.078   8.917 -1.8078 -0.7277 -0.5079
  974MOL0     H31447   5.445   7.148   9.072 -1.3015  1.2570  1.3753
  974MOL0     H31448   5.187   7.228   8.939  1.4600 -0.5953 -1.2283
  974MOL0     H31449   5.332   7.336   8.953 -0.7763  0.3686  0.7215
  974MOL0     H31450   5.199   7.490   9.285  0.2447 -1.4750 -1.4631
  974MOL0     H31451   5.126   7.671   9.398  0.8900 -0.2806 -0.6363
  974MOL0     H31452   5.113   7.804   9.288 -2.9317  1.0620 -0.7443
  974MOL0     H31453   4.962   7.738   9.354 -0.5978 -0.3662 -2.3649
  974MOL0     H31454   4.589   7.738   8.791  3.8834 -0.8931 -1.4499
  974MOL0     H31455   4.500   7.920   8.673  0.6548 -2.2800  0.9729
  974MOL0     H31456   4.415   8.276   8.613  0.8411  0.2845 -1.0885
  974MOL0     H31457   4.389   8.133   8.707 -0.2958  2.0208  0.1845
  974MOL0     H31458   4.345   8.328   8.850  0.1285  0.5421  2.0989
  974MOL0     H31459   4.504   8.255   8.908  3.4189  1.3152 -1.8982
  974MOL0     H31460   4.494   8.496   8.721 -0.1385 -1.2096 -1.5353
  974MOL0     H31461   4.635   8.405   8.779 -1.3952 -2.2708  0.2232
  974MOL0     H31462   4.602   8.490   8.998 -0.7570 -3.0677 -1.6881
  974MOL0     H31463   4.606   8.628   8.895 -0.7069  0.4697 -1.5459
  974MOL0     H31464   4.371   8.512   9.045  0.4704 -1.0981 -0.1607
  974MOL0     H31465   4.343   8.618   8.895  0.0098  0.8398  0.7186
  974MOL0     H31466   4.504   8.695   9.129 -0.4977  0.9294  1.0311
  974MOL0     H31467   4.463   8.801   9.001  1.5698  1.3291  3.2714
  974MOL0     H31468   4.300   8.640   9.203 -0.6336  0.8830 -0.2797
  974MOL0     H31469   4.207   8.723   9.084  0.8977 -1.4091 -1.0784
  974MOL0     H31470   4.310   8.945   9.160  1.1687 -0.1662  1.4172
  974MOL0     H31471   4.400   8.856   9.277 -0.4346  1.9899  0.6717
  974MOL0     H31472   4.793   8.199   8.814 -2.7982  1.5236  2.0300
  974MOL0     H31473   4.866   8.023   8.970 -0.9281 -0.1771 -0.4665
  974MOL0     H31474   4.890   7.541   8.900 -1.4118 -0.6836  0.7456
  974MOL0     H31475   5.040   7.353   8.915 -0.7350  3.0492 -2.9325
  974MOL0     H31476   3.883   6.259   9.786 -1.0489 -4.4109 -0.7971
  974MOL0     H31477   3.845   6.188   9.998 -0.9614  2.1883 -2.3536
  974MOL0     H31478   3.850   6.102  10.330 -1.1417 -0.2359 -0.4747
  974MOL0     H31479   3.701   6.024  10.508 -1.1185 -0.9867  0.0460
  974MOL0     H31480   3.586   5.642  10.700 -0.7474 -0.0592 -2.6198
  974MOL0     H31481   3.738   5.586  10.625 -2.2207 -1.2381 -1.3542
  974MOL0     H31482   3.861   5.721  10.803  0.2993  1.5452  0.3311
  974MOL0     H31483   3.768   5.581  10.851  1.2503  0.1208  1.2103
  974MOL0     H31484   3.604   5.733  10.937  0.7308 -2.1223  0.2864
  974MOL0     H31485   3.696   5.874  10.866  4.4283 -1.2180 -3.1122
  974MOL0     H31486   3.792   5.692  11.094 -1.8650 -0.1437  0.4483
  974MOL0     H31487   3.698   5.843  11.117  1.0699  3.6019  0.1762
  974MOL0     H31488   4.094   5.981  11.042  3.2670 -2.0516 -3.0157
  974MOL0     H31489   3.846   5.627  10.459 -1.0569 -0.1534  3.1073
  974MOL0     H31490   4.020   5.703  10.319 -1.4156  0.0947 -3.4522
  975MOL0     O31491   3.830   4.171   2.695  1.1383 -0.0415  0.1345
  975MOL0     C31492   3.892   4.271   2.697 -0.3095 -0.2731  0.1897
  975MOL0     O31493   4.024   4.274   2.707  0.6067 -0.7155 -0.8388
  975MOL0     C31494   4.092   4.160   2.716 -0.7858  0.7838 -0.0629
  975MOL0     C31495   4.112   4.087   2.839  0.9113 -0.1464 -0.7434
  975MOL0     C31496   4.191   3.968   2.841 -0.5247 -0.5627  0.2959
  975MOL0     C31497   4.255   3.926   2.730 -0.0002 -0.1173 -0.0063
  975MOL0     O31498   4.330   3.811   2.723 -0.4419 -0.5962 -0.7468
  975MOL0     C31499   4.304   3.699   2.809 -0.7306 -0.3873  0.2462
  975MOL0     C31500   4.402   3.592   2.765 -0.6448  0.8742  0.5774
  975MOL0     C31501   4.398   3.463   2.854 -0.3196  0.7476 -0.2982
  975MOL0     C31502   4.389   3.324   2.788  0.4119  0.2188 -0.1180
  975MOL0     C31503   4.511   3.275   2.711  0.0362  0.5668 -0.2092
  975MOL0     C31504   4.632   3.261   2.802  0.1838 -0.0942  0.7937
  975MOL0     C31505   4.743   3.188   2.739  0.0216  0.3521  0.8221
  975MOL0     C31506   4.859   3.163   2.842  0.2469  0.3480 -0.5059
  975MOL0     N31507   4.927   3.286   2.876 -0.2644 -0.2029 -0.5395
  975MOL0     C31508   4.999   3.350   2.785 -0.3165  0.5984 -0.3145
  975MOL0     C31509   5.048   3.463   2.841 -0.1358  0.5860 -0.0967
  975MOL0     C31510   5.122   3.571   2.768  0.4120 -1.0405 -0.1072
  975MOL0     C31511   5.106   3.584   2.613 -0.1255  0.0785  0.2947
  975MOL0     C31512   5.174   3.698   2.544 -0.3061 -0.0366  0.0781
  975MOL0     C31513   5.156   3.698   2.389  0.0969 -0.4396 -0.2028
  975MOL0     O31514   5.189   3.576   2.319  0.3419  0.0764  0.5478
  975MOL0     C31515   5.293   3.559   2.236 -0.3375  0.3097 -0.7172
  975MOL0     C31516   5.409   3.636   2.232  0.6930 -0.8102  0.0518
  975MOL0     C31517   5.518   3.603   2.139 -0.1215  0.0208 -0.5182
  975MOL0     C31518   5.638   3.703   2.123  0.4212 -0.8970  0.2385
  975MOL0     C31519   5.497   3.499   2.055  0.0155 -0.2702  0.5169
  975MOL0     C31520   5.600   3.468   1.950 -0.0510  0.0997  0.8852
  975MOL0     O31521   5.714   3.414   1.985  0.0497  0.4974  0.0159
  975MOL0     C31522   5.816   3.377   1.907  0.3490 -0.7261  0.6362
  975MOL0     C31523   5.826   3.384   1.763  0.1081 -0.0333 -0.3940
  975MOL0     C31524   5.928   3.320   1.700 -0.6553 -0.6583 -0.0727
  975MOL0     C31525   6.024   3.233   1.766  0.5664  0.5888  0.4387
  975MOL0     O31526   6.105   3.145   1.700 -0.1917 -0.5047  0.0675
  975MOL0     C31527   6.214   3.206   1.634  0.7224 -0.4966 -0.0566
  975MOL0     C31528   6.225   3.190   1.474  0.8630  0.5799  0.7588
  975MOL0     C31529   6.299   3.056   1.447  0.7483  0.4666 -0.7997
  975MOL0     C31530   6.316   3.040   1.297  0.0775  0.1702  0.5343
  975MOL0     C31531   6.447   2.966   1.258  0.1657  0.3446  0.2908
  975MOL0     C31532   6.432   2.809   1.283 -0.8063  0.0627  0.2796
  975MOL0     C31533   6.561   2.731   1.248  0.3925 -0.2877  0.0092
  975MOL0     C31534   6.539   2.581   1.277  0.5997  0.2993 -1.0482
  975MOL0    Cl31535   6.667   2.478   1.223 -0.1176 -0.1785  0.1395
  975MOL0     C31536   6.015   3.217   1.905  0.3772 -0.6854 -0.3598
  975MOL0     C31537   5.908   3.288   1.970 -0.0760 -0.3863  0.5038
  975MOL0     O31538   5.550   3.481   1.842  0.1191  0.0227 -0.2137
  975MOL0     C31539   5.377   3.420   2.058  0.0124  0.7472  0.9786
  975MOL0     C31540   5.278   3.453   2.148 -0.3121  0.7012 -0.2139
  975MOL0     N31541   4.997   3.464   2.970 -0.3728 -0.0713 -0.0885
  975MOL0     N31542   4.922   3.361   2.990 -0.2826 -0.4033 -0.1517
  975MOL0     C31543   4.234   3.999   2.607  0.6150 -0.3673 -0.0390
  975MOL0     C31544   4.153   4.112   2.604  0.6963  0.0045 -0.0534
  975MOL0     C31545   3.820   4.394   2.699  0.7174 -0.4772  0.4204
  975MOL0     C31546   3.889   4.520   2.671 -0.2246  0.8714 -0.3611
  975MOL0     C31547   3.816   4.642   2.666  0.2409 -0.9174 -0.1721
  975MOL0     C31548   3.674   4.640   2.664 -0.4650 -0.1028  0.3267
  975MOL0     O31549   3.600   4.758   2.644 -0.6421  0.7368 -0.9541
  975MOL0     C31550   3.658   4.897   2.677  0.0503  0.6788  0.2384
  975MOL0     C31551   3.555   5.008   2.650 -0.7694 -0.3763 -0.2739
  975MOL0     C31552   3.507   4.992   2.508  0.0728 -0.0086  0.4962
  975MOL0     C31553   3.586   5.056   2.389  0.2205  0.3981 -0.3604
  975MOL0     C31554   3.718   4.994   2.360  0.5212  0.5080 -0.3577
  975MOL0     C31555   3.826   4.939   2.341  0.0393  0.1995  0.4440
  975MOL0     C31556   3.613   4.516   2.682 -0.0644 -0.6513 -0.0995
  975MOL0     C31557   3.679   4.398   2.699 -0.1923 -0.1044 -0.7652
  975MOL0     H31558   4.086   4.119   2.939  6.1460  0.9981  0.5685
  975MOL0     H31559   4.197   3.920   2.938  0.0416 -1.2633 -0.0751
  975MOL0     H31560   4.319   3.736   2.911  4.9805  0.6712 -0.6271
  975MOL0     H31561   4.206   3.650   2.818 -0.6039 -0.3085  3.3984
  975MOL0     H31562   4.374   3.575   2.661  1.2195 -1.0915  0.3176
  975MOL0     H31563   4.504   3.628   2.747 -1.8215  3.0089 -2.6481
  975MOL0     H31564   4.492   3.461   2.911 -1.4406 -1.4170  1.6538
  975MOL0     H31565   4.326   3.477   2.935 -0.0781  1.1285 -0.1489
  975MOL0     H31566   4.366   3.256   2.871 -2.4982 -1.9810 -2.4682
  975MOL0     H31567   4.303   3.321   2.720 -0.6572 -1.1636  1.2406
  975MOL0     H31568   4.483   3.180   2.666  1.3824 -0.1453  0.3744
  975MOL0     H31569   4.533   3.350   2.635 -0.3360  0.5405 -0.3451
  975MOL0     H31570   4.673   3.355   2.838 -1.4908  0.6231  0.9327
  975MOL0     H31571   4.603   3.202   2.890  3.5040  1.0356  2.7870
  975MOL0     H31572   4.710   3.086   2.716 -1.3505  0.6966  1.1646
  975MOL0     H31573   4.781   3.252   2.659  3.1722  1.3011  2.9237
  975MOL0     H31574   4.930   3.094   2.795 -0.5153  0.2342 -1.5263
  975MOL0     H31575   4.826   3.121   2.937  2.0082  0.6421  0.2835
  975MOL0     H31576   5.020   3.321   2.682  1.5081 -0.7958  0.3879
  975MOL0     H31577   5.097   3.669   2.810 -0.8010 -0.7736 -1.3901
  975MOL0     H31578   5.229   3.555   2.779  0.9348  0.4919 -2.4056
  975MOL0     H31579   5.002   3.609   2.591 -0.2445 -1.6443 -1.3646
  975MOL0     H31580   5.125   3.483   2.575 -0.0224 -0.9056  2.7548
  975MOL0     H31581   5.280   3.682   2.565  0.0736 -0.7181 -2.0187
  975MOL0     H31582   5.140   3.797   2.576  0.1273  1.7909 -4.3901
  975MOL0     H31583   5.221   3.779   2.357 -1.0307  0.8093  0.5849
  975MOL0     H31584   5.060   3.744   2.367  0.2004  0.0094  0.2648
  975MOL0     H31585   5.412   3.728   2.290  1.6445 -2.1424  2.2531
  975MOL0     H31586   5.633   3.765   2.034  5.0710 -0.0190  0.3435
  975MOL0     H31587   5.641   3.771   2.209  2.0572 -0.2172 -0.3301
  975MOL0     H31588   5.729   3.644   2.131 -0.1108 -2.0931 -1.8042
  975MOL0     H31589   5.747   3.431   1.705 -1.9371 -2.1465  0.5363
  975MOL0     H31590   5.934   3.309   1.592 -0.4934  2.6028 -0.4836
  975MOL0     H31591   6.228   3.305   1.677 -0.7904 -0.6814  0.9188
  975MOL0     H31592   6.297   3.148   1.675  0.2825  0.0801  1.7137
  975MOL0     H31593   6.123   3.193   1.434  0.9003 -1.3015  0.4027
  975MOL0     H31594   6.289   3.265   1.427  0.7236 -1.5272 -3.2342
  975MOL0     H31595   6.227   2.984   1.489 -0.1078  2.7325  1.9956
  975MOL0     H31596   6.385   3.050   1.515 -0.8127 -0.0438  1.2642
  975MOL0     H31597   6.234   2.978   1.261 -0.7433  1.0438  0.8473
  975MOL0     H31598   6.305   3.140   1.254  0.3701  0.8116  1.8998
  975MOL0     H31599   6.535   2.998   1.315 -1.4376  0.8764  2.6095
  975MOL0     H31600   6.463   2.995   1.154 -0.2092  0.6309  0.3095
  975MOL0     H31601   6.405   2.773   1.383 -2.5628 -1.0544 -0.5369
  975MOL0     H31602   6.357   2.777   1.210 -0.6144 -2.3885  1.0679
  975MOL0     H31603   6.654   2.774   1.285  0.3285  1.7197 -1.9047
  975MOL0     H31604   6.561   2.733   1.138 -2.1861 -0.1667 -0.0535
  975MOL0     H31605   6.446   2.532   1.247  0.1246  0.8278 -0.4700
  975MOL0     H31606   6.543   2.572   1.387 -0.5966 -2.1665 -1.1243
  975MOL0     H31607   6.097   3.162   1.949  3.9870  4.0875 -0.2476
  975MOL0     H31608   5.891   3.264   2.074 -1.3229 -0.7553  0.2364
  975MOL0     H31609   5.363   3.345   1.981  0.0882  1.0948  0.6224
  975MOL0     H31610   5.183   3.400   2.149 -0.4909  0.8661 -2.5718
  975MOL0     H31611   4.291   3.971   2.519  1.2106  0.9146 -0.0772
  975MOL0     H31612   4.126   4.162   2.512 -1.7739  1.0890  1.1754
  975MOL0     H31613   3.997   4.523   2.669  0.3090 -1.3075  5.6307
  975MOL0     H31614   3.874   4.729   2.641  1.5524 -1.7060  0.0156
  975MOL0     H31615   3.688   4.894   2.782 -0.3165  1.3942  0.3677
  975MOL0     H31616   3.751   4.922   2.624  0.8157 -0.3521  1.0381
  975MOL0     H31617   3.607   5.101   2.670 -0.4068 -1.0518  2.2564
  975MOL0     H31618   3.473   5.007   2.722  1.6469  0.1754  2.6829
  975MOL0     H31619   3.405   5.031   2.513  0.5298  1.1404  3.7092
  975MOL0     H31620   3.497   4.886   2.486  3.0211 -0.0204 -1.4267
  975MOL0     H31621   3.607   5.163   2.405  0.2191  0.1816  1.3236
  975MOL0     H31622   3.518   5.049   2.304 -0.0263  1.1883 -0.2385
  975MOL0     H31623   3.916   4.886   2.315 -1.2036 -1.0621 -1.4985
  975MOL0     H31624   3.505   4.512   2.691  0.0190 -0.0149  1.6233
  975MOL0     H31625   3.635   4.300   2.714 -0.5145  0.0992 -0.3853
  976MOL0     O31626   1.788   0.472  10.837  0.1466  0.4058  0.5118
  976MOL0     C31627   1.816   0.434  10.728 -0.1899 -0.7500 -0.2216
  976MOL0     O31628   1.746   0.456  10.611 -0.1212 -0.3454 -1.0146
  976MOL0     C31629   1.638   0.541  10.616 -0.2632  0.1989 -0.2345
  976MOL0     C31630   1.527   0.506  10.547  1.8985 -0.0471  0.5190
  976MOL0     C31631   1.417   0.595  10.546 -0.2899 -0.0699  0.5985
  976MOL0     C31632   1.433   0.721  10.600  0.5997  0.1442  0.0973
  976MOL0     O31633   1.332   0.811  10.606 -1.0472 -0.3811  0.0762
  976MOL0     C31634   1.227   0.819  10.502 -0.3022 -0.7708 -0.1143
  976MOL0     C31635   1.112   0.903  10.539  0.2707 -0.1993  0.0224
  976MOL0     C31636   1.019   0.938  10.419 -0.2103 -0.1530 -0.9135
  976MOL0     C31637   0.913   1.048  10.460 -0.8911  0.7444 -0.0545
  976MOL0     C31638   0.798   0.997  10.540  0.6382 -0.8956  0.1769
  976MOL0     C31639   0.681   1.094  10.547  0.7226  0.7960 -0.0675
  976MOL0     C31640   0.549   1.032  10.522  0.2167  0.5072 -0.1880
  976MOL0     C31641   0.533   1.014  10.369 -0.2117 -0.2056 -0.2560
  976MOL0     N31642   0.499   0.878  10.343  1.7122 -0.7423 -0.0388
  976MOL0     C31643   0.370   0.828  10.310 -0.2735  0.5945  0.0020
  976MOL0     C31644   0.380   0.692  10.325 -0.1957  0.0510 -0.0610
  976MOL0     C31645   0.271   0.601  10.287  0.0831  0.2229 -0.1701
  976MOL0     C31646   0.156   0.599  10.387  0.7767  0.7117 -0.8750
  976MOL0     C31647   0.034   0.534  10.312 -1.0655  0.6675  0.1169
  976MOL0     C31648  -0.089   0.525  10.411  0.3403 -0.6781 -0.8683
  976MOL0     O31649  -0.217   0.504  10.350 -0.7826 -0.0407 -0.3550
  976MOL0     C31650  -0.281   0.389  10.387  0.8632 -0.0985  0.1657
  976MOL0     C31651  -0.230   0.260  10.382  0.7950  0.5134  0.4026
  976MOL0     C31652  -0.309   0.149  10.426 -1.0640 -0.8129 -0.8928
  976MOL0     C31653  -0.231   0.014  10.423 -0.1257  0.1172 -0.7746
  976MOL0     C31654  -0.434   0.167  10.496 -0.5781  0.1324 -0.1296
  976MOL0     C31655  -0.523   0.051  10.542 -0.0514  0.3163 -0.5663
  976MOL0     O31656  -0.587   0.075  10.667 -0.0646 -0.1488 -0.8736
  976MOL0     C31657  -0.591  -0.023  10.751  0.5841  0.1991  0.0779
  976MOL0     C31658  -0.495  -0.022  10.848  0.3783 -0.3888 -0.3603
  976MOL0     C31659  -0.502  -0.115  10.947 -0.5728 -0.1315  0.1465
  976MOL0     C31660  -0.610  -0.210  10.959 -0.1083  0.2203 -0.0327
  976MOL0     O31661  -0.620  -0.310  11.052 -0.3917  0.4343 -0.2635
  976MOL0     C31662  -0.575  -0.437  11.000 -0.8060  0.0190 -0.2696
  976MOL0     C31663  -0.428  -0.456  11.014  0.4344 -0.4295 -0.6324
  976MOL0     C31664  -0.390  -0.582  10.934  0.1115 -0.4275 -0.4120
  976MOL0     C31665  -0.241  -0.601  10.961 -0.2416 -1.0405 -0.4610
  976MOL0     C31666  -0.162  -0.529  10.848 -1.4440 -0.1271 -0.2513
  976MOL0     C31667  -0.165  -0.590  10.704  0.4544  0.6225  0.0594
  976MOL0     C31668  -0.087  -0.512  10.600  0.5167  0.3406  0.5144
  976MOL0     C31669  -0.093  -0.571  10.461 -0.4975 -0.5762 -0.0627
  976MOL0    Cl31670  -0.249  -0.513  10.380  0.1273 -0.0321  0.0670
  976MOL0     C31671  -0.711  -0.197  10.863 -0.2194 -0.2447  0.6162
  976MOL0     C31672  -0.708  -0.101  10.757 -0.2985  0.9487  0.6313
  976MOL0     O31673  -0.507  -0.063  10.488 -0.4202 -0.2192  0.3421
  976MOL0     C31674  -0.473   0.306  10.518  0.0267 -0.0012  0.2570
  976MOL0     C31675  -0.403   0.414  10.456 -0.4068  0.4980 -1.0265
  976MOL0     N31676   0.511   0.660  10.336 -0.5869  0.0032  0.7646
  976MOL0     N31677   0.585   0.768  10.350  0.7481 -0.0679  0.5164
  976MOL0     C31678   1.551   0.758  10.659 -0.3352  0.1245  0.4598
  976MOL0     C31679   1.653   0.668  10.667 -0.0428  0.3254  0.0301
  976MOL0     C31680   1.948   0.370  10.723 -0.1789 -0.3481  0.1464
  976MOL0     C31681   2.037   0.364  10.833 -0.0892  0.2046 -0.5892
  976MOL0     C31682   2.168   0.329  10.820 -0.5247  0.2736  0.1247
  976MOL0     C31683   2.215   0.270  10.699 -0.2114 -0.0476  0.4925
  976MOL0     O31684   2.332   0.203  10.691 -0.3574  0.0136 -0.3465
  976MOL0     C31685   2.412   0.231  10.576 -0.6653  0.5896 -0.0616
  976MOL0     C31686   2.548   0.184  10.599 -0.5611 -0.5759  0.0560
  976MOL0     C31687   2.646   0.260  10.519  0.7579 -0.2031 -0.0375
  976MOL0     C31688   2.776   0.199  10.510 -0.3552  0.8758 -0.5903
  976MOL0     C31689   2.859   0.291  10.429  0.2428  0.0211 -0.0625
  976MOL0     C31690   2.935   0.370  10.382 -0.2245 -0.3026 -0.2482
  976MOL0     C31691   2.127   0.276  10.587 -0.1083  0.1778  0.4339
  976MOL0     C31692   2.004   0.336  10.601 -0.6403 -0.3837  0.7485
  976MOL0     H31693   1.508   0.407  10.507  2.7287 -0.0741  0.1861
  976MOL0     H31694   1.326   0.556  10.501 -0.6095  0.5076  0.7326
  976MOL0     H31695   1.280   0.871  10.421 -0.4322  0.0352  0.3048
  976MOL0     H31696   1.175   0.729  10.467 -3.4643  0.7115  0.4567
  976MOL0     H31697   1.056   0.856  10.620  3.3221 -2.8818  0.7737
  976MOL0     H31698   1.149   0.999  10.576 -1.8326  1.4064 -1.7794
  976MOL0     H31699   1.087   0.990  10.352  1.4665 -1.6707 -0.4727
  976MOL0     H31700   0.969   0.854  10.369  0.9563  0.6901 -3.6890
  976MOL0     H31701   0.971   1.127  10.509  2.4178 -1.0191 -0.8593
  976MOL0     H31702   0.870   1.082  10.365  3.6311 -1.0752 -3.1150
  976MOL0     H31703   0.768   0.903  10.492 -0.8985 -0.4081  0.1449
  976MOL0     H31704   0.830   0.973  10.642  3.0762 -0.6794 -0.4763
  976MOL0     H31705   0.678   1.139  10.647 -1.4432  0.7204 -0.0619
  976MOL0     H31706   0.686   1.177  10.476 -0.4412  0.9440  0.0103
  976MOL0     H31707   0.546   0.941  10.583 -0.6208  0.4723 -0.2675
  976MOL0     H31708   0.465   1.087  10.566  1.0732  0.3037  1.8070
  976MOL0     H31709   0.632   1.021  10.323  1.1503 -2.7801  2.0210
  976MOL0     H31710   0.461   1.086  10.328 -0.2587  0.5725  1.1249
  976MOL0     H31711   0.290   0.890  10.272  0.1716  0.7294 -0.7318
  976MOL0     H31712   0.226   0.632  10.191  0.5113 -1.3861 -0.9254
  976MOL0     H31713   0.309   0.499  10.272  3.4556  1.3745 -0.1404
  976MOL0     H31714   0.140   0.704  10.414  1.2611  0.2483  1.4321
  976MOL0     H31715   0.170   0.535  10.474 -0.7299  0.6402 -0.6648
  976MOL0     H31716   0.056   0.433  10.277 -0.5898  0.8605 -0.1485
  976MOL0     H31717   0.007   0.599  10.227 -0.1382  0.3429 -0.4356
  976MOL0     H31718  -0.099   0.621  10.462 -1.3303  0.8079 -3.7506
  976MOL0     H31719  -0.065   0.455  10.492  1.3070  1.1324  0.4965
  976MOL0     H31720  -0.133   0.252  10.335  0.3824 -1.0618 -0.2265
  976MOL0     H31721  -0.191   0.005  10.524 -0.4308  1.9503 -0.4643
  976MOL0     H31722  -0.294  -0.070  10.389 -3.5388  0.5950  3.4875
  976MOL0     H31723  -0.155   0.019  10.345  1.0209 -1.8941  0.1222
  976MOL0     H31724  -0.406   0.037  10.829 -1.0760  1.1364 -2.9043
  976MOL0     H31725  -0.419  -0.140  11.012 -1.2073 -1.2660  0.5527
  976MOL0     H31726  -0.624  -0.527  11.039  0.1720  0.1718  1.4163
  976MOL0     H31727  -0.596  -0.434  10.893 -0.6666 -2.1100 -0.3954
  976MOL0     H31728  -0.376  -0.364  10.989 -3.2363  2.8745  2.5587
  976MOL0     H31729  -0.413  -0.482  11.119 -0.5281 -1.0860 -0.6436
  976MOL0     H31730  -0.409  -0.560  10.829 -2.7858  0.5064  0.2098
  976MOL0     H31731  -0.446  -0.674  10.950 -0.0832 -0.5595 -1.7152
  976MOL0     H31732  -0.201  -0.555  11.052 -0.2931 -1.2894 -0.3132
  976MOL0     H31733  -0.225  -0.708  10.947 -1.9710 -0.9858 -3.7882
  976MOL0     H31734  -0.059  -0.508  10.875 -0.1762 -1.5199 -3.4562
  976MOL0     H31735  -0.194  -0.425  10.856  1.6468  0.7520  2.8697
  976MOL0     H31736  -0.114  -0.686  10.692  4.1711  2.3749  0.4369
  976MOL0     H31737  -0.270  -0.593  10.673  0.3968  3.7866 -0.3268
  976MOL0     H31738   0.014  -0.513  10.640  0.1363 -0.2115  1.5062
  976MOL0     H31739  -0.126  -0.411  10.590 -0.2730  0.1675  1.6476
  976MOL0     H31740  -0.109  -0.679  10.464 -2.1340 -0.3807 -0.6031
  976MOL0     H31741  -0.008  -0.538  10.400  0.5483 -0.1765  1.5487
  976MOL0     H31742  -0.800  -0.259  10.863 -1.2367  1.1589 -0.3048
  976MOL0     H31743  -0.788  -0.085  10.686  1.3552  2.1332 -1.0723
  976MOL0     H31744  -0.565   0.315  10.575 -0.1249  1.9226 -0.2282
  976MOL0     H31745  -0.447   0.513  10.455 -1.4924  0.0914 -4.5885
  976MOL0     H31746   1.569   0.860  10.690  1.9414 -0.5733  1.6365
  976MOL0     H31747   1.750   0.683  10.713  0.7422 -1.8348 -0.7772
  976MOL0     H31748   2.004   0.395  10.932  1.4033  1.4717 -0.4337
  976MOL0     H31749   2.218   0.309  10.915 -1.7368 -1.9874  0.3651
  976MOL0     H31750   2.375   0.166  10.496 -0.3415 -0.8928  0.9464
  976MOL0     H31751   2.412   0.338  10.553 -2.3126  1.2022  2.4041
  976MOL0     H31752   2.553   0.076  10.581 -1.0923 -0.3241 -1.8343
  976MOL0     H31753   2.564   0.198  10.706 -2.1089  1.2848  0.0985
  976MOL0     H31754   2.635   0.361  10.561 -2.6421 -1.0739  1.5559
  976MOL0     H31755   2.605   0.266  10.418 -0.4950 -4.7128 -0.0220
  976MOL0     H31756   2.773   0.096  10.472  1.2547 -0.0373  1.5378
  976MOL0     H31757   2.829   0.190  10.605 -1.8084 -3.4511  0.0137
  976MOL0     H31758   3.003   0.439  10.336  2.7322  1.6556  5.8888
  976MOL0     H31759   2.156   0.244  10.487  0.4040 -1.7539  1.1675
  976MOL0     H31760   1.960   0.361  10.505  2.5802 -3.2179 -1.7633
  977MOL0     O31761   8.928   8.584   8.953 -0.3694 -0.3115 -0.3881
  977MOL0     C31762   8.939   8.522   8.853  0.0540  0.4765  0.1916
  977MOL0     O31763   9.040   8.537   8.760 -0.2890 -0.7552  0.0310
  977MOL0     C31764   9.141   8.625   8.788 -0.1243  0.6264 -0.7069
  977MOL0     C31765   9.197   8.679   8.671  0.4588 -1.4288 -0.5630
  977MOL0     C31766   9.306   8.774   8.689 -0.3922 -0.5022  0.4952
  977MOL0     C31767   9.358   8.801   8.815 -0.3069  0.6732 -0.0672
  977MOL0     O31768   9.471   8.870   8.850  0.1959  0.2297 -0.3957
  977MOL0     C31769   9.505   8.979   8.765 -0.8491  0.1232  0.0759
  977MOL0     C31770   9.591   9.089   8.831  0.1535 -0.0883  0.2712
  977MOL0     C31771   9.520   9.191   8.925 -0.3725 -0.4878  0.2825
  977MOL0     C31772   9.408   9.138   9.008 -0.0715  0.1449  0.4878
  977MOL0     C31773   9.353   9.204   9.137  0.5407  0.7732 -0.7709
  977MOL0     C31774   9.262   9.124   9.239 -0.2532 -0.1663 -0.4516
  977MOL0     C31775   9.119   9.083   9.199  0.0527  0.2315  0.1357
  977MOL0     C31776   9.018   9.209   9.199  0.8900  0.9043  0.1115
  977MOL0     N31777   8.881   9.164   9.181 -0.0745 -0.1050  0.0232
  977MOL0     C31778   8.816   9.067   9.257 -0.6456 -0.0089  0.0152
  977MOL0     C31779   8.688   9.088   9.237  0.2831  0.3838 -0.3682
  977MOL0     C31780   8.577   9.030   9.324  0.9103 -0.9897  0.0165
  977MOL0     C31781   8.493   9.133   9.397 -0.2394  0.8225  0.3161
  977MOL0     C31782   8.575   9.176   9.522  0.2465 -0.1427  0.7213
  977MOL0     C31783   8.511   9.306   9.563  0.2817  0.8078 -0.9511
  977MOL0     O31784   8.550   9.420   9.478  0.1418 -0.2123  0.4890
  977MOL0     C31785   8.689   9.442   9.491  0.1621  0.3118 -0.4501
  977MOL0     C31786   8.743   9.453   9.618 -1.5196 -0.2203 -0.4950
  977MOL0     C31787   8.871   9.495   9.644 -0.8521 -0.9087  0.3580
  977MOL0     C31788   8.900   9.518   9.788 -0.0768  0.6625  0.2776
  977MOL0     C31789   8.962   9.509   9.530 -0.3406 -0.2904 -0.3009
  977MOL0     C31790   9.106   9.543   9.546 -0.5746 -0.1766  0.1703
  977MOL0     O31791   9.171   9.542   9.428 -0.2113 -0.7999  0.0682
  977MOL0     C31792   9.301   9.592   9.427 -0.6155 -0.3759 -1.3109
  977MOL0     C31793   9.420   9.516   9.432 -0.6037 -0.4411 -0.0104
  977MOL0     C31794   9.553   9.576   9.421  0.7461 -0.8906  0.9385
  977MOL0     C31795   9.561   9.717   9.404  0.0513  0.1421 -0.4825
  977MOL0     O31796   9.680   9.787   9.393 -1.4382  0.5624  0.0454
  977MOL0     C31797   9.690   9.925   9.371 -0.0766 -0.2006 -0.4984
  977MOL0     C31798   9.825   9.960   9.312 -0.0585 -1.1743  0.1485
  977MOL0     C31799   9.835  10.120   9.306 -0.1174  0.5194  0.0283
  977MOL0     C31800   9.972  10.158   9.245  0.8897 -0.7411 -0.7684
  977MOL0     C31801  10.071  10.251   9.331 -0.7403  0.3407  0.0145
  977MOL0     C31802  10.147  10.159   9.424  0.0131 -0.8364 -0.1425
  977MOL0     C31803  10.238  10.245   9.512  0.1566 -0.1213  1.0589
  977MOL0     C31804  10.349  10.154   9.570 -0.6795  0.3205 -0.2554
  977MOL0    Cl31805  10.453  10.077   9.457  0.2072  0.9478  0.8167
  977MOL0     C31806   9.440   9.791   9.414 -0.3577  0.7830 -0.2343
  977MOL0     C31807   9.317   9.729   9.417 -0.1840 -0.3188  0.1509
  977MOL0     O31808   9.153   9.574   9.655  0.4596  0.1567  0.2589
  977MOL0     C31809   8.909   9.486   9.402 -0.0341  0.5635  0.1906
  977MOL0     C31810   8.775   9.450   9.384  0.8617  0.0910  0.0586
  977MOL0     N31811   8.669   9.182   9.135  0.1170  0.2731 -0.6855
  977MOL0     N31812   8.789   9.229   9.114 -0.6304  0.1129  0.0255
  977MOL0     C31813   9.300   8.746   8.924  1.3174 -0.0055 -0.0841
  977MOL0     C31814   9.196   8.663   8.916  0.7627 -0.4775 -0.4238
  977MOL0     C31815   8.824   8.430   8.818  0.7393  0.2801 -0.6612
  977MOL0     C31816   8.824   8.366   8.688 -1.2057  0.4130 -0.3570
  977MOL0     C31817   8.713   8.284   8.650 -0.5737  0.1846 -1.2569
  977MOL0     C31818   8.606   8.268   8.739  0.5818  0.0962  0.9223
  977MOL0     O31819   8.511   8.180   8.705  0.2518  0.7445 -0.0209
  977MOL0     C31820   8.388   8.181   8.789 -0.5146  0.4965  0.9543
  977MOL0     C31821   8.284   8.101   8.699  0.2806  0.2126 -0.2901
  977MOL0     C31822   8.141   8.097   8.760  0.4071  0.1766  1.4137
  977MOL0     C31823   8.068   7.967   8.703  0.8972 -0.7529 -1.4123
  977MOL0     C31824   7.933   7.948   8.763 -0.6305 -0.3193  0.0410
  977MOL0     C31825   7.820   7.914   8.803 -0.1900 -1.0707  0.0858
  977MOL0     C31826   8.607   8.327   8.863 -0.3084  0.5938 -0.1602
  977MOL0     C31827   8.711   8.403   8.902 -0.1852 -0.3156  0.2220
  977MOL0     H31828   9.156   8.641   8.578 -0.2405 -3.1053  0.3999
  977MOL0     H31829   9.353   8.805   8.596  2.1849  1.5635  2.3190
  977MOL0     H31830   9.549   8.938   8.675  1.4561 -1.2114  1.7078
  977MOL0     H31831   9.417   9.033   8.731 -0.3434  2.9399  2.7098
  977MOL0     H31832   9.681   9.056   8.884  1.9448  0.0559 -2.4727
  977MOL0     H31833   9.635   9.149   8.751  0.4478 -0.0253  0.4784
  977MOL0     H31834   9.602   9.242   8.976 -0.7546  1.8229 -1.2409
  977MOL0     H31835   9.476   9.278   8.875  1.5595  0.5434  0.2605
  977MOL0     H31836   9.317   9.116   8.951  2.4493 -1.6199 -3.2952
  977MOL0     H31837   9.436   9.035   9.033 -0.3149  0.1988  0.9894
  977MOL0     H31838   9.446   9.228   9.189  0.0189 -2.3456  1.9581
  977MOL0     H31839   9.313   9.298   9.098 -0.4534  0.3472 -0.8147
  977MOL0     H31840   9.326   9.037   9.254 -1.8961 -1.8550 -2.3877
  977MOL0     H31841   9.256   9.168   9.338  1.1117 -0.9944  0.0150
  977MOL0     H31842   9.130   9.052   9.094  1.6592 -3.1589  1.1752
  977MOL0     H31843   9.076   8.998   9.253  0.6758  1.6726  3.0549
  977MOL0     H31844   9.035   9.274   9.112 -2.6534 -3.3990 -4.4464
  977MOL0     H31845   9.031   9.273   9.287 -2.3177 -2.0817  3.0448
  977MOL0     H31846   8.859   9.002   9.333 -0.5898  3.0083  2.7959
  977MOL0     H31847   8.515   8.989   9.243  1.8477  0.8738 -1.7114
  977MOL0     H31848   8.609   8.941   9.380  1.2811 -1.6279 -1.1687
  977MOL0     H31849   8.396   9.086   9.416  0.5936 -0.5754  1.2412
  977MOL0     H31850   8.478   9.225   9.338 -4.7862  0.0302 -0.1745
  977MOL0     H31851   8.679   9.184   9.489 -1.3647  0.2790 -5.5845
  977MOL0     H31852   8.564   9.107   9.606 -2.0370  2.0197  2.3555
  977MOL0     H31853   8.527   9.330   9.669 -0.6125  1.5156 -0.9634
  977MOL0     H31854   8.402   9.303   9.553  0.2489  1.1959 -0.7435
  977MOL0     H31855   8.673   9.437   9.700 -1.9080  1.0904 -0.5457
  977MOL0     H31856   8.955   9.609   9.813 -4.3903  3.7431 -0.3731
  977MOL0     H31857   8.813   9.529   9.853  1.7752  0.9331  2.8887
  977MOL0     H31858   8.959   9.435   9.827  2.5950  2.2092 -0.2249
  977MOL0     H31859   9.398   9.410   9.444 -1.2770 -0.5392 -1.7430
  977MOL0     H31860   9.653   9.532   9.424  1.0569 -0.1427  1.9843
  977MOL0     H31861   9.616   9.965   9.301 -0.5125  0.6141  0.4142
  977MOL0     H31862   9.675   9.986   9.460  0.2422  1.4407 -1.5269
  977MOL0     H31863   9.910   9.921   9.369 -1.9552 -5.5754  0.3336
  977MOL0     H31864   9.814   9.917   9.212  1.1938 -2.8378  0.6768
  977MOL0     H31865   9.825  10.155   9.409 -2.3167 -3.0661  1.1869
  977MOL0     H31866   9.748  10.168   9.261 -0.3951  1.7656  1.7911
  977MOL0     H31867  10.023  10.064   9.221  3.3514  0.5922 -1.0917
  977MOL0     H31868   9.951  10.211   9.152  1.2685  2.7718  0.9728
  977MOL0     H31869  10.018  10.329   9.386 -1.1883 -0.4047  0.6672
  977MOL0     H31870  10.147  10.295   9.266 -1.2836  3.6535  1.4525
  977MOL0     H31871  10.076  10.117   9.496 -1.5740 -0.5048 -1.4368
  977MOL0     H31872  10.201  10.086   9.365  0.6649 -1.0393  0.6918
  977MOL0     H31873  10.179  10.274   9.599  0.2104  1.4995  0.5782
  977MOL0     H31874  10.272  10.335   9.460 -3.8358 -0.1514 -2.1082
  977MOL0     H31875  10.293  10.069   9.611 -1.6071  1.1621  0.2488
  977MOL0     H31876  10.403  10.214   9.644  0.9128 -2.1429  0.7229
  977MOL0     H31877   9.422   9.897   9.400 -2.0928  0.1280 -4.0083
  977MOL0     H31878   9.222   9.781   9.423  0.2777  0.5444  0.1345
  977MOL0     H31879   8.960   9.486   9.306 -2.6913  2.2208 -1.3519
  977MOL0     H31880   8.731   9.438   9.285  2.5085  2.8306 -1.0980
  977MOL0     H31881   9.352   8.777   9.014  3.6046  0.9852 -1.6517
  977MOL0     H31882   9.165   8.621   9.011  0.0341  0.2360 -0.3313
  977MOL0     H31883   8.904   8.385   8.617 -1.6843 -0.0495 -1.0445
  977MOL0     H31884   8.710   8.232   8.555  1.0963 -0.1641 -1.1404
  977MOL0     H31885   8.386   8.139   8.890  6.0867 -1.7808  0.6697
  977MOL0     H31886   8.356   8.285   8.794  1.5328  1.3673 -1.6990
  977MOL0     H31887   8.315   7.996   8.689  1.2568  0.6700 -2.5790
  977MOL0     H31888   8.272   8.137   8.597 -0.9701  0.8047  0.0512
  977MOL0     H31889   8.085   8.186   8.728 -1.2975 -1.5760 -0.9268
  977MOL0     H31890   8.146   8.090   8.869 -1.1294  0.2902  1.5145
  977MOL0     H31891   8.133   7.880   8.719  1.9276  0.2586  0.0599
  977MOL0     H31892   8.053   7.983   8.596  1.0776 -1.4920 -1.5574
  977MOL0     H31893   7.718   7.888   8.820 -0.3718  0.2743  1.2221
  977MOL0     H31894   8.536   8.305   8.943  0.3108  1.0946  0.5489
  977MOL0     H31895   8.716   8.453   8.998 -0.0789 -2.2059  1.2544
  978MOL0     O31896   9.362   3.304   1.496 -0.1491  0.8210 -0.2940
  978MOL0     C31897   9.312   3.269   1.607  0.0400 -0.6996  0.1662
  978MOL0     O31898   9.177   3.241   1.635 -1.0131 -0.0170 -0.6641
  978MOL0     C31899   9.097   3.308   1.545 -0.1405 -0.5661  0.8239
  978MOL0     C31900   9.043   3.433   1.584  1.2099  0.5831 -0.4116
  978MOL0     C31901   8.942   3.492   1.502  0.4519  0.2992 -0.5508
  978MOL0     C31902   8.894   3.430   1.388  0.2674 -0.8706 -0.3298
  978MOL0     O31903   8.786   3.492   1.334  0.2594  0.8252 -0.2333
  978MOL0     C31904   8.709   3.411   1.237  0.2707  0.1239 -0.6260
  978MOL0     C31905   8.569   3.468   1.230  1.1622  0.5228  0.1461
  978MOL0     C31906   8.504   3.449   1.367  0.8399  0.7114 -0.3353
  978MOL0     C31907   8.370   3.507   1.360  0.4775 -0.5438  0.9161
  978MOL0     C31908   8.270   3.464   1.471 -0.5965 -0.1003 -0.4991
  978MOL0     C31909   8.146   3.561   1.457 -0.2725  0.3544 -0.8677
  978MOL0     C31910   8.030   3.495   1.538 -0.3249 -0.5867  0.9895
  978MOL0     C31911   7.888   3.555   1.503 -0.0248 -1.0946 -0.3288
  978MOL0     N31912   7.827   3.472   1.393 -0.6417 -0.6560 -1.0513
  978MOL0     C31913   7.807   3.521   1.261 -0.8197  0.5577  0.7788
  978MOL0     C31914   7.754   3.411   1.204  0.3790 -0.1515  0.3216
  978MOL0     C31915   7.704   3.396   1.064 -0.8761 -0.4906  0.4467
  978MOL0     C31916   7.660   3.530   1.001  0.0783  0.3126  0.8265
  978MOL0     C31917   7.534   3.574   1.077 -0.6122 -0.5004  0.0843
  978MOL0     C31918   7.477   3.700   1.007 -0.4192  0.5297 -0.5737
  978MOL0     O31919   7.349   3.729   1.074  0.6919 -0.3206  0.9105
  978MOL0     C31920   7.321   3.810   1.188  0.3182  0.1317  0.1962
  978MOL0     C31921   7.411   3.903   1.230 -0.1750  0.1740 -0.4364
  978MOL0     C31922   7.397   3.984   1.342 -0.5578  0.1689 -0.5125
  978MOL0     C31923   7.492   4.103   1.360 -0.4719 -0.4616 -1.1707
  978MOL0     C31924   7.291   3.955   1.429 -0.1742 -0.0498 -0.3241
  978MOL0     C31925   7.273   4.024   1.556  0.5028  0.0425  0.2323
  978MOL0     O31926   7.148   4.051   1.591  0.3877  0.3752 -0.5245
  978MOL0     C31927   7.124   4.128   1.703  0.0802 -0.0212 -0.6619
  978MOL0     C31928   7.088   4.256   1.682  0.0981 -0.5125 -0.1583
  978MOL0     C31929   7.103   4.360   1.778  0.4480 -0.8107 -0.2524
  978MOL0     C31930   7.114   4.316   1.909 -0.1552  0.1960 -1.2856
  978MOL0     O31931   7.134   4.413   2.010 -0.0622  0.2390 -0.4771
  978MOL0     C31932   7.044   4.532   2.007 -0.2029 -0.8770 -0.9958
  978MOL0     C31933   7.093   4.626   2.125  0.3592  0.2372  0.0079
  978MOL0     C31934   6.996   4.739   2.124 -0.3577 -1.0935  0.7250
  978MOL0     C31935   7.035   4.841   2.232 -0.3616 -0.4187 -0.5361
  978MOL0     C31936   6.923   4.951   2.246  0.8359 -0.0236 -0.6674
  978MOL0     C31937   6.960   5.073   2.165  0.4416  0.1005  0.0645
  978MOL0     C31938   6.856   5.177   2.181  0.9537 -0.5918 -0.1919
  978MOL0     C31939   6.894   5.316   2.154 -0.7744 -0.7050  0.4871
  978MOL0    Cl31940   7.025   5.316   2.020 -0.3603  0.3051  0.0560
  978MOL0     C31941   7.125   4.180   1.935  0.6424  0.0570 -1.2509
  978MOL0     C31942   7.133   4.083   1.836  0.7684 -0.7575  0.0998
  978MOL0     O31943   7.369   4.046   1.624 -0.6550 -0.0624  0.0942
  978MOL0     C31944   7.205   3.852   1.394  0.6864  0.4316  1.1844
  978MOL0     C31945   7.219   3.783   1.268 -0.7929 -0.1083 -1.1436
  978MOL0     N31946   7.735   3.309   1.292  0.2422  0.6143 -0.0361
  978MOL0     N31947   7.781   3.350   1.402 -0.0907  0.6267 -0.1447
  978MOL0     C31948   8.957   3.314   1.340 -0.2088 -0.4773 -0.3620
  978MOL0     C31949   9.062   3.257   1.422  1.0322 -0.4861  0.4261
  978MOL0     C31950   9.393   3.244   1.725 -0.7853  0.2880  0.1511
  978MOL0     C31951   9.539   3.270   1.712  0.6959  0.4792 -0.6766
  978MOL0     C31952   9.627   3.222   1.816  0.6089  0.4793 -0.2718
  978MOL0     C31953   9.582   3.153   1.921 -0.2754 -0.9952 -0.2374
  978MOL0     O31954   9.679   3.097   2.002  0.7555 -0.5331  0.0142
  978MOL0     C31955   9.643   2.984   2.078 -0.2660  0.6220 -0.1020
  978MOL0     C31956   9.771   2.920   2.123 -0.2165  0.3692 -0.0329
  978MOL0     C31957   9.766   2.789   2.187 -0.7311  0.4471 -0.0511
  978MOL0     C31958   9.892   2.770   2.269  0.6354  0.1286  0.7238
  978MOL0     C31959  10.012   2.760   2.184 -0.1995 -0.3922 -0.3114
  978MOL0     C31960  10.116   2.767   2.121  0.0862  0.5033 -0.1456
  978MOL0     C31961   9.444   3.138   1.925  0.9529  0.1638 -0.2042
  978MOL0     C31962   9.345   3.176   1.836 -0.4157 -0.1146 -0.7787
  978MOL0     H31963   9.068   3.485   1.675 -0.3199 -0.6729  0.7971
  978MOL0     H31964   8.902   3.590   1.529  0.7957  1.0342 -2.5423
  978MOL0     H31965   8.762   3.404   1.142  1.2473 -1.9484  0.0275
  978MOL0     H31966   8.694   3.312   1.280  4.5005 -1.0652 -1.3794
  978MOL0     H31967   8.583   3.573   1.204 -0.9927  1.4632  2.3276
  978MOL0     H31968   8.502   3.415   1.161  0.4974  0.4687  0.8087
  978MOL0     H31969   8.506   3.342   1.388  1.7530  1.1373  2.0835
  978MOL0     H31970   8.555   3.501   1.448 -0.0371  0.6797  0.2541
  978MOL0     H31971   8.379   3.616   1.366 -4.3058  0.1321  0.1690
  978MOL0     H31972   8.325   3.494   1.261  0.2029 -2.6262  1.2694
  978MOL0     H31973   8.241   3.361   1.450  2.1231 -1.0334 -0.1653
  978MOL0     H31974   8.317   3.465   1.570 -1.0643 -3.4895 -0.1303
  978MOL0     H31975   8.188   3.652   1.500  3.0349 -1.9926  1.3214
  978MOL0     H31976   8.109   3.576   1.355 -2.4153 -3.3336 -0.8190
  978MOL0     H31977   8.016   3.388   1.522  1.9702 -0.9111  0.8572
  978MOL0     H31978   8.055   3.510   1.643  0.8430  0.7503  0.5491
  978MOL0     H31979   7.874   3.663   1.493  1.0672 -1.1570 -3.4722
  978MOL0     H31980   7.824   3.548   1.592  0.8851  1.0544  0.5736
  978MOL0     H31981   7.824   3.614   1.210 -0.5782 -0.2361 -0.6346
  978MOL0     H31982   7.795   3.362   1.014  1.0444  0.9405  2.7205
  978MOL0     H31983   7.630   3.316   1.054 -0.2076 -1.1729  0.8121
  978MOL0     H31984   7.631   3.510   0.898 -1.8561  0.5247  1.2858
  978MOL0     H31985   7.740   3.604   1.008 -1.1104  1.5783  1.4320
  978MOL0     H31986   7.557   3.582   1.183  1.5671  0.1260 -0.3756
  978MOL0     H31987   7.459   3.496   1.062 -1.4567  0.4619 -0.8137
  978MOL0     H31988   7.473   3.695   0.898 -1.0944 -0.8746 -0.5192
  978MOL0     H31989   7.542   3.782   1.038  0.6975 -1.6188  3.5493
  978MOL0     H31990   7.492   3.933   1.164  2.0981 -1.2486  1.5712
  978MOL0     H31991   7.554   4.095   1.450  0.1490 -2.2309 -1.7193
  978MOL0     H31992   7.562   4.118   1.278  1.0497  0.9391  0.3021
  978MOL0     H31993   7.424   4.189   1.368 -2.8844 -2.3462 -0.0827
  978MOL0     H31994   7.093   4.273   1.575  2.1295 -3.9308 -0.7260
  978MOL0     H31995   7.094   4.463   1.745  0.5396 -1.1660 -1.4409
  978MOL0     H31996   7.042   4.586   1.911 -0.7583  0.9547  0.0009
  978MOL0     H31997   6.939   4.501   2.009  0.4849 -3.5509 -2.1372
  978MOL0     H31998   7.102   4.569   2.218 -0.0518 -3.5259 -2.0664
  978MOL0     H31999   7.186   4.674   2.094  0.4547 -0.6520 -1.1584
  978MOL0     H32000   6.901   4.692   2.151  0.2451 -1.2030  2.8596
  978MOL0     H32001   7.006   4.795   2.031 -0.6760  1.5262  2.1839
  978MOL0     H32002   7.051   4.795   2.330  0.1134 -1.4394 -1.0811
  978MOL0     H32003   7.134   4.885   2.221 -0.5811  1.2246  2.8010
  978MOL0     H32004   6.904   4.963   2.353  1.6118 -0.4991 -0.4678
  978MOL0     H32005   6.830   4.923   2.196 -1.4947  3.0061  1.6147
  978MOL0     H32006   7.060   5.101   2.200  0.2707 -1.8280  2.3654
  978MOL0     H32007   6.962   5.059   2.056 -4.5611  3.8886 -0.8708
  978MOL0     H32008   6.835   5.173   2.288  1.3570  0.8325 -0.0443
  978MOL0     H32009   6.758   5.166   2.132  1.5299  1.1014 -1.8469
  978MOL0     H32010   6.935   5.359   2.245  1.7801 -0.4728 -0.7015
  978MOL0     H32011   6.815   5.383   2.119  0.7941  1.5954  1.1970
  978MOL0     H32012   7.124   4.130   2.032 -2.0751 -0.0674 -1.2597
  978MOL0     H32013   7.157   3.981   1.863  2.4445 -0.3236  0.3711
  978MOL0     H32014   7.119   3.824   1.454  1.4219 -2.3211  1.1151
  978MOL0     H32015   7.144   3.710   1.242 -1.9380 -0.2621  2.1195
  978MOL0     H32016   8.935   3.254   1.252  1.9589 -4.0635  1.2976
  978MOL0     H32017   9.121   3.169   1.396 -1.2619 -1.6812 -1.0145
  978MOL0     H32018   9.585   3.309   1.622 -0.1321  1.2878 -0.7628
  978MOL0     H32019   9.730   3.255   1.814 -0.4221  4.8486  2.9454
  978MOL0     H32020   9.593   3.018   2.170  1.7094 -0.6660  1.5415
  978MOL0     H32021   9.584   2.909   2.024  0.7475 -1.3014  1.3342
  978MOL0     H32022   9.814   2.989   2.196 -0.6657  0.5656  0.0452
  978MOL0     H32023   9.839   2.909   2.038 -0.5337 -0.8578 -0.1352
  978MOL0     H32024   9.775   2.702   2.120 -1.1158 -0.4812  1.0742
  978MOL0     H32025   9.675   2.769   2.244 -0.6328  3.3638  1.2758
  978MOL0     H32026   9.873   2.678   2.325 -4.6655  0.8393  0.6603
  978MOL0     H32027   9.900   2.854   2.338 -2.0259  0.8403  0.2596
  978MOL0     H32028  10.205   2.770   2.061  0.5514 -0.1146  0.4927
  978MOL0     H32029   9.409   3.061   1.993 -2.3960 -0.6944 -2.6669
  978MOL0     H32030   9.240   3.163   1.860 -0.3306  1.4691  0.6218
  979MOL0     O32031   8.458  11.233   4.273 -0.1957 -0.1661  0.3134
  979MOL0     C32032   8.377  11.243   4.184 -0.1231  0.0494 -0.2918
  979MOL0     O32033   8.241  11.258   4.199 -0.5056 -0.7805  0.3513
  979MOL0     C32034   8.209  11.272   4.329  0.2256  0.5065  0.0579
  979MOL0     C32035   8.124  11.182   4.388 -0.6835  0.1550 -0.6803
  979MOL0     C32036   8.078  11.204   4.516  0.3038 -0.7180  0.4438
  979MOL0     C32037   8.115  11.317   4.592 -0.0282 -0.5523  0.7026
  979MOL0     O32038   8.070  11.309   4.718 -0.7568  0.0921  0.7405
  979MOL0     C32039   8.144  11.379   4.809  0.3363 -0.5259 -0.1510
  979MOL0     C32040   8.095  11.377   4.961  0.1201 -0.1346 -0.0456
  979MOL0     C32041   8.131  11.238   5.018 -0.3161 -0.4749  0.4299
  979MOL0     C32042   8.050  11.133   4.946 -0.5870  0.0566 -0.0142
  979MOL0     C32043   7.976  11.028   5.028  0.0677  0.1856 -1.3934
  979MOL0     C32044   7.916  10.900   4.959 -0.7220 -0.4851  0.5085
  979MOL0     C32045   8.026  10.809   4.879  0.0788  0.4009  0.8044
  979MOL0     C32046   7.951  10.703   4.794 -0.4603  0.7417  0.0738
  979MOL0     N32047   7.873  10.765   4.688  0.1352  0.2997  0.0196
  979MOL0     C32048   7.744  10.819   4.700 -0.6893  0.6600  0.3750
  979MOL0     C32049   7.731  10.900   4.594  0.9421  0.1348 -0.1986
  979MOL0     C32050   7.605  10.986   4.560 -0.0810 -0.2824  0.0669
  979MOL0     C32051   7.579  11.094   4.667  0.8558  0.2110 -0.3474
  979MOL0     C32052   7.443  11.168   4.654  0.3606 -0.4487 -0.3713
  979MOL0     C32053   7.452  11.314   4.696  1.2299  0.5191  1.0147
  979MOL0     O32054   7.328  11.381   4.665  0.7451  0.1002  0.4875
  979MOL0     C32055   7.333  11.516   4.678 -0.4204  0.2775  0.4687
  979MOL0     C32056   7.211  11.569   4.689  0.5247  0.0954  0.4731
  979MOL0     C32057   7.183  11.711   4.715  0.2470 -1.4657  0.2670
  979MOL0     C32058   7.047  11.757   4.719 -0.3842  0.0288  0.0920
  979MOL0     C32059   7.295  11.794   4.718 -0.9542 -0.1935 -0.0945
  979MOL0     C32060   7.291  11.939   4.752  0.3453  0.4231  0.5786
  979MOL0     O32061   7.182  12.013   4.731  0.0008 -1.4360 -0.7379
  979MOL0     C32062   7.148  12.118   4.818 -0.6805 -0.0986  0.3415
  979MOL0     C32063   7.041  12.194   4.775  0.7940 -0.9158  0.0540
  979MOL0     C32064   6.991  12.298   4.848  0.4751 -0.7201  0.4586
  979MOL0     C32065   7.061  12.354   4.956 -0.3748  0.3837 -0.1231
  979MOL0     O32066   7.022  12.481   5.003  0.3416 -0.0627  0.3205
  979MOL0     C32067   7.116  12.563   5.068 -0.2767  0.0727 -0.0289
  979MOL0     C32068   7.052  12.704   5.069  0.4164 -0.9249 -0.1031
  979MOL0     C32069   6.910  12.710   5.115  0.8236  0.5916  0.4449
  979MOL0     C32070   6.840  12.844   5.114 -0.5663  0.7352  0.4288
  979MOL0     C32071   6.706  12.837   5.042  1.2027 -0.1297  0.2097
  979MOL0     C32072   6.683  12.771   4.909  0.7765  1.0670 -0.0118
  979MOL0     C32073   6.763  12.848   4.800  0.5064 -0.2367 -0.4155
  979MOL0     C32074   6.789  12.769   4.674 -0.4908  0.2832  0.6740
  979MOL0    Cl32075   6.921  12.641   4.673  0.4142  0.3310 -0.1856
  979MOL0     C32076   7.164  12.278   5.007  0.0935  0.4443  0.1462
  979MOL0     C32077   7.209  12.160   4.942 -0.3404 -0.9795 -0.2367
  979MOL0     O32078   7.394  11.984   4.806  0.6177  0.2551  0.4213
  979MOL0     C32079   7.429  11.737   4.691  0.3836 -0.5266 -0.5821
  979MOL0     C32080   7.447  11.601   4.670 -0.3625 -0.1443 -0.1080
  979MOL0     N32081   7.853  10.899   4.528 -0.5636 -0.0124  0.1108
  979MOL0     N32082   7.938  10.822   4.586 -0.0450 -0.3945 -0.6720
  979MOL0     C32083   8.206  11.412   4.528 -0.8185  0.6590  0.2365
  979MOL0     C32084   8.246  11.386   4.395 -1.0280  0.1049  0.1256
  979MOL0     C32085   8.418  11.211   4.048  0.9140 -0.3812  0.3278
  979MOL0     C32086   8.315  11.211   3.946  0.7438 -0.0676  0.8751
  979MOL0     C32087   8.357  11.195   3.813 -0.3779  0.1058 -0.0525
  979MOL0     C32088   8.486  11.181   3.781  0.3139  0.4148  0.5893
  979MOL0     O32089   8.522  11.171   3.646  0.7930 -0.1812 -0.4412
  979MOL0     C32090   8.548  11.291   3.581  0.1170  1.5729 -0.4693
  979MOL0     C32091   8.678  11.270   3.514 -0.5307 -0.3172  1.2477
  979MOL0     C32092   8.715  11.402   3.447  0.2434 -0.0101  0.3703
  979MOL0     C32093   8.867  11.429   3.462 -0.2176  0.6776  0.0696
  979MOL0     C32094   8.930  11.473   3.340 -1.0825 -0.1446 -0.1172
  979MOL0     C32095   8.968  11.499   3.229 -0.2970  0.9347  0.5105
  979MOL0     C32096   8.579  11.166   3.881  0.0590  0.5155  0.3609
  979MOL0     C32097   8.551  11.189   4.013  0.1615  0.6496 -0.2780
  979MOL0     H32098   8.078  11.094   4.345 -0.1049  1.0311 -3.2388
  979MOL0     H32099   8.013  11.131   4.565 -2.0263 -0.6872 -2.3349
  979MOL0     H32100   8.238  11.325   4.797  0.4339 -1.6213  3.8776
  979MOL0     H32101   8.164  11.482   4.781  4.5310 -1.0855  0.1796
  979MOL0     H32102   8.166  11.443   5.012 -0.2630  1.4143 -1.4321
  979MOL0     H32103   7.998  11.416   4.991  1.1618  0.5502  2.6848
  979MOL0     H32104   8.239  11.222   5.017 -0.5342 -2.7144  2.2125
  979MOL0     H32105   8.111  11.246   5.125 -0.1277 -2.3171  0.6443
  979MOL0     H32106   7.968  11.167   4.882 -1.7965 -1.8557  0.4184
  979MOL0     H32107   8.129  11.088   4.885 -1.1375 -0.3174 -0.4756
  979MOL0     H32108   8.033  10.986   5.110 -4.1196 -0.3787  1.5670
  979MOL0     H32109   7.887  11.071   5.075 -1.4310 -3.3229 -0.7312
  979MOL0     H32110   7.872  10.839   5.038  0.1229  1.4139  2.5701
  979MOL0     H32111   7.848  10.960   4.898 -0.0602  0.2234  0.4568
  979MOL0     H32112   8.094  10.874   4.823 -1.9822  3.8767  2.0649
  979MOL0     H32113   8.093  10.747   4.940 -0.4721 -1.6363 -0.5345
  979MOL0     H32114   7.880  10.642   4.850  1.9815 -1.7763  0.6502
  979MOL0     H32115   8.022  10.631   4.753  0.3441  1.5628 -0.0028
  979MOL0     H32116   7.675  10.806   4.783 -1.2201 -0.5050 -0.2232
  979MOL0     H32117   7.608  11.019   4.456 -1.2447  0.0378  0.1228
  979MOL0     H32118   7.517  10.920   4.565 -0.1594 -0.1344  3.6497
  979MOL0     H32119   7.660  11.168   4.659  1.4546 -0.3383  0.4302
  979MOL0     H32120   7.580  11.041   4.763 -0.7346  0.6638 -0.0616
  979MOL0     H32121   7.366  11.117   4.712  0.1328  2.1106  1.7554
  979MOL0     H32122   7.418  11.172   4.547  3.2694  0.0795 -1.1323
  979MOL0     H32123   7.537  11.359   4.643  1.9758 -1.4098  0.5087
  979MOL0     H32124   7.474  11.329   4.802  1.7732 -2.5293  1.4054
  979MOL0     H32125   7.122  11.508   4.687  0.2143  0.5595 -0.1402
  979MOL0     H32126   7.047  11.820   4.629 -2.6672 -1.6341 -1.1548
  979MOL0     H32127   6.969  11.686   4.693  0.8671 -1.1142 -0.7240
  979MOL0     H32128   7.027  11.812   4.812  0.0757 -1.2413  0.9603
  979MOL0     H32129   6.978  12.185   4.687  0.2209  4.7686 -0.4837
  979MOL0     H32130   6.903  12.349   4.810  1.2601 -0.6402 -1.3558
  979MOL0     H32131   7.114  12.538   5.174 -0.9635 -0.7711 -0.2335
  979MOL0     H32132   7.215  12.565   5.021 -1.7504 -1.5619 -3.5752
  979MOL0     H32133   7.108  12.762   5.143  0.9140 -1.0897 -0.3505
  979MOL0     H32134   7.066  12.749   4.970 -0.1182 -1.5400 -0.4644
  979MOL0     H32135   6.912  12.676   5.219  0.4142 -1.8365 -0.2789
  979MOL0     H32136   6.853  12.634   5.062 -0.0168 -0.4291  2.6807
  979MOL0     H32137   6.827  12.877   5.217 -2.7542  0.0617  0.4281
  979MOL0     H32138   6.910  12.920   5.078 -1.8459  1.5522 -0.4064
  979MOL0     H32139   6.661  12.936   5.034  0.2773 -0.2561  2.6973
  979MOL0     H32140   6.652  12.778   5.117  1.1331 -2.8184 -1.8016
  979MOL0     H32141   6.717  12.667   4.916  1.2146  1.2967  1.4126
  979MOL0     H32142   6.577  12.768   4.881 -0.3998 -1.2985  3.9358
  979MOL0     H32143   6.858  12.892   4.830 -0.2041  2.4748 -1.7816
  979MOL0     H32144   6.704  12.938   4.777  0.5521  0.2103  1.1368
  979MOL0     H32145   6.824  12.832   4.592 -2.6219 -1.9215 -2.1353
  979MOL0     H32146   6.697  12.724   4.636  1.4337 -0.2888 -3.9491
  979MOL0     H32147   7.219  12.315   5.093 -1.8800 -1.8038  2.5391
  979MOL0     H32148   7.285  12.096   4.985 -0.7307 -1.5307 -0.3538
  979MOL0     H32149   7.520  11.796   4.691  0.7546 -1.0350  0.9005
  979MOL0     H32150   7.549  11.566   4.670  1.3085  4.1136 -0.3598
  979MOL0     H32151   8.244  11.501   4.577  1.2466  0.9505 -1.7357
  979MOL0     H32152   8.308  11.466   4.355  0.4171 -0.3326  1.3525
  979MOL0     H32153   8.209  11.233   3.941  0.9327  0.5855 -0.7851
  979MOL0     H32154   8.291  11.192   3.726  1.5687  1.5415 -1.6687
  979MOL0     H32155   8.478  11.320   3.502 -0.8679 -0.4688 -0.4034
  979MOL0     H32156   8.557  11.366   3.661 -1.0588 -2.6105  4.0694
  979MOL0     H32157   8.686  11.188   3.442 -1.2051  1.7745 -1.3927
  979MOL0     H32158   8.757  11.257   3.588  0.7619  0.0401 -0.0313
  979MOL0     H32159   8.662  11.494   3.473  0.7805  0.6879 -0.8917
  979MOL0     H32160   8.700  11.385   3.339 -0.9048  0.7788  0.3902
  979MOL0     H32161   8.923  11.344   3.502 -1.4201  0.5027  1.4618
  979MOL0     H32162   8.878  11.499   3.545 -0.4975 -0.8711  1.4630
  979MOL0     H32163   8.993  11.537   3.132  0.1912 -3.2231 -1.1966
  979MOL0     H32164   8.680  11.137   3.856  0.6715 -0.9672  3.9280
  979MOL0     H32165   8.634  11.185   4.083  0.7718 -0.4968 -1.0399
  980MOL0     O32166   5.062   7.105   6.335  0.3286  0.5349  0.0802
  980MOL0     C32167   5.103   7.217   6.362 -0.3538 -1.9022 -0.2455
  980MOL0     O32168   5.177   7.254   6.476  0.1750 -0.5936 -0.3452
  980MOL0     C32169   5.214   7.141   6.544 -1.0348 -0.9151 -0.7393
  980MOL0     C32170   5.138   7.078   6.649  0.3756 -0.3080  0.1503
  980MOL0     C32171   5.186   6.972   6.725 -0.5557  0.0230 -0.0185
  980MOL0     C32172   5.316   6.926   6.697  0.2638 -0.3103  0.1302
  980MOL0     O32173   5.368   6.825   6.759  0.0644 -0.6296 -0.4689
  980MOL0     C32174   5.329   6.795   6.887 -0.7772  0.7452 -0.9452
  980MOL0     C32175   5.421   6.677   6.944  0.9116 -0.0147 -0.4479
  980MOL0     C32176   5.570   6.718   6.978  0.3634 -0.2623 -0.5576
  980MOL0     C32177   5.602   6.785   7.110 -0.0837  0.6030 -0.2374
  980MOL0     C32178   5.545   6.724   7.241  0.2134  0.2147 -0.1203
  980MOL0     C32179   5.632   6.596   7.263 -0.2118 -0.2801  0.0991
  980MOL0     C32180   5.587   6.513   7.379  0.8481 -0.1705  0.3972
  980MOL0     C32181   5.466   6.421   7.359  0.4743  0.6282 -0.3583
  980MOL0     N32182   5.335   6.501   7.356 -0.7078 -0.0635  0.0116
  980MOL0     C32183   5.219   6.458   7.291  0.1715 -0.4735  0.3810
  980MOL0     C32184   5.124   6.562   7.330  0.9209  0.4606 -0.3663
  980MOL0     C32185   4.977   6.555   7.299 -0.9833  0.1024  1.1411
  980MOL0     C32186   4.951   6.627   7.165  0.1307  0.2942 -0.2023
  980MOL0     C32187   4.808   6.620   7.116  0.2351  0.2961 -0.0953
  980MOL0     C32188   4.772   6.732   7.008  0.0143  0.2903 -0.0227
  980MOL0     O32189   4.796   6.865   7.058 -0.3310 -0.0046  0.0226
  980MOL0     C32190   4.773   6.972   6.974 -0.1601 -1.2266 -0.2945
  980MOL0     C32191   4.814   7.102   7.028 -0.5459  0.3219  0.4211
  980MOL0     C32192   4.787   7.215   6.950 -0.7509  0.2351  0.2711
  980MOL0     C32193   4.814   7.346   7.008 -0.1516  0.5786  0.2512
  980MOL0     C32194   4.739   7.205   6.813 -0.7304 -0.6847  0.2221
  980MOL0     C32195   4.717   7.330   6.735  0.3669 -0.4738  0.6407
  980MOL0     O32196   4.832   7.404   6.697  0.1151  0.3030 -0.2283
  980MOL0     C32197   4.814   7.523   6.630 -0.2117 -0.1669  0.1122
  980MOL0     C32198   4.827   7.531   6.489  0.1608 -0.4975 -0.4884
  980MOL0     C32199   4.846   7.663   6.438  1.4743 -0.4968 -0.2275
  980MOL0     C32200   4.837   7.775   6.525 -0.8152  0.3449  0.2390
  980MOL0     O32201   4.857   7.899   6.468  0.4076  0.5909 -0.1576
  980MOL0     C32202   4.922   7.995   6.542 -0.3452 -0.0580  0.4993
  980MOL0     C32203   4.947   8.118   6.455 -0.3774  0.6880 -1.3562
  980MOL0     C32204   5.066   8.197   6.518 -0.4488  0.9206 -0.3359
  980MOL0     C32205   5.065   8.327   6.440 -0.1227  0.0468  1.2428
  980MOL0     C32206   5.176   8.427   6.482 -0.2157 -0.0687  0.0844
  980MOL0     C32207   5.320   8.373   6.472  0.3752 -0.1353 -0.8772
  980MOL0     C32208   5.366   8.283   6.596 -0.2495  0.7973 -0.6320
  980MOL0     C32209   5.508   8.289   6.632 -0.6600 -0.8793 -0.1908
  980MOL0    Cl32210   5.611   8.260   6.483  0.0979  0.2066 -0.1253
  980MOL0     C32211   4.817   7.758   6.664  1.2066  0.0307 -0.1324
  980MOL0     C32212   4.807   7.633   6.715 -0.2064 -0.3102 -1.0894
  980MOL0     O32213   4.598   7.353   6.711 -0.4439  0.1977  0.7783
  980MOL0     C32214   4.693   7.081   6.770  1.5883 -0.5816 -0.0525
  980MOL0     C32215   4.713   6.972   6.844 -0.2071  0.1992 -0.1613
  980MOL0     N32216   5.191   6.658   7.403 -0.3350  0.0727 -0.1298
  980MOL0     N32217   5.309   6.616   7.425  0.2720 -0.4959 -0.0571
  980MOL0     C32218   5.384   6.978   6.587 -0.1458 -0.7855  0.0109
  980MOL0     C32219   5.332   7.082   6.511 -1.1255 -0.0815  0.6030
  980MOL0     C32220   5.061   7.329   6.272 -0.0842 -0.0906 -0.2748
  980MOL0     C32221   4.972   7.310   6.165 -0.9133  0.5318 -1.0243
  980MOL0     C32222   4.942   7.419   6.085  0.2313  0.2192 -0.7554
  980MOL0     C32223   4.992   7.545   6.099 -0.0037  0.2394  0.6685
  980MOL0     O32224   4.984   7.650   6.018  0.0753 -0.7035  0.2754
  980MOL0     C32225   4.930   7.628   5.893  0.0593  0.1784  1.1493
  980MOL0     C32226   4.909   7.763   5.807 -0.1430  2.0217 -0.4493
  980MOL0     C32227   4.800   7.860   5.862  0.3344 -1.3226 -0.4520
  980MOL0     C32228   4.735   7.941   5.749 -0.0411 -0.3991  0.2675
  980MOL0     C32229   4.786   8.074   5.742  0.4590 -0.7233  0.1962
  980MOL0     C32230   4.819   8.189   5.738  0.0698  0.2490  0.1058
  980MOL0     C32231   5.088   7.558   6.191  0.6367  0.2704 -0.5645
  980MOL0     C32232   5.116   7.451   6.284 -0.4162 -0.7759 -0.3998
  980MOL0     H32233   5.042   7.118   6.683 -0.7561 -3.5541  1.1852
  980MOL0     H32234   5.126   6.926   6.803 -0.3077 -0.8921 -0.3629
  980MOL0     H32235   5.336   6.886   6.946 -2.1866 -0.4725  1.2140
  980MOL0     H32236   5.223   6.768   6.886 -1.1088  1.9497 -0.1362
  980MOL0     H32237   5.380   6.647   7.041  3.2699  0.5835  0.8128
  980MOL0     H32238   5.414   6.584   6.887  1.8712 -0.5881  0.3287
  980MOL0     H32239   5.635   6.632   6.960  0.0689 -1.0163  1.6912
  980MOL0     H32240   5.607   6.781   6.897 -1.1085 -0.1556 -1.1802
  980MOL0     H32241   5.711   6.784   7.115 -0.0298 -2.4559 -0.5635
  980MOL0     H32242   5.561   6.887   7.115  1.8230  1.3552  2.7071
  980MOL0     H32243   5.550   6.790   7.328  0.7704  0.7259 -0.5302
  980MOL0     H32244   5.444   6.689   7.218  1.0123 -1.9066 -0.6073
  980MOL0     H32245   5.620   6.538   7.170  0.1384  0.7776 -0.6221
  980MOL0     H32246   5.738   6.623   7.272 -0.4994  1.0923 -0.4213
  980MOL0     H32247   5.668   6.444   7.403  0.6550 -1.2838 -1.8258
  980MOL0     H32248   5.583   6.579   7.466 -2.3953  0.1424  0.1167
  980MOL0     H32249   5.458   6.349   7.441 -0.1884 -0.6109 -1.4668
  980MOL0     H32250   5.481   6.363   7.268  0.7309 -1.8940  1.1869
  980MOL0     H32251   5.191   6.369   7.237 -2.5551  1.3244 -1.4204
  980MOL0     H32252   4.928   6.457   7.294 -0.6319 -0.0326 -2.2099
  980MOL0     H32253   4.938   6.601   7.390  0.8210 -2.8162  3.6174
  980MOL0     H32254   5.014   6.593   7.082  0.1971  0.7184 -0.3330
  980MOL0     H32255   4.986   6.730   7.179  4.6449 -1.1767  1.1968
  980MOL0     H32256   4.737   6.627   7.198 -0.6349  0.3103 -0.8345
  980MOL0     H32257   4.794   6.523   7.067  0.0122 -0.7992  2.0182
  980MOL0     H32258   4.667   6.715   6.985 -0.6191 -3.0548  4.1345
  980MOL0     H32259   4.834   6.719   6.919  0.8377 -1.2254  0.7448
  980MOL0     H32260   4.860   7.125   7.123  0.6568  0.9625 -0.2929
  980MOL0     H32261   4.807   7.330   7.116 -0.8907 -3.4750 -0.2388
  980MOL0     H32262   4.915   7.382   6.987  0.2358 -1.3167 -1.4120
  980MOL0     H32263   4.737   7.420   6.984 -1.5406 -1.0551 -0.5331
  980MOL0     H32264   4.829   7.438   6.433 -0.8169 -0.9235  0.1551
  980MOL0     H32265   4.867   7.690   6.335 -2.9817  0.3480 -1.1004
  980MOL0     H32266   4.859   8.031   6.624 -0.6994  2.3606 -0.7484
  980MOL0     H32267   5.014   7.949   6.581  1.1742 -0.7629 -3.4885
  980MOL0     H32268   4.982   8.090   6.355  1.0196  2.0791 -1.2860
  980MOL0     H32269   4.858   8.182   6.444 -0.3487  0.5959 -2.2627
  980MOL0     H32270   5.154   8.134   6.507 -0.8899  0.1972  0.2157
  980MOL0     H32271   5.043   8.209   6.624  1.2826 -0.1415  0.1996
  980MOL0     H32272   5.068   8.299   6.334 -1.7914  0.3345  1.0862
  980MOL0     H32273   4.968   8.378   6.445 -0.7033 -0.1855 -3.2666
  980MOL0     H32274   5.153   8.448   6.586 -0.9116  0.3090 -0.1404
  980MOL0     H32275   5.167   8.522   6.429 -1.3980 -0.1642  0.1010
  980MOL0     H32276   5.329   8.313   6.382 -0.5358 -3.5537  1.1250
  980MOL0     H32277   5.385   8.460   6.481 -1.4796  1.3061 -0.5858
  980MOL0     H32278   5.350   8.176   6.579  0.4640  0.5487  0.1922
  980MOL0     H32279   5.303   8.316   6.679  0.1408 -0.0849  0.0333
  980MOL0     H32280   5.529   8.222   6.715  0.6993 -0.1724  0.0546
  980MOL0     H32281   5.523   8.391   6.669 -0.7139 -1.9573  3.0506
  980MOL0     H32282   4.813   7.840   6.735 -0.1279 -1.7983  2.0128
  980MOL0     H32283   4.801   7.625   6.823  0.3723  1.9361 -0.8308
  980MOL0     H32284   4.632   7.072   6.680  2.5252  3.8085 -1.4046
  980MOL0     H32285   4.687   6.876   6.801  1.7485  0.2274 -1.5363
  980MOL0     H32286   5.476   6.929   6.557 -0.0953 -1.7715  1.6881
  980MOL0     H32287   5.385   7.124   6.426  1.4378 -3.6114  0.2376
  980MOL0     H32288   4.921   7.214   6.161  2.2257 -1.2553 -1.7647
  980MOL0     H32289   4.860   7.403   6.016 -1.4238 -0.2083  1.2159
  980MOL0     H32290   5.005   7.568   5.841  0.1593 -0.1468  1.6640
  980MOL0     H32291   4.833   7.577   5.900 -0.3350  0.9256  1.2313
  980MOL0     H32292   4.872   7.740   5.706 -1.1484 -0.8285  0.4745
  980MOL0     H32293   4.996   7.829   5.802  2.9645 -1.6931  0.0596
  980MOL0     H32294   4.850   7.921   5.938 -1.9031  0.4459 -0.3088
  980MOL0     H32295   4.733   7.792   5.917  0.7378 -2.0898 -0.8835
  980MOL0     H32296   4.630   7.940   5.779 -0.4687 -0.3750 -1.1740
  980MOL0     H32297   4.734   7.900   5.648 -1.0334 -0.1128  0.1506
  980MOL0     H32298   4.864   8.286   5.746  1.1825 -0.4092  2.6761
  980MOL0     H32299   5.152   7.646   6.190 -0.6007  1.2123  0.0842
  980MOL0     H32300   5.194   7.471   6.357 -1.5575  1.9298  0.1833
  981MOL0     O32301   5.912   9.523   8.881  1.5868 -0.7074  0.0301
  981MOL0     C32302   5.884   9.638   8.907 -0.0268  0.1849  0.2536
  981MOL0     O32303   5.783   9.704   8.859  0.0568  0.3769  0.5573
  981MOL0     C32304   5.676   9.640   8.814 -0.4040 -0.0088  0.9250
  981MOL0     C32305   5.673   9.560   8.701  0.4559 -0.7843 -0.1023
  981MOL0     C32306   5.558   9.505   8.646 -0.5859  0.5924 -0.0135
  981MOL0     C32307   5.434   9.505   8.710  0.6584  0.2288  0.8809
  981MOL0     O32308   5.318   9.439   8.658  0.3778 -0.8122 -0.2789
  981MOL0     C32309   5.302   9.417   8.520  1.0845  0.7158  0.6198
  981MOL0     C32310   5.149   9.429   8.483  0.3521  0.3025 -0.0188
  981MOL0     C32311   5.046   9.350   8.562 -0.6085  0.6491 -0.4164
  981MOL0     C32312   4.916   9.322   8.487 -0.0982 -0.0869  0.0519
  981MOL0     C32313   4.820   9.242   8.569 -0.2682  0.5374 -0.0996
  981MOL0     C32314   4.682   9.207   8.507  0.6794 -0.1800 -0.1327
  981MOL0     C32315   4.600   9.106   8.584 -0.0889  0.4392  0.1981
  981MOL0     C32316   4.534   8.992   8.491  0.4115 -0.2164  0.6568
  981MOL0     N32317   4.618   8.919   8.398 -0.4002  0.2669 -0.3547
  981MOL0     C32318   4.756   8.932   8.373  0.5954  0.8914 -0.0622
  981MOL0     C32319   4.770   8.888   8.240 -0.4668  0.3391  0.7010
  981MOL0     C32320   4.897   8.895   8.165  0.6116 -0.4366  0.0700
  981MOL0     C32321   4.878   8.985   8.038  0.9574  0.3078  0.1933
  981MOL0     C32322   4.908   9.135   8.073 -0.6976  0.4526 -0.5236
  981MOL0     C32323   5.053   9.158   8.103 -0.1288 -0.0564 -0.5624
  981MOL0     O32324   5.088   9.287   8.059 -0.4533 -0.2283 -0.4353
  981MOL0     C32325   5.214   9.340   8.099  0.5137  0.1564  0.4430
  981MOL0     C32326   5.334   9.272   8.139  0.8806  0.0072  0.6344
  981MOL0     C32327   5.450   9.338   8.179 -0.3964  0.7875 -0.0802
  981MOL0     C32328   5.574   9.243   8.202 -0.3517  0.4728  0.0616
  981MOL0     C32329   5.450   9.482   8.184  0.2641 -0.4979 -0.8564
  981MOL0     C32330   5.565   9.568   8.218  0.0288  0.2077  0.1120
  981MOL0     O32331   5.587   9.668   8.137 -0.4159 -0.4386  0.7047
  981MOL0     C32332   5.695   9.753   8.157 -0.9435 -0.5329 -0.1675
  981MOL0     C32333   5.668   9.883   8.193 -0.6629 -0.8225 -1.0061
  981MOL0     C32334   5.774   9.985   8.195  0.2894 -0.2891 -0.0452
  981MOL0     C32335   5.901   9.941   8.167  0.1371  0.6601  0.1465
  981MOL0     O32336   6.016  10.018   8.163 -0.0841  0.6608  0.1233
  981MOL0     C32337   6.012  10.154   8.220 -0.4866  0.1403 -0.0484
  981MOL0     C32338   6.148  10.188   8.278 -0.2122 -0.9965  0.4733
  981MOL0     C32339   6.148  10.320   8.355  0.8755 -0.1706  0.1485
  981MOL0     C32340   6.295  10.379   8.370  0.4846 -0.4245 -0.6200
  981MOL0     C32341   6.313  10.490   8.471 -0.6708 -0.2061 -0.2524
  981MOL0     C32342   6.268  10.626   8.420  0.5265 -0.3118 -0.2561
  981MOL0     C32343   6.316  10.737   8.503  0.8005  0.6219  0.5323
  981MOL0     C32344   6.215  10.850   8.496  1.3644  0.2987  0.3835
  981MOL0    Cl32345   6.219  10.936   8.339  0.1101  0.5365 -0.0873
  981MOL0     C32346   5.928   9.807   8.123  0.2321  0.9836  0.9622
  981MOL0     C32347   5.826   9.714   8.118  0.0010  0.6304  0.0080
  981MOL0     O32348   5.644   9.520   8.296  0.0700  0.0949  0.5260
  981MOL0     C32349   5.333   9.553   8.141 -0.1019  0.8394  0.7982
  981MOL0     C32350   5.223   9.484   8.096 -0.2406  0.1597  0.2768
  981MOL0     N32351   4.650   8.844   8.202  0.0154  0.9791  0.2764
  981MOL0     N32352   4.558   8.873   8.286 -0.1871 -0.3402 -0.1517
  981MOL0     C32353   5.429   9.574   8.826  0.1131 -0.3242  0.3240
  981MOL0     C32354   5.546   9.644   8.881 -0.1288  0.4336  1.9181
  981MOL0     C32355   5.988   9.705   8.986  0.5032 -1.1187  0.1084
  981MOL0     C32356   6.100   9.636   9.043 -0.3877  0.7226 -0.3113
  981MOL0     C32357   6.210   9.698   9.099 -0.1390 -1.5531 -0.0197
  981MOL0     C32358   6.209   9.841   9.128 -0.4613 -0.0085 -1.0931
  981MOL0     O32359   6.317   9.905   9.194 -0.1659  0.5743  0.9942
  981MOL0     C32360   6.452   9.883   9.135 -0.6394 -0.3297 -0.1426
  981MOL0     C32361   6.535  10.009   9.171 -0.1022 -0.8627  0.0972
  981MOL0     C32362   6.469  10.143   9.129  0.0936  0.9969  0.3144
  981MOL0     C32363   6.412  10.161   8.985  0.7205  0.4061 -0.2824
  981MOL0     C32364   6.488  10.102   8.872 -0.8758  0.0281  0.3670
  981MOL0     C32365   6.538  10.070   8.766 -0.0808  0.5010  0.0564
  981MOL0     C32366   6.094   9.906   9.076  0.1476 -0.2944  0.3195
  981MOL0     C32367   5.988   9.843   9.008  0.5366  0.2000 -0.7459
  981MOL0     H32368   5.765   9.526   8.654  0.5198  2.7486 -2.9457
  981MOL0     H32369   5.576   9.429   8.570 -0.9156 -1.5643  1.9293
  981MOL0     H32370   5.360   9.486   8.458  2.3190  0.2113  1.1773
  981MOL0     H32371   5.332   9.316   8.491 -2.6642 -1.1612  2.6258
  981MOL0     H32372   5.127   9.535   8.497 -0.4611  0.3777 -1.6160
  981MOL0     H32373   5.132   9.412   8.376 -0.9266 -1.3060  0.4100
  981MOL0     H32374   5.087   9.251   8.583 -5.0804 -1.5314 -0.8174
  981MOL0     H32375   5.025   9.416   8.647 -0.6976 -0.7160  0.6542
  981MOL0     H32376   4.865   9.417   8.471  0.1800 -0.1382 -1.2389
  981MOL0     H32377   4.944   9.272   8.394  1.5221  2.0044 -0.6492
  981MOL0     H32378   4.866   9.146   8.597  0.7218  1.1566  0.4485
  981MOL0     H32379   4.794   9.286   8.666  2.4308 -1.1642  1.5486
  981MOL0     H32380   4.628   9.301   8.495  1.3304  0.0522 -1.4328
  981MOL0     H32381   4.699   9.163   8.408  1.5667 -2.3190  0.9001
  981MOL0     H32382   4.657   9.052   8.660 -2.3862 -1.8065  0.4921
  981MOL0     H32383   4.528   9.161   8.646 -1.3410  0.5791 -1.3211
  981MOL0     H32384   4.448   9.039   8.443  0.9047 -0.0127 -0.0446
  981MOL0     H32385   4.484   8.918   8.555 -2.6572 -2.9179 -4.2172
  981MOL0     H32386   4.834   8.987   8.425 -0.0562  0.7276  1.1167
  981MOL0     H32387   4.984   8.930   8.221  1.3358 -0.8368 -0.7919
  981MOL0     H32388   4.931   8.796   8.135  1.4871 -0.4169  0.9266
  981MOL0     H32389   4.776   8.981   7.997  1.0524 -2.1205  0.0910
  981MOL0     H32390   4.947   8.945   7.964 -1.2484  1.3621 -2.6656
  981MOL0     H32391   4.845   9.168   8.156 -0.5958 -0.4232 -0.0958
  981MOL0     H32392   4.891   9.195   7.983  1.8033  2.2958  0.1112
  981MOL0     H32393   5.115   9.086   8.049 -0.1073 -0.0488 -0.5476
  981MOL0     H32394   5.070   9.145   8.210  3.3345 -1.3400 -1.1367
  981MOL0     H32395   5.339   9.167   8.110 -2.9066 -0.4279  1.0721
  981MOL0     H32396   5.600   9.257   8.307 -2.5084  1.1302  0.5565
  981MOL0     H32397   5.557   9.135   8.200  0.8230  0.2736 -0.0374
  981MOL0     H32398   5.654   9.262   8.129 -0.6207  0.1089 -0.3372
  981MOL0     H32399   5.565   9.906   8.216  0.1049  1.1795  0.6892
  981MOL0     H32400   5.739  10.083   8.223  1.0790  0.5496 -1.8332
  981MOL0     H32401   5.979  10.222   8.141 -1.8333 -1.3727 -0.8777
  981MOL0     H32402   5.941  10.162   8.303  2.5670  0.4249  2.7155
  981MOL0     H32403   6.178  10.119   8.358 -1.2147 -0.2856  1.4955
  981MOL0     H32404   6.223  10.191   8.199  1.2914  1.4773  1.8478
  981MOL0     H32405   6.090  10.304   8.446 -0.3982  0.0167 -0.5952
  981MOL0     H32406   6.094  10.394   8.295 -0.3454 -1.5020 -0.4690
  981MOL0     H32407   6.361  10.296   8.397 -0.1728 -0.8074 -0.1816
  981MOL0     H32408   6.332  10.408   8.271  1.4212  1.0689  0.1201
  981MOL0     H32409   6.421  10.497   8.483 -0.2960  0.9687 -3.3254
  981MOL0     H32410   6.264  10.469   8.567  2.6766 -3.1764  1.0004
  981MOL0     H32411   6.294  10.638   8.315  0.1240  0.0095 -0.3228
  981MOL0     H32412   6.159  10.617   8.416  0.4312 -0.2171  1.2859
  981MOL0     H32413   6.407  10.783   8.464  1.1970 -0.0502  0.6403
  981MOL0     H32414   6.332  10.692   8.602  2.3399  2.5152  1.2127
  981MOL0     H32415   6.235  10.930   8.568  0.9072  2.1419 -1.4264
  981MOL0     H32416   6.116  10.811   8.522  0.5817 -0.5130 -3.1616
  981MOL0     H32417   6.025   9.765   8.098  0.3570  0.5752  2.1070
  981MOL0     H32418   5.840   9.608   8.100 -0.6763  0.6551 -0.6766
  981MOL0     H32419   5.330   9.660   8.157 -1.3595  1.2292 -1.5435
  981MOL0     H32420   5.145   9.555   8.070 -0.9416  0.3809  2.8052
  981MOL0     H32421   5.330   9.588   8.870 -0.7491  3.6434 -2.3450
  981MOL0     H32422   5.545   9.698   8.975 -0.3723  0.3287  1.9784
  981MOL0     H32423   6.109   9.530   9.022  0.7608  0.9596 -1.1419
  981MOL0     H32424   6.293   9.640   9.138 -0.2514 -1.1554  0.8520
  981MOL0     H32425   6.504   9.800   9.183  1.7992  1.7329  1.0369
  981MOL0     H32426   6.446   9.879   9.026  3.4188  5.6548 -1.0805
  981MOL0     H32427   6.640  10.012   9.141  0.0949  2.0113  0.8009
  981MOL0     H32428   6.552  10.020   9.279  2.5255 -1.0572 -0.2401
  981MOL0     H32429   6.554  10.211   9.137 -0.8081  2.1119  0.5943
  981MOL0     H32430   6.388  10.161   9.201  0.2553 -2.3953  1.5148
  981MOL0     H32431   6.403  10.269   8.966  1.2232  0.5601  0.3361
  981MOL0     H32432   6.310  10.122   8.993  0.7384  0.7400  2.0341
  981MOL0     H32433   6.583  10.040   8.674 -0.6563  1.4915 -0.5573
  981MOL0     H32434   6.089  10.015   9.081 -1.2813 -0.2688 -0.9427
  981MOL0     H32435   5.910   9.903   8.963  1.3581  1.5014 -0.5083
  982MOL0     O32436  10.044   1.721   5.886  0.4204  0.2178 -0.5244
  982MOL0     C32437   9.923   1.741   5.911 -1.4485 -0.1803  0.2259
  982MOL0     O32438   9.825   1.726   5.824 -0.2818 -0.1600  0.6688
  982MOL0     C32439   9.846   1.661   5.705 -0.4919  0.0100  0.2094
  982MOL0     C32440   9.825   1.732   5.588  0.7173  0.3318  0.0040
  982MOL0     C32441   9.842   1.676   5.462 -0.8352 -0.9308 -0.7407
  982MOL0     C32442   9.879   1.542   5.447 -0.7587  0.1626 -0.1862
  982MOL0     O32443   9.894   1.497   5.317  0.4299 -0.5077  0.0743
  982MOL0     C32444   9.881   1.359   5.299  0.4881  0.9916 -0.0036
  982MOL0     C32445   9.805   1.329   5.165  0.5509 -0.2846  0.7460
  982MOL0     C32446   9.676   1.424   5.136  0.9303  0.3165 -0.0513
  982MOL0     C32447   9.711   1.559   5.065 -0.2723  0.3710 -0.3274
  982MOL0     C32448   9.586   1.639   5.034 -0.9765 -0.1205  0.1196
  982MOL0     C32449   9.479   1.668   5.148  0.0072 -0.0073 -1.3688
  982MOL0     C32450   9.530   1.775   5.250  0.5833  1.1721 -0.1990
  982MOL0     C32451   9.416   1.805   5.340  0.5987  0.9051  1.0527
  982MOL0     N32452   9.439   1.844   5.475  0.0662 -0.2107 -0.4929
  982MOL0     C32453   9.539   1.923   5.528 -0.2380 -0.2927 -0.5926
  982MOL0     C32454   9.521   1.929   5.665 -0.9083 -0.2570  1.6388
  982MOL0     C32455   9.614   1.995   5.769 -0.2198  0.3603  0.4020
  982MOL0     C32456   9.540   2.048   5.887 -0.0173  0.5298 -0.8864
  982MOL0     C32457   9.626   2.124   5.996  0.1287  0.2305  0.5826
  982MOL0     C32458   9.728   2.221   5.935 -0.2007 -0.4062 -0.1139
  982MOL0     O32459   9.845   2.159   5.871  0.2749 -0.4068 -0.6137
  982MOL0     C32460   9.957   2.116   5.946  0.4783  0.1301 -0.7036
  982MOL0     C32461   9.953   2.114   6.092 -0.7387 -0.5424  0.3805
  982MOL0     C32462  10.066   2.078   6.166 -0.1961 -0.4356 -0.9413
  982MOL0     C32463  10.060   2.107   6.318  0.0162  0.2228 -0.0593
  982MOL0     C32464  10.171   2.014   6.089 -0.3527 -0.8740 -0.3857
  982MOL0     C32465  10.293   1.966   6.150 -0.3447 -0.3621  0.7574
  982MOL0     O32466  10.356   2.052   6.236 -0.3116 -0.3123  0.0478
  982MOL0     C32467  10.461   2.015   6.328  0.9496  0.4935  0.6917
  982MOL0     C32468  10.580   1.964   6.294 -0.3425  0.5145  0.7306
  982MOL0     C32469  10.674   1.938   6.396  0.2179 -0.5559  0.0910
  982MOL0     C32470  10.647   1.970   6.528 -0.4527  0.0994  0.4202
  982MOL0     O32471  10.744   1.948   6.621 -0.1005  0.2131 -0.1495
  982MOL0     C32472  10.863   2.022   6.608 -1.0601 -0.7395 -0.2738
  982MOL0     C32473  10.968   1.935   6.685  0.8469  0.0423  0.4856
  982MOL0     C32474  11.042   1.851   6.589 -0.6068  0.8128 -0.3917
  982MOL0     C32475  11.191   1.826   6.618 -0.1963  0.6146  0.4302
  982MOL0     C32476  11.268   1.720   6.539 -1.0568 -0.6271 -1.0522
  982MOL0     C32477  11.187   1.599   6.493 -0.1925  0.3487  0.6810
  982MOL0     C32478  11.287   1.491   6.444 -0.5920  0.1080 -0.0845
  982MOL0     C32479  11.222   1.376   6.384  0.1548 -0.0667 -1.2255
  982MOL0    Cl32480  11.220   1.395   6.202  0.2163  0.7874 -0.0570
  982MOL0     C32481  10.523   2.014   6.565 -0.0594 -1.0286  0.8729
  982MOL0     C32482  10.426   2.044   6.465  0.3255 -0.0595 -0.6036
  982MOL0     O32483  10.334   1.853   6.117 -0.3135  0.3751 -1.1717
  982MOL0     C32484  10.168   2.024   5.949 -0.0165  0.7616 -0.1576
  982MOL0     C32485  10.063   2.075   5.875 -0.4588 -0.0885  0.2517
  982MOL0     N32486   9.405   1.855   5.699 -0.3953  0.3049  0.6094
  982MOL0     N32487   9.363   1.811   5.585 -0.3976 -0.7230  0.4673
  982MOL0     C32488   9.898   1.472   5.570 -0.4803  0.7914  0.1182
  982MOL0     C32489   9.873   1.521   5.698 -0.2825 -0.7109 -0.6403
  982MOL0     C32490   9.877   1.764   6.048 -1.4616 -1.2357  0.7650
  982MOL0     C32491   9.970   1.752   6.153  1.3134 -0.4034 -0.3740
  982MOL0     C32492   9.924   1.779   6.289 -0.2115  0.4945  0.7207
  982MOL0     C32493   9.787   1.804   6.321 -0.6877 -0.0485 -0.5067
  982MOL0     O32494   9.741   1.800   6.452  0.6282  0.7279 -0.2589
  982MOL0     C32495   9.813   1.726   6.554 -0.5687  0.1100  0.8994
  982MOL0     C32496   9.834   1.581   6.528 -0.4002 -0.8177 -0.4705
  982MOL0     C32497   9.923   1.516   6.636 -0.1870 -0.4746 -0.1440
  982MOL0     C32498   9.908   1.364   6.633 -0.3645 -0.2892 -0.2289
  982MOL0     C32499  10.005   1.298   6.721 -0.4853 -0.0505 -0.1461
  982MOL0     C32500  10.091   1.255   6.789  0.1882 -0.0793 -0.0319
  982MOL0     C32501   9.705   1.831   6.208  0.1814 -0.8872 -0.3948
  982MOL0     C32502   9.746   1.800   6.073 -0.4212 -0.1362  0.2307
  982MOL0     H32503   9.817   1.840   5.598  3.1871  0.5105  0.5968
  982MOL0     H32504   9.823   1.745   5.380 -0.8756  1.6455  1.2683
  982MOL0     H32505   9.981   1.316   5.304  0.6232  1.3753  0.6597
  982MOL0     H32506   9.817   1.310   5.373 -2.3269  3.1682 -0.8063
  982MOL0     H32507   9.879   1.324   5.084  0.0631 -0.6015  0.3078
  982MOL0     H32508   9.778   1.224   5.164  2.6675 -0.8822  0.3079
  982MOL0     H32509   9.604   1.370   5.074 -2.8792  2.4374  2.1764
  982MOL0     H32510   9.625   1.453   5.228  2.7822 -0.3615  1.2346
  982MOL0     H32511   9.761   1.637   5.123 -0.5777  1.0529 -0.9590
  982MOL0     H32512   9.772   1.535   4.977  1.2478 -0.5436  0.9278
  982MOL0     H32513   9.617   1.739   5.005 -0.3330 -0.8479 -1.9018
  982MOL0     H32514   9.544   1.584   4.949 -2.9322 -1.1552  1.6693
  982MOL0     H32515   9.389   1.711   5.103 -1.1664  2.1766  2.5730
  982MOL0     H32516   9.453   1.573   5.195 -0.7995 -0.0216 -1.8235
  982MOL0     H32517   9.615   1.738   5.308 -1.0810 -1.3830  0.7523
  982MOL0     H32518   9.561   1.869   5.203  0.7346  2.6259  2.6065
  982MOL0     H32519   9.346   1.721   5.339 -0.5654  1.7925 -1.5755
  982MOL0     H32520   9.353   1.877   5.287  1.3149 -0.1764 -1.3751
  982MOL0     H32521   9.619   1.965   5.468 -0.6997 -1.9260 -2.4493
  982MOL0     H32522   9.707   1.939   5.786  0.3330  1.8978  2.8995
  982MOL0     H32523   9.650   2.085   5.718  1.3742  0.4523  1.6215
  982MOL0     H32524   9.488   1.967   5.940  0.4077 -0.6157 -2.1543
  982MOL0     H32525   9.471   2.122   5.846 -2.6191 -1.2473 -0.0620
  982MOL0     H32526   9.679   2.059   6.066 -1.0630 -1.0940  0.3059
  982MOL0     H32527   9.555   2.185   6.051  0.1436  1.4053 -0.6462
  982MOL0     H32528   9.764   2.294   6.007  2.3148 -2.9971  1.4589
  982MOL0     H32529   9.682   2.288   5.862  0.5195 -0.1333 -0.3237
  982MOL0     H32530   9.869   2.148   6.151 -1.5470 -0.2209 -0.9248
  982MOL0     H32531   9.965   2.154   6.347  1.9006  2.9217  2.2837
  982MOL0     H32532  10.066   2.013   6.374 -2.0844 -1.1606 -1.9929
  982MOL0     H32533  10.141   2.176   6.343  2.1418 -1.2866 -2.3208
  982MOL0     H32534  10.608   1.949   6.190 -2.4328  1.3599 -0.0153
  982MOL0     H32535  10.777   1.912   6.372  0.7755  0.2143  1.5579
  982MOL0     H32536  10.886   2.050   6.505 -3.2010 -2.6115 -1.3558
  982MOL0     H32537  10.844   2.121   6.650 -2.7240 -0.8375 -0.7233
  982MOL0     H32538  11.027   2.002   6.748 -0.8175  1.5765  0.5212
  982MOL0     H32539  10.912   1.865   6.746  0.9932  0.4712  1.1236
  982MOL0     H32540  11.031   1.901   6.492 -2.8149  2.4906  0.6185
  982MOL0     H32541  10.987   1.756   6.593 -1.9629  1.5811 -0.1770
  982MOL0     H32542  11.246   1.919   6.599 -2.4614  1.6785 -1.4980
  982MOL0     H32543  11.180   1.795   6.722 -1.4825 -2.6457 -0.5547
  982MOL0     H32544  11.339   1.676   6.610 -0.5165  2.5165  0.5520
  982MOL0     H32545  11.327   1.774   6.465  0.0233  2.1819  1.6105
  982MOL0     H32546  11.132   1.566   6.582  0.9213 -1.4648  0.7526
  982MOL0     H32547  11.129   1.636   6.408 -0.2612  0.4694  0.7800
  982MOL0     H32548  11.347   1.457   6.529  0.4801 -1.0359 -1.2761
  982MOL0     H32549  11.355   1.542   6.376 -2.0811  2.4021  0.0395
  982MOL0     H32550  11.125   1.364   6.433  0.8134  0.8699  0.3939
  982MOL0     H32551  11.273   1.280   6.393  0.5597  0.1081 -1.5971
  982MOL0     H32552  10.480   2.052   6.658 -0.1310  0.3488  0.3066
  982MOL0     H32553  10.333   2.081   6.505  0.3937 -2.3383  1.9038
  982MOL0     H32554  10.252   1.982   5.896 -0.5297 -2.5261  1.3646
  982MOL0     H32555  10.060   2.087   5.767 -0.3939 -3.3463 -0.1970
  982MOL0     H32556   9.909   1.364   5.563  0.1509  0.7512  1.4470
  982MOL0     H32557   9.887   1.458   5.785 -0.9079  1.3693  1.0662
  982MOL0     H32558  10.072   1.723   6.131  1.5969 -1.4889  2.0537
  982MOL0     H32559   9.996   1.770   6.369 -2.1665 -2.9317  2.3112
  982MOL0     H32560   9.912   1.771   6.566  0.2983 -0.5878 -2.4099
  982MOL0     H32561   9.753   1.747   6.642 -0.4491  0.6608  0.8526
  982MOL0     H32562   9.877   1.563   6.429  0.2307 -0.9559 -0.1769
  982MOL0     H32563   9.732   1.545   6.517  0.1823 -2.1350 -1.9581
  982MOL0     H32564   9.899   1.553   6.735 -0.0036  0.7798 -0.5495
  982MOL0     H32565  10.024   1.543   6.604 -0.6748  1.6496 -0.0175
  982MOL0     H32566   9.930   1.334   6.530 -2.4056 -3.0376  0.0372
  982MOL0     H32567   9.802   1.339   6.642  0.1421 -2.4838  0.0533
  982MOL0     H32568  10.166   1.216   6.855 -2.4224 -1.4107  2.3095
  982MOL0     H32569   9.609   1.874   6.236  0.8897  0.4148  0.1514
  982MOL0     H32570   9.675   1.817   5.993  2.9216  2.5410 -2.4717
  983MOL0     O32571   7.452   3.164   9.787  0.6389  0.9808  0.1664
  983MOL0     C32572   7.413   3.049   9.792  0.4060 -0.6102  0.1057
  983MOL0     O32573   7.305   2.990   9.733  0.2016 -0.1922  0.2954
  983MOL0     C32574   7.238   3.051   9.631 -0.2516  0.0350  0.8440
  983MOL0     C32575   7.150   3.151   9.649 -0.0102  0.1646 -0.1756
  983MOL0     C32576   7.090   3.207   9.538  0.0981  1.5992 -0.2114
  983MOL0     C32577   7.107   3.154   9.409 -0.3315  0.2195  1.0684
  983MOL0     O32578   7.029   3.201   9.315  0.4605  0.2113  0.4179
  983MOL0     C32579   7.036   3.337   9.274  0.7908  0.4508  0.5289
  983MOL0     C32580   6.910   3.358   9.195  0.3850 -0.1304  0.1520
  983MOL0     C32581   6.783   3.314   9.264 -0.1479 -0.1844 -0.6867
  983MOL0     C32582   6.662   3.326   9.177 -0.9218 -0.3359  0.4830
  983MOL0     C32583   6.545   3.232   9.195  0.6664 -0.2929 -0.1092
  983MOL0     C32584   6.445   3.310   9.276  0.1016  0.2844  0.3105
  983MOL0     C32585   6.304   3.251   9.257 -0.3087 -0.1315  0.0763
  983MOL0     C32586   6.195   3.322   9.343  0.5750  0.6855 -0.0488
  983MOL0     N32587   6.058   3.287   9.310 -1.3637  0.1059 -0.2681
  983MOL0     C32588   6.026   3.164   9.255  0.4825 -0.7667 -0.3349
  983MOL0     C32589   5.889   3.174   9.235  0.7653  0.0376  0.1370
  983MOL0     C32590   5.795   3.080   9.176  0.5354 -0.2911  0.2578
  983MOL0     C32591   5.725   2.997   9.280  0.4015  0.1960  0.2690
  983MOL0     C32592   5.612   2.920   9.208 -0.3052 -0.2908  0.2231
  983MOL0     C32593   5.655   2.776   9.167  1.0714  0.1833 -0.3233
  983MOL0     O32594   5.527   2.715   9.123  0.3694  0.2386 -0.2517
  983MOL0     C32595   5.490   2.725   8.994  0.1271  0.8602  1.0823
  983MOL0     C32596   5.557   2.799   8.891 -0.9313 -0.2538  0.1179
  983MOL0     C32597   5.514   2.803   8.758 -0.0513  0.4929  0.6346
  983MOL0     C32598   5.619   2.859   8.654 -0.0963 -0.7598 -0.6865
  983MOL0     C32599   5.390   2.744   8.721 -0.1566  0.7683 -0.5416
  983MOL0     C32600   5.324   2.742   8.584 -1.1236 -0.2150 -1.1233
  983MOL0     O32601   5.238   2.634   8.563 -0.0628  0.5955 -0.0466
  983MOL0     C32602   5.191   2.616   8.435 -0.4010 -0.2771  0.2157
  983MOL0     C32603   5.256   2.513   8.371  0.4448  0.2899  0.7692
  983MOL0     C32604   5.229   2.471   8.239  0.7765  0.6111 -1.0198
  983MOL0     C32605   5.133   2.537   8.162  0.7191  0.1876 -0.2182
  983MOL0     O32606   5.112   2.480   8.030 -0.2509  0.3390 -0.4740
  983MOL0     C32607   4.977   2.493   7.989 -0.0752 -0.0041 -0.2922
  983MOL0     C32608   4.980   2.410   7.860  0.2593  0.3326 -0.6554
  983MOL0     C32609   4.980   2.258   7.890 -0.0964 -0.0078  0.1613
  983MOL0     C32610   5.093   2.177   7.841  0.7922 -0.1617  0.3363
  983MOL0     C32611   5.058   2.042   7.778 -0.8345  0.5986  0.6947
  983MOL0     C32612   5.000   1.948   7.877  0.0229  0.0898 -0.1516
  983MOL0     C32613   4.934   1.814   7.824 -0.2617  0.5372 -0.5500
  983MOL0     C32614   5.061   1.724   7.791  0.0405  0.7710  0.3207
  983MOL0    Cl32615   5.014   1.562   7.726 -0.0958 -0.1333 -0.4205
  983MOL0     C32616   5.057   2.641   8.234  0.0066  0.0759 -0.0320
  983MOL0     C32617   5.080   2.674   8.370  0.3486  0.3023 -0.5903
  983MOL0     O32618   5.348   2.831   8.502 -0.2719 -0.2813  0.2802
  983MOL0     C32619   5.322   2.675   8.825  1.3034 -0.0848 -0.6324
  983MOL0     C32620   5.377   2.663   8.953  0.5377 -0.2036  0.2218
  983MOL0     N32621   5.850   3.305   9.281  0.1491 -1.2129  0.7793
  983MOL0     N32622   5.950   3.368   9.325 -0.1952  0.4478  0.4761
  983MOL0     C32623   7.177   3.046   9.386 -0.8246  0.7892 -0.1966
  983MOL0     C32624   7.248   2.988   9.496  0.4853  0.3020 -0.0797
  983MOL0     C32625   7.501   2.962   9.867 -0.2907  0.1904  0.4632
  983MOL0     C32626   7.616   3.013   9.938  0.5357  0.9006  1.4549
  983MOL0     C32627   7.680   2.930  10.015 -0.8533 -0.1164 -0.2310
  983MOL0     C32628   7.648   2.794  10.035  0.9152  0.4379 -0.0168
  983MOL0     O32629   7.722   2.725  10.123  0.4050 -0.1035 -0.3242
  983MOL0     C32630   7.658   2.643  10.219  0.4376 -0.1005  0.3439
  983MOL0     C32631   7.752   2.597  10.332 -0.3389 -0.1736  1.1243
  983MOL0     C32632   7.671   2.570  10.463  0.6766 -0.1649  0.6430
  983MOL0     C32633   7.605   2.433  10.437  0.8599  0.4205  0.3035
  983MOL0     C32634   7.528   2.385  10.554  0.3034  0.0407 -0.2832
  983MOL0     C32635   7.461   2.346  10.646  0.6355  0.6639 -0.0151
  983MOL0     C32636   7.542   2.735   9.976  0.4611 -0.0339 -0.4446
  983MOL0     C32637   7.467   2.819   9.888  0.6532 -0.0306 -1.1535
  983MOL0     H32638   7.147   3.188   9.751 -2.1403 -1.8882  0.6186
  983MOL0     H32639   7.018   3.288   9.549 -0.0070  1.5083 -0.2203
  983MOL0     H32640   7.030   3.425   9.339 -2.1263  1.4278 -0.8570
  983MOL0     H32641   7.123   3.352   9.210  0.5850 -2.4190 -0.5714
  983MOL0     H32642   6.922   3.462   9.166  3.9392  0.0298  1.6740
  983MOL0     H32643   6.921   3.312   9.097 -1.8330 -0.7806  0.1546
  983MOL0     H32644   6.785   3.211   9.302  1.0019 -0.3851 -1.2441
  983MOL0     H32645   6.760   3.364   9.358  0.4966 -0.7450 -0.2239
  983MOL0     H32646   6.649   3.434   9.191  2.6848  0.0105  2.2674
  983MOL0     H32647   6.696   3.305   9.075 -1.4880  2.1800 -0.2997
  983MOL0     H32648   6.506   3.225   9.093  0.5254  3.2371 -0.4142
  983MOL0     H32649   6.567   3.127   9.214  0.9651 -1.6689 -6.1201
  983MOL0     H32650   6.474   3.306   9.382 -2.1011  1.9933  1.0578
  983MOL0     H32651   6.442   3.415   9.244 -0.3769  0.2571  0.2612
  983MOL0     H32652   6.270   3.253   9.153  0.4423 -1.2058 -0.2045
  983MOL0     H32653   6.309   3.143   9.270  1.2748 -0.3250 -1.7391
  983MOL0     H32654   6.215   3.429   9.339 -2.3495  1.2649 -2.0195
  983MOL0     H32655   6.220   3.283   9.442  4.1465  2.2981 -0.1613
  983MOL0     H32656   6.074   3.067   9.267  1.9024  0.0911  1.2537
  983MOL0     H32657   5.730   3.128   9.102  1.0112 -1.6750 -1.1287
  983MOL0     H32658   5.858   3.020   9.110 -1.7079 -0.7928 -1.5354
  983MOL0     H32659   5.669   3.055   9.355 -1.3348 -2.0180  0.7741
  983MOL0     H32660   5.796   2.932   9.332  1.6087 -1.9840 -3.7474
  983MOL0     H32661   5.584   2.968   9.114  0.4123 -1.3815 -0.5669
  983MOL0     H32662   5.529   2.929   9.279  0.7625  0.0615  1.4750
  983MOL0     H32663   5.683   2.711   9.251  2.5002  1.0381 -0.1095
  983MOL0     H32664   5.740   2.759   9.101  1.1323  2.9501 -1.0872
  983MOL0     H32665   5.645   2.862   8.902 -1.3074  0.0446  1.6327
  983MOL0     H32666   5.595   2.799   8.566  0.7452 -3.8932  1.0418
  983MOL0     H32667   5.604   2.964   8.629 -1.4983 -1.2148 -1.8871
  983MOL0     H32668   5.719   2.840   8.694 -0.5153  1.7238  1.9229
  983MOL0     H32669   5.331   2.454   8.423  2.6220  1.3192 -1.0338
  983MOL0     H32670   5.291   2.391   8.200  1.9166 -0.2464  2.1776
  983MOL0     H32671   4.907   2.462   8.068  0.7070 -0.0909  0.3882
  983MOL0     H32672   4.956   2.597   7.962 -1.4608 -0.6307 -1.8184
  983MOL0     H32673   4.886   2.430   7.807 -0.4951 -3.7234 -1.2169
  983MOL0     H32674   5.062   2.442   7.795 -0.6569  1.0396 -1.4889
  983MOL0     H32675   4.884   2.219   7.854 -0.4751  1.7300 -0.8423
  983MOL0     H32676   4.971   2.241   7.998  0.4907  3.4096  0.8724
  983MOL0     H32677   5.136   2.236   7.759  1.2186 -1.7271 -0.6017
  983MOL0     H32678   5.161   2.159   7.925  1.9337 -1.3640 -0.7851
  983MOL0     H32679   5.147   1.993   7.738 -0.9955  0.6226  0.3063
  983MOL0     H32680   4.996   2.050   7.689  0.5273  0.1881 -0.3183
  983MOL0     H32681   5.062   1.933   7.966  1.5550 -2.3496 -1.5025
  983MOL0     H32682   4.908   1.992   7.915  0.5716 -0.1697  1.5835
  983MOL0     H32683   4.859   1.837   7.747  0.6419 -0.2368 -1.7057
  983MOL0     H32684   4.888   1.765   7.911  1.6201 -0.7376 -0.2336
  983MOL0     H32685   5.117   1.705   7.883 -2.7028 -2.9603  1.4715
  983MOL0     H32686   5.113   1.779   7.712  1.5656 -0.5706  0.3443
  983MOL0     H32687   4.977   2.688   8.178  0.5398  1.6797  0.5011
  983MOL0     H32688   5.018   2.756   8.402 -0.1824  0.0149 -0.8664
  983MOL0     H32689   5.224   2.631   8.810  0.5974  0.5850  1.6091
  983MOL0     H32690   5.325   2.609   9.031  0.3711  0.8817  0.8971
  983MOL0     H32691   7.179   3.006   9.285  0.5392  1.0858 -0.2978
  983MOL0     H32692   7.306   2.900   9.472  0.7650  0.0031  1.6201
  983MOL0     H32693   7.668   3.106   9.920  2.6122 -0.6683 -1.7460
  983MOL0     H32694   7.763   2.968  10.074 -1.7199  1.4997  0.0158
  983MOL0     H32695   7.576   2.706  10.253 -0.2635  0.2230 -1.7929
  983MOL0     H32696   7.626   2.552  10.169 -2.2115 -0.1247  1.9061
  983MOL0     H32697   7.814   2.684  10.355 -0.9195  0.9740 -1.3371
  983MOL0     H32698   7.810   2.512  10.294  0.1736  0.8559 -0.4900
  983MOL0     H32699   7.593   2.646  10.476  0.2474  0.3056 -3.3947
  983MOL0     H32700   7.736   2.570  10.552 -0.3115  0.0048  1.3829
  983MOL0     H32701   7.677   2.352  10.425  0.0202 -0.2924  0.0104
  983MOL0     H32702   7.543   2.426  10.347  1.1264  1.6210  0.0046
  983MOL0     H32703   7.417   2.318  10.740 -1.3163 -2.0375 -1.5824
  983MOL0     H32704   7.508   2.633   9.991 -1.9954  0.8309  0.4358
  983MOL0     H32705   7.377   2.782   9.839 -1.0912  1.8655  0.4170
  984MOL0     O32706   6.191   4.378  11.450 -1.1037 -0.1186 -0.1078
  984MOL0     C32707   6.091   4.452  11.434  0.0572  0.3727 -0.4772
  984MOL0     O32708   5.980   4.431  11.351 -0.1052  0.7869  0.5133
  984MOL0     C32709   5.966   4.303  11.299  0.2917  0.7081  0.2463
  984MOL0     C32710   6.053   4.239  11.211  0.2227  0.3186  0.0840
  984MOL0     C32711   6.012   4.122  11.140  0.1014  1.2740 -0.3058
  984MOL0     C32712   5.886   4.062  11.163  0.9447 -0.4367  0.7331
  984MOL0     O32713   5.857   3.942  11.092 -0.3440 -0.3181  0.3742
  984MOL0     C32714   5.728   3.873  11.129  0.1228 -0.2289 -0.5720
  984MOL0     C32715   5.720   3.736  11.060  0.6908 -0.0709 -0.1118
  984MOL0     C32716   5.580   3.672  11.071 -1.3767  0.1639  0.7220
  984MOL0     C32717   5.523   3.642  11.207  0.3981  1.1441 -0.5863
  984MOL0     C32718   5.394   3.552  11.188 -0.6643  0.5143 -2.1283
  984MOL0     C32719   5.271   3.617  11.142  0.1357  0.5169  0.3411
  984MOL0     C32720   5.161   3.511  11.131 -0.4586  0.2952  0.4129
  984MOL0     C32721   5.038   3.567  11.062 -0.4943  0.1961 -0.3457
  984MOL0     N32722   4.971   3.675  11.135  0.1532 -0.9417  0.5323
  984MOL0     C32723   4.999   3.810  11.137 -0.5528 -0.1740  0.3805
  984MOL0     C32724   4.911   3.861  11.226 -0.1140 -0.5370 -1.3168
  984MOL0     C32725   4.921   3.994  11.286  0.5979  0.0926 -0.3596
  984MOL0     C32726   4.847   4.011  11.420  0.6203 -0.9114 -0.0847
  984MOL0     C32727   4.915   4.111  11.514 -0.1358 -0.5525 -0.5107
  984MOL0     C32728   4.848   4.108  11.659  0.1207 -1.6734  0.5181
  984MOL0     O32729   4.905   4.205  11.749 -1.2006  0.3321 -0.4527
  984MOL0     C32730   4.863   4.193  11.881  0.4839  0.0053  0.9297
  984MOL0     C32731   4.758   4.106  11.933  0.7755  0.0012 -0.2802
  984MOL0     C32732   4.710   4.120  12.067 -0.3626 -0.3981  0.3778
  984MOL0     C32733   4.603   4.015  12.108  0.3256 -0.4135 -0.1923
  984MOL0     C32734   4.767   4.219  12.154  0.3852 -0.2628  0.4221
  984MOL0     C32735   4.736   4.241  12.288 -0.4587  0.2822  0.0002
  984MOL0     O32736   4.706   4.124  12.348 -0.1755  0.0726 -0.2629
  984MOL0     C32737   4.681   4.106  12.480 -0.5740  0.2405  0.2666
  984MOL0     C32738   4.659   4.204  12.578 -0.0904  0.3682 -0.3009
  984MOL0     C32739   4.642   4.171  12.714  0.0084  0.3774  0.1708
  984MOL0     C32740   4.649   4.035  12.750  0.3295 -0.3007  0.1604
  984MOL0     O32741   4.657   4.003  12.880  0.6392  0.4637  0.4507
  984MOL0     C32742   4.653   3.869  12.929  0.7239 -0.5221  0.1993
  984MOL0     C32743   4.598   3.864  13.072 -0.2142 -0.5658 -0.2437
  984MOL0     C32744   4.477   3.776  13.080 -0.3019 -0.1223  0.0373
  984MOL0     C32745   4.404   3.763  13.213  0.4022  1.0724  0.1029
  984MOL0     C32746   4.275   3.675  13.193 -0.5846  0.7789 -1.2342
  984MOL0     C32747   4.211   3.651  13.326  0.2892  0.2858  0.3298
  984MOL0     C32748   4.293   3.566  13.421 -0.0891 -0.3054  0.8170
  984MOL0     C32749   4.218   3.506  13.540  0.3338 -0.2697 -0.5314
  984MOL0    Cl32750   4.099   3.625  13.609  0.1601  0.0255  0.2572
  984MOL0     C32751   4.659   3.940  12.654 -1.1917  0.1951  0.2780
  984MOL0     C32752   4.663   3.978  12.523 -0.5175  1.1689  0.5646
  984MOL0     O32753   4.752   4.348  12.341  0.0964  0.1336 -0.8580
  984MOL0     C32754   4.869   4.303  12.092  0.0352 -0.3028 -0.6384
  984MOL0     C32755   4.920   4.295  11.955 -0.2336 -0.1712 -0.1909
  984MOL0     N32756   4.819   3.758  11.260  0.1076 -0.1883  0.0316
  984MOL0     N32757   4.868   3.648  11.214  0.0802 -0.4116 -0.3297
  984MOL0     C32758   5.812   4.125  11.263 -0.2702 -0.3095  0.4338
  984MOL0     C32759   5.843   4.240  11.326 -0.2673 -0.0842 -0.1114
  984MOL0     C32760   6.086   4.579  11.507  0.3013 -0.1866  0.3962
  984MOL0     C32761   6.200   4.633  11.561  0.4292 -0.1126 -0.6486
  984MOL0     C32762   6.194   4.758  11.628 -0.1270 -0.7456  0.2973
  984MOL0     C32763   6.068   4.821  11.647 -0.4953  0.4115 -0.0132
  984MOL0     O32764   6.074   4.939  11.709  0.5280 -0.3514  0.2515
  984MOL0     C32765   5.992   5.042  11.657  0.4366  0.1771  0.6909
  984MOL0     C32766   6.021   5.181  11.709  0.1857  0.7232 -0.4393
  984MOL0     C32767   5.898   5.276  11.695 -0.1848 -0.4021  0.7651
  984MOL0     C32768   5.927   5.418  11.744 -0.2173 -0.3138 -0.5168
  984MOL0     C32769   5.938   5.433  11.887  0.0580 -0.9616  0.2582
  984MOL0     C32770   5.969   5.440  12.003  0.3895  0.0288 -0.7762
  984MOL0     C32771   5.956   4.755  11.600  0.6825  0.5150  0.2522
  984MOL0     C32772   5.962   4.632  11.533  0.3654 -0.5663  0.2685
  984MOL0     H32773   6.146   4.290  11.190  0.0194  0.8874  0.5368
  984MOL0     H32774   6.070   4.074  11.061  0.3241 -0.3961  0.8025
  984MOL0     H32775   5.715   3.854  11.236 -0.2657  0.8304 -0.4245
  984MOL0     H32776   5.637   3.925  11.098 -0.9438 -1.2082  0.7972
  984MOL0     H32777   5.747   3.750  10.955  5.5758  1.1253  1.0430
  984MOL0     H32778   5.800   3.667  11.089 -0.5027 -1.4472 -0.0152
  984MOL0     H32779   5.517   3.751  11.027 -0.6085  1.2693  1.5427
  984MOL0     H32780   5.594   3.586  11.006  0.3141 -0.7091  2.1708
  984MOL0     H32781   5.600   3.598  11.272 -0.3333  0.1526 -0.3670
  984MOL0     H32782   5.480   3.733  11.251 -1.3521  0.9734 -1.8534
  984MOL0     H32783   5.415   3.464  11.128 -1.6064  0.6240 -2.6511
  984MOL0     H32784   5.368   3.509  11.285  0.3199 -1.1751 -2.5754
  984MOL0     H32785   5.250   3.702  11.207  1.6455  1.5359 -0.4366
  984MOL0     H32786   5.292   3.645  11.039 -1.7194 -1.3187 -0.6162
  984MOL0     H32787   5.212   3.443  11.062  3.0264 -0.7063  3.6720
  984MOL0     H32788   5.132   3.460  11.223 -0.0459  0.6339  0.7401
  984MOL0     H32789   4.964   3.489  11.042  0.3486 -1.4638  2.4961
  984MOL0     H32790   5.079   3.590  10.963 -3.7057 -3.5168 -2.8471
  984MOL0     H32791   5.065   3.868  11.074 -3.2513  1.0792 -1.4994
  984MOL0     H32792   5.028   4.013  11.292  0.3322  1.2974  0.7452
  984MOL0     H32793   4.857   4.051  11.218 -2.7174 -3.1995 -0.3511
  984MOL0     H32794   4.851   3.916  11.473  2.8505  0.3991  2.3815
  984MOL0     H32795   4.746   4.050  11.406  1.3738  1.6300  0.9346
  984MOL0     H32796   4.910   4.214  11.477 -3.2063 -0.5547 -0.3621
  984MOL0     H32797   5.023   4.096  11.525  0.8966  2.6036 -4.2168
  984MOL0     H32798   4.871   4.009  11.700  0.4492 -1.6169  0.4767
  984MOL0     H32799   4.741   4.116  11.643 -0.1716 -2.9868  1.6506
  984MOL0     H32800   4.706   4.041  11.864 -4.1256  3.3449 -0.2125
  984MOL0     H32801   4.661   3.941  12.163 -0.1220  0.6620  1.8666
  984MOL0     H32802   4.528   4.069  12.167  1.7830  1.1014  0.3307
  984MOL0     H32803   4.562   3.965  12.020 -1.1861 -2.4178  1.5151
  984MOL0     H32804   4.661   4.308  12.548  1.8863  0.5408  0.2564
  984MOL0     H32805   4.645   4.247  12.791  2.6232  1.0709 -0.4974
  984MOL0     H32806   4.574   3.818  12.873  0.2856  3.2365 -3.0293
  984MOL0     H32807   4.755   3.829  12.925  1.2152  0.6851  0.4292
  984MOL0     H32808   4.674   3.851  13.150  0.1787  1.0738 -0.3157
  984MOL0     H32809   4.561   3.965  13.091  0.6264 -0.2815 -0.0545
  984MOL0     H32810   4.516   3.674  13.074 -3.0152 -1.1810 -1.5840
  984MOL0     H32811   4.403   3.803  13.004  0.1859  0.4419 -0.2426
  984MOL0     H32812   4.474   3.719  13.284 -0.4667 -0.0554  0.2875
  984MOL0     H32813   4.379   3.863  13.250  0.2021  0.9522  0.2899
  984MOL0     H32814   4.312   3.580  13.152  0.1943  0.6862 -0.3568
  984MOL0     H32815   4.203   3.707  13.117 -1.6071  0.3982 -0.4512
  984MOL0     H32816   4.181   3.740  13.380  1.0297 -1.5836  4.1743
  984MOL0     H32817   4.121   3.593  13.305  1.2230 -2.1380  2.4448
  984MOL0     H32818   4.365   3.643  13.451 -2.1185  1.3100  1.8128
  984MOL0     H32819   4.348   3.488  13.368 -2.6556 -0.9465 -1.1021
  984MOL0     H32820   4.283   3.497  13.627  0.7146  1.0107 -0.6494
  984MOL0     H32821   4.187   3.406  13.512  3.8844 -1.0710 -2.1519
  984MOL0     H32822   4.651   3.837  12.687 -1.3962  0.6914  1.8457
  984MOL0     H32823   4.682   3.906  12.444 -0.0255  2.2760 -0.3565
  984MOL0     H32824   4.897   4.382  12.161 -1.7758 -0.4245  0.3062
  984MOL0     H32825   4.980   4.365  11.899  0.0849 -1.7849 -1.9360
  984MOL0     H32826   5.720   4.073  11.289 -0.5564 -1.9236 -3.0903
  984MOL0     H32827   5.785   4.287  11.404  3.4607  1.4619  2.0123
  984MOL0     H32828   6.292   4.576  11.569 -0.1532 -0.8389  2.0487
  984MOL0     H32829   6.283   4.814  11.654  0.0041  1.4055 -3.9618
  984MOL0     H32830   5.996   5.036  11.548 -1.5595  0.9426  0.5291
  984MOL0     H32831   5.888   5.020  11.684 -0.3025  1.8280 -0.6736
  984MOL0     H32832   6.109   5.228  11.666  0.4362  2.8208  2.1336
  984MOL0     H32833   6.034   5.154  11.814  1.1702  0.0451 -0.7252
  984MOL0     H32834   5.814   5.247  11.758 -0.7238  4.5440  2.7380
  984MOL0     H32835   5.872   5.288  11.590 -2.0479  3.8833  1.5228
  984MOL0     H32836   5.846   5.483  11.711 -1.0833 -0.8081  0.5315
  984MOL0     H32837   6.017   5.454  11.694 -2.7022  0.6298 -4.7580
  984MOL0     H32838   6.010   5.444  12.102 -3.1546  0.2798  0.8243
  984MOL0     H32839   5.859   4.802  11.616  0.3988  0.2619 -0.6767
  984MOL0     H32840   5.865   4.590  11.508 -0.1464 -0.5654  2.1088
  985MOL0     O32841   0.383  10.633   5.218  0.4560 -0.3245  1.2198
  985MOL0     C32842   0.328  10.523   5.187 -0.5227 -0.4905  0.3430
  985MOL0     O32843   0.277  10.426   5.278  0.6193 -0.3284  0.4069
  985MOL0     C32844   0.293  10.425   5.416  0.8036 -0.2112  0.1550
  985MOL0     C32845   0.388  10.486   5.484 -0.4097 -0.6202  0.6253
  985MOL0     C32846   0.415  10.465   5.617  1.0734 -0.0641  0.1383
  985MOL0     C32847   0.350  10.359   5.679 -0.5822  0.9056 -1.0819
  985MOL0     O32848   0.382  10.344   5.815 -0.2660  0.0072  0.4911
  985MOL0     C32849   0.332  10.231   5.894 -0.2078 -0.1373  0.3273
  985MOL0     C32850   0.399  10.101   5.836 -0.2153  0.2526 -1.2571
  985MOL0     C32851   0.550  10.108   5.848 -0.1283  0.1183  0.3972
  985MOL0     C32852   0.605  10.111   5.993  0.8481  0.1551  0.3196
  985MOL0     C32853   0.757  10.123   5.985  0.8038 -0.1114 -0.3603
  985MOL0     C32854   0.811  10.164   6.122  0.0552 -0.0120  0.9034
  985MOL0     C32855   0.963  10.184   6.128 -0.0436  0.2014 -0.7520
  985MOL0     C32856   1.006  10.175   6.279 -0.0893 -0.7127  0.4061
  985MOL0     N32857   1.044  10.306   6.348  0.5988  0.0270  0.5519
  985MOL0     C32858   1.114  10.416   6.300  0.1777  1.3246  0.2552
  985MOL0     C32859   1.105  10.507   6.395 -0.1174  0.1594  0.0897
  985MOL0     C32860   1.166  10.647   6.387  0.0207  0.0118 -0.0725
  985MOL0     C32861   1.107  10.751   6.473  0.5402 -0.1102 -0.9275
  985MOL0     C32862   0.957  10.774   6.438 -0.3045  0.2693 -0.6226
  985MOL0     C32863   0.879  10.813   6.566  0.4113  0.6691  0.8759
  985MOL0     O32864   0.927  10.937   6.614  0.2747  0.4063  0.9037
  985MOL0     C32865   0.867  10.986   6.730 -0.3103  0.5832  0.3311
  985MOL0     C32866   0.763  10.938   6.803  0.2817 -0.9331  0.1493
  985MOL0     C32867   0.710  11.003   6.914  0.3356 -0.3862  0.8848
  985MOL0     C32868   0.582  10.954   6.970  0.4354  0.3630  0.5115
  985MOL0     C32869   0.780  11.106   6.965 -1.3789 -0.2080 -0.7385
  985MOL0     C32870   0.745  11.170   7.092  0.9121 -0.2574 -0.0816
  985MOL0     O32871   0.624  11.244   7.087  0.4479  0.6476 -0.6816
  985MOL0     C32872   0.613  11.340   7.186 -1.1932 -0.4079 -0.3017
  985MOL0     C32873   0.509  11.328   7.274 -0.7768 -0.4251 -0.2163
  985MOL0     C32874   0.488  11.432   7.364  0.1054  0.1061  0.2745
  985MOL0     C32875   0.579  11.544   7.380 -0.3024  0.0059  0.3398
  985MOL0     O32876   0.533  11.643   7.456 -0.1560 -0.2541  0.1054
  985MOL0     C32877   0.545  11.782   7.401  0.2864  0.0676  0.1676
  985MOL0     C32878   0.530  11.899   7.499 -0.9191  0.0851 -0.2629
  985MOL0     C32879   0.414  11.867   7.601 -0.6962 -0.1197  0.6171
  985MOL0     C32880   0.474  11.794   7.720  0.3160  0.0266  0.7997
  985MOL0     C32881   0.382  11.730   7.813  0.5566 -1.0653  0.2634
  985MOL0     C32882   0.285  11.835   7.870 -0.2435 -0.5771  0.4894
  985MOL0     C32883   0.205  11.800   7.996  0.1431  0.8354  0.6484
  985MOL0     C32884   0.084  11.885   8.034 -0.6422  0.7388 -0.4832
  985MOL0    Cl32885   0.038  11.833   8.200  0.4446 -0.5536  0.1184
  985MOL0     C32886   0.681  11.552   7.291  0.3398 -0.7918 -0.3776
  985MOL0     C32887   0.699  11.457   7.191  0.0494 -0.0391 -0.5508
  985MOL0     O32888   0.819  11.149   7.185 -0.8998 -0.5863 -0.2057
  985MOL0     C32889   0.904  11.143   6.903  0.3488 -0.1335 -0.0287
  985MOL0     C32890   0.941  11.096   6.783  0.1913  0.3511  0.4980
  985MOL0     N32891   1.052  10.456   6.512  0.0011 -0.1881  0.8790
  985MOL0     N32892   1.010  10.338   6.483 -0.0290 -0.5248  0.2377
  985MOL0     C32893   0.253  10.285   5.611 -0.3415 -0.2725  0.0801
  985MOL0     C32894   0.217  10.331   5.484 -0.6171  0.1787 -0.8144
  985MOL0     C32895   0.300  10.508   5.043 -1.3885  0.6486 -0.4080
  985MOL0     C32896   0.362  10.576   4.943 -0.6209  0.4115 -0.0627
  985MOL0     C32897   0.329  10.568   4.808  0.2175 -0.9976  0.4886
  985MOL0     C32898   0.220  10.490   4.772 -0.7811 -0.1943 -0.0723
  985MOL0     O32899   0.175  10.468   4.640 -0.2560  0.5112  0.6768
  985MOL0     C32900   0.224  10.556   4.531 -0.6980 -0.0087  0.3214
  985MOL0     C32901   0.357  10.500   4.490 -0.9539  0.5226 -0.4688
  985MOL0     C32902   0.373  10.496   4.342  0.7408 -0.4189 -0.3553
  985MOL0     C32903   0.526  10.468   4.315 -0.0370  0.0534 -0.8001
  985MOL0     C32904   0.573  10.342   4.370  0.5589 -0.0289  0.6890
  985MOL0     C32905   0.622  10.231   4.396  0.3418 -0.4778 -0.0967
  985MOL0     C32906   0.158  10.411   4.871 -0.3519  0.8031 -0.7400
  985MOL0     C32907   0.200  10.425   5.005 -1.0935  0.2024 -0.3257
  985MOL0     H32908   0.453  10.562   5.441 -2.3695  0.0510 -1.3271
  985MOL0     H32909   0.470  10.529   5.685  1.5452 -0.8593  0.5230
  985MOL0     H32910   0.372  10.246   5.994 -1.3760  1.9908  0.5278
  985MOL0     H32911   0.223  10.237   5.898 -0.2848 -1.7200  1.4269
  985MOL0     H32912   0.362  10.011   5.885 -1.1862  0.4773 -1.5501
  985MOL0     H32913   0.378  10.088   5.729 -0.7819  1.8091 -1.3682
  985MOL0     H32914   0.592  10.014   5.810  3.5633  1.6901  0.1261
  985MOL0     H32915   0.580  10.195   5.788 -2.5839  2.4695  2.3644
  985MOL0     H32916   0.567  10.189   6.059 -1.0557 -1.6619  1.4825
  985MOL0     H32917   0.568  10.020   6.039  0.3256  1.1361  1.9179
  985MOL0     H32918   0.797  10.033   5.936  1.5266  0.0855 -0.1392
  985MOL0     H32919   0.763  10.208   5.917 -1.9787  0.1263 -0.4215
  985MOL0     H32920   0.766  10.261   6.147  0.5783  0.3587  0.4347
  985MOL0     H32921   0.789  10.087   6.196 -2.4136 -0.4743 -0.2022
  985MOL0     H32922   1.009  10.100   6.075 -0.6574 -0.3878 -0.3778
  985MOL0     H32923   0.985  10.281   6.084  2.3296 -0.2628 -0.7231
  985MOL0     H32924   1.095  10.111   6.287  0.8110  0.5917  1.2674
  985MOL0     H32925   0.933  10.127   6.343 -0.9280 -0.3237 -0.2441
  985MOL0     H32926   1.170  10.428   6.208  1.0666 -0.8693  0.4391
  985MOL0     H32927   1.271  10.639   6.417 -0.0806  2.4300  1.1648
  985MOL0     H32928   1.161  10.688   6.286  1.4318  1.1435  0.2736
  985MOL0     H32929   1.169  10.841   6.479  0.9197 -0.3413 -1.3299
  985MOL0     H32930   1.116  10.706   6.572 -0.5412 -1.6069 -1.4729
  985MOL0     H32931   0.913  10.677   6.410  0.8086 -1.0094  1.7312
  985MOL0     H32932   0.952  10.837   6.349  1.0988 -2.1653 -2.5717
  985MOL0     H32933   0.879  10.726   6.632 -1.9649  0.2227  0.3792
  985MOL0     H32934   0.775  10.814   6.533  0.5817 -0.9990  0.1945
  985MOL0     H32935   0.708  10.853   6.766  2.6255 -1.9472 -1.2304
  985MOL0     H32936   0.593  10.925   7.075 -2.2237 -2.3379  0.1776
  985MOL0     H32937   0.502  11.029   6.970 -2.3998 -2.3993  2.1823
  985MOL0     H32938   0.544  10.869   6.914 -4.1752  2.9118 -0.7539
  985MOL0     H32939   0.429  11.255   7.263 -1.3397  0.4676 -2.8657
  985MOL0     H32940   0.399  11.444   7.424 -1.1632  2.8794 -1.9571
  985MOL0     H32941   0.637  11.795   7.343 -0.6518 -1.7953 -1.8720
  985MOL0     H32942   0.459  11.784   7.333  0.4180  3.1335 -0.0492
  985MOL0     H32943   0.620  11.921   7.557 -0.4299 -1.1171 -0.5313
  985MOL0     H32944   0.499  11.985   7.439  2.6625  1.9462  0.3157
  985MOL0     H32945   0.339  11.809   7.546  1.3825  1.2631 -4.2976
  985MOL0     H32946   0.370  11.961   7.632 -0.2143  0.7992 -1.3334
  985MOL0     H32947   0.540  11.712   7.691  2.0458  1.8513 -0.6706
  985MOL0     H32948   0.528  11.875   7.769  0.2147  3.9687 -4.7951
  985MOL0     H32949   0.444  11.682   7.889  2.5991  0.6262 -0.2441
  985MOL0     H32950   0.321  11.655   7.762 -1.3033 -1.0494  2.2713
  985MOL0     H32951   0.332  11.931   7.891 -1.3754 -0.1799  1.3574
  985MOL0     H32952   0.212  11.854   7.791  2.0103  1.3880 -1.2453
  985MOL0     H32953   0.271  11.798   8.084  0.1718  2.5268  0.7003
  985MOL0     H32954   0.177  11.695   7.984  2.4037  0.1794  0.6341
  985MOL0     H32955  -0.003  11.884   7.969 -1.7313  1.5047  0.9116
  985MOL0     H32956   0.122  11.986   8.051  2.1363  0.2616 -3.0013
  985MOL0     H32957   0.753  11.633   7.291  0.7983 -1.1271 -2.5730
  985MOL0     H32958   0.771  11.464   7.111  1.9107  0.5333  1.0941
  985MOL0     H32959   0.964  11.228   6.933 -0.1109  1.4986 -3.3426
  985MOL0     H32960   1.021  11.123   6.715 -2.1515 -0.3221 -2.7376
  985MOL0     H32961   0.200  10.196   5.644  1.4361 -0.9808  1.1883
  985MOL0     H32962   0.145  10.271   5.430 -0.2140 -0.6071 -0.5055
  985MOL0     H32963   0.440  10.647   4.967 -1.6949  1.9872 -1.0399
  985MOL0     H32964   0.369  10.633   4.731 -0.4535  0.1599  1.0959
  985MOL0     H32965   0.157  10.538   4.447  1.3957  0.3007 -1.5062
  985MOL0     H32966   0.236  10.663   4.549 -1.2128 -0.1044  1.3163
  985MOL0     H32967   0.372  10.400   4.531 -0.5299  0.9168  0.3723
  985MOL0     H32968   0.433  10.553   4.548 -0.2966 -1.5859  0.7181
  985MOL0     H32969   0.360  10.597   4.302 -1.5457  0.1087  1.5006
  985MOL0     H32970   0.314  10.423   4.286 -0.3402  0.4158 -0.3322
  985MOL0     H32971   0.585  10.543   4.368 -1.3345 -1.4904  3.1602
  985MOL0     H32972   0.546  10.464   4.207  1.6597 -0.2673 -0.5009
  985MOL0     H32973   0.661  10.135   4.422 -0.2091 -0.3761  1.1955
  985MOL0     H32974   0.070  10.353   4.846 -2.0597  3.3512 -1.0003
  985MOL0     H32975   0.153  10.356   5.074 -1.0760  1.4256  0.9455
  986MOL0     O32976   2.804   9.425   5.336  0.8642 -0.0416 -0.4526
  986MOL0     C32977   2.726   9.334   5.371 -0.0708 -0.3612 -0.2516
  986MOL0     O32978   2.586   9.326   5.344 -1.2380 -0.1472 -0.1012
  986MOL0     C32979   2.534   9.422   5.265  0.2204  0.0912 -0.6095
  986MOL0     C32980   2.434   9.504   5.327  0.7088 -0.1362 -0.0700
  986MOL0     C32981   2.374   9.613   5.259  0.1214  0.7152  0.1734
  986MOL0     C32982   2.391   9.609   5.113 -0.2892  0.0987  0.2264
  986MOL0     O32983   2.322   9.713   5.048  0.0845  0.5683 -0.3988
  986MOL0     C32984   2.342   9.750   4.911 -0.1444  0.3221 -1.0663
  986MOL0     C32985   2.473   9.842   4.897  0.9735 -0.3414 -0.2989
  986MOL0     C32986   2.499   9.876   4.748 -0.7524 -0.3481  0.3671
  986MOL0     C32987   2.568   9.758   4.673  0.1483  0.3380 -0.8265
  986MOL0     C32988   2.647   9.797   4.546 -0.5974 -0.2324 -0.1075
  986MOL0     C32989   2.544   9.860   4.450  0.2909 -0.5769 -0.5306
  986MOL0     C32990   2.591   9.836   4.312  0.7566  0.6237  0.4194
  986MOL0     C32991   2.493   9.907   4.212 -0.3638 -0.5346  0.4582
  986MOL0     N32992   2.543   9.916   4.076  0.6641  0.6414  0.0475
  986MOL0     C32993   2.604  10.023   4.014  1.2942  1.0410  0.9153
  986MOL0     C32994   2.648   9.973   3.891 -0.4349  0.5792 -0.4255
  986MOL0     C32995   2.744  10.044   3.804 -0.1422 -0.1174  0.6687
  986MOL0     C32996   2.676  10.165   3.731 -0.1407  0.0762 -0.6495
  986MOL0     C32997   2.557  10.124   3.640  1.0315  0.4576  0.5927
  986MOL0     C32998   2.554  10.203   3.507  0.6248 -0.5205 -0.5572
  986MOL0     O32999   2.468  10.156   3.405 -0.3099 -0.1884  0.2615
  986MOL0     C33000   2.510  10.173   3.277 -0.0369 -0.4745  0.0677
  986MOL0     C33001   2.419  10.191   3.176  0.2025  1.2946 -0.2438
  986MOL0     C33002   2.447  10.205   3.041 -0.7386  0.6285  1.0562
  986MOL0     C33003   2.324  10.249   2.956 -0.2539  0.3653  0.1341
  986MOL0     C33004   2.578  10.193   2.998 -1.0726 -0.0944  0.2728
  986MOL0     C33005   2.610  10.217   2.848  0.5611  1.1494  0.0550
  986MOL0     O33006   2.743  10.234   2.821 -0.3103  0.0907 -0.2091
  986MOL0     C33007   2.776  10.225   2.688 -0.7027  0.0394 -1.0060
  986MOL0     C33008   2.854  10.321   2.620 -0.6769  0.3484  0.0960
  986MOL0     C33009   2.896  10.297   2.485  0.1190 -0.5055 -0.0482
  986MOL0     C33010   2.860  10.179   2.416 -0.3315 -0.6051 -0.0981
  986MOL0     O33011   2.897  10.155   2.291  0.6603  0.3065 -0.5966
  986MOL0     C33012   2.890  10.255   2.188 -0.0367 -0.1459 -0.7420
  986MOL0     C33013   2.803  10.199   2.072 -0.7634  0.2460 -0.4506
  986MOL0     C33014   2.785  10.303   1.972 -0.0287  0.6576 -0.6364
  986MOL0     C33015   2.901  10.300   1.869  0.2978 -0.2012  1.0865
  986MOL0     C33016   2.879  10.413   1.758 -0.0038  0.0272 -0.2757
  986MOL0     C33017   2.997  10.412   1.645  0.2100  0.6141 -0.4534
  986MOL0     C33018   2.967  10.528   1.541  0.0757  0.9382 -1.3533
  986MOL0     C33019   3.102  10.585   1.516 -0.0094  0.0269  0.4835
  986MOL0    Cl33020   3.227  10.483   1.441  0.0781  0.2735  0.2349
  986MOL0     C33021   2.777  10.090   2.480 -0.5755  0.3215  0.2973
  986MOL0     C33022   2.745  10.106   2.614 -0.2198 -1.0005  0.0026
  986MOL0     O33023   2.523  10.217   2.763 -0.2422  0.2052 -0.2532
  986MOL0     C33024   2.681  10.170   3.094 -0.0762  1.9117  0.6127
  986MOL0     C33025   2.641  10.153   3.225  0.2050  1.4870  0.4409
  986MOL0     N33026   2.620   9.837   3.895  0.1521 -0.5710  0.0820
  986MOL0     N33027   2.551   9.799   4.000 -0.2253  0.7637 -0.6350
  986MOL0     C33028   2.488   9.521   5.041  0.7185 -0.3908 -0.8926
  986MOL0     C33029   2.555   9.430   5.129 -0.2900 -0.5070 -0.4504
  986MOL0     C33030   2.786   9.243   5.467 -0.4107 -0.7247 -0.6281
  986MOL0     C33031   2.909   9.271   5.543 -0.0627 -0.9806  0.5428
  986MOL0     C33032   2.950   9.182   5.648  0.2405 -0.3991 -1.4029
  986MOL0     C33033   2.889   9.056   5.658  0.3613  0.4979 -0.4216
  986MOL0     O33034   2.920   8.966   5.760  0.7887  0.2975 -0.3270
  986MOL0     C33035   3.034   8.874   5.726 -0.5296  0.2523  0.2627
  986MOL0     C33036   3.170   8.914   5.784  0.1587  0.7933 -0.1218
  986MOL0     C33037   3.279   8.960   5.683  0.2791  0.2195  0.0537
  986MOL0     C33038   3.333   9.098   5.719 -0.1929 -0.4562 -0.3669
  986MOL0     C33039   3.402   9.092   5.847 -0.0998  0.0430 -0.4274
  986MOL0     C33040   3.467   9.077   5.948 -0.0079  0.3358 -0.0471
  986MOL0     C33041   2.780   9.033   5.575 -0.9474  0.0848  0.3408
  986MOL0     C33042   2.727   9.115   5.486  0.0927  0.1163 -0.0115
  986MOL0     H33043   2.411   9.506   5.433 -1.3383 -1.1391 -0.4392
  986MOL0     H33044   2.302   9.678   5.308  1.5846  1.9792  0.7208
  986MOL0     H33045   2.357   9.662   4.848  1.7274 -0.7333  0.6961
  986MOL0     H33046   2.270   9.825   4.880  0.2568  2.1016  1.9164
  986MOL0     H33047   2.452   9.927   4.963  0.0649  0.1737 -1.2273
  986MOL0     H33048   2.548   9.777   4.943 -1.6423 -2.6041  1.0929
  986MOL0     H33049   2.406   9.898   4.695 -0.6415  2.5389  1.2047
  986MOL0     H33050   2.559   9.968   4.738  0.9061 -1.4814 -0.6899
  986MOL0     H33051   2.641   9.730   4.749 -1.9200  2.1716  2.0353
  986MOL0     H33052   2.492   9.680   4.662  0.1235  0.4064 -1.1523
  986MOL0     H33053   2.733   9.862   4.565 -0.0551 -1.0003  0.1062
  986MOL0     H33054   2.693   9.709   4.501  0.2974  1.0627 -1.8544
  986MOL0     H33055   2.450   9.806   4.464  0.8976 -2.5294 -3.1066
  986MOL0     H33056   2.537   9.969   4.458  0.8316 -0.5277 -0.7020
  986MOL0     H33057   2.698   9.851   4.294  0.5120 -0.3496 -2.4733
  986MOL0     H33058   2.587   9.732   4.279  1.1661  0.5200  0.6863
  986MOL0     H33059   2.483  10.009   4.250 -0.3228 -0.7180  0.9628
  986MOL0     H33060   2.398   9.854   4.206 -0.1854 -0.7578 -0.8839
  986MOL0     H33061   2.622  10.126   4.046 -1.6593  2.0131 -0.2136
  986MOL0     H33062   2.827  10.089   3.860 -0.2764  2.6440 -1.1510
  986MOL0     H33063   2.772   9.967   3.732 -0.6123 -0.9990  1.3942
  986MOL0     H33064   2.757  10.207   3.672  0.9133 -0.5218  0.3204
  986MOL0     H33065   2.652  10.237   3.810  1.7812 -0.3463  0.3818
  986MOL0     H33066   2.459  10.142   3.686  0.7840 -2.1587  1.2489
  986MOL0     H33067   2.575  10.019   3.617  1.4054  0.5611  0.4165
  986MOL0     H33068   2.661  10.210   3.484  0.8082  2.3086  0.7943
  986MOL0     H33069   2.523  10.303   3.539  0.6838 -0.6150 -0.1968
  986MOL0     H33070   2.320  10.212   3.216 -1.7151 -6.0325  0.2250
  986MOL0     H33071   2.238  10.247   3.024 -1.8935 -0.8234 -1.8954
  986MOL0     H33072   2.341  10.350   2.917  1.0753 -0.3467 -1.2461
  986MOL0     H33073   2.300  10.197   2.864  0.3219  0.4913 -0.0915
  986MOL0     H33074   2.898  10.398   2.683  2.2892 -2.2909  1.4829
  986MOL0     H33075   2.961  10.374   2.444  1.8563 -1.3535  0.9612
  986MOL0     H33076   2.841  10.344   2.231 -0.4335 -0.9107  0.4503
  986MOL0     H33077   2.995  10.266   2.162  0.4425 -2.7656 -0.1254
  986MOL0     H33078   2.857  10.110   2.038  0.2480 -0.3411  2.3855
  986MOL0     H33079   2.704  10.180   2.114 -1.9449  4.4930 -0.9338
  986MOL0     H33080   2.789  10.402   2.020  0.9533  0.5828 -0.5324
  986MOL0     H33081   2.688  10.281   1.928  0.4195  1.7809 -2.3190
  986MOL0     H33082   2.999  10.300   1.919  2.6516  1.2496 -3.0668
  986MOL0     H33083   2.889  10.213   1.805 -0.1900  1.8645 -1.8036
  986MOL0     H33084   2.874  10.510   1.807 -0.8327 -1.6675  3.3695
  986MOL0     H33085   2.779  10.404   1.715 -0.6980 -0.4503  1.3813
  986MOL0     H33086   3.094  10.425   1.693 -1.2827 -0.2813  3.1533
  986MOL0     H33087   2.991  10.315   1.595 -3.6516  0.6134 -0.3282
  986MOL0     H33088   2.896  10.603   1.579  0.1467 -0.3804  1.7092
  986MOL0     H33089   2.926  10.485   1.450  2.7297 -2.4819 -1.1355
  986MOL0     H33090   3.142  10.626   1.609  1.7445  0.4450 -0.4231
  986MOL0     H33091   3.082  10.680   1.465  0.6603  0.5583  1.2013
  986MOL0     H33092   2.749   9.995   2.436 -1.1493 -1.0342  3.3520
  986MOL0     H33093   2.685  10.032   2.666  0.3028 -1.7919 -0.4882
  986MOL0     H33094   2.783  10.175   3.055 -1.2731  2.9670 -2.7324
  986MOL0     H33095   2.719  10.131   3.298 -1.0955 -0.7992  1.2500
  986MOL0     H33096   2.515   9.533   4.937  0.1658  0.9056 -0.9098
  986MOL0     H33097   2.638   9.371   5.093  2.7119  1.4626  2.6113
  986MOL0     H33098   2.953   9.370   5.537  2.1889 -1.9301  0.5050
  986MOL0     H33099   3.013   9.211   5.732 -3.6833 -2.7348  2.7893
  986MOL0     H33100   3.006   8.775   5.763  2.0706  0.0115  1.7682
  986MOL0     H33101   3.039   8.856   5.618  0.2389 -1.4380  0.5470
  986MOL0     H33102   3.210   8.832   5.844  2.9453  1.7207 -0.5450
  986MOL0     H33103   3.147   8.995   5.855  1.6192  2.3712 -1.3500
  986MOL0     H33104   3.229   8.958   5.586  0.9015 -3.5195 -0.3155
  986MOL0     H33105   3.360   8.890   5.662  1.9710  1.2442  2.6562
  986MOL0     H33106   3.248   9.167   5.730  0.8306  0.5622  1.6642
  986MOL0     H33107   3.402   9.122   5.638 -1.4630  1.0437 -1.0699
  986MOL0     H33108   3.530   9.084   6.034  0.1826  1.4200 -0.2569
  986MOL0     H33109   2.738   8.934   5.589 -0.2516 -0.2015  0.4436
  986MOL0     H33110   2.637   9.086   5.432  0.0354  3.3136 -1.8932
  987MOL0     O33111  11.323   4.172   5.697 -0.5474 -0.4100  0.2785
  987MOL0     C33112  11.234   4.255   5.704  0.1434  0.4040  0.2055
  987MOL0     O33113  11.179   4.310   5.816  0.0005  0.2973  1.0479
  987MOL0     C33114  11.233   4.282   5.935  0.0526  0.4126 -0.0113
  987MOL0     C33115  11.215   4.165   6.017 -0.2545 -0.1131 -0.2188
  987MOL0     C33116  11.278   4.151   6.145 -0.2272 -0.4386 -0.1112
  987MOL0     C33117  11.351   4.260   6.200  0.7440 -0.4209  0.7866
  987MOL0     O33118  11.402   4.263   6.326 -0.4672 -0.0723 -0.1254
  987MOL0     C33119  11.300   4.221   6.422  0.0055 -0.8067  0.1768
  987MOL0     C33120  11.332   4.252   6.565  0.0174 -0.1060  0.1771
  987MOL0     C33121  11.204   4.217   6.640  1.1325 -0.0394 -0.5780
  987MOL0     C33122  11.211   4.264   6.782 -0.5380  0.4986  0.1726
  987MOL0     C33123  11.213   4.155   6.879 -0.9494  0.3053  0.8185
  987MOL0     C33124  11.234   4.203   7.020  0.5604  0.0699 -0.8620
  987MOL0     C33125  11.228   4.082   7.100  0.0421  0.5146 -0.3448
  987MOL0     C33126  11.264   4.100   7.254 -0.1597 -0.2605 -0.1299
  987MOL0     N33127  11.235   3.968   7.324  0.8404 -0.4306 -0.2869
  987MOL0     C33128  11.202   3.977   7.461  0.2748  0.3964 -0.4389
  987MOL0     C33129  11.170   3.853   7.493  0.0644 -0.2589  0.0008
  987MOL0     C33130  11.125   3.824   7.637  0.3716  0.3170 -0.2980
  987MOL0     C33131  11.240   3.816   7.746  0.4154 -0.2397  0.2042
  987MOL0     C33132  11.202   3.767   7.888 -0.9129 -0.0050 -0.0913
  987MOL0     C33133  11.329   3.759   7.976 -0.4658  0.0358  0.5317
  987MOL0     O33134  11.321   3.675   8.089  0.1268 -0.5432 -0.2961
  987MOL0     C33135  11.418   3.668   8.185 -0.5810 -0.7183  0.0134
  987MOL0     C33136  11.546   3.730   8.170  0.5158 -0.2468 -0.7938
  987MOL0     C33137  11.637   3.742   8.270 -0.0320 -0.1870  0.3303
  987MOL0     C33138  11.761   3.812   8.228  0.0921  0.2840  0.7295
  987MOL0     C33139  11.609   3.680   8.389 -0.3654 -0.0002  0.4135
  987MOL0     C33140  11.722   3.659   8.488  0.5672 -0.0090 -0.8034
  987MOL0     O33141  11.679   3.599   8.607  0.9239  0.3251 -0.2795
  987MOL0     C33142  11.758   3.603   8.719  0.6128  0.5593 -0.8312
  987MOL0     C33143  11.876   3.529   8.728 -0.0912 -0.7121 -0.0267
  987MOL0     C33144  11.952   3.522   8.845 -0.0327  0.1563  0.2245
  987MOL0     C33145  11.921   3.601   8.957 -1.1946 -0.6215  0.2092
  987MOL0     O33146  11.994   3.590   9.074  0.0520 -0.6470  0.0375
  987MOL0     C33147  12.103   3.680   9.061  0.3613  0.1870 -0.3889
  987MOL0     C33148  12.192   3.664   9.190  0.3558 -1.0015 -0.4774
  987MOL0     C33149  12.310   3.758   9.184 -0.3297 -0.2422  0.8606
  987MOL0     C33150  12.269   3.895   9.124 -0.3086 -0.0578 -0.5366
  987MOL0     C33151  12.393   3.977   9.102 -0.8522 -0.3441 -0.6941
  987MOL0     C33152  12.374   4.124   9.061 -0.0937 -0.0246 -0.5025
  987MOL0     C33153  12.297   4.137   8.928 -0.0163  0.6755  0.4218
  987MOL0     C33154  12.255   4.273   8.877  0.5160  0.2984 -0.8653
  987MOL0    Cl33155  12.217   4.403   8.993 -0.8179 -0.7424 -0.2275
  987MOL0     C33156  11.806   3.676   8.951  0.1860  0.1430 -0.3220
  987MOL0     C33157  11.727   3.681   8.833  1.1197  0.1911 -0.5785
  987MOL0     O33158  11.839   3.697   8.474  0.0756  0.0307  0.1669
  987MOL0     C33159  11.487   3.608   8.405 -0.9332 -0.4261  0.1146
  987MOL0     C33160  11.398   3.612   8.303 -0.9110 -0.3724  0.3205
  987MOL0     N33161  11.171   3.776   7.376 -0.2724 -0.6712 -0.7955
  987MOL0     N33162  11.211   3.844   7.274  0.5062  0.1258 -0.3755
  987MOL0     C33163  11.380   4.369   6.125  0.4231  0.1317 -0.2515
  987MOL0     C33164  11.319   4.377   6.002 -0.6810 -0.5655  0.3155
  987MOL0     C33165  11.174   4.310   5.582 -0.7370  0.7971  0.2333
  987MOL0     C33166  11.062   4.400   5.592  0.1832 -0.8441  0.7066
  987MOL0     C33167  11.014   4.469   5.478  0.3531 -0.4326  0.1034
  987MOL0     C33168  11.066   4.437   5.351  0.0245  0.6849  0.9884
  987MOL0     O33169  11.035   4.526   5.251 -0.0759  0.4832  0.0004
  987MOL0     C33170  11.001   4.459   5.131 -0.1671 -0.2576 -0.3000
  987MOL0     C33171  10.971   4.560   5.011  0.0270  0.1425  0.4105
  987MOL0     C33172  10.852   4.645   5.037  0.0203  0.4854  0.1798
  987MOL0     C33173  10.831   4.753   4.929  0.3130 -0.4164  0.2485
  987MOL0     C33174  10.927   4.861   4.915  0.7002  0.1755  0.6264
  987MOL0     C33175  11.010   4.945   4.923  0.3925 -0.5008  0.8155
  987MOL0     C33176  11.175   4.342   5.344  0.4436  0.5361 -0.5204
  987MOL0     C33177  11.222   4.270   5.455  0.3938  0.4961 -0.1241
  987MOL0     H33178  11.165   4.083   5.968  3.4064 -1.8729 -1.3912
  987MOL0     H33179  11.249   4.065   6.206  1.4080 -0.5825  0.5171
  987MOL0     H33180  11.199   4.246   6.389  0.6893  1.1936 -0.5651
  987MOL0     H33181  11.303   4.113   6.406  3.2019 -0.5383 -2.0810
  987MOL0     H33182  11.416   4.186   6.591  0.3159 -0.7065 -2.0908
  987MOL0     H33183  11.356   4.358   6.570 -1.8913  0.3082  2.2066
  987MOL0     H33184  11.122   4.273   6.593  0.4141  0.6021  1.3435
  987MOL0     H33185  11.187   4.110   6.645  0.8396  0.0633  1.7167
  987MOL0     H33186  11.286   4.340   6.803  0.1899  0.0050 -0.5844
  987MOL0     H33187  11.114   4.313   6.798  0.6040  1.9589  3.6867
  987MOL0     H33188  11.135   4.078   6.867  1.7937 -2.5110 -0.2206
  987MOL0     H33189  11.296   4.089   6.854 -0.7320  0.9347 -0.1598
  987MOL0     H33190  11.330   4.256   7.019 -0.9490  3.1441  1.1858
  987MOL0     H33191  11.158   4.274   7.055  1.3952  0.5201  0.0993
  987MOL0     H33192  11.132   4.030   7.100  0.1928  0.0871  2.0300
  987MOL0     H33193  11.302   4.015   7.056  2.5495  1.7313  1.7513
  987MOL0     H33194  11.212   4.187   7.295  1.2497 -0.0355  1.2849
  987MOL0     H33195  11.371   4.121   7.267 -0.4419  0.6456  0.8717
  987MOL0     H33196  11.191   4.072   7.511 -1.2677  1.0703 -1.9566
  987MOL0     H33197  11.055   3.904   7.664  2.8814  1.7583  2.3810
  987MOL0     H33198  11.073   3.727   7.636  0.2734  0.3665 -0.0561
  987MOL0     H33199  11.281   3.917   7.735  0.6852 -0.6022 -3.1766
  987MOL0     H33200  11.318   3.751   7.706  0.0282 -0.8632  0.4426
  987MOL0     H33201  11.159   3.668   7.876 -1.7680  0.2073  1.0382
  987MOL0     H33202  11.136   3.835   7.943  1.1740  1.0856  1.2370
  987MOL0     H33203  11.372   3.856   8.002 -0.7798  0.8932 -1.9244
  987MOL0     H33204  11.406   3.714   7.913  0.8405  1.5390  0.9822
  987MOL0     H33205  11.582   3.747   8.069 -1.8590 -0.2341 -1.6901
  987MOL0     H33206  11.750   3.849   8.126 -4.1466  0.4428  1.0911
  987MOL0     H33207  11.761   3.900   8.293  2.6436  0.0090  1.2170
  987MOL0     H33208  11.848   3.746   8.236 -0.6130 -0.7480  0.0835
  987MOL0     H33209  11.895   3.461   8.646 -1.9473 -0.5211 -0.6800
  987MOL0     H33210  12.032   3.450   8.856  0.1905  0.3421 -0.1519
  987MOL0     H33211  12.168   3.654   8.977 -1.1707 -1.9749 -0.9914
  987MOL0     H33212  12.058   3.779   9.049  2.6000  1.3227  0.1349
  987MOL0     H33213  12.125   3.693   9.272  0.0917 -1.6657 -0.4537
  987MOL0     H33214  12.231   3.563   9.197  1.5679 -0.4619  0.9204
  987MOL0     H33215  12.393   3.725   9.120 -0.7256  0.1498  0.1233
  987MOL0     H33216  12.355   3.783   9.280 -0.8208  1.2850  0.7206
  987MOL0     H33217  12.236   3.883   9.021  0.6945  2.5729 -1.2167
  987MOL0     H33218  12.199   3.940   9.195  0.9858 -2.2391  2.3545
  987MOL0     H33219  12.459   3.927   9.030  0.0274  0.1990 -0.2810
  987MOL0     H33220  12.453   3.980   9.194 -1.5753  0.4988 -0.2316
  987MOL0     H33221  12.315   4.180   9.135  0.6702  0.7246 -0.4394
  987MOL0     H33222  12.468   4.179   9.047  0.2959  0.3938  2.9064
  987MOL0     H33223  12.204   4.081   8.935 -1.1563  1.9645 -2.7758
  987MOL0     H33224  12.357   4.089   8.850 -1.6002  0.3948 -0.6721
  987MOL0     H33225  12.163   4.272   8.818 -1.0530  1.6668  1.3950
  987MOL0     H33226  12.334   4.316   8.815 -0.5086  0.1657 -2.3236
  987MOL0     H33227  11.772   3.733   9.038  0.6757 -0.2697  0.1450
  987MOL0     H33228  11.635   3.731   8.804  0.6561 -0.6398 -0.5848
  987MOL0     H33229  11.466   3.542   8.488  0.9624 -1.7573 -0.3861
  987MOL0     H33230  11.305   3.557   8.314 -1.9101  1.2670  0.4364
  987MOL0     H33231  11.428   4.453   6.174 -0.8815  1.2856 -0.8413
  987MOL0     H33232  11.323   4.477   5.960 -1.0844 -0.2620  0.9677
  987MOL0     H33233  11.015   4.422   5.687 -1.9042 -0.3489 -0.3794
  987MOL0     H33234  10.943   4.551   5.481 -0.9294 -1.4279 -1.3993
  987MOL0     H33235  11.081   4.390   5.102  0.5100 -0.0760  1.0728
  987MOL0     H33236  10.914   4.393   5.134 -0.3106 -0.1879 -1.8510
  987MOL0     H33237  10.961   4.511   4.914 -1.8335 -0.4464  0.8641
  987MOL0     H33238  11.061   4.619   4.993  0.4152 -0.9962 -1.7643
  987MOL0     H33239  10.863   4.702   5.129  2.9151  4.2937 -2.2357
  987MOL0     H33240  10.763   4.582   5.028  0.7036 -0.5951  0.7032
  987MOL0     H33241  10.738   4.800   4.962  1.5380  2.8014 -0.4897
  987MOL0     H33242  10.797   4.707   4.836 -2.1005 -0.1981  0.9482
  987MOL0     H33243  11.082   5.021   4.944  0.0632  0.6889 -1.9618
  987MOL0     H33244  11.211   4.322   5.243 -0.3924 -0.1166 -0.7011
  987MOL0     H33245  11.300   4.194   5.450 -0.8563 -0.8524  0.3323
  988MOL0     O33246   9.559  10.080   4.535  0.4385 -0.2264 -0.0842
  988MOL0     C33247   9.443  10.104   4.578 -0.1815 -0.9598 -0.9669
  988MOL0     O33248   9.377  10.223   4.556 -0.4335  0.3044 -0.7391
  988MOL0     C33249   9.437  10.322   4.490 -0.2141 -0.1557 -0.8312
  988MOL0     C33250   9.379  10.370   4.368 -0.0241 -0.0299 -0.1993
  988MOL0     C33251   9.432  10.474   4.290  0.0570 -0.9578 -0.5289
  988MOL0     C33252   9.554  10.536   4.332 -0.0628  0.5689 -0.2644
  988MOL0     O33253   9.628  10.632   4.258 -0.4292  0.4873  0.3574
  988MOL0     C33254   9.576  10.679   4.135  0.3654  0.0095  0.0853
  988MOL0     C33255   9.699  10.715   4.055 -1.2212  0.6826  0.1371
  988MOL0     C33256   9.675  10.757   3.914 -0.1439 -0.1495 -0.8778
  988MOL0     C33257   9.793  10.799   3.834 -0.7509  0.6332 -0.6431
  988MOL0     C33258   9.908  10.701   3.838 -0.3802 -0.0784 -0.1892
  988MOL0     C33259  10.007  10.733   3.741 -0.6679  0.0898  0.5676
  988MOL0     C33260  10.110  10.844   3.776  0.7244 -0.3862  0.7741
  988MOL0     C33261  10.214  10.878   3.662 -0.2568  0.7881 -0.0731
  988MOL0     N33262  10.305  10.990   3.715  0.6515  0.0367 -0.2314
  988MOL0     C33263  10.447  10.972   3.712  0.9886  0.0754 -0.2679
  988MOL0     C33264  10.496  11.090   3.761  0.6100  0.0910  0.0624
  988MOL0     C33265  10.641  11.117   3.800 -0.1676 -0.5414 -0.6559
  988MOL0     C33266  10.717  11.185   3.686  0.9733 -0.4332  0.2927
  988MOL0     C33267  10.801  11.298   3.740 -0.1746  0.3653  0.1437
  988MOL0     C33268  10.921  11.246   3.820  0.3320 -1.0425 -0.7016
  988MOL0     O33269  11.005  11.358   3.828 -0.7604 -0.4436  0.1699
  988MOL0     C33270  11.040  11.382   3.956 -0.3494 -0.2473 -0.2805
  988MOL0     C33271  10.946  11.438   4.051 -0.4134  0.3253  1.1604
  988MOL0     C33272  10.988  11.464   4.177  0.3239 -0.6225  0.1463
  988MOL0     C33273  10.874  11.519   4.263  0.5008 -0.1397 -0.0508
  988MOL0     C33274  11.123  11.463   4.214 -0.4581  0.3059  0.6140
  988MOL0     C33275  11.185  11.522   4.348 -0.4302 -1.2027  0.7439
  988MOL0     O33276  11.317  11.560   4.348 -0.0554 -0.1581 -0.5173
  988MOL0     C33277  11.398  11.544   4.457 -0.2172 -0.2433 -0.5800
  988MOL0     C33278  11.528  11.475   4.456  0.2985 -0.0190 -1.1950
  988MOL0     C33279  11.590  11.470   4.573  0.2809 -0.4501 -1.3066
  988MOL0     C33280  11.553  11.539   4.688 -0.5174  0.2501  0.3415
  988MOL0     O33281  11.630  11.524   4.803 -0.1923  0.2339 -0.3250
  988MOL0     C33282  11.602  11.599   4.923  0.4665  0.1432 -0.2411
  988MOL0     C33283  11.687  11.564   5.035  0.3174  0.6314  0.3775
  988MOL0     C33284  11.835  11.624   5.027 -0.2088  0.0120  0.3357
  988MOL0     C33285  11.928  11.547   4.921  1.3610 -0.2292 -0.7623
  988MOL0     C33286  12.071  11.592   4.951 -0.0973  1.3453  0.4803
  988MOL0     C33287  12.100  11.740   4.948 -0.2230 -1.1337 -0.4318
  988MOL0     C33288  12.259  11.753   4.949 -0.2228 -0.5403  0.5166
  988MOL0     C33289  12.303  11.886   4.880  0.2154 -0.3770  0.1519
  988MOL0    Cl33290  12.253  11.903   4.709 -0.1459  0.5263 -0.1984
  988MOL0     C33291  11.439  11.627   4.683 -0.5132 -0.2558 -0.1686
  988MOL0     C33292  11.361  11.626   4.570  0.0935  1.0302 -0.0357
  988MOL0     O33293  11.115  11.511   4.448  0.0991  0.9721 -1.0756
  988MOL0     C33294  11.220  11.415   4.123  0.2049  0.6896  0.0373
  988MOL0     C33295  11.177  11.380   4.000 -0.0217 -0.8877 -0.4298
  988MOL0     N33296  10.383  11.166   3.792 -0.8552  0.0529  0.6977
  988MOL0     N33297  10.273  11.118   3.756 -1.1496  0.2077  0.2006
  988MOL0     C33298   9.612  10.489   4.451  0.4298 -0.2389  0.4691
  988MOL0     C33299   9.552  10.386   4.530  0.1253 -0.3320 -0.0347
  988MOL0     C33300   9.372  10.004   4.654 -0.6568  1.2374  1.0941
  988MOL0     C33301   9.451   9.909   4.715 -0.4761  0.4874 -0.8830
  988MOL0     C33302   9.385   9.807   4.795 -0.1353 -0.1299  0.1151
  988MOL0     C33303   9.247   9.801   4.815  0.1008  0.6927  0.5267
  988MOL0     O33304   9.181   9.713   4.907  0.0651 -0.1261 -0.1879
  988MOL0     C33305   9.260   9.627   4.975  0.4353 -0.6585 -0.6826
  988MOL0     C33306   9.172   9.536   5.057 -0.2002 -0.9050  0.5043
  988MOL0     C33307   9.110   9.610   5.170 -1.8531 -0.4214  0.1460
  988MOL0     C33308   9.049   9.512   5.270 -0.0648  1.4524  0.0145
  988MOL0     C33309   9.001   9.577   5.396 -1.0415 -0.3135  0.4795
  988MOL0     C33310   8.973   9.660   5.483 -0.7314  0.7639  0.5879
  988MOL0     C33311   9.172   9.904   4.753 -0.0909  0.5954  0.1423
  988MOL0     C33312   9.234  10.002   4.669 -0.3729  0.4687  0.6506
  988MOL0     H33313   9.280  10.332   4.345 -0.8484  0.8731  1.6556
  988MOL0     H33314   9.374  10.491   4.200 -1.1886 -2.3278 -0.0300
  988MOL0     H33315   9.526  10.600   4.078 -1.1015  1.5225 -0.8087
  988MOL0     H33316   9.509  10.765   4.146 -3.6551 -2.5426 -2.0142
  988MOL0     H33317   9.756  10.785   4.117 -1.5473 -0.1640  1.4458
  988MOL0     H33318   9.762  10.626   4.049 -0.8179  0.5614  3.9820
  988MOL0     H33319   9.638  10.668   3.861 -1.1067 -0.9718  1.0520
  988MOL0     H33320   9.604  10.840   3.917  2.6829  2.4456  0.5833
  988MOL0     H33321   9.751  10.818   3.735  1.3248  0.9472 -1.5151
  988MOL0     H33322   9.825  10.890   3.885  1.4015  0.0401 -0.8301
  988MOL0     H33323   9.958  10.702   3.935  1.7435 -2.6240 -1.1373
  988MOL0     H33324   9.873  10.598   3.827 -0.8483  0.1741 -1.1482
  988MOL0     H33325  10.062  10.643   3.713  1.9110  1.1556  1.9201
  988MOL0     H33326   9.964  10.774   3.649  1.8631  0.2962 -0.6155
  988MOL0     H33327  10.069  10.938   3.815  3.1167  2.1042 -2.2280
  988MOL0     H33328  10.168  10.794   3.854 -0.6330 -1.9304  0.8428
  988MOL0     H33329  10.155  10.913   3.576  2.0627  2.4737 -1.0906
  988MOL0     H33330  10.266  10.787   3.630 -2.3029 -0.0928 -1.0656
  988MOL0     H33331  10.500  10.886   3.674  0.1479 -0.0572 -1.1901
  988MOL0     H33332  10.637  11.188   3.883  1.9904 -2.6100  1.3761
  988MOL0     H33333  10.692  11.027   3.837  0.6559  0.6918  1.3638
  988MOL0     H33334  10.641  11.225   3.619  1.1376  0.5494  0.6761
  988MOL0     H33335  10.777  11.106   3.640  2.6524  0.9884 -0.0914
  988MOL0     H33336  10.739  11.368   3.798  0.2419  2.2861 -1.5833
  988MOL0     H33337  10.836  11.363   3.660 -1.0998 -0.2037 -0.7458
  988MOL0     H33338  10.966  11.158   3.773  0.8384 -0.9211 -0.4521
  988MOL0     H33339  10.883  11.205   3.914 -4.4019 -1.0505 -2.3661
  988MOL0     H33340  10.848  11.467   4.013  0.7290  4.4155  0.8274
  988MOL0     H33341  10.782  11.516   4.206 -0.1988  0.6292  1.0041
  988MOL0     H33342  10.867  11.446   4.344 -3.5596 -2.8677 -2.5109
  988MOL0     H33343  10.901  11.618   4.299 -5.2057  0.9845  2.1223
  988MOL0     H33344  11.578  11.414   4.382 -0.2605 -0.9958 -0.7944
  988MOL0     H33345  11.673  11.400   4.569  1.4171  0.8955 -2.6979
  988MOL0     H33346  11.624  11.706   4.914  0.7677  0.2288  1.2902
  988MOL0     H33347  11.499  11.579   4.954  1.1906 -0.9051  1.6212
  988MOL0     H33348  11.644  11.603   5.127 -0.9240 -0.7439  0.4263
  988MOL0     H33349  11.695  11.456   5.050 -2.7881  0.1192 -0.8347
  988MOL0     H33350  11.886  11.619   5.123  1.7334  1.9708 -0.5150
  988MOL0     H33351  11.822  11.730   5.003 -1.6161 -0.2620 -0.2903
  988MOL0     H33352  11.905  11.440   4.930 -2.7843  0.4013 -1.6691
  988MOL0     H33353  11.911  11.572   4.816 -0.2735 -0.4299 -0.5788
  988MOL0     H33354  12.126  11.561   4.862  2.9153 -1.3695  3.0268
  988MOL0     H33355  12.106  11.554   5.047  3.9741 -0.0339 -1.3612
  988MOL0     H33356  12.050  11.794   4.867 -1.0011  0.5043  1.0613
  988MOL0     H33357  12.073  11.799   5.036  0.8737 -1.6699  0.2884
  988MOL0     H33358  12.317  11.672   4.902  0.7546 -0.9094  2.2779
  988MOL0     H33359  12.291  11.761   5.053 -0.2174  1.9100  0.3666
  988MOL0     H33360  12.411  11.904   4.890  0.4861 -1.7110 -0.2719
  988MOL0     H33361  12.265  11.974   4.934  4.6144  1.2527  1.0603
  988MOL0     H33362  11.413  11.684   4.772  1.0440  0.0714  0.1109
  988MOL0     H33363  11.265  11.677   4.569 -0.0033  0.8531 -1.3038
  988MOL0     H33364  11.325  11.397   4.146 -0.2888  0.4912  2.4372
  988MOL0     H33365  11.247  11.334   3.931  0.5694 -3.2038  1.5889
  988MOL0     H33366   9.700  10.542   4.486 -1.0242  2.1368  0.7238
  988MOL0     H33367   9.611  10.369   4.620 -0.2394  2.7859  0.9307
  988MOL0     H33368   9.559   9.913   4.711 -0.4679 -0.3890 -3.6728
  988MOL0     H33369   9.461   9.736   4.828  1.9136  1.4707 -0.9228
  988MOL0     H33370   9.316   9.569   4.901  0.1561 -0.7925 -0.7937
  988MOL0     H33371   9.330   9.683   5.037 -2.3200  0.8359  1.2932
  988MOL0     H33372   9.214   9.446   5.102 -0.8611 -0.7055  1.5832
  988MOL0     H33373   9.092   9.495   4.995 -2.5121  1.7408  1.5153
  988MOL0     H33374   9.030   9.676   5.132 -0.1556  1.3156 -0.5997
  988MOL0     H33375   9.184   9.671   5.222 -2.1841 -0.8065  1.0902
  988MOL0     H33376   9.106   9.421   5.287 -0.2624  1.2700 -0.2796
  988MOL0     H33377   8.956   9.489   5.216  1.7830 -1.3403 -2.2431
  988MOL0     H33378   8.938   9.700   5.576  3.0221  1.7415  1.7748
  988MOL0     H33379   9.066   9.904   4.780 -0.2214 -0.9026 -0.2648
  988MOL0     H33380   9.168  10.080   4.631 -0.3744  0.2944  0.2943
  989MOL0     O33381   8.919   4.492   6.169  0.2777 -0.2519 -0.2419
  989MOL0     C33382   8.887   4.600   6.219 -0.0152 -0.1163 -0.4129
  989MOL0     O33383   8.854   4.619   6.349 -0.6731 -0.0098 -0.2473
  989MOL0     C33384   8.885   4.516   6.427  0.0692  0.4368  0.1722
  989MOL0     C33385   9.011   4.480   6.471  0.3201  0.1314  0.0799
  989MOL0     C33386   9.024   4.359   6.540 -0.8250  0.0719 -0.0185
  989MOL0     C33387   8.920   4.271   6.574 -0.8867 -0.3995 -1.0510
  989MOL0     O33388   8.945   4.151   6.638 -0.4939  0.1225 -0.2403
  989MOL0     C33389   8.994   4.169   6.768  0.3603 -0.1215 -0.5950
  989MOL0     C33390   9.002   4.027   6.839  0.1304  0.5084 -0.2698
  989MOL0     C33391   8.875   3.958   6.888 -0.7344  0.4128  0.6057
  989MOL0     C33392   8.777   4.038   6.977  0.3262  0.0419  0.5438
  989MOL0     C33393   8.689   4.128   6.897  0.4747 -0.5715 -1.9132
  989MOL0     C33394   8.582   4.203   6.976 -0.0045  0.3630  0.5910
  989MOL0     C33395   8.475   4.107   7.017 -0.1372  0.1820  0.8296
  989MOL0     C33396   8.380   4.179   7.111 -0.0394  0.2178  0.2742
  989MOL0     N33397   8.436   4.248   7.231 -0.4634  0.1944 -0.3794
  989MOL0     C33398   8.545   4.225   7.326  0.9839  0.3108  0.3936
  989MOL0     C33399   8.532   4.327   7.417 -0.0509  1.2401  1.3776
  989MOL0     C33400   8.617   4.323   7.537 -0.7267 -0.0070 -1.2038
  989MOL0     C33401   8.555   4.285   7.667  0.1588 -0.1219  0.9339
  989MOL0     C33402   8.423   4.358   7.697  0.2454 -1.1797  0.2606
  989MOL0     C33403   8.366   4.336   7.835 -0.1786  0.1429 -0.5469
  989MOL0     O33404   8.448   4.402   7.933  0.3238  0.1412 -0.3480
  989MOL0     C33405   8.438   4.363   8.055 -0.4031  0.9413 -0.0129
  989MOL0     C33406   8.555   4.341   8.127 -0.9519 -0.0285 -0.1707
  989MOL0     C33407   8.557   4.312   8.267  0.2312  0.1543 -0.4728
  989MOL0     C33408   8.685   4.342   8.333  0.0847 -0.2438 -0.2086
  989MOL0     C33409   8.443   4.264   8.324  0.0316  0.3300 -0.1548
  989MOL0     C33410   8.439   4.181   8.454 -1.0936 -0.1398  1.2408
  989MOL0     O33411   8.314   4.146   8.494 -0.0167 -0.4459  0.1184
  989MOL0     C33412   8.321   4.054   8.596  0.1257 -0.5107  0.4572
  989MOL0     C33413   8.264   4.089   8.718 -0.2999  0.0851 -0.5387
  989MOL0     C33414   8.265   4.001   8.828 -0.3879  0.4911  0.4782
  989MOL0     C33415   8.315   3.869   8.820 -1.0929 -0.0537  0.5160
  989MOL0     O33416   8.324   3.791   8.935  0.1169  0.0024  0.1505
  989MOL0     C33417   8.436   3.702   8.935 -0.1720 -0.6343  0.6096
  989MOL0     C33418   8.464   3.656   9.077  0.3522 -0.7876  0.1053
  989MOL0     C33419   8.330   3.617   9.152 -0.7236 -0.1241  0.2318
  989MOL0     C33420   8.351   3.550   9.280 -0.2113 -0.0505 -0.1225
  989MOL0     C33421   8.227   3.546   9.366 -0.0215  0.3206  0.7752
  989MOL0     C33422   8.256   3.480   9.496 -0.3473  0.0911 -0.8029
  989MOL0     C33423   8.338   3.580   9.591  0.7055  0.0274  0.4979
  989MOL0     C33424   8.460   3.513   9.655  0.7824 -0.9068  0.5065
  989MOL0    Cl33425   8.399   3.402   9.785  0.3373  0.0043 -0.1708
  989MOL0     C33426   8.354   3.826   8.694 -0.0915  0.1845  0.2746
  989MOL0     C33427   8.359   3.922   8.586  0.0685 -0.1625 -0.2681
  989MOL0     O33428   8.547   4.172   8.516 -0.3504 -0.6483  0.2460
  989MOL0     C33429   8.325   4.298   8.259  0.0740 -0.2450  0.1920
  989MOL0     C33430   8.320   4.339   8.125 -0.5851  0.1214  0.1724
  989MOL0     N33431   8.439   4.416   7.378  0.2953 -0.1748 -0.1283
  989MOL0     N33432   8.391   4.374   7.267 -0.1448 -0.0691 -0.3252
  989MOL0     C33433   8.792   4.315   6.541  1.2608  0.5698 -0.1179
  989MOL0     C33434   8.779   4.423   6.465 -0.1489  0.2448  0.3384
  989MOL0     C33435   8.871   4.717   6.120 -0.8846  0.9153  0.4385
  989MOL0     C33436   8.903   4.707   5.984  0.7407  0.0252 -0.2425
  989MOL0     C33437   8.876   4.825   5.911  0.6807  0.6989  0.4590
  989MOL0     C33438   8.833   4.946   5.948  0.8237 -0.1881 -1.0816
  989MOL0     O33439   8.806   5.046   5.858 -0.1760  0.9753  0.4157
  989MOL0     C33440   8.718   5.161   5.887 -0.5611  0.7021 -0.2292
  989MOL0     C33441   8.814   5.277   5.923  0.1608 -0.7900  0.0332
  989MOL0     C33442   8.738   5.410   5.955  0.0127  0.6940  0.5737
  989MOL0     C33443   8.812   5.491   6.061  0.0407 -0.3781  0.5369
  989MOL0     C33444   8.724   5.607   6.076 -0.0449  0.0392  0.2792
  989MOL0     C33445   8.644   5.698   6.083  0.1585 -0.2919 -0.0838
  989MOL0     C33446   8.813   4.960   6.084 -0.4539 -0.1678 -0.7575
  989MOL0     C33447   8.822   4.841   6.163 -0.2453 -0.3965  0.1814
  989MOL0     H33448   9.088   4.551   6.439  0.3635 -0.8668 -2.2892
  989MOL0     H33449   9.126   4.332   6.567 -0.5074  1.3838  0.1892
  989MOL0     H33450   9.090   4.220   6.772 -0.8050  2.3266  3.7787
  989MOL0     H33451   8.933   4.246   6.818  0.1574  0.8557 -2.2770
  989MOL0     H33452   9.059   3.955   6.779 -1.0259 -1.1709  0.5841
  989MOL0     H33453   9.052   4.042   6.935 -0.5405  0.1604  0.1384
  989MOL0     H33454   8.831   3.896   6.809 -1.6955 -0.7153  1.9700
  989MOL0     H33455   8.917   3.878   6.950  0.1534  2.6600  3.0959
  989MOL0     H33456   8.717   3.964   7.031 -1.6724  0.4030 -1.0684
  989MOL0     H33457   8.831   4.102   7.047  2.2221  3.4023 -3.5196
  989MOL0     H33458   8.753   4.208   6.859  2.0268 -0.8682 -0.0813
  989MOL0     H33459   8.653   4.064   6.817 -0.7144 -0.4508 -1.4902
  989MOL0     H33460   8.616   4.255   7.066 -1.3988  0.3362  1.1580
  989MOL0     H33461   8.540   4.278   6.908 -0.2062 -0.8113 -0.6270
  989MOL0     H33462   8.421   4.065   6.931 -0.2453  1.6985  0.1300
  989MOL0     H33463   8.524   4.021   7.063 -0.3036 -0.8473 -0.8209
  989MOL0     H33464   8.312   4.107   7.156  0.1047  1.4067  2.5493
  989MOL0     H33465   8.313   4.246   7.056 -3.9590 -2.0970  1.7663
  989MOL0     H33466   8.621   4.148   7.321  1.2438  0.3057  2.9750
  989MOL0     H33467   8.709   4.263   7.530  0.2968  1.0975  1.2716
  989MOL0     H33468   8.645   4.428   7.549  1.9700 -0.7286 -0.2910
  989MOL0     H33469   8.610   4.318   7.755 -0.3677  0.3629  1.0837
  989MOL0     H33470   8.536   4.178   7.657 -1.1442  0.1991 -0.6115
  989MOL0     H33471   8.347   4.331   7.623 -0.1717 -0.0122  0.2471
  989MOL0     H33472   8.432   4.466   7.684  0.1758 -1.5646 -5.0597
  989MOL0     H33473   8.344   4.233   7.862 -2.8140  0.8271  0.1571
  989MOL0     H33474   8.271   4.391   7.832  0.4858  1.3124 -1.1995
  989MOL0     H33475   8.649   4.357   8.076  0.2320 -0.3939  1.7882
  989MOL0     H33476   8.747   4.255   8.356  1.8453 -0.0736 -3.6338
  989MOL0     H33477   8.760   4.402   8.281  3.4118 -1.7790  2.4382
  989MOL0     H33478   8.669   4.396   8.426  3.3811  0.3015  0.1586
  989MOL0     H33479   8.226   4.189   8.738  1.2910  0.6514 -0.2029
  989MOL0     H33480   8.220   4.029   8.923 -0.5280  0.3113  0.4643
  989MOL0     H33481   8.407   3.610   8.883  1.4696 -0.1581 -1.2756
  989MOL0     H33482   8.524   3.749   8.889  1.4521 -1.3551  2.8148
  989MOL0     H33483   8.528   3.568   9.076  0.6916 -0.5653 -2.0706
  989MOL0     H33484   8.510   3.743   9.125 -2.1174 -0.1068  1.4091
  989MOL0     H33485   8.264   3.551   9.095  0.3999 -0.0746 -1.1835
  989MOL0     H33486   8.263   3.702   9.167 -1.7710 -0.3045 -2.7870
  989MOL0     H33487   8.382   3.447   9.262 -1.7465 -0.4769 -0.4006
  989MOL0     H33488   8.438   3.591   9.334  0.1796 -1.5217  0.4250
  989MOL0     H33489   8.142   3.490   9.325 -1.3036  2.5469  0.2097
  989MOL0     H33490   8.180   3.645   9.369 -0.9964  0.1600 -3.2494
  989MOL0     H33491   8.163   3.469   9.552 -0.3394 -1.3182 -1.0476
  989MOL0     H33492   8.313   3.389   9.476  1.2994  0.7805  0.4989
  989MOL0     H33493   8.266   3.609   9.668 -0.5282  0.5110 -0.7818
  989MOL0     H33494   8.372   3.663   9.528 -0.8072 -2.4796 -4.1193
  989MOL0     H33495   8.524   3.594   9.692  0.3601 -1.4811  2.5983
  989MOL0     H33496   8.518   3.456   9.582 -1.2740 -4.6206  1.5660
  989MOL0     H33497   8.394   3.726   8.683 -0.1314 -0.2072  3.0781
  989MOL0     H33498   8.397   3.886   8.490  1.9724 -0.9712  0.7471
  989MOL0     H33499   8.236   4.281   8.320  0.0041 -1.8211 -0.2945
  989MOL0     H33500   8.225   4.351   8.073 -0.7927  0.1205  0.5422
  989MOL0     H33501   8.700   4.264   6.566  0.8999  1.0629 -0.4391
  989MOL0     H33502   8.676   4.427   6.431  0.2746 -0.0305 -1.0471
  989MOL0     H33503   8.952   4.623   5.936 -0.7787 -0.5859 -0.7672
  989MOL0     H33504   8.880   4.809   5.803  2.7762  4.2463 -0.1506
  989MOL0     H33505   8.665   5.181   5.793 -3.3038 -1.0702  0.8581
  989MOL0     H33506   8.639   5.143   5.960 -0.6247 -1.9630 -0.8805
  989MOL0     H33507   8.882   5.295   5.840 -1.5137  2.3290 -0.8291
  989MOL0     H33508   8.866   5.259   6.018  1.0956  0.0819 -0.2988
  989MOL0     H33509   8.636   5.389   5.991 -0.0399  0.2360  0.1641
  989MOL0     H33510   8.726   5.466   5.862 -1.2601 -1.5526 -0.7016
  989MOL0     H33511   8.907   5.530   6.023  0.0524  0.4693  1.3850
  989MOL0     H33512   8.834   5.443   6.157  0.6913 -1.5032 -0.1532
  989MOL0     H33513   8.579   5.781   6.099  1.1816  0.7636 -1.1800
  989MOL0     H33514   8.789   5.056   6.129  3.7723  2.5079 -3.5456
  989MOL0     H33515   8.800   4.862   6.267 -1.8862  3.1766 -0.7383
  990MOL0     O33516  11.298   5.470   1.818  0.0448  0.7338 -0.1486
  990MOL0     C33517  11.352   5.439   1.920 -0.7400  0.3642  0.3569
  990MOL0     O33518  11.297   5.383   2.027  0.2717 -0.6164  0.1263
  990MOL0     C33519  11.157   5.352   2.040  0.3004 -0.6734 -0.1353
  990MOL0     C33520  11.112   5.250   2.133  0.7086 -0.6953  0.3378
  990MOL0     C33521  10.980   5.216   2.159  0.1437  0.2418  0.3280
  990MOL0     C33522  10.881   5.272   2.071 -0.4598  0.7561  0.0004
  990MOL0     O33523  10.751   5.233   2.084  0.5472  0.3782 -0.4677
  990MOL0     C33524  10.739   5.106   2.018 -0.1566  0.1202  0.6603
  990MOL0     C33525  10.596   5.059   2.043  0.7834 -0.1534  0.3504
  990MOL0     C33526  10.582   5.009   2.190  1.4774  0.5190  0.0502
  990MOL0     C33527  10.449   4.931   2.209 -0.5797 -0.3372 -0.4227
  990MOL0     C33528  10.461   4.872   2.350  1.1420  0.8116 -0.3782
  990MOL0     C33529  10.340   4.774   2.369 -0.2188  0.3498  0.6932
  990MOL0     C33530  10.374   4.636   2.315 -0.3234  0.3953  0.2020
  990MOL0     C33531  10.245   4.563   2.307  0.0923  0.1611 -0.0254
  990MOL0     N33532  10.147   4.612   2.208  0.1388 -0.1234  1.1344
  990MOL0     C33533  10.154   4.582   2.070  0.4835  0.0889  0.9289
  990MOL0     C33534  10.031   4.632   2.024 -0.9810  0.1285  0.1911
  990MOL0     C33535   9.986   4.650   1.881 -0.0171  0.1117 -0.1153
  990MOL0     C33536  10.047   4.787   1.854 -0.2648 -0.0088  0.3563
  990MOL0     C33537  10.029   4.847   1.716  0.3878 -0.3205  0.5308
  990MOL0     C33538  10.128   4.812   1.617 -0.2217 -0.2561  0.1361
  990MOL0     O33539  10.093   4.894   1.501 -0.2823  0.0104  0.5965
  990MOL0     C33540  10.015   4.843   1.403 -1.1013  0.5605  1.1081
  990MOL0     C33541   9.876   4.870   1.400  0.5291  0.0585  0.5213
  990MOL0     C33542   9.789   4.821   1.309  1.1881 -0.0442  0.7813
  990MOL0     C33543   9.638   4.830   1.333 -0.0791  0.0684 -0.3457
  990MOL0     C33544   9.843   4.769   1.190 -0.5032  0.5819 -0.0541
  990MOL0     C33545   9.759   4.723   1.072  0.6791  0.0957  0.4581
  990MOL0     O33546   9.734   4.816   0.976 -0.0599 -0.3027 -0.4077
  990MOL0     C33547   9.653   4.779   0.868  0.8275  0.1746  0.5539
  990MOL0     C33548   9.546   4.688   0.860  0.3434  0.7534  0.4796
  990MOL0     C33549   9.470   4.676   0.740 -1.0286  0.2740 -0.4789
  990MOL0     C33550   9.495   4.756   0.633 -0.4345 -0.2251  0.6255
  990MOL0     O33551   9.451   4.744   0.506 -1.0583  0.9454  0.2240
  990MOL0     C33552   9.337   4.646   0.500 -0.2864 -0.3744 -0.1608
  990MOL0     C33553   9.317   4.620   0.351 -0.2738  0.3248 -0.2153
  990MOL0     C33554   9.245   4.734   0.294  0.1845  0.2580  0.1919
  990MOL0     C33555   9.261   4.733   0.143  0.4652 -0.7840  0.0091
  990MOL0     C33556   9.217   4.604   0.066 -0.4043 -0.1100 -0.5404
  990MOL0     C33557   9.201   4.632  -0.081 -0.9846 -0.7538 -0.5299
  990MOL0     C33558   9.333   4.668  -0.150 -0.0144 -0.6789 -0.1691
  990MOL0     C33559   9.304   4.645  -0.292  0.6301 -0.3924  0.8570
  990MOL0    Cl33560   9.304   4.466  -0.335 -0.0191 -0.0426 -0.2331
  990MOL0     C33561   9.586   4.860   0.646  0.8698 -0.4404  0.6594
  990MOL0     C33562   9.662   4.864   0.763 -0.4826 -0.0537 -0.7073
  990MOL0     O33563   9.721   4.606   1.068 -0.3780 -0.4034 -0.2727
  990MOL0     C33564   9.979   4.762   1.176  0.1866 -0.1687 -0.3225
  990MOL0     C33565  10.059   4.788   1.285 -0.0061 -0.3926 -0.5216
  990MOL0     N33566   9.954   4.673   2.131  0.6617  0.9810  0.3119
  990MOL0     N33567  10.024   4.662   2.242  0.0767  0.6495  0.0680
  990MOL0     C33568  10.915   5.377   1.988  0.1791  0.1123  0.7420
  990MOL0     C33569  11.046   5.418   1.971 -0.2173  0.7644 -1.0612
  990MOL0     C33570  11.502   5.455   1.929  0.4707 -0.0265  0.4539
  990MOL0     C33571  11.565   5.503   2.039  1.0926 -0.0070 -0.2886
  990MOL0     C33572  11.709   5.510   2.035  0.1470 -0.9016 -0.0844
  990MOL0     C33573  11.784   5.461   1.927  0.7876  0.4336  0.6356
  990MOL0     O33574  11.920   5.460   1.913 -0.4544 -0.4886  0.0003
  990MOL0     C33575  11.999   5.454   2.031  0.1310 -0.2126  1.0169
  990MOL0     C33576  12.157   5.449   1.999  0.5051 -0.8632  0.4088
  990MOL0     C33577  12.191   5.537   1.879  0.6668 -0.9647 -0.8083
  990MOL0     C33578  12.340   5.572   1.872 -0.7853  0.0201 -0.4769
  990MOL0     C33579  12.367   5.689   1.795 -0.7621 -0.8678 -0.3649
  990MOL0     C33580  12.392   5.789   1.722  0.3680  0.5062 -0.2464
  990MOL0     C33581  11.714   5.419   1.816 -0.2375  0.3544 -0.0765
  990MOL0     C33582  11.579   5.428   1.818  0.4384  0.1621  0.6759
  990MOL0     H33583  11.192   5.201   2.187  1.6930 -0.0008 -0.4716
  990MOL0     H33584  10.948   5.134   2.222  0.2076 -0.5063 -0.5965
  990MOL0     H33585  10.754   5.125   1.911 -1.5240  2.1896  0.7584
  990MOL0     H33586  10.800   5.017   2.035 -0.5495 -0.1827  0.5204
  990MOL0     H33587  10.521   5.135   2.017 -0.5257 -1.8348 -1.0965
  990MOL0     H33588  10.568   4.970   1.986 -2.2247  0.7488  0.2454
  990MOL0     H33589  10.672   4.948   2.202  1.5410  0.7473  0.7743
  990MOL0     H33590  10.586   5.091   2.262  1.1224 -0.6999  1.5145
  990MOL0     H33591  10.355   4.982   2.187 -0.1888 -0.6886 -3.2451
  990MOL0     H33592  10.461   4.852   2.134  1.3419 -1.0093  0.5357
  990MOL0     H33593  10.553   4.818   2.374  0.8717 -0.1219 -1.3767
  990MOL0     H33594  10.448   4.943   2.432 -1.1705 -2.2843  2.2080
  990MOL0     H33595  10.307   4.767   2.474 -1.1128 -1.0912  0.3456
  990MOL0     H33596  10.254   4.819   2.320 -1.4106 -1.9931  0.4606
  990MOL0     H33597  10.426   4.642   2.219  3.4351 -0.1041  2.0220
  990MOL0     H33598  10.435   4.573   2.380  1.2147 -0.0822 -1.6243
  990MOL0     H33599  10.194   4.570   2.404 -0.5660 -0.5829 -0.3114
  990MOL0     H33600  10.267   4.459   2.281  1.7216 -0.0481  1.9160
  990MOL0     H33601  10.235   4.548   2.006 -1.0517  0.1917 -1.1494
  990MOL0     H33602  10.025   4.577   1.809  3.5361  4.6479 -3.3776
  990MOL0     H33603   9.878   4.655   1.866  0.1957  1.4558 -1.4525
  990MOL0     H33604  10.155   4.782   1.871 -0.4042 -0.0104  1.2991
  990MOL0     H33605  10.008   4.867   1.917  1.8288  2.2109 -0.9995
  990MOL0     H33606  10.031   4.957   1.722 -0.4173 -0.2358 -0.4274
  990MOL0     H33607   9.930   4.829   1.673 -0.1711  0.8897  1.2517
  990MOL0     H33608  10.123   4.706   1.593  1.7106  0.0272 -1.8994
  990MOL0     H33609  10.232   4.825   1.649 -0.5726  2.5719  0.3524
  990MOL0     H33610   9.835   4.909   1.492 -4.3049 -1.4510 -0.6773
  990MOL0     H33611   9.605   4.796   1.432 -1.8485  1.4691 -0.4017
  990MOL0     H33612   9.601   4.931   1.310 -0.9936 -0.3451 -0.7679
  990MOL0     H33613   9.584   4.769   1.260  1.0603 -0.5926 -0.6573
  990MOL0     H33614   9.521   4.637   0.952 -2.3178  2.2858  0.7061
  990MOL0     H33615   9.405   4.590   0.747 -2.5385  1.1506 -2.7556
  990MOL0     H33616   9.365   4.552   0.549  3.6479  1.2112  1.0163
  990MOL0     H33617   9.244   4.683   0.544 -1.0412  0.1619 -2.0836
  990MOL0     H33618   9.420   4.607   0.315  0.5517 -0.3771  2.1827
  990MOL0     H33619   9.263   4.525   0.344 -0.1254  0.0249  1.9264
  990MOL0     H33620   9.270   4.834   0.333 -2.6871  1.6320 -1.1471
  990MOL0     H33621   9.137   4.724   0.312 -0.2242  2.4887 -0.5844
  990MOL0     H33622   9.201   4.813   0.100  1.6147  1.4337  2.2754
  990MOL0     H33623   9.363   4.762   0.116  0.5099 -0.7202  0.2467
  990MOL0     H33624   9.124   4.555   0.098 -0.9127  0.3770 -1.2373
  990MOL0     H33625   9.293   4.527   0.081 -1.4789 -1.6441 -2.6364
  990MOL0     H33626   9.148   4.550  -0.130 -0.9051 -0.4140 -1.1946
  990MOL0     H33627   9.130   4.713  -0.104 -1.6184 -0.8066  1.0913
  990MOL0     H33628   9.404   4.592  -0.116  0.2590 -0.9557 -1.3142
  990MOL0     H33629   9.371   4.770  -0.137 -2.1175  0.4880 -2.2490
  990MOL0     H33630   9.379   4.704  -0.346 -1.0170  0.8084 -0.2251
  990MOL0     H33631   9.207   4.683  -0.325  0.2468  0.1251  2.4940
  990MOL0     H33632   9.577   4.927   0.561  0.2507  1.1962  1.9739
  990MOL0     H33633   9.742   4.938   0.771 -1.4679  0.8561  1.2096
  990MOL0     H33634  10.022   4.727   1.083  1.7686  1.2649 -0.1815
  990MOL0     H33635  10.167   4.775   1.285 -0.0154 -0.6540  0.9118
  990MOL0     H33636  10.837   5.426   1.930  0.8519  1.0015  0.5608
  990MOL0     H33637  11.067   5.509   1.915  1.3046  1.2982  0.2798
  990MOL0     H33638  11.501   5.541   2.117  0.9325  2.5976 -1.5822
  990MOL0     H33639  11.762   5.540   2.124  0.3511 -0.9856 -0.1777
  990MOL0     H33640  11.976   5.531   2.105 -0.0252  0.5506  0.1872
  990MOL0     H33641  11.973   5.354   2.068  0.2672 -0.3081  0.8593
  990MOL0     H33642  12.186   5.346   1.976  2.9203 -0.5080  1.5903
  990MOL0     H33643  12.220   5.463   2.087  3.2221 -0.6152 -1.4852
  990MOL0     H33644  12.131   5.627   1.895 -1.8154 -2.7196  0.4157
  990MOL0     H33645  12.157   5.496   1.783 -0.5708  0.9667 -1.2514
  990MOL0     H33646  12.391   5.481   1.837  0.5139  0.4414  0.2420
  990MOL0     H33647  12.385   5.587   1.971  0.0823  0.0185 -0.8638
  990MOL0     H33648  12.409   5.886   1.680 -3.4320  1.0523 -0.9399
  990MOL0     H33649  11.764   5.374   1.731 -0.9752 -0.5902 -0.0308
  990MOL0     H33650  11.529   5.408   1.723  0.0979 -1.4516  1.1787
  991MOL0     O33651   1.004   4.543   2.350  0.0516  0.1025  0.2632
  991MOL0     C33652   0.916   4.534   2.436 -0.5385  0.6794  0.8477
  991MOL0     O33653   0.901   4.432   2.520  0.6159 -0.1821  0.4628
  991MOL0     C33654   0.985   4.321   2.506 -0.9610 -0.2835 -0.0735
  991MOL0     C33655   1.079   4.297   2.611  1.3526 -0.5215  0.0268
  991MOL0     C33656   1.158   4.175   2.601  0.2405 -0.9166 -0.7109
  991MOL0     C33657   1.155   4.092   2.494  1.1808 -0.4479 -0.2578
  991MOL0     O33658   1.260   4.002   2.484 -0.7411 -0.9549  0.2064
  991MOL0     C33659   1.275   3.925   2.357 -0.9703  0.6309  1.2689
  991MOL0     C33660   1.344   4.015   2.254  0.8127  0.0735 -0.0994
  991MOL0     C33661   1.494   4.047   2.295 -0.1672 -0.2990  0.1937
  991MOL0     C33662   1.599   3.975   2.208 -0.3310  0.8233 -0.0215
  991MOL0     C33663   1.735   3.995   2.270 -0.2354 -0.1046 -0.5946
  991MOL0     C33664   1.848   3.944   2.190  0.0861  0.6542  0.2995
  991MOL0     C33665   1.985   3.962   2.249  0.3403 -0.5093  0.4142
  991MOL0     C33666   2.094   3.955   2.136  0.4781  0.7130  0.1273
  991MOL0     N33667   2.217   3.889   2.171 -0.2899 -0.9692  0.2891
  991MOL0     C33668   2.318   3.958   2.234 -0.1522 -0.4185 -0.6403
  991MOL0     C33669   2.433   3.887   2.217  0.1201  0.3231  0.2903
  991MOL0     C33670   2.562   3.935   2.256 -0.8752  0.1139  0.2558
  991MOL0     C33671   2.616   4.042   2.160  0.2561 -0.5902 -0.4608
  991MOL0     C33672   2.719   4.147   2.206 -1.5400 -0.0961  0.0967
  991MOL0     C33673   2.871   4.102   2.213  1.1487  0.3441 -0.7552
  991MOL0     O33674   2.908   4.069   2.345  0.0123  0.6807  0.3075
  991MOL0     C33675   2.954   3.942   2.379  0.4204  0.4624 -0.7201
  991MOL0     C33676   3.069   3.891   2.315  0.8258 -0.0596 -0.6338
  991MOL0     C33677   3.115   3.756   2.346 -0.4231  1.3843 -0.4447
  991MOL0     C33678   3.238   3.701   2.272 -0.8128 -0.1799 -0.0029
  991MOL0     C33679   3.045   3.679   2.445  0.5158 -0.1735  0.3577
  991MOL0     C33680   3.072   3.536   2.478 -0.5306  0.6135  1.1802
  991MOL0     O33681   3.098   3.518   2.609 -0.4407  0.7989 -0.6300
  991MOL0     C33682   3.123   3.382   2.655  1.0990  0.3615 -0.1165
  991MOL0     C33683   3.214   3.290   2.580  0.6892 -0.5405  0.0854
  991MOL0     C33684   3.268   3.183   2.651 -1.1105 -0.3484 -0.3734
  991MOL0     C33685   3.256   3.165   2.793 -0.1421  0.0690 -0.2326
  991MOL0     O33686   3.326   3.064   2.866  0.1671 -0.7175  0.2010
  991MOL0     C33687   3.470   3.094   2.889  0.3067 -0.5402  0.8094
  991MOL0     C33688   3.531   2.986   2.984  0.1393  0.2926  0.4752
  991MOL0     C33689   3.517   2.844   2.939 -0.5111 -0.0811 -0.2334
  991MOL0     C33690   3.597   2.819   2.801  0.3805  0.2245 -0.6773
  991MOL0     C33691   3.599   2.671   2.745  0.0482 -0.2782  0.8489
  991MOL0     C33692   3.672   2.567   2.832  0.0975 -0.7672 -1.2148
  991MOL0     C33693   3.819   2.542   2.803  0.6778  0.1811  0.2864
  991MOL0     C33694   3.884   2.472   2.920 -0.3343 -0.2101  0.1289
  991MOL0    Cl33695   3.819   2.311   2.950  0.4858  0.3134 -0.0671
  991MOL0     C33696   3.179   3.258   2.862 -0.1636  0.2812  0.2145
  991MOL0     C33697   3.105   3.362   2.799  0.6021  0.3026  0.1263
  991MOL0     O33698   3.077   3.455   2.381  1.0529  0.2890 -0.2388
  991MOL0     C33699   2.930   3.732   2.505 -0.3363 -0.3557 -0.0122
  991MOL0     C33700   2.882   3.860   2.469 -0.6702  0.8680 -0.1947
  991MOL0     N33701   2.400   3.771   2.157  0.6419  0.4511 -0.7353
  991MOL0     N33702   2.268   3.767   2.128 -0.2285 -0.6598  0.0336
  991MOL0     C33703   1.060   4.123   2.389 -0.7435 -0.3374  0.4328
  991MOL0     C33704   0.988   4.237   2.389 -0.3094 -0.1330 -0.3959
  991MOL0     C33705   0.864   4.670   2.481 -0.2964  0.8046 -0.0771
  991MOL0     C33706   0.764   4.670   2.574  0.3986 -0.0495  0.3154
  991MOL0     C33707   0.691   4.778   2.600 -0.3867 -0.4545  0.2522
  991MOL0     C33708   0.733   4.897   2.548  0.1739 -0.4636  0.3373
  991MOL0     O33709   0.677   5.018   2.572  0.1206 -0.0456  0.8414
  991MOL0     C33710   0.613   5.043   2.702 -0.8731 -0.0461 -0.0775
  991MOL0     C33711   0.735   5.080   2.795  0.1346 -0.1265 -0.2947
  991MOL0     C33712   0.800   5.215   2.744 -1.0458  0.6415  0.2132
  991MOL0     C33713   0.920   5.244   2.829 -0.9082 -0.0393  0.9368
  991MOL0     C33714   1.036   5.169   2.788  0.4484  0.0130 -0.3835
  991MOL0     C33715   1.118   5.079   2.771  0.0070  0.3955  0.3780
  991MOL0     C33716   0.842   4.903   2.456  0.4503  0.5569  0.1123
  991MOL0     C33717   0.912   4.784   2.424  0.8539  0.7781  1.0179
  991MOL0     H33718   1.099   4.379   2.679  0.7763  1.8986 -2.5175
  991MOL0     H33719   1.225   4.159   2.685  1.2970 -1.0089 -1.5508
  991MOL0     H33720   1.337   3.838   2.380 -1.7158 -0.4315 -0.5732
  991MOL0     H33721   1.178   3.890   2.320  0.2400 -1.1416 -0.3711
  991MOL0     H33722   1.344   3.970   2.155 -0.3828  1.1106 -0.5938
  991MOL0     H33723   1.281   4.104   2.241  0.9494  0.3624  1.0629
  991MOL0     H33724   1.509   4.156   2.303 -0.2869 -0.3448  1.0886
  991MOL0     H33725   1.497   4.014   2.399  0.0013  2.7954  1.2981
  991MOL0     H33726   1.568   3.870   2.199  0.2132  0.8221 -3.2403
  991MOL0     H33727   1.596   4.020   2.108  1.0246  1.7023  0.3048
  991MOL0     H33728   1.734   4.104   2.279 -3.9458 -0.1147  1.0094
  991MOL0     H33729   1.742   3.959   2.373  2.2938 -1.6919 -1.2426
  991MOL0     H33730   1.822   3.840   2.167  0.4051  0.2122  1.8163
  991MOL0     H33731   1.839   4.005   2.100 -1.4216  0.1944  0.1023
  991MOL0     H33732   1.989   4.055   2.306 -0.0134  0.9920 -1.8856
  991MOL0     H33733   1.996   3.877   2.316  0.9108 -0.5580  0.2639
  991MOL0     H33734   2.116   4.059   2.109 -0.0264  1.9009  3.8293
  991MOL0     H33735   2.046   3.893   2.060 -1.1882 -0.9853  2.4370
  991MOL0     H33736   2.305   4.056   2.278  0.9551  1.4869 -4.2154
  991MOL0     H33737   2.560   3.974   2.359 -2.1305  0.3603  0.1552
  991MOL0     H33738   2.630   3.854   2.230  3.0847  3.2673 -0.2540
  991MOL0     H33739   2.529   4.104   2.137  0.2343 -1.2699 -2.3806
  991MOL0     H33740   2.650   3.992   2.069 -0.1348 -0.4446 -0.6928
  991MOL0     H33741   2.692   4.192   2.302  2.5532  1.2807  0.8061
  991MOL0     H33742   2.708   4.227   2.132 -1.9163  1.2047  1.5152
  991MOL0     H33743   2.925   4.195   2.195  3.1191 -0.4506  0.7045
  991MOL0     H33744   2.892   4.024   2.139  2.3937  2.0519 -2.3003
  991MOL0     H33745   3.133   3.957   2.256  1.9917 -0.6121 -0.0323
  991MOL0     H33746   3.330   3.760   2.281  0.6520 -2.1824 -1.1725
  991MOL0     H33747   3.279   3.608   2.313 -0.3508  0.7004  1.6279
  991MOL0     H33748   3.214   3.682   2.167  5.1437  0.2660 -1.8443
  991MOL0     H33749   3.229   3.309   2.474  0.7073 -0.0168  0.1795
  991MOL0     H33750   3.325   3.109   2.596 -0.0989  0.4113 -0.3889
  991MOL0     H33751   3.527   3.105   2.796 -1.7560  1.6381 -0.2973
  991MOL0     H33752   3.480   3.193   2.933  0.7744  1.4144 -3.2066
  991MOL0     H33753   3.638   3.001   2.996 -0.0404  0.1320  2.6819
  991MOL0     H33754   3.484   3.006   3.081  1.2948  1.4639  0.8140
  991MOL0     H33755   3.409   2.836   2.922 -1.4734  2.5233  3.4448
  991MOL0     H33756   3.545   2.773   3.017  2.6782  1.5710  0.2978
  991MOL0     H33757   3.555   2.881   2.721  0.9015 -3.2170 -3.8821
  991MOL0     H33758   3.701   2.852   2.816  0.1359 -0.0207  1.9888
  991MOL0     H33759   3.646   2.666   2.646  0.5616 -1.6637  1.1443
  991MOL0     H33760   3.496   2.638   2.728 -0.4574 -0.9513  4.4838
  991MOL0     H33761   3.662   2.607   2.934  5.1627  1.5302 -1.2982
  991MOL0     H33762   3.626   2.471   2.808 -1.2438  0.5623 -4.6002
  991MOL0     H33763   3.866   2.638   2.782 -2.7563  1.9629 -0.0760
  991MOL0     H33764   3.828   2.477   2.715  3.1576 -0.5329  0.9993
  991MOL0     H33765   3.875   2.545   3.001  2.5169  0.9870 -0.5443
  991MOL0     H33766   3.987   2.452   2.890 -0.1570 -1.7434  1.5844
  991MOL0     H33767   3.158   3.242   2.967 -2.4488  2.1480  0.1390
  991MOL0     H33768   3.060   3.439   2.862  1.3496 -1.0596  2.4397
  991MOL0     H33769   2.879   3.676   2.582 -0.6548  1.1635  0.9180
  991MOL0     H33770   2.789   3.892   2.513 -0.2922  0.4193  0.9622
  991MOL0     H33771   1.056   4.077   2.291  0.9068 -0.8385  0.5887
  991MOL0     H33772   0.918   4.248   2.307  0.4995 -0.7639 -1.1917
  991MOL0     H33773   0.723   4.574   2.601  0.3671 -0.9032 -2.4943
  991MOL0     H33774   0.601   4.769   2.659 -1.4253 -0.7063 -1.3296
  991MOL0     H33775   0.536   5.120   2.706  0.5126  1.3704  2.6518
  991MOL0     H33776   0.555   4.959   2.742 -0.7483  0.8050  2.0584
  991MOL0     H33777   0.800   4.993   2.779  1.5230  0.6963  0.6078
  991MOL0     H33778   0.711   5.103   2.900 -2.6926 -0.8877 -0.7193
  991MOL0     H33779   0.731   5.299   2.755 -2.6282 -0.1408 -2.6321
  991MOL0     H33780   0.827   5.205   2.639  2.0314 -0.1852  0.9839
  991MOL0     H33781   0.899   5.207   2.929 -1.5944  0.0335  0.8263
  991MOL0     H33782   0.941   5.352   2.837 -0.8231 -0.0953  1.4863
  991MOL0     H33783   1.184   4.996   2.785 -1.8119 -1.5679 -1.7232
  991MOL0     H33784   0.884   4.992   2.410 -2.1521  0.8291 -2.0400
  991MOL0     H33785   0.993   4.781   2.352 -0.7572  0.8240 -0.8821
  992MOL0     O33786   1.186   5.003   5.153  0.0774 -0.0358 -0.2002
  992MOL0     C33787   1.185   5.052   5.266 -1.3344  0.3913  0.5007
  992MOL0     O33788   1.100   5.028   5.373  0.6398 -0.0549  0.7705
  992MOL0     C33789   1.003   4.932   5.376 -0.1218  0.0102 -0.2163
  992MOL0     C33790   0.934   4.880   5.269 -0.0397  0.0194 -0.6254
  992MOL0     C33791   0.861   4.761   5.269  0.1502 -0.7287 -0.9186
  992MOL0     C33792   0.837   4.705   5.395  0.8021 -0.6339 -0.1853
  992MOL0     O33793   0.742   4.610   5.412  0.1283  0.6089 -0.7002
  992MOL0     C33794   0.787   4.490   5.469  0.1528 -0.4346 -0.6604
  992MOL0     C33795   0.691   4.431   5.579 -0.1889 -0.8748  0.2392
  992MOL0     C33796   0.759   4.302   5.630 -0.1771  0.5396 -0.5078
  992MOL0     C33797   0.681   4.228   5.746 -0.6718 -0.1577 -0.2727
  992MOL0     C33798   0.747   4.095   5.791 -0.4489 -0.3305  1.1189
  992MOL0     C33799   0.722   3.982   5.679  0.4273  0.3461  0.2693
  992MOL0     C33800   0.785   3.845   5.696 -0.0048  0.2310 -0.2727
  992MOL0     C33801   0.673   3.747   5.654 -0.0545  0.6665 -0.0681
  992MOL0     N33802   0.716   3.607   5.633 -1.2251  0.4145 -0.0874
  992MOL0     C33803   0.847   3.559   5.627  0.6443 -0.1962 -0.5068
  992MOL0     C33804   0.836   3.423   5.615 -0.2215  0.5466 -0.1670
  992MOL0     C33805   0.960   3.329   5.618 -0.3907 -0.2278  0.8606
  992MOL0     C33806   0.940   3.203   5.525 -0.4272  0.1974  0.2810
  992MOL0     C33807   0.903   3.075   5.600 -1.0145 -0.1065 -0.0103
  992MOL0     C33808   1.011   3.014   5.697  0.6249  1.0788 -0.8182
  992MOL0     O33809   0.964   2.903   5.771 -0.1631  0.5841  0.0827
  992MOL0     C33810   1.056   2.844   5.859  0.4952  0.0076  0.6501
  992MOL0     C33811   1.114   2.714   5.827 -0.2918 -1.2643  0.3588
  992MOL0     C33812   1.200   2.654   5.929  0.1346 -0.7781  0.8264
  992MOL0     C33813   1.265   2.526   5.887  0.3439 -0.1692  0.1170
  992MOL0     C33814   1.231   2.721   6.045  0.4436  0.2706  0.1042
  992MOL0     C33815   1.316   2.661   6.163 -0.6151  0.3392 -0.3368
  992MOL0     O33816   1.357   2.748   6.261 -0.6363 -0.2237 -0.3481
  992MOL0     C33817   1.473   2.734   6.337  0.5455 -0.5492  0.8928
  992MOL0     C33818   1.486   2.802   6.462 -0.2327  0.0162  0.3155
  992MOL0     C33819   1.599   2.780   6.547  0.0629 -0.4789  0.0485
  992MOL0     C33820   1.694   2.684   6.516 -0.7540  0.1530 -1.2506
  992MOL0     O33821   1.801   2.655   6.599  0.0042 -0.0023 -0.6644
  992MOL0     C33822   1.809   2.733   6.719 -0.1533 -0.4368  0.0799
  992MOL0     C33823   1.918   2.684   6.807  0.1834 -0.3446  0.4707
  992MOL0     C33824   1.907   2.737   6.957  1.3114  0.6064  0.2010
  992MOL0     C33825   1.914   2.889   6.962 -0.1277 -0.1998  0.1108
  992MOL0     C33826   1.928   2.937   7.110  0.4234 -0.1783  0.3589
  992MOL0     C33827   1.906   3.099   7.111 -0.0011 -0.8466 -0.6215
  992MOL0     C33828   1.946   3.161   7.241  0.1318 -0.0698  0.0107
  992MOL0     C33829   1.991   3.311   7.225 -0.2885  0.0209  0.4475
  992MOL0    Cl33830   1.829   3.383   7.176  0.2187 -0.0254 -0.4121
  992MOL0     C33831   1.677   2.612   6.398 -0.3721  0.3902  0.2771
  992MOL0     C33832   1.576   2.641   6.307  0.3716  0.2595 -0.2448
  992MOL0     O33833   1.333   2.541   6.175  0.4986  0.1867 -0.4376
  992MOL0     C33834   1.166   2.847   6.069  0.3471  0.4835 -0.2148
  992MOL0     C33835   1.079   2.903   5.983  0.0961  1.0325 -0.6590
  992MOL0     N33836   0.704   3.391   5.612  0.0197  0.0921 -0.1002
  992MOL0     N33837   0.630   3.501   5.619 -0.7580  0.5739  0.4589
  992MOL0     C33838   0.904   4.764   5.510  0.5046 -0.2732  0.5067
  992MOL0     C33839   0.987   4.872   5.497  0.2828  0.0534 -0.3799
  992MOL0     C33840   1.303   5.137   5.290  0.0726  0.7879  0.3214
  992MOL0     C33841   1.359   5.147   5.415 -0.3034 -0.4889 -0.3652
  992MOL0     C33842   1.487   5.210   5.439 -0.4652 -0.0792  0.0825
  992MOL0     C33843   1.548   5.285   5.340 -0.2462 -0.1827  0.0495
  992MOL0     O33844   1.669   5.345   5.354  0.0496 -0.0210 -0.9661
  992MOL0     C33845   1.703   5.399   5.488  1.5811 -0.8419  0.3768
  992MOL0     C33846   1.837   5.471   5.487  0.2532  0.0689 -0.8230
  992MOL0     C33847   1.826   5.606   5.426 -0.7570  0.3098 -0.3609
  992MOL0     C33848   1.839   5.595   5.273 -0.6917 -0.7145 -0.5731
  992MOL0     C33849   1.833   5.731   5.218 -0.1127  0.6088  0.4879
  992MOL0     C33850   1.856   5.835   5.162 -0.3122  0.6231  0.3098
  992MOL0     C33851   1.493   5.270   5.220  0.1524 -0.0351  0.5535
  992MOL0     C33852   1.374   5.200   5.187 -0.3358 -1.0095 -0.1469
  992MOL0     H33853   0.934   4.916   5.166  0.4105  2.1969  0.0707
  992MOL0     H33854   0.807   4.711   5.189 -1.9888  0.0781 -0.0755
  992MOL0     H33855   0.802   4.412   5.394  4.0462 -0.6696  0.1446
  992MOL0     H33856   0.886   4.501   5.514 -0.0763  0.9260 -0.4363
  992MOL0     H33857   0.692   4.496   5.667 -0.4982 -1.0533  0.3751
  992MOL0     H33858   0.595   4.417   5.528 -1.3081  1.2801  1.6394
  992MOL0     H33859   0.766   4.230   5.548 -0.8359 -0.9508  0.6951
  992MOL0     H33860   0.857   4.333   5.667 -0.7787  0.9512  0.7921
  992MOL0     H33861   0.663   4.290   5.835 -2.0002  1.0061 -1.3020
  992MOL0     H33862   0.583   4.209   5.703  0.0466 -0.0789 -2.0100
  992MOL0     H33863   0.852   4.108   5.820  0.0573 -0.1237 -0.6925
  992MOL0     H33864   0.699   4.065   5.885  1.8214 -0.7245  2.2194
  992MOL0     H33865   0.614   3.969   5.663  0.1068  0.0414  2.3911
  992MOL0     H33866   0.766   4.014   5.584 -0.0574 -2.2106 -0.8929
  992MOL0     H33867   0.874   3.839   5.633 -1.2541  0.0917 -2.0923
  992MOL0     H33868   0.811   3.827   5.801  1.8045  0.9446 -0.5603
  992MOL0     H33869   0.627   3.774   5.559 -1.9642 -1.0393  0.2702
  992MOL0     H33870   0.590   3.750   5.726  0.4952 -0.8646  0.6861
  992MOL0     H33871   0.938   3.618   5.624  1.4636 -1.2872  1.2254
  992MOL0     H33872   1.045   3.383   5.575  0.9575 -2.4802  0.5505
  992MOL0     H33873   0.993   3.313   5.721 -3.1878 -0.4610  1.7951
  992MOL0     H33874   1.025   3.180   5.459  0.5237 -1.3945  1.9525
  992MOL0     H33875   0.852   3.234   5.469 -0.3701 -1.3893 -0.7482
  992MOL0     H33876   0.880   2.990   5.535  5.8113 -0.0675 -3.3950
  992MOL0     H33877   0.817   3.117   5.652 -1.2310  0.9145 -1.1344
  992MOL0     H33878   1.026   3.091   5.773  0.8480  0.2054  0.0388
  992MOL0     H33879   1.101   2.985   5.641  1.1053  2.3317 -0.7201
  992MOL0     H33880   1.086   2.677   5.729 -0.4963 -1.3365  0.4432
  992MOL0     H33881   1.371   2.530   5.911  0.2204 -1.4636  1.0049
  992MOL0     H33882   1.228   2.449   5.955  5.2045 -0.0371  3.4023
  992MOL0     H33883   1.260   2.488   5.785 -3.4896  0.0861  0.0618
  992MOL0     H33884   1.412   2.871   6.500 -0.7801 -1.7527  2.6517
  992MOL0     H33885   1.611   2.844   6.633  2.5470  3.0627 -2.6599
  992MOL0     H33886   1.825   2.837   6.691  0.4504 -0.3718  0.6279
  992MOL0     H33887   1.717   2.712   6.775 -1.1039  0.3756 -1.1488
  992MOL0     H33888   1.893   2.578   6.813 -0.1461 -0.2531  0.7129
  992MOL0     H33889   2.013   2.709   6.760 -1.4463  2.0221 -1.9085
  992MOL0     H33890   1.990   2.694   7.013  1.9037  1.5208  0.0524
  992MOL0     H33891   1.815   2.703   7.006  0.4526 -0.1071 -1.8051
  992MOL0     H33892   1.996   2.929   6.903 -1.5361  1.1715 -1.0125
  992MOL0     H33893   1.823   2.925   6.913  0.1836  2.1532  1.0862
  992MOL0     H33894   2.027   2.912   7.150 -0.3545  0.4788  2.8590
  992MOL0     H33895   1.855   2.880   7.167 -0.4087  2.3246  1.9762
  992MOL0     H33896   1.955   3.148   7.026  0.5922 -0.4682 -0.0604
  992MOL0     H33897   1.798   3.111   7.092  0.1513  0.3633 -0.7915
  992MOL0     H33898   2.029   3.106   7.288 -0.0860  0.8598  1.5321
  992MOL0     H33899   1.859   3.160   7.307  0.1439 -1.1762  0.0260
  992MOL0     H33900   2.065   3.333   7.149  0.7110  1.0241  1.6671
  992MOL0     H33901   2.029   3.350   7.320 -2.3775  0.5977  1.1037
  992MOL0     H33902   1.750   2.541   6.360  1.1403  2.2724 -0.5238
  992MOL0     H33903   1.587   2.576   6.222  3.7937  0.3154  0.0144
  992MOL0     H33904   1.180   2.881   6.171 -2.1861 -2.2964  1.1948
  992MOL0     H33905   1.031   2.992   6.021 -3.4161 -1.5871  1.7233
  992MOL0     H33906   0.886   4.719   5.607 -2.5672 -0.9391 -0.2683
  992MOL0     H33907   1.035   4.899   5.591 -0.9352  1.5917 -0.1595
  992MOL0     H33908   1.307   5.104   5.500 -0.4271  5.0146  2.8271
  992MOL0     H33909   1.537   5.192   5.534 -1.9028 -1.0043  0.6943
  992MOL0     H33910   1.632   5.474   5.523  0.3414 -0.9048 -1.8197
  992MOL0     H33911   1.692   5.319   5.562 -1.1177 -1.3758 -0.4819
  992MOL0     H33912   1.904   5.411   5.425 -0.2801 -0.4167 -0.9374
  992MOL0     H33913   1.873   5.467   5.590 -0.8916  2.9230 -0.2117
  992MOL0     H33914   1.920   5.651   5.457  1.1889 -2.1366 -2.2517
  992MOL0     H33915   1.743   5.670   5.456  3.0644  5.0507  1.3701
  992MOL0     H33916   1.759   5.536   5.225 -1.4898  0.3597 -0.6121
  992MOL0     H33917   1.940   5.564   5.246  0.1088  1.1240  0.1035
  992MOL0     H33918   1.859   5.938   5.133 -3.0733  0.9155  0.7047
  992MOL0     H33919   1.549   5.306   5.134  0.4062  0.7551  1.0423
  992MOL0     H33920   1.342   5.191   5.083  3.1959 -0.3701 -1.4372
  993MOL0     O33921   8.460   0.203  11.366  0.3842  1.0890  0.1719
  993MOL0     C33922   8.533   0.167  11.281  0.4523  1.0906 -1.2485
  993MOL0     O33923   8.494   0.165  11.142 -0.2031  0.0159 -0.6450
  993MOL0     C33924   8.372   0.210  11.102  0.6103 -0.2262  0.6139
  993MOL0     C33925   8.330   0.341  11.131 -1.0455 -0.0125 -0.1989
  993MOL0     C33926   8.206   0.391  11.094  0.8622  0.5440  0.7113
  993MOL0     C33927   8.110   0.298  11.038  0.2565 -0.3813 -0.2601
  993MOL0     O33928   7.970   0.312  11.023  0.0628 -0.1233  0.3597
  993MOL0     C33929   7.901   0.394  11.116 -0.1481 -0.9500 -0.9348
  993MOL0     C33930   7.880   0.539  11.082  0.7096 -0.0992 -0.4459
  993MOL0     C33931   7.768   0.538  10.970  0.1163 -0.8139 -0.8835
  993MOL0     C33932   7.766   0.676  10.904  0.0998 -0.5018 -0.2085
  993MOL0     C33933   7.658   0.765  10.963  0.1792  0.1148 -0.4598
  993MOL0     C33934   7.658   0.908  10.902 -0.7488  0.6479  0.4109
  993MOL0     C33935   7.616   0.923  10.753  0.6147 -0.2300 -0.1771
  993MOL0     C33936   7.663   1.057  10.694 -0.3716  0.4219  0.3436
  993MOL0     N33937   7.815   1.063  10.686  0.1498 -0.1646 -0.5884
  993MOL0     C33938   7.898   0.995  10.596 -0.3919 -1.1299 -0.3045
  993MOL0     C33939   8.019   1.033  10.634 -0.0185 -0.1214  0.3418
  993MOL0     C33940   8.152   0.981  10.576  0.4344  0.2678  0.3669
  993MOL0     C33941   8.189   0.833  10.603 -0.5027  0.2042 -0.2150
  993MOL0     C33942   8.215   0.821  10.760 -0.2880  0.1356  0.1546
  993MOL0     C33943   8.244   0.672  10.803 -0.6360 -0.5425 -0.6817
  993MOL0     O33944   8.370   0.633  10.742  0.0961  0.3780  0.3055
  993MOL0     C33945   8.466   0.587  10.831  0.0571  0.2109 -0.3522
  993MOL0     C33946   8.522   0.667  10.930 -0.5745  0.5825  0.5615
  993MOL0     C33947   8.632   0.628  11.014  0.4459  0.0407  0.0682
  993MOL0     C33948   8.670   0.729  11.122  0.1563 -0.0357 -0.0423
  993MOL0     C33949   8.703   0.507  10.989  0.6963  0.1136 -0.1523
  993MOL0     C33950   8.823   0.457  11.062 -0.6352 -1.3552  0.5032
  993MOL0     O33951   8.855   0.320  11.025 -0.1464 -0.9423 -0.1456
  993MOL0     C33952   8.952   0.260  11.099  0.0354 -0.3311  0.6358
  993MOL0     C33953   9.027   0.172  11.029  0.0355  1.1468  0.9459
  993MOL0     C33954   9.129   0.099  11.094  0.9600  0.2248 -0.3800
  993MOL0     C33955   9.138   0.099  11.230  0.0656 -0.6471 -0.0386
  993MOL0     O33956   9.239   0.053  11.306  0.0296 -0.2813 -0.1043
  993MOL0     C33957   9.363   0.030  11.236  0.4083  0.9117  0.5565
  993MOL0     C33958   9.471   0.001  11.328  0.8217  0.0657 -0.8783
  993MOL0     C33959   9.475  -0.152  11.370  0.1462  0.2356 -0.3948
  993MOL0     C33960   9.591  -0.226  11.294  1.2879 -0.5450  0.1726
  993MOL0     C33961   9.569  -0.382  11.296  0.3359 -0.0241 -0.3036
  993MOL0     C33962   9.521  -0.431  11.156 -0.2375 -0.5991  0.0686
  993MOL0     C33963   9.538  -0.577  11.136  0.6513  0.0915 -0.7352
  993MOL0     C33964   9.528  -0.624  10.992  0.5655  0.0535 -0.0469
  993MOL0    Cl33965   9.495  -0.798  10.976 -0.1720 -0.1503  0.0103
  993MOL0     C33966   9.058   0.181  11.301 -0.1027  0.8728 -0.7232
  993MOL0     C33967   8.965   0.268  11.240 -0.4046  0.7385  0.2079
  993MOL0     O33968   8.882   0.529  11.135  0.2036  0.1119 -0.8119
  993MOL0     C33969   8.655   0.427  10.875  0.4482 -0.2950 -0.1851
  993MOL0     C33970   8.536   0.466  10.805 -0.4484  0.2825 -0.5197
  993MOL0     N33971   8.010   1.130  10.731 -0.0040  0.5592  0.0688
  993MOL0     N33972   7.890   1.149  10.763  0.3407 -0.0281 -0.6662
  993MOL0     C33973   8.158   0.176  10.990 -0.4080  0.2299 -0.5450
  993MOL0     C33974   8.284   0.120  11.032  0.3450  0.1215 -0.6571
  993MOL0     C33975   8.648   0.093  11.333  0.2125 -0.2991  0.3891
  993MOL0     C33976   8.691   0.091  11.463  1.0476 -0.6930  0.2833
  993MOL0     C33977   8.802   0.023  11.508  0.1871 -0.2702 -0.1745
  993MOL0     C33978   8.875  -0.061  11.419  0.0148  0.8628 -0.5759
  993MOL0     O33979   8.983  -0.138  11.452 -0.4523 -0.3423 -0.0686
  993MOL0     C33980   9.012  -0.134  11.588  0.6313 -0.0237 -0.6475
  993MOL0     C33981   9.138  -0.202  11.622  0.4968 -0.4122 -0.0630
  993MOL0     C33982   9.166  -0.228  11.765  0.3228  0.5478 -0.1103
  993MOL0     C33983   9.247  -0.123  11.842 -0.0097 -0.6490  0.9176
  993MOL0     C33984   9.382  -0.095  11.779  0.3827 -0.3210  0.2045
  993MOL0     C33985   9.483  -0.098  11.720  0.2038 -1.1103  0.6144
  993MOL0     C33986   8.848  -0.052  11.281  0.2861  0.3062 -0.7951
  993MOL0     C33987   8.723   0.018  11.242 -0.6455  0.0013  0.1951
  993MOL0     H33988   8.415   0.389  11.178  0.4164 -1.9559 -0.6922
  993MOL0     H33989   8.170   0.482  11.141 -2.6359 -0.2714 -0.1078
  993MOL0     H33990   7.802   0.353  11.138 -0.8831  0.5742 -1.2608
  993MOL0     H33991   7.957   0.390  11.210  2.4485 -0.7317 -2.3752
  993MOL0     H33992   7.829   0.574  11.172  1.9283  1.4292 -0.2992
  993MOL0     H33993   7.977   0.581  11.055  0.9620 -1.4605 -1.7762
  993MOL0     H33994   7.774   0.466  10.887  1.5036 -1.9707  0.1765
  993MOL0     H33995   7.675   0.521  11.024  0.7506  1.9031  1.2320
  993MOL0     H33996   7.864   0.724  10.909 -0.7418  1.2539  3.6944
  993MOL0     H33997   7.740   0.668  10.798  2.7673  3.0706 -1.2876
  993MOL0     H33998   7.566   0.708  10.948  1.7254 -3.5246  2.3816
  993MOL0     H33999   7.675   0.763  11.071 -2.5877 -2.8956  0.0657
  993MOL0     H34000   7.587   0.967  10.960 -0.3069  2.5607 -0.8937
  993MOL0     H34001   7.762   0.941  10.908  0.5906 -2.6098 -1.9341
  993MOL0     H34002   7.658   0.838  10.697  3.5819  1.1752 -0.2962
  993MOL0     H34003   7.508   0.912  10.749  0.7862 -3.1018 -3.9758
  993MOL0     H34004   7.636   1.144  10.755 -0.0624 -0.3556  1.6306
  993MOL0     H34005   7.639   1.064  10.588  0.0420 -1.3147  0.1033
  993MOL0     H34006   7.873   0.928  10.515  1.8383 -3.1099  0.5586
  993MOL0     H34007   8.136   0.983  10.467  0.0726 -0.7449  0.3956
  993MOL0     H34008   8.240   1.042  10.602  0.9473  0.9394 -2.4971
  993MOL0     H34009   8.284   0.819  10.552 -0.2625  1.4447 -0.1212
  993MOL0     H34010   8.103   0.768  10.583 -0.8680  0.3163  0.9148
  993MOL0     H34011   8.129   0.856  10.819  0.3544  2.4606 -0.1876
  993MOL0     H34012   8.301   0.882  10.789  0.1222  1.0326 -2.6991
  993MOL0     H34013   8.166   0.604  10.768 -3.0440  0.7123  1.8418
  993MOL0     H34014   8.239   0.677  10.912 -2.8935  1.2501 -0.7866
  993MOL0     H34015   8.491   0.767  10.958 -1.0657  0.0746  1.9323
  993MOL0     H34016   8.750   0.796  11.088 -0.7232  0.2010 -1.7920
  993MOL0     H34017   8.585   0.796  11.131 -0.5502 -0.9150 -0.0195
  993MOL0     H34018   8.683   0.682  11.220 -0.6250  1.0441  0.6003
  993MOL0     H34019   8.999   0.169  10.924 -2.1193  4.1302  1.2912
  993MOL0     H34020   9.196   0.046  11.027 -0.3541  2.4485 -3.7251
  993MOL0     H34021   9.361  -0.059  11.172  1.0140  1.0577  0.3315
  993MOL0     H34022   9.393   0.119  11.181  3.0382  0.1871  0.6626
  993MOL0     H34023   9.560   0.020  11.268  1.2503 -0.7529 -0.5178
  993MOL0     H34024   9.467   0.057  11.422  3.4105 -2.2319  0.7477
  993MOL0     H34025   9.375  -0.194  11.360  0.6479 -0.6888 -2.0121
  993MOL0     H34026   9.506  -0.158  11.474 -1.5680 -2.5785  0.0516
  993MOL0     H34027   9.573  -0.200  11.189  1.6631 -0.4142  0.1409
  993MOL0     H34028   9.692  -0.194  11.320  1.1306  1.1230 -1.0385
  993MOL0     H34029   9.492  -0.401  11.372 -0.9928 -0.0770 -1.6134
  993MOL0     H34030   9.667  -0.423  11.322  0.0008  1.0657  3.1574
  993MOL0     H34031   9.417  -0.399  11.145  0.1212  1.1278  1.3796
  993MOL0     H34032   9.580  -0.380  11.079 -1.9372  1.6944  0.1797
  993MOL0     H34033   9.454  -0.629  11.182  3.1221 -2.9488  0.7010
  993MOL0     H34034   9.629  -0.615  11.184 -0.4919 -1.1728  0.5232
  993MOL0     H34035   9.619  -0.597  10.937  1.7131  2.6189  2.8079
  993MOL0     H34036   9.434  -0.580  10.957  0.1770  0.7600  1.7597
  993MOL0     H34037   9.077   0.194  11.408 -0.7603  2.1613 -0.7391
  993MOL0     H34038   8.910   0.337  11.303  0.5505  2.4371 -0.7387
  993MOL0     H34039   8.694   0.332  10.841 -0.7452 -0.8295 -0.1054
  993MOL0     H34040   8.483   0.404  10.733 -1.1550 -0.7265  0.8196
  993MOL0     H34041   8.088   0.103  10.950 -0.4034  1.0393 -2.1025
  993MOL0     H34042   8.300   0.014  11.017  1.6194  0.1631  0.2496
  993MOL0     H34043   8.645   0.140  11.548  3.5933  0.2417  1.1988
  993MOL0     H34044   8.810   0.033  11.616 -0.8420 -0.9983 -0.0142
  993MOL0     H34045   9.015  -0.036  11.636  0.4557 -0.9340  1.3396
  993MOL0     H34046   8.945  -0.202  11.641 -0.6734 -1.8286 -4.2723
  993MOL0     H34047   9.219  -0.162  11.560 -0.5214  1.1333 -0.4597
  993MOL0     H34048   9.122  -0.300  11.575  1.5919  0.1233 -1.6372
  993MOL0     H34049   9.224  -0.321  11.763 -0.5943 -0.0416  0.1357
  993MOL0     H34050   9.072  -0.251  11.816 -0.1818 -3.4992 -2.4861
  993MOL0     H34051   9.263  -0.143  11.948  1.1168  1.5698  1.2222
  993MOL0     H34052   9.182  -0.037  11.822 -2.4117 -3.0726 -3.2828
  993MOL0     H34053   9.566  -0.102  11.652  0.3760  1.0903  0.6344
  993MOL0     H34054   8.900  -0.104  11.201 -2.9308 -0.4549 -2.5893
  993MOL0     H34055   8.707   0.024  11.135  1.0607 -0.7932 -0.1358
  994MOL0     O34056   2.144   3.795   0.822 -0.0076 -0.0118  0.4354
  994MOL0     C34057   2.030   3.804   0.866  0.0464 -0.4165 -0.1688
  994MOL0     O34058   1.998   3.770   0.990 -0.3323  0.9003 -0.7040
  994MOL0     C34059   2.085   3.791   1.097 -0.4800 -0.5038 -0.8219
  994MOL0     C34060   2.109   3.915   1.156  0.0683 -0.2771 -0.3713
  994MOL0     C34061   2.218   3.927   1.243 -0.1946  0.8608 -0.5177
  994MOL0     C34062   2.285   3.809   1.287 -0.5275  0.1282  0.1177
  994MOL0     O34063   2.383   3.822   1.385 -0.1838 -0.0322  0.5226
  994MOL0     C34064   2.491   3.732   1.384 -0.3106  0.0798 -0.1693
  994MOL0     C34065   2.618   3.815   1.389 -0.1232  0.0792 -1.0392
  994MOL0     C34066   2.733   3.722   1.410 -0.0647  0.3722 -0.0238
  994MOL0     C34067   2.747   3.639   1.539  0.7058 -0.3246 -1.4744
  994MOL0     C34068   2.733   3.709   1.674 -0.1756  0.0131  0.4410
  994MOL0     C34069   2.717   3.599   1.784  1.0371  0.3688 -0.0701
  994MOL0     C34070   2.694   3.655   1.920  0.0875 -0.5188  0.7365
  994MOL0     C34071   2.817   3.730   1.973 -0.1934  0.0010  0.1795
  994MOL0     N34072   2.933   3.643   1.985  0.0268 -0.8310  0.4901
  994MOL0     C34073   2.933   3.522   2.041 -0.8225  0.5362  0.5105
  994MOL0     C34074   3.053   3.469   2.016  0.4674  0.1108 -0.4083
  994MOL0     C34075   3.109   3.329   2.047 -0.0747  0.5317  0.7245
  994MOL0     C34076   3.005   3.217   2.048 -0.6799  0.3363 -0.1726
  994MOL0     C34077   2.985   3.135   1.918 -0.9135 -0.1153 -0.1252
  994MOL0     C34078   2.900   3.189   1.803  1.0929 -0.6953 -0.7446
  994MOL0     O34079   2.755   3.205   1.842 -0.0487 -0.3434  0.1638
  994MOL0     C34080   2.668   3.243   1.748 -0.2580  0.2833  0.6602
  994MOL0     C34081   2.696   3.264   1.610  0.0575  0.6209  0.6837
  994MOL0     C34082   2.597   3.304   1.515  0.4228  0.6648 -0.2045
  994MOL0     C34083   2.655   3.338   1.382  0.7604 -0.4473  0.0501
  994MOL0     C34084   2.464   3.322   1.558  0.8256  0.8556  0.6879
  994MOL0     C34085   2.358   3.356   1.461  0.4663  1.0100  0.2162
  994MOL0     O34086   2.232   3.363   1.524 -1.2816 -0.4018  0.6493
  994MOL0     C34087   2.125   3.372   1.434 -0.6360  0.3443 -0.3662
  994MOL0     C34088   2.057   3.485   1.428  0.2289 -0.8989 -1.2131
  994MOL0     C34089   1.944   3.490   1.341 -0.1165 -0.1494  0.1918
  994MOL0     C34090   1.912   3.383   1.250  0.2838 -0.1420 -0.1754
  994MOL0     O34091   1.804   3.388   1.163 -0.9204 -0.6363 -0.1912
  994MOL0     C34092   1.823   3.371   1.016 -0.8423 -0.0081 -0.0960
  994MOL0     C34093   1.695   3.380   0.942  0.3872 -0.8558 -0.1045
  994MOL0     C34094   1.715   3.437   0.804 -0.0795  1.0948  0.7643
  994MOL0     C34095   1.595   3.481   0.719 -0.4990 -0.1940 -0.3433
  994MOL0     C34096   1.514   3.354   0.669 -0.5056  0.3391  0.1128
  994MOL0     C34097   1.592   3.277   0.563 -0.4545  0.5048 -0.2306
  994MOL0     C34098   1.539   3.124   0.564  0.3473 -0.1632  0.9135
  994MOL0     C34099   1.391   3.101   0.521 -0.3573 -0.4569 -0.4188
  994MOL0    Cl34100   1.339   2.928   0.503 -0.1288 -0.4425 -0.3133
  994MOL0     C34101   1.995   3.262   1.263  0.5377 -1.2694 -1.0700
  994MOL0     C34102   2.093   3.262   1.353 -0.1184  0.2795 -0.3502
  994MOL0     O34103   2.381   3.364   1.339  1.2199  0.4821  0.3213
  994MOL0     C34104   2.435   3.309   1.701 -0.5259 -1.0392  0.1290
  994MOL0     C34105   2.543   3.271   1.796  0.0611  0.8380  0.6685
  994MOL0     N34106   3.136   3.569   1.957 -0.1789 -0.0987  0.5156
  994MOL0     N34107   3.063   3.673   1.938  0.5860  0.8730  0.2820
  994MOL0     C34108   2.247   3.684   1.242  0.3570 -0.0569 -0.8010
  994MOL0     C34109   2.149   3.676   1.144  0.6523 -0.7346  0.8854
  994MOL0     C34110   1.920   3.820   0.758  1.1359  0.4917  0.0114
  994MOL0     C34111   1.785   3.788   0.795 -0.7755  0.2398 -0.0205
  994MOL0     C34112   1.687   3.790   0.703  0.3062  0.3114 -0.5667
  994MOL0     C34113   1.705   3.833   0.572 -0.4278 -1.6520  0.8113
  994MOL0     O34114   1.607   3.870   0.489  0.1925  0.0028  0.2056
  994MOL0     C34115   1.618   3.867   0.346 -0.8782 -0.6406  0.3062
  994MOL0     C34116   1.671   3.740   0.284  1.3444  0.5563 -0.2478
  994MOL0     C34117   1.576   3.625   0.257  0.7587 -0.5193 -0.4665
  994MOL0     C34118   1.448   3.662   0.172  0.3853 -0.0196 -0.4973
  994MOL0     C34119   1.378   3.545   0.112  0.1158  0.8564 -0.1249
  994MOL0     C34120   1.304   3.453   0.080 -0.6680 -0.0322  0.9215
  994MOL0     C34121   1.840   3.858   0.535  0.0915  1.0547  0.2431
  994MOL0     C34122   1.947   3.859   0.622  0.7168  0.3146 -0.5438
  994MOL0     H34123   2.057   3.995   1.104 -0.2638 -1.5870 -2.1328
  994MOL0     H34124   2.255   4.020   1.284  0.9298 -0.9860  3.0904
  994MOL0     H34125   2.482   3.673   1.475 -0.4059  1.2698  0.6066
  994MOL0     H34126   2.495   3.657   1.304 -0.7076 -0.7211  0.5458
  994MOL0     H34127   2.641   3.862   1.292 -0.9409 -2.6043 -2.6342
  994MOL0     H34128   2.606   3.873   1.481  1.6834 -4.5523  2.4665
  994MOL0     H34129   2.736   3.657   1.322  0.0494  0.0989  0.1786
  994MOL0     H34130   2.818   3.790   1.403  0.6315 -0.4256  0.5224
  994MOL0     H34131   2.661   3.574   1.519  0.0055  0.4804 -1.1640
  994MOL0     H34132   2.841   3.585   1.533  0.0860 -1.6759  0.1239
  994MOL0     H34133   2.819   3.775   1.686 -0.9125  2.1238 -3.9607
  994MOL0     H34134   2.655   3.785   1.676  0.9959  1.2828 -0.3921
  994MOL0     H34135   2.633   3.536   1.755 -0.1953  0.8553  2.1939
  994MOL0     H34136   2.798   3.527   1.798  1.2379  0.5299 -0.4001
  994MOL0     H34137   2.613   3.728   1.910 -0.2804 -0.8960  0.9433
  994MOL0     H34138   2.668   3.583   1.998  2.0057 -0.6281  1.3361
  994MOL0     H34139   2.784   3.776   2.067 -0.8659 -1.0203  0.4642
  994MOL0     H34140   2.842   3.812   1.906  1.1960 -0.9976 -0.5670
  994MOL0     H34141   2.847   3.469   2.081  0.7202 -1.5390  1.2236
  994MOL0     H34142   3.194   3.312   1.980 -0.8654  3.4254 -1.2362
  994MOL0     H34143   3.147   3.335   2.149 -0.3229  4.5675  0.7383
  994MOL0     H34144   2.911   3.260   2.083 -0.7622  0.3833 -0.4457
  994MOL0     H34145   3.042   3.154   2.129  2.0799  0.7530 -1.0069
  994MOL0     H34146   2.927   3.055   1.965 -0.3537  0.1723  1.0900
  994MOL0     H34147   3.077   3.097   1.872  0.0952  0.3377  1.4677
  994MOL0     H34148   2.926   3.127   1.716 -2.0626 -2.6223 -0.4823
  994MOL0     H34149   2.934   3.292   1.789  0.5874 -0.0706  2.1196
  994MOL0     H34150   2.801   3.254   1.583  0.1485  1.6080  0.6410
  994MOL0     H34151   2.613   3.435   1.353 -2.2518 -1.5617  0.3268
  994MOL0     H34152   2.760   3.369   1.383 -0.1191  2.9313 -0.6610
  994MOL0     H34153   2.638   3.257   1.310 -0.3483 -0.2475  0.0689
  994MOL0     H34154   2.082   3.568   1.493  3.1034  0.3931 -3.7173
  994MOL0     H34155   1.884   3.580   1.339  0.1990  0.0915 -2.7363
  994MOL0     H34156   1.897   3.444   0.981 -0.1511 -1.6137 -2.2230
  994MOL0     H34157   1.878   3.282   0.987 -2.4747 -0.3702 -2.3657
  994MOL0     H34158   1.648   3.282   0.941 -1.4258 -0.0775 -2.1900
  994MOL0     H34159   1.625   3.450   0.989 -0.0511 -1.0824 -0.4129
  994MOL0     H34160   1.768   3.363   0.743 -0.4124  1.4969 -0.0375
  994MOL0     H34161   1.779   3.523   0.823  1.6275  0.4628 -1.6379
  994MOL0     H34162   1.532   3.553   0.773  0.8725  1.5303 -0.9696
  994MOL0     H34163   1.630   3.535   0.631  0.0835 -0.6958 -0.4297
  994MOL0     H34164   1.420   3.387   0.623  0.5402 -0.0242 -2.4934
  994MOL0     H34165   1.496   3.294   0.758  3.8793  0.1301  1.0799
  994MOL0     H34166   1.566   3.318   0.465  1.8633  0.3218 -0.9920
  994MOL0     H34167   1.701   3.279   0.571 -0.0678 -3.8588 -1.7500
  994MOL0     H34168   1.540   3.086   0.666 -4.0475  2.5364  2.2482
  994MOL0     H34169   1.598   3.051   0.507  1.1876 -1.4186  3.2677
  994MOL0     H34170   1.369   3.152   0.427 -0.3828 -2.3001 -1.4661
  994MOL0     H34171   1.328   3.151   0.595 -1.6520 -0.2769 -1.6068
  994MOL0     H34172   1.968   3.175   1.205 -1.2498 -1.7619  0.4081
  994MOL0     H34173   2.151   3.170   1.355 -1.0848 -0.3716  2.6777
  994MOL0     H34174   2.333   3.323   1.733 -0.8615 -0.7493 -1.0034
  994MOL0     H34175   2.509   3.258   1.898 -1.2674 -0.0689  0.1374
  994MOL0     H34176   2.286   3.596   1.292  1.0375  0.6212 -0.1288
  994MOL0     H34177   2.119   3.577   1.111 -3.7246  0.1375  1.6415
  994MOL0     H34178   1.767   3.774   0.901 -0.6349  0.5262  0.0409
  994MOL0     H34179   1.585   3.767   0.732  1.1020 -0.8317  1.5801
  994MOL0     H34180   1.527   3.900   0.295  0.9415 -0.0498 -2.8333
  994MOL0     H34181   1.685   3.943   0.306 -1.0455 -0.3576  0.5522
  994MOL0     H34182   1.755   3.702   0.343 -0.3498  3.3794  4.4711
  994MOL0     H34183   1.710   3.773   0.187  1.9812  0.9413  0.1308
  994MOL0     H34184   1.543   3.579   0.351 -2.4464 -1.1660 -1.7675
  994MOL0     H34185   1.633   3.545   0.210  1.7247 -0.5783  0.7476
  994MOL0     H34186   1.451   3.741   0.097 -3.4390 -0.2612 -1.0960
  994MOL0     H34187   1.373   3.692   0.245  1.7032 -2.6851  2.1818
  994MOL0     H34188   1.239   3.373   0.051  0.0935 -0.2723 -0.1728
  994MOL0     H34189   1.862   3.884   0.431  2.2117 -3.1749 -0.5922
  994MOL0     H34190   2.043   3.889   0.581 -0.3257  1.0699 -2.5820
  995MOL0     O34191   5.409  10.469  10.084  0.2639 -0.5233  0.5619
  995MOL0     C34192   5.453  10.368  10.047 -0.3256  0.0589 -0.2052
  995MOL0     O34193   5.494  10.272  10.139 -0.4643  0.3196  0.1004
  995MOL0     C34194   5.500  10.287  10.275  0.6859  0.3292 -0.1599
  995MOL0     C34195   5.611  10.225  10.337  1.5745 -0.8591 -1.5410
  995MOL0     C34196   5.622  10.227  10.473  0.3772 -0.5012 -0.0776
  995MOL0     C34197   5.533  10.296  10.558 -0.6831 -0.2076 -0.1898
  995MOL0     O34198   5.560  10.305  10.696 -0.8373  0.1346  0.4609
  995MOL0     C34199   5.514  10.414  10.775  0.0845  0.5192  0.6680
  995MOL0     C34200   5.486  10.377  10.923  0.2696 -0.0318 -0.3078
  995MOL0     C34201   5.432  10.487  11.021  0.6366 -0.0888  1.2285
  995MOL0     C34202   5.542  10.582  11.064  0.5786 -0.1634  0.9935
  995MOL0     C34203   5.681  10.522  11.086  0.5208 -0.1293 -0.1068
  995MOL0     C34204   5.765  10.638  11.147  0.2907 -1.3622 -0.0036
  995MOL0     C34205   5.905  10.591  11.192  0.7477 -0.1671 -0.2928
  995MOL0     C34206   5.980  10.705  11.257 -0.6463  0.1772  0.1903
  995MOL0     N34207   6.099  10.669  11.339 -0.2079  0.1219 -0.8159
  995MOL0     C34208   6.219  10.623  11.291 -0.3022  0.2079  0.1613
  995MOL0     C34209   6.294  10.602  11.407 -0.4517  1.0164 -0.2684
  995MOL0     C34210   6.452  10.576  11.408  1.3745  1.2473  0.1741
  995MOL0     C34211   6.496  10.422  11.419  1.2918 -0.1123 -0.6199
  995MOL0     C34212   6.463  10.342  11.288 -0.1176 -0.3086  1.0660
  995MOL0     C34213   6.574  10.249  11.229  0.7912  0.4286  0.0446
  995MOL0     O34214   6.672  10.338  11.183  1.5729  0.6864 -0.4124
  995MOL0     C34215   6.789  10.286  11.129 -0.3711 -0.4746 -0.4969
  995MOL0     C34216   6.834  10.160  11.143 -1.0228 -0.4679  0.1104
  995MOL0     C34217   6.947  10.109  11.072  0.3856  0.7252 -1.0141
  995MOL0     C34218   6.962   9.964  11.081  0.7454  1.0308  0.2767
  995MOL0     C34219   7.028  10.203  10.995  1.1030  0.0783 -0.7278
  995MOL0     C34220   7.131  10.168  10.895  0.3784  0.6711  0.3258
  995MOL0     O34221   7.229  10.262  10.860 -1.1621 -0.2693 -0.5507
  995MOL0     C34222   7.335  10.225  10.785  0.0292  0.0362 -0.2395
  995MOL0     C34223   7.330  10.151  10.662  1.2653 -0.6970  0.1301
  995MOL0     C34224   7.444  10.140  10.588  1.0376  0.7384  0.1701
  995MOL0     C34225   7.565  10.200  10.630 -0.3955  0.6401  0.0797
  995MOL0     O34226   7.677  10.175  10.554 -0.3064 -0.2822 -0.1781
  995MOL0     C34227   7.678  10.077  10.451  0.5605 -0.3486  0.2840
  995MOL0     C34228   7.819  10.069  10.394 -0.1766 -0.1147 -0.1484
  995MOL0     C34229   7.861  10.204  10.331  0.1334  0.0720 -0.2883
  995MOL0     C34230   8.008  10.204  10.303  0.0110 -0.6573  0.1243
  995MOL0     C34231   8.101  10.225  10.420 -0.7313 -0.1400 -0.0098
  995MOL0     C34232   8.240  10.243  10.361 -0.6376 -0.0300  0.4847
  995MOL0     C34233   8.343  10.281  10.478 -0.7265 -0.4953 -0.8991
  995MOL0     C34234   8.476  10.336  10.421  0.0532  0.0633  0.6595
  995MOL0    Cl34235   8.527  10.453  10.545  0.1409 -0.1352  0.3242
  995MOL0     C34236   7.577  10.264  10.752  0.4774 -0.3810  0.6964
  995MOL0     C34237   7.464  10.275  10.834 -0.5536 -0.0813  1.2299
  995MOL0     O34238   7.115  10.057  10.847 -0.2688  0.0883 -0.8289
  995MOL0     C34239   6.989  10.344  10.998  0.9741 -0.7492 -0.2755
  995MOL0     C34240   6.870  10.385  11.068  0.1328 -0.5346  0.2555
  995MOL0     N34241   6.215  10.631  11.517 -0.0903  0.3838  0.4322
  995MOL0     N34242   6.091  10.659  11.477 -1.1023 -0.2497 -1.0321
  995MOL0     C34243   5.417  10.366  10.493 -0.8656  0.4810 -0.5144
  995MOL0     C34244   5.412  10.352  10.355  0.6063 -0.2759 -0.4746
  995MOL0     C34245   5.451  10.325   9.913  0.2496  0.1482  1.2206
  995MOL0     C34246   5.413  10.415   9.812 -0.1000  0.3252 -0.1164
  995MOL0     C34247   5.404  10.385   9.676 -0.2429  0.1638 -0.5727
  995MOL0     C34248   5.445  10.251   9.646 -1.2539 -0.6835  0.6547
  995MOL0     O34249   5.461  10.203   9.515  0.7425 -0.0241 -0.2018
  995MOL0     C34250   5.584  10.246   9.455  1.2255  0.3906  0.3463
  995MOL0     C34251   5.595  10.197   9.307 -0.0557 -1.2262 -0.5553
  995MOL0     C34252   5.598  10.049   9.297 -0.4755  0.0273 -0.1436
  995MOL0     C34253   5.674   9.995   9.174  1.1314 -0.1216 -0.6239
  995MOL0     C34254   5.614  10.040   9.047 -0.3972 -0.2700 -0.1022
  995MOL0     C34255   5.565  10.075   8.937  0.5028  0.1290 -0.1951
  995MOL0     C34256   5.489  10.161   9.739 -0.7996 -0.3631 -0.3074
  995MOL0     C34257   5.492  10.195   9.872  1.0498 -0.2097 -0.1868
  995MOL0     H34258   5.682  10.167  10.279  0.8890 -3.3620 -0.0384
  995MOL0     H34259   5.711  10.180  10.514  0.3209 -2.3004 -1.9121
  995MOL0     H34260   5.579  10.502  10.767 -0.9217  1.2481  0.3257
  995MOL0     H34261   5.415  10.442  10.738 -0.4992 -5.0093 -3.3130
  995MOL0     H34262   5.407  10.302  10.935 -1.3260  1.2492 -2.1463
  995MOL0     H34263   5.575  10.327  10.961 -1.0062 -2.1147  0.1071
  995MOL0     H34264   5.345  10.546  10.993  1.3785  1.3226  1.8178
  995MOL0     H34265   5.388  10.436  11.108 -3.2145 -1.4627 -1.2699
  995MOL0     H34266   5.554  10.663  10.992 -1.4277 -0.6201  0.0670
  995MOL0     H34267   5.516  10.627  11.161 -0.3996  2.1940 -0.2910
  995MOL0     H34268   5.658  10.439  11.154 -3.1483 -1.1765 -2.3399
  995MOL0     H34269   5.730  10.478  10.998 -0.5003 -5.7020  1.7288
  995MOL0     H34270   5.765  10.718  11.073 -0.1225 -1.5436 -0.2011
  995MOL0     H34271   5.723  10.675  11.241  3.0543  0.8687  0.4916
  995MOL0     H34272   5.902  10.502  11.256 -3.3708 -2.2599 -2.9497
  995MOL0     H34273   5.963  10.563  11.103  0.4099 -3.4449  0.3666
  995MOL0     H34274   5.914  10.775  11.309 -2.9014 -1.8406  0.2540
  995MOL0     H34275   6.028  10.754  11.172  1.3066 -3.2354 -0.8802
  995MOL0     H34276   6.246  10.603  11.188 -2.1021 -1.7508  0.0078
  995MOL0     H34277   6.505  10.624  11.326  0.6259  3.2638  0.7979
  995MOL0     H34278   6.502  10.624  11.493  4.1691 -1.8191  0.4292
  995MOL0     H34279   6.455  10.389  11.514 -1.7969  2.2388 -0.9539
  995MOL0     H34280   6.605  10.418  11.426  1.2476 -0.3645 -0.0906
  995MOL0     H34281   6.436  10.412  11.209  1.3180 -0.4518  0.4209
  995MOL0     H34282   6.383  10.269  11.306 -0.9568 -0.1426 -1.5795
  995MOL0     H34283   6.524  10.195  11.148  0.5104  1.3111 -0.3833
  995MOL0     H34284   6.614  10.180  11.305 -1.4564 -0.6063  0.3806
  995MOL0     H34285   6.786  10.085  11.205 -1.1685  0.4443  1.1294
  995MOL0     H34286   6.901   9.917  11.159  1.3579  1.1199  0.8237
  995MOL0     H34287   6.936   9.926  10.982 -1.4764  2.0020  0.4200
  995MOL0     H34288   7.069   9.940  11.086  0.6479  0.0371 -1.5988
  995MOL0     H34289   7.241  10.101  10.625 -1.6100  2.9693  1.4366
  995MOL0     H34290   7.428  10.080  10.498 -0.6092  2.8749 -1.0692
  995MOL0     H34291   7.656   9.977  10.488  0.8864 -2.1417 -3.8361
  995MOL0     H34292   7.616  10.111  10.367 -0.2562 -0.1872  0.9312
  995MOL0     H34293   7.880  10.037  10.479 -0.1888  0.3689  0.0460
  995MOL0     H34294   7.832   9.990  10.319  1.8073 -2.3683  2.3339
  995MOL0     H34295   7.835  10.283  10.402 -1.5793 -1.5626  0.9843
  995MOL0     H34296   7.797  10.225  10.245  1.1028 -0.0015 -1.0520
  995MOL0     H34297   8.040  10.114  10.249  1.9267  0.6161 -0.9691
  995MOL0     H34298   8.036  10.282  10.232  0.1228 -2.7881 -2.2893
  995MOL0     H34299   8.089  10.140  10.488 -2.9410 -2.6290 -3.1986
  995MOL0     H34300   8.085  10.319  10.473  0.8027  0.0698  0.1333
  995MOL0     H34301   8.265  10.148  10.314  2.5201 -1.6831  4.8091
  995MOL0     H34302   8.235  10.322  10.286 -0.4424 -0.4294  0.0486
  995MOL0     H34303   8.352  10.200  10.552 -0.3067  1.4679  1.3194
  995MOL0     H34304   8.291  10.366  10.522 -2.1643 -0.6758 -2.1550
  995MOL0     H34305   8.447  10.382  10.326  1.4955 -1.9719 -0.8675
  995MOL0     H34306   8.557  10.268  10.391  0.2586  0.6803 -0.2454
  995MOL0     H34307   7.669  10.298  10.798  0.4825 -1.0386  1.1803
  995MOL0     H34308   7.462  10.316  10.934 -0.7990 -1.5126  1.8281
  995MOL0     H34309   7.044  10.404  10.926 -1.6396  0.5462 -1.3041
  995MOL0     H34310   6.834  10.486  11.059  3.7311  0.8721 -0.1374
  995MOL0     H34311   5.339  10.417  10.548 -2.9586 -4.0646  1.1703
  995MOL0     H34312   5.320  10.385  10.308  0.4673 -2.1769 -1.6603
  995MOL0     H34313   5.374  10.510   9.848 -0.4125 -0.7693  2.6571
  995MOL0     H34314   5.376  10.460   9.602 -1.7638 -0.6009 -0.8147
  995MOL0     H34315   5.601  10.353   9.464  1.1965  0.5386 -1.1867
  995MOL0     H34316   5.671  10.203   9.506  0.8297 -2.6181 -1.2798
  995MOL0     H34317   5.688  10.239   9.267 -0.6785  2.1605  1.2325
  995MOL0     H34318   5.503  10.228   9.256 -0.1386  1.9925  1.2767
  995MOL0     H34319   5.502   9.997   9.313 -0.9838  1.9181  4.6275
  995MOL0     H34320   5.659  10.019   9.382 -0.6287  1.8058  0.6313
  995MOL0     H34321   5.669   9.886   9.183  0.1329 -0.0667 -0.3128
  995MOL0     H34322   5.776  10.022   9.200  0.8604 -1.6017  2.4714
  995MOL0     H34323   5.526  10.113   8.845 -0.6047  0.5865  0.4512
  995MOL0     H34324   5.519  10.063   9.706  0.6648 -0.0179 -0.0857
  995MOL0     H34325   5.531  10.127   9.946 -2.1506  2.1372  4.1030
  996MOL0     O34326   9.540   9.470   3.592 -0.3838  0.8250 -0.2174
  996MOL0     C34327   9.662   9.479   3.585  1.1013 -0.9604  0.6041
  996MOL0     O34328   9.732   9.398   3.507  0.3403 -0.7235  0.4060
  996MOL0     C34329   9.667   9.285   3.451 -0.8798 -0.4375 -1.0617
  996MOL0     C34330   9.612   9.191   3.540 -0.2319 -0.8274  0.0677
  996MOL0     C34331   9.565   9.073   3.480 -1.1555  0.0958 -0.5750
  996MOL0     C34332   9.545   9.070   3.344 -0.1954  0.7942  0.0643
  996MOL0     O34333   9.500   8.951   3.284  0.9783  0.4194  0.1232
  996MOL0     C34334   9.430   8.851   3.366  0.2253 -0.3561 -0.1921
  996MOL0     C34335   9.345   8.758   3.278  0.5567  0.8749  0.2935
  996MOL0     C34336   9.206   8.724   3.329 -0.2798  0.2330 -0.5229
  996MOL0     C34337   9.198   8.690   3.482  0.6854  0.7374  0.2483
  996MOL0     C34338   9.052   8.635   3.513  0.1970  0.8235 -0.0588
  996MOL0     C34339   8.952   8.751   3.489  0.0085  0.0722 -0.4861
  996MOL0     C34340   8.818   8.715   3.543  0.7193  0.8185  0.4426
  996MOL0     C34341   8.699   8.797   3.481 -0.6635 -0.3340  0.1791
  996MOL0     N34342   8.561   8.772   3.553 -0.1978 -0.5802  0.5016
  996MOL0     C34343   8.494   8.645   3.576 -0.7649 -0.2927 -0.5691
  996MOL0     C34344   8.362   8.674   3.611 -0.4332 -0.8996 -0.5905
  996MOL0     C34345   8.258   8.568   3.640 -0.9873  1.1039 -0.1884
  996MOL0     C34346   8.303   8.461   3.751  0.2740  0.5268 -0.3421
  996MOL0     C34347   8.325   8.522   3.888  0.1275  0.1790  0.3212
  996MOL0     C34348   8.431   8.450   3.979 -0.2752 -0.2596  0.7923
  996MOL0     O34349   8.462   8.532   4.097  0.4200 -0.4222 -0.5356
  996MOL0     C34350   8.564   8.494   4.190  0.0307  0.1080  0.3937
  996MOL0     C34351   8.630   8.365   4.203  0.9202 -0.4148 -0.7932
  996MOL0     C34352   8.720   8.336   4.307 -0.1043  0.4234  1.0499
  996MOL0     C34353   8.784   8.198   4.305 -0.1902 -0.2038  0.1294
  996MOL0     C34354   8.751   8.431   4.401 -0.6093 -0.4228  0.4167
  996MOL0     C34355   8.828   8.407   4.527 -1.0972 -0.9646 -0.5235
  996MOL0     O34356   8.870   8.517   4.608  0.1493  1.2626  0.2159
  996MOL0     C34357   8.954   8.490   4.709 -0.5209  0.3164  0.3454
  996MOL0     C34358   9.092   8.472   4.678  0.1758  0.1077  0.7440
  996MOL0     C34359   9.179   8.444   4.775  0.1243 -0.3777 -0.4750
  996MOL0     C34360   9.137   8.433   4.911  1.2859  0.0864 -0.2097
  996MOL0     O34361   9.219   8.397   5.008 -0.1108 -0.4373 -0.4686
  996MOL0     C34362   9.337   8.325   4.986  0.3715 -0.3059  0.9339
  996MOL0     C34363   9.399   8.278   5.106 -0.2525  0.9291  0.0192
  996MOL0     C34364   9.486   8.382   5.170  0.5148 -0.8412 -0.8860
  996MOL0     C34365   9.393   8.477   5.241 -0.2087 -0.3819 -0.2027
  996MOL0     C34366   9.479   8.568   5.334  0.3313 -0.6433  0.4339
  996MOL0     C34367   9.386   8.655   5.425  0.1743 -0.4874 -1.0285
  996MOL0     C34368   9.270   8.729   5.341  0.0577 -0.5311  0.3313
  996MOL0     C34369   9.200   8.850   5.398 -0.3087 -1.3413  0.4217
  996MOL0    Cl34370   9.097   8.819   5.539  0.5209 -0.0680  0.2218
  996MOL0     C34371   9.003   8.431   4.938  0.4693 -0.7664 -0.0282
  996MOL0     C34372   8.910   8.463   4.842  0.3207  0.3802  0.4773
  996MOL0     O34373   8.842   8.286   4.554  0.0779 -0.9265 -0.0708
  996MOL0     C34374   8.696   8.558   4.385  0.4921  0.3405  0.6423
  996MOL0     C34375   8.601   8.587   4.285 -0.3670  0.0612  0.5984
  996MOL0     N34376   8.353   8.813   3.626 -0.6348  0.3621 -0.1398
  996MOL0     N34377   8.475   8.868   3.595 -0.5977  0.0141 -0.1716
  996MOL0     C34378   9.578   9.168   3.258 -0.9098 -0.0903 -0.1356
  996MOL0     C34379   9.646   9.274   3.315  0.2469  0.1067 -0.2259
  996MOL0     C34380   9.734   9.604   3.636  0.3924 -0.1496 -0.2604
  996MOL0     C34381   9.674   9.690   3.730 -0.1272  0.2180 -0.4557
  996MOL0     C34382   9.751   9.797   3.783  0.2412  0.8647  0.0439
  996MOL0     C34383   9.878   9.835   3.737 -0.4491  1.3692 -0.5247
  996MOL0     O34384   9.949   9.934   3.804 -0.8584 -0.0481 -0.7860
  996MOL0     C34385  10.093   9.939   3.785 -0.3978 -0.7480 -0.5193
  996MOL0     C34386  10.174   9.990   3.907 -0.3993 -0.4200 -0.1007
  996MOL0     C34387  10.104  10.098   3.972  1.2869  0.0185 -0.9769
  996MOL0     C34388  10.078  10.213   3.880 -0.4854 -0.5475  0.7269
  996MOL0     C34389  10.050  10.333   3.953 -0.6687 -0.8315  0.6523
  996MOL0     C34390  10.016  10.435   4.011 -0.0870  0.3443 -0.4582
  996MOL0     C34391   9.935   9.740   3.643  0.2319  0.0353 -0.1504
  996MOL0     C34392   9.863   9.630   3.597 -0.2906  0.5201  0.5881
  996MOL0     H34393   9.617   9.183   3.648 -0.4038 -0.0044  0.1487
  996MOL0     H34394   9.547   8.994   3.553 -0.0460  0.6259  0.2983
  996MOL0     H34395   9.505   8.790   3.417 -1.9526 -1.5573  1.7739
  996MOL0     H34396   9.388   8.909   3.449  2.4708  0.3109  0.5544
  996MOL0     H34397   9.337   8.796   3.176 -0.1495  0.1109  0.0636
  996MOL0     H34398   9.402   8.666   3.290  2.2967  2.0483  1.6814
  996MOL0     H34399   9.134   8.804   3.309 -0.2566  0.9237  1.7939
  996MOL0     H34400   9.167   8.642   3.269  1.3639  0.2913 -1.7310
  996MOL0     H34401   9.272   8.615   3.508 -1.8186 -2.7230 -1.7284
  996MOL0     H34402   9.209   8.779   3.545 -1.5158  0.1372  1.6047
  996MOL0     H34403   9.026   8.545   3.457 -1.6770 -1.8873  4.5590
  996MOL0     H34404   9.050   8.596   3.616  0.4122  0.0520 -0.3344
  996MOL0     H34405   8.993   8.845   3.529  1.6454 -0.5732 -0.5642
  996MOL0     H34406   8.940   8.749   3.380 -2.2450 -2.0713 -0.2737
  996MOL0     H34407   8.799   8.607   3.532 -0.3153  1.1555 -1.7798
  996MOL0     H34408   8.829   8.740   3.648 -3.7501  1.8883  0.8492
  996MOL0     H34409   8.685   8.781   3.374  0.9557 -1.0781  0.0478
  996MOL0     H34410   8.723   8.903   3.489 -3.6785  0.4315  0.4010
  996MOL0     H34411   8.529   8.545   3.553  0.4436 -0.0318  0.0661
  996MOL0     H34412   8.160   8.608   3.669 -1.5734 -2.3308  3.3989
  996MOL0     H34413   8.245   8.509   3.549  4.4250  2.1770 -1.9929
  996MOL0     H34414   8.391   8.407   3.716  0.8035  2.1575 -1.6688
  996MOL0     H34415   8.224   8.385   3.753 -0.0521  0.8633 -0.0552
  996MOL0     H34416   8.229   8.540   3.938  0.9351  0.5244  1.8167
  996MOL0     H34417   8.367   8.622   3.873  2.4496 -0.7752  0.1525
  996MOL0     H34418   8.518   8.435   3.914 -0.9647 -1.2494  0.0664
  996MOL0     H34419   8.391   8.350   3.999 -0.9006 -0.4669 -1.1869
  996MOL0     H34420   8.600   8.289   4.131 -0.8293 -0.1247 -0.4105
  996MOL0     H34421   8.781   8.160   4.203 -2.0868  4.0070 -1.6230
  996MOL0     H34422   8.888   8.202   4.341 -0.8180  0.7568  1.9488
  996MOL0     H34423   8.716   8.138   4.366  1.2625 -1.6631  0.4041
  996MOL0     H34424   9.138   8.486   4.581  2.2959  0.9168  1.7961
  996MOL0     H34425   9.287   8.444   4.759  1.2090  1.9331  4.8208
  996MOL0     H34426   9.313   8.242   4.920  3.4695  0.8901 -1.9899
  996MOL0     H34427   9.404   8.393   4.933 -0.8120  1.4812  1.6139
  996MOL0     H34428   9.326   8.231   5.172 -0.2594  1.0517  0.1000
  996MOL0     H34429   9.468   8.202   5.069  0.5315  1.2008  0.8890
  996MOL0     H34430   9.547   8.430   5.093  1.5983 -0.5293  0.1469
  996MOL0     H34431   9.560   8.341   5.238  0.2170 -0.2233 -0.1671
  996MOL0     H34432   9.343   8.543   5.169  2.7254  0.6882 -1.3811
  996MOL0     H34433   9.316   8.425   5.299 -0.7867  1.0364  0.3701
  996MOL0     H34434   9.542   8.624   5.264 -0.5973 -0.9829 -0.7020
  996MOL0     H34435   9.551   8.502   5.383  1.1390 -3.0437 -3.4737
  996MOL0     H34436   9.346   8.581   5.495  1.9819  0.3197  0.9760
  996MOL0     H34437   9.448   8.730   5.475  1.7802 -0.6626 -2.6257
  996MOL0     H34438   9.198   8.654   5.310  2.0589 -1.6677 -1.9032
  996MOL0     H34439   9.327   8.773   5.258  0.1534  2.3057  1.7745
  996MOL0     H34440   9.126   8.870   5.320 -1.3719 -1.6262  1.3473
  996MOL0     H34441   9.262   8.940   5.410  0.0364 -1.2028 -1.8204
  996MOL0     H34442   8.968   8.417   5.040  1.2732  2.9383  0.9079
  996MOL0     H34443   8.805   8.481   4.863  0.8150 -0.5728  4.9018
  996MOL0     H34444   8.709   8.632   4.463 -1.6570  0.3400  1.0731
  996MOL0     H34445   8.554   8.685   4.280  0.8429  0.6062 -1.1511
  996MOL0     H34446   9.558   9.157   3.152 -0.1652 -1.8055 -0.1379
  996MOL0     H34447   9.690   9.357   3.259 -0.7293  1.1220  0.4755
  996MOL0     H34448   9.570   9.676   3.758  0.2769 -1.0084  0.4854
  996MOL0     H34449   9.704   9.853   3.864  0.3489 -1.3533  1.7401
  996MOL0     H34450  10.134   9.840   3.766 -0.3147 -1.2082  1.7027
  996MOL0     H34451  10.104  10.001   3.696  1.1637 -4.0244 -2.7971
  996MOL0     H34452  10.275  10.019   3.878  0.7513 -2.1536  1.9190
  996MOL0     H34453  10.193   9.910   3.980  0.2560 -1.3544 -1.2549
  996MOL0     H34454  10.160  10.139   4.057  2.7609  3.4617 -3.4202
  996MOL0     H34455  10.009  10.059   4.009  0.6846  0.9141 -1.5514
  996MOL0     H34456   9.988  10.187   3.823 -2.4767 -2.4997  4.4047
  996MOL0     H34457  10.167  10.234   3.818  1.1843 -1.1194  2.8257
  996MOL0     H34458   9.979  10.523   4.060  2.6047  0.3152  1.9105
  996MOL0     H34459  10.033   9.764   3.604  0.5441 -0.0239  0.5784
  996MOL0     H34460   9.912   9.561   3.529  1.8058  0.0064  2.4695
  997MOL0     O34461   5.194   6.334   2.608  0.0919 -0.2317 -0.1381
  997MOL0     C34462   5.162   6.215   2.602  0.7744  0.0677  0.0758
  997MOL0     O34463   5.242   6.112   2.640 -0.2389 -0.5604 -0.2261
  997MOL0     C34464   5.366   6.138   2.697  0.0247  0.1710 -0.0891
  997MOL0     C34465   5.408   6.051   2.803  0.2448 -0.0913  0.6183
  997MOL0     C34466   5.538   6.059   2.853  0.1659 -0.4463  0.6173
  997MOL0     C34467   5.626   6.157   2.806 -0.7290 -0.5610  0.1209
  997MOL0     O34468   5.743   6.172   2.877  0.2754  0.0816 -0.1822
  997MOL0     C34469   5.841   6.268   2.824 -0.3229 -0.1472 -0.5732
  997MOL0     C34470   5.960   6.243   2.916 -1.1790 -0.2113 -0.1771
  997MOL0     C34471   5.938   6.293   3.059 -0.3780 -0.0097  0.5436
  997MOL0     C34472   5.918   6.446   3.076  0.4512 -0.2849  0.0486
  997MOL0     C34473   5.941   6.497   3.219 -0.6198  0.1548  0.5079
  997MOL0     C34474   5.820   6.526   3.292 -0.0875 -0.5078  0.3236
  997MOL0     C34475   5.852   6.546   3.444 -0.6668 -0.6071 -0.4794
  997MOL0     C34476   5.736   6.610   3.518 -0.9106  0.2443  0.5818
  997MOL0     N34477   5.776   6.646   3.658 -0.1871  0.6242 -0.0468
  997MOL0     C34478   5.875   6.733   3.710  0.1513  0.1824  0.3206
  997MOL0     C34479   5.867   6.723   3.847  0.1731 -0.4793  0.3556
  997MOL0     C34480   5.940   6.803   3.960  0.1679  0.4124 -0.1279
  997MOL0     C34481   5.978   6.726   4.079 -0.0957 -0.1844  0.9651
  997MOL0     C34482   6.062   6.816   4.179 -0.7452  0.7532  0.8210
  997MOL0     C34483   6.083   6.724   4.299 -0.6242  0.8593 -1.0130
  997MOL0     O34484   6.139   6.799   4.403 -0.1911  0.2181  1.1043
  997MOL0     C34485   6.165   6.751   4.528 -1.1083 -0.1032  0.7196
  997MOL0     C34486   6.206   6.625   4.561  0.5494  0.0028 -0.4892
  997MOL0     C34487   6.240   6.580   4.690  0.1485  0.3600 -0.6790
  997MOL0     C34488   6.271   6.435   4.705 -0.6948 -0.4882  0.0654
  997MOL0     C34489   6.225   6.673   4.794  0.0302 -0.7455 -0.1868
  997MOL0     C34490   6.246   6.639   4.941  0.1121  0.3114  0.6064
  997MOL0     O34491   6.222   6.743   5.031  0.1993 -0.5107  0.6189
  997MOL0     C34492   6.264   6.739   5.153 -0.2545 -0.2826 -0.1228
  997MOL0     C34493   6.177   6.729   5.252  0.5598 -0.5418 -1.5213
  997MOL0     C34494   6.227   6.721   5.383  0.4302 -0.4036 -0.7021
  997MOL0     C34495   6.356   6.756   5.410  0.4850  0.3899 -0.6731
  997MOL0     O34496   6.397   6.771   5.536 -0.1799  0.2686 -1.2057
  997MOL0     C34497   6.504   6.677   5.582  0.1772  0.3425 -0.0545
  997MOL0     C34498   6.467   6.539   5.602 -0.7630 -0.7294  0.1662
  997MOL0     C34499   6.437   6.444   5.484  0.4657 -0.8467  0.4200
  997MOL0     C34500   6.488   6.301   5.514  0.6818  0.1058  0.2325
  997MOL0     C34501   6.414   6.219   5.626 -0.5186 -0.0776 -0.1951
  997MOL0     C34502   6.462   6.076   5.655  0.2772 -0.1197  0.3843
  997MOL0     C34503   6.352   6.004   5.729  0.8003  0.4310 -0.7946
  997MOL0     C34504   6.415   5.903   5.835 -1.0327 -0.4180 -0.6876
  997MOL0    Cl34505   6.488   5.993   5.970 -0.3513  0.2749 -0.2896
  997MOL0     C34506   6.444   6.774   5.302  0.0327 -0.5218  0.2848
  997MOL0     C34507   6.398   6.763   5.172 -0.3562 -0.7999  0.8250
  997MOL0     O34508   6.284   6.527   4.968  0.1857 -0.1915 -0.5062
  997MOL0     C34509   6.172   6.799   4.763 -0.9494 -0.6379  0.4438
  997MOL0     C34510   6.145   6.841   4.636 -0.4860  0.0402  0.1230
  997MOL0     N34511   5.779   6.618   3.879  0.6387 -0.3855  0.4426
  997MOL0     N34512   5.716   6.579   3.766 -0.2835 -0.3391  0.5275
  997MOL0     C34513   5.578   6.241   2.703  1.2413  0.4845 -0.0132
  997MOL0     C34514   5.454   6.233   2.650  0.3019  0.5601 -0.1511
  997MOL0     C34515   5.032   6.181   2.550 -0.2963 -0.6063  0.3198
  997MOL0     C34516   4.939   6.284   2.532  0.6357 -0.0350  0.7463
  997MOL0     C34517   4.818   6.257   2.445 -0.1057  0.1164 -0.0578
  997MOL0     C34518   4.801   6.128   2.393 -0.0561 -0.2082 -0.3116
  997MOL0     O34519   4.681   6.096   2.332  0.6325 -0.4829  0.4880
  997MOL0     C34520   4.669   6.140   2.194 -0.3710  0.2601  0.2725
  997MOL0     C34521   4.527   6.190   2.164 -0.0907 -1.0658  0.1472
  997MOL0     C34522   4.489   6.326   2.245  0.1874  0.4794  0.4618
  997MOL0     C34523   4.567   6.452   2.198  0.2726 -0.2889 -1.3776
  997MOL0     C34524   4.508   6.573   2.261  0.3870 -0.2987 -0.1804
  997MOL0     C34525   4.462   6.675   2.310  0.9592 -0.4159  0.4407
  997MOL0     C34526   4.897   6.034   2.411 -1.0959  0.4700 -0.4326
  997MOL0     C34527   5.000   6.053   2.501 -0.1989 -0.5428 -0.3162
  997MOL0     H34528   5.342   5.978   2.848  0.5826  0.6400  2.3497
  997MOL0     H34529   5.583   5.992   2.925  3.1837 -0.1567 -0.8611
  997MOL0     H34530   5.888   6.251   2.726  0.3919  0.6436 -0.3833
  997MOL0     H34531   5.820   6.375   2.818  0.8086  0.0283 -3.7666
  997MOL0     H34532   5.986   6.137   2.916  1.8664  0.4159  0.6088
  997MOL0     H34533   6.053   6.285   2.874  0.0199 -3.7826 -1.4341
  997MOL0     H34534   5.856   6.244   3.112 -1.2117  0.4274 -0.3030
  997MOL0     H34535   6.028   6.272   3.118 -0.3313  1.3958  1.0079
  997MOL0     H34536   5.989   6.500   3.013  1.1875  1.7085  2.4378
  997MOL0     H34537   5.820   6.475   3.037  2.0355  0.3783 -3.9742
  997MOL0     H34538   6.011   6.438   3.279 -0.8902 -1.2232 -0.4753
  997MOL0     H34539   5.993   6.593   3.223 -4.4671  2.4528  1.5479
  997MOL0     H34540   5.765   6.612   3.253  0.6808  0.7846  1.9375
  997MOL0     H34541   5.744   6.447   3.289 -1.1858  0.4026  2.1541
  997MOL0     H34542   5.890   6.452   3.488  2.4475  0.3744 -0.7951
  997MOL0     H34543   5.944   6.605   3.443 -0.4734 -0.8564 -2.8946
  997MOL0     H34544   5.652   6.541   3.502 -0.9105  0.4542 -0.3408
  997MOL0     H34545   5.707   6.705   3.473 -2.0847 -0.5549 -0.4165
  997MOL0     H34546   5.954   6.787   3.658 -1.9004  2.6795 -0.4424
  997MOL0     H34547   6.038   6.832   3.920  1.1555 -4.0810 -1.5188
  997MOL0     H34548   5.887   6.892   3.995  0.0476 -0.9199  3.3918
  997MOL0     H34549   6.038   6.637   4.056  0.6835  0.9433 -1.7749
  997MOL0     H34550   5.883   6.691   4.121 -1.2248  0.2790 -1.0478
  997MOL0     H34551   6.002   6.900   4.213 -4.6069  0.4443 -4.0117
  997MOL0     H34552   6.164   6.838   4.144 -0.9252  0.5644  0.1538
  997MOL0     H34553   6.150   6.644   4.267 -1.5179 -0.2433 -0.2494
  997MOL0     H34554   5.999   6.670   4.344 -0.6386  1.9624  0.3429
  997MOL0     H34555   6.216   6.563   4.472  2.1864 -0.7104  0.1484
  997MOL0     H34556   6.207   6.387   4.780 -1.2231 -0.9505 -0.6699
  997MOL0     H34557   6.231   6.376   4.623 -0.4906  0.4721 -0.7405
  997MOL0     H34558   6.374   6.416   4.737 -0.7971 -1.8742 -0.3556
  997MOL0     H34559   6.071   6.713   5.234 -0.1176 -4.5668  3.5643
  997MOL0     H34560   6.170   6.694   5.471  1.7155  1.5715  0.8282
  997MOL0     H34561   6.585   6.688   5.509  2.0293  0.3776  1.9122
  997MOL0     H34562   6.549   6.728   5.668  0.4679  0.5067 -0.2972
  997MOL0     H34563   6.553   6.502   5.658 -1.3509 -1.5375  0.5457
  997MOL0     H34564   6.385   6.541   5.673  0.4047  3.2317  1.6691
  997MOL0     H34565   6.480   6.470   5.387  0.4830  0.6706  0.8145
  997MOL0     H34566   6.328   6.451   5.476  0.4583  2.9595  1.7422
  997MOL0     H34567   6.489   6.250   5.417  3.2840 -0.0041  0.2543
  997MOL0     H34568   6.595   6.298   5.538  1.1872  1.1726 -1.6923
  997MOL0     H34569   6.307   6.217   5.604 -0.6811 -1.9014  0.5950
  997MOL0     H34570   6.428   6.276   5.719  0.0916  0.8861 -0.8534
  997MOL0     H34571   6.489   6.022   5.564  3.4496  0.3131  0.9356
  997MOL0     H34572   6.551   6.074   5.719 -0.5336 -1.5995  1.5219
  997MOL0     H34573   6.302   5.948   5.650  2.0000  0.2643 -1.4593
  997MOL0     H34574   6.287   6.075   5.781 -1.6468 -4.1067  3.1606
  997MOL0     H34575   6.486   5.841   5.780 -1.7440 -3.8132  1.9463
  997MOL0     H34576   6.339   5.835   5.874 -0.1803 -2.1554 -1.9177
  997MOL0     H34577   6.548   6.805   5.304  0.6708 -2.4964 -0.7531
  997MOL0     H34578   6.460   6.785   5.085  0.8157 -2.8055  1.1074
  997MOL0     H34579   6.175   6.873   4.842  0.8487  0.6652 -0.7818
  997MOL0     H34580   6.123   6.947   4.623  1.4867  0.5210  0.2382
  997MOL0     H34581   5.651   6.309   2.661  0.6838 -0.1917 -2.2016
  997MOL0     H34582   5.437   6.314   2.579 -0.1442  0.8333  0.2615
  997MOL0     H34583   4.935   6.379   2.585  0.8422 -1.4684  3.5462
  997MOL0     H34584   4.745   6.337   2.436 -1.4940 -1.3309 -3.0481
  997MOL0     H34585   4.730   6.230   2.182 -0.5987  0.8236  2.6903
  997MOL0     H34586   4.677   6.057   2.124 -1.9567 -0.8736  1.3518
  997MOL0     H34587   4.449   6.116   2.186 -1.1007  0.3907  1.7781
  997MOL0     H34588   4.527   6.211   2.057  1.7130 -1.0114  0.1286
  997MOL0     H34589   4.523   6.310   2.348  0.5201  1.9138  0.5856
  997MOL0     H34590   4.382   6.336   2.228  0.4951  1.6856 -0.9801
  997MOL0     H34591   4.546   6.462   2.091 -0.1578  0.7422 -1.2115
  997MOL0     H34592   4.674   6.445   2.221 -0.1656 -0.8464  0.7378
  997MOL0     H34593   4.417   6.763   2.349 -1.6267 -0.2663 -2.4885
  997MOL0     H34594   4.877   5.932   2.381 -1.4408  0.4136 -0.0207
  997MOL0     H34595   5.073   5.978   2.527 -1.1493 -0.4829  2.8390
  998MOL0     O34596   0.473   0.550   2.900 -0.3242  0.0138  0.5717
  998MOL0     C34597   0.486   0.522   3.024  0.3071 -0.3358  0.1230
  998MOL0     O34598   0.443   0.605   3.131 -0.3722  0.1320  0.1179
  998MOL0     C34599   0.354   0.707   3.107 -0.3569  0.1214 -0.5930
  998MOL0     C34600   0.263   0.740   3.214  0.8307  0.9953  0.0641
  998MOL0     C34601   0.163   0.842   3.202  1.1536  0.0488 -0.0283
  998MOL0     C34602   0.178   0.930   3.096 -0.6348  0.6463 -1.1630
  998MOL0     O34603   0.099   1.044   3.087 -0.0314 -0.1127  0.3179
  998MOL0     C34604   0.068   1.121   3.194 -0.0965 -0.6215  0.2373
  998MOL0     C34605  -0.007   1.255   3.161  0.1955 -0.2936 -0.7639
  998MOL0     C34606   0.053   1.321   3.041 -0.2975 -0.2100  0.9888
  998MOL0     C34607   0.076   1.466   3.074 -0.1675  0.6046  0.8783
  998MOL0     C34608   0.125   1.548   2.953 -0.9930 -0.5413  0.3420
  998MOL0     C34609   0.259   1.518   2.903 -0.8061 -0.1464 -0.5171
  998MOL0     C34610   0.292   1.606   2.787  0.0210 -0.2347 -0.0416
  998MOL0     C34611   0.440   1.614   2.768 -0.5362 -0.3885 -0.3233
  998MOL0     N34612   0.497   1.486   2.740 -0.2813 -0.1084  0.6350
  998MOL0     C34613   0.451   1.389   2.654  0.3231  0.5517 -0.5455
  998MOL0     C34614   0.535   1.284   2.677 -0.5125  0.8524  0.6499
  998MOL0     C34615   0.519   1.163   2.589 -0.1811 -0.4905  0.6488
  998MOL0     C34616   0.526   1.206   2.435 -0.4553  1.1153 -0.8427
  998MOL0     C34617   0.609   1.107   2.366 -0.5130  0.8046 -0.3303
  998MOL0     C34618   0.649   1.148   2.222 -0.4600 -0.4661  0.0276
  998MOL0     O34619   0.537   1.192   2.153  0.7344 -0.1183 -0.3185
  998MOL0     C34620   0.444   1.101   2.104 -0.7304 -0.5509 -0.3065
  998MOL0     C34621   0.310   1.148   2.090  0.0320  0.5317  0.5316
  998MOL0     C34622   0.205   1.066   2.048 -0.3361  0.1628  1.5148
  998MOL0     C34623   0.064   1.113   2.058  0.0248  0.6789 -0.0958
  998MOL0     C34624   0.242   0.934   2.009 -0.2819 -0.8297 -0.0730
  998MOL0     C34625   0.135   0.849   1.955  0.0876 -0.1021 -0.0670
  998MOL0     O34626   0.015   0.908   1.904 -0.9229  0.9197  0.7546
  998MOL0     C34627  -0.096   0.826   1.887 -1.0457 -0.0026 -0.0171
  998MOL0     C34628  -0.117   0.705   1.955 -1.0184  0.9817  0.8072
  998MOL0     C34629  -0.240   0.629   1.938 -0.8256  0.1700 -0.5312
  998MOL0     C34630  -0.337   0.679   1.848  0.3300  0.4626 -0.6459
  998MOL0     O34631  -0.459   0.629   1.848  0.7473 -0.4974  0.5449
  998MOL0     C34632  -0.521   0.613   1.972  0.0934 -0.0194 -0.7860
  998MOL0     C34633  -0.660   0.559   1.953  0.0437  0.4261 -0.7457
  998MOL0     C34634  -0.685   0.462   2.078 -0.3029  0.5137  0.4019
  998MOL0     C34635  -0.832   0.477   2.110 -0.3324 -0.5909  0.8824
  998MOL0     C34636  -0.873   0.355   2.187 -0.0510  0.5738 -0.4970
  998MOL0     C34637  -0.941   0.242   2.112  0.2526 -0.8759  0.6203
  998MOL0     C34638  -0.853   0.147   2.039 -0.1494 -0.1068  0.5098
  998MOL0     C34639  -0.942   0.024   2.005 -0.2124 -0.2890  0.7097
  998MOL0    Cl34640  -0.963  -0.067   2.155  0.2927 -0.1566  0.2332
  998MOL0     C34641  -0.310   0.791   1.769 -0.1574  0.8985  0.7404
  998MOL0     C34642  -0.190   0.855   1.786  0.3532 -0.3974 -0.2973
  998MOL0     O34643   0.166   0.728   1.936 -0.1826 -0.0775 -0.0024
  998MOL0     C34644   0.364   0.881   2.050  0.3217  0.2089 -0.6657
  998MOL0     C34645   0.473   0.964   2.079 -0.1750 -0.3430 -0.9623
  998MOL0     N34646   0.628   1.321   2.764 -0.1941  1.0417 -0.3721
  998MOL0     N34647   0.611   1.447   2.797 -0.2016  0.1974 -0.2305
  998MOL0     C34648   0.276   0.916   3.001 -0.8596  1.0385  0.8350
  998MOL0     C34649   0.365   0.804   3.009  0.6230 -0.9801  0.2524
  998MOL0     C34650   0.568   0.403   3.064  0.5744  1.0938  0.2594
  998MOL0     C34651   0.585   0.297   2.978 -0.5543  0.0602 -0.2585
  998MOL0     C34652   0.655   0.177   3.008 -0.0432 -0.1381 -0.3934
  998MOL0     C34653   0.712   0.163   3.138  0.1507 -0.4476  0.8742
  998MOL0     O34654   0.787   0.047   3.168 -0.2888 -0.6150  0.1866
  998MOL0     C34655   0.870   0.028   3.291  0.0968  0.3197  0.1317
  998MOL0     C34656   1.028   0.063   3.271  0.2825  0.9298  0.4451
  998MOL0     C34657   1.096   0.042   3.395  0.0489 -0.1266 -0.0214
  998MOL0     C34658   1.074   0.159   3.493 -0.0994 -0.4567  0.3984
  998MOL0     C34659   1.173   0.143   3.598  0.9247 -0.4295  0.0883
  998MOL0     C34660   1.259   0.129   3.683 -0.1934  0.4299  0.5731
  998MOL0     C34661   0.698   0.274   3.224 -0.2572  0.8774 -0.3415
  998MOL0     C34662   0.628   0.389   3.195  0.5054 -0.3668  0.1299
  998MOL0     H34663   0.256   0.659   3.286 -1.8828 -0.4840 -1.6902
  998MOL0     H34664   0.083   0.844   3.275  1.6290 -0.3941  0.5136
  998MOL0     H34665  -0.003   1.082   3.267 -0.0412  1.5564  1.5784
  998MOL0     H34666   0.164   1.151   3.237  0.2956  1.3848 -1.7911
  998MOL0     H34667  -0.110   1.228   3.133  1.0505 -3.3315 -1.3319
  998MOL0     H34668  -0.006   1.320   3.249 -1.1912  1.1021 -1.7139
  998MOL0     H34669   0.152   1.282   3.016  0.8316  1.7624  2.1545
  998MOL0     H34670  -0.017   1.318   2.957  0.5504  4.9994 -0.2541
  998MOL0     H34671  -0.021   1.510   3.099  0.4469  1.6245  1.5577
  998MOL0     H34672   0.153   1.476   3.152  3.1936 -1.5649 -1.8756
  998MOL0     H34673   0.053   1.544   2.871 -0.4732  1.2815 -0.2614
  998MOL0     H34674   0.126   1.647   2.999 -1.4607  0.0924 -0.9556
  998MOL0     H34675   0.322   1.526   2.992 -2.4378  0.7332  0.6094
  998MOL0     H34676   0.265   1.412   2.876 -0.3064 -0.5446  1.0705
  998MOL0     H34677   0.249   1.555   2.701  0.4002 -4.1840  1.9064
  998MOL0     H34678   0.270   1.712   2.803 -0.4269 -0.1400 -1.1959
  998MOL0     H34679   0.494   1.657   2.852  2.6552  1.1102 -2.9227
  998MOL0     H34680   0.454   1.690   2.690  0.0813  0.9495  1.0546
  998MOL0     H34681   0.377   1.406   2.577 -3.7914  0.1396  2.9399
  998MOL0     H34682   0.584   1.080   2.617 -1.7788 -1.4951  1.5437
  998MOL0     H34683   0.420   1.122   2.611 -0.7470 -0.6332 -1.8271
  998MOL0     H34684   0.569   1.306   2.421  0.3134  0.7657 -1.0397
  998MOL0     H34685   0.424   1.205   2.396 -1.3209 -3.3065  0.9288
  998MOL0     H34686   0.554   1.012   2.364  0.4494  0.1855  1.0228
  998MOL0     H34687   0.706   1.075   2.406 -0.5803  0.7748 -0.1869
  998MOL0     H34688   0.692   1.062   2.172  3.6981  0.0918  2.2012
  998MOL0     H34689   0.726   1.225   2.236 -2.3328  1.2543  1.6314
  998MOL0     H34690   0.300   1.250   2.124 -1.7850 -0.1265  2.1268
  998MOL0     H34691   0.049   1.199   2.124 -1.1343 -0.0509  0.6183
  998MOL0     H34692   0.016   1.142   1.964 -1.2506 -0.5132  0.1624
  998MOL0     H34693   0.001   1.041   2.109 -1.5054  1.6215 -0.6011
  998MOL0     H34694  -0.042   0.673   2.026 -1.1681  2.4304  1.6484
  998MOL0     H34695  -0.252   0.549   2.010 -1.9988  2.8778  2.5937
  998MOL0     H34696  -0.461   0.546   2.034  4.0161  3.8262  0.0753
  998MOL0     H34697  -0.517   0.716   2.011  3.3015 -0.0122 -0.8343
  998MOL0     H34698  -0.730   0.642   1.963 -2.4579 -1.6538  0.3093
  998MOL0     H34699  -0.672   0.507   1.858 -1.3393  1.6486 -1.2743
  998MOL0     H34700  -0.630   0.482   2.170 -0.8263  1.2685  0.5548
  998MOL0     H34701  -0.669   0.358   2.049 -2.1845 -0.1926  1.6686
  998MOL0     H34702  -0.856   0.568   2.165 -1.8012  0.1473 -0.8605
  998MOL0     H34703  -0.888   0.468   2.016 -1.0282 -2.2677  1.4327
  998MOL0     H34704  -0.941   0.387   2.267 -0.2654  1.1415 -0.9018
  998MOL0     H34705  -0.788   0.310   2.239  1.3724 -2.0413 -4.5946
  998MOL0     H34706  -0.998   0.184   2.186 -2.4334 -0.5639 -1.0815
  998MOL0     H34707  -1.025   0.277   2.051 -3.1266 -2.0421  4.1993
  998MOL0     H34708  -0.769   0.110   2.099 -0.1982  0.0014  0.6462
  998MOL0     H34709  -0.806   0.198   1.955 -0.9002  1.9462  1.2835
  998MOL0     H34710  -0.883  -0.040   1.939 -0.5683  0.7208 -0.6411
  998MOL0     H34711  -1.042   0.042   1.964 -0.3960  0.0796  1.3143
  998MOL0     H34712  -0.376   0.819   1.688  2.4820 -0.9227 -2.2954
  998MOL0     H34713  -0.179   0.931   1.709  0.7818 -1.1689 -1.0105
  998MOL0     H34714   0.400   0.782   2.027  0.7595  0.5119 -1.3243
  998MOL0     H34715   0.570   0.914   2.082 -0.4532 -0.9178 -1.4235
  998MOL0     H34716   0.285   0.991   2.924  0.3931  0.4740  0.4106
  998MOL0     H34717   0.452   0.806   2.943 -1.3857  2.3143 -2.6571
  998MOL0     H34718   0.542   0.308   2.879  1.5103  2.7775 -0.9874
  998MOL0     H34719   0.663   0.090   2.943  3.3319 -0.2617  0.0101
  998MOL0     H34720   0.822   0.083   3.373 -1.0740  0.2610 -0.4879
  998MOL0     H34721   0.870  -0.075   3.327  0.1327  0.8847  1.8254
  998MOL0     H34722   1.028   0.161   3.222  0.2116 -0.0843 -1.6819
  998MOL0     H34723   1.078  -0.006   3.202  0.2823 -0.6066  1.9229
  998MOL0     H34724   1.202   0.035   3.370  0.7300 -0.2037  2.6210
  998MOL0     H34725   1.071  -0.054   3.441  1.2617  1.0342  3.4019
  998MOL0     H34726   0.973   0.162   3.533 -0.6360  1.6851 -0.9311
  998MOL0     H34727   1.098   0.254   3.442  2.2237 -1.7870 -1.2035
  998MOL0     H34728   1.331   0.125   3.763 -2.1641  3.3215  2.6839
  998MOL0     H34729   0.741   0.270   3.323  3.2047 -2.8823 -1.6692
  998MOL0     H34730   0.617   0.467   3.270 -4.1841 -1.5947  1.0491
  999MOL0     O34731   7.539   7.373   5.925 -0.1031  0.1691 -0.3482
  999MOL0     C34732   7.562   7.263   5.976  0.1035  0.0720 -0.4176
  999MOL0     O34733   7.496   7.209   6.088  0.1121  0.1785 -0.1677
  999MOL0     C34734   7.369   7.252   6.119  0.2104 -0.9615 -0.1126
  999MOL0     C34735   7.274   7.304   6.025 -0.5694  0.9020  0.6024
  999MOL0     C34736   7.156   7.363   6.067  0.6105  0.5896  0.0020
  999MOL0     C34737   7.118   7.358   6.202 -0.1747 -0.2916 -0.2759
  999MOL0     O34738   6.990   7.404   6.228  0.3549  0.6155  0.3269
  999MOL0     C34739   6.999   7.539   6.275  0.0084  0.9959 -0.0347
  999MOL0     C34740   6.860   7.603   6.291  0.2161 -0.1156  0.3000
  999MOL0     C34741   6.879   7.756   6.284  0.9072  0.3853 -0.5120
  999MOL0     C34742   6.734   7.821   6.271 -0.0505  0.2679  0.2256
  999MOL0     C34743   6.728   7.965   6.313  0.2392 -0.1813  0.0798
  999MOL0     C34744   6.837   8.039   6.247  0.0877 -0.3904 -0.7729
  999MOL0     C34745   6.791   8.183   6.251  0.0963 -0.1492 -0.2495
  999MOL0     C34746   6.901   8.273   6.192  0.2439 -0.3122 -0.5391
  999MOL0     N34747   6.899   8.259   6.054  0.9339 -0.5008  0.2185
  999MOL0     C34748   6.804   8.320   5.980 -0.8097  0.1801  1.5700
  999MOL0     C34749   6.862   8.345   5.859 -0.1932  0.6123  0.7713
  999MOL0     C34750   6.790   8.424   5.753  1.0004  0.4208 -0.1340
  999MOL0     C34751   6.715   8.336   5.646 -0.7457  0.3029  0.4718
  999MOL0     C34752   6.577   8.281   5.689 -1.0612  0.7293  1.0435
  999MOL0     C34753   6.533   8.146   5.626 -0.4740  0.7833  0.2536
  999MOL0     O34754   6.556   8.154   5.482  0.1331  0.1576 -0.6001
  999MOL0     C34755   6.497   8.080   5.390 -0.5601  0.5244  1.5006
  999MOL0     C34756   6.383   8.003   5.409 -0.1839 -0.4261  0.4205
  999MOL0     C34757   6.312   7.959   5.301 -0.2707 -0.0377  0.3360
  999MOL0     C34758   6.180   7.891   5.327  0.8582 -0.3206  1.1644
  999MOL0     C34759   6.358   7.982   5.166 -1.0502 -0.3827 -0.8840
  999MOL0     C34760   6.285   7.945   5.043 -0.1170 -0.1278  0.4511
  999MOL0     O34761   6.362   7.929   4.920  1.2820 -0.3258 -0.3740
  999MOL0     C34762   6.282   7.889   4.814 -0.5993  0.4358 -0.1308
  999MOL0     C34763   6.278   7.973   4.703  0.3831 -0.3570  0.8276
  999MOL0     C34764   6.195   7.940   4.592 -0.3649  0.2154 -0.1105
  999MOL0     C34765   6.112   7.826   4.605 -0.8357  0.5566  0.1585
  999MOL0     O34766   6.015   7.802   4.509  0.6178  0.4887 -0.2704
  999MOL0     C34767   6.060   7.795   4.368  1.5830  0.1256 -0.9512
  999MOL0     C34768   5.949   7.817   4.279  0.2710  0.0415  0.0167
  999MOL0     C34769   5.977   7.775   4.132  0.0338 -0.6049  0.4977
  999MOL0     C34770   6.086   7.864   4.066 -0.2844  0.7868 -0.1303
  999MOL0     C34771   6.111   7.830   3.918 -0.1915 -0.2891  0.2230
  999MOL0     C34772   6.242   7.898   3.865  0.5118 -0.0182  0.3076
  999MOL0     C34773   6.220   8.045   3.842 -0.9083  0.5512  0.5415
  999MOL0     C34774   6.346   8.113   3.783 -0.4008 -0.8251 -1.3510
  999MOL0    Cl34775   6.298   8.293   3.790 -0.1931  0.5783  0.2289
  999MOL0     C34776   6.135   7.741   4.714 -0.8082 -0.5241  0.8497
  999MOL0     C34777   6.227   7.769   4.808  0.2080 -0.4868  0.6399
  999MOL0     O34778   6.167   7.935   5.053  0.5376  0.8095  0.0982
  999MOL0     C34779   6.481   8.060   5.155 -0.8580  0.3397 -0.1578
  999MOL0     C34780   6.553   8.103   5.263 -0.1783 -1.3152  0.3682
  999MOL0     N34781   6.994   8.314   5.864  0.3595  0.2408 -0.5168
  999MOL0     N34782   7.016   8.252   5.983  0.4240 -0.6964  0.3890
  999MOL0     C34783   7.208   7.319   6.297  0.8727 -0.2571  0.7622
  999MOL0     C34784   7.333   7.262   6.251  0.0616  0.1698 -0.9776
  999MOL0     C34785   7.678   7.189   5.910 -0.4766 -1.5110 -0.0027
  999MOL0     C34786   7.717   7.062   5.955 -0.3122  0.0328  0.1629
  999MOL0     C34787   7.834   7.004   5.903  0.7114  0.0855 -0.4311
  999MOL0     C34788   7.896   7.051   5.790  0.2385 -0.2234  0.5515
  999MOL0     O34789   8.000   6.987   5.718  0.1337 -1.4386  0.5520
  999MOL0     C34790   8.052   6.856   5.740 -0.5939  0.3627  0.8256
  999MOL0     C34791   8.168   6.871   5.844 -0.9854  0.6805 -0.3163
  999MOL0     C34792   8.214   6.737   5.898  0.2166  0.6174 -0.2572
  999MOL0     C34793   8.363   6.720   5.920 -0.0564  0.2949  0.0034
  999MOL0     C34794   8.400   6.578   5.931  0.4919 -0.2700  0.1687
  999MOL0     C34795   8.426   6.466   5.948  0.0541  0.0601 -0.1505
  999MOL0     C34796   7.847   7.176   5.750 -0.9014 -0.3597 -0.0712
  999MOL0     C34797   7.750   7.247   5.814  0.1974 -0.4937  0.0952
  999MOL0     H34798   7.295   7.303   5.918  3.3153 -2.4207  1.1765
  999MOL0     H34799   7.079   7.403   6.002 -2.7951  0.2385  3.5170
  999MOL0     H34800   7.043   7.542   6.375 -0.5357  2.5198  0.1829
  999MOL0     H34801   7.077   7.585   6.213  2.4174 -2.6703 -0.0497
  999MOL0     H34802   6.778   7.577   6.224 -0.1618  0.5851  0.4870
  999MOL0     H34803   6.809   7.578   6.385 -3.9325  2.9359 -0.8626
  999MOL0     H34804   6.933   7.798   6.369  3.5719 -1.7499 -1.0152
  999MOL0     H34805   6.920   7.788   6.188 -4.5753  0.6095 -3.1497
  999MOL0     H34806   6.701   7.799   6.169  0.1327 -1.2938  0.4779
  999MOL0     H34807   6.664   7.770   6.338  0.4254 -1.5688 -0.5986
  999MOL0     H34808   6.630   8.010   6.292 -1.8167 -3.6462  1.3975
  999MOL0     H34809   6.739   7.978   6.421 -1.6071 -2.2807  0.6019
  999MOL0     H34810   6.925   8.023   6.310 -2.3476 -2.2752  2.4647
  999MOL0     H34811   6.855   8.013   6.142 -3.0209  1.7374 -1.9693
  999MOL0     H34812   6.701   8.195   6.191  0.7366  0.4880 -1.1193
  999MOL0     H34813   6.771   8.218   6.353  1.9412  1.7125 -0.4485
  999MOL0     H34814   6.998   8.247   6.235  0.3414 -2.1161 -1.7634
  999MOL0     H34815   6.886   8.381   6.203  1.3514 -0.3268  1.4352
  999MOL0     H34816   6.709   8.350   6.024 -0.6366  3.0414  0.2110
  999MOL0     H34817   6.725   8.495   5.804 -1.5632 -0.4698 -1.9355
  999MOL0     H34818   6.860   8.480   5.689 -2.2178  2.3938 -2.2065
  999MOL0     H34819   6.775   8.246   5.627  0.0411  0.7644  0.7341
  999MOL0     H34820   6.711   8.388   5.549 -1.2082 -0.3715  0.1214
  999MOL0     H34821   6.497   8.350   5.665 -2.5924 -0.5366  2.2659
  999MOL0     H34822   6.571   8.265   5.797 -0.4897 -2.5540  0.7079
  999MOL0     H34823   6.425   8.130   5.636 -0.3739  0.1989  0.4313
  999MOL0     H34824   6.589   8.059   5.660 -0.5096 -0.2253 -2.1310
  999MOL0     H34825   6.345   7.997   5.510  1.7721  0.0125  1.2298
  999MOL0     H34826   6.101   7.962   5.302 -0.3458 -3.0054 -4.0909
  999MOL0     H34827   6.169   7.812   5.252  1.7034  3.4119 -3.4305
  999MOL0     H34828   6.161   7.845   5.423 -0.1215 -2.2427  0.0973
  999MOL0     H34829   6.333   8.066   4.704  0.1403 -0.2162  1.9998
  999MOL0     H34830   6.194   8.009   4.508  0.1141 -0.4083 -0.6342
  999MOL0     H34831   6.137   7.868   4.338 -0.7616  2.0370 -2.7105
  999MOL0     H34832   6.093   7.692   4.353  2.0236  0.2892 -1.1210
  999MOL0     H34833   5.859   7.764   4.310  0.7703  0.4786  2.4421
  999MOL0     H34834   5.930   7.924   4.295  0.8641  0.2196 -0.4335
  999MOL0     H34835   5.889   7.778   4.067  3.0606  2.1408 -4.0679
  999MOL0     H34836   6.006   7.671   4.117  2.2237  0.0084  0.1423
  999MOL0     H34837   6.059   7.970   4.070 -3.6391  0.0789 -0.7735
  999MOL0     H34838   6.180   7.843   4.118 -1.8648  1.4743  3.2853
  999MOL0     H34839   6.022   7.866   3.865 -0.1485  1.0968  1.0594
  999MOL0     H34840   6.128   7.723   3.900 -1.4421 -0.7394  1.5684
  999MOL0     H34841   6.316   7.873   3.942 -0.6980 -4.6026  0.3066
  999MOL0     H34842   6.282   7.851   3.775  1.2610 -0.0079  0.6279
  999MOL0     H34843   6.188   8.101   3.930 -1.0266 -0.9351  1.4782
  999MOL0     H34844   6.147   8.064   3.762 -1.4184 -2.0229  0.2897
  999MOL0     H34845   6.377   8.073   3.687  1.5904  0.5257 -1.3177
  999MOL0     H34846   6.430   8.095   3.851 -0.1796  2.6697 -0.5483
  999MOL0     H34847   6.081   7.650   4.738 -4.1545  1.4585  1.3977
  999MOL0     H34848   6.238   7.694   4.886 -0.2874  1.5526  2.7749
  999MOL0     H34849   6.509   8.101   5.058  1.6412 -0.4408  0.1498
  999MOL0     H34850   6.639   8.166   5.241  0.2217 -1.9836 -0.0327
  999MOL0     H34851   7.176   7.320   6.400 -2.0811 -1.5775 -0.0452
  999MOL0     H34852   7.397   7.224   6.329 -2.2183  0.5534  1.2238
  999MOL0     H34853   7.665   7.017   6.039 -1.4778 -1.0563 -1.0857
  999MOL0     H34854   7.868   6.918   5.959 -2.3210 -0.3590  0.9372
  999MOL0     H34855   7.974   6.791   5.782 -1.1571  0.2410 -0.3770
  999MOL0     H34856   8.094   6.814   5.648  0.0571  0.3090  1.1389
  999MOL0     H34857   8.150   6.938   5.928 -1.7964  1.2010 -0.8873
  999MOL0     H34858   8.253   6.912   5.789  0.6045 -0.8797  0.8895
  999MOL0     H34859   8.181   6.656   5.832  0.0132 -1.0509  1.7756
  999MOL0     H34860   8.154   6.721   5.988  2.7062  1.9950  1.7984
  999MOL0     H34861   8.379   6.778   6.011 -4.7501  1.3354  0.4288
  999MOL0     H34862   8.426   6.757   5.839  2.8063 -3.0960  0.4474
  999MOL0     H34863   8.434   6.361   5.967 -3.0548 -0.1794  0.3239
  999MOL0     H34864   7.886   7.230   5.664 -1.1373  0.8477  0.5572
  999MOL0     H34865   7.734   7.348   5.778  2.6056  0.1264  0.5865
 1000MOL0     O34866   5.685   3.479   3.735  0.1527  0.2959  0.8650
 1000MOL0     C34867   5.654   3.586   3.688 -0.0192  0.4795 -0.3360
 1000MOL0     O34868   5.563   3.607   3.592  0.1372  0.6108 -0.2508
 1000MOL0     C34869   5.515   3.503   3.520 -0.1710  0.2863  0.2304
 1000MOL0     C34870   5.586   3.377   3.497 -0.4409 -0.6942  1.5973
 1000MOL0     C34871   5.543   3.289   3.392 -0.8014  0.4466  0.1491
 1000MOL0     C34872   5.444   3.330   3.305  0.0117 -0.7474 -0.0707
 1000MOL0     O34873   5.433   3.248   3.193  0.1378 -0.0780 -0.4757
 1000MOL0     C34874   5.354   3.285   3.083  0.4464  0.7213  0.4314
 1000MOL0     C34875   5.345   3.145   2.997 -0.5262  0.3363  0.5603
 1000MOL0     C34876   5.457   3.121   2.897  0.8588  0.0150  0.2611
 1000MOL0     C34877   5.438   3.019   2.783 -0.5810 -0.7023  0.0721
 1000MOL0     C34878   5.557   3.020   2.682  0.9260 -0.3397 -0.2424
 1000MOL0     C34879   5.521   2.929   2.571  0.0215  1.0414  0.8500
 1000MOL0     C34880   5.650   2.896   2.496  0.1126  1.2202 -0.4940
 1000MOL0     C34881   5.713   2.994   2.391 -0.2000  0.1381 -0.0205
 1000MOL0     N34882   5.627   3.011   2.277 -0.3265 -0.0026 -0.3548
 1000MOL0     C34883   5.653   3.101   2.180  0.3359 -0.1731  0.2616
 1000MOL0     C34884   5.573   3.057   2.076  1.3053  1.1756 -0.1948
 1000MOL0     C34885   5.567   3.095   1.929 -0.2225 -0.2379 -0.2696
 1000MOL0     C34886   5.637   3.003   1.839 -0.4105 -0.2138  0.8325
 1000MOL0     C34887   5.563   2.990   1.707  1.2347  0.4747  0.3104
 1000MOL0     C34888   5.594   2.861   1.631  0.5064 -0.5620  0.4709
 1000MOL0     O34889   5.726   2.889   1.580 -0.5109  0.6035  0.1738
 1000MOL0     C34890   5.811   2.785   1.542 -0.1120  0.3828  0.9569
 1000MOL0     C34891   5.761   2.651   1.519 -0.7418 -0.1050 -0.6229
 1000MOL0     C34892   5.844   2.552   1.469 -0.0640  0.2973  0.9675
 1000MOL0     C34893   5.788   2.424   1.434 -0.0110 -0.1591  0.3636
 1000MOL0     C34894   5.979   2.581   1.439  0.5062  0.1754  1.0113
 1000MOL0     C34895   6.086   2.488   1.377 -0.0300 -0.2541 -0.7702
 1000MOL0     O34896   6.083   2.355   1.430 -0.0312 -0.1431 -0.4373
 1000MOL0     C34897   6.151   2.270   1.340  0.5911 -0.3298  0.7603
 1000MOL0     C34898   6.286   2.272   1.342 -0.4261  0.3567 -0.1794
 1000MOL0     C34899   6.363   2.196   1.258  0.1736  1.0298 -0.3506
 1000MOL0     C34900   6.308   2.097   1.165 -0.8233  0.5110 -0.9696
 1000MOL0     O34901   6.396   2.015   1.099  0.3900 -0.0881 -0.3085
 1000MOL0     C34902   6.347   1.900   1.024  0.8704  0.1491 -0.8262
 1000MOL0     C34903   6.355   1.776   1.123  0.3309  0.3944 -0.9718
 1000MOL0     C34904   6.320   1.632   1.053 -0.3438 -0.1111 -0.6210
 1000MOL0     C34905   6.332   1.510   1.145  0.5791 -0.1892  1.3263
 1000MOL0     C34906   6.256   1.374   1.104 -0.0675 -0.2019  0.7560
 1000MOL0     C34907   6.105   1.384   1.087  0.0946  0.0740 -1.5835
 1000MOL0     C34908   6.046   1.249   1.068  0.5330  0.1357 -0.4305
 1000MOL0     C34909   5.895   1.256   1.056 -0.8568  0.2449 -0.3193
 1000MOL0    Cl34910   5.858   1.356   0.909 -0.3288 -0.3878  0.1106
 1000MOL0     C34911   6.165   2.095   1.175  0.7827 -0.0949  0.8792
 1000MOL0     C34912   6.089   2.180   1.258  0.6045  0.0654  0.2407
 1000MOL0     O34913   6.183   2.538   1.314  0.6248 -0.4103  0.3300
 1000MOL0     C34914   6.024   2.714   1.459 -0.4849 -0.2443 -0.8707
 1000MOL0     C34915   5.943   2.818   1.501 -0.0945  0.8909 -0.2210
 1000MOL0     N34916   5.499   2.940   2.113  0.0962  0.9054  0.2924
 1000MOL0     N34917   5.541   2.917   2.233 -0.0530 -0.5145 -0.0176
 1000MOL0     C34918   5.369   3.448   3.328 -0.3979 -0.6009  0.0660
 1000MOL0     C34919   5.408   3.533   3.435 -0.1540 -0.2949 -0.5987
 1000MOL0     C34920   5.719   3.718   3.725 -0.0660 -0.3213 -0.9385
 1000MOL0     C34921   5.736   3.829   3.638 -0.8956 -0.4349 -0.2657
 1000MOL0     C34922   5.809   3.952   3.674  0.1335  0.2416  0.1367
 1000MOL0     C34923   5.840   3.980   3.805 -0.7955  0.7829 -1.3805
 1000MOL0     O34924   5.890   4.104   3.846  0.4621 -0.2383 -0.5620
 1000MOL0     C34925   5.944   4.122   3.979 -0.6106  0.5082 -0.7127
 1000MOL0     C34926   5.839   4.131   4.094 -0.0442  0.4281 -0.1157
 1000MOL0     C34927   5.901   4.107   4.225 -0.5314 -1.0817 -1.4194
 1000MOL0     C34928   5.804   4.116   4.342 -0.5361 -0.3251 -0.8041
 1000MOL0     C34929   5.726   3.995   4.347  0.1695 -0.1022 -0.4488
 1000MOL0     C34930   5.666   3.890   4.351 -1.3000 -0.4707 -0.0624
 1000MOL0     C34931   5.819   3.868   3.889  0.1481  0.7201 -0.4424
 1000MOL0     C34932   5.752   3.748   3.857 -0.2489  0.3427 -0.2109
 1000MOL0     H34933   5.674   3.344   3.552 -0.5089 -2.2363  0.8367
 1000MOL0     H34934   5.592   3.193   3.386 -1.2209  0.1927  0.6461
 1000MOL0     H34935   5.254   3.315   3.114 -0.6391 -1.6807 -0.5090
 1000MOL0     H34936   5.409   3.359   3.023  0.7472 -1.5354 -2.3009
 1000MOL0     H34937   5.338   3.052   3.055  1.6100  0.0696  0.4614
 1000MOL0     H34938   5.249   3.145   2.945  0.2642 -0.7864 -0.9935
 1000MOL0     H34939   5.472   3.219   2.851 -2.1414  0.2282 -0.4797
 1000MOL0     H34940   5.551   3.102   2.950  1.5695  4.3385  0.9162
 1000MOL0     H34941   5.412   2.919   2.820 -1.2275 -0.7123 -0.3846
 1000MOL0     H34942   5.342   3.039   2.735 -0.7718  0.0852  0.7686
 1000MOL0     H34943   5.574   3.111   2.624  0.4807 -1.9913 -3.1815
 1000MOL0     H34944   5.644   2.992   2.742 -1.1808 -3.5945  1.6467
 1000MOL0     H34945   5.477   2.835   2.606 -0.4058  1.7874  2.4252
 1000MOL0     H34946   5.457   2.989   2.505 -0.5474  1.9750  2.1954
 1000MOL0     H34947   5.733   2.889   2.568 -0.4993  1.7348  0.2678
 1000MOL0     H34948   5.643   2.796   2.452  3.4338  0.0748  1.1908
 1000MOL0     H34949   5.811   2.952   2.366  0.6372  1.6178  0.6482
 1000MOL0     H34950   5.726   3.095   2.430 -2.1013  1.0240 -1.5079
 1000MOL0     H34951   5.726   3.181   2.177  0.7197 -0.5125 -2.2187
 1000MOL0     H34952   5.462   3.086   1.900  0.6298 -2.1813 -3.3014
 1000MOL0     H34953   5.592   3.201   1.920 -0.8854  0.1523  1.9149
 1000MOL0     H34954   5.649   2.903   1.882 -1.7700 -0.5943  0.3690
 1000MOL0     H34955   5.733   3.048   1.816 -0.4998 -1.5663 -2.7915
 1000MOL0     H34956   5.579   3.079   1.646  0.8109  0.6302  0.4221
 1000MOL0     H34957   5.456   2.981   1.726  1.1684  0.4968 -0.0431
 1000MOL0     H34958   5.531   2.847   1.542 -2.1683 -1.1729  2.3521
 1000MOL0     H34959   5.582   2.774   1.696 -1.0973 -1.0907 -0.4892
 1000MOL0     H34960   5.661   2.621   1.547  0.0734 -3.2662 -0.7731
 1000MOL0     H34961   5.828   2.351   1.505 -0.1238 -1.9482 -1.3206
 1000MOL0     H34962   5.680   2.404   1.442 -0.4339  1.6798 -0.2851
 1000MOL0     H34963   5.827   2.403   1.334  3.3947 -0.5775  1.6585
 1000MOL0     H34964   6.342   2.339   1.406  0.7058 -3.7995  3.6530
 1000MOL0     H34965   6.467   2.223   1.245 -0.5410  3.4415 -1.7706
 1000MOL0     H34966   6.245   1.918   0.989 -0.2891 -1.6305  1.3788
 1000MOL0     H34967   6.404   1.883   0.932 -0.1914 -0.2131 -1.4320
 1000MOL0     H34968   6.447   1.764   1.180  0.3063 -3.5817 -1.4763
 1000MOL0     H34969   6.279   1.790   1.201 -1.5983  0.9081 -2.8442
 1000MOL0     H34970   6.396   1.609   0.977  1.0462 -1.4361  1.0807
 1000MOL0     H34971   6.216   1.647   1.024 -0.6943  0.8544  1.0428
 1000MOL0     H34972   6.439   1.488   1.151  1.2808  2.5281  0.1514
 1000MOL0     H34973   6.293   1.539   1.243 -2.4612  1.7114 -0.2605
 1000MOL0     H34974   6.280   1.291   1.171 -0.9318 -2.0426 -1.1167
 1000MOL0     H34975   6.305   1.351   1.009 -0.8532  3.7933 -0.8142
 1000MOL0     H34976   6.073   1.427   1.182  0.3718 -0.3550 -1.2882
 1000MOL0     H34977   6.078   1.449   1.004  1.4424  1.5800 -0.8978
 1000MOL0     H34978   6.070   1.187   1.154  2.1481  2.4289  0.9011
 1000MOL0     H34979   6.088   1.202   0.978  2.4835 -1.7767  1.3660
 1000MOL0     H34980   5.838   1.295   1.141  0.0345  1.3715 -0.2219
 1000MOL0     H34981   5.864   1.154   1.031  1.3690  0.1694 -3.3559
 1000MOL0     H34982   6.098   2.037   1.113  1.7251 -0.6207  0.3418
 1000MOL0     H34983   5.980   2.173   1.263  0.7284 -1.5524  3.0338
 1000MOL0     H34984   6.128   2.741   1.448 -0.1458 -2.0550 -2.7668
 1000MOL0     H34985   5.969   2.922   1.517  1.2131  0.7544 -1.3031
 1000MOL0     H34986   5.291   3.477   3.259 -1.4744 -0.1386  1.4200
 1000MOL0     H34987   5.365   3.631   3.451  1.8179  0.3546  1.1235
 1000MOL0     H34988   5.686   3.826   3.543 -0.0709 -3.2319 -0.6879
 1000MOL0     H34989   5.808   4.019   3.589  2.1953 -0.8741 -0.8385
 1000MOL0     H34990   6.016   4.042   3.997  0.3829  1.3788 -0.7546
 1000MOL0     H34991   5.998   4.216   3.985 -2.8028  1.7262  2.5908
 1000MOL0     H34992   5.779   4.040   4.081  2.3827 -1.1782 -0.6476
 1000MOL0     H34993   5.771   4.216   4.083 -2.1157 -1.1482 -0.2963
 1000MOL0     H34994   5.980   4.181   4.240 -0.3140 -1.6462  0.5216
 1000MOL0     H34995   5.955   4.013   4.231  4.0741  1.3659  0.3830
 1000MOL0     H34996   5.740   4.204   4.329 -1.8316 -1.0586  0.3450
 1000MOL0     H34997   5.860   4.127   4.435 -1.2791 -0.5012 -0.3246
 1000MOL0     H34998   5.626   3.791   4.362  0.6965 -1.0304  3.3986
 1000MOL0     H34999   5.861   3.871   3.989  1.1640  0.7581 -0.8514
 1000MOL0     H35000   5.751   3.670   3.934 -0.3152 -1.3692 -1.8695
 1001MOL0     O35001  10.424   0.916   2.312  0.0759 -0.2332 -0.2177
 1001MOL0     C35002  10.532   0.864   2.286 -0.0010 -0.6734  0.1743
 1001MOL0     O35003  10.567   0.820   2.158 -0.0184 -0.1795 -0.0013
 1001MOL0     C35004  10.503   0.850   2.043 -0.4028  0.5371  0.4624
 1001MOL0     C35005  10.483   0.747   1.946  0.1638  0.1075  0.2852
 1001MOL0     C35006  10.415   0.780   1.827 -0.5994 -1.0692 -0.7769
 1001MOL0     C35007  10.379   0.916   1.800  0.1347 -0.0981  0.2353
 1001MOL0     O35008  10.313   0.971   1.686 -0.5818  0.1398 -0.0287
 1001MOL0     C35009  10.302   0.898   1.567 -0.3432  0.2925  0.0364
 1001MOL0     C35010  10.221   0.959   1.456 -0.2854  0.4443  0.1301
 1001MOL0     C35011  10.076   0.904   1.475 -0.1135  0.3691  0.2474
 1001MOL0     C35012   9.973   0.965   1.373  0.5676 -0.0019  0.1177
 1001MOL0     C35013   9.821   0.938   1.408  1.0231 -0.0316 -1.2648
 1001MOL0     C35014   9.769   0.971   1.559  0.9935 -0.1571  0.2032
 1001MOL0     C35015   9.798   1.110   1.618  0.0554  0.3401 -0.2660
 1001MOL0     C35016   9.719   1.225   1.572  0.1810 -0.1720  0.5423
 1001MOL0     N35017   9.709   1.272   1.430 -1.1045  0.7983  1.0513
 1001MOL0     C35018   9.597   1.334   1.388 -0.8303  0.0153 -0.2965
 1001MOL0     C35019   9.621   1.338   1.250 -0.3960 -1.1178 -0.7372
 1001MOL0     C35020   9.540   1.404   1.141 -0.2110 -0.6135  0.6816
 1001MOL0     C35021   9.582   1.548   1.125 -0.4103 -0.1276  0.2647
 1001MOL0     C35022   9.490   1.629   1.227  0.3853  0.1633  0.0984
 1001MOL0     C35023   9.482   1.770   1.167 -0.2751 -0.2609  0.6866
 1001MOL0     O35024   9.432   1.757   1.040  0.6244  0.4580  0.3362
 1001MOL0     C35025   9.379   1.872   0.986  0.7176 -1.0455 -0.0162
 1001MOL0     C35026   9.394   2.002   1.037 -1.2333 -0.5977  1.3429
 1001MOL0     C35027   9.330   2.112   0.960  0.1743  0.0751 -0.4096
 1001MOL0     C35028   9.359   2.252   1.024  0.1516  0.0959  0.3488
 1001MOL0     C35029   9.264   2.087   0.837 -0.1060 -0.6398 -0.1499
 1001MOL0     C35030   9.194   2.193   0.764 -0.5529  0.2752  0.0797
 1001MOL0     O35031   9.070   2.143   0.703  0.2983 -0.6834  0.7230
 1001MOL0     C35032   9.012   2.211   0.601 -0.2271  0.3089  0.1626
 1001MOL0     C35033   9.071   2.312   0.516 -0.4547  0.5655  0.4994
 1001MOL0     C35034   8.991   2.367   0.412  0.1731 -1.4415  0.3402
 1001MOL0     C35035   8.860   2.334   0.391 -0.6968 -1.9817 -0.6052
 1001MOL0     O35036   8.782   2.401   0.305 -0.4440 -0.0942  0.2092
 1001MOL0     C35037   8.654   2.460   0.347  0.4811 -0.4439  0.5065
 1001MOL0     C35038   8.603   2.533   0.215  0.3132  0.2717 -0.6150
 1001MOL0     C35039   8.711   2.605   0.133 -0.4883 -0.0152 -0.7188
 1001MOL0     C35040   8.643   2.724   0.065  0.0264  0.5463  0.9568
 1001MOL0     C35041   8.750   2.829   0.032  0.1888  0.6289 -0.7408
 1001MOL0     C35042   8.727   2.931  -0.076  0.3409  0.5087  0.0403
 1001MOL0     C35043   8.851   3.009  -0.121 -0.2270  0.2669  0.6826
 1001MOL0     C35044   8.932   3.055  -0.008  0.6604  0.8040  0.3381
 1001MOL0    Cl35045   8.842   3.154   0.114 -0.1855  0.1669  0.1240
 1001MOL0     C35046   8.806   2.229   0.473  0.7032  1.0162 -0.0290
 1001MOL0     C35047   8.884   2.165   0.572 -0.4209 -0.5174 -0.2519
 1001MOL0     O35048   9.239   2.304   0.759  0.1313  0.0480  0.9677
 1001MOL0     C35049   9.264   1.960   0.783  0.9578  0.3926  0.2891
 1001MOL0     C35050   9.311   1.855   0.867  0.2281 -0.2544  0.1797
 1001MOL0     N35051   9.748   1.287   1.230 -0.2014 -0.7746  0.4214
 1001MOL0     N35052   9.812   1.263   1.333 -0.0436 -0.0705  0.5367
 1001MOL0     C35053  10.420   1.007   1.894 -0.0310 -1.1051 -1.3532
 1001MOL0     C35054  10.467   0.976   2.012 -0.5290  0.0939  0.4770
 1001MOL0     C35055  10.628   0.840   2.397 -0.5415  0.4547  0.4113
 1001MOL0     C35056  10.604   0.891   2.527 -0.5712 -0.0094 -0.1931
 1001MOL0     C35057  10.684   0.854   2.644 -0.3631  0.4289  0.3858
 1001MOL0     C35058  10.778   0.763   2.619 -0.9762 -0.0920 -0.2188
 1001MOL0     O35059  10.870   0.725   2.714  0.5934 -0.1448  0.6829
 1001MOL0     C35060  10.820   0.672   2.834 -1.0019 -0.0365 -0.3489
 1001MOL0     C35061  10.850   0.519   2.856  1.0698 -0.2747 -0.2421
 1001MOL0     C35062  10.998   0.468   2.860 -0.2300 -0.0664  0.3186
 1001MOL0     C35063  11.046   0.456   2.713 -0.4219 -0.2173 -0.3245
 1001MOL0     C35064  11.195   0.466   2.710  1.9312 -0.6245  0.7877
 1001MOL0     C35065  11.320   0.460   2.720  0.2739  0.5767  0.9764
 1001MOL0     C35066  10.809   0.721   2.496 -0.6748  0.3980  0.7899
 1001MOL0     C35067  10.738   0.750   2.381  0.5448  0.0210  0.1797
 1001MOL0     H35068  10.523   0.647   1.951  0.2254  0.1156 -0.0305
 1001MOL0     H35069  10.373   0.700   1.768  0.1174 -0.4715 -2.1420
 1001MOL0     H35070  10.400   0.900   1.520  0.0084 -1.1444  0.6270
 1001MOL0     H35071  10.271   0.793   1.573  0.8655 -0.2671 -2.5009
 1001MOL0     H35072  10.238   1.066   1.440 -0.1259  0.0410 -3.0323
 1001MOL0     H35073  10.251   0.907   1.365 -1.4964 -0.2662  0.1167
 1001MOL0     H35074  10.070   0.798   1.451  2.0195  0.7467 -2.4078
 1001MOL0     H35075  10.051   0.909   1.582  2.0808  2.4277  0.7503
 1001MOL0     H35076   9.995   1.071   1.358  0.5748 -0.1514 -1.0138
 1001MOL0     H35077   9.983   0.916   1.276  2.7216 -2.0207  1.2758
 1001MOL0     H35078   9.751   0.976   1.333 -1.3811  0.0519  0.8646
 1001MOL0     H35079   9.817   0.830   1.390  0.2889 -0.7386  2.3210
 1001MOL0     H35080   9.661   0.961   1.569  1.3581 -3.5365  2.7601
 1001MOL0     H35081   9.817   0.889   1.614  2.8030  0.1005 -0.9022
 1001MOL0     H35082   9.786   1.103   1.727  0.9534 -3.9621 -0.2618
 1001MOL0     H35083   9.904   1.136   1.606 -0.1496  0.8079 -1.0961
 1001MOL0     H35084   9.740   1.312   1.635 -0.0284  0.2897 -0.0116
 1001MOL0     H35085   9.620   1.205   1.613  0.2499  2.4381  2.1995
 1001MOL0     H35086   9.511   1.373   1.442 -0.9788 -0.8473  0.0987
 1001MOL0     H35087   9.577   1.360   1.048 -2.6291  3.1090 -2.3081
 1001MOL0     H35088   9.431   1.399   1.145 -0.5235  3.3435  1.1803
 1001MOL0     H35089   9.566   1.555   1.017  1.6659 -1.8859 -0.2268
 1001MOL0     H35090   9.688   1.557   1.147 -0.2759  2.0626 -1.0367
 1001MOL0     H35091   9.529   1.630   1.330 -1.7891  0.1786  0.9600
 1001MOL0     H35092   9.388   1.591   1.218 -1.1719  3.8848  0.2575
 1001MOL0     H35093   9.580   1.817   1.167 -0.2887 -0.1194 -1.8674
 1001MOL0     H35094   9.415   1.812   1.243  0.1215 -0.0492  0.9245
 1001MOL0     H35095   9.453   2.023   1.126 -0.0595 -2.4275  1.0389
 1001MOL0     H35096   9.418   2.311   0.952 -3.0037 -1.2504 -3.7630
 1001MOL0     H35097   9.267   2.305   1.049 -0.3242  0.6909 -2.3122
 1001MOL0     H35098   9.427   2.252   1.109 -0.2200 -0.2237  0.6464
 1001MOL0     H35099   9.174   2.347   0.523  1.2938 -2.9936 -3.2013
 1001MOL0     H35100   9.032   2.439   0.342  3.3107 -1.0640  2.3866
 1001MOL0     H35101   8.580   2.388   0.381 -0.4665 -1.5901 -3.4612
 1001MOL0     H35102   8.672   2.540   0.419 -0.2922  0.9573 -0.8039
 1001MOL0     H35103   8.573   2.448   0.153  2.9630 -1.2165 -0.0076
 1001MOL0     H35104   8.528   2.599   0.259 -1.1447 -1.5131 -0.3417
 1001MOL0     H35105   8.753   2.547   0.050 -4.8720  1.4522 -4.3766
 1001MOL0     H35106   8.790   2.641   0.200 -1.2742  4.1740 -1.7670
 1001MOL0     H35107   8.594   2.686  -0.025 -0.0309  1.2204  0.7013
 1001MOL0     H35108   8.568   2.768   0.132  1.4007  2.3904  1.3706
 1001MOL0     H35109   8.844   2.779   0.007 -1.4382 -2.7038 -0.7540
 1001MOL0     H35110   8.761   2.889   0.122 -1.3191  1.8894 -1.3385
 1001MOL0     H35111   8.676   2.881  -0.158  0.2848 -0.2957  0.5528
 1001MOL0     H35112   8.651   3.003  -0.047  0.6127  0.6269  0.4709
 1001MOL0     H35113   8.820   3.097  -0.179  2.1914  0.0223 -1.1684
 1001MOL0     H35114   8.918   2.963  -0.194 -0.8082  2.3958 -1.3412
 1001MOL0     H35115   9.006   3.124  -0.048  2.4306 -0.1632  1.7758
 1001MOL0     H35116   8.970   2.967   0.045 -0.2053  0.3955  0.2987
 1001MOL0     H35117   8.702   2.197   0.478  1.1009 -0.2390  0.4953
 1001MOL0     H35118   8.838   2.105   0.650 -0.3204  0.5395  0.6464
 1001MOL0     H35119   9.217   1.949   0.686  1.1971  4.4093 -0.4571
 1001MOL0     H35120   9.301   1.767   0.805 -1.2839  2.1165 -3.2576
 1001MOL0     H35121  10.411   1.115   1.880  1.8282 -0.7439 -0.0639
 1001MOL0     H35122  10.488   1.055   2.082  0.3995 -0.2511  0.6048
 1001MOL0     H35123  10.524   0.963   2.536  0.0559  0.6523  0.1632
 1001MOL0     H35124  10.671   0.910   2.736 -1.4130 -0.8172  1.0103
 1001MOL0     H35125  10.857   0.736   2.915  0.0917  0.8951 -1.5462
 1001MOL0     H35126  10.712   0.689   2.843 -0.9178  0.0624  0.6361
 1001MOL0     H35127  10.805   0.491   2.760 -0.2555  0.2837  0.1931
 1001MOL0     H35128  10.793   0.463   2.931  0.4968  0.7220  0.0794
 1001MOL0     H35129  10.996   0.380   2.925  0.3709  0.9914  1.8506
 1001MOL0     H35130  11.057   0.538   2.921 -0.2332 -2.1796  2.9430
 1001MOL0     H35131  10.995   0.521   2.640  0.7003  1.3575  0.2304
 1001MOL0     H35132  11.016   0.354   2.689 -1.1073 -0.2810  0.7490
 1001MOL0     H35133  11.425   0.481   2.728 -0.0771  2.3746  1.3749
 1001MOL0     H35134  10.905   0.677   2.472  0.4624  3.0993 -0.0619
 1001MOL0     H35135  10.770   0.708   2.287  0.6769  1.0522 -0.2456
 1002MOL0     O35136   3.475   3.255   9.860 -0.3169 -0.0780 -0.8257
 1002MOL0     C35137   3.378   3.325   9.886 -0.0345  0.5622  0.2755
 1002MOL0     O35138   3.306   3.320   9.993  0.0978  0.7564 -0.0155
 1002MOL0     C35139   3.352   3.249  10.098  1.3355 -0.0290  0.0503
 1002MOL0     C35140   3.281   3.130  10.120 -0.7322 -0.6319  0.3921
 1002MOL0     C35141   3.301   3.073  10.249 -0.7149  0.2052  0.4573
 1002MOL0     C35142   3.396   3.127  10.349 -0.0659 -0.1146  0.1410
 1002MOL0     O35143   3.397   3.083  10.475 -0.3737  0.0211  0.1677
 1002MOL0     C35144   3.419   2.944  10.492 -0.3846  0.7314  1.0919
 1002MOL0     C35145   3.447   2.914  10.642  0.1679 -0.1379 -0.5351
 1002MOL0     C35146   3.573   2.986  10.688  0.3806  0.5690 -0.4579
 1002MOL0     C35147   3.613   2.926  10.825 -0.1123  0.3471  0.3185
 1002MOL0     C35148   3.747   2.986  10.851  1.3575 -0.9074  0.0219
 1002MOL0     C35149   3.794   2.953  10.999  1.2658  0.7978  0.0615
 1002MOL0     C35150   3.828   2.807  11.012  0.5332 -0.1778  0.8225
 1002MOL0     C35151   3.923   2.788  11.128 -0.1764  0.0480  0.5226
 1002MOL0     N35152   3.873   2.760  11.258  0.4273 -1.2833 -0.4505
 1002MOL0     C35153   3.749   2.790  11.313 -0.2688  0.0345  0.1190
 1002MOL0     C35154   3.738   2.736  11.438 -0.2788 -0.0003  0.4181
 1002MOL0     C35155   3.609   2.727  11.516 -0.1131 -0.2944  0.8214
 1002MOL0     C35156   3.568   2.578  11.534  0.3488  0.0988 -0.2027
 1002MOL0     C35157   3.468   2.527  11.432  0.6962  0.4685 -1.0217
 1002MOL0     C35158   3.544   2.461  11.317 -0.7806  0.2703  0.1782
 1002MOL0     O35159   3.461   2.422  11.218 -0.2554 -0.3993 -0.3342
 1002MOL0     C35160   3.478   2.299  11.173  0.6653 -0.5504  0.2017
 1002MOL0     C35161   3.365   2.225  11.154  0.0081 -0.8518  0.5971
 1002MOL0     C35162   3.362   2.093  11.106 -0.4432  0.0160 -0.5715
 1002MOL0     C35163   3.232   2.020  11.121  0.4840  0.5760  0.5531
 1002MOL0     C35164   3.490   2.036  11.071 -0.0088  0.8600  0.7375
 1002MOL0     C35165   3.508   1.891  11.022  0.0544  0.2248 -0.1431
 1002MOL0     O35166   3.635   1.838  11.065  0.3358 -0.2676 -0.3378
 1002MOL0     C35167   3.663   1.710  11.029 -0.1385  0.2345 -0.0654
 1002MOL0     C35168   3.649   1.649  10.907 -0.4965 -0.2114  0.3008
 1002MOL0     C35169   3.681   1.512  10.897 -0.1488  0.0251  0.3932
 1002MOL0     C35170   3.727   1.439  11.010 -1.0477 -0.8205  0.2587
 1002MOL0     O35171   3.776   1.319  10.974 -0.3890  0.6875 -1.4713
 1002MOL0     C35172   3.873   1.256  11.058 -0.9595 -0.2379 -0.6481
 1002MOL0     C35173   4.003   1.339  11.076 -0.0312 -0.0912 -0.4138
 1002MOL0     C35174   4.059   1.370  10.935  0.3560  0.2922 -0.2273
 1002MOL0     C35175   4.211   1.411  10.937  0.0544  0.1216 -0.3307
 1002MOL0     C35176   4.257   1.428  10.789 -0.2947 -0.3417  0.5446
 1002MOL0     C35177   4.401   1.493  10.790  0.3101  0.8161  0.2168
 1002MOL0     C35178   4.430   1.522  10.641  0.4535 -0.3407 -0.0987
 1002MOL0     C35179   4.554   1.611  10.639 -0.2049 -0.0835  0.8462
 1002MOL0    Cl35180   4.602   1.670  10.480 -0.1302  0.0800  0.3678
 1002MOL0     C35181   3.732   1.498  11.136 -0.2334  0.0298  0.6375
 1002MOL0     C35182   3.688   1.632  11.139 -0.3588 -0.2657 -0.2836
 1002MOL0     O35183   3.417   1.833  10.961  0.4350 -0.5340  0.0594
 1002MOL0     C35184   3.605   2.115  11.087  0.8355  1.0823  1.3261
 1002MOL0     C35185   3.597   2.241  11.133 -0.1132 -0.0462 -0.8525
 1002MOL0     N35186   3.862   2.674  11.463  0.2112  0.5329 -0.0345
 1002MOL0     N35187   3.927   2.681  11.354 -0.8879  0.5918 -0.0963
 1002MOL0     C35188   3.453   3.254  10.322  1.2396 -0.0245 -0.2817
 1002MOL0     C35189   3.430   3.311  10.194  0.3997 -0.8023 -0.7790
 1002MOL0     C35190   3.345   3.413   9.781  1.5870 -0.1853 -0.3725
 1002MOL0     C35191   3.428   3.439   9.677  0.1023  0.1968  1.3914
 1002MOL0     C35192   3.393   3.535   9.581  0.4420 -0.2252 -0.5115
 1002MOL0     C35193   3.266   3.599   9.576 -0.1407 -0.0379  0.6267
 1002MOL0     O35194   3.239   3.684   9.471 -0.0874  0.4722 -0.0512
 1002MOL0     C35195   3.120   3.764   9.468 -0.4743  0.6536  0.6494
 1002MOL0     C35196   3.101   3.818   9.328 -0.7401  0.2904  0.2724
 1002MOL0     C35197   2.980   3.917   9.308  0.1776  0.2689  0.0987
 1002MOL0     C35198   2.999   4.038   9.220 -0.3062 -0.7782  0.2925
 1002MOL0     C35199   2.990   3.997   9.080 -0.9673 -0.0091 -0.7004
 1002MOL0     C35200   2.999   3.959   8.967 -0.2986 -0.3280 -0.4814
 1002MOL0     C35201   3.178   3.576   9.683 -0.7422  1.2689  0.3775
 1002MOL0     C35202   3.221   3.488   9.789 -0.3507  0.4470  0.5815
 1002MOL0     H35203   3.228   3.083  10.039  1.5250 -0.6814 -1.1650
 1002MOL0     H35204   3.249   2.980  10.267 -1.5308  0.4599 -0.5133
 1002MOL0     H35205   3.335   2.882  10.462  1.6685 -1.6220 -0.2258
 1002MOL0     H35206   3.503   2.910  10.429  0.7174  0.9736  2.3793
 1002MOL0     H35207   3.361   2.962  10.691 -0.3578 -0.2708 -1.3151
 1002MOL0     H35208   3.436   2.806  10.656 -1.7729  0.0710 -0.0710
 1002MOL0     H35209   3.655   2.975  10.617 -0.1727 -1.4141 -0.8382
 1002MOL0     H35210   3.541   3.090  10.699 -3.2599 -0.1859 -2.5102
 1002MOL0     H35211   3.547   2.966  10.904 -0.6734  1.3364 -0.6258
 1002MOL0     H35212   3.622   2.817  10.827 -4.3532 -0.3734 -3.6425
 1002MOL0     H35213   3.830   2.969  10.782  1.7279  2.6977 -0.6112
 1002MOL0     H35214   3.729   3.094  10.857  2.0097 -0.8442  1.3158
 1002MOL0     H35215   3.880   3.020  11.009  2.6918 -0.9778  0.1890
 1002MOL0     H35216   3.720   2.971  11.077 -0.0233  2.4464 -1.4486
 1002MOL0     H35217   3.735   2.754  11.031  1.8142 -2.2520  1.6057
 1002MOL0     H35218   3.874   2.761  10.924  0.5073  0.6967  0.3368
 1002MOL0     H35219   3.993   2.872  11.129 -1.3899  1.1097 -0.2558
 1002MOL0     H35220   3.983   2.703  11.095 -1.3763 -0.6669  0.0966
 1002MOL0     H35221   3.681   2.857  11.262 -1.0118 -1.5384 -1.0118
 1002MOL0     H35222   3.624   2.781  11.610  1.1622  0.5523  0.1619
 1002MOL0     H35223   3.533   2.772  11.451 -2.1602 -2.4946  1.5594
 1002MOL0     H35224   3.531   2.576  11.637  1.5814 -1.0351  0.2467
 1002MOL0     H35225   3.656   2.514  11.548  0.9821  1.6374  4.5264
 1002MOL0     H35226   3.393   2.600  11.401 -1.1858 -0.6644  0.6013
 1002MOL0     H35227   3.399   2.456  11.478  0.8809 -0.2896 -1.8836
 1002MOL0     H35228   3.600   2.376  11.358  0.6754  0.5348 -1.1593
 1002MOL0     H35229   3.617   2.536  11.286 -0.5938 -0.9162 -2.5937
 1002MOL0     H35230   3.265   2.265  11.156 -0.9920 -2.6707 -3.2082
 1002MOL0     H35231   3.153   2.079  11.168 -1.7496 -1.0813 -0.9084
 1002MOL0     H35232   3.197   1.999  11.020  0.4688  3.8384 -0.2280
 1002MOL0     H35233   3.240   1.928  11.179 -1.6153  0.9903  1.6139
 1002MOL0     H35234   3.621   1.688  10.810 -1.1582  2.4860  1.4750
 1002MOL0     H35235   3.673   1.449  10.809  0.7147 -0.1058  0.4008
 1002MOL0     H35236   3.825   1.235  11.154 -0.0865  0.3993 -0.0588
 1002MOL0     H35237   3.893   1.158  11.015 -0.9792 -0.5555  0.0572
 1002MOL0     H35238   3.972   1.427  11.133  1.0368 -0.6355  1.0958
 1002MOL0     H35239   4.077   1.292  11.142  1.0684  0.0628 -1.5065
 1002MOL0     H35240   3.994   1.447  10.893  0.6573  0.9972  0.5770
 1002MOL0     H35241   4.040   1.289  10.864 -0.3949  1.2154 -1.1034
 1002MOL0     H35242   4.212   1.507  10.990 -1.9644  2.7206 -4.4987
 1002MOL0     H35243   4.266   1.328  10.981  4.0362  2.7253  0.0840
 1002MOL0     H35244   4.183   1.502  10.758 -1.5980 -1.4996  0.8273
 1002MOL0     H35245   4.267   1.334  10.733  1.2737  0.5337 -0.7330
 1002MOL0     H35246   4.403   1.587  10.846  3.4980  2.6221 -2.5514
 1002MOL0     H35247   4.468   1.415  10.827  1.1960  1.4494 -0.0229
 1002MOL0     H35248   4.349   1.575  10.591  0.6906  1.1389  1.0278
 1002MOL0     H35249   4.445   1.435  10.576 -3.6423  0.0083 -1.8327
 1002MOL0     H35250   4.634   1.548  10.677 -2.5822 -1.5554  3.7966
 1002MOL0     H35251   4.542   1.699  10.703  1.3686  0.5137  0.3527
 1002MOL0     H35252   3.778   1.450  11.221 -0.1355 -0.0169  0.5595
 1002MOL0     H35253   3.686   1.684  11.234 -2.3911  0.9783 -0.9430
 1002MOL0     H35254   3.705   2.076  11.069  0.5823  0.6121  0.9164
 1002MOL0     H35255   3.688   2.293  11.161 -1.4792  2.2950 -0.4992
 1002MOL0     H35256   3.513   3.304  10.398  2.2087 -2.1608  0.4205
 1002MOL0     H35257   3.455   3.411  10.162 -0.4764 -0.8027 -1.4864
 1002MOL0     H35258   3.526   3.394   9.666 -0.1807 -0.1888  0.3165
 1002MOL0     H35259   3.453   3.563   9.495 -0.0292  1.1185 -0.4245
 1002MOL0     H35260   3.034   3.699   9.488 -1.7356  0.9147 -3.1433
 1002MOL0     H35261   3.119   3.847   9.539 -3.3846 -1.2868  3.1124
 1002MOL0     H35262   3.102   3.733   9.259  0.1295  1.3529 -1.0764
 1002MOL0     H35263   3.199   3.866   9.319  1.3229 -3.1865  1.8822
 1002MOL0     H35264   2.956   3.966   9.403 -1.4884  0.6760 -0.5128
 1002MOL0     H35265   2.890   3.862   9.281 -0.1360 -0.3282  2.1860
 1002MOL0     H35266   3.102   4.073   9.227 -0.6503  0.4928 -0.6165
 1002MOL0     H35267   2.931   4.118   9.250  1.3968  0.9728 -0.3006
 1002MOL0     H35268   3.016   3.925   8.867  1.0876  1.9885 -1.1028
 1002MOL0     H35269   3.087   3.634   9.678 -2.5077 -1.4269 -2.0715
 1002MOL0     H35270   3.154   3.479   9.874 -0.3705  1.7880  0.7227
 1003MOL0     O35271   7.255   0.967   5.790 -0.2871  0.0847 -0.2144
 1003MOL0     C35272   7.260   0.923   5.671  0.2876  0.1738 -0.4250
 1003MOL0     O35273   7.360   0.950   5.576 -0.0987  0.3035  0.6599
 1003MOL0     C35274   7.482   1.006   5.601  0.3126 -0.0599 -1.1151
 1003MOL0     C35275   7.589   0.964   5.525  0.4016 -0.0207 -0.3682
 1003MOL0     C35276   7.719   1.017   5.536  0.2667 -0.9691 -0.3144
 1003MOL0     C35277   7.741   1.118   5.627 -0.5713  0.4494  0.1756
 1003MOL0     O35278   7.866   1.178   5.637 -0.0565 -0.3519 -0.5776
 1003MOL0     C35279   7.931   1.180   5.765  0.2607  0.5706  0.7607
 1003MOL0     C35280   8.078   1.194   5.738 -0.1223 -0.3468  0.4003
 1003MOL0     C35281   8.143   1.200   5.878 -0.3674 -1.3479  0.4205
 1003MOL0     C35282   8.294   1.197   5.882 -0.4901 -0.0071  0.1520
 1003MOL0     C35283   8.333   1.173   6.020  0.5386 -0.3535 -1.2635
 1003MOL0     C35284   8.478   1.206   6.058 -0.1944 -0.2506 -0.3342
 1003MOL0     C35285   8.596   1.124   5.988  0.1197 -0.1184  0.4196
 1003MOL0     C35286   8.632   0.982   6.026 -0.8829  0.8613  0.1947
 1003MOL0     N35287   8.528   0.883   6.058 -0.0139 -0.5792 -0.2089
 1003MOL0     C35288   8.456   0.811   5.965 -1.4771  0.1500 -0.4042
 1003MOL0     C35289   8.390   0.716   6.028 -0.1863  0.7281  0.6692
 1003MOL0     C35290   8.310   0.594   5.985 -0.1082 -0.7462 -0.6878
 1003MOL0     C35291   8.354   0.460   6.043  0.2946 -0.4706  0.3681
 1003MOL0     C35292   8.314   0.337   5.966 -0.1077 -0.5435  1.0295
 1003MOL0     C35293   8.311   0.214   6.047 -0.6354  0.2998  0.1961
 1003MOL0     O35294   8.243   0.105   5.996 -0.2826  1.0374 -0.5160
 1003MOL0     C35295   8.318   0.019   5.923 -0.8465  0.2193  0.3933
 1003MOL0     C35296   8.256  -0.104   5.882  0.4608  0.0605  0.3672
 1003MOL0     C35297   8.322  -0.205   5.819 -0.2000  0.3362  0.6625
 1003MOL0     C35298   8.252  -0.336   5.798  0.3174 -0.3361 -0.0275
 1003MOL0     C35299   8.457  -0.191   5.780  0.2883 -0.0748  0.8273
 1003MOL0     C35300   8.547  -0.283   5.704  0.7970 -0.0440 -0.8726
 1003MOL0     O35301   8.658  -0.233   5.641 -0.2839  0.0982  0.2575
 1003MOL0     C35302   8.725  -0.328   5.558 -0.3476  0.3460 -0.3152
 1003MOL0     C35303   8.720  -0.309   5.413 -1.7462 -1.0841  0.3051
 1003MOL0     C35304   8.786  -0.399   5.334 -1.0056  1.1823  1.0379
 1003MOL0     C35305   8.875  -0.496   5.384  1.1260 -0.1394 -0.1251
 1003MOL0     O35306   8.943  -0.577   5.295  0.4381 -0.3790 -0.5514
 1003MOL0     C35307   9.087  -0.552   5.304  0.4149  1.7511  0.4518
 1003MOL0     C35308   9.155  -0.665   5.230 -0.3252 -0.2766  0.0191
 1003MOL0     C35309   9.304  -0.632   5.245  0.4296  0.2552  1.0627
 1003MOL0     C35310   9.382  -0.732   5.155  0.3859  0.2987 -0.4717
 1003MOL0     C35311   9.527  -0.703   5.142  0.1485 -0.0209  0.8361
 1003MOL0     C35312   9.552  -0.581   5.063  0.0236 -0.8261  0.3123
 1003MOL0     C35313   9.692  -0.542   5.040 -1.1144 -0.2619 -0.4595
 1003MOL0     C35314   9.766  -0.516   5.168 -0.1526 -0.1833  0.3811
 1003MOL0    Cl35315   9.915  -0.419   5.131 -0.2404  0.2301 -0.1433
 1003MOL0     C35316   8.883  -0.503   5.521 -0.7710  0.5338 -0.0076
 1003MOL0     C35317   8.812  -0.428   5.613  0.4829  0.4054  1.3032
 1003MOL0     O35318   8.518  -0.401   5.704 -0.0218 -0.4310 -0.7777
 1003MOL0     C35319   8.515  -0.064   5.807 -0.3022 -0.7204  0.3024
 1003MOL0     C35320   8.451   0.039   5.876 -0.0716 -0.1954 -0.1596
 1003MOL0     N35321   8.414   0.740   6.158  0.7228  0.3231  0.2915
 1003MOL0     N35322   8.500   0.828   6.180  0.5227 -0.0007  0.7728
 1003MOL0     C35323   7.635   1.158   5.720  0.0283 -0.7601 -0.5588
 1003MOL0     C35324   7.502   1.088   5.717 -0.2292 -0.2170 -0.2945
 1003MOL0     C35325   7.145   0.831   5.636 -0.9470 -0.8565  0.2731
 1003MOL0     C35326   7.147   0.783   5.514 -0.2205 -0.3832  0.3785
 1003MOL0     C35327   7.045   0.706   5.479  1.6214 -0.2450 -0.0159
 1003MOL0     C35328   6.946   0.670   5.577 -1.2708  0.5655  0.9927
 1003MOL0     O35329   6.840   0.580   5.559 -0.3941 -0.3556 -0.4733
 1003MOL0     C35330   6.841   0.487   5.451 -0.7314 -0.4761  0.5613
 1003MOL0     C35331   6.696   0.509   5.375  0.1507  0.1685 -0.9811
 1003MOL0     C35332   6.699   0.637   5.287  0.7214 -0.1709 -0.2253
 1003MOL0     C35333   6.797   0.630   5.169  0.1821  0.1782  0.0090
 1003MOL0     C35334   6.768   0.534   5.059  0.5964 -0.0037 -0.9098
 1003MOL0     C35335   6.754   0.464   4.958 -0.6081 -0.5261 -0.9798
 1003MOL0     C35336   6.951   0.719   5.701 -0.4441  0.9442 -0.5063
 1003MOL0     C35337   7.051   0.808   5.732 -0.5068  0.1666 -0.2741
 1003MOL0     H35338   7.570   0.888   5.451  2.3435 -1.6312  0.7060
 1003MOL0     H35339   7.806   0.977   5.485  0.1897  1.7085 -2.7630
 1003MOL0     H35340   7.898   1.263   5.828 -1.3310 -0.6206  1.5443
 1003MOL0     H35341   7.908   1.091   5.824  3.8993  0.9598  3.1441
 1003MOL0     H35342   8.116   1.108   5.681 -4.5558 -1.7551 -0.8134
 1003MOL0     H35343   8.086   1.285   5.677 -1.0657  0.1248  0.9644
 1003MOL0     H35344   8.104   1.283   5.937  2.8793  0.8005 -0.1488
 1003MOL0     H35345   8.113   1.110   5.932  0.4105  0.2640  3.8149
 1003MOL0     H35346   8.344   1.114   5.830 -2.3814 -0.9993 -0.2027
 1003MOL0     H35347   8.343   1.287   5.845  2.6295 -1.5917  0.0909
 1003MOL0     H35348   8.280   1.237   6.090 -4.6506 -2.6109 -2.6974
 1003MOL0     H35349   8.326   1.068   6.051 -1.0541  0.8369  3.0518
 1003MOL0     H35350   8.490   1.313   6.040 -3.1504  0.2826  0.2608
 1003MOL0     H35351   8.488   1.206   6.167 -1.5373  2.4356 -0.1185
 1003MOL0     H35352   8.580   1.119   5.880  0.1729 -1.2750  0.4558
 1003MOL0     H35353   8.687   1.185   5.993  1.8554 -2.4053 -1.3415
 1003MOL0     H35354   8.693   0.998   6.116  2.6189  1.0373 -2.0158
 1003MOL0     H35355   8.699   0.933   5.954 -0.1471  4.0933 -1.5205
 1003MOL0     H35356   8.466   0.792   5.858 -0.7205  3.2279 -0.9639
 1003MOL0     H35357   8.207   0.613   6.016  0.2546 -0.1677  0.2050
 1003MOL0     H35358   8.314   0.599   5.876  1.4767  0.0350 -0.6306
 1003MOL0     H35359   8.315   0.453   6.145 -2.4334 -2.4310 -0.6984
 1003MOL0     H35360   8.463   0.466   6.046  0.3347 -0.0365 -1.1366
 1003MOL0     H35361   8.375   0.319   5.877  0.4395 -1.2630  1.5291
 1003MOL0     H35362   8.213   0.354   5.929  0.0007 -2.1207 -0.1175
 1003MOL0     H35363   8.245   0.236   6.131 -4.3169  0.6224 -2.5347
 1003MOL0     H35364   8.411   0.198   6.089  0.3399  1.1638 -1.6546
 1003MOL0     H35365   8.157  -0.130   5.920  0.9831 -0.4253  1.4420
 1003MOL0     H35366   8.275  -0.416   5.869 -0.7147  0.1261  0.8430
 1003MOL0     H35367   8.144  -0.329   5.808  0.2977 -1.8756  1.2637
 1003MOL0     H35368   8.269  -0.371   5.696 -0.7519 -0.0730 -0.3034
 1003MOL0     H35369   8.665  -0.227   5.366 -0.7529 -0.2893  0.4953
 1003MOL0     H35370   8.786  -0.379   5.227  0.7521  2.6011  1.2543
 1003MOL0     H35371   9.109  -0.467   5.239  1.1626  0.0086 -1.7158
 1003MOL0     H35372   9.123  -0.549   5.407  1.6557 -3.2555  0.4563
 1003MOL0     H35373   9.146  -0.760   5.285 -0.6348  0.1652  0.7464
 1003MOL0     H35374   9.135  -0.674   5.123 -2.3446  0.0134  0.3391
 1003MOL0     H35375   9.332  -0.634   5.350 -2.4408 -1.6893  1.9012
 1003MOL0     H35376   9.315  -0.527   5.213 -0.9795  0.1162  0.0301
 1003MOL0     H35377   9.380  -0.824   5.215 -0.6751  0.0200 -0.9132
 1003MOL0     H35378   9.333  -0.748   5.059  0.6996  1.1496 -0.7808
 1003MOL0     H35379   9.584  -0.783   5.092  0.3698  0.2989  0.5754
 1003MOL0     H35380   9.571  -0.703   5.242  3.6282  1.9160 -0.5397
 1003MOL0     H35381   9.502  -0.595   4.966 -3.0156 -3.9605  2.1358
 1003MOL0     H35382   9.512  -0.491   5.110  1.1548 -0.2160  0.1484
 1003MOL0     H35383   9.703  -0.456   4.974  0.9800 -0.4203 -0.3939
 1003MOL0     H35384   9.747  -0.624   4.992 -0.4699 -1.4207  2.0760
 1003MOL0     H35385   9.789  -0.609   5.220  1.6902  0.6702  1.1977
 1003MOL0     H35386   9.704  -0.450   5.230  1.2991  2.5224 -0.8302
 1003MOL0     H35387   8.955  -0.580   5.549  0.8003  1.0600 -2.3769
 1003MOL0     H35388   8.816  -0.439   5.720 -2.8867 -0.3764  1.4697
 1003MOL0     H35389   8.617  -0.038   5.782 -0.6044 -0.3920 -0.6401
 1003MOL0     H35390   8.514   0.123   5.903  1.8325 -1.6503  0.1377
 1003MOL0     H35391   7.639   1.231   5.801  0.5822 -1.7513  0.3231
 1003MOL0     H35392   7.430   1.126   5.788  1.9852 -1.3399  2.7686
 1003MOL0     H35393   7.222   0.818   5.444 -0.4839 -0.0293  0.2709
 1003MOL0     H35394   7.042   0.685   5.373  0.1954  2.2532 -0.5627
 1003MOL0     H35395   6.930   0.506   5.391 -0.9985 -0.8207  0.0462
 1003MOL0     H35396   6.840   0.389   5.499 -0.5235 -0.0594  1.4433
 1003MOL0     H35397   6.617   0.529   5.449  1.9550  1.0215  0.8237
 1003MOL0     H35398   6.666   0.433   5.302  2.4630  2.2916 -4.3911
 1003MOL0     H35399   6.731   0.717   5.354  0.6702 -0.0379 -0.3592
 1003MOL0     H35400   6.606   0.667   5.238  0.8450  0.2758 -0.1906
 1003MOL0     H35401   6.896   0.597   5.203 -0.2018 -2.4842 -1.1880
 1003MOL0     H35402   6.802   0.726   5.117 -2.7028 -1.6389 -4.0936
 1003MOL0     H35403   6.741   0.408   4.868 -3.2474  0.0430 -1.0469
 1003MOL0     H35404   6.873   0.686   5.769 -1.9931  3.0380 -1.1593
 1003MOL0     H35405   7.050   0.850   5.832  2.2816 -1.1751  0.4297
 1004MOL0     O35406   5.973  10.056   3.585 -0.7290  0.7873 -0.6980
 1004MOL0     C35407   6.024  10.080   3.701 -0.4538  0.8178  0.2968
 1004MOL0     O35408   6.075  10.201   3.746  0.5850 -0.0917 -0.6908
 1004MOL0     C35409   6.049  10.311   3.666  0.0566 -0.8681 -0.0529
 1004MOL0     C35410   6.089  10.320   3.531 -0.2989  0.2122 -0.4416
 1004MOL0     C35411   6.075  10.440   3.455 -0.2249  0.6482  0.3664
 1004MOL0     C35412   6.006  10.558   3.507 -0.2696  0.1369  0.7767
 1004MOL0     O35413   5.980  10.679   3.444  0.1209 -0.7677  0.1805
 1004MOL0     C35414   5.994  10.693   3.303 -0.0589  0.6303  0.1013
 1004MOL0     C35415   6.126  10.737   3.260  0.1259 -0.7489 -0.2315
 1004MOL0     C35416   6.118  10.742   3.104 -0.1450  0.4160  0.2204
 1004MOL0     C35417   6.191  10.867   3.046 -0.2839 -0.6961 -0.7705
 1004MOL0     C35418   6.099  10.986   3.013  0.8730 -0.0847 -0.2456
 1004MOL0     C35419   6.185  11.116   3.007 -1.4763 -0.1599  0.3995
 1004MOL0     C35420   6.114  11.248   2.987  0.1950  0.3923  0.4379
 1004MOL0     C35421   6.021  11.276   3.099  0.1093 -0.1640 -0.0310
 1004MOL0     N35422   5.990  11.425   3.109  0.3846 -0.6110 -0.6737
 1004MOL0     C35423   5.885  11.480   3.184 -0.6969  0.5259  0.1837
 1004MOL0     C35424   5.921  11.596   3.239  0.1034 -0.7877 -0.4855
 1004MOL0     C35425   5.850  11.681   3.331  0.1143  0.3011 -0.3479
 1004MOL0     C35426   5.884  11.652   3.476 -0.1695 -0.6355 -1.1105
 1004MOL0     C35427   5.824  11.520   3.530  0.3877  0.2935  0.2179
 1004MOL0     C35428   5.884  11.477   3.669  0.0314  0.4059  0.3961
 1004MOL0     O35429   5.816  11.360   3.717 -0.8449  0.0831  0.8387
 1004MOL0     C35430   5.825  11.337   3.847 -0.0083 -0.0944 -0.3688
 1004MOL0     C35431   5.735  11.244   3.898  0.6368  0.6905 -0.4157
 1004MOL0     C35432   5.740  11.192   4.028  0.3790 -0.2843  0.2937
 1004MOL0     C35433   5.661  11.067   4.054  0.4838  0.0767 -0.8154
 1004MOL0     C35434   5.835  11.246   4.107 -0.5281 -0.7145  0.4237
 1004MOL0     C35435   5.869  11.200   4.242  0.1475  0.2189  0.7130
 1004MOL0     O35436   5.940  11.290   4.325  0.7252  0.1405 -0.8147
 1004MOL0     C35437   6.013  11.248   4.436 -0.5051  1.2865 -0.2280
 1004MOL0     C35438   6.103  11.345   4.472  0.5971  0.7307  0.6089
 1004MOL0     C35439   6.192  11.307   4.577  1.0189 -0.2522  0.3855
 1004MOL0     C35440   6.192  11.182   4.639  0.2152  0.2958 -0.3748
 1004MOL0     O35441   6.279  11.155   4.735  0.5760 -0.3517 -0.4035
 1004MOL0     C35442   6.242  11.184   4.868 -0.1511 -0.5101  0.3544
 1004MOL0     C35443   6.359  11.262   4.941 -0.3134 -0.0918  1.3608
 1004MOL0     C35444   6.472  11.165   4.959 -0.7246 -0.4599 -0.1843
 1004MOL0     C35445   6.470  11.078   5.092  0.5363 -0.5185  0.2355
 1004MOL0     C35446   6.585  10.975   5.089  0.2885 -0.3609  0.1149
 1004MOL0     C35447   6.584  10.887   5.217 -0.0466  0.0693  0.6212
 1004MOL0     C35448   6.664  10.750   5.213 -0.7153 -0.8126  0.5716
 1004MOL0     C35449   6.810  10.769   5.214 -0.2035  0.5067 -0.2765
 1004MOL0    Cl35450   6.846  10.807   5.048 -0.1856  0.4623 -0.6306
 1004MOL0     C35451   6.087  11.094   4.607 -0.6367  0.4160  0.4811
 1004MOL0     C35452   5.997  11.125   4.506  0.1232  1.8890  0.5530
 1004MOL0     O35453   5.839  11.081   4.271  0.1161 -0.0747  0.3750
 1004MOL0     C35454   5.926  11.345   4.057  0.2734 -0.0124  0.1442
 1004MOL0     C35455   5.921  11.394   3.926 -0.6557 -0.6526 -0.5587
 1004MOL0     N35456   6.044  11.624   3.198  1.1795 -0.1965 -0.3380
 1004MOL0     N35457   6.082  11.528   3.110  0.3267 -0.1984 -0.9670
 1004MOL0     C35458   5.961  10.534   3.638 -0.5499  0.2853  0.3229
 1004MOL0     C35459   5.986  10.421   3.716  0.4542 -0.0800 -0.7450
 1004MOL0     C35460   6.042   9.958   3.789 -1.2396  0.3359 -0.1616
 1004MOL0     C35461   6.102   9.989   3.919 -0.1949 -0.0030 -0.0521
 1004MOL0     C35462   6.117   9.897   4.029  0.3233 -0.2267 -0.1870
 1004MOL0     C35463   6.055   9.774   4.007 -0.7827  0.9707 -0.3554
 1004MOL0     O35464   6.034   9.689   4.117  0.3574 -0.5403  0.6713
 1004MOL0     C35465   6.117   9.701   4.227 -1.0355  0.3210  0.5981
 1004MOL0     C35466   6.258   9.654   4.199 -0.2061  0.8791 -0.0746
 1004MOL0     C35467   6.320   9.620   4.337  0.4909  0.5380  0.3084
 1004MOL0     C35468   6.464   9.571   4.334 -0.3892  0.1234  0.0464
 1004MOL0     C35469   6.510   9.541   4.471 -0.1295 -0.0235  0.4447
 1004MOL0     C35470   6.555   9.486   4.572  0.7881  0.4842  0.0100
 1004MOL0     C35471   6.006   9.741   3.886  0.8725 -0.2331 -0.6153
 1004MOL0     C35472   6.004   9.827   3.770  0.2837  0.7104 -0.6293
 1004MOL0     H35473   6.135  10.227   3.497 -0.2618  0.8565 -2.2604
 1004MOL0     H35474   6.119  10.426   3.357 -0.1160 -5.1399  0.9207
 1004MOL0     H35475   5.967  10.598   3.255 -1.3349  0.4218  1.1615
 1004MOL0     H35476   5.919  10.765   3.271 -1.4427 -2.0874 -3.4280
 1004MOL0     H35477   6.161  10.834   3.298 -0.7986 -1.2266  1.9934
 1004MOL0     H35478   6.192  10.652   3.280  2.1752  0.8324  0.1035
 1004MOL0     H35479   6.181  10.662   3.063  0.2514  1.1882 -0.7179
 1004MOL0     H35480   6.016  10.728   3.066 -1.4980  0.7883  3.3596
 1004MOL0     H35481   6.282  10.897   3.100  0.0135 -1.9970 -0.5011
 1004MOL0     H35482   6.220  10.834   2.946  1.0615 -1.7299 -0.0868
 1004MOL0     H35483   6.049  10.962   2.919 -2.0080 -2.7290  1.7575
 1004MOL0     H35484   6.026  10.987   3.094  0.7211 -1.5762 -0.3335
 1004MOL0     H35485   6.256  11.129   3.089  0.9485  1.6186 -1.7846
 1004MOL0     H35486   6.258  11.106   2.926 -2.0280  0.8212 -0.2411
 1004MOL0     H35487   6.184  11.331   2.978 -1.8858  2.2264  0.5443
 1004MOL0     H35488   6.047  11.240   2.901 -0.7996  1.5644  1.0719
 1004MOL0     H35489   6.058  11.246   3.198  1.5293  3.1755  0.5944
 1004MOL0     H35490   5.927  11.221   3.093 -1.0427  0.9559  4.0321
 1004MOL0     H35491   5.786  11.436   3.190  0.0389 -1.0055  2.2443
 1004MOL0     H35492   5.875  11.785   3.308  1.0298 -0.5988 -4.1376
 1004MOL0     H35493   5.742  11.666   3.325  0.2769 -2.8332  1.7385
 1004MOL0     H35494   5.870  11.730   3.552 -0.6759 -3.3250  1.7460
 1004MOL0     H35495   5.991  11.633   3.486  0.3576  2.7636  3.1002
 1004MOL0     H35496   5.837  11.429   3.471 -1.6367  0.6470 -0.8886
 1004MOL0     H35497   5.715  11.534   3.534  0.0714 -0.2365 -3.2632
 1004MOL0     H35498   5.869  11.565   3.732 -1.1189  1.2747 -1.0150
 1004MOL0     H35499   5.990  11.450   3.658 -0.8087 -2.7190 -1.5408
 1004MOL0     H35500   5.662  11.201   3.831  0.3617  0.9784 -0.3040
 1004MOL0     H35501   5.597  11.097   4.137  3.8452  4.2186  0.6849
 1004MOL0     H35502   5.605  11.036   3.965 -0.5901 -1.1350  0.2431
 1004MOL0     H35503   5.735  10.997   4.093  0.0893 -1.2292 -2.2876
 1004MOL0     H35504   6.099  11.440   4.420 -1.5420  0.7953  0.8020
 1004MOL0     H35505   6.261  11.389   4.595 -0.1255  0.9520 -0.5133
 1004MOL0     H35506   6.155  11.250   4.880 -0.2576 -0.7206  0.7592
 1004MOL0     H35507   6.221  11.094   4.927 -1.3130  0.0510  0.8369
 1004MOL0     H35508   6.393  11.341   4.873 -1.2037 -1.0110 -0.2233
 1004MOL0     H35509   6.333  11.315   5.032 -0.4450  1.1226  0.6380
 1004MOL0     H35510   6.558  11.233   4.964  0.6045 -2.1236  1.2266
 1004MOL0     H35511   6.497  11.103   4.872  2.5240  0.2824  0.0612
 1004MOL0     H35512   6.478  11.142   5.180 -7.6644  0.4356  1.0884
 1004MOL0     H35513   6.367  11.041   5.092  1.5427 -3.5739  1.4834
 1004MOL0     H35514   6.679  11.030   5.079  0.8501 -1.1196  0.9698
 1004MOL0     H35515   6.569  10.909   5.004 -0.4849 -0.5814  0.4274
 1004MOL0     H35516   6.596  10.937   5.314 -2.7132 -2.3958  2.4055
 1004MOL0     H35517   6.477  10.862   5.220 -1.0271  3.4656 -0.6464
 1004MOL0     H35518   6.638  10.691   5.125  2.1176  1.6129 -2.1056
 1004MOL0     H35519   6.619  10.683   5.288  0.4240 -2.2800  0.0043
 1004MOL0     H35520   6.872  10.684   5.246  0.9349  1.2139 -0.5406
 1004MOL0     H35521   6.839  10.850   5.281  1.7690 -0.4114  0.0585
 1004MOL0     H35522   6.073  10.997   4.653 -0.4896 -0.7099 -1.7064
 1004MOL0     H35523   5.926  11.046   4.485  2.6010  0.1025 -2.0289
 1004MOL0     H35524   6.009  11.385   4.115  1.2653 -0.9925 -0.5566
 1004MOL0     H35525   6.003  11.456   3.892  1.5497 -2.8643  0.3780
 1004MOL0     H35526   5.904  10.612   3.687 -0.9249  0.2174  0.0055
 1004MOL0     H35527   5.968  10.400   3.821  0.4086 -2.5492 -1.1759
 1004MOL0     H35528   6.131  10.088   3.953 -0.5670 -0.0165  0.3015
 1004MOL0     H35529   6.152   9.930   4.126  3.1082 -0.0687 -1.1334
 1004MOL0     H35530   6.108   9.789   4.291  1.6316 -0.4491  2.2025
 1004MOL0     H35531   6.077   9.624   4.294  0.7518 -0.0937  1.2750
 1004MOL0     H35532   6.324   9.715   4.138 -0.7014  0.0104 -1.5253
 1004MOL0     H35533   6.253   9.571   4.127  1.7472  1.6309 -1.1576
 1004MOL0     H35534   6.253   9.547   4.382  1.3048 -2.2709 -2.7009
 1004MOL0     H35535   6.324   9.707   4.403  1.4289 -0.9721  2.3566
 1004MOL0     H35536   6.517   9.660   4.300 -0.4920  1.9868  4.1839
 1004MOL0     H35537   6.467   9.486   4.265  0.7282  0.5537 -0.4557
 1004MOL0     H35538   6.605   9.420   4.640  0.9126  1.2479  0.6825
 1004MOL0     H35539   5.944   9.654   3.904 -0.6370  1.3433  2.5034
 1004MOL0     H35540   5.950   9.798   3.681  0.6304  2.2949 -1.3811
 1005MOL0     O35541   0.349   9.489   6.355 -0.5029  0.2290  0.5892
 1005MOL0     C35542   0.322   9.612   6.364  0.4467 -0.4735  0.1986
 1005MOL0     O35543   0.352   9.690   6.470 -0.4743 -0.2240 -0.6688
 1005MOL0     C35544   0.376   9.645   6.595  0.0500  0.6371 -0.7554
 1005MOL0     C35545   0.495   9.673   6.669 -0.0450 -0.3082  0.1237
 1005MOL0     C35546   0.500   9.647   6.806  0.3470 -1.7133 -0.1327
 1005MOL0     C35547   0.398   9.570   6.868  0.1281 -0.2211 -1.1114
 1005MOL0     O35548   0.409   9.520   6.997  0.8996  0.1127  0.0201
 1005MOL0     C35549   0.472   9.591   7.105  0.6373  0.0349 -0.6123
 1005MOL0     C35550   0.396   9.575   7.233 -0.0643 -0.4888 -0.0139
 1005MOL0     C35551   0.393   9.429   7.271 -0.2527 -0.6034 -0.6763
 1005MOL0     C35552   0.313   9.412   7.398  0.2219 -0.3033  0.2526
 1005MOL0     C35553   0.379   9.413   7.539  0.4457  0.3683  0.1738
 1005MOL0     C35554   0.278   9.421   7.650 -0.1985  0.9223 -0.4670
 1005MOL0     C35555   0.180   9.304   7.664 -0.5295 -0.1419  0.1270
 1005MOL0     C35556   0.040   9.343   7.724  0.2330 -0.8210 -0.1446
 1005MOL0     N35557  -0.032   9.453   7.661  0.2063 -0.1847  0.2422
 1005MOL0     C35558  -0.061   9.580   7.706  0.5006  0.5440  0.1680
 1005MOL0     C35559  -0.171   9.623   7.622 -0.3099  0.1532  0.3927
 1005MOL0     C35560  -0.255   9.744   7.627 -0.5511  0.0865  0.5485
 1005MOL0     C35561  -0.374   9.722   7.732  0.2267 -0.6277  0.1819
 1005MOL0     C35562  -0.414   9.854   7.813 -0.9563  0.6161 -0.2434
 1005MOL0     C35563  -0.542   9.835   7.900 -0.9618 -1.1890  0.4224
 1005MOL0     O35564  -0.511   9.731   7.992 -0.6344 -0.0369 -0.4653
 1005MOL0     C35565  -0.597   9.742   8.109  0.2209 -0.6654  0.4293
 1005MOL0     C35566  -0.642   9.617   8.149 -0.4361  0.0557  0.8951
 1005MOL0     C35567  -0.742   9.603   8.252 -0.6792  0.4243  0.0473
 1005MOL0     C35568  -0.792   9.464   8.266  0.1749  0.2212 -1.4879
 1005MOL0     C35569  -0.789   9.713   8.316 -0.2609 -0.6182  0.0315
 1005MOL0     C35570  -0.875   9.709   8.433  0.8131  0.0007 -0.6509
 1005MOL0     O35571  -0.952   9.815   8.461  0.2619 -0.4358  0.2894
 1005MOL0     C35572  -1.066   9.788   8.534  0.0732 -0.6913 -0.4502
 1005MOL0     C35573  -1.174   9.706   8.492 -0.3991  1.3302  0.1268
 1005MOL0     C35574  -1.279   9.695   8.584 -0.4788 -0.3537 -0.2118
 1005MOL0     C35575  -1.283   9.754   8.707  1.0168 -0.6661 -0.6110
 1005MOL0     O35576  -1.387   9.742   8.795  0.5907  0.3760  0.0713
 1005MOL0     C35577  -1.423   9.610   8.830  0.3979 -0.0528 -0.5837
 1005MOL0     C35578  -1.462   9.592   8.979 -0.4559 -0.0190  0.0354
 1005MOL0     C35579  -1.376   9.680   9.075 -0.4221 -0.6734 -0.1980
 1005MOL0     C35580  -1.388   9.617   9.220  0.3436  0.2270  0.2442
 1005MOL0     C35581  -1.308   9.706   9.308 -0.3107 -0.5664  0.3937
 1005MOL0     C35582  -1.267   9.639   9.437  0.1333 -0.2373 -0.9056
 1005MOL0     C35583  -1.225   9.754   9.537  0.3162  0.0750  0.6057
 1005MOL0     C35584  -1.112   9.709   9.620  0.0265 -0.2931 -0.3877
 1005MOL0    Cl35585  -1.173   9.679   9.781  0.2478 -0.7628  0.0922
 1005MOL0     C35586  -1.174   9.835   8.736 -0.4164 -0.0426  0.3648
 1005MOL0     C35587  -1.064   9.852   8.654  0.5464 -0.7840  0.3692
 1005MOL0     O35588  -0.886   9.601   8.495 -0.0083  0.8180 -0.2596
 1005MOL0     C35589  -0.734   9.841   8.282  0.1247 -0.3369 -0.6509
 1005MOL0     C35590  -0.647   9.858   8.183 -0.9525  0.2656  0.0394
 1005MOL0     N35591  -0.194   9.528   7.527  0.6801  0.0777  0.0428
 1005MOL0     N35592  -0.117   9.435   7.554 -0.8723  0.4141  0.8423
 1005MOL0     C35593   0.289   9.535   6.796 -0.4860 -0.2887  0.6409
 1005MOL0     C35594   0.276   9.579   6.663  0.1245 -0.0131  0.8290
 1005MOL0     C35595   0.269   9.673   6.241 -0.1481 -0.7923  1.1461
 1005MOL0     C35596   0.253   9.601   6.121 -0.7575  0.1480 -0.3975
 1005MOL0     C35597   0.219   9.672   6.007  0.2695  0.1040 -0.2700
 1005MOL0     C35598   0.193   9.811   6.003  0.3944  0.0142  0.2278
 1005MOL0     O35599   0.163   9.884   5.887  0.2793  0.4527 -0.1540
 1005MOL0     C35600   0.053   9.980   5.891  0.3285 -0.2954  0.5689
 1005MOL0     C35601  -0.080   9.909   5.920 -0.0064 -0.2302  0.8474
 1005MOL0     C35602  -0.094   9.801   5.818 -0.5856 -0.5615  0.0533
 1005MOL0     C35603  -0.231   9.754   5.796 -0.1833  0.7646  0.3919
 1005MOL0     C35604  -0.332   9.849   5.750 -1.2330  0.5640  0.3662
 1005MOL0     C35605  -0.416   9.925   5.709  0.7686  0.2177 -0.6421
 1005MOL0     C35606   0.212   9.883   6.124 -0.0080  0.0378  0.0867
 1005MOL0     C35607   0.247   9.813   6.241 -0.5493 -1.1249  0.6366
 1005MOL0     H35608   0.575   9.718   6.612 -1.8048 -0.8773 -3.0162
 1005MOL0     H35609   0.588   9.681   6.859  1.6122  1.1905 -3.6976
 1005MOL0     H35610   0.575   9.557   7.120  0.1465 -0.6492  1.6410
 1005MOL0     H35611   0.491   9.697   7.087 -0.2225  0.2442 -0.3048
 1005MOL0     H35612   0.442   9.637   7.311  0.5701  1.4746 -1.8869
 1005MOL0     H35613   0.297   9.614   7.211  0.7973  1.9945  0.2213
 1005MOL0     H35614   0.349   9.367   7.193  2.1084 -1.4650 -1.3913
 1005MOL0     H35615   0.496   9.395   7.287  0.0973  0.6778 -0.0708
 1005MOL0     H35616   0.225   9.476   7.399  0.7434  0.4202  0.1072
 1005MOL0     H35617   0.269   9.313   7.379 -1.9263  0.7557 -0.6445
 1005MOL0     H35618   0.430   9.316   7.545 -0.4925 -0.4503 -3.1184
 1005MOL0     H35619   0.457   9.490   7.546  1.9789 -1.2664  2.6489
 1005MOL0     H35620   0.309   9.453   7.750 -1.0293 -0.5507  0.2909
 1005MOL0     H35621   0.215   9.506   7.621 -2.3066  0.6876  2.8895
 1005MOL0     H35622   0.160   9.264   7.565  3.2274 -3.5024  0.5200
 1005MOL0     H35623   0.233   9.232   7.727  0.9976  0.4144 -0.4837
 1005MOL0     H35624   0.032   9.345   7.833 -3.4942 -2.0405 -0.2386
 1005MOL0     H35625  -0.022   9.255   7.704 -0.7787 -0.5189  1.4657
 1005MOL0     H35626  -0.028   9.636   7.793 -1.4708  0.1271  1.2242
 1005MOL0     H35627  -0.203   9.827   7.675 -1.9228  1.8168 -0.7920
 1005MOL0     H35628  -0.272   9.777   7.524  4.8773 -3.4263 -1.9368
 1005MOL0     H35629  -0.352   9.641   7.801 -0.8098  0.1024  1.4135
 1005MOL0     H35630  -0.459   9.680   7.676  0.8741 -0.0007 -1.3269
 1005MOL0     H35631  -0.430   9.940   7.748 -0.3619  0.1527 -1.0237
 1005MOL0     H35632  -0.327   9.880   7.875  0.2735  2.9581 -2.7577
 1005MOL0     H35633  -0.629   9.812   7.838 -1.1895 -0.2125  0.3561
 1005MOL0     H35634  -0.566   9.935   7.938 -1.8255 -0.6552 -1.4198
 1005MOL0     H35635  -0.616   9.536   8.082 -2.0964 -1.1753  1.6573
 1005MOL0     H35636  -0.795   9.413   8.168  1.4129  2.0613 -2.5356
 1005MOL0     H35637  -0.753   9.402   8.347 -3.3984  0.8825  1.0147
 1005MOL0     H35638  -0.893   9.458   8.309  0.8598  0.3499  0.1863
 1005MOL0     H35639  -1.179   9.639   8.406  0.7896 -4.3573  3.9002
 1005MOL0     H35640  -1.363   9.632   8.557  0.2575 -0.9209 -1.3001
 1005MOL0     H35641  -1.508   9.583   8.766  1.0890 -1.5010 -0.9391
 1005MOL0     H35642  -1.342   9.540   8.809  0.8010  0.6792 -1.5051
 1005MOL0     H35643  -1.566   9.620   8.996 -0.4734 -0.5076  0.7780
 1005MOL0     H35644  -1.454   9.485   9.004 -3.2351 -0.7495 -1.6331
 1005MOL0     H35645  -1.411   9.783   9.080  2.1558  0.5573 -3.3405
 1005MOL0     H35646  -1.272   9.685   9.042 -0.6057  1.3451 -0.5713
 1005MOL0     H35647  -1.496   9.619   9.240  0.0682 -0.0844 -1.0843
 1005MOL0     H35648  -1.345   9.516   9.217 -0.2184 -0.0173  0.1250
 1005MOL0     H35649  -1.374   9.788   9.338  0.3362 -0.2693  1.0192
 1005MOL0     H35650  -1.218   9.747   9.261 -2.9885  2.2830 -2.7937
 1005MOL0     H35651  -1.343   9.580   9.490  2.5907 -0.0969  3.2802
 1005MOL0     H35652  -1.184   9.573   9.408 -0.1005 -0.6699 -0.5946
 1005MOL0     H35653  -1.313   9.783   9.594  0.0697  1.0017 -0.2134
 1005MOL0     H35654  -1.194   9.844   9.482  1.4950  0.9989  2.6487
 1005MOL0     H35655  -1.033   9.785   9.622 -0.3441  0.0952 -0.3898
 1005MOL0     H35656  -1.068   9.615   9.584  1.6989  0.3891 -0.2240
 1005MOL0     H35657  -1.165   9.885   8.832  0.2502  1.6471 -0.5496
 1005MOL0     H35658  -0.979   9.915   8.678 -0.6820  0.5235  1.5077
 1005MOL0     H35659  -0.771   9.925   8.340  2.2337  0.2045 -0.0012
 1005MOL0     H35660  -0.630   9.960   8.149  0.5502 -0.6697 -2.2860
 1005MOL0     H35661   0.200   9.481   6.828 -3.3793  2.0989 -2.5440
 1005MOL0     H35662   0.186   9.555   6.608  0.5690 -0.8943  0.4713
 1005MOL0     H35663   0.289   9.498   6.120 -2.2819 -0.4407  0.9230
 1005MOL0     H35664   0.215   9.617   5.914 -1.9027 -1.0376  0.4300
 1005MOL0     H35665   0.067  10.053   5.972 -1.0159  1.4544 -0.6864
 1005MOL0     H35666   0.047  10.020   5.789 -1.9721 -3.6735 -0.7834
 1005MOL0     H35667  -0.163   9.979   5.908 -0.2978 -0.8772 -1.5018
 1005MOL0     H35668  -0.079   9.871   6.023  1.8876  1.9368  1.7030
 1005MOL0     H35669  -0.049   9.708   5.856  0.0649 -0.4627 -0.4544
 1005MOL0     H35670  -0.041   9.831   5.728  0.0973 -0.7893  0.3704
 1005MOL0     H35671  -0.275   9.722   5.891 -0.9672 -1.6916 -0.7156
 1005MOL0     H35672  -0.248   9.664   5.737 -3.6475  1.8860 -0.5685
 1005MOL0     H35673  -0.499   9.987   5.681 -0.2730 -0.3510  1.0425
 1005MOL0     H35674   0.208   9.991   6.112 -2.0602  0.0190  0.2667
 1005MOL0     H35675   0.272   9.878   6.324 -1.0308  0.7956 -0.6622
 1006MOL0     O35676   0.732  10.300   3.410  0.1231  0.1112 -0.3258
 1006MOL0     C35677   0.752  10.411   3.377 -0.3990 -0.9535 -0.3755
 1006MOL0     O35678   0.821  10.451   3.262  0.8794 -0.1112 -0.5870
 1006MOL0     C35679   0.825  10.361   3.163  0.6246  0.0128  1.0861
 1006MOL0     C35680   0.714  10.300   3.090 -0.6992 -0.3043 -0.2261
 1006MOL0     C35681   0.741  10.213   2.995 -0.4829  1.3160  0.0914
 1006MOL0     C35682   0.866  10.161   2.968  0.3853 -0.7292  0.1070
 1006MOL0     O35683   0.879  10.043   2.892  0.0547  0.2964  0.6753
 1006MOL0     C35684   0.779   9.938   2.899  0.4574  0.1364 -0.3385
 1006MOL0     C35685   0.798   9.841   2.779  0.8986  0.6952  0.3814
 1006MOL0     C35686   0.921   9.753   2.798  0.5309  0.3294  0.1352
 1006MOL0     C35687   0.879   9.628   2.890  0.1360 -0.1216 -0.2076
 1006MOL0     C35688   0.998   9.528   2.904  0.1220 -0.6158  0.3022
 1006MOL0     C35689   0.951   9.421   3.010  0.1139  0.5875 -0.9339
 1006MOL0     C35690   0.871   9.312   2.933  0.5802 -0.5513 -0.0179
 1006MOL0     C35691   0.726   9.301   2.997  0.9076  0.2621 -0.4981
 1006MOL0     N35692   0.643   9.419   2.986 -1.3183 -1.1123  0.3611
 1006MOL0     C35693   0.557   9.454   2.885  0.2822  0.4661  0.5659
 1006MOL0     C35694   0.481   9.559   2.912  0.0783  0.2753 -0.5398
 1006MOL0     C35695   0.372   9.617   2.824 -0.9364 -0.0036 -0.4623
 1006MOL0     C35696   0.286   9.514   2.751  0.2064 -0.2738  0.1044
 1006MOL0     C35697   0.177   9.592   2.669 -0.1150  0.2526 -0.5129
 1006MOL0     C35698   0.049   9.616   2.754  0.0480 -0.3339  0.1521
 1006MOL0     O35699   0.003   9.500   2.822 -0.1249 -0.7517  0.6845
 1006MOL0     C35700  -0.050   9.402   2.749  1.1534 -0.4950  0.5684
 1006MOL0     C35701  -0.184   9.411   2.702 -0.4048 -0.4241 -0.4890
 1006MOL0     C35702  -0.239   9.332   2.615 -0.6035  0.6896  0.7177
 1006MOL0     C35703  -0.382   9.361   2.580  0.4517 -0.3165  0.2502
 1006MOL0     C35704  -0.166   9.219   2.564 -0.6234 -0.3526  0.2335
 1006MOL0     C35705  -0.204   9.117   2.474 -1.3534  0.3746 -0.6999
 1006MOL0     O35706  -0.335   9.106   2.445 -0.1269  0.1400 -0.4180
 1006MOL0     C35707  -0.389   9.006   2.365  0.7880  0.2208  0.4537
 1006MOL0     C35708  -0.333   8.891   2.312  0.5509 -0.1349  0.8838
 1006MOL0     C35709  -0.414   8.820   2.217  0.1996 -0.2325 -0.1751
 1006MOL0     C35710  -0.550   8.840   2.201  0.7913 -0.7997  0.4400
 1006MOL0     O35711  -0.612   8.752   2.122  0.3515 -0.0848 -0.5771
 1006MOL0     C35712  -0.722   8.803   2.041  0.1332 -0.4135 -0.5797
 1006MOL0     C35713  -0.787   8.691   1.948 -0.0690  0.3519  0.2221
 1006MOL0     C35714  -0.700   8.674   1.818  0.0237 -0.7277  0.3029
 1006MOL0     C35715  -0.556   8.650   1.864 -0.0399 -0.5536 -0.4324
 1006MOL0     C35716  -0.499   8.557   1.753  0.5110  0.9049 -0.0299
 1006MOL0     C35717  -0.351   8.534   1.780  1.0234 -0.0461  0.2102
 1006MOL0     C35718  -0.300   8.408   1.693 -0.3094 -0.4732  0.3753
 1006MOL0     C35719  -0.363   8.277   1.712 -0.4210 -0.6672 -1.0212
 1006MOL0    Cl35720  -0.247   8.148   1.655 -0.0299  0.2372  0.3803
 1006MOL0     C35721  -0.607   8.955   2.255 -0.6049 -0.7507 -0.9394
 1006MOL0     C35722  -0.529   9.034   2.341  0.1106 -0.9379 -0.2335
 1006MOL0     O35723  -0.113   9.047   2.424 -0.0316 -0.1618  0.4681
 1006MOL0     C35724  -0.029   9.200   2.617 -1.1945  0.2772  0.0053
 1006MOL0     C35725   0.028   9.293   2.698 -0.6051 -0.6834  0.1030
 1006MOL0     N35726   0.519   9.604   3.037 -0.0809 -0.1325  0.5162
 1006MOL0     N35727   0.606   9.518   3.080  0.2971  0.8069  0.1216
 1006MOL0     C35728   0.976  10.229   3.032  1.0182  0.1573  0.4130
 1006MOL0     C35729   0.955  10.324   3.136 -0.5318  0.3747 -0.2693
 1006MOL0     C35730   0.692  10.505   3.464  0.0791  0.1208 -0.8612
 1006MOL0     C35731   0.658  10.628   3.414 -0.4005 -0.4553 -0.1516
 1006MOL0     C35732   0.631  10.735   3.496 -0.3749 -1.2731 -0.8025
 1006MOL0     C35733   0.612  10.707   3.629  0.8409 -0.3022 -0.4989
 1006MOL0     O35734   0.570  10.812   3.711  0.1008  0.0247  0.2787
 1006MOL0     C35735   0.613  10.824   3.845  1.2442  0.0548 -0.2526
 1006MOL0     C35736   0.502  10.756   3.937 -0.8125 -0.2417 -0.6659
 1006MOL0     C35737   0.375  10.854   3.971 -0.9805  0.1703  0.0017
 1006MOL0     C35738   0.419  10.982   4.052 -0.4455 -0.1963  0.6864
 1006MOL0     C35739   0.299  11.057   4.091 -0.4530  0.3807 -0.9531
 1006MOL0     C35740   0.207  11.121   4.142 -0.8613  1.2270 -1.0363
 1006MOL0     C35741   0.642  10.586   3.686 -0.1334 -0.7331  0.2178
 1006MOL0     C35742   0.681  10.485   3.605 -0.0364  0.7358  0.1102
 1006MOL0     H35743   0.617  10.342   3.116 -0.3848  1.2716 -1.3917
 1006MOL0     H35744   0.653  10.162   2.957 -0.9888 -0.0996  2.8886
 1006MOL0     H35745   0.779   9.889   2.997 -1.4253 -1.6787 -1.1679
 1006MOL0     H35746   0.675   9.968   2.890 -0.3649 -2.2173  0.5706
 1006MOL0     H35747   0.706   9.782   2.773  0.5162  1.0650  2.1978
 1006MOL0     H35748   0.803   9.896   2.685  1.0452 -3.5539 -2.3781
 1006MOL0     H35749   0.972   9.719   2.708  0.1699  1.1465 -0.3938
 1006MOL0     H35750   0.990   9.807   2.863 -2.0221  0.6755  2.8235
 1006MOL0     H35751   0.855   9.670   2.988 -0.3694  0.8851 -0.7468
 1006MOL0     H35752   0.790   9.575   2.853  1.3439 -2.6497  0.3073
 1006MOL0     H35753   1.021   9.468   2.815  3.7587 -0.9446  1.3150
 1006MOL0     H35754   1.085   9.585   2.937 -0.7826  2.0702 -1.5548
 1006MOL0     H35755   1.036   9.371   3.056 -1.1714 -0.2870  0.6191
 1006MOL0     H35756   0.898   9.465   3.095  1.0922 -2.1835  1.2554
 1006MOL0     H35757   0.857   9.340   2.828 -3.0136  0.3081  0.5834
 1006MOL0     H35758   0.930   9.220   2.931 -0.8391 -1.4751 -0.5569
 1006MOL0     H35759   0.746   9.281   3.103  1.2316 -1.2051 -0.8060
 1006MOL0     H35760   0.666   9.215   2.966 -0.7572  1.1940  0.0056
 1006MOL0     H35761   0.540   9.394   2.797  2.8570  0.4826 -0.0315
 1006MOL0     H35762   0.305   9.674   2.889 -0.6458 -0.4298  0.2273
 1006MOL0     H35763   0.426   9.679   2.752  1.6666 -0.9449  0.5755
 1006MOL0     H35764   0.249   9.449   2.830  0.9202  0.4596  1.0527
 1006MOL0     H35765   0.354   9.460   2.685  0.2515  0.0677 -0.1327
 1006MOL0     H35766   0.145   9.527   2.588 -3.6921  0.2032  0.7762
 1006MOL0     H35767   0.208   9.690   2.632 -1.4546  1.0224  0.3298
 1006MOL0     H35768  -0.036   9.642   2.690 -0.5281 -1.5219  0.4170
 1006MOL0     H35769   0.062   9.699   2.825  1.7313  0.9417 -1.5139
 1006MOL0     H35770  -0.237   9.501   2.732  0.9244  0.6335 -1.2296
 1006MOL0     H35771  -0.413   9.464   2.600 -1.4280 -0.7683 -0.1418
 1006MOL0     H35772  -0.400   9.341   2.474  5.1044  2.1410 -1.2752
 1006MOL0     H35773  -0.450   9.294   2.633  0.0655 -1.7869 -1.9939
 1006MOL0     H35774  -0.235   8.851   2.339  0.6514  0.7021  1.8458
 1006MOL0     H35775  -0.367   8.738   2.164 -2.1298 -2.6255  1.2262
 1006MOL0     H35776  -0.800   8.834   2.112  0.4176 -2.3583  0.6865
 1006MOL0     H35777  -0.696   8.886   1.976  1.5332  0.8392  1.4628
 1006MOL0     H35778  -0.798   8.592   1.993 -1.8318 -0.1687 -1.1979
 1006MOL0     H35779  -0.889   8.720   1.923  0.4130  1.1222 -0.9564
 1006MOL0     H35780  -0.698   8.772   1.770  1.6201  0.3847  2.4593
 1006MOL0     H35781  -0.742   8.603   1.747  0.5911 -1.1739  0.4062
 1006MOL0     H35782  -0.495   8.738   1.885  1.2654 -1.5333  0.0461
 1006MOL0     H35783  -0.548   8.589   1.955  0.5852  1.2782  0.8015
 1006MOL0     H35784  -0.508   8.594   1.651 -1.9457 -0.8788 -0.5388
 1006MOL0     H35785  -0.565   8.471   1.748 -0.8279  1.9853 -3.4556
 1006MOL0     H35786  -0.287   8.616   1.746  0.2847 -0.2167 -1.7449
 1006MOL0     H35787  -0.326   8.520   1.885 -1.4575  0.1946  0.8930
 1006MOL0     H35788  -0.194   8.412   1.721 -0.3165 -1.8154  0.6849
 1006MOL0     H35789  -0.308   8.426   1.585 -0.0821 -2.6118 -0.0485
 1006MOL0     H35790  -0.460   8.282   1.661 -0.4957 -2.4792 -1.1077
 1006MOL0     H35791  -0.384   8.271   1.820  0.2284  2.7003 -0.6004
 1006MOL0     H35792  -0.714   8.973   2.260 -0.5142 -0.5846  1.5993
 1006MOL0     H35793  -0.583   9.116   2.388 -1.8287 -2.2566 -0.0370
 1006MOL0     H35794   0.018   9.103   2.614 -2.1464 -0.1976  0.2152
 1006MOL0     H35795   0.127   9.278   2.739 -1.4107 -1.1199  1.9596
 1006MOL0     H35796   1.073  10.190   3.003  0.1908 -1.0405 -0.8961
 1006MOL0     H35797   1.034  10.358   3.202 -0.5556  0.1187 -0.1071
 1006MOL0     H35798   0.653  10.643   3.306 -4.4187  0.4989 -0.0099
 1006MOL0     H35799   0.620  10.836   3.456 -4.0839 -1.6546 -1.1139
 1006MOL0     H35800   0.701  10.759   3.851  0.9399 -0.9846 -4.1951
 1006MOL0     H35801   0.638  10.924   3.882  0.3558  0.4689 -0.7137
 1006MOL0     H35802   0.547  10.731   4.034 -0.9592  2.5783  0.2253
 1006MOL0     H35803   0.465  10.665   3.889 -4.4907  0.3882  0.6437
 1006MOL0     H35804   0.301  10.799   4.029 -2.4667  1.1668 -0.8824
 1006MOL0     H35805   0.326  10.883   3.877 -2.7067  2.1215  1.4262
 1006MOL0     H35806   0.486  11.047   3.995 -1.1531 -0.9327 -1.0570
 1006MOL0     H35807   0.476  10.951   4.139 -0.0404  0.6660  0.7329
 1006MOL0     H35808   0.128  11.151   4.208  1.3808 -0.4766  2.7591
 1006MOL0     H35809   0.631  10.568   3.793  2.6602 -0.9432  0.5445
 1006MOL0     H35810   0.698  10.388   3.650 -1.3212  1.3086  1.9357
 1007MOL0     O35811   0.908   1.595   5.048 -0.5742 -0.0503  0.2044
 1007MOL0     C35812   0.996   1.675   5.064 -0.3653 -0.0946 -0.1397
 1007MOL0     O35813   1.040   1.760   4.970 -0.5969 -0.4357 -0.2895
 1007MOL0     C35814   0.995   1.755   4.842 -0.6543 -0.5995 -0.7547
 1007MOL0     C35815   1.006   1.871   4.761 -0.3223  0.1611 -0.2860
 1007MOL0     C35816   0.989   1.876   4.621 -0.5936  0.5004  0.5491
 1007MOL0     C35817   0.936   1.762   4.551  0.0883  0.4577 -0.9771
 1007MOL0     O35818   0.894   1.753   4.424 -0.2727  0.6152  0.0463
 1007MOL0     C35819   0.878   1.879   4.353 -0.3521  1.0649 -0.1535
 1007MOL0     C35820   0.789   1.848   4.228  0.7267 -0.5801  0.6325
 1007MOL0     C35821   0.840   1.736   4.130 -0.3900  0.0138  0.1618
 1007MOL0     C35822   0.753   1.763   4.000 -0.3133 -0.4795  0.8865
 1007MOL0     C35823   0.776   1.651   3.896 -0.5033 -0.0790 -0.0683
 1007MOL0     C35824   0.917   1.660   3.832  0.4714  0.3996 -0.5946
 1007MOL0     C35825   0.958   1.590   3.696 -0.3821  0.2149  0.4360
 1007MOL0     C35826   0.874   1.649   3.578 -0.3317 -0.4189  0.3645
 1007MOL0     N35827   0.884   1.563   3.455 -0.3337 -0.6796 -0.0930
 1007MOL0     C35828   0.791   1.488   3.389  0.0375 -0.4206 -0.0190
 1007MOL0     C35829   0.863   1.438   3.282  0.3319  0.5111 -0.2583
 1007MOL0     C35830   0.820   1.349   3.170 -0.3677 -0.3498 -0.0591
 1007MOL0     C35831   0.942   1.272   3.108  0.4273 -0.4824  1.0309
 1007MOL0     C35832   0.942   1.303   2.961 -0.1422  0.2047  0.3809
 1007MOL0     C35833   1.010   1.214   2.858  0.1811 -0.7038 -0.2074
 1007MOL0     O35834   0.919   1.104   2.843  0.2068  0.7037 -1.0563
 1007MOL0     C35835   0.906   1.035   2.720 -1.0281 -0.6286  0.0244
 1007MOL0     C35836   0.816   0.937   2.717  0.2746  0.1174 -0.1922
 1007MOL0     C35837   0.785   0.856   2.604  0.2069 -0.1551 -0.9797
 1007MOL0     C35838   0.680   0.746   2.626 -0.4967 -0.4655  0.4130
 1007MOL0     C35839   0.863   0.869   2.485  0.7627  0.1813 -1.0548
 1007MOL0     C35840   0.840   0.779   2.364  0.1569 -0.0830 -0.4704
 1007MOL0     O35841   0.715   0.742   2.336  0.6055 -0.1913 -0.0706
 1007MOL0     C35842   0.666   0.656   2.241  0.1028  0.2493  0.1863
 1007MOL0     C35843   0.533   0.602   2.259 -0.2073 -0.4656 -0.7496
 1007MOL0     C35844   0.483   0.496   2.191  0.7180  0.2710  0.2906
 1007MOL0     C35845   0.549   0.454   2.082 -1.0502  0.5479 -0.4424
 1007MOL0     O35846   0.475   0.365   2.010 -0.7308  0.3751  0.1819
 1007MOL0     C35847   0.501   0.314   1.874 -0.5273 -0.4923  0.9898
 1007MOL0     C35848   0.421   0.405   1.770 -0.3568  0.8670 -0.1057
 1007MOL0     C35849   0.274   0.386   1.775  0.1185  0.2772 -0.1052
 1007MOL0     C35850   0.198   0.419   1.645 -0.0343 -0.5672  0.2400
 1007MOL0     C35851   0.168   0.573   1.627 -0.2009 -0.3270  0.2507
 1007MOL0     C35852   0.145   0.620   1.477 -0.4139  0.5289 -0.0611
 1007MOL0     C35853   0.154   0.774   1.462  0.5594 -0.8694 -0.1577
 1007MOL0     C35854   0.017   0.836   1.497 -0.2774 -0.4316  0.1060
 1007MOL0    Cl35855   0.033   1.010   1.527  0.1621 -0.1787 -0.0290
 1007MOL0     C35856   0.682   0.497   2.058 -0.4382  0.3687  1.5837
 1007MOL0     C35857   0.744   0.604   2.140 -0.0357  0.0150 -0.5534
 1007MOL0     O35858   0.937   0.767   2.295 -0.0684 -0.1119  0.2490
 1007MOL0     C35859   0.960   0.966   2.486  0.3709 -0.3935  0.0672
 1007MOL0     C35860   0.981   1.052   2.601 -0.5391 -0.4406 -0.3278
 1007MOL0     N35861   0.995   1.485   3.292  0.8216 -0.2527 -0.9795
 1007MOL0     N35862   1.001   1.559   3.394 -0.3269  0.8521  0.3651
 1007MOL0     C35863   0.918   1.643   4.627  0.1999  0.8178 -0.4870
 1007MOL0     C35864   0.955   1.640   4.764  0.3007  0.3881  0.1163
 1007MOL0     C35865   1.070   1.687   5.197  0.2922 -1.0269  0.4719
 1007MOL0     C35866   1.205   1.723   5.206  0.3220  1.0189  0.4155
 1007MOL0     C35867   1.271   1.723   5.329 -0.1757  0.5514 -0.0873
 1007MOL0     C35868   1.204   1.700   5.447 -0.3618  0.3864  0.0959
 1007MOL0     O35869   1.263   1.707   5.576  0.4041 -0.4467  0.5555
 1007MOL0     C35870   1.396   1.671   5.610 -0.1427  0.4798 -0.0391
 1007MOL0     C35871   1.439   1.740   5.737 -0.6715 -0.3380 -1.0088
 1007MOL0     C35872   1.564   1.667   5.803 -0.0710  0.7684 -0.1728
 1007MOL0     C35873   1.615   1.743   5.930 -1.1068 -0.1399 -0.8800
 1007MOL0     C35874   1.735   1.676   5.985  0.1670  0.3003  0.1652
 1007MOL0     C35875   1.840   1.636   6.031 -0.3877 -0.8489  0.2775
 1007MOL0     C35876   1.069   1.662   5.441  0.3842  0.2728  1.0060
 1007MOL0     C35877   1.003   1.661   5.311  0.4716 -1.3223 -0.5369
 1007MOL0     H35878   1.041   1.955   4.820  0.4998  0.6744 -1.4514
 1007MOL0     H35879   1.011   1.969   4.569  0.7079  2.0375  3.5394
 1007MOL0     H35880   0.824   1.951   4.415 -3.1120 -2.7190  2.3075
 1007MOL0     H35881   0.971   1.915   4.309 -0.3519 -0.8189 -1.8217
 1007MOL0     H35882   0.686   1.829   4.261 -0.6948  1.0548 -2.5214
 1007MOL0     H35883   0.777   1.941   4.173 -0.9859 -1.9262 -1.4282
 1007MOL0     H35884   0.947   1.745   4.108 -0.6245  1.5299 -0.5275
 1007MOL0     H35885   0.821   1.644   4.186 -0.9904 -0.4908 -0.8590
 1007MOL0     H35886   0.646   1.752   4.023 -0.3270 -0.8019  0.6663
 1007MOL0     H35887   0.778   1.865   3.969 -1.0221  0.5135  3.3268
 1007MOL0     H35888   0.771   1.554   3.946  3.6601  0.5993  2.1403
 1007MOL0     H35889   0.690   1.650   3.829  0.6112 -0.2757 -1.5788
 1007MOL0     H35890   0.924   1.766   3.804 -1.9186  0.7930  0.0912
 1007MOL0     H35891   0.988   1.637   3.912 -0.2705 -2.8011 -0.7379
 1007MOL0     H35892   1.066   1.604   3.684 -0.5780  1.3931 -0.0858
 1007MOL0     H35893   0.946   1.483   3.715 -1.8870 -0.1436 -2.0787
 1007MOL0     H35894   0.902   1.755   3.567 -0.6224 -0.0509  2.6535
 1007MOL0     H35895   0.771   1.639   3.615 -0.4117  0.6603  0.4708
 1007MOL0     H35896   0.687   1.480   3.419 -0.5702  0.3986 -1.8099
 1007MOL0     H35897   0.741   1.282   3.205 -1.3543  0.3106 -0.9397
 1007MOL0     H35898   0.769   1.416   3.100 -1.1573 -0.0568  0.7655
 1007MOL0     H35899   0.925   1.166   3.128  1.8506 -0.8117  0.6247
 1007MOL0     H35900   1.039   1.301   3.150  0.0392  2.7489 -0.0907
 1007MOL0     H35901   0.990   1.401   2.962 -1.2288  0.7493  1.6431
 1007MOL0     H35902   0.839   1.309   2.923 -0.0394 -0.2320  0.0156
 1007MOL0     H35903   1.111   1.177   2.877 -0.0963 -1.8942 -0.9894
 1007MOL0     H35904   1.029   1.268   2.765  3.7199 -0.3792  0.5434
 1007MOL0     H35905   0.755   0.926   2.806 -1.2081 -1.1842 -1.3195
 1007MOL0     H35906   0.721   0.645   2.625 -0.1274 -0.3116 -0.1306
 1007MOL0     H35907   0.640   0.751   2.728 -2.9181 -1.4597 -0.4179
 1007MOL0     H35908   0.601   0.748   2.551 -1.2003  0.2804  1.1394
 1007MOL0     H35909   0.474   0.623   2.348 -0.3486 -1.1847 -0.6722
 1007MOL0     H35910   0.387   0.463   2.231  0.5136 -0.4627 -0.7810
 1007MOL0     H35911   0.599   0.337   1.831 -1.7413  0.1514 -1.6590
 1007MOL0     H35912   0.469   0.210   1.871 -1.4230 -0.2066 -1.4108
 1007MOL0     H35913   0.446   0.511   1.784 -1.8208  0.9502  2.3414
 1007MOL0     H35914   0.459   0.376   1.672  2.3990  0.0826  1.0997
 1007MOL0     H35915   0.235   0.453   1.853  0.3552 -0.0250  0.2758
 1007MOL0     H35916   0.269   0.280   1.798  1.1387  0.1580 -0.3636
 1007MOL0     H35917   0.254   0.376   1.562 -1.1181 -0.2783 -0.6709
 1007MOL0     H35918   0.100   0.369   1.648  1.3519 -3.6727  4.2226
 1007MOL0     H35919   0.246   0.640   1.665  0.9915  2.3846 -5.7973
 1007MOL0     H35920   0.084   0.598   1.692 -0.6677 -2.6438  0.6326
 1007MOL0     H35921   0.217   0.573   1.410 -0.2260  1.2370 -0.3671
 1007MOL0     H35922   0.046   0.580   1.454 -0.3929  0.2796  0.2738
 1007MOL0     H35923   0.176   0.807   1.360 -0.4635  3.9943  0.9402
 1007MOL0     H35924   0.238   0.817   1.517  0.8831  0.7648 -1.8240
 1007MOL0     H35925  -0.039   0.782   1.574 -0.8661  0.7085  0.4995
 1007MOL0     H35926  -0.035   0.825   1.401 -3.0192  0.4964  1.3599
 1007MOL0     H35927   0.730   0.430   1.987  0.5376  2.3316  0.3122
 1007MOL0     H35928   0.847   0.628   2.116 -0.0801  1.4287  0.5406
 1007MOL0     H35929   1.031   0.980   2.405  1.1487  2.5157  1.1491
 1007MOL0     H35930   1.066   1.119   2.610 -1.1904  0.3098  0.2748
 1007MOL0     H35931   0.873   1.559   4.575  0.3531  0.7344 -0.4848
 1007MOL0     H35932   0.951   1.540   4.808  3.3195 -0.8064 -1.9919
 1007MOL0     H35933   1.276   1.736   5.125  0.5691 -2.4633 -0.0857
 1007MOL0     H35934   1.377   1.746   5.320 -0.3934  0.9952 -1.9714
 1007MOL0     H35935   1.393   1.564   5.636 -0.6340  0.0656 -1.6845
 1007MOL0     H35936   1.466   1.681   5.526 -1.1404  2.3270 -0.7047
 1007MOL0     H35937   1.359   1.749   5.810 -0.6876 -1.8227 -0.8237
 1007MOL0     H35938   1.477   1.838   5.706  0.9135 -0.9419 -1.0657
 1007MOL0     H35939   1.638   1.656   5.723  1.7370 -4.6592  1.8039
 1007MOL0     H35940   1.529   1.572   5.845  0.2109  1.2704  1.2403
 1007MOL0     H35941   1.540   1.751   6.009  0.8529  1.2211  0.9808
 1007MOL0     H35942   1.645   1.846   5.905  1.0842 -0.1654  1.2746
 1007MOL0     H35943   1.931   1.613   6.083 -0.6552 -0.2572  1.0156
 1007MOL0     H35944   1.007   1.651   5.530 -0.6449 -1.5957  0.1170
 1007MOL0     H35945   0.896   1.649   5.302  0.5944 -3.7982  0.6627
 1008MOL0     O35946   4.126   0.294  10.521 -0.5795  0.1697 -0.0023
 1008MOL0     C35947   4.046   0.366  10.582 -0.3281 -0.0471  0.0469
 1008MOL0     O35948   3.931   0.416  10.528  0.4178  0.1831 -0.0116
 1008MOL0     C35949   3.890   0.383  10.394  0.4035  0.5216 -0.7282
 1008MOL0     C35950   3.824   0.471  10.314 -1.0515 -0.6625 -0.2635
 1008MOL0     C35951   3.765   0.435  10.195 -0.6915  0.2148  0.1794
 1008MOL0     C35952   3.772   0.306  10.146  0.2272  0.1229  0.6298
 1008MOL0     O35953   3.732   0.255  10.031 -0.3919 -0.1281 -0.7489
 1008MOL0     C35954   3.651   0.343   9.946  0.5273  0.6126 -0.2052
 1008MOL0     C35955   3.605   0.285   9.816  0.4959  0.5826  0.7363
 1008MOL0     C35956   3.720   0.284   9.714  0.4074 -0.6944  0.2996
 1008MOL0     C35957   3.850   0.240   9.770 -0.6348  0.4012 -0.4292
 1008MOL0     C35958   3.856   0.088   9.789 -0.0971 -0.8498  0.5920
 1008MOL0     C35959   3.986   0.060   9.857 -0.7655  0.2760 -0.0125
 1008MOL0     C35960   4.036  -0.083   9.833  0.1483  0.4037 -0.9746
 1008MOL0     C35961   4.079  -0.123   9.691  0.2788  0.6238 -0.0568
 1008MOL0     N35962   4.201  -0.053   9.653 -0.1967  0.8969  0.4297
 1008MOL0     C35963   4.324  -0.049   9.710  0.9725  0.3666 -0.2933
 1008MOL0     C35964   4.406   0.032   9.633 -0.0278 -0.2919 -0.4565
 1008MOL0     C35965   4.551   0.070   9.655 -0.7455 -0.4612 -0.0980
 1008MOL0     C35966   4.621  -0.035   9.735  0.5490  0.0200  0.6788
 1008MOL0     C35967   4.764  -0.010   9.746 -0.5756 -0.4130 -0.5119
 1008MOL0     C35968   4.834  -0.101   9.847 -0.2626 -0.5316  0.5409
 1008MOL0     O35969   4.798  -0.061   9.981  0.2448 -0.1052 -0.3583
 1008MOL0     C35970   4.712  -0.128  10.072 -0.1385 -0.1305  0.4078
 1008MOL0     C35971   4.634  -0.245  10.054  0.0668 -0.2676 -0.2214
 1008MOL0     C35972   4.558  -0.287  10.168  0.7518 -0.7067  0.7035
 1008MOL0     C35973   4.452  -0.394  10.156  0.5295 -0.2644  0.1092
 1008MOL0     C35974   4.570  -0.224  10.302  0.1461  0.3123  0.0216
 1008MOL0     C35975   4.507  -0.262  10.423 -1.0597 -1.0922  0.3141
 1008MOL0     O35976   4.525  -0.387  10.457  0.0746  0.8641  0.3965
 1008MOL0     C35977   4.491  -0.434  10.581 -0.2830  0.9521 -0.2224
 1008MOL0     C35978   4.572  -0.541  10.632 -0.5634 -0.2708  0.0750
 1008MOL0     C35979   4.562  -0.587  10.760  1.3424  0.9056  0.0856
 1008MOL0     C35980   4.459  -0.551  10.842  0.9627 -0.6059 -0.0026
 1008MOL0     O35981   4.447  -0.590  10.971 -0.8915 -0.0733 -0.2568
 1008MOL0     C35982   4.569  -0.566  11.055  0.3133 -0.0504 -0.2472
 1008MOL0     C35983   4.522  -0.579  11.202  0.9954 -0.5447  0.0062
 1008MOL0     C35984   4.477  -0.721  11.241  0.5424 -1.0560 -0.9329
 1008MOL0     C35985   4.581  -0.826  11.220 -0.2526 -0.0327  1.4447
 1008MOL0     C35986   4.526  -0.959  11.260 -1.3077 -0.1533  0.2091
 1008MOL0     C35987   4.648  -1.045  11.321  0.1134 -0.4366 -0.4649
 1008MOL0     C35988   4.776  -1.047  11.229 -0.4068 -0.8194 -0.4004
 1008MOL0     C35989   4.845  -1.181  11.247 -0.3304  0.3432  0.1380
 1008MOL0    Cl35990   4.784  -1.286  11.390  0.8281  0.1945  0.0480
 1008MOL0     C35991   4.368  -0.460  10.794 -0.2223 -0.1576 -0.1051
 1008MOL0     C35992   4.382  -0.398  10.670 -0.8097 -0.5910  0.4545
 1008MOL0     O35993   4.468  -0.173  10.495  0.0871 -0.1018 -0.4985
 1008MOL0     C35994   4.655  -0.114  10.303  0.0860 -0.5412  0.4500
 1008MOL0     C35995   4.724  -0.061  10.193 -0.4901 -0.1923  0.5122
 1008MOL0     N35996   4.324   0.080   9.532  0.4060  0.3484 -0.7214
 1008MOL0     N35997   4.209   0.025   9.543 -0.0477  0.4872 -1.0564
 1008MOL0     C35998   3.834   0.213  10.231  0.7102 -0.1778  1.1225
 1008MOL0     C35999   3.880   0.249  10.354 -0.4718  0.8850  0.0536
 1008MOL0     C36000   4.070   0.396  10.716  0.2724 -0.8256 -1.0554
 1008MOL0     C36001   4.201   0.400  10.775 -0.7198 -0.5389  0.3285
 1008MOL0     C36002   4.219   0.439  10.910 -0.3131  0.2325  0.0335
 1008MOL0     C36003   4.109   0.483  10.989  0.2041 -0.0243  0.1678
 1008MOL0     O36004   4.131   0.508  11.120 -0.6374 -0.7625 -0.4567
 1008MOL0     C36005   4.230   0.613  11.128 -1.1149 -0.1360 -0.1611
 1008MOL0     C36006   4.178   0.755  11.072 -0.4236  0.6332  0.6014
 1008MOL0     C36007   4.261   0.879  11.113 -0.4203  0.3385  0.2666
 1008MOL0     C36008   4.213   1.018  11.065 -0.2792  0.2177 -0.2541
 1008MOL0     C36009   4.210   1.038  10.920 -0.2653  0.2840 -0.2033
 1008MOL0     C36010   4.210   1.064  10.800  0.1769  1.0131  0.4877
 1008MOL0     C36011   3.979   0.475  10.936  0.1330 -0.6690 -0.0280
 1008MOL0     C36012   3.959   0.430  10.805 -0.5010  0.0086  0.1157
 1008MOL0     H36013   3.814   0.572  10.354  1.2535  0.6138 -2.6275
 1008MOL0     H36014   3.745   0.517  10.127  1.4806 -0.2291 -1.0590
 1008MOL0     H36015   3.566   0.380  10.004  0.9188 -0.8868  1.3853
 1008MOL0     H36016   3.711   0.429   9.913  0.6362  0.2220 -1.0449
 1008MOL0     H36017   3.559   0.186   9.813  3.6327 -1.0111 -1.3737
 1008MOL0     H36018   3.528   0.358   9.791  0.2480 -0.0293 -0.3584
 1008MOL0     H36019   3.691   0.216   9.633  0.8559  2.4180 -2.7199
 1008MOL0     H36020   3.743   0.382   9.671  4.5714 -1.5976  0.1137
 1008MOL0     H36021   3.931   0.275   9.705  0.2018  1.1251  0.9327
 1008MOL0     H36022   3.881   0.292   9.862 -2.9860 -0.2884  0.8316
 1008MOL0     H36023   3.778   0.059   9.859  0.7623  0.9375  2.3942
 1008MOL0     H36024   3.850   0.048   9.687 -1.0892  3.5201 -1.2961
 1008MOL0     H36025   4.058   0.123   9.804  1.1625 -1.5613  0.3097
 1008MOL0     H36026   3.985   0.082   9.964  3.2354 -1.8943  0.6856
 1008MOL0     H36027   4.121  -0.097   9.900 -2.3585 -0.7860  2.2247
 1008MOL0     H36028   3.959  -0.155   9.864 -0.7173  0.4962 -2.7983
 1008MOL0     H36029   4.003  -0.105   9.615  0.1899  0.4947  0.0022
 1008MOL0     H36030   4.109  -0.228   9.688  0.0191  0.5571 -0.3294
 1008MOL0     H36031   4.364  -0.109   9.791  0.5668 -1.6869 -1.5482
 1008MOL0     H36032   4.603   0.068   9.558  0.3167 -1.7207  0.4636
 1008MOL0     H36033   4.542   0.169   9.700  0.4611 -0.1362 -0.5225
 1008MOL0     H36034   4.599  -0.128   9.680 -3.2371  1.3878 -0.4157
 1008MOL0     H36035   4.576  -0.048   9.833  1.0144  0.7337  0.9960
 1008MOL0     H36036   4.775   0.091   9.786 -0.3021 -0.9777  0.8938
 1008MOL0     H36037   4.798  -0.019   9.642 -2.5316  0.6886 -1.2932
 1008MOL0     H36038   4.940  -0.077   9.833 -0.6870  1.3303  0.1919
 1008MOL0     H36039   4.807  -0.203   9.820 -1.6061 -0.2754  0.8726
 1008MOL0     H36040   4.625  -0.294   9.957 -2.1081  2.5708 -1.6163
 1008MOL0     H36041   4.366  -0.356  10.100 -1.5548 -1.7338  2.1632
 1008MOL0     H36042   4.506  -0.473  10.103  0.9895  0.8731 -1.1886
 1008MOL0     H36043   4.414  -0.423  10.254  0.9958  2.8636  1.3339
 1008MOL0     H36044   4.660  -0.568  10.575  0.5980 -0.3987  1.8583
 1008MOL0     H36045   4.637  -0.656  10.797  0.2302  0.6334  1.9939
 1008MOL0     H36046   4.647  -0.642  11.041  1.6639  1.1287  0.6586
 1008MOL0     H36047   4.602  -0.466  11.026  1.8245 -0.6945 -0.8576
 1008MOL0     H36048   4.591  -0.537  11.276  0.3910 -0.9649  0.8225
 1008MOL0     H36049   4.426  -0.527  11.200  1.2941  0.4283  3.8957
 1008MOL0     H36050   4.391  -0.745  11.177  0.0268 -3.4008  0.5029
 1008MOL0     H36051   4.455  -0.713  11.348 -0.5543  3.1078 -1.2806
 1008MOL0     H36052   4.612  -0.828  11.115  0.0470  3.1546  1.3872
 1008MOL0     H36053   4.670  -0.793  11.275 -1.1288  1.1662  2.1883
 1008MOL0     H36054   4.478  -1.019  11.182 -2.9014  0.7353  0.4666
 1008MOL0     H36055   4.461  -0.942  11.346  1.1727 -0.8403  2.3428
 1008MOL0     H36056   4.683  -1.007  11.417 -1.6562  1.7732 -0.6106
 1008MOL0     H36057   4.591  -1.137  11.333 -1.0579  0.1288 -1.4181
 1008MOL0     H36058   4.839  -0.962  11.257 -1.6120 -0.2366  0.6180
 1008MOL0     H36059   4.747  -1.041  11.124  1.2421 -0.2410 -0.8504
 1008MOL0     H36060   4.953  -1.178  11.264  0.2387 -3.2064 -1.7978
 1008MOL0     H36061   4.828  -1.236  11.154 -1.7131 -0.8711  1.0675
 1008MOL0     H36062   4.285  -0.423  10.854 -0.7777 -1.6884  0.1029
 1008MOL0     H36063   4.305  -0.326  10.641 -1.1124 -0.9033  0.4678
 1008MOL0     H36064   4.677  -0.067  10.398 -0.4518 -0.0294  0.3244
 1008MOL0     H36065   4.794   0.021  10.210  2.7036 -2.2058 -1.7679
 1008MOL0     H36066   3.835   0.113  10.189  2.5553 -0.3453  1.5159
 1008MOL0     H36067   3.924   0.183  10.428  2.1403  1.5527 -0.8101
 1008MOL0     H36068   4.281   0.367  10.711 -1.8226 -0.7572 -0.9887
 1008MOL0     H36069   4.303   0.422  10.977 -0.9792  0.7851  1.0361
 1008MOL0     H36070   4.264   0.619  11.232  2.6216  1.2539 -1.3086
 1008MOL0     H36071   4.323   0.591  11.074 -0.6519 -0.2909  0.6780
 1008MOL0     H36072   4.078   0.762  11.116 -0.3009  0.0074  1.0055
 1008MOL0     H36073   4.182   0.729  10.966 -0.5346 -2.1897  1.1861
 1008MOL0     H36074   4.365   0.866  11.080 -1.2669  0.2553 -2.7054
 1008MOL0     H36075   4.280   0.884  11.220 -1.8132 -1.3938  0.6450
 1008MOL0     H36076   4.274   1.099  11.107 -0.5689  1.0974 -1.4833
 1008MOL0     H36077   4.112   1.024  11.108 -0.2214  0.5771 -0.1679
 1008MOL0     H36078   4.227   1.097  10.699  1.8566 -1.1597 -0.0065
 1008MOL0     H36079   3.893   0.489  11.002 -0.5728 -0.1150 -1.0426
 1008MOL0     H36080   3.861   0.407  10.765 -0.3364  0.0851 -0.3346
 1009MOL0     O36081   4.561   9.634   0.942  0.6455  0.2758  0.0069
 1009MOL0     C36082   4.678   9.660   0.973  0.0436 -1.6974  0.2500
 1009MOL0     O36083   4.729   9.790   0.983 -0.0793 -0.8090  0.2557
 1009MOL0     C36084   4.638   9.895   1.005  0.3009 -0.8079  0.9932
 1009MOL0     C36085   4.673  10.019   0.956 -0.7945 -0.2879  1.2957
 1009MOL0     C36086   4.606  10.130   0.982  0.6639 -0.7153  1.0905
 1009MOL0     C36087   4.493  10.120   1.069 -0.5821 -0.2251  0.7085
 1009MOL0     O36088   4.439  10.242   1.103  0.1155  1.1618  0.1067
 1009MOL0     C36089   4.306  10.261   1.076  0.2725 -0.4467  0.0433
 1009MOL0     C36090   4.257  10.333   1.201  0.0698 -0.4909  0.7076
 1009MOL0     C36091   4.231  10.247   1.320  0.0246  0.6882 -0.4846
 1009MOL0     C36092   4.193  10.316   1.441 -0.4089  0.3651  0.4266
 1009MOL0     C36093   4.173  10.220   1.563 -0.7747 -0.6276  0.7604
 1009MOL0     C36094   4.172  10.308   1.681  0.1133 -0.3203 -0.2318
 1009MOL0     C36095   4.153  10.235   1.817 -1.1046  0.6796 -0.4107
 1009MOL0     C36096   4.103  10.317   1.931 -0.1348 -1.1978  0.1519
 1009MOL0     N36097   4.130  10.258   2.062  0.1887  0.1114 -0.6419
 1009MOL0     C36098   4.252  10.267   2.116  0.5565 -0.5451  0.7212
 1009MOL0     C36099   4.248  10.202   2.235 -0.0290 -0.8990 -0.2325
 1009MOL0     C36100   4.357  10.184   2.338 -0.3066  0.3726  1.2377
 1009MOL0     C36101   4.498  10.194   2.274  1.1116 -0.5799  0.0182
 1009MOL0     C36102   4.613  10.203   2.374  0.4686 -0.8476  0.2680
 1009MOL0     C36103   4.672  10.060   2.391 -0.4384 -0.7882 -0.2446
 1009MOL0     O36104   4.574   9.991   2.456  0.0596 -0.4527 -0.6675
 1009MOL0     C36105   4.615   9.878   2.510 -0.2660  0.3397 -0.3348
 1009MOL0     C36106   4.535   9.771   2.493  0.4906 -0.1581 -0.3824
 1009MOL0     C36107   4.539   9.658   2.569  0.3498  0.4871  0.1732
 1009MOL0     C36108   4.431   9.557   2.527 -0.4242 -0.1821 -0.1595
 1009MOL0     C36109   4.630   9.645   2.676 -0.7959  0.8944 -0.2826
 1009MOL0     C36110   4.632   9.525   2.763  0.0616  0.4334 -1.2062
 1009MOL0     O36111   4.749   9.511   2.832 -0.5508 -0.1322 -0.1234
 1009MOL0     C36112   4.761   9.422   2.932  0.6600 -0.1443 -0.2122
 1009MOL0     C36113   4.788   9.288   2.904 -0.1054  0.8461  0.0459
 1009MOL0     C36114   4.780   9.189   3.008  0.4465 -0.7004 -0.0899
 1009MOL0     C36115   4.752   9.225   3.143  0.2951  0.7596 -0.2224
 1009MOL0     O36116   4.753   9.139   3.256 -0.3817  0.3613 -0.0849
 1009MOL0     C36117   4.759   8.998   3.237 -0.1334 -0.0405 -0.5560
 1009MOL0     C36118   4.748   8.927   3.375  0.1067 -0.4834  1.2917
 1009MOL0     C36119   4.631   8.979   3.449 -0.2633  0.3936 -0.5215
 1009MOL0     C36120   4.495   8.923   3.395  0.0401  0.0575  0.5120
 1009MOL0     C36121   4.385   8.897   3.509 -0.9108  0.2700  0.5092
 1009MOL0     C36122   4.290   9.005   3.544 -0.5448 -0.8372  1.1282
 1009MOL0     C36123   4.351   9.127   3.621 -0.0194  0.4565  1.0700
 1009MOL0     C36124   4.252   9.231   3.663 -0.1158  0.4402 -1.0220
 1009MOL0    Cl36125   4.136   9.174   3.787  0.2506 -0.2287  0.2913
 1009MOL0     C36126   4.731   9.361   3.165 -0.6453  0.3601 -0.5268
 1009MOL0     C36127   4.741   9.453   3.070 -0.7629 -0.2000 -0.1607
 1009MOL0     O36128   4.541   9.446   2.761  0.4063 -0.1852 -0.4608
 1009MOL0     C36129   4.708   9.759   2.707 -0.2119  0.6915  0.3612
 1009MOL0     C36130   4.707   9.873   2.622  0.6158 -0.0412  0.8659
 1009MOL0     N36131   4.112  10.177   2.255  0.1777  0.3639 -0.0358
 1009MOL0     N36132   4.043  10.204   2.151 -0.6928 -0.5603 -0.1085
 1009MOL0     C36133   4.442   9.994   1.112  0.3649 -0.4728  0.8013
 1009MOL0     C36134   4.527   9.883   1.089 -0.1379 -0.3019 -0.5767
 1009MOL0     C36135   4.776   9.560   1.000  0.9733  0.5503  0.8307
 1009MOL0     C36136   4.907   9.580   1.037 -0.8318 -0.2067 -0.9011
 1009MOL0     C36137   5.000   9.472   1.066 -0.4495 -0.3138  0.9275
 1009MOL0     C36138   4.958   9.341   1.063  0.0399  0.4080 -0.1881
 1009MOL0     O36139   5.059   9.245   1.084 -0.0341 -0.1238 -0.6970
 1009MOL0     C36140   5.040   9.095   1.065  1.1306 -0.1669 -0.0564
 1009MOL0     C36141   5.157   8.998   1.083  0.2954 -0.2327  0.5127
 1009MOL0     C36142   5.213   9.019   1.227 -0.4658 -0.1481  0.6492
 1009MOL0     C36143   5.320   8.921   1.259  0.1828  0.7044 -0.3187
 1009MOL0     C36144   5.375   8.952   1.385 -0.9024  0.3643  0.2173
 1009MOL0     C36145   5.428   8.997   1.488  0.3883  0.1438  0.2036
 1009MOL0     C36146   4.823   9.320   1.021 -0.1526 -0.1200  0.3590
 1009MOL0     C36147   4.729   9.420   0.989 -0.3803 -0.6510 -0.3802
 1009MOL0     H36148   4.772  10.045   0.920 -2.6164  4.4336 -1.2119
 1009MOL0     H36149   4.635  10.229   0.948  0.5349 -1.2903 -0.8141
 1009MOL0     H36150   4.301  10.312   0.979  0.3957  2.2248  1.3647
 1009MOL0     H36151   4.252  10.165   1.071  1.5507 -1.4325  3.1988
 1009MOL0     H36152   4.333  10.406   1.231  0.7187 -0.4310 -0.9750
 1009MOL0     H36153   4.160  10.376   1.175  0.3476  0.0192  0.4857
 1009MOL0     H36154   4.161  10.172   1.283  0.5327 -0.6396  1.1419
 1009MOL0     H36155   4.315  10.178   1.334 -2.1004 -2.6189 -2.5799
 1009MOL0     H36156   4.280  10.375   1.471  0.7631 -2.5818  3.4914
 1009MOL0     H36157   4.100  10.369   1.419 -0.5661 -1.3677 -4.0479
 1009MOL0     H36158   4.083  10.161   1.544 -1.9203  1.7757 -2.2165
 1009MOL0     H36159   4.264  10.159   1.568  0.5450  1.2783  1.1524
 1009MOL0     H36160   4.265  10.365   1.684  0.1245 -0.3238 -0.4890
 1009MOL0     H36161   4.092  10.380   1.663  1.6889  1.1352 -1.6840
 1009MOL0     H36162   4.078  10.156   1.803 -0.0471 -0.0486 -2.3774
 1009MOL0     H36163   4.242  10.180   1.850 -2.1439 -0.8767 -0.0794
 1009MOL0     H36164   3.998  10.347   1.931  0.6122  1.7414 -0.2284
 1009MOL0     H36165   4.157  10.412   1.918 -0.7959 -0.7991  0.2630
 1009MOL0     H36166   4.334  10.320   2.067  1.2866 -1.5566  0.8060
 1009MOL0     H36167   4.353  10.258   2.418 -0.4990 -0.4514  2.0066
 1009MOL0     H36168   4.345  10.088   2.389  1.1613 -1.9650 -2.4338
 1009MOL0     H36169   4.511  10.291   2.225  0.6611  0.2084  1.3805
 1009MOL0     H36170   4.501  10.123   2.191 -1.2253  3.1991 -3.6816
 1009MOL0     H36171   4.577  10.239   2.471 -1.6271 -0.0619 -0.7510
 1009MOL0     H36172   4.691  10.272   2.339 -0.7158  0.4255  0.0829
 1009MOL0     H36173   4.765  10.058   2.449 -0.2420  2.3573 -0.3011
 1009MOL0     H36174   4.706   9.998   2.307  1.3948  1.1830 -1.0398
 1009MOL0     H36175   4.454   9.770   2.420 -0.5942 -0.0846  0.7895
 1009MOL0     H36176   4.374   9.517   2.612 -1.0249 -2.0791 -1.3864
 1009MOL0     H36177   4.358   9.596   2.456  2.2545  4.1029 -0.8962
 1009MOL0     H36178   4.488   9.476   2.481  0.1602  1.7237 -3.0793
 1009MOL0     H36179   4.816   9.257   2.804 -0.8723  1.2883 -0.3146
 1009MOL0     H36180   4.806   9.090   2.971  1.3295 -1.2046  1.7785
 1009MOL0     H36181   4.672   8.976   3.174 -0.8636  0.9551  0.0736
 1009MOL0     H36182   4.854   8.974   3.187  0.0062 -2.8435  0.8598
 1009MOL0     H36183   4.746   8.818   3.361 -0.2135 -0.8948  4.0551
 1009MOL0     H36184   4.844   8.947   3.423  1.9626 -4.1868 -0.4898
 1009MOL0     H36185   4.626   9.088   3.456  0.1768  0.3097  2.5230
 1009MOL0     H36186   4.643   8.935   3.549  0.1620 -0.2419 -0.8462
 1009MOL0     H36187   4.455   8.977   3.309 -2.7352 -0.4241  1.4057
 1009MOL0     H36188   4.519   8.823   3.357  1.2209  1.0501 -1.5510
 1009MOL0     H36189   4.444   8.866   3.596  3.1539  2.3288 -1.2151
 1009MOL0     H36190   4.322   8.811   3.486  0.2059 -0.4266 -0.0357
 1009MOL0     H36191   4.250   9.046   3.451  1.6300 -4.0724 -1.4929
 1009MOL0     H36192   4.206   8.962   3.599  0.1192 -0.0767  2.7850
 1009MOL0     H36193   4.418   9.173   3.549  0.8222 -1.9402  0.2158
 1009MOL0     H36194   4.413   9.096   3.706  1.3980  2.1225  0.7029
 1009MOL0     H36195   4.197   9.269   3.576 -1.1082 -2.7526 -1.9000
 1009MOL0     H36196   4.322   9.307   3.699  0.2983 -0.3609 -0.1269
 1009MOL0     H36197   4.722   9.394   3.268  0.4070  0.3056 -0.3990
 1009MOL0     H36198   4.717   9.553   3.107 -0.7248  0.2543 -1.3005
 1009MOL0     H36199   4.761   9.764   2.801 -2.5199  0.7310  1.7554
 1009MOL0     H36200   4.764   9.962   2.649 -0.9804  2.1395 -2.3102
 1009MOL0     H36201   4.363   9.991   1.186 -2.4449 -1.9171 -2.0108
 1009MOL0     H36202   4.500   9.801   1.155 -1.9321  1.3640  0.9132
 1009MOL0     H36203   4.947   9.681   1.037  0.9252 -0.7903 -3.5110
 1009MOL0     H36204   5.096   9.505   1.106  1.4377  1.4781 -4.2619
 1009MOL0     H36205   4.961   9.061   1.133 -1.9474 -0.3550 -3.4463
 1009MOL0     H36206   4.988   9.090   0.969  2.6489  2.0997 -1.0788
 1009MOL0     H36207   5.236   9.013   1.009 -1.5867  1.0247 -1.3521
 1009MOL0     H36208   5.110   8.899   1.081 -3.2612  1.3198  0.2447
 1009MOL0     H36209   5.127   9.015   1.294  0.9810  0.3876  2.6326
 1009MOL0     H36210   5.260   9.117   1.235  1.3553 -0.4220 -3.9693
 1009MOL0     H36211   5.396   8.936   1.182  1.2552 -0.0019  0.5749
 1009MOL0     H36212   5.291   8.816   1.257  1.2990  0.3658  0.5728
 1009MOL0     H36213   5.479   9.033   1.575 -0.7652  0.7100  0.6643
 1009MOL0     H36214   4.795   9.215   1.025  0.9400 -0.4915 -1.1001
 1009MOL0     H36215   4.633   9.379   0.960 -0.6960  0.1868 -0.5307
 1010MOL0     O36216   3.456   5.403   0.479  0.5495  0.2311 -0.2197
 1010MOL0     C36217   3.485   5.509   0.432  0.5359 -0.4179  0.3118
 1010MOL0     O36218   3.449   5.549   0.309  0.6286  0.0916 -0.4940
 1010MOL0     C36219   3.376   5.465   0.232 -0.1640 -1.0248  0.3546
 1010MOL0     C36220   3.235   5.456   0.263  0.3823  0.2068 -0.3065
 1010MOL0     C36221   3.150   5.401   0.176  0.8616 -0.5841  1.4232
 1010MOL0     C36222   3.197   5.347   0.056  0.0604  0.8330 -0.3915
 1010MOL0     O36223   3.118   5.291  -0.041  0.1379  0.2727 -0.2906
 1010MOL0     C36224   2.996   5.238  -0.006 -0.4779 -0.1947  0.1954
 1010MOL0     C36225   2.917   5.176  -0.121  1.3508  0.6272  0.7490
 1010MOL0     C36226   2.785   5.111  -0.076  0.5335  0.0809 -0.3431
 1010MOL0     C36227   2.700   5.013  -0.166  0.5533 -1.0996  0.4530
 1010MOL0     C36228   2.767   4.986  -0.295 -0.4910 -0.4649 -0.1091
 1010MOL0     C36229   2.709   4.880  -0.385 -0.2192  0.3323  1.1474
 1010MOL0     C36230   2.607   4.779  -0.334  1.5460 -0.3372  0.5935
 1010MOL0     C36231   2.653   4.675  -0.229  0.8163  0.0344  1.6885
 1010MOL0     N36232   2.546   4.577  -0.218  0.9925 -0.8021  0.7564
 1010MOL0     C36233   2.463   4.574  -0.104 -0.3001 -0.4673  0.0503
 1010MOL0     C36234   2.360   4.493  -0.142  0.5658 -0.0149 -0.1073
 1010MOL0     C36235   2.239   4.440  -0.078  0.0545 -0.1474 -0.2065
 1010MOL0     C36236   2.241   4.301  -0.025 -0.7795  0.1349  0.2281
 1010MOL0     C36237   2.366   4.271   0.073  0.0841  0.3280 -0.9620
 1010MOL0     C36238   2.368   4.141   0.157  1.6108 -0.1881  0.6502
 1010MOL0     O36239   2.255   4.121   0.243 -0.1280  0.0671 -0.5904
 1010MOL0     C36240   2.211   3.993   0.256  0.3027 -0.0863 -0.3888
 1010MOL0     C36241   2.134   3.942   0.155 -0.6058 -0.5002  0.1466
 1010MOL0     C36242   2.088   3.806   0.146 -0.8039 -0.5708  0.6211
 1010MOL0     C36243   2.017   3.758   0.019 -0.2477 -0.2177  0.5352
 1010MOL0     C36244   2.121   3.718   0.259  0.8382 -0.2132 -0.0141
 1010MOL0     C36245   2.063   3.586   0.273 -0.2075  0.9997 -0.4046
 1010MOL0     O36246   2.155   3.486   0.305 -0.1199 -0.4513 -1.0475
 1010MOL0     C36247   2.102   3.357   0.320 -0.0383 -0.6383  0.5154
 1010MOL0     C36248   2.134   3.293   0.441  0.6656 -0.4053  0.4647
 1010MOL0     C36249   2.068   3.172   0.465 -0.6616  0.1685  0.0318
 1010MOL0     C36250   1.975   3.120   0.375  0.3039  0.2612  1.0655
 1010MOL0     O36251   1.901   3.009   0.391 -1.2657  0.3954 -0.0340
 1010MOL0     C36252   1.891   2.962   0.527 -0.8903 -0.0684  0.3838
 1010MOL0     C36253   1.798   2.855   0.527  0.2538  0.2328 -0.3080
 1010MOL0     C36254   1.755   2.834   0.674  0.5051  1.0025  0.3441
 1010MOL0     C36255   1.690   2.703   0.711 -0.0838  0.6623 -0.1278
 1010MOL0     C36256   1.670   2.697   0.872  0.5946 -0.0739 -0.2690
 1010MOL0     C36257   1.571   2.799   0.943 -0.9129  0.8789  0.0725
 1010MOL0     C36258   1.436   2.801   0.873  0.1852  1.2735  0.8041
 1010MOL0     C36259   1.328   2.844   0.962  0.3726  0.2834  0.2693
 1010MOL0    Cl36260   1.340   3.013   1.022 -0.2623  0.3374 -0.1249
 1010MOL0     C36261   1.941   3.191   0.256  1.0128 -0.0800  0.6332
 1010MOL0     C36262   2.010   3.305   0.229  0.3714  0.5044 -0.0745
 1010MOL0     O36263   1.943   3.571   0.273 -0.2812 -0.2072 -0.6212
 1010MOL0     C36264   2.187   3.779   0.369 -0.0924  0.5254  0.5709
 1010MOL0     C36265   2.238   3.912   0.363 -0.0559  0.0660  0.0447
 1010MOL0     N36266   2.370   4.454  -0.268  0.6106  0.1274  0.9100
 1010MOL0     N36267   2.475   4.513  -0.324  0.6257  1.1592  0.7668
 1010MOL0     C36268   3.335   5.365   0.022 -0.2732 -0.2983  0.1685
 1010MOL0     C36269   3.423   5.429   0.108  0.8148 -0.5419  0.9337
 1010MOL0     C36270   3.567   5.598   0.514 -0.0936 -0.9556 -1.2702
 1010MOL0     C36271   3.599   5.729   0.468  0.3376  0.5076 -0.8737
 1010MOL0     C36272   3.670   5.819   0.559  0.0414  0.3244  0.3959
 1010MOL0     C36273   3.714   5.784   0.686  0.3272 -0.0233  0.4885
 1010MOL0     O36274   3.795   5.870   0.760 -0.4275  0.3805 -0.2066
 1010MOL0     C36275   3.798   5.861   0.907 -0.5429  0.6300 -0.6525
 1010MOL0     C36276   3.871   5.978   0.965 -0.9991 -0.5304  0.2148
 1010MOL0     C36277   3.835   6.113   0.893  0.5768  0.2404  0.5537
 1010MOL0     C36278   3.906   6.240   0.944 -0.2058  0.2078  0.4607
 1010MOL0     C36279   3.858   6.269   1.080 -0.2206  0.4877  0.2747
 1010MOL0     C36280   3.811   6.292   1.188  0.3479  0.6057  0.1159
 1010MOL0     C36281   3.673   5.651   0.724  0.3335  0.5167 -0.0274
 1010MOL0     C36282   3.601   5.562   0.646 -1.0478 -0.2737  0.9754
 1010MOL0     H36283   3.200   5.482   0.362  0.3145 -0.9617 -0.0128
 1010MOL0     H36284   3.047   5.407   0.209 -0.1920  0.4313 -1.6544
 1010MOL0     H36285   3.013   5.154   0.062 -0.5736  1.1744  1.9731
 1010MOL0     H36286   2.938   5.310   0.052 -1.2269 -1.9019  1.6655
 1010MOL0     H36287   2.897   5.236  -0.210  1.7721 -0.8335 -0.3750
 1010MOL0     H36288   2.980   5.093  -0.157  1.5607  1.0120  0.2128
 1010MOL0     H36289   2.816   5.052   0.011 -0.6162  0.5991  0.4518
 1010MOL0     H36290   2.725   5.193  -0.035 -1.9316 -2.1645  0.8194
 1010MOL0     H36291   2.685   4.924  -0.104  2.6606 -1.0227  1.1640
 1010MOL0     H36292   2.606   5.063  -0.190  1.0816 -0.0218  0.5469
 1010MOL0     H36293   2.784   5.078  -0.351  0.5606 -0.0502  0.8495
 1010MOL0     H36294   2.864   4.949  -0.263 -0.0017  0.3509 -0.6228
 1010MOL0     H36295   2.660   4.941  -0.462 -3.6660 -1.3575  1.8124
 1010MOL0     H36296   2.789   4.822  -0.432 -0.4629  1.4071 -0.6968
 1010MOL0     H36297   2.516   4.834  -0.312  1.6632  0.6874 -1.3484
 1010MOL0     H36298   2.580   4.720  -0.422  2.0835  1.4511 -0.8162
 1010MOL0     H36299   2.684   4.733  -0.141 -1.5227  2.7765  0.8774
 1010MOL0     H36300   2.742   4.626  -0.267  1.8703  3.8334 -1.2594
 1010MOL0     H36301   2.475   4.618  -0.005 -0.2169  0.7956 -0.5159
 1010MOL0     H36302   2.226   4.523  -0.009  1.8634 -0.8830  1.1028
 1010MOL0     H36303   2.156   4.432  -0.149  0.5591 -1.4426 -0.6915
 1010MOL0     H36304   2.245   4.225  -0.104 -0.1880  0.8408 -0.4455
 1010MOL0     H36305   2.147   4.280   0.027  0.2363 -1.4723  1.5267
 1010MOL0     H36306   2.354   4.352   0.146  2.5570 -1.5541  1.7767
 1010MOL0     H36307   2.470   4.291   0.045  1.2581  1.0187  3.2199
 1010MOL0     H36308   2.459   4.140   0.219  1.5103  0.3298  0.8079
 1010MOL0     H36309   2.390   4.060   0.086  1.1135  3.3135 -3.9522
 1010MOL0     H36310   2.120   4.011   0.073 -3.4421 -3.1425 -1.8401
 1010MOL0     H36311   1.986   3.842  -0.044 -1.0009  0.8107  2.2013
 1010MOL0     H36312   2.088   3.695  -0.035  1.0822  2.6309 -1.2797
 1010MOL0     H36313   1.930   3.697   0.047 -1.8135  1.3078 -0.7718
 1010MOL0     H36314   2.213   3.336   0.502  0.5673  0.2466  0.1411
 1010MOL0     H36315   2.111   3.129   0.555 -1.0157  2.2930  1.2766
 1010MOL0     H36316   1.987   2.939   0.574 -0.8940 -0.2910  0.2827
 1010MOL0     H36317   1.844   3.043   0.582 -0.4431  0.5712 -0.1559
 1010MOL0     H36318   1.708   2.871   0.467  0.1169 -1.6879 -0.6794
 1010MOL0     H36319   1.843   2.765   0.485 -1.3456 -1.4264  1.3221
 1010MOL0     H36320   1.700   2.917   0.719  2.3425  1.7575  1.2901
 1010MOL0     H36321   1.848   2.838   0.732  0.7152  2.5460 -0.0340
 1010MOL0     H36322   1.594   2.686   0.662 -0.1130 -0.0782  0.1671
 1010MOL0     H36323   1.748   2.617   0.677 -0.1444  1.0084 -1.1292
 1010MOL0     H36324   1.769   2.694   0.918  0.8873  0.6293 -0.8287
 1010MOL0     H36325   1.631   2.595   0.882 -1.1192  0.5571 -0.1371
 1010MOL0     H36326   1.558   2.765   1.046 -4.6158  1.4936 -0.0570
 1010MOL0     H36327   1.611   2.901   0.943 -1.8828  1.2728 -0.8352
 1010MOL0     H36328   1.429   2.693   0.855  1.8423  1.4143 -1.1624
 1010MOL0     H36329   1.440   2.853   0.777 -0.2629 -1.1106 -0.5804
 1010MOL0     H36330   1.316   2.768   1.039  3.5000 -0.0962  0.5007
 1010MOL0     H36331   1.238   2.862   0.902 -1.3322  2.7054  3.2618
 1010MOL0     H36332   1.865   3.151   0.189  0.9307  0.4163  0.4260
 1010MOL0     H36333   1.997   3.365   0.140  3.4603  1.5041  0.0247
 1010MOL0     H36334   2.210   3.718   0.456 -0.4106  2.2326  1.9068
 1010MOL0     H36335   2.298   3.944   0.448  1.1004  0.7840 -1.0138
 1010MOL0     H36336   3.360   5.349  -0.083 -1.3499 -0.3284 -0.0939
 1010MOL0     H36337   3.530   5.443   0.091  0.8353 -0.0224  1.4295
 1010MOL0     H36338   3.587   5.749   0.362  0.4610 -1.3525 -1.2830
 1010MOL0     H36339   3.689   5.920   0.525  1.7522 -0.1535 -0.2027
 1010MOL0     H36340   3.705   5.836   0.959  0.1928  0.0396  0.4256
 1010MOL0     H36341   3.859   5.773   0.931 -0.4889  0.8978  0.2353
 1010MOL0     H36342   3.978   5.975   0.945 -0.5809 -1.2672  2.2571
 1010MOL0     H36343   3.858   5.986   1.074  2.2686  3.2965  0.5652
 1010MOL0     H36344   3.726   6.119   0.899  0.4062 -0.8700 -0.8507
 1010MOL0     H36345   3.840   6.099   0.785  0.1086  0.5080  0.4931
 1010MOL0     H36346   3.861   6.323   0.888 -3.8634 -2.9340 -1.7435
 1010MOL0     H36347   4.014   6.221   0.942 -0.6640 -3.2068 -2.1503
 1010MOL0     H36348   3.770   6.297   1.287 -1.2369 -2.6973 -0.2338
 1010MOL0     H36349   3.698   5.606   0.819 -0.3251  1.3099  0.5388
 1010MOL0     H36350   3.561   5.478   0.700 -1.3752  0.5039  1.9719
 1011MOL0     O36351   7.185  10.346   7.064 -0.3647 -0.3838 -0.4669
 1011MOL0     C36352   7.076  10.336   7.015  1.0414  0.0066 -0.6013
 1011MOL0     O36353   7.059  10.321   6.883 -0.2600  0.5296  0.4861
 1011MOL0     C36354   7.167  10.300   6.799 -0.7956  0.1754  0.2501
 1011MOL0     C36355   7.256  10.403   6.763  0.3028  0.6395  0.1304
 1011MOL0     C36356   7.371  10.371   6.687  0.0772 -0.1348  0.9564
 1011MOL0     C36357   7.391  10.239   6.638 -0.5246 -0.0464 -0.0774
 1011MOL0     O36358   7.485  10.207   6.542 -0.1365  0.3877  0.0195
 1011MOL0     C36359   7.595  10.301   6.515 -0.3959  0.1350  0.2787
 1011MOL0     C36360   7.703  10.298   6.619 -0.3465 -0.2981 -0.1816
 1011MOL0     C36361   7.778  10.163   6.618 -0.7051 -0.2694  0.1447
 1011MOL0     C36362   7.911  10.166   6.704  0.3444 -0.5133  0.1465
 1011MOL0     C36363   7.983  10.031   6.710 -0.0797 -0.2283  0.0928
 1011MOL0     C36364   8.092  10.022   6.816  0.4725  0.2721 -0.5712
 1011MOL0     C36365   8.153   9.884   6.820 -0.6032  0.6785  0.3065
 1011MOL0     C36366   8.260   9.877   6.929 -0.4363  0.4695  0.9786
 1011MOL0     N36367   8.264   9.738   6.977  0.1102  0.6618  0.1680
 1011MOL0     C36368   8.202   9.667   7.074 -0.5101 -0.0916 -0.5376
 1011MOL0     C36369   8.240   9.537   7.071  0.2734 -0.9739  0.2838
 1011MOL0     C36370   8.185   9.424   7.141  0.2423  0.5451 -0.5302
 1011MOL0     C36371   8.058   9.360   7.074  0.3282  1.0764  0.0065
 1011MOL0     C36372   8.043   9.346   6.923  0.5337 -0.4104  0.5079
 1011MOL0     C36373   8.080   9.204   6.873 -1.0658  0.5322  0.0105
 1011MOL0     O36374   8.086   9.212   6.727  0.5277 -0.0046 -0.1309
 1011MOL0     C36375   7.965   9.228   6.655 -0.8833  0.5108 -0.3663
 1011MOL0     C36376   7.845   9.186   6.697  0.5555  0.2174 -0.2211
 1011MOL0     C36377   7.727   9.199   6.627  0.5275  0.5511  0.0597
 1011MOL0     C36378   7.597   9.136   6.676 -0.2087  0.0209  0.6160
 1011MOL0     C36379   7.735   9.263   6.508  0.4762  0.0977  0.4912
 1011MOL0     C36380   7.620   9.323   6.432 -0.2827  0.1628  0.5989
 1011MOL0     O36381   7.633   9.316   6.298  0.7079 -0.5665  0.0185
 1011MOL0     C36382   7.524   9.354   6.221  0.0564  0.9282  0.8996
 1011MOL0     C36383   7.544   9.443   6.110 -0.7538 -0.1473  0.3464
 1011MOL0     C36384   7.441   9.485   6.025 -0.1455 -0.0705  0.6029
 1011MOL0     C36385   7.316   9.432   6.042 -0.3377  0.5303  0.5139
 1011MOL0     O36386   7.218   9.482   5.952  0.9262 -0.2737  0.2481
 1011MOL0     C36387   7.078   9.428   5.953 -0.2633  0.1216  0.0474
 1011MOL0     C36388   6.981   9.528   5.890  0.5589 -0.1775 -0.3028
 1011MOL0     C36389   6.939   9.634   5.985  0.2533 -0.4688  0.5662
 1011MOL0     C36390   6.912   9.762   5.907  0.5882  1.3070 -0.6259
 1011MOL0     C36391   6.846   9.868   6.003 -0.1327  0.4664  0.6060
 1011MOL0     C36392   6.924   9.889   6.137  0.2648 -1.0602  0.9880
 1011MOL0     C36393   6.861  10.011   6.216  0.1658  0.5417  0.8255
 1011MOL0     C36394   6.714   9.980   6.263 -0.7766 -0.0205 -0.7073
 1011MOL0    Cl36395   6.700   9.818   6.348  0.4157 -0.0686 -0.3134
 1011MOL0     C36396   7.306   9.324   6.132  0.3120 -1.7762 -0.9422
 1011MOL0     C36397   7.402   9.291   6.223 -0.4044 -0.2635 -0.0636
 1011MOL0     O36398   7.521   9.373   6.487 -0.2196 -1.4039  0.3870
 1011MOL0     C36399   7.863   9.313   6.464 -0.6211 -0.2799 -0.4568
 1011MOL0     C36400   7.975   9.278   6.532 -0.7668 -0.0749 -0.0692
 1011MOL0     N36401   8.324   9.517   6.967 -0.6734 -0.3535  0.2985
 1011MOL0     N36402   8.342   9.643   6.919  0.1757  0.8590 -0.3384
 1011MOL0     C36403   7.307  10.145   6.679  0.3497  0.3008  0.0102
 1011MOL0     C36404   7.197  10.172   6.754 -0.0552  0.1955  1.0927
 1011MOL0     C36405   6.954  10.321   7.106 -0.2009 -0.4418 -0.3957
 1011MOL0     C36406   6.841  10.270   7.056  0.3480 -0.3114  1.0838
 1011MOL0     C36407   6.720  10.270   7.124 -0.0802 -0.6235 -0.2917
 1011MOL0     C36408   6.720  10.319   7.259  0.1666  0.3193  0.1129
 1011MOL0     O36409   6.595  10.309   7.321 -0.0519 -0.1511 -0.5467
 1011MOL0     C36410   6.583  10.381   7.444 -0.2768 -0.0396  0.0050
 1011MOL0     C36411   6.439  10.359   7.511  0.3609  0.0392  0.1907
 1011MOL0     C36412   6.422  10.217   7.559  0.2170  0.1570  0.8405
 1011MOL0     C36413   6.497  10.177   7.689 -0.5178 -0.2375  0.0479
 1011MOL0     C36414   6.428  10.256   7.793 -0.4150 -0.4758 -0.7236
 1011MOL0     C36415   6.395  10.326   7.884  0.4893 -0.7335 -0.1178
 1011MOL0     C36416   6.845  10.382   7.312  0.2038  0.3796  0.1584
 1011MOL0     C36417   6.951  10.386   7.233 -0.6568  0.1163 -0.3242
 1011MOL0     H36418   7.230  10.505   6.790 -1.7784 -0.3470  2.1862
 1011MOL0     H36419   7.440  10.452   6.665 -0.1237  0.3009  1.8788
 1011MOL0     H36420   7.638  10.294   6.414 -2.1706  3.7786 -0.9182
 1011MOL0     H36421   7.547  10.399   6.511  0.0869  0.4558  1.9732
 1011MOL0     H36422   7.775  10.379   6.601  1.2006 -1.1890  1.6731
 1011MOL0     H36423   7.658  10.317   6.716  1.7444 -1.9680  1.1981
 1011MOL0     H36424   7.712  10.086   6.659 -0.5262 -0.5371 -0.0732
 1011MOL0     H36425   7.800  10.134   6.515 -0.5170 -0.9016  0.3597
 1011MOL0     H36426   7.976  10.236   6.650 -0.9956  0.0869 -0.7644
 1011MOL0     H36427   7.892  10.211   6.802  2.5068  1.0058 -0.0679
 1011MOL0     H36428   7.916   9.947   6.733 -0.8106 -0.0287 -1.2233
 1011MOL0     H36429   8.021   9.996   6.614 -0.7173 -0.5711 -0.0379
 1011MOL0     H36430   8.159  10.100   6.780 -1.6177  1.5656 -1.8830
 1011MOL0     H36431   8.059  10.049   6.917 -1.2516 -1.0807 -0.7207
 1011MOL0     H36432   8.073   9.810   6.829  0.3264 -1.0318 -3.4893
 1011MOL0     H36433   8.199   9.850   6.727  1.8684  3.0620  0.5342
 1011MOL0     H36434   8.231   9.944   7.011 -0.2752  1.8932 -0.0905
 1011MOL0     H36435   8.357   9.896   6.884  0.2577 -0.9881  1.8072
 1011MOL0     H36436   8.119   9.712   7.127 -1.4256  0.4881 -2.3624
 1011MOL0     H36437   8.253   9.339   7.132  0.2414  0.5089 -0.1987
 1011MOL0     H36438   8.162   9.451   7.244 -1.1100  0.8294 -0.8944
 1011MOL0     H36439   7.969   9.416   7.102  1.0414  2.4664 -0.4239
 1011MOL0     H36440   8.045   9.263   7.123  4.9842  0.6814  0.9024
 1011MOL0     H36441   8.100   9.429   6.880  1.0349 -0.5492  0.8967
 1011MOL0     H36442   7.937   9.364   6.900  0.5338  0.4473  1.1159
 1011MOL0     H36443   8.011   9.124   6.898 -0.4444  0.8448  3.1092
 1011MOL0     H36444   8.178   9.177   6.913  0.9112  3.4473 -2.3871
 1011MOL0     H36445   7.835   9.127   6.788 -1.6838 -0.7415 -1.0044
 1011MOL0     H36446   7.528   9.118   6.593 -1.5598  4.9270  0.3548
 1011MOL0     H36447   7.616   9.044   6.732  0.9085 -0.1194  0.0161
 1011MOL0     H36448   7.543   9.205   6.742 -0.8427  2.5458 -2.3231
 1011MOL0     H36449   7.646   9.479   6.092 -1.0543 -0.5259 -2.7635
 1011MOL0     H36450   7.474   9.560   5.954  2.1449  0.3723  2.0391
 1011MOL0     H36451   7.081   9.334   5.898 -1.1769  0.0616  0.0945
 1011MOL0     H36452   7.053   9.405   6.057 -0.3057  1.4667  0.3522
 1011MOL0     H36453   7.010   9.566   5.792 -1.5037  3.1860  0.2285
 1011MOL0     H36454   6.896   9.462   5.875 -0.6056  0.9329  1.0518
 1011MOL0     H36455   7.012   9.641   6.067  3.9140 -1.2079 -2.3324
 1011MOL0     H36456   6.842   9.617   6.031 -1.4509  3.1011 -1.2924
 1011MOL0     H36457   7.009   9.795   5.869  1.5618 -1.6560 -0.9931
 1011MOL0     H36458   6.847   9.753   5.820 -0.5087  0.5539  0.2496
 1011MOL0     H36459   6.752   9.822   6.035  1.0198 -0.7160  2.4749
 1011MOL0     H36460   6.828   9.956   5.942  0.6782  2.4594  3.0585
 1011MOL0     H36461   6.915   9.805   6.207 -0.3447 -1.8889 -0.0430
 1011MOL0     H36462   7.028   9.910   6.111 -0.1162  0.2221  0.4434
 1011MOL0     H36463   6.859  10.096   6.148 -2.8825 -0.3446 -0.3219
 1011MOL0     H36464   6.921  10.030   6.306  2.6756 -0.3895 -0.5562
 1011MOL0     H36465   6.656   9.976   6.170 -1.6093 -1.2005 -0.1584
 1011MOL0     H36466   6.679  10.057   6.333  1.7063 -0.6873  1.4148
 1011MOL0     H36467   7.215   9.268   6.148  0.7710 -1.8931  1.6620
 1011MOL0     H36468   7.390   9.208   6.292 -0.8319 -1.7182 -1.8040
 1011MOL0     H36469   7.882   9.370   6.373 -0.1052  1.3162  0.6280
 1011MOL0     H36470   8.073   9.315   6.503 -0.2610 -1.7956 -0.7141
 1011MOL0     H36471   7.319  10.042   6.649 -2.6794 -0.8238  2.1436
 1011MOL0     H36472   7.133  10.089   6.782 -1.1168  0.6023  0.0125
 1011MOL0     H36473   6.838  10.227   6.956  0.5097 -3.4736  2.3061
 1011MOL0     H36474   6.644  10.217   7.067 -1.4074  1.4867 -0.6092
 1011MOL0     H36475   6.635  10.345   7.533 -4.5193 -0.0331  2.7278
 1011MOL0     H36476   6.607  10.485   7.423  2.3099 -0.2154  1.6358
 1011MOL0     H36477   6.363  10.391   7.439 -0.3509 -1.3669  0.2814
 1011MOL0     H36478   6.429  10.420   7.601 -1.8988 -4.6949  3.5613
 1011MOL0     H36479   6.466  10.148   7.486  1.1377  1.1651  0.4128
 1011MOL0     H36480   6.315  10.198   7.570 -0.0289  2.2408  2.6861
 1011MOL0     H36481   6.602  10.206   7.683 -1.1682  2.4032  0.2860
 1011MOL0     H36482   6.483  10.071   7.715  2.3584 -0.1274  2.5539
 1011MOL0     H36483   6.350  10.383   7.963 -0.6462 -0.5196 -0.8899
 1011MOL0     H36484   6.841  10.426   7.411  1.7525 -0.6125  0.6945
 1011MOL0     H36485   7.045  10.430   7.268  0.9196 -3.2642  0.0795
 1012MOL0     O36486  11.210   7.015   9.296 -0.3386  0.1611  0.0964
 1012MOL0     C36487  11.225   7.140   9.306  0.2409  0.6581  0.7082
 1012MOL0     O36488  11.157   7.227   9.394  0.4176  0.0558 -0.2914
 1012MOL0     C36489  11.075   7.176   9.497  0.4581  0.0782 -0.1898
 1012MOL0     C36490  11.080   7.047   9.546 -1.5638  0.4395  0.9590
 1012MOL0     C36491  11.018   7.022   9.666  0.6795 -0.1699  0.0197
 1012MOL0     C36492  10.950   7.120   9.741  0.4375  0.4371 -0.4215
 1012MOL0     O36493  10.882   7.093   9.853  1.0395  0.5595  0.7872
 1012MOL0     C36494  10.972   7.057   9.960  0.0456 -0.8267  0.5405
 1012MOL0     C36495  10.975   7.167  10.071  0.2969 -0.0819 -1.6143
 1012MOL0     C36496  10.840   7.219  10.127  0.4842 -0.4969  0.2112
 1012MOL0     C36497  10.850   7.310  10.244 -0.0110  0.2251  0.1550
 1012MOL0     C36498  10.727   7.401  10.279  0.1777  0.6152  0.4944
 1012MOL0     C36499  10.754   7.506  10.378  0.2748 -0.7283 -0.5513
 1012MOL0     C36500  10.759   7.447  10.528 -1.0051 -0.3550  0.6102
 1012MOL0     C36501  10.806   7.534  10.645 -0.5459  0.5605 -0.1070
 1012MOL0     N36502  10.955   7.507  10.668  0.9527 -0.2660 -0.2800
 1012MOL0     C36503  11.060   7.501  10.570  0.5464  0.5896  0.0653
 1012MOL0     C36504  11.161   7.441  10.640  0.9694 -0.1447 -0.2679
 1012MOL0     C36505  11.298   7.398  10.576  0.0690 -0.8839 -0.7640
 1012MOL0     C36506  11.354   7.516  10.497  0.2557 -0.0546 -0.1274
 1012MOL0     C36507  11.456   7.469  10.394 -0.1447  0.1091  0.6973
 1012MOL0     C36508  11.413   7.364  10.299 -0.5342  0.5244  0.4399
 1012MOL0     O36509  11.276   7.378  10.266  0.7747 -0.1821 -0.3055
 1012MOL0     C36510  11.232   7.434  10.149  0.3964 -0.4935  0.4042
 1012MOL0     C36511  11.279   7.396  10.018 -0.0658 -0.6992  0.6964
 1012MOL0     C36512  11.233   7.473   9.907  0.9617  0.0619 -0.2773
 1012MOL0     C36513  11.313   7.453   9.779  0.1155 -0.0413 -0.0542
 1012MOL0     C36514  11.129   7.570   9.921 -0.5844  0.2959  0.2314
 1012MOL0     C36515  11.095   7.671   9.806  0.1749 -0.5259 -1.1864
 1012MOL0     O36516  11.113   7.618   9.679 -0.1978 -0.5411 -0.0652
 1012MOL0     C36517  11.070   7.690   9.572  0.1143  0.2595  0.9934
 1012MOL0     C36518  10.953   7.669   9.495 -0.6352  0.0532  0.0995
 1012MOL0     C36519  10.929   7.729   9.375 -0.1991 -0.0634 -0.3547
 1012MOL0     C36520  11.015   7.839   9.342 -0.2554  1.2992  0.5314
 1012MOL0     O36521  10.988   7.895   9.224 -0.5952  1.2703  0.1443
 1012MOL0     C36522  11.032   8.023   9.192 -0.2416 -0.0566 -0.0322
 1012MOL0     C36523  11.022   8.072   9.049 -0.2936  0.1444 -0.2120
 1012MOL0     C36524  10.875   8.097   9.027 -0.1445  0.0969 -0.6507
 1012MOL0     C36525  10.847   8.152   8.889  0.4122  0.5157  0.1868
 1012MOL0     C36526  10.869   8.299   8.870  0.6606  0.6022 -1.2021
 1012MOL0     C36527  10.743   8.382   8.921 -0.4908  0.3567 -0.2482
 1012MOL0     C36528  10.755   8.533   8.950 -0.2064 -0.5936  0.8401
 1012MOL0     C36529  10.803   8.601   8.817 -0.2212 -0.0940  0.4624
 1012MOL0    Cl36530  10.701   8.560   8.680  0.0119 -0.4011  0.1456
 1012MOL0     C36531  11.137   7.870   9.420  0.5957 -0.6506  0.8949
 1012MOL0     C36532  11.160   7.795   9.531  0.7488  0.0753  0.2379
 1012MOL0     O36533  11.026   7.772   9.830  0.7205 -0.7439 -0.6352
 1012MOL0     C36534  11.072   7.583  10.054  0.2257  0.7024 -0.8781
 1012MOL0     C36535  11.123   7.522  10.166 -0.6530  0.9599  0.4638
 1012MOL0     N36536  11.114   7.404  10.766 -0.3888 -0.4986 -0.0067
 1012MOL0     N36537  10.999   7.445  10.779 -0.3768 -0.3143  0.3972
 1012MOL0     C36538  10.940   7.246   9.684  1.1808 -0.5691  0.3653
 1012MOL0     C36539  11.010   7.276   9.571 -0.0301  0.1770  0.0567
 1012MOL0     C36540  11.331   7.204   9.219 -0.0716 -0.0116 -0.5925
 1012MOL0     C36541  11.411   7.129   9.124  0.0127 -0.7213 -0.3547
 1012MOL0     C36542  11.507   7.203   9.057 -0.1761 -0.8559  0.2506
 1012MOL0     C36543  11.523   7.339   9.059 -0.2755 -0.1774  0.3481
 1012MOL0     O36544  11.607   7.416   8.985  0.5776 -0.4325 -0.1422
 1012MOL0     C36545  11.704   7.360   8.895 -0.0877 -0.8724  0.8841
 1012MOL0     C36546  11.818   7.301   8.979 -1.2657 -0.0226 -1.0852
 1012MOL0     C36547  11.881   7.401   9.078 -0.5613  0.4791  1.2213
 1012MOL0     C36548  11.976   7.333   9.181 -0.3631  0.6484  0.7444
 1012MOL0     C36549  12.085   7.262   9.122 -0.5886 -0.0238  0.0793
 1012MOL0     C36550  12.181   7.216   9.071 -0.4110  0.1973  0.5526
 1012MOL0     C36551  11.437   7.412   9.152 -0.5313 -0.1072 -0.9482
 1012MOL0     C36552  11.344   7.349   9.233 -0.3438 -0.0678  0.1961
 1012MOL0     H36553  11.142   6.967   9.506  0.4741  1.8474  1.1557
 1012MOL0     H36554  11.024   6.920   9.702 -3.3233 -0.9424 -0.9808
 1012MOL0     H36555  10.937   6.963  10.004 -0.7018 -0.8153 -0.0145
 1012MOL0     H36556  11.075   7.040   9.926 -0.5498  0.9644 -2.4963
 1012MOL0     H36557  11.037   7.136  10.156 -1.9058  0.1929  0.1920
 1012MOL0     H36558  11.035   7.249  10.031 -1.4038  1.9340 -0.2630
 1012MOL0     H36559  10.791   7.276  10.046 -0.6572  0.2591  1.3974
 1012MOL0     H36560  10.772   7.138  10.153 -0.1544  0.7483  2.7430
 1012MOL0     H36561  10.881   7.255  10.334 -2.6766 -0.8148  0.5365
 1012MOL0     H36562  10.938   7.371  10.221  0.5463 -0.9014 -0.8515
 1012MOL0     H36563  10.692   7.459  10.193 -1.3255 -0.9708 -0.0325
 1012MOL0     H36564  10.645   7.333  10.302  1.3117 -0.7039  0.7961
 1012MOL0     H36565  10.845   7.561  10.355 -0.5691 -0.0878 -2.5288
 1012MOL0     H36566  10.678   7.584  10.377  0.9232 -0.0755 -2.3612
 1012MOL0     H36567  10.663   7.412  10.567 -0.8419  0.3027  1.6192
 1012MOL0     H36568  10.826   7.360  10.518  0.0159  0.4990 -0.2727
 1012MOL0     H36569  10.758   7.487  10.731  0.7554  3.7829  2.5742
 1012MOL0     H36570  10.768   7.636  10.643 -1.8308  0.1461  1.2510
 1012MOL0     H36571  11.055   7.547  10.472  2.5573  1.8676  0.5023
 1012MOL0     H36572  11.361   7.376  10.663  1.9598  0.0909 -1.8163
 1012MOL0     H36573  11.276   7.315  10.508  1.3703 -2.8255  1.0919
 1012MOL0     H36574  11.414   7.574  10.567  1.6950 -2.0936  0.4389
 1012MOL0     H36575  11.283   7.589  10.458 -1.0331 -0.0831  2.0133
 1012MOL0     H36576  11.549   7.449  10.447  1.6208 -0.7300 -2.4871
 1012MOL0     H36577  11.480   7.552  10.327 -0.5280  2.6930  3.5330
 1012MOL0     H36578  11.427   7.267  10.347 -1.4182  1.4366  2.6601
 1012MOL0     H36579  11.475   7.353  10.209 -2.2088 -0.4668 -0.6662
 1012MOL0     H36580  11.358   7.323  10.007 -0.8362 -1.4207 -0.1600
 1012MOL0     H36581  11.407   7.402   9.799 -0.3463 -0.3078  1.6044
 1012MOL0     H36582  11.264   7.384   9.709  1.4840 -0.3965 -0.6845
 1012MOL0     H36583  11.342   7.548   9.733  1.8098 -1.3989 -1.9362
 1012MOL0     H36584  10.888   7.584   9.512  0.4168 -0.7927 -0.0199
 1012MOL0     H36585  10.852   7.684   9.314 -1.5684 -0.0770  1.3021
 1012MOL0     H36586  10.979   8.094   9.257  2.5314  0.2400  2.0752
 1012MOL0     H36587  11.140   8.033   9.204 -0.3231  0.7749  0.0424
 1012MOL0     H36588  11.080   8.165   9.050  2.8727 -1.6548  2.6241
 1012MOL0     H36589  11.072   7.993   8.993 -0.9817 -1.8190  1.7804
 1012MOL0     H36590  10.835   8.148   9.115 -0.9398 -0.1892 -0.8356
 1012MOL0     H36591  10.827   7.999   9.026  0.8311 -0.3791 -1.1032
 1012MOL0     H36592  10.914   8.100   8.820 -1.3782  2.4465 -3.3053
 1012MOL0     H36593  10.745   8.132   8.857  0.7475  2.0851 -2.1466
 1012MOL0     H36594  10.888   8.317   8.764 -0.9396 -1.7371 -1.9532
 1012MOL0     H36595  10.960   8.323   8.926 -0.0747 -0.0862  0.3412
 1012MOL0     H36596  10.662   8.357   8.852 -0.5302 -2.4026  0.7038
 1012MOL0     H36597  10.728   8.335   9.018  1.5915  0.2780  0.0810
 1012MOL0     H36598  10.837   8.537   9.022  1.5308  0.1637 -1.0772
 1012MOL0     H36599  10.659   8.574   8.985 -0.5004 -1.4441  1.0488
 1012MOL0     H36600  10.905   8.568   8.796 -0.0749  0.1120  0.8304
 1012MOL0     H36601  10.809   8.710   8.819  0.6826 -0.1296  0.0672
 1012MOL0     H36602  11.196   7.960   9.410 -1.4982  0.8039  0.9879
 1012MOL0     H36603  11.248   7.822   9.590  1.2261  1.1699 -0.9237
 1012MOL0     H36604  10.985   7.642  10.079  0.7259  1.5676 -1.1345
 1012MOL0     H36605  11.104   7.546  10.270  2.0263 -2.4018  1.8980
 1012MOL0     H36606  10.874   7.305   9.747  1.3740 -0.3648  0.3791
 1012MOL0     H36607  11.010   7.375   9.527 -0.7907 -0.2986 -1.0778
 1012MOL0     H36608  11.396   7.023   9.108  0.1977 -0.4166 -2.9641
 1012MOL0     H36609  11.562   7.144   8.985 -0.2998 -1.5742  0.7379
 1012MOL0     H36610  11.659   7.285   8.829  0.7410  0.8212 -1.7642
 1012MOL0     H36611  11.737   7.440   8.827 -0.1239  0.5759  2.5116
 1012MOL0     H36612  11.895   7.267   8.910 -0.3618 -1.4557  0.5398
 1012MOL0     H36613  11.781   7.215   9.035  0.0850 -1.7505 -2.7317
 1012MOL0     H36614  11.795   7.445   9.130 -0.9072  1.8293 -0.3805
 1012MOL0     H36615  11.924   7.494   9.039  1.2846  0.3574  2.8524
 1012MOL0     H36616  11.924   7.263   9.247  2.4209 -1.9121  0.4626
 1012MOL0     H36617  12.026   7.418   9.227  1.2726  1.2743 -1.9545
 1012MOL0     H36618  12.263   7.171   9.018 -0.3589 -1.4878  1.9519
 1012MOL0     H36619  11.444   7.520   9.153 -1.3469 -0.0353 -1.4932
 1012MOL0     H36620  11.267   7.396   9.293 -0.8547 -0.2832 -0.2898
 1013MOL0     O36621   1.119   5.669   6.370 -0.1686 -0.1070  0.0092
 1013MOL0     C36622   1.173   5.764   6.426 -0.1937 -0.3396  0.7122
 1013MOL0     O36623   1.265   5.850   6.370 -0.6847 -0.2863  0.2259
 1013MOL0     C36624   1.306   5.826   6.240 -0.2423 -0.0234  0.6441
 1013MOL0     C36625   1.342   5.935   6.156 -0.1438 -0.0458 -1.6312
 1013MOL0     C36626   1.400   5.917   6.034 -0.5769  0.4048  0.2671
 1013MOL0     C36627   1.441   5.788   5.984  0.1783  0.2422  0.3184
 1013MOL0     O36628   1.496   5.760   5.862  0.2146 -0.1566 -0.2703
 1013MOL0     C36629   1.517   5.875   5.773  0.7897 -0.9063 -0.5668
 1013MOL0     C36630   1.525   5.830   5.621 -0.1534 -0.2745 -0.1735
 1013MOL0     C36631   1.382   5.799   5.570  1.0811  0.5178  0.7666
 1013MOL0     C36632   1.397   5.703   5.445  0.0004  0.1265 -0.6456
 1013MOL0     C36633   1.257   5.669   5.382 -0.5701  0.5426  0.3425
 1013MOL0     C36634   1.261   5.578   5.259  0.8432  0.0188  0.7792
 1013MOL0     C36635   1.115   5.542   5.214  0.4117  0.2632 -0.0836
 1013MOL0     C36636   1.106   5.458   5.078 -0.8620 -0.4339 -1.0981
 1013MOL0     N36637   0.963   5.417   5.054 -0.4453  0.6967  0.2937
 1013MOL0     C36638   0.901   5.300   5.096 -0.1711  0.0278 -0.1426
 1013MOL0     C36639   0.789   5.290   5.036  0.1378  0.8514 -0.2214
 1013MOL0     C36640   0.689   5.176   5.041  0.6702  0.0126  0.6166
 1013MOL0     C36641   0.616   5.161   5.172 -1.0731  0.2227  0.1809
 1013MOL0     C36642   0.497   5.067   5.163 -0.1362  0.5917 -0.4808
 1013MOL0     C36643   0.536   4.934   5.109  1.2286  0.4922  0.0924
 1013MOL0     O36644   0.414   4.858   5.126 -0.1506 -0.0129  0.1621
 1013MOL0     C36645   0.436   4.728   5.162 -0.0073 -0.0761  0.0309
 1013MOL0     C36646   0.526   4.650   5.094  0.8862  0.8714  0.1526
 1013MOL0     C36647   0.512   4.510   5.100 -0.3052  0.3639 -0.3046
 1013MOL0     C36648   0.631   4.445   5.039  0.5118 -0.0171  0.1627
 1013MOL0     C36649   0.414   4.446   5.174 -0.2933 -0.7604 -0.3835
 1013MOL0     C36650   0.389   4.293   5.172  0.7729 -0.8031 -0.0044
 1013MOL0     O36651   0.301   4.251   5.272  0.0629  0.0196 -0.2804
 1013MOL0     C36652   0.295   4.116   5.292  0.4199  0.5315 -0.0243
 1013MOL0     C36653   0.307   4.071   5.429  1.1911 -0.2431 -0.5535
 1013MOL0     C36654   0.302   3.927   5.453 -1.0442 -0.6946 -0.1245
 1013MOL0     C36655   0.271   3.845   5.354  0.1554 -0.6751 -0.4588
 1013MOL0     O36656   0.258   3.708   5.393  0.0421  0.1312  1.1510
 1013MOL0     C36657   0.302   3.606   5.298 -0.3091  0.5397 -0.2366
 1013MOL0     C36658   0.330   3.476   5.364  0.0388  1.3539 -1.1268
 1013MOL0     C36659   0.202   3.399   5.403  0.6740 -0.1872  0.3433
 1013MOL0     C36660   0.191   3.394   5.558 -0.6317  0.0197 -0.2603
 1013MOL0     C36661   0.288   3.284   5.630  0.1698 -0.3019 -0.7629
 1013MOL0     C36662   0.410   3.233   5.550 -0.5329  0.0583 -0.7085
 1013MOL0     C36663   0.493   3.131   5.638  0.0856 -0.1394  0.7741
 1013MOL0     C36664   0.581   3.039   5.557 -0.9646  0.2336  0.4816
 1013MOL0    Cl36665   0.482   2.906   5.497 -0.4039  0.0615 -0.0090
 1013MOL0     C36666   0.237   3.892   5.220 -1.1774  0.3455 -0.4399
 1013MOL0     C36667   0.249   4.021   5.195 -0.4992 -0.7222  0.3076
 1013MOL0     O36668   0.440   4.221   5.084 -0.8000  0.7577 -0.2413
 1013MOL0     C36669   0.335   4.528   5.249  0.1981  0.6093  0.0865
 1013MOL0     C36670   0.343   4.667   5.249 -0.5712  0.2526  0.4412
 1013MOL0     N36671   0.770   5.414   4.975 -0.1302 -0.0922 -0.6540
 1013MOL0     N36672   0.875   5.494   4.985  0.3233  1.0757 -0.0744
 1013MOL0     C36673   1.409   5.679   6.068  0.7385  0.5790 -0.0841
 1013MOL0     C36674   1.353   5.698   6.198 -0.0798 -0.0735  0.5871
 1013MOL0     C36675   1.150   5.771   6.572 -0.5067  0.7240  1.2032
 1013MOL0     C36676   1.083   5.666   6.637 -0.2071  0.0719 -0.6277
 1013MOL0     C36677   1.069   5.676   6.780  0.0742  0.4381  0.5865
 1013MOL0     C36678   1.114   5.784   6.852 -0.5613 -0.3135 -0.5194
 1013MOL0     O36679   1.107   5.797   6.990 -0.4876  0.8962 -0.7013
 1013MOL0     C36680   1.043   5.682   7.057 -1.2273 -0.4470 -0.1999
 1013MOL0     C36681   1.032   5.717   7.203 -0.6785  0.4913 -0.9240
 1013MOL0     C36682   1.014   5.859   7.238  0.7672 -0.7015 -0.3423
 1013MOL0     C36683   1.012   5.885   7.392  0.0097 -0.9605  0.0481
 1013MOL0     C36684   1.141   5.945   7.432 -0.0353  1.3476 -0.0535
 1013MOL0     C36685   1.249   5.992   7.454  0.1676  0.3078 -0.1294
 1013MOL0     C36686   1.176   5.887   6.786  0.7470 -0.1056  0.7446
 1013MOL0     C36687   1.196   5.884   6.645 -0.2543  0.2270 -0.9237
 1013MOL0     H36688   1.301   6.026   6.198 -1.4550 -0.8094 -1.2127
 1013MOL0     H36689   1.427   6.011   5.986  0.3743 -0.1218 -0.2685
 1013MOL0     H36690   1.433   5.945   5.782  1.4298 -0.0218 -1.3827
 1013MOL0     H36691   1.610   5.926   5.796  0.4576 -0.5179 -0.0537
 1013MOL0     H36692   1.546   5.928   5.577 -3.5065  0.9081  0.5297
 1013MOL0     H36693   1.585   5.740   5.605  2.5417  1.1312  1.2272
 1013MOL0     H36694   1.322   5.747   5.646 -0.7435  0.1353 -0.8423
 1013MOL0     H36695   1.324   5.890   5.556 -1.5360 -0.7789  2.3729
 1013MOL0     H36696   1.447   5.776   5.379 -2.3662  3.0978  0.5762
 1013MOL0     H36697   1.446   5.609   5.469 -1.5905 -0.2303  1.4782
 1013MOL0     H36698   1.196   5.623   5.461 -0.6773 -0.5371 -0.3610
 1013MOL0     H36699   1.215   5.763   5.343 -1.5896 -0.2705 -0.5790
 1013MOL0     H36700   1.319   5.627   5.181 -0.7718  0.5592 -0.1428
 1013MOL0     H36701   1.313   5.482   5.266  2.2611  0.5639 -1.3613
 1013MOL0     H36702   1.066   5.489   5.296 -1.0350  0.4476 -0.7941
 1013MOL0     H36703   1.055   5.632   5.196 -4.0588 -2.1849  1.1658
 1013MOL0     H36704   1.157   5.361   5.081  0.9449  0.5062 -0.0623
 1013MOL0     H36705   1.154   5.518   5.000 -1.6634  2.0020  0.1950
 1013MOL0     H36706   0.962   5.229   5.151  0.3101  0.7351  0.2313
 1013MOL0     H36707   0.608   5.179   4.967 -0.4684 -0.3608  1.7942
 1013MOL0     H36708   0.746   5.083   5.031 -1.0136 -0.9563 -0.4176
 1013MOL0     H36709   0.569   5.258   5.192 -3.5345  0.1830 -4.1802
 1013MOL0     H36710   0.695   5.147   5.246 -2.1060  1.4735  1.6015
 1013MOL0     H36711   0.410   5.115   5.119 -0.5649  0.9618  0.7446
 1013MOL0     H36712   0.459   5.043   5.263 -1.9236  0.9642 -1.0378
 1013MOL0     H36713   0.628   4.893   5.150  0.5541 -2.7195 -1.2810
 1013MOL0     H36714   0.547   4.953   5.002  2.6759  4.1122  0.7292
 1013MOL0     H36715   0.616   4.676   5.038  1.8519 -1.2378  0.6346
 1013MOL0     H36716   0.594   4.412   4.942  0.8995  0.6721 -0.2240
 1013MOL0     H36717   0.722   4.501   5.016  1.5501 -1.9648 -0.7199
 1013MOL0     H36718   0.669   4.355   5.089 -1.3468 -0.0750  1.5964
 1013MOL0     H36719   0.333   4.153   5.495 -1.5116  1.1039 -1.0236
 1013MOL0     H36720   0.325   3.874   5.545 -0.2987 -1.1669 -0.5695
 1013MOL0     H36721   0.217   3.599   5.230 -1.9154 -0.6322  1.7615
 1013MOL0     H36722   0.387   3.645   5.242 -0.3460 -3.3194 -3.4543
 1013MOL0     H36723   0.377   3.423   5.280  1.8307  0.6894  0.2217
 1013MOL0     H36724   0.399   3.486   5.449 -3.4811 -1.5650  2.4956
 1013MOL0     H36725   0.198   3.304   5.348  3.0264 -1.3102  1.9464
 1013MOL0     H36726   0.117   3.453   5.360 -1.8097 -4.8565 -1.4676
 1013MOL0     H36727   0.233   3.485   5.602  0.8147 -0.6080 -0.2678
 1013MOL0     H36728   0.086   3.389   5.588 -0.0471 -0.2564  1.8942
 1013MOL0     H36729   0.234   3.192   5.654  0.6703 -0.3469  0.2454
 1013MOL0     H36730   0.322   3.336   5.720 -1.8408  3.2678 -1.8475
 1013MOL0     H36731   0.376   3.186   5.457  0.8649 -0.9808 -0.7245
 1013MOL0     H36732   0.477   3.313   5.518  2.4565 -2.5678 -1.4563
 1013MOL0     H36733   0.417   3.071   5.689 -2.2926 -0.4506 -2.7535
 1013MOL0     H36734   0.546   3.184   5.718 -0.3329  0.5316  0.6218
 1013MOL0     H36735   0.653   3.008   5.634 -1.2717 -2.5780 -0.2866
 1013MOL0     H36736   0.635   3.094   5.480  1.4906 -1.5266  0.8194
 1013MOL0     H36737   0.184   3.836   5.144 -5.1571  0.6188  1.8661
 1013MOL0     H36738   0.223   4.053   5.094  2.9864  0.7261 -0.2837
 1013MOL0     H36739   0.249   4.482   5.296  1.3493 -1.3578  0.3947
 1013MOL0     H36740   0.277   4.725   5.313 -1.2958  0.0987 -0.1528
 1013MOL0     H36741   1.433   5.578   6.035  0.7952  0.3072  0.7604
 1013MOL0     H36742   1.346   5.617   6.270 -0.3506  0.4311  1.1344
 1013MOL0     H36743   1.044   5.574   6.595 -1.7147 -0.4622  1.7454
 1013MOL0     H36744   1.026   5.588   6.826  1.7381 -0.6783  0.0910
 1013MOL0     H36745   0.943   5.667   7.015 -0.7794 -4.1510 -0.2866
 1013MOL0     H36746   1.102   5.591   7.043  0.5514  0.5386  0.5848
 1013MOL0     H36747   1.127   5.694   7.252 -1.1455  1.3966  0.4828
 1013MOL0     H36748   0.962   5.652   7.256  1.4458  0.2616  1.8806
 1013MOL0     H36749   0.915   5.889   7.203  0.9513  0.4114  0.0548
 1013MOL0     H36750   1.090   5.915   7.183 -0.6073  1.3874 -0.2251
 1013MOL0     H36751   1.005   5.790   7.445 -1.2002 -1.9254 -1.7698
 1013MOL0     H36752   0.925   5.942   7.427  1.1522 -0.4516  2.2766
 1013MOL0     H36753   1.347   6.029   7.477  1.1535 -2.9873  1.7146
 1013MOL0     H36754   1.219   5.963   6.852  1.5494 -1.2126  1.5252
 1013MOL0     H36755   1.255   5.965   6.603  2.9469 -1.2523  0.4502
 1014MOL0     O36756   3.571  10.260   3.474  0.0049 -0.2403 -0.1384
 1014MOL0     C36757   3.458  10.299   3.507  0.0394  0.4130 -0.1382
 1014MOL0     O36758   3.408  10.431   3.512 -0.7091  0.5619  0.0039
 1014MOL0     C36759   3.497  10.530   3.506  0.4076 -0.7588 -0.6186
 1014MOL0     C36760   3.606  10.544   3.417 -0.1611  0.5383  0.3787
 1014MOL0     C36761   3.688  10.664   3.417 -0.2738  0.3864  0.5166
 1014MOL0     C36762   3.645  10.775   3.489 -1.2334 -0.4561  0.5746
 1014MOL0     O36763   3.723  10.890   3.483  0.0899  0.2114 -0.7009
 1014MOL0     C36764   3.651  11.006   3.442 -0.1479 -0.5294 -0.1743
 1014MOL0     C36765   3.700  11.066   3.310 -0.1140  0.3488 -0.3403
 1014MOL0     C36766   3.850  11.090   3.324  0.6707  0.6041 -0.7575
 1014MOL0     C36767   3.920  11.183   3.215 -1.1394  1.2783 -0.4865
 1014MOL0     C36768   3.909  11.123   3.077  1.1080  0.5352 -0.4167
 1014MOL0     C36769   3.930  11.222   2.963  0.4614  0.7844 -0.0423
 1014MOL0     C36770   4.067  11.266   2.940 -0.6860 -0.1402 -0.7377
 1014MOL0     C36771   4.073  11.351   2.815 -0.7877 -0.2412  1.1583
 1014MOL0     N36772   4.211  11.383   2.782 -0.4579 -0.1459  0.4946
 1014MOL0     C36773   4.315  11.399   2.874  0.1574  0.6645 -1.0862
 1014MOL0     C36774   4.426  11.399   2.798  0.2853  0.0898 -0.0772
 1014MOL0     C36775   4.558  11.422   2.867  0.0700 -0.1665 -0.1041
 1014MOL0     C36776   4.670  11.398   2.773  0.1326 -1.1797 -0.9545
 1014MOL0     C36777   4.792  11.469   2.805  0.0520 -0.3848 -0.1517
 1014MOL0     C36778   4.826  11.465   2.960 -0.1196  0.8238  0.1233
 1014MOL0     O36779   4.960  11.523   2.977 -0.7869 -0.0134  0.0850
 1014MOL0     C36780   5.068  11.437   2.998 -0.3689 -0.4229 -0.0252
 1014MOL0     C36781   5.169  11.412   2.903  0.6680 -0.0796 -0.6756
 1014MOL0     C36782   5.280  11.337   2.929  0.1514  0.7613 -0.8481
 1014MOL0     C36783   5.350  11.301   2.800 -0.4657 -0.3691 -0.0796
 1014MOL0     C36784   5.285  11.266   3.053 -1.1590  0.5821  1.1228
 1014MOL0     C36785   5.387  11.161   3.070 -0.9599 -0.6320  0.9816
 1014MOL0     O36786   5.406  11.112   3.195  0.0496 -0.6314  0.4067
 1014MOL0     C36787   5.480  11.000   3.218 -0.4250  0.2863 -0.7313
 1014MOL0     C36788   5.430  10.875   3.197  0.5902  2.0771 -0.9662
 1014MOL0     C36789   5.506  10.760   3.239 -0.0758 -0.6292  0.0438
 1014MOL0     C36790   5.627  10.770   3.303  0.1541 -1.0499 -0.8757
 1014MOL0     O36791   5.701  10.661   3.352  0.3896  0.4843  0.3469
 1014MOL0     C36792   5.633  10.541   3.387 -0.2831 -0.4565 -0.2051
 1014MOL0     C36793   5.520  10.562   3.491 -0.8027  0.8946  0.3026
 1014MOL0     C36794   5.556  10.642   3.624  0.1782  0.2191 -0.9993
 1014MOL0     C36795   5.617  10.553   3.723 -0.3670 -0.2718 -1.2855
 1014MOL0     C36796   5.646  10.643   3.847  0.5619  0.1765  0.3347
 1014MOL0     C36797   5.685  10.545   3.965 -0.0173 -0.0266  0.2479
 1014MOL0     C36798   5.715  10.616   4.095  0.2529 -0.5572 -0.7549
 1014MOL0     C36799   5.842  10.683   4.097 -0.3872  0.3173  0.4410
 1014MOL0    Cl36800   5.978  10.566   4.045  0.2358 -0.3981 -0.0575
 1014MOL0     C36801   5.684  10.902   3.312  1.1215  0.5411  0.2961
 1014MOL0     C36802   5.609  11.010   3.267 -0.5195  0.0718 -0.5177
 1014MOL0     O36803   5.445  11.110   2.978  0.2867 -0.3228  0.6444
 1014MOL0     C36804   5.190  11.300   3.155 -0.7849  0.5620  0.0942
 1014MOL0     C36805   5.089  11.389   3.126  0.1062  0.5540  0.2888
 1014MOL0     N36806   4.390  11.396   2.667  0.1822 -1.0737  0.8617
 1014MOL0     N36807   4.261  11.394   2.658  0.1408 -0.8760  0.5197
 1014MOL0     C36808   3.533  10.758   3.569  0.2422  0.3959 -0.1028
 1014MOL0     C36809   3.456  10.644   3.579 -0.0419  0.7155 -0.4653
 1014MOL0     C36810   3.365  10.197   3.560 -0.0427 -1.5638 -1.0567
 1014MOL0     C36811   3.262  10.232   3.647  0.1504 -0.9725 -1.0574
 1014MOL0     C36812   3.175  10.132   3.708  0.1169  0.5053  1.1131
 1014MOL0     C36813   3.184   9.998   3.655 -1.6133  0.3286 -0.0092
 1014MOL0     O36814   3.089   9.906   3.692 -0.2825 -0.9009  0.6383
 1014MOL0     C36815   3.140   9.816   3.783 -0.1450 -0.4454  0.1720
 1014MOL0     C36816   3.102   9.867   3.928  0.3847  0.1767  0.5920
 1014MOL0     C36817   3.077   9.746   4.029  0.2339 -0.6584  0.9151
 1014MOL0     C36818   3.077   9.789   4.183  0.3692  0.5018  0.0223
 1014MOL0     C36819   3.202   9.810   4.245 -0.2434 -0.9707 -0.6192
 1014MOL0     C36820   3.319   9.832   4.286 -0.2507 -0.9597 -0.6227
 1014MOL0     C36821   3.280   9.965   3.560  0.2509 -0.3403 -0.4331
 1014MOL0     C36822   3.374  10.065   3.514 -0.7011 -0.5309 -0.9868
 1014MOL0     H36823   3.619  10.455   3.356 -0.5290  0.1204  0.9024
 1014MOL0     H36824   3.776  10.647   3.356 -0.2113 -1.5794  1.0562
 1014MOL0     H36825   3.545  10.985   3.432 -0.5439  1.1366  0.1963
 1014MOL0     H36826   3.670  11.082   3.519  0.7949  0.2222 -1.1131
 1014MOL0     H36827   3.688  10.995   3.228  0.3453  0.2459 -0.3221
 1014MOL0     H36828   3.656  11.165   3.303  2.1858  2.0046  4.2068
 1014MOL0     H36829   3.862  11.146   3.417 -1.4833  1.3955 -0.9153
 1014MOL0     H36830   3.905  10.996   3.336 -3.2942 -1.7527  0.7299
 1014MOL0     H36831   3.865  11.277   3.223 -1.4971  1.1171 -0.9376
 1014MOL0     H36832   4.024  11.187   3.247 -1.1874 -1.2434  0.2355
 1014MOL0     H36833   3.980  11.039   3.077 -0.3584 -0.7658 -0.0905
 1014MOL0     H36834   3.809  11.078   3.073 -0.0403  2.9445 -4.6069
 1014MOL0     H36835   3.888  11.164   2.880 -2.5220  1.3413  0.9579
 1014MOL0     H36836   3.859  11.305   2.966  0.1090  0.4679  0.5464
 1014MOL0     H36837   4.090  11.332   3.024  0.5064 -0.2772 -0.9351
 1014MOL0     H36838   4.134  11.180   2.932 -2.5973 -2.0792  2.2254
 1014MOL0     H36839   4.019  11.445   2.828  1.0234  1.0293 -0.0870
 1014MOL0     H36840   4.030  11.302   2.727 -2.9281  0.1356  1.9233
 1014MOL0     H36841   4.311  11.415   2.981  0.9901  0.8864 -1.0818
 1014MOL0     H36842   4.562  11.526   2.900  2.1383 -0.0014 -0.7604
 1014MOL0     H36843   4.566  11.361   2.957  1.3421  1.3674  0.8629
 1014MOL0     H36844   4.640  11.433   2.674 -0.6652  0.4589 -0.1821
 1014MOL0     H36845   4.679  11.289   2.771 -0.5132 -1.2340 -3.0956
 1014MOL0     H36846   4.774  11.567   2.759 -2.5796 -1.1984 -1.0711
 1014MOL0     H36847   4.871  11.422   2.745  0.8349  0.5864  0.0992
 1014MOL0     H36848   4.828  11.362   2.996  2.0043  0.6672 -0.3292
 1014MOL0     H36849   4.745  11.524   3.004  0.2100  1.7496 -0.4774
 1014MOL0     H36850   5.146  11.436   2.800  2.8017 -3.0362 -1.9720
 1014MOL0     H36851   5.309  11.344   2.708  2.9502  3.0725 -0.2334
 1014MOL0     H36852   5.455  11.329   2.800 -0.4600 -0.3896  0.0940
 1014MOL0     H36853   5.342  11.193   2.786  0.0446 -0.6970  1.8952
 1014MOL0     H36854   5.337  10.865   3.143  0.5685 -2.0472 -0.4652
 1014MOL0     H36855   5.470  10.658   3.224 -3.1229  0.0176  1.9306
 1014MOL0     H36856   5.597  10.484   3.301 -0.6237 -3.3982  1.7418
 1014MOL0     H36857   5.716  10.484   3.430  0.5846  0.5803 -0.4690
 1014MOL0     H36858   5.432  10.610   3.445 -3.2513 -0.1429  3.5222
 1014MOL0     H36859   5.489  10.461   3.518 -2.5043  1.0151 -0.9654
 1014MOL0     H36860   5.460  10.688   3.650 -0.5948 -0.7710 -2.0066
 1014MOL0     H36861   5.629  10.719   3.596 -3.3399  3.6321 -1.8278
 1014MOL0     H36862   5.554  10.471   3.758 -0.1680 -0.4711 -1.3836
 1014MOL0     H36863   5.701  10.499   3.678  1.1678 -2.2978  3.4252
 1014MOL0     H36864   5.562  10.697   3.889 -0.8171 -1.7140  0.1584
 1014MOL0     H36865   5.722  10.722   3.841 -0.6069  1.3026  0.1318
 1014MOL0     H36866   5.598  10.483   3.988  0.4459 -0.2522  1.4315
 1014MOL0     H36867   5.772  10.492   3.926 -0.2641 -1.7722  1.9234
 1014MOL0     H36868   5.712  10.546   4.180 -1.6703 -0.1835 -0.4860
 1014MOL0     H36869   5.644  10.694   4.123  1.1710  0.8201 -2.1612
 1014MOL0     H36870   5.871  10.700   4.201  1.5513 -0.8393  0.1359
 1014MOL0     H36871   5.844  10.773   4.034  1.5273 -2.1898 -3.4145
 1014MOL0     H36872   5.781  10.926   3.355  0.8935 -0.5624  1.4787
 1014MOL0     H36873   5.660  11.104   3.285  1.1786 -0.4524 -2.1915
 1014MOL0     H36874   5.208  11.244   3.246  0.7757  2.3487  0.9734
 1014MOL0     H36875   5.014  11.405   3.203  0.9127 -1.1161  1.4670
 1014MOL0     H36876   3.484  10.837   3.624 -1.7524 -0.6129 -0.3213
 1014MOL0     H36877   3.364  10.651   3.635 -0.9541 -0.0707 -1.8106
 1014MOL0     H36878   3.255  10.335   3.680 -1.2598 -1.8578  1.7297
 1014MOL0     H36879   3.091  10.171   3.765 -0.8113  2.5811 -1.4816
 1014MOL0     H36880   3.095   9.720   3.755  2.5956 -1.2046 -2.1895
 1014MOL0     H36881   3.248   9.804   3.767 -0.2351  1.3643 -2.4545
 1014MOL0     H36882   3.011   9.929   3.931  0.1399 -0.2044  3.0481
 1014MOL0     H36883   3.182   9.935   3.956 -0.7418  1.8674 -0.1004
 1014MOL0     H36884   3.145   9.662   4.015  0.4226 -0.1571 -1.5704
 1014MOL0     H36885   2.981   9.699   4.004  1.1793 -1.8647 -0.6200
 1014MOL0     H36886   3.038   9.705   4.242  1.1785  0.2080  0.1493
 1014MOL0     H36887   3.027   9.885   4.200  0.6735  0.6786 -0.0779
 1014MOL0     H36888   3.415   9.845   4.331  0.7526 -3.7654 -1.7889
 1014MOL0     H36889   3.289   9.865   3.517  0.8941 -0.2734 -0.4636
 1014MOL0     H36890   3.458  10.046   3.448  2.1782  4.3645  0.7565
 1015MOL0     O36891   2.655   1.234   1.288  0.6151  0.4375 -0.0875
 1015MOL0     C36892   2.757   1.169   1.320  0.2450  0.4325  0.6389
 1015MOL0     O36893   2.799   1.057   1.255  0.1788  0.6722  0.3091
 1015MOL0     C36894   2.701   0.986   1.187 -0.5249 -0.3756  0.2454
 1015MOL0     C36895   2.571   0.960   1.245 -0.6331 -0.2382  0.5957
 1015MOL0     C36896   2.484   0.872   1.172  0.1358  0.4377 -0.2770
 1015MOL0     C36897   2.525   0.808   1.053  0.2479 -0.1436  0.6395
 1015MOL0     O36898   2.436   0.718   1.001  0.5043 -0.8991 -0.7612
 1015MOL0     C36899   2.467   0.656   0.876  1.6413 -0.5667  0.2395
 1015MOL0     C36900   2.337   0.593   0.828 -0.1989  0.4420  0.0003
 1015MOL0     C36901   2.244   0.692   0.767 -0.8969 -0.2420 -0.4242
 1015MOL0     C36902   2.113   0.627   0.724  0.3577  0.1641  0.1953
 1015MOL0     C36903   2.002   0.734   0.705  0.5891 -0.3046  1.0402
 1015MOL0     C36904   1.876   0.686   0.651 -0.3889 -0.2762  0.0748
 1015MOL0     C36905   1.761   0.800   0.654 -0.4296 -0.5509 -0.8591
 1015MOL0     C36906   1.671   0.789   0.531 -0.0228  0.2258  0.0058
 1015MOL0     N36907   1.745   0.793   0.404 -0.1620  0.1737 -1.3253
 1015MOL0     C36908   1.850   0.872   0.366  0.5251  0.5685 -0.4883
 1015MOL0     C36909   1.884   0.821   0.248  0.3685  0.4828 -0.3058
 1015MOL0     C36910   1.986   0.876   0.150  0.2052 -0.3369 -0.2400
 1015MOL0     C36911   2.130   0.815   0.184 -0.7591 -0.7164  0.3317
 1015MOL0     C36912   2.205   0.881   0.300 -0.3149 -0.0862  0.6898
 1015MOL0     C36913   2.328   0.816   0.360 -0.1384 -0.1889 -0.2703
 1015MOL0     O36914   2.391   0.897   0.457  0.4098 -0.4341  0.4052
 1015MOL0     C36915   2.507   0.849   0.516  0.2940  0.0832  0.4036
 1015MOL0     C36916   2.539   0.715   0.521  0.1579 -0.0670  0.3859
 1015MOL0     C36917   2.667   0.669   0.566  0.9518  0.1670 -0.5413
 1015MOL0     C36918   2.693   0.523   0.561  0.5931  0.3134 -0.0074
 1015MOL0     C36919   2.761   0.761   0.618  1.2156 -0.1276 -0.2538
 1015MOL0     C36920   2.897   0.727   0.670  0.3227  1.1336  0.1319
 1015MOL0     O36921   2.933   0.794   0.778 -0.4546 -0.4575  0.0450
 1015MOL0     C36922   3.065   0.805   0.819  1.2186 -0.2344 -0.6663
 1015MOL0     C36923   3.128   0.705   0.887  0.2881  0.2487 -0.6706
 1015MOL0     C36924   3.266   0.695   0.894  0.0553 -0.7156 -0.5917
 1015MOL0     C36925   3.341   0.803   0.846  0.0502 -0.1668  0.2118
 1015MOL0     O36926   3.474   0.788   0.849  0.1398 -0.1834  0.1702
 1015MOL0     C36927   3.566   0.865   0.764 -0.4646  0.1165  0.5213
 1015MOL0     C36928   3.694   0.789   0.802 -0.3319 -0.1361 -0.5377
 1015MOL0     C36929   3.693   0.654   0.741  0.2035  0.0593 -0.3126
 1015MOL0     C36930   3.749   0.650   0.604 -1.0655  0.8358 -0.5437
 1015MOL0     C36931   3.742   0.501   0.547 -0.2922 -0.1351  0.4707
 1015MOL0     C36932   3.826   0.493   0.425 -1.2907 -0.5456  0.4462
 1015MOL0     C36933   3.811   0.353   0.365  0.2702  0.0707  0.2617
 1015MOL0     C36934   3.699   0.361   0.251  0.2527 -0.6863  0.2752
 1015MOL0    Cl36935   3.706   0.229   0.132 -0.0636  0.3706  0.3469
 1015MOL0     C36936   3.273   0.916   0.791  0.4809  0.6403 -0.9707
 1015MOL0     C36937   3.142   0.911   0.781 -0.3005  0.1954  0.1761
 1015MOL0     O36938   2.968   0.649   0.608  0.2398 -0.3259 -0.0361
 1015MOL0     C36939   2.724   0.898   0.616 -1.0301  0.1667 -0.4709
 1015MOL0     C36940   2.602   0.936   0.566 -0.5875 -0.7759 -1.7918
 1015MOL0     N36941   1.794   0.713   0.208 -0.1325 -0.2058  0.0074
 1015MOL0     N36942   1.709   0.701   0.305 -0.4442  0.9852 -0.2876
 1015MOL0     C36943   2.661   0.828   1.001 -0.3959 -0.8935 -0.3173
 1015MOL0     C36944   2.742   0.916   1.072  0.0975  0.2655 -0.5174
 1015MOL0     C36945   2.826   1.224   1.445 -0.3483 -0.4971  0.9272
 1015MOL0     C36946   2.934   1.164   1.509 -0.5671  0.6912 -0.2068
 1015MOL0     C36947   2.994   1.216   1.620  0.3079  0.2835 -0.3556
 1015MOL0     C36948   2.942   1.341   1.672  0.2161  0.2504  0.8282
 1015MOL0     O36949   3.004   1.400   1.778  0.0459 -0.0286 -0.0847
 1015MOL0     C36950   3.112   1.482   1.748  1.2888 -0.7436  0.9347
 1015MOL0     C36951   3.217   1.454   1.859 -0.6568  0.7781  0.3085
 1015MOL0     C36952   3.327   1.569   1.872  0.0154 -0.3439 -1.1880
 1015MOL0     C36953   3.420   1.602   1.757 -0.0454 -0.1389  0.1649
 1015MOL0     C36954   3.358   1.663   1.641 -0.0719 -0.1694  0.5136
 1015MOL0     C36955   3.301   1.740   1.569  1.0636 -0.1892 -0.5654
 1015MOL0     C36956   2.832   1.403   1.614 -0.2230  0.6481 -1.1820
 1015MOL0     C36957   2.779   1.349   1.503 -0.2346  0.2573  0.0581
 1015MOL0     H36958   2.540   0.997   1.342 -0.9288 -0.1255  0.4584
 1015MOL0     H36959   2.391   0.851   1.223 -1.5354  3.1201 -2.0092
 1015MOL0     H36960   2.504   0.739   0.815 -0.4593 -0.7091 -1.3371
 1015MOL0     H36961   2.540   0.574   0.886 -2.1757 -4.4728 -0.9546
 1015MOL0     H36962   2.372   0.520   0.753 -0.2953  1.1972 -0.7927
 1015MOL0     H36963   2.286   0.534   0.904 -4.2120  1.2653 -1.8094
 1015MOL0     H36964   2.228   0.781   0.828  1.7971 -1.4127  2.2024
 1015MOL0     H36965   2.289   0.725   0.673  1.6619 -1.0252  0.4383
 1015MOL0     H36966   2.128   0.570   0.632  2.0537 -0.0490  0.5709
 1015MOL0     H36967   2.076   0.560   0.804  2.3299 -2.0004 -0.5800
 1015MOL0     H36968   1.987   0.775   0.806  0.2984 -2.2880  1.8408
 1015MOL0     H36969   2.045   0.813   0.642  1.6262 -1.4485  0.2708
 1015MOL0     H36970   1.882   0.654   0.547 -1.2596  2.3295 -0.8416
 1015MOL0     H36971   1.849   0.603   0.717  0.5158 -0.6075  0.0393
 1015MOL0     H36972   1.706   0.801   0.749 -2.0637  2.5851 -1.7010
 1015MOL0     H36973   1.808   0.899   0.661 -2.6476  0.4917  0.3017
 1015MOL0     H36974   1.611   0.880   0.541 -0.6787 -0.2857  0.9193
 1015MOL0     H36975   1.596   0.710   0.540  0.2722  0.0314  0.9005
 1015MOL0     H36976   1.900   0.958   0.410  1.7599 -1.1823  1.7773
 1015MOL0     H36977   1.955   0.844   0.050  1.1828 -1.2703 -0.2764
 1015MOL0     H36978   1.981   0.985   0.153  3.8926 -0.0723  1.2852
 1015MOL0     H36979   2.195   0.807   0.097  0.9537 -2.1253  1.6769
 1015MOL0     H36980   2.117   0.713   0.221  0.6729  0.1956  3.6881
 1015MOL0     H36981   2.136   0.903   0.382 -0.5216  1.4009  0.1488
 1015MOL0     H36982   2.242   0.977   0.263  0.5925 -0.0870  1.5395
 1015MOL0     H36983   2.393   0.808   0.273  0.0623  1.6551 -0.3405
 1015MOL0     H36984   2.295   0.723   0.407  0.2647  0.1131  0.6351
 1015MOL0     H36985   2.463   0.645   0.488 -1.9485  1.6862  1.2193
 1015MOL0     H36986   2.761   0.491   0.481 -2.3956  0.8274 -2.9757
 1015MOL0     H36987   2.729   0.495   0.660  1.1545 -0.3970 -0.3950
 1015MOL0     H36988   2.598   0.470   0.553 -0.9470  2.3651  3.0315
 1015MOL0     H36989   3.067   0.618   0.907  1.0397 -0.4851 -1.5221
 1015MOL0     H36990   3.318   0.615   0.946 -0.9748  2.1805  5.8911
 1015MOL0     H36991   3.541   0.859   0.658  0.6865 -1.8796  0.3194
 1015MOL0     H36992   3.566   0.966   0.807  2.1707  0.3273  0.1558
 1015MOL0     H36993   3.786   0.844   0.779 -0.2748  1.4027  2.7822
 1015MOL0     H36994   3.708   0.777   0.910 -3.5210 -5.3996 -0.3389
 1015MOL0     H36995   3.591   0.616   0.737 -0.0098  0.7313 -1.9778
 1015MOL0     H36996   3.748   0.585   0.806 -0.4039 -2.2119 -2.0958
 1015MOL0     H36997   3.700   0.715   0.531 -1.7006 -0.6829 -1.5253
 1015MOL0     H36998   3.856   0.673   0.609 -0.1476 -2.8930  3.7749
 1015MOL0     H36999   3.639   0.485   0.513 -0.2443 -3.3542  1.4575
 1015MOL0     H37000   3.759   0.434   0.632 -0.9937  2.2865  2.6227
 1015MOL0     H37001   3.791   0.573   0.358  0.4306  1.9199  2.3100
 1015MOL0     H37002   3.925   0.516   0.463 -2.5013  2.7759  2.0462
 1015MOL0     H37003   3.762   0.287   0.436 -1.7761  0.6979 -0.4863
 1015MOL0     H37004   3.906   0.312   0.332 -0.8552 -2.8169  0.3401
 1015MOL0     H37005   3.712   0.445   0.182 -2.8010  1.8747  2.4987
 1015MOL0     H37006   3.598   0.365   0.293  0.2275 -2.7517  0.5190
 1015MOL0     H37007   3.325   1.009   0.769 -0.3225  1.0793 -1.0641
 1015MOL0     H37008   3.112   1.004   0.734  1.2802 -0.9184 -3.3428
 1015MOL0     H37009   2.788   0.971   0.665  0.7584 -0.0794 -2.3461
 1015MOL0     H37010   2.582   1.042   0.553 -1.5048 -0.3729  1.8047
 1015MOL0     H37011   2.684   0.772   0.910 -0.1755  0.2750 -0.9957
 1015MOL0     H37012   2.844   0.909   1.036  0.2580 -0.3994  0.0561
 1015MOL0     H37013   2.978   1.073   1.469  0.6728  2.1149 -2.2746
 1015MOL0     H37014   3.066   1.167   1.684 -2.2382 -1.3760  1.4545
 1015MOL0     H37015   3.132   1.470   1.641  0.9043  1.7677  0.5310
 1015MOL0     H37016   3.072   1.582   1.765  1.0223 -0.6580 -0.1202
 1015MOL0     H37017   3.271   1.362   1.838  1.3358  2.5175 -3.0150
 1015MOL0     H37018   3.166   1.451   1.956 -0.8187  1.0597  0.2334
 1015MOL0     H37019   3.394   1.543   1.955  0.7353 -2.0739 -2.2469
 1015MOL0     H37020   3.270   1.660   1.892 -0.3979 -0.6695 -0.8697
 1015MOL0     H37021   3.461   1.504   1.730  1.3219 -0.0199  1.6323
 1015MOL0     H37022   3.502   1.670   1.783  0.3627 -0.3432 -0.5509
 1015MOL0     H37023   3.259   1.817   1.506 -0.4379  0.2911  0.9463
 1015MOL0     H37024   2.792   1.495   1.654 -0.7398 -0.2596  0.5112
 1015MOL0     H37025   2.705   1.405   1.447  0.7600 -1.4510 -3.2261
 1016MOL0     O37026   7.811   5.782   7.354  0.1759  0.4023 -0.3607
 1016MOL0     C37027   7.848   5.811   7.242 -0.4064 -0.1696  0.1831
 1016MOL0     O37028   7.887   5.721   7.141  0.8958 -0.4286 -0.1008
 1016MOL0     C37029   7.854   5.591   7.167 -0.0551  0.5265  0.4905
 1016MOL0     C37030   7.952   5.506   7.207 -0.0734  0.7279 -0.0402
 1016MOL0     C37031   7.929   5.371   7.237 -0.2873  0.2189 -0.9411
 1016MOL0     C37032   7.798   5.323   7.235 -0.0664  0.7126 -0.0689
 1016MOL0     O37033   7.775   5.198   7.273  0.3937  0.6762 -0.6008
 1016MOL0     C37034   7.691   5.189   7.393 -0.0483  0.4031  0.3068
 1016MOL0     C37035   7.712   5.049   7.458  0.0074 -0.1036  0.6764
 1016MOL0     C37036   7.826   5.037   7.564 -0.4179 -0.5794 -0.4298
 1016MOL0     C37037   7.846   4.900   7.615 -0.4459  0.1106  0.0022
 1016MOL0     C37038   7.967   4.864   7.699 -0.0120 -0.8576 -0.7396
 1016MOL0     C37039   7.951   4.710   7.747 -0.4500 -0.1891  0.6495
 1016MOL0     C37040   8.073   4.672   7.836  0.5513 -0.2108  0.4262
 1016MOL0     C37041   8.034   4.577   7.952  0.3748 -0.1753  0.6311
 1016MOL0     N37042   7.955   4.460   7.912  0.3030  0.2549 -0.8478
 1016MOL0     C37043   7.816   4.454   7.913  0.0256  1.0086 -0.4572
 1016MOL0     C37044   7.786   4.329   7.861  1.1127  1.1221 -0.4174
 1016MOL0     C37045   7.645   4.285   7.844  0.3237 -0.1885  0.2057
 1016MOL0     C37046   7.551   4.380   7.763  0.2144  0.0184  0.7473
 1016MOL0     C37047   7.598   4.382   7.617  1.0562 -0.3402  0.0550
 1016MOL0     C37048   7.656   4.523   7.561 -0.5148  0.9746  0.5710
 1016MOL0     O37049   7.615   4.647   7.624  0.0809  0.8078 -0.0908
 1016MOL0     C37050   7.485   4.688   7.597 -0.3990  0.1070 -0.9634
 1016MOL0     C37051   7.398   4.645   7.493 -0.2370 -0.5073 -0.4421
 1016MOL0     C37052   7.268   4.704   7.474 -0.0332  0.3979 -0.2776
 1016MOL0     C37053   7.187   4.645   7.363 -0.8129 -0.6048 -0.2127
 1016MOL0     C37054   7.222   4.801   7.563  0.0144 -0.9305  0.2753
 1016MOL0     C37055   7.087   4.880   7.554 -0.3700  0.0492  0.5490
 1016MOL0     O37056   6.994   4.841   7.458 -0.4930 -0.0728 -1.1531
 1016MOL0     C37057   6.893   4.925   7.440  0.3787 -0.0747 -0.6594
 1016MOL0     C37058   6.894   5.000   7.320  0.1112  0.0643  1.0661
 1016MOL0     C37059   6.792   5.086   7.285 -0.4299  0.3239  0.1100
 1016MOL0     C37060   6.676   5.101   7.368 -1.2481  0.8186 -0.1503
 1016MOL0     O37061   6.578   5.195   7.349 -0.2345 -0.6335  0.1914
 1016MOL0     C37062   6.570   5.262   7.218  0.7317 -0.0952 -0.8211
 1016MOL0     C37063   6.447   5.359   7.202 -0.1570 -0.3197  0.0561
 1016MOL0     C37064   6.388   5.360   7.065 -0.0534  0.4675 -0.4561
 1016MOL0     C37065   6.251   5.427   7.049  0.0054 -0.0676 -0.2388
 1016MOL0     C37066   6.131   5.378   7.124 -0.0268 -0.1630 -0.0513
 1016MOL0     C37067   6.100   5.239   7.080  0.2215  0.5671  0.4537
 1016MOL0     C37068   5.981   5.185   7.157 -0.4615  0.4374  0.9570
 1016MOL0     C37069   5.934   5.063   7.079 -0.5242  0.3741 -0.9440
 1016MOL0    Cl37070   5.820   4.971   7.170  0.1958 -0.6042 -0.0601
 1016MOL0     C37071   6.672   5.016   7.482  0.5159 -0.5839  0.3663
 1016MOL0     C37072   6.780   4.925   7.517  0.1338 -0.4027  0.4213
 1016MOL0     O37073   7.087   4.992   7.611 -0.1316  0.3369  0.4036
 1016MOL0     C37074   7.309   4.836   7.668  0.0371 -0.0463 -0.2035
 1016MOL0     C37075   7.434   4.777   7.684 -1.4535 -0.3667  0.1602
 1016MOL0     N37076   7.912   4.260   7.844  0.0614  0.3253  0.1983
 1016MOL0     N37077   8.011   4.336   7.877  0.3203  0.6055 -0.4883
 1016MOL0     C37078   7.703   5.409   7.192  0.3457  0.6639 -0.1718
 1016MOL0     C37079   7.730   5.543   7.149  0.1609 -0.7021  0.0769
 1016MOL0     C37080   7.862   5.950   7.197  0.2945  0.1379  0.5568
 1016MOL0     C37081   7.902   5.986   7.062 -0.1945  0.4788  0.0599
 1016MOL0     C37082   7.908   6.124   7.025 -1.3577  0.1663 -0.3635
 1016MOL0     C37083   7.885   6.220   7.127  0.6983 -0.4125  0.5977
 1016MOL0     O37084   7.916   6.347   7.078 -0.2592 -0.3484 -0.9150
 1016MOL0     C37085   8.060   6.374   7.072 -0.7282  0.0272 -0.0190
 1016MOL0     C37086   8.124   6.371   7.211  0.1448  0.9098  0.8361
 1016MOL0     C37087   8.039   6.465   7.293 -0.0686 -0.0618 -0.3420
 1016MOL0     C37088   8.122   6.505   7.417 -0.0192  0.7035 -0.6334
 1016MOL0     C37089   8.030   6.566   7.511  0.6248  0.1657 -0.3804
 1016MOL0     C37090   7.973   6.640   7.588 -0.1255 -0.0750 -0.4526
 1016MOL0     C37091   7.823   6.188   7.249 -0.5329 -0.1914 -0.0819
 1016MOL0     C37092   7.823   6.057   7.281 -0.0954 -0.0001  0.2508
 1016MOL0     H37093   8.049   5.550   7.227 -0.0538  1.9258 -2.3439
 1016MOL0     H37094   8.002   5.302   7.280  2.3807  1.8545 -2.5427
 1016MOL0     H37095   7.706   5.266   7.469  1.1254  0.8825 -0.3949
 1016MOL0     H37096   7.584   5.192   7.370 -0.1051  1.4198  0.6617
 1016MOL0     H37097   7.611   5.032   7.498 -1.2818  2.1536 -1.3362
 1016MOL0     H37098   7.723   4.981   7.373  0.2227  2.2752 -1.2973
 1016MOL0     H37099   7.922   5.072   7.523  1.0437 -1.7103  1.7996
 1016MOL0     H37100   7.808   5.105   7.647 -0.0871  0.6064 -1.2955
 1016MOL0     H37101   7.757   4.865   7.667 -0.1294  1.9149  1.8552
 1016MOL0     H37102   7.850   4.823   7.536  0.0339 -2.1189  2.0696
 1016MOL0     H37103   8.062   4.885   7.650 -0.6020 -1.9780 -2.4372
 1016MOL0     H37104   7.954   4.921   7.792 -0.4978 -1.7934 -0.2229
 1016MOL0     H37105   7.855   4.690   7.796 -1.1607  0.0490 -0.5722
 1016MOL0     H37106   7.956   4.657   7.651  6.0345 -0.0524  0.5019
 1016MOL0     H37107   8.157   4.634   7.777  1.0287 -1.7810  2.0417
 1016MOL0     H37108   8.109   4.758   7.893  0.1874 -0.0607  0.4387
 1016MOL0     H37109   7.972   4.637   8.020  0.1470  1.0333 -0.5816
 1016MOL0     H37110   8.124   4.539   8.000  0.3258 -0.0547  0.8197
 1016MOL0     H37111   7.742   4.530   7.937  2.0220  1.7133  4.7025
 1016MOL0     H37112   7.655   4.189   7.793  2.6503  0.7515 -1.2568
 1016MOL0     H37113   7.597   4.273   7.941 -1.8971 -1.1807 -0.9438
 1016MOL0     H37114   7.534   4.479   7.807 -2.5024 -0.7653  1.6871
 1016MOL0     H37115   7.454   4.330   7.756  0.0087  0.7065 -2.6814
 1016MOL0     H37116   7.510   4.355   7.558  0.8470 -2.0488  1.0647
 1016MOL0     H37117   7.669   4.300   7.598  1.1716  0.0710 -1.4207
 1016MOL0     H37118   7.652   4.541   7.453  2.3623  2.8651  0.6762
 1016MOL0     H37119   7.762   4.503   7.575 -0.7232 -1.2632 -0.6256
 1016MOL0     H37120   7.425   4.568   7.421 -2.1736 -1.9421  0.2865
 1016MOL0     H37121   7.183   4.723   7.286 -2.1168 -0.0149  0.4276
 1016MOL0     H37122   7.238   4.556   7.324  3.8870  0.8483  1.8014
 1016MOL0     H37123   7.088   4.611   7.393 -1.4953  1.1684 -0.2965
 1016MOL0     H37124   6.982   5.004   7.257 -1.3855  3.1522 -1.1307
 1016MOL0     H37125   6.808   5.142   7.193 -1.4813  0.3099 -0.0913
 1016MOL0     H37126   6.649   5.332   7.191  0.7206  1.1455  2.0303
 1016MOL0     H37127   6.557   5.182   7.144 -2.0837 -0.1490 -0.3961
 1016MOL0     H37128   6.369   5.327   7.271  0.9971  0.5431  1.8540
 1016MOL0     H37129   6.482   5.460   7.227 -1.9115  0.1857  0.5737
 1016MOL0     H37130   6.378   5.256   7.033 -1.6612  0.4955 -0.1055
 1016MOL0     H37131   6.467   5.406   7.006  0.0967  0.8705  0.0521
 1016MOL0     H37132   6.264   5.532   7.075  0.5325 -0.9708  3.7057
 1016MOL0     H37133   6.222   5.422   6.943 -2.6599  0.7298  0.3740
 1016MOL0     H37134   6.043   5.443   7.121  0.0629  0.0701  1.5120
 1016MOL0     H37135   6.160   5.375   7.230 -0.7218 -0.7534  0.1279
 1016MOL0     H37136   6.087   5.238   6.971 -0.1155 -0.4066  0.4885
 1016MOL0     H37137   6.185   5.171   7.091 -0.6313 -0.3218  1.9005
 1016MOL0     H37138   5.904   5.260   7.177 -0.7267  0.1245  1.1263
 1016MOL0     H37139   6.015   5.154   7.256 -1.0702  3.9077  2.3880
 1016MOL0     H37140   6.021   4.999   7.065  1.1823  2.3894 -0.0798
 1016MOL0     H37141   5.904   5.101   6.981  1.8769  0.6406 -1.6186
 1016MOL0     H37142   6.581   5.024   7.539  0.5265  2.8603  0.0830
 1016MOL0     H37143   6.778   4.852   7.597  2.1319 -1.5838 -0.5321
 1016MOL0     H37144   7.276   4.906   7.744 -2.7134 -1.7874  0.3490
 1016MOL0     H37145   7.496   4.803   7.769  2.4348  3.1081 -3.2633
 1016MOL0     H37146   7.611   5.363   7.158  1.5321 -0.5768 -1.8674
 1016MOL0     H37147   7.666   5.615   7.099  1.4750 -0.7584 -1.7880
 1016MOL0     H37148   7.927   5.915   6.983 -1.4547  2.1772 -1.9826
 1016MOL0     H37149   7.938   6.159   6.927  3.3658 -1.3742  0.2789
 1016MOL0     H37150   8.100   6.300   7.003 -3.6612 -0.3131 -1.5301
 1016MOL0     H37151   8.072   6.470   7.021 -0.5127  0.7282  1.3039
 1016MOL0     H37152   8.229   6.398   7.202  0.7206 -1.5251 -0.7527
 1016MOL0     H37153   8.112   6.265   7.239  2.3651  0.1223 -0.9205
 1016MOL0     H37154   7.953   6.408   7.329 -0.0562  0.6761  0.9102
 1016MOL0     H37155   8.003   6.556   7.243 -1.7781 -1.6756 -2.2284
 1016MOL0     H37156   8.197   6.582   7.399 -0.4904  0.5010 -4.1324
 1016MOL0     H37157   8.160   6.414   7.464  0.9502 -0.8756 -4.1384
 1016MOL0     H37158   7.923   6.693   7.666  1.9028 -0.5709  1.2591
 1016MOL0     H37159   7.800   6.271   7.315 -1.7511  1.3684 -2.3668
 1016MOL0     H37160   7.806   6.032   7.385  0.5070 -0.5965  0.2111
 1017MOL0     O37161   5.375   4.991   4.823 -0.0107 -0.1597  0.5658
 1017MOL0     C37162   5.339   4.940   4.722 -0.3372 -0.5767  0.3252
 1017MOL0     O37163   5.207   4.936   4.687 -0.2749  0.3805 -0.0290
 1017MOL0     C37164   5.108   5.024   4.739  0.6103 -0.2193 -0.2062
 1017MOL0     C37165   5.135   5.141   4.813  0.0439 -0.0851 -0.0639
 1017MOL0     C37166   5.043   5.237   4.851 -0.7812 -0.1826  0.0703
 1017MOL0     C37167   4.903   5.214   4.820 -0.9633 -0.3732  0.6858
 1017MOL0     O37168   4.811   5.314   4.843 -0.4839 -0.8479 -0.4058
 1017MOL0     C37169   4.854   5.452   4.869 -0.0342  0.0990  0.1977
 1017MOL0     C37170   4.758   5.555   4.818  0.5247 -0.1302  0.1605
 1017MOL0     C37171   4.734   5.548   4.661 -0.0836  0.0483  1.3564
 1017MOL0     C37172   4.657   5.443   4.598  0.5542 -0.5073  0.5675
 1017MOL0     C37173   4.634   5.450   4.447 -0.0932 -0.3488  0.6892
 1017MOL0     C37174   4.520   5.541   4.406  0.4526 -0.6994 -0.2013
 1017MOL0     C37175   4.559   5.623   4.276 -0.7362  0.1771  0.2935
 1017MOL0     C37176   4.446   5.707   4.229 -0.3153 -0.4014 -0.5289
 1017MOL0     N37177   4.435   5.827   4.305 -0.5261  0.4456 -0.4827
 1017MOL0     C37178   4.428   5.956   4.244 -0.1411  0.7669  0.0560
 1017MOL0     C37179   4.391   6.040   4.340  1.0541 -0.2891  0.6210
 1017MOL0     C37180   4.362   6.193   4.334 -0.1899 -0.1229 -0.2487
 1017MOL0     C37181   4.242   6.235   4.417 -0.7870  0.2689  0.0781
 1017MOL0     C37182   4.233   6.388   4.437 -0.2905 -0.2624  0.1566
 1017MOL0     C37183   4.152   6.460   4.324  0.8738  0.3318  0.5015
 1017MOL0     O37184   4.033   6.385   4.283 -0.5862 -0.7464  0.3686
 1017MOL0     C37185   3.929   6.374   4.367 -0.0183  0.5289 -0.2185
 1017MOL0     C37186   3.902   6.448   4.484 -0.1566  0.6417 -0.3964
 1017MOL0     C37187   3.779   6.449   4.556 -0.9538  0.9454 -0.5083
 1017MOL0     C37188   3.767   6.535   4.667  0.5414  0.3390  0.0438
 1017MOL0     C37189   3.670   6.364   4.506 -0.0685  0.3951  0.8776
 1017MOL0     C37190   3.532   6.350   4.566 -1.0832 -0.4175  0.7814
 1017MOL0     O37191   3.475   6.464   4.614  0.1277 -0.0336 -0.1778
 1017MOL0     C37192   3.369   6.452   4.700 -0.4576  0.6415  0.7376
 1017MOL0     C37193   3.401   6.481   4.830  0.0265 -0.5017  0.0938
 1017MOL0     C37194   3.297   6.512   4.925 -0.3390  0.0915  0.0449
 1017MOL0     C37195   3.165   6.469   4.889 -0.8712 -0.4471 -1.0858
 1017MOL0     O37196   3.059   6.482   4.976 -0.5404 -0.4940 -0.3908
 1017MOL0     C37197   3.086   6.498   5.113  0.6789 -0.6708  0.2764
 1017MOL0     C37198   2.953   6.503   5.191  0.3851 -0.2377  0.2328
 1017MOL0     C37199   2.983   6.562   5.332 -0.6198 -0.2072 -0.5617
 1017MOL0     C37200   2.884   6.535   5.445  0.1071 -0.3140  0.9056
 1017MOL0     C37201   2.953   6.543   5.592  0.6567 -0.4798  0.5870
 1017MOL0     C37202   2.852   6.514   5.702  0.1595  1.2394 -0.0913
 1017MOL0     C37203   2.739   6.614   5.735 -0.9604  0.0686 -0.5200
 1017MOL0     C37204   2.727   6.614   5.885  0.3444 -0.6953 -1.3245
 1017MOL0    Cl37205   2.637   6.750   5.947 -0.1099 -0.1342 -0.2218
 1017MOL0     C37206   3.138   6.430   4.761 -0.1227 -0.2745 -0.5417
 1017MOL0     C37207   3.238   6.419   4.664 -0.0819  0.0157 -0.0374
 1017MOL0     O37208   3.484   6.241   4.570  0.5158  0.2476  0.1367
 1017MOL0     C37209   3.696   6.277   4.391 -0.3184 -0.2096 -0.1980
 1017MOL0     C37210   3.828   6.281   4.326  1.8221  0.7167 -0.1285
 1017MOL0     N37211   4.370   5.965   4.459  0.0779 -0.2908 -0.0883
 1017MOL0     N37212   4.410   5.840   4.440 -1.0242 -1.0515  0.6028
 1017MOL0     C37213   4.874   5.092   4.754 -0.3553 -0.5166 -0.2264
 1017MOL0     C37214   4.966   5.000   4.719  0.6647  0.9119 -0.5183
 1017MOL0     C37215   5.437   4.863   4.637  0.7198 -0.7763 -0.9695
 1017MOL0     C37216   5.400   4.802   4.515  1.1616 -0.3972  0.4229
 1017MOL0     C37217   5.487   4.721   4.439  0.4970 -1.0900  0.6994
 1017MOL0     C37218   5.617   4.691   4.486 -0.4598  0.3533  0.4271
 1017MOL0     O37219   5.711   4.609   4.424  0.0621 -0.7424 -0.1278
 1017MOL0     C37220   5.718   4.606   4.285  0.8265 -0.6751 -0.0740
 1017MOL0     C37221   5.849   4.530   4.246  0.7216 -0.5649  1.0977
 1017MOL0     C37222   5.977   4.619   4.244  0.8975  1.5427 -0.0510
 1017MOL0     C37223   6.095   4.538   4.179 -0.7160  1.0612 -0.8722
 1017MOL0     C37224   6.150   4.436   4.268  0.8523 -0.2030  0.1561
 1017MOL0     C37225   6.197   4.348   4.333 -0.9067  0.2008 -0.0278
 1017MOL0     C37226   5.650   4.741   4.614 -0.0415 -0.0679  1.0458
 1017MOL0     C37227   5.559   4.826   4.688 -0.5233 -0.6531 -0.5073
 1017MOL0     H37228   5.237   5.177   4.814  0.8491 -2.0156 -2.7379
 1017MOL0     H37229   5.072   5.334   4.891 -0.2566 -1.1262  2.0890
 1017MOL0     H37230   4.878   5.467   4.975 -0.9193 -1.6094  0.6871
 1017MOL0     H37231   4.951   5.461   4.819  2.0187 -0.9253  3.6515
 1017MOL0     H37232   4.663   5.536   4.869 -0.2050  0.7526 -0.8170
 1017MOL0     H37233   4.800   5.650   4.852  0.3949 -0.3622  0.9877
 1017MOL0     H37234   4.691   5.643   4.628 -0.2329 -0.6454 -0.5879
 1017MOL0     H37235   4.837   5.532   4.628 -0.0141  1.0161  1.0720
 1017MOL0     H37236   4.701   5.346   4.622  1.5661 -0.1517  0.1698
 1017MOL0     H37237   4.553   5.445   4.634  0.2773  1.0214 -0.2189
 1017MOL0     H37238   4.731   5.485   4.410  0.9273 -2.4914  1.1686
 1017MOL0     H37239   4.610   5.351   4.405 -0.4567 -0.1926  0.5254
 1017MOL0     H37240   4.431   5.478   4.400  0.6463 -1.1125  0.9996
 1017MOL0     H37241   4.487   5.612   4.481 -1.9792 -0.0576 -1.7633
 1017MOL0     H37242   4.644   5.690   4.289 -2.0116  1.6971  1.1982
 1017MOL0     H37243   4.587   5.555   4.195  0.8438  3.3335 -2.0021
 1017MOL0     H37244   4.354   5.647   4.226  0.1854 -1.1584 -1.2657
 1017MOL0     H37245   4.468   5.736   4.125  1.8188 -0.7781 -0.2163
 1017MOL0     H37246   4.451   5.989   4.144 -1.5558  1.1962 -0.1574
 1017MOL0     H37247   4.458   6.243   4.350 -0.0746 -1.0852  2.6324
 1017MOL0     H37248   4.341   6.215   4.229 -3.5251 -3.4263 -0.4873
 1017MOL0     H37249   4.254   6.191   4.517 -1.0419 -3.9124 -1.5703
 1017MOL0     H37250   4.149   6.190   4.380 -1.5475 -0.9430  3.1163
 1017MOL0     H37251   4.332   6.430   4.459  0.7551 -3.3945  1.9954
 1017MOL0     H37252   4.178   6.396   4.531  0.2010 -1.5568  0.5735
 1017MOL0     H37253   4.221   6.461   4.239  0.9834  1.2048  0.5880
 1017MOL0     H37254   4.121   6.561   4.352  1.7044  0.4155  1.1464
 1017MOL0     H37255   3.980   6.510   4.528  0.0893  0.8040 -1.0566
 1017MOL0     H37256   3.862   6.546   4.720  1.1575  1.1877 -1.1741
 1017MOL0     H37257   3.743   6.636   4.632  0.7251  0.0427 -0.9763
 1017MOL0     H37258   3.694   6.507   4.744  0.9929  3.9459  2.0055
 1017MOL0     H37259   3.504   6.499   4.857 -0.0990  0.9489 -0.3554
 1017MOL0     H37260   3.331   6.545   5.023  3.2403 -3.2626  0.1964
 1017MOL0     H37261   3.168   6.429   5.134  1.5963  1.0314  2.7116
 1017MOL0     H37262   3.123   6.599   5.132  0.1366 -0.2996 -0.5939
 1017MOL0     H37263   2.881   6.570   5.144  2.0358  1.0941 -0.4839
 1017MOL0     H37264   2.919   6.400   5.206 -0.5615 -0.0078 -0.2712
 1017MOL0     H37265   3.002   6.670   5.323 -2.4834  0.0792 -1.6206
 1017MOL0     H37266   3.077   6.511   5.355 -0.4341 -0.4928 -1.8367
 1017MOL0     H37267   2.806   6.610   5.431  0.4354 -0.4466 -2.6428
 1017MOL0     H37268   2.836   6.437   5.434 -1.0498  0.2850  0.4392
 1017MOL0     H37269   2.999   6.642   5.594  0.9076 -0.5998  0.7258
 1017MOL0     H37270   3.023   6.460   5.607 -0.5448 -1.8408 -0.8755
 1017MOL0     H37271   2.794   6.431   5.660 -0.5641  2.2700 -1.1844
 1017MOL0     H37272   2.911   6.476   5.786  1.8171  0.0087 -1.7237
 1017MOL0     H37273   2.652   6.583   5.676 -1.1520  2.3336 -1.5170
 1017MOL0     H37274   2.767   6.717   5.712 -1.7308  0.3980 -0.0351
 1017MOL0     H37275   2.824   6.598   5.933 -0.1578 -3.2353 -1.0236
 1017MOL0     H37276   2.673   6.529   5.927  4.4427 -2.2823  1.2581
 1017MOL0     H37277   3.039   6.413   4.720 -0.9615  1.6728  0.5582
 1017MOL0     H37278   3.197   6.393   4.567 -1.7528  2.1337  0.0136
 1017MOL0     H37279   3.624   6.202   4.361  1.3453 -1.9814  0.0665
 1017MOL0     H37280   3.829   6.220   4.236  1.8358  1.3889 -0.5982
 1017MOL0     H37281   4.772   5.072   4.722  0.1207 -0.3829 -1.9145
 1017MOL0     H37282   4.931   4.914   4.662 -1.8810  1.8255 -0.4729
 1017MOL0     H37283   5.300   4.821   4.478  2.1615  1.0109 -1.8096
 1017MOL0     H37284   5.451   4.697   4.340 -0.3818  4.7243 -0.7615
 1017MOL0     H37285   5.627   4.554   4.253 -0.4085 -0.0551  2.1875
 1017MOL0     H37286   5.716   4.698   4.225 -0.5390 -1.3697 -1.1546
 1017MOL0     H37287   5.827   4.505   4.142 -4.6606  1.2401  1.4848
 1017MOL0     H37288   5.853   4.433   4.296 -1.1899 -1.9150 -1.1952
 1017MOL0     H37289   5.991   4.635   4.352 -2.6348 -2.9877  1.4332
 1017MOL0     H37290   5.973   4.714   4.190 -0.0282  1.8973  0.6058
 1017MOL0     H37291   6.174   4.603   4.139  3.9265 -1.4602  3.0758
 1017MOL0     H37292   6.048   4.483   4.098 -1.3138 -0.5029  0.4790
 1017MOL0     H37293   6.237   4.263   4.385 -2.4948 -2.2465 -2.5444
 1017MOL0     H37294   5.741   4.710   4.665  0.7110  2.5739  1.5045
 1017MOL0     H37295   5.580   4.858   4.790 -1.2969 -3.5874  0.7065
 1018MOL0     O37296   1.621   9.823   8.266 -0.0834  0.3140  0.4026
 1018MOL0     C37297   1.661   9.714   8.227  0.4984 -0.6428 -0.7309
 1018MOL0     O37298   1.741   9.693   8.122 -0.6095 -0.9987  0.2690
 1018MOL0     C37299   1.783   9.794   8.040 -0.6990  1.0255  0.1662
 1018MOL0     C37300   1.720   9.906   8.011  0.4266  0.5583  1.0429
 1018MOL0     C37301   1.781  10.001   7.917  0.2658 -0.1429 -0.5398
 1018MOL0     C37302   1.903   9.970   7.855  0.1868 -0.0177 -0.4787
 1018MOL0     O37303   1.960  10.061   7.771  0.5487 -0.6692  0.1740
 1018MOL0     C37304   2.039  10.009   7.664  1.0840 -0.0103 -0.4157
 1018MOL0     C37305   2.086  10.126   7.576 -0.6242  0.6192 -0.0445
 1018MOL0     C37306   1.973  10.208   7.527 -0.1528  0.4072  0.1726
 1018MOL0     C37307   2.012  10.352   7.489  0.1561 -0.5465  0.5933
 1018MOL0     C37308   2.109  10.357   7.367 -1.0772  0.3878  0.3709
 1018MOL0     C37309   2.057  10.341   7.220  0.5159  0.0503  0.4950
 1018MOL0     C37310   2.123  10.227   7.150 -0.1233 -0.1233 -0.2723
 1018MOL0     C37311   2.067  10.240   7.006 -0.1968  0.3068 -0.6590
 1018MOL0     N37312   2.105  10.135   6.902 -0.7492 -0.5419 -0.3719
 1018MOL0     C37313   2.028  10.026   6.867  0.1680 -0.1514 -0.4495
 1018MOL0     C37314   2.085   9.976   6.756  0.4540  0.4361  0.5977
 1018MOL0     C37315   2.055   9.855   6.665  0.0642  0.1042  0.3220
 1018MOL0     C37316   2.006   9.734   6.752 -0.2936 -0.6298 -0.3728
 1018MOL0     C37317   2.116   9.648   6.823 -0.4221  0.3561 -0.2677
 1018MOL0     C37318   2.178   9.725   6.944  0.6522  0.3658  0.2186
 1018MOL0     O37319   2.070   9.752   7.036  0.4439 -0.1881  0.2085
 1018MOL0     C37320   2.130   9.756   7.154 -0.6792 -0.2845 -0.6848
 1018MOL0     C37321   2.137   9.643   7.231  0.1883 -0.4465  0.1428
 1018MOL0     C37322   2.215   9.650   7.352 -0.4018 -0.6002  0.3152
 1018MOL0     C37323   2.216   9.521   7.436 -0.2524 -0.2089  0.0982
 1018MOL0     C37324   2.289   9.768   7.387 -1.2295 -0.5755  0.0561
 1018MOL0     C37325   2.380   9.786   7.504 -0.7418  0.7413 -0.6471
 1018MOL0     O37326   2.426   9.907   7.523 -1.1224 -0.3746 -0.2003
 1018MOL0     C37327   2.507   9.930   7.631 -0.2680  0.2258  0.0604
 1018MOL0     C37328   2.645   9.913   7.612  0.0164 -0.1485  0.2715
 1018MOL0     C37329   2.726   9.923   7.725 -0.1383 -0.4062 -0.4109
 1018MOL0     C37330   2.670   9.953   7.850 -0.1206  0.7295  0.2523
 1018MOL0     O37331   2.748   9.949   7.965  0.2420 -0.6648  0.2430
 1018MOL0     C37332   2.694   9.918   8.095 -0.0388  0.2137  0.6981
 1018MOL0     C37333   2.798   9.877   8.194  0.9990  0.0761 -0.0179
 1018MOL0     C37334   2.741   9.877   8.341 -0.0780 -0.7777 -0.0308
 1018MOL0     C37335   2.850   9.847   8.441  0.0750  0.2077 -0.4442
 1018MOL0     C37336   2.808   9.870   8.588 -0.2871  0.0201  0.3466
 1018MOL0     C37337   2.705   9.764   8.636  0.6270  0.4501 -0.0943
 1018MOL0     C37338   2.633   9.826   8.753  0.4651  0.1332 -0.3958
 1018MOL0     C37339   2.523   9.735   8.817  1.2191 -0.0107 -0.2206
 1018MOL0    Cl37340   2.365   9.726   8.715  0.2597 -0.6779 -0.0615
 1018MOL0     C37341   2.543   9.977   7.862  0.2381  0.0560  1.0535
 1018MOL0     C37342   2.456   9.974   7.753  0.0158  1.4379  0.2948
 1018MOL0     O37343   2.429   9.688   7.564 -0.0011  0.3640 -0.3170
 1018MOL0     C37344   2.280   9.878   7.307  0.0641  0.3927  0.5307
 1018MOL0     C37345   2.211   9.866   7.185 -0.5508  0.3337 -0.3512
 1018MOL0     N37346   2.203  10.040   6.734 -0.6491  0.5985 -0.4728
 1018MOL0     N37347   2.219  10.132   6.823  0.2845 -0.2415  0.9750
 1018MOL0     C37348   1.952   9.844   7.874 -0.5266  0.3112  0.6848
 1018MOL0     C37349   1.893   9.762   7.960 -0.2725 -1.2612 -0.0700
 1018MOL0     C37350   1.596   9.586   8.287  0.0932 -0.7996  0.9675
 1018MOL0     C37351   1.494   9.589   8.383  0.2967  0.0210 -0.6361
 1018MOL0     C37352   1.431   9.469   8.421 -0.3495  0.1698  0.8783
 1018MOL0     C37353   1.479   9.348   8.381 -0.3416 -0.8536 -0.2178
 1018MOL0     O37354   1.422   9.230   8.429  0.1637  0.2499 -0.4584
 1018MOL0     C37355   1.433   9.103   8.354  0.0335 -0.3565 -0.0152
 1018MOL0     C37356   1.350   9.108   8.227 -1.4947 -0.5074 -0.3728
 1018MOL0     C37357   1.201   9.097   8.260 -0.5482  0.0102 -0.4145
 1018MOL0     C37358   1.150   8.954   8.307 -0.1989 -0.3371 -1.0939
 1018MOL0     C37359   1.227   8.837   8.259 -0.5925 -0.3415  0.1143
 1018MOL0     C37360   1.280   8.737   8.199 -0.3953 -0.2011 -1.2152
 1018MOL0     C37361   1.586   9.344   8.291 -0.1335  0.1189  0.6772
 1018MOL0     C37362   1.635   9.459   8.240  0.0537 -0.8245 -0.0413
 1018MOL0     H37363   1.625   9.936   8.056 -0.7779 -2.0100  0.4154
 1018MOL0     H37364   1.735  10.098   7.901  1.0372  0.7893  2.3662
 1018MOL0     H37365   2.126   9.969   7.716 -0.7675 -1.3534  1.8346
 1018MOL0     H37366   1.991   9.938   7.596  1.2192 -0.5862  0.0840
 1018MOL0     H37367   2.156  10.187   7.634 -1.8394  0.8140  1.2700
 1018MOL0     H37368   2.125  10.074   7.488 -3.2013  1.4113 -1.7527
 1018MOL0     H37369   1.920  10.162   7.443 -1.6555  0.2577  1.1745
 1018MOL0     H37370   1.896  10.217   7.603 -1.0217 -0.6769 -0.5400
 1018MOL0     H37371   1.916  10.404   7.475  0.6843  0.1507 -0.5533
 1018MOL0     H37372   2.061  10.388   7.580  0.5288  1.5956 -0.3757
 1018MOL0     H37373   2.156  10.456   7.369 -0.7768  0.2467  0.2497
 1018MOL0     H37374   2.191  10.286   7.384 -2.1123 -0.3801  2.4948
 1018MOL0     H37375   1.949  10.320   7.224  0.7275 -1.1784  0.4044
 1018MOL0     H37376   2.065  10.436   7.166  1.6252  1.8326  3.5774
 1018MOL0     H37377   2.227  10.260   7.145 -1.0257  3.0130 -1.6982
 1018MOL0     H37378   2.113  10.130   7.198  2.8275 -0.7476 -0.7537
 1018MOL0     H37379   2.096  10.338   6.969 -3.0084  0.9352 -1.4315
 1018MOL0     H37380   1.958  10.241   7.015 -0.2340  1.2057 -1.1018
 1018MOL0     H37381   1.939   9.993   6.920 -1.0115 -0.3708 -2.4843
 1018MOL0     H37382   1.979   9.889   6.594  1.0566 -0.7510 -1.2121
 1018MOL0     H37383   2.135   9.829   6.595  0.0171 -1.0792  0.6785
 1018MOL0     H37384   1.955   9.662   6.688 -0.9640  1.9317 -2.9349
 1018MOL0     H37385   1.932   9.754   6.830 -1.2663  1.5521 -1.7697
 1018MOL0     H37386   2.198   9.624   6.754 -0.2355  2.3105 -0.8003
 1018MOL0     H37387   2.082   9.560   6.878 -2.1775  2.9561  3.1378
 1018MOL0     H37388   2.205   9.825   6.909  0.9558 -0.1965 -1.2444
 1018MOL0     H37389   2.263   9.665   6.979 -0.0703 -1.0642 -0.3928
 1018MOL0     H37390   2.081   9.558   7.195 -0.0411 -0.2850  0.1149
 1018MOL0     H37391   2.204   9.535   7.544  0.0969 -0.7396  0.2095
 1018MOL0     H37392   2.132   9.452   7.423  0.3204 -0.7591 -0.7283
 1018MOL0     H37393   2.307   9.463   7.420  1.0166  1.3790  1.1797
 1018MOL0     H37394   2.684   9.871   7.519 -1.1859 -3.9930  1.2850
 1018MOL0     H37395   2.834   9.911   7.723 -0.4085 -3.8871 -2.6808
 1018MOL0     H37396   2.637  10.000   8.140 -1.4997 -0.9637  1.1108
 1018MOL0     H37397   2.624   9.837   8.071 -0.0713  0.5297 -0.3038
 1018MOL0     H37398   2.826   9.773   8.181  2.5748  0.4461  0.2530
 1018MOL0     H37399   2.880   9.949   8.186 -0.7621  2.4425  1.8132
 1018MOL0     H37400   2.661   9.803   8.351 -0.1407 -0.7876 -0.5670
 1018MOL0     H37401   2.696   9.971   8.373  2.2858 -0.7724  3.8533
 1018MOL0     H37402   2.879   9.742   8.431 -2.1468 -0.7150  1.8358
 1018MOL0     H37403   2.938   9.909   8.420 -1.7488  2.2822 -2.4318
 1018MOL0     H37404   2.761   9.969   8.582 -0.7312 -0.2452 -0.8833
 1018MOL0     H37405   2.891   9.884   8.657 -0.7026  1.4793  0.5903
 1018MOL0     H37406   2.633   9.741   8.557  1.3258  0.2770 -0.7004
 1018MOL0     H37407   2.757   9.674   8.669 -1.1481  0.3416  2.7362
 1018MOL0     H37408   2.590   9.922   8.720  1.8262  0.5965 -0.8832
 1018MOL0     H37409   2.702   9.840   8.836 -1.5601 -1.5370  1.7189
 1018MOL0     H37410   2.496   9.767   8.918 -0.4426 -0.7793 -0.3811
 1018MOL0     H37411   2.567   9.636   8.832  0.9976 -0.0955 -0.1192
 1018MOL0     H37412   2.503  10.004   7.959  4.2986 -1.6382  3.4494
 1018MOL0     H37413   2.353  10.007   7.757 -0.7833 -0.8889  0.6646
 1018MOL0     H37414   2.331   9.974   7.317  0.0206  1.2285 -4.5965
 1018MOL0     H37415   2.229   9.944   7.112  1.0479 -2.5554 -3.3078
 1018MOL0     H37416   2.050   9.830   7.830  0.7264  2.2371  2.6828
 1018MOL0     H37417   1.940   9.669   7.991 -0.3244 -1.1309  0.4049
 1018MOL0     H37418   1.457   9.676   8.438  2.0534 -0.8043  2.0783
 1018MOL0     H37419   1.352   9.472   8.495  0.4881  0.6491  1.7730
 1018MOL0     H37420   1.539   9.079   8.341  0.4084  2.3229 -3.3546
 1018MOL0     H37421   1.395   9.030   8.425  0.6759 -1.7455 -1.0625
 1018MOL0     H37422   1.381   9.037   8.150 -0.0530 -0.9295  0.5643
 1018MOL0     H37423   1.373   9.210   8.196 -3.0089  0.8819  2.7121
 1018MOL0     H37424   1.149   9.105   8.165  0.3283 -0.2933 -0.9273
 1018MOL0     H37425   1.169   9.168   8.338  0.4021 -2.3480  2.2986
 1018MOL0     H37426   1.047   8.954   8.269 -0.3436  0.4390 -0.7045
 1018MOL0     H37427   1.145   8.947   8.416  2.0861  0.3388 -0.9005
 1018MOL0     H37428   1.344   8.675   8.139  1.5737  2.7595 -2.4578
 1018MOL0     H37429   1.626   9.258   8.240 -0.7669  1.3863 -2.1473
 1018MOL0     H37430   1.704   9.464   8.156 -2.4882  1.9029 -2.1994
 1019MOL0     O37431   3.307   4.628   7.005  0.3599  0.2582  0.3123
 1019MOL0     C37432   3.404   4.627   7.076 -0.8223 -0.7416  1.0379
 1019MOL0     O37433   3.478   4.743   7.106  0.1157  0.9234 -1.0254
 1019MOL0     C37434   3.430   4.856   7.053 -0.4807 -0.3936 -1.2231
 1019MOL0     C37435   3.335   4.921   7.120  0.8189  0.0478  0.0499
 1019MOL0     C37436   3.267   5.038   7.068  0.4480  0.4466 -0.0563
 1019MOL0     C37437   3.315   5.095   6.945 -0.0682  0.5670  0.4370
 1019MOL0     O37438   3.256   5.215   6.910  0.9127 -0.3853 -0.1290
 1019MOL0     C37439   3.295   5.277   6.792 -0.2071  0.2368  1.1405
 1019MOL0     C37440   3.417   5.364   6.810 -0.7211  1.0186  0.1001
 1019MOL0     C37441   3.426   5.450   6.936  0.1157  0.3305  0.4512
 1019MOL0     C37442   3.339   5.578   6.931  0.1390 -0.8539 -0.2013
 1019MOL0     C37443   3.294   5.617   7.070 -0.1390  0.0090  0.2756
 1019MOL0     C37444   3.187   5.741   7.082 -0.8504  0.3486 -0.4516
 1019MOL0     C37445   3.228   5.871   7.021 -1.2984 -0.6687  0.0680
 1019MOL0     C37446   3.121   5.987   7.031  0.6124 -0.0168 -0.4394
 1019MOL0     N37447   3.179   6.120   6.995  1.3109  0.5804 -1.2108
 1019MOL0     C37448   3.280   6.176   7.064  0.5781 -0.1102 -0.4717
 1019MOL0     C37449   3.305   6.289   6.998 -0.4484 -0.9120  0.4504
 1019MOL0     C37450   3.423   6.380   7.007  0.0694  0.3440 -0.6678
 1019MOL0     C37451   3.510   6.383   6.883  0.3569 -0.0826 -0.6445
 1019MOL0     C37452   3.594   6.257   6.845  0.2693  0.9642 -0.1462
 1019MOL0     C37453   3.600   6.222   6.693 -0.2192 -0.6310 -1.5756
 1019MOL0     O37454   3.657   6.097   6.680  0.5123 -0.2990 -0.1081
 1019MOL0     C37455   3.583   5.981   6.660  1.0642  0.3126 -0.1628
 1019MOL0     C37456   3.654   5.868   6.616  0.2736  0.2521  0.2546
 1019MOL0     C37457   3.580   5.751   6.574  0.0247 -0.6496 -0.0307
 1019MOL0     C37458   3.673   5.637   6.540 -0.7359  0.0308  1.0435
 1019MOL0     C37459   3.436   5.741   6.578  0.2503  0.6890 -0.3504
 1019MOL0     C37460   3.353   5.623   6.544  0.5103 -0.0507  1.4751
 1019MOL0     O37461   3.421   5.518   6.486  0.1223  0.2183  0.1381
 1019MOL0     C37462   3.368   5.407   6.423  0.1457  0.1648 -1.4509
 1019MOL0     C37463   3.239   5.350   6.444  0.1923  0.3470 -1.5295
 1019MOL0     C37464   3.212   5.221   6.394 -0.0502  0.3175 -0.0097
 1019MOL0     C37465   3.306   5.151   6.321 -0.0040 -0.0157  0.0118
 1019MOL0     O37466   3.263   5.032   6.272 -0.2677 -0.3117  0.6422
 1019MOL0     C37467   3.341   4.942   6.188  0.1598 -0.4650  1.2173
 1019MOL0     C37468   3.262   4.902   6.071 -0.4337  0.4738  0.0074
 1019MOL0     C37469   3.131   4.826   6.117  0.8599  0.1911  1.1833
 1019MOL0     C37470   3.162   4.680   6.153  0.8311  0.7321 -0.0491
 1019MOL0     C37471   3.025   4.605   6.186  1.3557  0.1369  0.4196
 1019MOL0     C37472   2.923   4.577   6.068 -0.8319  0.7328  0.4839
 1019MOL0     C37473   2.827   4.459   6.112 -0.1140 -0.0325  0.5460
 1019MOL0     C37474   2.759   4.397   5.989 -0.5668  0.1197 -0.1523
 1019MOL0    Cl37475   2.627   4.504   5.919  0.3558  0.1252  0.1058
 1019MOL0     C37476   3.429   5.212   6.293 -0.1873 -0.6351  0.2597
 1019MOL0     C37477   3.459   5.340   6.342  0.5676  0.0052 -0.2865
 1019MOL0     O37478   3.232   5.641   6.529 -0.1526 -0.3937  0.0254
 1019MOL0     C37479   3.376   5.853   6.626 -1.3951 -0.4994 -1.3321
 1019MOL0     C37480   3.445   5.969   6.665  0.8361  1.1189 -0.6987
 1019MOL0     N37481   3.225   6.289   6.890 -0.3683 -0.6676 -0.2845
 1019MOL0     N37482   3.140   6.193   6.892  0.6062  0.9370 -0.4065
 1019MOL0     C37483   3.424   5.031   6.885 -0.7147  1.2913  0.0927
 1019MOL0     C37484   3.481   4.914   6.934 -0.0921  0.4333  0.4019
 1019MOL0     C37485   3.465   4.501   7.104 -1.1754  0.2857  1.1607
 1019MOL0     C37486   3.556   4.487   7.207  0.4113 -0.3581 -1.1973
 1019MOL0     C37487   3.618   4.365   7.229 -0.3520  0.7213 -0.0170
 1019MOL0     C37488   3.597   4.255   7.151 -0.0357  1.0574 -0.0172
 1019MOL0     O37489   3.667   4.129   7.159  0.6120  0.4229  0.7302
 1019MOL0     C37490   3.792   4.126   7.226  1.1040 -0.1084 -0.1159
 1019MOL0     C37491   3.860   3.986   7.223  0.3861  0.5049 -0.2547
 1019MOL0     C37492   3.791   3.862   7.284 -0.5065  0.0658  0.0834
 1019MOL0     C37493   3.807   3.743   7.187 -0.8066  0.8238 -0.4106
 1019MOL0     C37494   3.950   3.707   7.165  0.4285 -1.1192 -0.1993
 1019MOL0     C37495   4.059   3.659   7.166 -0.3198 -0.6800 -0.6217
 1019MOL0     C37496   3.512   4.273   7.040 -0.0113 -0.2008 -0.5615
 1019MOL0     C37497   3.444   4.392   7.020 -0.0162  0.5149 -1.3103
 1019MOL0     H37498   3.297   4.869   7.208 -1.3716  0.7931 -0.3863
 1019MOL0     H37499   3.182   5.088   7.114  1.1617  1.8784 -0.2362
 1019MOL0     H37500   3.323   5.200   6.719 -0.4845 -0.4713  1.7686
 1019MOL0     H37501   3.214   5.332   6.744 -0.4368 -0.6910  0.4253
 1019MOL0     H37502   3.495   5.288   6.817 -0.1904  1.6988  4.1323
 1019MOL0     H37503   3.438   5.429   6.725 -0.5802 -2.8502 -3.0903
 1019MOL0     H37504   3.395   5.389   7.022 -2.1488  2.2026  1.0976
 1019MOL0     H37505   3.530   5.469   6.961 -0.6419  3.1893  1.8691
 1019MOL0     H37506   3.389   5.661   6.878 -1.3336  1.8935  2.4020
 1019MOL0     H37507   3.252   5.563   6.866 -0.5647 -0.3012  0.5965
 1019MOL0     H37508   3.252   5.527   7.116 -0.6601 -0.0564 -0.3144
 1019MOL0     H37509   3.378   5.643   7.135 -2.8301  3.0106  2.9050
 1019MOL0     H37510   3.094   5.713   7.032 -0.9165  1.8355 -1.2170
 1019MOL0     H37511   3.152   5.752   7.185 -2.4239 -1.1893 -0.7751
 1019MOL0     H37512   3.305   5.905   7.091 -0.4033  1.0828 -1.6792
 1019MOL0     H37513   3.278   5.860   6.925 -0.7366 -1.1621  0.4153
 1019MOL0     H37514   3.082   5.984   7.133  3.0893 -4.2597  0.6582
 1019MOL0     H37515   3.031   5.967   6.973  0.7644  0.4303 -0.8397
 1019MOL0     H37516   3.325   6.134   7.153 -1.3331  0.4159  0.8256
 1019MOL0     H37517   3.386   6.480   7.030  1.1199  1.0209 -1.7937
 1019MOL0     H37518   3.490   6.353   7.089 -2.4353  0.4122  1.5379
 1019MOL0     H37519   3.586   6.462   6.885  1.1762 -0.8196  2.2898
 1019MOL0     H37520   3.448   6.407   6.796 -3.2041 -3.3306  0.7023
 1019MOL0     H37521   3.571   6.167   6.902  2.8832 -0.1193 -0.6492
 1019MOL0     H37522   3.700   6.267   6.869 -0.0126 -1.1813  2.5103
 1019MOL0     H37523   3.675   6.295   6.664  1.5971 -1.6761  0.2825
 1019MOL0     H37524   3.499   6.225   6.651 -0.1222 -1.3193 -1.8745
 1019MOL0     H37525   3.758   5.864   6.587 -0.0097  1.9239 -1.1902
 1019MOL0     H37526   3.676   5.565   6.622 -1.3748 -0.8622  0.2942
 1019MOL0     H37527   3.649   5.580   6.450  1.9304 -0.5571  0.6270
 1019MOL0     H37528   3.773   5.675   6.516 -0.3502 -0.1001  2.3640
 1019MOL0     H37529   3.165   5.406   6.501  1.5612  2.0855 -1.3566
 1019MOL0     H37530   3.113   5.177   6.399  0.4474 -1.0597 -1.3490
 1019MOL0     H37531   3.438   4.984   6.161 -1.1009  2.4147  0.8247
 1019MOL0     H37532   3.353   4.854   6.253  1.7379 -2.0354 -1.0600
 1019MOL0     H37533   3.246   4.991   6.010 -0.0217  2.3084  2.4442
 1019MOL0     H37534   3.325   4.837   6.010  1.8999  3.1648 -0.6300
 1019MOL0     H37535   3.059   4.835   6.035  2.7033  2.2870 -0.3310
 1019MOL0     H37536   3.078   4.876   6.198  0.4361 -0.9162  1.6072
 1019MOL0     H37537   3.205   4.629   6.066 -1.7179 -2.2764  0.2515
 1019MOL0     H37538   3.236   4.676   6.233  1.4986 -1.0727 -0.6923
 1019MOL0     H37539   2.980   4.676   6.257  1.2594 -2.6016  3.3065
 1019MOL0     H37540   3.056   4.513   6.235 -1.9535 -2.2336 -1.6055
 1019MOL0     H37541   2.869   4.666   6.032  1.3332  1.1339 -2.0938
 1019MOL0     H37542   2.983   4.530   5.990 -0.5108  1.6131  0.1787
 1019MOL0     H37543   2.744   4.488   6.178 -2.3827 -3.1284 -0.6584
 1019MOL0     H37544   2.882   4.389   6.176 -0.4257 -0.7291  0.0596
 1019MOL0     H37545   2.728   4.296   6.020  0.8562  0.3909  2.4407
 1019MOL0     H37546   2.832   4.388   5.908  1.0824  1.0012  1.1818
 1019MOL0     H37547   3.494   5.158   6.226 -1.8838 -2.7569  0.2164
 1019MOL0     H37548   3.564   5.367   6.339  0.2940  2.0627  3.1989
 1019MOL0     H37549   3.270   5.869   6.637 -1.1284  0.9879 -0.5885
 1019MOL0     H37550   3.380   6.044   6.708 -0.6299 -0.8611  0.6827
 1019MOL0     H37551   3.486   5.078   6.810  1.6608 -0.7833  0.6413
 1019MOL0     H37552   3.562   4.881   6.869 -0.0741  2.7271 -0.8580
 1019MOL0     H37553   3.558   4.575   7.272 -2.0593 -0.8534 -0.3494
 1019MOL0     H37554   3.692   4.358   7.308  1.1742 -0.1552 -1.4464
 1019MOL0     H37555   3.859   4.203   7.186 -1.0593  3.7650  2.9598
 1019MOL0     H37556   3.781   4.164   7.328  1.3430  0.9805 -0.4803
 1019MOL0     H37557   3.943   4.010   7.290 -0.9729  6.2077 -0.1786
 1019MOL0     H37558   3.907   3.965   7.126  1.0522  0.4294  0.0733
 1019MOL0     H37559   3.690   3.892   7.312  0.9901  2.3588  3.7180
 1019MOL0     H37560   3.838   3.837   7.379  2.6889 -0.7179 -1.5426
 1019MOL0     H37561   3.764   3.774   7.091 -2.4427  4.2242  1.2541
 1019MOL0     H37562   3.751   3.653   7.216  2.7147 -1.3888  0.1278
 1019MOL0     H37563   4.159   3.621   7.170 -0.4276 -1.1176  4.2182
 1019MOL0     H37564   3.499   4.186   6.976 -4.3828 -1.3389  1.4483
 1019MOL0     H37565   3.365   4.410   6.948 -2.0382 -1.8529  0.1418
 1020MOL0     O37566   1.936   3.771   3.765 -1.2066 -0.4682 -0.1096
 1020MOL0     C37567   1.926   3.674   3.691  0.1065 -0.2362  0.2066
 1020MOL0     O37568   1.867   3.556   3.721 -0.2020 -0.1850 -0.5467
 1020MOL0     C37569   1.801   3.540   3.834 -0.6710 -0.5160 -0.0108
 1020MOL0     C37570   1.856   3.549   3.965 -0.0357  0.2997  0.7082
 1020MOL0     C37571   1.786   3.557   4.083  1.3095 -1.6951 -0.3046
 1020MOL0     C37572   1.647   3.557   4.084  0.0951  0.0953  0.3862
 1020MOL0     O37573   1.562   3.535   4.183  0.7723 -0.0646 -0.7197
 1020MOL0     C37574   1.593   3.533   4.327  0.1297  0.0753  0.5369
 1020MOL0     C37575   1.470   3.485   4.395  0.2953 -0.9470 -0.0141
 1020MOL0     C37576   1.427   3.347   4.338  0.9096 -0.0318  0.3529
 1020MOL0     C37577   1.289   3.314   4.397 -0.6155  0.0498 -0.0950
 1020MOL0     C37578   1.215   3.201   4.332  0.6001 -0.9717 -0.5413
 1020MOL0     C37579   1.064   3.185   4.365 -0.0972  0.7242 -0.1844
 1020MOL0     C37580   1.001   3.069   4.280 -0.4452  0.6613 -0.2137
 1020MOL0     C37581   0.970   3.138   4.144 -1.0550  0.6344 -0.6813
 1020MOL0     N37582   0.888   3.044   4.066 -0.0378  0.7485  0.6592
 1020MOL0     C37583   0.774   2.968   4.103  0.2681  0.6776  0.2337
 1020MOL0     C37584   0.740   2.902   3.984 -0.0741  0.4563 -1.4103
 1020MOL0     C37585   0.627   2.801   3.972  0.9775 -0.3564 -0.8199
 1020MOL0     C37586   0.619   2.754   3.824 -0.9121  0.6063 -0.2740
 1020MOL0     C37587   0.532   2.644   3.776  0.2357  0.0922 -0.4518
 1020MOL0     C37588   0.574   2.505   3.812 -0.5163  0.4340 -0.5065
 1020MOL0     O37589   0.472   2.422   3.772  0.4752  0.5247 -0.3211
 1020MOL0     C37590   0.510   2.307   3.697  0.6461 -0.5893 -0.3828
 1020MOL0     C37591   0.621   2.234   3.721 -0.2198 -0.2754  1.0583
 1020MOL0     C37592   0.653   2.121   3.639  0.7333 -0.1712 -0.9018
 1020MOL0     C37593   0.775   2.047   3.676 -0.4401  0.3672  1.1614
 1020MOL0     C37594   0.561   2.070   3.545 -0.4116 -0.5524 -0.7043
 1020MOL0     C37595   0.577   1.936   3.471  0.0828 -0.5283 -0.2722
 1020MOL0     O37596   0.470   1.868   3.468  0.2052 -0.6463  0.9970
 1020MOL0     C37597   0.451   1.751   3.400  0.2193 -0.7716  0.5111
 1020MOL0     C37598   0.364   1.664   3.446  0.4404  0.8410 -0.3028
 1020MOL0     C37599   0.334   1.546   3.383 -0.4227  0.5179  0.1871
 1020MOL0     C37600   0.416   1.510   3.270  0.8389  0.6310 -0.3046
 1020MOL0     O37601   0.395   1.387   3.219 -0.4077 -0.6185 -0.3291
 1020MOL0     C37602   0.429   1.285   3.310  0.3786 -0.5862  0.2086
 1020MOL0     C37603   0.473   1.166   3.219  0.5786 -0.9762 -0.0812
 1020MOL0     C37604   0.493   1.041   3.297  0.4152  0.0699 -0.7817
 1020MOL0     C37605   0.639   0.997   3.320  0.6350  0.8659  0.1521
 1020MOL0     C37606   0.710   0.940   3.194  0.7237 -0.4372  0.5276
 1020MOL0     C37607   0.786   0.809   3.230 -0.0206 -0.6959  0.4311
 1020MOL0     C37608   0.882   0.753   3.122  0.2942 -0.3661 -0.6695
 1020MOL0     C37609   0.822   0.691   3.001  0.4139  0.7280  0.1162
 1020MOL0    Cl37610   0.929   0.547   2.956 -0.1419 -0.4511  0.1210
 1020MOL0     C37611   0.482   1.607   3.211 -0.0952  0.0974  0.6781
 1020MOL0     C37612   0.507   1.729   3.269  0.8259  0.4132 -0.5284
 1020MOL0     O37613   0.686   1.894   3.445  0.0478 -0.1255  0.3554
 1020MOL0     C37614   0.444   2.143   3.535  1.2128  1.4205  0.0780
 1020MOL0     C37615   0.416   2.258   3.602  0.0838  0.0251 -0.5176
 1020MOL0     N37616   0.824   2.942   3.883 -0.2650  0.5816  0.4923
 1020MOL0     N37617   0.907   3.035   3.931  0.6955  0.1575 -0.0933
 1020MOL0     C37618   1.586   3.559   3.959  0.2214 -0.2839 -0.6447
 1020MOL0     C37619   1.661   3.559   3.839  0.8681 -0.3365  0.2336
 1020MOL0     C37620   1.992   3.695   3.555 -0.1961  0.2538  0.3640
 1020MOL0     C37621   2.051   3.816   3.524  0.8434  0.2526  0.1303
 1020MOL0     C37622   2.116   3.838   3.400 -0.0177  0.4026 -1.0161
 1020MOL0     C37623   2.123   3.735   3.305  1.9746 -1.4154 -0.5610
 1020MOL0     O37624   2.174   3.763   3.179 -0.4125 -0.6930  0.1481
 1020MOL0     C37625   2.295   3.696   3.157  0.3586 -0.0904  0.5617
 1020MOL0     C37626   2.303   3.583   3.050  0.4132 -0.6647  0.9578
 1020MOL0     C37627   2.250   3.637   2.924 -0.7824 -0.1017  0.7017
 1020MOL0     C37628   2.266   3.555   2.793 -0.5963  0.2842 -0.0174
 1020MOL0     C37629   2.232   3.633   2.678 -0.6246 -0.4043  0.1015
 1020MOL0     C37630   2.206   3.708   2.583 -0.8848  1.0102 -1.2671
 1020MOL0     C37631   2.050   3.616   3.330 -0.3376  0.1103  0.1603
 1020MOL0     C37632   1.996   3.590   3.455  0.0853 -0.1392 -0.4712
 1020MOL0     H37633   1.963   3.529   3.974 -0.4481 -2.5552  0.1324
 1020MOL0     H37634   1.835   3.570   4.178  1.1876 -0.7581 -0.3589
 1020MOL0     H37635   1.670   3.458   4.349  0.7889  0.3078 -0.8858
 1020MOL0     H37636   1.637   3.623   4.373  1.0200 -0.8100  1.4621
 1020MOL0     H37637   1.497   3.466   4.500  2.8420 -2.0663 -0.7852
 1020MOL0     H37638   1.395   3.563   4.379  3.6463  2.4918 -0.7003
 1020MOL0     H37639   1.421   3.353   4.228  0.4565  0.7975  0.4120
 1020MOL0     H37640   1.496   3.266   4.361  0.5975  0.3656  2.9636
 1020MOL0     H37641   1.292   3.284   4.502  1.8048 -1.9210 -0.6181
 1020MOL0     H37642   1.222   3.399   4.380  2.8177  2.8807 -0.7369
 1020MOL0     H37643   1.220   3.223   4.225  2.2724 -2.1884 -0.7585
 1020MOL0     H37644   1.267   3.105   4.345 -0.2323 -1.3172  0.4519
 1020MOL0     H37645   1.061   3.156   4.470 -1.0773 -1.8111 -0.8337
 1020MOL0     H37646   1.005   3.275   4.349 -1.4028 -0.0185  0.2695
 1020MOL0     H37647   1.077   2.991   4.273 -2.4053 -1.1640 -4.0519
 1020MOL0     H37648   0.909   3.039   4.331 -1.1195  0.9822 -1.2135
 1020MOL0     H37649   1.056   3.163   4.083 -2.5910  0.8387 -2.8844
 1020MOL0     H37650   0.908   3.226   4.160  1.0818  1.7160  2.7223
 1020MOL0     H37651   0.738   2.965   4.205 -1.1092  0.7915 -0.2227
 1020MOL0     H37652   0.661   2.722   4.040  3.1116  1.6750  0.6249
 1020MOL0     H37653   0.535   2.846   4.010  1.2323  0.6846 -1.4120
 1020MOL0     H37654   0.715   2.720   3.783  0.2931  3.9361 -0.5772
 1020MOL0     H37655   0.599   2.846   3.768  0.7211 -1.8510 -5.4850
 1020MOL0     H37656   0.523   2.648   3.667  0.1618  2.1056 -0.4064
 1020MOL0     H37657   0.435   2.665   3.822 -0.4545 -0.1652 -1.7287
 1020MOL0     H37658   0.578   2.505   3.921 -0.7856 -0.0500 -0.4933
 1020MOL0     H37659   0.674   2.479   3.778 -0.6983 -1.9148  0.6015
 1020MOL0     H37660   0.689   2.262   3.801  0.7004 -3.7719  1.6628
 1020MOL0     H37661   0.801   2.065   3.780 -3.0703 -1.0680  2.1523
 1020MOL0     H37662   0.777   1.938   3.660  1.6919  0.8143 -3.1830
 1020MOL0     H37663   0.859   2.091   3.622 -0.4283  1.2753  1.9017
 1020MOL0     H37664   0.310   1.680   3.538 -1.2013 -1.4692 -0.7665
 1020MOL0     H37665   0.264   1.472   3.422 -1.5522 -0.1606 -2.8117
 1020MOL0     H37666   0.516   1.289   3.376 -1.0111 -1.0242  2.1790
 1020MOL0     H37667   0.338   1.255   3.362 -0.5858 -0.4839 -1.3358
 1020MOL0     H37668   0.393   1.155   3.145 -0.8363  3.5373  0.4782
 1020MOL0     H37669   0.556   1.216   3.170 -1.3378  2.0952 -0.4776
 1020MOL0     H37670   0.447   0.966   3.231  1.9821 -2.7570  1.1471
 1020MOL0     H37671   0.433   1.044   3.389  0.4063  2.0420 -0.8221
 1020MOL0     H37672   0.704   1.075   3.362 -0.7391  1.7727  0.6977
 1020MOL0     H37673   0.645   0.922   3.399  0.2741  0.6104 -0.0625
 1020MOL0     H37674   0.788   1.010   3.163 -0.4385  0.1370 -1.2942
 1020MOL0     H37675   0.643   0.909   3.112  3.1637 -1.5394 -1.1696
 1020MOL0     H37676   0.827   0.799   3.331 -3.6876  0.8533  2.2388
 1020MOL0     H37677   0.703   0.739   3.236 -2.0743  1.3977 -1.4385
 1020MOL0     H37678   0.947   0.679   3.170 -0.8938 -1.1347 -0.2140
 1020MOL0     H37679   0.947   0.832   3.082 -0.3355 -0.0858 -1.1541
 1020MOL0     H37680   0.805   0.761   2.919 -1.6312 -0.3755 -0.4695
 1020MOL0     H37681   0.726   0.649   3.033  1.2607 -2.1672 -0.8108
 1020MOL0     H37682   0.537   1.584   3.120  1.0646 -1.3430  1.6858
 1020MOL0     H37683   0.568   1.802   3.216 -0.3310  1.3525 -0.6206
 1020MOL0     H37684   0.358   2.105   3.480 -0.8793 -2.2939  5.0673
 1020MOL0     H37685   0.319   2.308   3.599 -0.8813 -1.6690  0.4805
 1020MOL0     H37686   1.479   3.544   3.955  0.2687 -1.1867  0.7890
 1020MOL0     H37687   1.608   3.589   3.749  0.9406  1.4934  0.7744
 1020MOL0     H37688   2.051   3.900   3.593 -2.5952  0.1287  0.4481
 1020MOL0     H37689   2.166   3.932   3.381  0.1442  0.3143 -1.0282
 1020MOL0     H37690   2.368   3.774   3.130  0.4475 -0.5663 -0.6293
 1020MOL0     H37691   2.340   3.650   3.245 -0.2956  1.2969  1.6663
 1020MOL0     H37692   2.244   3.498   3.084  0.0005 -0.3636  1.0039
 1020MOL0     H37693   2.408   3.553   3.039  0.1920 -0.7650 -1.3101
 1020MOL0     H37694   2.283   3.739   2.902  0.2438 -0.7850 -1.1536
 1020MOL0     H37695   2.144   3.633   2.949 -1.1121  1.7110 -0.2542
 1020MOL0     H37696   2.197   3.471   2.799 -0.4091  0.0066 -1.4302
 1020MOL0     H37697   2.370   3.521   2.784 -0.1232  1.9426 -1.6421
 1020MOL0     H37698   2.170   3.781   2.513 -0.4297  2.5329  0.0188
 1020MOL0     H37699   2.047   3.548   3.246  1.0738  1.5838 -1.1482
 1020MOL0     H37700   1.954   3.491   3.469  0.0499  0.0683  1.0552
 1021MOL0     O37701  10.035   8.964   7.941 -1.1368  0.4026  0.0025
 1021MOL0     C37702   9.969   8.920   7.851 -0.4807 -0.1585  0.1369
 1021MOL0     O37703   9.974   8.789   7.806  0.4846 -0.9418 -0.2051
 1021MOL0     C37704  10.041   8.688   7.868  0.2502 -0.4113  0.8266
 1021MOL0     C37705  10.028   8.663   8.005 -0.3793 -0.3687  0.3002
 1021MOL0     C37706  10.084   8.552   8.065  0.2943 -0.8789 -0.1385
 1021MOL0     C37707  10.164   8.466   7.981  0.9545  0.1958 -0.0426
 1021MOL0     O37708  10.230   8.353   8.017  0.6280 -0.8079  0.5237
 1021MOL0     C37709  10.274   8.339   8.151 -0.0145  0.8950  0.1872
 1021MOL0     C37710  10.400   8.421   8.174  0.9904 -0.0115  0.7748
 1021MOL0     C37711  10.455   8.412   8.313  0.4567 -1.1107  0.5847
 1021MOL0     C37712  10.480   8.272   8.376  0.4288 -0.2250  1.0540
 1021MOL0     C37713  10.588   8.274   8.475 -0.9842  0.1769  0.8205
 1021MOL0     C37714  10.623   8.136   8.531 -0.8166 -0.0220  0.4023
 1021MOL0     C37715  10.535   8.107   8.648 -0.0445  0.4559  0.6181
 1021MOL0     C37716  10.525   7.961   8.689  0.1060 -0.8270  0.1432
 1021MOL0     N37717  10.400   7.944   8.769  0.5086  0.8382 -0.0386
 1021MOL0     C37718  10.340   7.820   8.761 -0.2333  0.4050  0.2744
 1021MOL0     C37719  10.232   7.840   8.844  0.4642  0.9709  0.1593
 1021MOL0     C37720  10.128   7.729   8.876 -0.3753  0.5476  0.0251
 1021MOL0     C37721  10.011   7.739   8.786  0.5186  0.1212  0.0173
 1021MOL0     C37722   9.885   7.660   8.843 -0.4485  0.1111  0.3186
 1021MOL0     C37723   9.756   7.694   8.766 -0.2751  0.5475 -0.4099
 1021MOL0     O37724   9.661   7.642   8.859 -0.1089  0.1702  0.2573
 1021MOL0     C37725   9.526   7.665   8.826 -0.1554  0.5034  0.4156
 1021MOL0     C37726   9.461   7.779   8.764  1.1639  0.1308 -0.4078
 1021MOL0     C37727   9.328   7.773   8.730  0.2988 -0.7190  0.5713
 1021MOL0     C37728   9.282   7.899   8.660 -0.0704  0.0200 -0.5572
 1021MOL0     C37729   9.241   7.667   8.760 -0.7720  0.5329  0.7676
 1021MOL0     C37730   9.101   7.664   8.721 -0.0899 -0.2101  0.5703
 1021MOL0     O37731   9.081   7.689   8.589 -0.6549  0.3189  1.2907
 1021MOL0     C37732   8.960   7.668   8.526 -0.2063 -0.1076  0.5775
 1021MOL0     C37733   8.882   7.776   8.504 -0.1704  0.1049 -0.0140
 1021MOL0     C37734   8.765   7.763   8.428  0.3885 -0.4202  0.8695
 1021MOL0     C37735   8.722   7.645   8.385  0.8295  0.2050 -0.1166
 1021MOL0     O37736   8.616   7.640   8.304  0.3280 -0.1360 -0.6809
 1021MOL0     C37737   8.485   7.631   8.371  0.1936  1.0892 -0.3749
 1021MOL0     C37738   8.407   7.502   8.330 -1.0788  0.8701  0.7128
 1021MOL0     C37739   8.438   7.457   8.188 -0.1378 -0.1865  1.5440
 1021MOL0     C37740   8.345   7.323   8.181 -0.1078  0.7509  1.1031
 1021MOL0     C37741   8.349   7.267   8.029  1.0885 -0.4391  0.6403
 1021MOL0     C37742   8.241   7.163   8.008  0.7875  0.4709 -0.2217
 1021MOL0     C37743   8.267   7.082   7.885  0.2346  0.1914  0.0513
 1021MOL0     C37744   8.153   7.007   7.830 -0.3708 -0.0184  0.6601
 1021MOL0    Cl37745   8.203   6.930   7.671  0.2945 -0.2836  0.1259
 1021MOL0     C37746   8.809   7.538   8.396 -0.3846 -0.2950  0.4543
 1021MOL0     C37747   8.930   7.545   8.460 -0.2768  0.4824  0.9758
 1021MOL0     O37748   9.016   7.625   8.800 -0.4142  0.3850 -0.7155
 1021MOL0     C37749   9.298   7.564   8.828 -0.4202 -0.2469  0.4527
 1021MOL0     C37750   9.437   7.565   8.867 -0.6759  0.0464 -0.0171
 1021MOL0     N37751  10.220   7.976   8.887  0.1192 -0.0786 -0.3937
 1021MOL0     N37752  10.328   8.036   8.842 -0.5181  0.3523  0.1315
 1021MOL0     C37753  10.171   8.484   7.845 -0.6910  0.0435  0.2465
 1021MOL0     C37754  10.109   8.593   7.786  0.7231  1.1104 -0.5219
 1021MOL0     C37755   9.878   9.014   7.772  0.0050  1.0749 -0.2988
 1021MOL0     C37756   9.874   9.150   7.807 -0.4933 -0.6163  0.7647
 1021MOL0     C37757   9.796   9.233   7.728  0.7478 -0.7407 -0.0147
 1021MOL0     C37758   9.708   9.185   7.633 -0.9833  0.1318 -0.9656
 1021MOL0     O37759   9.633   9.274   7.556 -0.2086  0.8702 -0.0936
 1021MOL0     C37760   9.544   9.223   7.461 -0.6516  0.2331 -0.7153
 1021MOL0     C37761   9.489   9.338   7.379  0.5698  0.4213 -0.0651
 1021MOL0     C37762   9.382   9.431   7.446  0.3139 -0.0567  0.4322
 1021MOL0     C37763   9.312   9.540   7.361  0.4646 -0.3902  0.1434
 1021MOL0     C37764   9.206   9.469   7.283 -0.2813  0.7460 -0.0000
 1021MOL0     C37765   9.121   9.432   7.208  0.5492  0.4728  0.0927
 1021MOL0     C37766   9.711   9.048   7.608  0.8629  0.1944 -0.2534
 1021MOL0     C37767   9.799   8.966   7.677  0.5704  1.3236  0.0457
 1021MOL0     H37768   9.984   8.734   8.074  1.2308  1.2935 -0.3035
 1021MOL0     H37769  10.065   8.546   8.171  2.3045 -0.6818  0.2618
 1021MOL0     H37770  10.194   8.374   8.217 -0.4266  1.4079 -0.5614
 1021MOL0     H37771  10.280   8.231   8.168  0.4180  0.6511 -1.3552
 1021MOL0     H37772  10.474   8.395   8.098  1.2170  2.5048  0.0328
 1021MOL0     H37773  10.384   8.529   8.164  1.8955  0.0858  0.1972
 1021MOL0     H37774  10.550   8.463   8.295 -0.2110  0.9715  2.4408
 1021MOL0     H37775  10.395   8.479   8.376 -0.2402 -2.8165  1.8227
 1021MOL0     H37776  10.393   8.216   8.411  0.9302  0.0947  2.9306
 1021MOL0     H37777  10.518   8.213   8.292  0.4039  1.0702  0.0977
 1021MOL0     H37778  10.680   8.300   8.420  0.0228 -2.7059  0.9919
 1021MOL0     H37779  10.575   8.339   8.562  1.3249 -0.6364  1.8576
 1021MOL0     H37780  10.614   8.061   8.452  0.0322 -2.6521  2.6417
 1021MOL0     H37781  10.725   8.144   8.570 -0.4638  4.0561 -0.8527
 1021MOL0     H37782  10.561   8.168   8.736  0.1700 -0.3667  1.1345
 1021MOL0     H37783  10.434   8.126   8.613  0.7993 -0.5882 -2.7299
 1021MOL0     H37784  10.617   7.948   8.747  0.6043  3.5633  0.6998
 1021MOL0     H37785  10.523   7.895   8.602 -1.1248  1.2374 -1.4843
 1021MOL0     H37786  10.372   7.733   8.704  2.7227  1.9425 -0.6473
 1021MOL0     H37787  10.166   7.626   8.869  0.9190  1.0749 -1.2053
 1021MOL0     H37788  10.089   7.735   8.978 -0.3066 -2.3805  0.3175
 1021MOL0     H37789  10.036   7.689   8.691 -3.0786 -0.5060 -0.7448
 1021MOL0     H37790   9.990   7.845   8.769 -1.3230 -0.1351  0.5153
 1021MOL0     H37791   9.872   7.706   8.941  2.4023  1.7260  0.0579
 1021MOL0     H37792   9.896   7.552   8.854 -3.8020 -0.1718  2.0101
 1021MOL0     H37793   9.742   7.639   8.673 -2.6177 -0.0571  0.2259
 1021MOL0     H37794   9.738   7.801   8.749  1.1330  0.6227 -1.6303
 1021MOL0     H37795   9.516   7.868   8.738  1.2062 -0.5854 -3.0098
 1021MOL0     H37796   9.357   7.978   8.665  1.3877 -1.3244 -0.4432
 1021MOL0     H37797   9.247   7.875   8.559  0.2433 -3.6588  0.0774
 1021MOL0     H37798   9.205   7.945   8.722  2.2892 -0.5691  3.0947
 1021MOL0     H37799   8.913   7.875   8.537  0.8060 -0.9612  2.5075
 1021MOL0     H37800   8.707   7.850   8.400  1.0567 -0.1848  0.1693
 1021MOL0     H37801   8.498   7.639   8.479 -0.5205  0.4634 -0.2284
 1021MOL0     H37802   8.425   7.721   8.355 -2.1149 -0.3526 -0.2563
 1021MOL0     H37803   8.429   7.415   8.392 -4.1204 -0.2483  0.3753
 1021MOL0     H37804   8.301   7.518   8.354 -1.6993  0.1701 -1.3694
 1021MOL0     H37805   8.543   7.431   8.171  0.2654  1.8172  0.7308
 1021MOL0     H37806   8.409   7.531   8.112 -2.0655 -1.2002  1.2063
 1021MOL0     H37807   8.383   7.251   8.254  1.6870 -0.0827 -0.5470
 1021MOL0     H37808   8.244   7.360   8.199 -1.2385 -1.4536 -0.3855
 1021MOL0     H37809   8.451   7.233   8.010  0.8600 -0.8215  0.0836
 1021MOL0     H37810   8.337   7.353   7.964  1.7224 -0.9353 -0.1584
 1021MOL0     H37811   8.224   7.094   8.092 -0.5989  0.3984 -0.5481
 1021MOL0     H37812   8.154   7.229   8.004  0.9371  0.6877  0.0738
 1021MOL0     H37813   8.339   7.004   7.913  0.1483  0.5151  1.2196
 1021MOL0     H37814   8.304   7.154   7.812  2.0873 -0.9486 -0.1993
 1021MOL0     H37815   8.072   7.067   7.787 -0.6525 -2.4414 -2.6103
 1021MOL0     H37816   8.121   6.939   7.908  4.1986  0.5757  3.3955
 1021MOL0     H37817   8.765   7.451   8.349 -1.2185  1.2841 -1.8808
 1021MOL0     H37818   8.993   7.458   8.452 -2.2999 -1.1862  1.9761
 1021MOL0     H37819   9.248   7.472   8.855 -2.8865  1.1307  0.9148
 1021MOL0     H37820   9.488   7.487   8.923 -0.7014  0.1498  0.1525
 1021MOL0     H37821  10.230   8.417   7.783 -2.4500 -0.7422 -0.6478
 1021MOL0     H37822  10.100   8.612   7.680  0.1770  1.4291 -0.4196
 1021MOL0     H37823   9.942   9.189   7.882  0.6019  0.0418 -0.5098
 1021MOL0     H37824   9.799   9.341   7.744  1.5519 -0.5479 -1.3465
 1021MOL0     H37825   9.612   9.173   7.392  1.4023  1.9403 -0.0432
 1021MOL0     H37826   9.476   9.162   7.521 -1.5108  1.5747 -0.3057
 1021MOL0     H37827   9.446   9.271   7.304  2.1151  0.5520 -1.1068
 1021MOL0     H37828   9.569   9.397   7.334  1.2324 -1.3265 -1.2888
 1021MOL0     H37829   9.433   9.488   7.524 -1.3236 -0.4105  1.8351
 1021MOL0     H37830   9.312   9.354   7.481  1.3656 -2.3172 -2.0990
 1021MOL0     H37831   9.370   9.607   7.296 -1.1063  1.9209  0.9682
 1021MOL0     H37832   9.257   9.615   7.420 -0.9435  1.4341 -3.2024
 1021MOL0     H37833   9.041   9.410   7.140  0.1529 -0.7500  0.9406
 1021MOL0     H37834   9.635   9.004   7.543 -2.4871  4.0986  0.6211
 1021MOL0     H37835   9.798   8.859   7.660 -0.4457  1.6782 -2.5761
 1022MOL0     O37836   7.629   5.655   7.775 -0.9498 -0.2603  0.1249
 1022MOL0     C37837   7.706   5.717   7.847 -1.1386 -0.2033  0.1113
 1022MOL0     O37838   7.722   5.851   7.847 -0.6029 -0.2840 -0.8768
 1022MOL0     C37839   7.651   5.926   7.761 -0.1477 -0.3664  0.6547
 1022MOL0     C37840   7.572   6.045   7.806 -0.0866  0.0021 -0.0940
 1022MOL0     C37841   7.492   6.123   7.724  0.4119  0.9815 -0.0446
 1022MOL0     C37842   7.484   6.088   7.593 -0.7440  0.6052  0.7688
 1022MOL0     O37843   7.415   6.156   7.491  0.6898 -0.1405 -0.0780
 1022MOL0     C37844   7.371   6.291   7.513 -0.5286 -0.3237  0.3572
 1022MOL0     C37845   7.479   6.394   7.515 -0.3016 -0.8171 -0.3122
 1022MOL0     C37846   7.512   6.444   7.369 -0.3769  0.3358  0.9439
 1022MOL0     C37847   7.642   6.524   7.370 -0.1867  0.0817 -0.5405
 1022MOL0     C37848   7.642   6.619   7.248 -0.3528 -0.1797  0.7369
 1022MOL0     C37849   7.570   6.569   7.123 -0.1510 -1.2125 -0.6513
 1022MOL0     C37850   7.597   6.645   6.993 -0.3503 -1.0110  0.6470
 1022MOL0     C37851   7.704   6.578   6.905  0.6428 -0.1752 -0.6568
 1022MOL0     N37852   7.741   6.680   6.806 -0.1720  0.2617 -0.4623
 1022MOL0     C37853   7.857   6.743   6.815 -1.0618 -0.9569  0.1685
 1022MOL0     C37854   7.854   6.833   6.712 -0.1444 -0.4809 -0.7083
 1022MOL0     C37855   7.958   6.943   6.676  0.2079  0.2014  0.5770
 1022MOL0     C37856   8.040   6.901   6.554  0.0913 -0.6697 -0.1577
 1022MOL0     C37857   7.984   6.938   6.416 -0.6358  0.0843 -0.1355
 1022MOL0     C37858   8.077   6.875   6.312 -0.3379 -0.4907 -0.1751
 1022MOL0     O37859   8.028   6.762   6.238  0.6435 -0.1698 -0.2223
 1022MOL0     C37860   8.027   6.638   6.303  0.6355 -0.8193 -0.2313
 1022MOL0     C37861   7.917   6.593   6.380  0.8116 -0.4573  0.5342
 1022MOL0     C37862   7.916   6.471   6.441 -0.2957 -0.2427 -0.9903
 1022MOL0     C37863   7.781   6.424   6.504 -1.8634  0.5268  1.0908
 1022MOL0     C37864   8.034   6.395   6.436 -0.1211  0.1507 -0.9918
 1022MOL0     C37865   8.047   6.273   6.511  0.2278  0.2899 -0.2679
 1022MOL0     O37866   8.135   6.188   6.451  0.1666  0.0678 -0.2077
 1022MOL0     C37867   8.163   6.073   6.513 -0.0670  0.4037  0.7878
 1022MOL0     C37868   8.167   5.962   6.430  0.2191 -0.0510  0.2828
 1022MOL0     C37869   8.194   5.833   6.468 -0.9894 -0.2969 -0.8588
 1022MOL0     C37870   8.212   5.810   6.607 -0.3594 -0.1108  0.9399
 1022MOL0     O37871   8.211   5.685   6.657 -0.3874 -0.0890 -0.1367
 1022MOL0     C37872   8.202   5.571   6.583  1.3313 -0.7479 -0.0205
 1022MOL0     C37873   8.334   5.533   6.517  0.3939 -0.6826 -0.8066
 1022MOL0     C37874   8.470   5.594   6.573 -0.7795  0.0081  0.0121
 1022MOL0     C37875   8.558   5.664   6.469  0.3972  0.1627  0.4180
 1022MOL0     C37876   8.690   5.711   6.534 -0.4260  0.2953 -0.8342
 1022MOL0     C37877   8.761   5.816   6.448  0.7279  0.6640  0.4572
 1022MOL0     C37878   8.901   5.856   6.490 -0.7936 -0.8218 -1.0722
 1022MOL0     C37879   8.889   6.000   6.531 -0.1539  0.6506  1.1959
 1022MOL0    Cl37880   9.041   6.065   6.582 -0.2978  0.2896 -0.1776
 1022MOL0     C37881   8.195   5.911   6.699  0.4115 -0.4948  0.7027
 1022MOL0     C37882   8.190   6.047   6.646  1.0684  0.5309 -1.0942
 1022MOL0     O37883   7.996   6.259   6.622 -0.4701  0.1956 -0.6771
 1022MOL0     C37884   8.153   6.445   6.365 -0.4818  0.0494  0.4851
 1022MOL0     C37885   8.139   6.564   6.287  0.0757  0.0065  0.0345
 1022MOL0     N37886   7.728   6.825   6.653 -0.1026 -0.0562  0.6189
 1022MOL0     N37887   7.662   6.732   6.709 -0.3897 -0.5467  0.2064
 1022MOL0     C37888   7.568   5.984   7.542 -0.3819 -1.0895  0.0964
 1022MOL0     C37889   7.646   5.904   7.621  0.2117 -0.1804  0.2691
 1022MOL0     C37890   7.776   5.637   7.948  0.3329 -0.4763 -1.0633
 1022MOL0     C37891   7.744   5.500   7.974  0.5712 -0.5887 -0.2717
 1022MOL0     C37892   7.799   5.430   8.080  0.7509 -0.0547 -0.4099
 1022MOL0     C37893   7.876   5.491   8.174 -0.0894 -0.2555  0.7585
 1022MOL0     O37894   7.917   5.450   8.292 -0.3358  0.6281 -0.7060
 1022MOL0     C37895   7.951   5.305   8.308 -0.0068 -0.0235 -0.3712
 1022MOL0     C37896   8.094   5.298   8.252 -1.1239  0.0227 -0.3315
 1022MOL0     C37897   8.176   5.180   8.291 -0.1969  0.5536  0.5786
 1022MOL0     C37898   8.274   5.205   8.405  0.4011  0.4835 -0.5941
 1022MOL0     C37899   8.351   5.084   8.446 -0.0844 -0.6470  0.1406
 1022MOL0     C37900   8.425   4.995   8.488  0.0651 -0.0188 -0.3149
 1022MOL0     C37901   7.910   5.628   8.161  0.4240 -0.3508 -0.0459
 1022MOL0     C37902   7.867   5.695   8.049  0.3481 -0.6515  0.6934
 1022MOL0     H37903   7.562   6.069   7.911  2.8079  3.8247 -0.4633
 1022MOL0     H37904   7.442   6.208   7.769 -0.2345  0.3035  0.5353
 1022MOL0     H37905   7.302   6.315   7.431  3.7386  0.6131 -3.3300
 1022MOL0     H37906   7.325   6.307   7.611  0.9797  0.6877  0.9288
 1022MOL0     H37907   7.440   6.481   7.569  3.5978  1.3034 -0.5123
 1022MOL0     H37908   7.567   6.355   7.568 -0.7369  0.1296  1.1625
 1022MOL0     H37909   7.521   6.357   7.303 -2.2930  2.5843 -2.6501
 1022MOL0     H37910   7.429   6.502   7.326  1.0091  0.0007 -2.5163
 1022MOL0     H37911   7.683   6.569   7.461 -0.1009  0.4965 -0.7845
 1022MOL0     H37912   7.721   6.450   7.352 -0.5990 -0.8422  1.2494
 1022MOL0     H37913   7.594   6.713   7.280  0.4265  0.9180 -1.1869
 1022MOL0     H37914   7.746   6.638   7.222  0.4571 -2.0393  2.3706
 1022MOL0     H37915   7.585   6.461   7.112  1.1493 -1.2983  1.4136
 1022MOL0     H37916   7.465   6.593   7.143  0.1505  0.1402 -0.6286
 1022MOL0     H37917   7.499   6.647   6.944 -0.8032  3.1376  1.3596
 1022MOL0     H37918   7.623   6.749   7.012 -1.6405 -0.3902 -0.8575
 1022MOL0     H37919   7.655   6.500   6.847 -0.6821  0.5720 -0.5737
 1022MOL0     H37920   7.781   6.537   6.972 -1.7681 -0.0047  2.4402
 1022MOL0     H37921   7.934   6.720   6.889 -1.5494  1.1691  1.4283
 1022MOL0     H37922   7.906   7.035   6.649  1.2116  0.5506 -0.2049
 1022MOL0     H37923   8.027   6.961   6.759 -0.8516  1.3212  1.2493
 1022MOL0     H37924   8.065   6.795   6.566 -1.5308 -0.8842  1.8577
 1022MOL0     H37925   8.129   6.963   6.564  0.1737 -0.7548 -0.3615
 1022MOL0     H37926   7.977   7.047   6.411  0.4977  0.2803  1.6581
 1022MOL0     H37927   7.884   6.895   6.406  0.0131 -1.1521 -1.9097
 1022MOL0     H37928   8.167   6.844   6.366 -2.0750 -1.2055  2.4627
 1022MOL0     H37929   8.107   6.955   6.243 -0.0567  0.2386  0.7721
 1022MOL0     H37930   7.834   6.662   6.389  0.9669 -0.2126  0.1433
 1022MOL0     H37931   7.739   6.331   6.466 -3.0414  2.2340 -2.1212
 1022MOL0     H37932   7.802   6.418   6.611 -0.2590 -0.6227  0.7593
 1022MOL0     H37933   7.700   6.494   6.484 -1.5180  0.9653  1.1984
 1022MOL0     H37934   8.155   5.983   6.324  2.4553  1.3684  0.2593
 1022MOL0     H37935   8.198   5.763   6.385 -3.2506  1.3523 -2.4704
 1022MOL0     H37936   8.172   5.488   6.648  1.5654 -0.8205 -0.0013
 1022MOL0     H37937   8.131   5.570   6.500  2.4943  1.4626 -1.1121
 1022MOL0     H37938   8.331   5.424   6.515 -0.5599 -0.8753  2.8381
 1022MOL0     H37939   8.324   5.572   6.416  3.1494 -1.8113 -1.6096
 1022MOL0     H37940   8.535   5.520   6.621 -0.8285 -0.0222  0.0319
 1022MOL0     H37941   8.463   5.666   6.655 -3.1123 -2.3570  2.0590
 1022MOL0     H37942   8.576   5.589   6.391 -1.1819 -0.5195  0.6772
 1022MOL0     H37943   8.510   5.755   6.432 -0.8343 -1.2394 -1.6600
 1022MOL0     H37944   8.761   5.627   6.538 -1.0718 -0.2458  2.5691
 1022MOL0     H37945   8.686   5.739   6.640  0.6729 -0.0432 -0.6876
 1022MOL0     H37946   8.775   5.777   6.346  2.2601 -1.3098  1.3475
 1022MOL0     H37947   8.696   5.903   6.442  0.4758  0.5706  1.5682
 1022MOL0     H37948   8.987   5.845   6.422  0.1183  2.0605 -0.5208
 1022MOL0     H37949   8.922   5.799   6.580 -1.9193  2.1145  1.1986
 1022MOL0     H37950   8.816   6.011   6.612 -0.0491 -1.4545  1.6248
 1022MOL0     H37951   8.860   6.048   6.437 -0.1912 -2.8450 -0.7496
 1022MOL0     H37952   8.183   5.896   6.806 -0.5899 -1.1524  0.5045
 1022MOL0     H37953   8.186   6.130   6.716  0.2131  1.2892 -2.0008
 1022MOL0     H37954   8.247   6.392   6.355  0.7339  1.9555  1.3559
 1022MOL0     H37955   8.213   6.618   6.229 -1.5244 -0.3371 -2.4837
 1022MOL0     H37956   7.583   5.975   7.435  0.0734  0.3325  0.0180
 1022MOL0     H37957   7.701   5.823   7.575 -2.1181 -0.8977 -1.4210
 1022MOL0     H37958   7.669   5.458   7.907 -0.2203 -1.4309  1.0890
 1022MOL0     H37959   7.760   5.329   8.088 -0.8056  0.6344  1.8291
 1022MOL0     H37960   7.953   5.273   8.413  1.7755  1.4710  0.1024
 1022MOL0     H37961   7.892   5.241   8.242  2.6071 -0.0910 -2.8449
 1022MOL0     H37962   8.146   5.387   8.291  2.0976 -0.4841 -3.0543
 1022MOL0     H37963   8.103   5.325   8.147  1.9577  1.4570  0.1922
 1022MOL0     H37964   8.248   5.163   8.211  3.0311  1.6124  3.0618
 1022MOL0     H37965   8.117   5.089   8.310  1.1628 -1.1958 -2.7463
 1022MOL0     H37966   8.226   5.256   8.489 -0.5306  1.6303 -1.7747
 1022MOL0     H37967   8.334   5.287   8.365 -0.3786  0.7940 -1.1619
 1022MOL0     H37968   8.484   4.912   8.523  1.2661 -0.1927 -2.5237
 1022MOL0     H37969   7.972   5.681   8.233 -0.2154  1.2863 -0.6715
 1022MOL0     H37970   7.887   5.801   8.044 -4.4563  0.4057 -2.0694
 1023MOL0     O37971   6.987   2.832   0.394  0.3278 -0.5534 -0.4081
 1023MOL0     C37972   7.103   2.795   0.358  0.3198  0.4440  0.1439
 1023MOL0     O37973   7.206   2.877   0.319 -0.2492 -0.0965 -0.8221
 1023MOL0     C37974   7.169   3.009   0.332  0.9353  0.1967 -0.0303
 1023MOL0     C37975   7.089   3.088   0.234 -0.9231 -0.7544 -0.4618
 1023MOL0     C37976   7.067   3.217   0.260 -0.6342  0.6104  0.1878
 1023MOL0     C37977   7.091   3.269   0.391  0.5530  0.3882  0.1544
 1023MOL0     O37978   7.051   3.387   0.442 -0.0663 -0.3007  0.8776
 1023MOL0     C37979   6.942   3.444   0.371 -0.1441  0.0096 -0.2657
 1023MOL0     C37980   6.989   3.527   0.254  0.5609 -0.6489 -0.1158
 1023MOL0     C37981   7.103   3.630   0.280  0.1950  0.5860 -0.1698
 1023MOL0     C37982   7.177   3.645   0.153  0.0891 -0.2302  1.3563
 1023MOL0     C37983   7.301   3.733   0.191  0.3085 -0.0469  0.3472
 1023MOL0     C37984   7.385   3.751   0.073  0.2137  0.3374  0.1432
 1023MOL0     C37985   7.493   3.861   0.102  0.3983 -0.5425  0.2817
 1023MOL0     C37986   7.584   3.828   0.226  0.5743  0.4974  0.7870
 1023MOL0     N37987   7.679   3.935   0.225 -0.7999 -0.0281  0.7877
 1023MOL0     C37988   7.658   4.057   0.289 -1.4310 -0.3832 -0.8620
 1023MOL0     C37989   7.777   4.124   0.263  0.8642  0.4345 -0.5816
 1023MOL0     C37990   7.799   4.265   0.305 -0.2641  0.1462 -0.3350
 1023MOL0     C37991   7.686   4.356   0.263 -1.2005  0.8245 -0.3774
 1023MOL0     C37992   7.711   4.499   0.305  0.2471  1.0239 -0.0796
 1023MOL0     C37993   7.705   4.601   0.193 -0.3000 -1.0105  0.3563
 1023MOL0     O37994   7.589   4.598   0.110 -0.4252 -0.1749  0.1035
 1023MOL0     C37995   7.604   4.632  -0.023  0.6011  1.0702  0.6499
 1023MOL0     C37996   7.681   4.547  -0.101  0.3447  0.1029 -0.2060
 1023MOL0     C37997   7.689   4.569  -0.242  0.2202 -1.1191 -1.0800
 1023MOL0     C37998   7.765   4.473  -0.336  0.2557  0.0006  0.4432
 1023MOL0     C37999   7.622   4.685  -0.293 -0.5701 -0.9130 -0.1305
 1023MOL0     C38000   7.594   4.720  -0.445 -0.8462 -0.6528 -0.0788
 1023MOL0     O38001   7.545   4.845  -0.481  0.0142  0.2168 -0.6881
 1023MOL0     C38002   7.531   4.897  -0.609 -1.1060 -0.0172  0.0600
 1023MOL0     C38003   7.619   4.873  -0.714 -0.3486  0.3042 -0.0425
 1023MOL0     C38004   7.582   4.909  -0.838 -0.0415 -0.6098  0.7394
 1023MOL0     C38005   7.464   4.983  -0.866  0.5722 -0.9771 -0.0204
 1023MOL0     O38006   7.435   5.030  -0.990  0.3768  1.1038  0.7279
 1023MOL0     C38007   7.515   4.974  -1.105 -0.5430  1.1881  0.2903
 1023MOL0     C38008   7.430   4.982  -1.226 -0.5524 -0.0942  0.4965
 1023MOL0     C38009   7.292   4.920  -1.200 -0.6980 -0.1450  0.2903
 1023MOL0     C38010   7.217   4.908  -1.336 -0.3041 -0.4240  0.1366
 1023MOL0     C38011   7.074   4.857  -1.309 -0.6219 -0.5612  0.8392
 1023MOL0     C38012   7.001   4.862  -1.446  0.4569  0.0529  0.5380
 1023MOL0     C38013   7.044   4.756  -1.555 -0.1020  0.3647  0.3853
 1023MOL0     C38014   7.002   4.615  -1.496 -0.1759  0.3038  0.2784
 1023MOL0    Cl38015   7.074   4.480  -1.589 -0.5799 -0.0838 -0.3160
 1023MOL0     C38016   7.385   5.020  -0.760 -0.6294 -0.2010 -0.2549
 1023MOL0     C38017   7.416   4.963  -0.636 -0.7505 -0.2799 -0.1538
 1023MOL0     O38018   7.605   4.628  -0.527 -0.9626 -0.7103  0.8798
 1023MOL0     C38019   7.557   4.773  -0.206 -0.5121 -0.0315 -0.5190
 1023MOL0     C38020   7.538   4.746  -0.076 -0.0269  0.5086 -0.2529
 1023MOL0     N38021   7.859   4.051   0.184 -0.0781  0.5307  0.3688
 1023MOL0     N38022   7.807   3.930   0.166  0.6049  0.2641 -0.8292
 1023MOL0     C38023   7.157   3.186   0.485  0.2674  0.3346 -0.6191
 1023MOL0     C38024   7.205   3.064   0.452  0.1128 -0.3859 -0.1531
 1023MOL0     C38025   7.127   2.654   0.344 -0.4606 -0.1754 -0.9805
 1023MOL0     C38026   7.252   2.614   0.299  0.4349 -0.2228 -0.5659
 1023MOL0     C38027   7.282   2.474   0.288  0.0804  0.9486 -0.8447
 1023MOL0     C38028   7.188   2.373   0.312  0.1388 -0.3747  0.8555
 1023MOL0     O38029   7.235   2.247   0.283  0.2671  0.9109 -0.3903
 1023MOL0     C38030   7.143   2.138   0.293  0.0812 -0.2968 -0.9654
 1023MOL0     C38031   7.205   2.024   0.206  1.4461 -0.8929  0.9983
 1023MOL0     C38032   7.227   2.048   0.049 -0.7339  0.1775 -0.4353
 1023MOL0     C38033   7.219   1.922  -0.033  0.1054  0.6022 -0.0637
 1023MOL0     C38034   7.289   1.936  -0.163 -0.4392 -0.6448  0.2419
 1023MOL0     C38035   7.334   1.962  -0.272  0.5618  0.6011  0.4619
 1023MOL0     C38036   7.058   2.418   0.352 -0.4870  0.8792  0.4018
 1023MOL0     C38037   7.030   2.555   0.367 -0.1338 -0.9639  0.2492
 1023MOL0     H38038   7.067   3.049   0.136 -2.0222 -0.0979 -0.4926
 1023MOL0     H38039   7.034   3.273   0.174  0.9336  1.3121 -0.0031
 1023MOL0     H38040   6.880   3.365   0.327  3.0751 -1.6058 -2.2988
 1023MOL0     H38041   6.887   3.512   0.437 -2.1364 -0.0836 -1.7364
 1023MOL0     H38042   7.006   3.465   0.165 -1.1274 -0.5289 -0.5560
 1023MOL0     H38043   6.903   3.586   0.222  1.1101  1.1572  1.5648
 1023MOL0     H38044   7.067   3.727   0.316  4.6031  3.2758 -2.1426
 1023MOL0     H38045   7.170   3.591   0.357 -0.0107 -1.5636 -0.9920
 1023MOL0     H38046   7.206   3.550   0.107 -1.0047  0.5487 -1.1080
 1023MOL0     H38047   7.108   3.701   0.090  1.5590 -1.4791 -1.5111
 1023MOL0     H38048   7.258   3.826   0.229 -2.3732 -0.3066 -1.7900
 1023MOL0     H38049   7.361   3.686   0.270  0.1593  3.9892  3.1634
 1023MOL0     H38050   7.433   3.656   0.047  0.0167  0.3083 -0.1199
 1023MOL0     H38051   7.329   3.786  -0.015 -0.0264 -0.0857  0.1259
 1023MOL0     H38052   7.545   3.891   0.010  0.3747 -2.5225 -0.4281
 1023MOL0     H38053   7.449   3.954   0.139  3.1632  0.6613  0.8399
 1023MOL0     H38054   7.617   3.727   0.200  0.0779  0.7207 -0.8583
 1023MOL0     H38055   7.523   3.831   0.316 -1.9092 -1.6032 -0.6820
 1023MOL0     H38056   7.577   4.104   0.345  1.1444  3.6151 -0.0892
 1023MOL0     H38057   7.802   4.246   0.413  2.0091 -1.8360 -0.6571
 1023MOL0     H38058   7.897   4.299   0.270  1.1804 -1.8432  1.5227
 1023MOL0     H38059   7.595   4.317   0.312  0.8711  1.3231  4.4207
 1023MOL0     H38060   7.681   4.347   0.154  1.1769  2.0446 -0.6269
 1023MOL0     H38061   7.815   4.502   0.338  0.1038  2.0979  0.2891
 1023MOL0     H38062   7.644   4.528   0.386  0.2711 -1.0560  0.7635
 1023MOL0     H38063   7.796   4.592   0.133  1.4484 -1.4359  2.9210
 1023MOL0     H38064   7.721   4.695   0.246 -2.0654  0.0174 -0.8307
 1023MOL0     H38065   7.734   4.463  -0.058  2.2115 -0.1179 -2.6680
 1023MOL0     H38066   7.804   4.527  -0.422 -2.1479  3.9786  1.6123
 1023MOL0     H38067   7.862   4.437  -0.299  2.2100 -2.1701 -5.5769
 1023MOL0     H38068   7.699   4.389  -0.360 -1.7604  1.4821  0.5646
 1023MOL0     H38069   7.718   4.842  -0.683  0.0558  0.7603 -0.8561
 1023MOL0     H38070   7.653   4.879  -0.915 -0.2243  0.7884 -0.0143
 1023MOL0     H38071   7.602   5.039  -1.123 -0.1644  0.4502 -0.6465
 1023MOL0     H38072   7.561   4.875  -1.099 -0.5896  1.0978 -0.6799
 1023MOL0     H38073   7.430   5.084  -1.265  2.8462  0.2145  0.9963
 1023MOL0     H38074   7.480   4.922  -1.303 -0.9851  0.7551 -0.4701
 1023MOL0     H38075   7.226   4.975  -1.131 -0.8717 -2.7334  2.3624
 1023MOL0     H38076   7.306   4.822  -1.154 -1.3446 -0.2056  0.3670
 1023MOL0     H38077   7.202   5.006  -1.381 -0.1623 -0.8971 -0.9717
 1023MOL0     H38078   7.278   4.850  -1.405  2.6288  2.6034 -0.0537
 1023MOL0     H38079   7.028   4.932  -1.244 -1.2517 -3.1736  3.6216
 1023MOL0     H38080   7.069   4.759  -1.261  0.3967  0.0436  2.2405
 1023MOL0     H38081   6.896   4.841  -1.420 -0.4570  0.6174 -2.4037
 1023MOL0     H38082   7.004   4.965  -1.482  1.2068  0.3531  1.4223
 1023MOL0     H38083   7.152   4.768  -1.564 -0.1403 -0.2064 -0.9975
 1023MOL0     H38084   7.001   4.782  -1.652  1.9095  2.1603 -0.0835
 1023MOL0     H38085   6.893   4.605  -1.507  0.1029 -1.6955 -1.0244
 1023MOL0     H38086   7.021   4.604  -1.389 -1.2045 -0.5090  0.3884
 1023MOL0     H38087   7.296   5.084  -0.760 -1.3568 -1.1831  0.2096
 1023MOL0     H38088   7.342   4.973  -0.557 -2.4002 -0.7334 -1.5661
 1023MOL0     H38089   7.507   4.862  -0.243 -0.5233  0.2296  0.1126
 1023MOL0     H38090   7.479   4.814  -0.016  2.8193 -0.6352  4.3687
 1023MOL0     H38091   7.179   3.214   0.588 -1.6518 -1.4600  0.3645
 1023MOL0     H38092   7.253   2.987   0.512  0.4988  0.4118  0.5831
 1023MOL0     H38093   7.332   2.673   0.254  1.2555 -1.1342 -0.3368
 1023MOL0     H38094   7.369   2.428   0.241 -1.5956 -2.8385 -0.5835
 1023MOL0     H38095   7.124   2.108   0.397 -3.1850  1.9880 -0.7644
 1023MOL0     H38096   7.037   2.152   0.269 -1.2117 -3.1075  2.1631
 1023MOL0     H38097   7.130   1.944   0.204  0.7539 -0.2977 -1.4611
 1023MOL0     H38098   7.304   1.994   0.241  2.3379 -1.1324 -1.4880
 1023MOL0     H38099   7.318   2.103   0.024 -1.7433  1.0612 -2.4698
 1023MOL0     H38100   7.159   2.131   0.027  0.3261  1.8051  2.0181
 1023MOL0     H38101   7.111   1.908  -0.044  0.0451 -3.9686  3.3763
 1023MOL0     H38102   7.260   1.833   0.017  0.2746  0.6778 -0.0678
 1023MOL0     H38103   7.380   1.965  -0.369 -0.6860 -1.0440 -0.2327
 1023MOL0     H38104   6.977   2.346   0.363 -1.3612  1.5954 -1.0117
 1023MOL0     H38105   6.934   2.583   0.408 -0.0773  0.0239 -0.2527
 1024MOL0     O38106   5.921   2.108   5.714  0.2294  0.7065  0.1683
 1024MOL0     C38107   5.976   2.217   5.751  0.1890  0.2946 -0.3347
 1024MOL0     O38108   6.055   2.299   5.667  0.2674  0.1682 -0.1224
 1024MOL0     C38109   6.089   2.253   5.534  0.0898  0.1864 -0.2641
 1024MOL0     C38110   5.999   2.187   5.441  0.1216  0.5843 -0.9910
 1024MOL0     C38111   6.038   2.160   5.313 -0.3453 -0.2578  1.0612
 1024MOL0     C38112   6.172   2.193   5.273 -0.4492 -0.7418  0.5908
 1024MOL0     O38113   6.236   2.168   5.158  0.3749 -0.0404  0.0410
 1024MOL0     C38114   6.170   2.093   5.053 -0.3499 -0.8328  0.1612
 1024MOL0     C38115   6.157   1.944   5.086  1.4048  0.2788 -0.6711
 1024MOL0     C38116   6.285   1.883   5.138 -0.4166 -0.4715  0.7612
 1024MOL0     C38117   6.309   1.888   5.288  0.4399 -0.5356 -0.0251
 1024MOL0     C38118   6.415   1.785   5.337  0.0778  0.0925  0.4887
 1024MOL0     C38119   6.555   1.862   5.351  0.4888  0.6365  0.2016
 1024MOL0     C38120   6.562   1.985   5.454 -0.0015  0.0620  0.1327
 1024MOL0     C38121   6.512   1.936   5.587 -0.2185  0.6379  0.5930
 1024MOL0     N38122   6.487   2.043   5.683  1.3460 -1.6814 -0.0162
 1024MOL0     C38123   6.566   2.160   5.713 -0.0963 -0.0035 -0.2548
 1024MOL0     C38124   6.491   2.233   5.807  1.0238  1.1990 -0.4420
 1024MOL0     C38125   6.525   2.361   5.881 -0.0535  0.4057 -0.2399
 1024MOL0     C38126   6.671   2.348   5.927  0.7168 -0.2992 -0.4964
 1024MOL0     C38127   6.707   2.477   6.013 -0.1484  0.9010  0.1912
 1024MOL0     C38128   6.839   2.456   6.083  0.2843  0.7547  0.2522
 1024MOL0     O38129   6.813   2.380   6.204  0.1606 -0.0932  0.1499
 1024MOL0     C38130   6.751   2.446   6.309  0.4996  0.4350 -0.8607
 1024MOL0     C38131   6.723   2.581   6.330  0.5293  0.2818 -0.4739
 1024MOL0     C38132   6.656   2.631   6.448  0.7076  0.3646  0.7471
 1024MOL0     C38133   6.626   2.779   6.465  0.3504  0.0972 -0.7174
 1024MOL0     C38134   6.608   2.534   6.537  0.1744 -0.1849 -1.3201
 1024MOL0     C38135   6.548   2.563   6.667  1.4527 -0.0890 -0.3990
 1024MOL0     O38136   6.589   2.496   6.780 -0.0654 -0.4051  0.1561
 1024MOL0     C38137   6.523   2.529   6.893 -0.3877 -0.3017 -0.5063
 1024MOL0     C38138   6.547   2.648   6.958  0.2907 -0.6119  0.3391
 1024MOL0     C38139   6.473   2.681   7.073  0.0912  0.9214 -0.5882
 1024MOL0     C38140   6.372   2.591   7.126 -0.6887 -0.1743  0.5726
 1024MOL0     O38141   6.315   2.628   7.240  0.3686 -0.1596 -0.6354
 1024MOL0     C38142   6.232   2.539   7.326  0.2875 -0.4264 -0.0553
 1024MOL0     C38143   6.173   2.623   7.443  0.1143  0.0980 -0.5032
 1024MOL0     C38144   6.268   2.636   7.559 -0.0029 -0.3917 -0.0357
 1024MOL0     C38145   6.194   2.700   7.674  0.0830 -0.5426  0.1771
 1024MOL0     C38146   6.274   2.710   7.804 -0.8305 -0.1471 -0.1957
 1024MOL0     C38147   6.352   2.581   7.848  1.0739  0.6108 -0.7876
 1024MOL0     C38148   6.437   2.579   7.976 -1.0087 -0.9742 -0.6128
 1024MOL0     C38149   6.442   2.438   8.032 -0.0076 -0.6624 -0.5375
 1024MOL0    Cl38150   6.505   2.436   8.196 -0.2091 -0.1576 -0.5999
 1024MOL0     C38151   6.372   2.458   7.073  0.0373 -0.4227 -0.6621
 1024MOL0     C38152   6.438   2.436   6.962 -1.1383 -0.5095  0.7439
 1024MOL0     O38153   6.466   2.656   6.660  0.1171  0.0204 -0.6075
 1024MOL0     C38154   6.640   2.400   6.516 -0.2749  0.3743  0.4324
 1024MOL0     C38155   6.713   2.355   6.412  0.8567  0.1352 -0.1647
 1024MOL0     N38156   6.379   2.152   5.832 -0.7777 -0.0880  0.0090
 1024MOL0     N38157   6.373   2.048   5.756  0.3177  0.1993  0.3817
 1024MOL0     C38158   6.257   2.259   5.360  0.0924  0.0190  0.8290
 1024MOL0     C38159   6.213   2.288   5.486 -0.1768  0.1073  0.2020
 1024MOL0     C38160   5.934   2.268   5.889 -0.3798  0.4894 -0.1300
 1024MOL0     C38161   5.846   2.205   5.975  0.5617 -0.3800 -0.8823
 1024MOL0     C38162   5.796   2.264   6.095 -0.3091  1.0832 -0.8568
 1024MOL0     C38163   5.852   2.388   6.142 -0.5576 -0.1402 -0.5015
 1024MOL0     O38164   5.812   2.426   6.269 -0.8484 -0.1879 -0.1226
 1024MOL0     C38165   5.762   2.556   6.277  0.7755  0.6314 -0.7158
 1024MOL0     C38166   5.637   2.573   6.356 -0.6387  0.2803  0.0283
 1024MOL0     C38167   5.640   2.561   6.503  0.4674 -0.8496 -0.2205
 1024MOL0     C38168   5.498   2.565   6.573  0.8908  0.0593 -0.0558
 1024MOL0     C38169   5.523   2.516   6.708 -0.5211 -0.6441  0.1109
 1024MOL0     C38170   5.543   2.501   6.831 -0.3898  0.0066  0.7954
 1024MOL0     C38171   5.943   2.460   6.058  0.1520 -0.0056 -0.8025
 1024MOL0     C38172   5.985   2.395   5.936  0.0188 -0.4762  0.3145
 1024MOL0     H38173   5.901   2.167   5.483  0.8464 -0.4203  0.3268
 1024MOL0     H38174   5.971   2.111   5.243  0.9411  0.4341 -0.7111
 1024MOL0     H38175   6.070   2.135   5.041 -1.1202 -2.1517  1.5693
 1024MOL0     H38176   6.230   2.102   4.962 -0.9211 -0.6087 -0.1938
 1024MOL0     H38177   6.074   1.925   5.155  0.2540  3.5593 -1.0174
 1024MOL0     H38178   6.146   1.882   4.996  1.2011 -4.3884  2.1927
 1024MOL0     H38179   6.286   1.779   5.104  3.1983 -0.7047  1.1406
 1024MOL0     H38180   6.374   1.920   5.086 -0.5784  0.5696  1.2017
 1024MOL0     H38181   6.339   1.991   5.308  0.2241  0.1810 -2.8360
 1024MOL0     H38182   6.213   1.880   5.340 -0.3639  0.0296 -1.3461
 1024MOL0     H38183   6.375   1.737   5.427 -2.1998 -2.9491 -1.9139
 1024MOL0     H38184   6.429   1.711   5.257  1.4114 -0.1419  0.9209
 1024MOL0     H38185   6.621   1.782   5.385  0.1002 -0.2855 -1.1334
 1024MOL0     H38186   6.593   1.895   5.254 -1.2774 -0.7359 -1.0323
 1024MOL0     H38187   6.666   2.018   5.453 -0.4151  1.8787 -3.6816
 1024MOL0     H38188   6.516   2.073   5.408 -0.5974  0.4796  1.4839
 1024MOL0     H38189   6.593   1.879   5.635  0.5031  1.7405  0.7145
 1024MOL0     H38190   6.421   1.875   5.586 -0.1849  0.5561  1.4131
 1024MOL0     H38191   6.666   2.185   5.677  0.8089  2.5395  3.4181
 1024MOL0     H38192   6.513   2.449   5.817 -1.7969 -0.2839 -0.9384
 1024MOL0     H38193   6.454   2.366   5.965  0.7760 -0.7299  0.5587
 1024MOL0     H38194   6.749   2.342   5.852  4.2368  0.4576  2.8037
 1024MOL0     H38195   6.681   2.252   5.980 -1.3754 -0.8316 -0.9650
 1024MOL0     H38196   6.630   2.502   6.086  1.9549  3.3759  1.7252
 1024MOL0     H38197   6.703   2.560   5.942 -0.1024  1.5566  0.9479
 1024MOL0     H38198   6.881   2.556   6.100 -0.1985  1.0955 -0.5155
 1024MOL0     H38199   6.910   2.406   6.016  0.3351 -1.2190  1.6885
 1024MOL0     H38200   6.764   2.652   6.259  1.3204  0.0981 -0.2145
 1024MOL0     H38201   6.705   2.846   6.430 -1.1625  1.6172 -1.3920
 1024MOL0     H38202   6.526   2.807   6.430 -1.6947 -0.7955  3.7234
 1024MOL0     H38203   6.619   2.805   6.571 -1.8013 -1.8908 -0.2900
 1024MOL0     H38204   6.614   2.718   6.910 -1.5452  1.4761  0.6341
 1024MOL0     H38205   6.495   2.770   7.130 -0.8047  0.3849  0.6569
 1024MOL0     H38206   6.149   2.495   7.270  1.9983 -1.7984 -1.6524
 1024MOL0     H38207   6.283   2.447   7.356  0.0732 -0.7630 -0.7099
 1024MOL0     H38208   6.145   2.720   7.401  1.2887  1.0767  0.8797
 1024MOL0     H38209   6.090   2.568   7.488  1.8975 -1.8629  0.5841
 1024MOL0     H38210   6.350   2.704   7.535 -1.6158  1.3103 -0.9606
 1024MOL0     H38211   6.302   2.538   7.592 -0.0573  0.5751  3.3278
 1024MOL0     H38212   6.162   2.801   7.650  2.7795 -0.4290 -4.1579
 1024MOL0     H38213   6.111   2.632   7.695 -0.9949 -0.6222 -3.6322
 1024MOL0     H38214   6.199   2.739   7.879 -0.4243 -0.4647  0.3476
 1024MOL0     H38215   6.346   2.791   7.789 -2.8936  1.4307 -2.2714
 1024MOL0     H38216   6.277   2.502   7.851  0.0949  1.5196 -0.9056
 1024MOL0     H38217   6.415   2.561   7.761 -1.5313 -0.9194 -2.4676
 1024MOL0     H38218   6.391   2.648   8.047 -0.4324 -0.4029 -0.7848
 1024MOL0     H38219   6.542   2.606   7.958 -0.9990 -1.6970 -1.7049
 1024MOL0     H38220   6.517   2.389   7.970 -1.6979 -0.5273 -2.8116
 1024MOL0     H38221   6.345   2.388   8.023 -1.2415  1.5945 -0.7078
 1024MOL0     H38222   6.307   2.383   7.118  0.2422  1.4031  3.0610
 1024MOL0     H38223   6.412   2.348   6.904 -0.5572 -0.8312  0.9637
 1024MOL0     H38224   6.606   2.322   6.584  0.9125 -1.2699 -0.7664
 1024MOL0     H38225   6.718   2.249   6.392 -0.4735 -0.5734  2.7691
 1024MOL0     H38226   6.357   2.289   5.328  1.4093 -5.7139 -1.7112
 1024MOL0     H38227   6.271   2.345   5.557 -2.8974  1.1038  1.7864
 1024MOL0     H38228   5.811   2.105   5.952  2.0283 -1.3155  0.7291
 1024MOL0     H38229   5.737   2.197   6.155  2.4721 -2.0246 -1.3138
 1024MOL0     H38230   5.847   2.616   6.311 -0.4775  0.5089  3.0047
 1024MOL0     H38231   5.733   2.605   6.183 -2.5963  0.4103  0.0841
 1024MOL0     H38232   5.569   2.505   6.303  0.8411 -2.5907  1.6201
 1024MOL0     H38233   5.608   2.677   6.334  1.5330  0.6291 -1.5136
 1024MOL0     H38234   5.705   2.637   6.548  1.2008 -0.9199 -1.1237
 1024MOL0     H38235   5.689   2.466   6.527  1.0841 -0.0143  2.0892
 1024MOL0     H38236   5.429   2.495   6.525 -1.4459  2.6225 -0.6659
 1024MOL0     H38237   5.453   2.662   6.593 -1.0201 -0.6675 -0.6300
 1024MOL0     H38238   5.564   2.476   6.933 -0.6298 -5.1800 -0.1395
 1024MOL0     H38239   5.991   2.550   6.095 -0.9145  0.5312 -0.6801
 1024MOL0     H38240   6.052   2.454   5.875  2.0926 -0.8055  2.1726
  11.50805  11.50805  11.50805
